<LesHouchesEvents version="3.0">
  <!--
  <scalesfunctionalform>
    muR  H_T/2 := sum_i mT(i)/2, i=final state
    muF1 H_T/2 := sum_i mT(i)/2, i=final state
    muF2 H_T/2 := sum_i mT(i)/2, i=final state
    QES  H_T/2 := sum_i mT(i)/2, i=final state
  </scalesfunctionalform>
HERWIG6   
  -->
  <header>
      972
  </header>
  <init>
   2212   2212 0.65000000D+04 0.65000000D+04 -1 -1   244800   244800 -4   1
 0.23775719D-02 0.10407645D-04 0.26562228D-05     66
  </init>
  <event>
  9     66 0.26562228E-05 0.30713925E+03 0.75467711E-02 0.97692884E-01
       21 -1    0    0  502  501 0.00000000E+00 0.00000000E+00 0.43376909E+03 0.43376974E+03 0.75000000E+00 0.0000E+00 0.9000E+01
        1 -1    0    0  501    0 0.00000000E+00 0.00000000E+00 -.51384971E+03 0.51384981E+03 0.32000000E+00 0.0000E+00 0.9000E+01
       25  2    1    2    0    0 -.24124176E+03 0.17864360E+03 -.24824404E+03 0.49139099E+03 0.29954779E+03 0.0000E+00 0.0000E+00
       23  2    3    3    0    0 0.43500878E+00 0.11859750E+03 -.13390938E+03 0.20259892E+03 0.95126461E+02 0.0000E+00 0.0000E+00
      -24  1    1    2    0    0 0.92781729E+02 -.19834222E+03 0.19505081E+03 0.30407256E+03 0.80419002E+02 0.0000E+00 0.9000E+01
      -13  1    4    4    0    0 0.12152962E+02 0.84435764E+02 -.14193906E+03 0.16560133E+03 0.10565837E+00 0.0000E+00 0.9000E+01
       13  1    4    4    0    0 -.11717953E+02 0.34161738E+02 0.80296795E+01 0.36997590E+02 0.10565837E+00 0.0000E+00 0.9000E+01
       23  1    3    3    0    0 -.24167676E+03 0.60046094E+02 -.11433466E+03 0.28879207E+03 0.91188000E+02 0.0000E+00 0.9000E+01
        2  1    1    2  502    0 0.14846003E+03 0.19698619E+02 -.26887391E+02 0.15215600E+03 0.32000000E+00 0.0000E+00 0.9000E+01
#aMCatNLO 2  0  0  1  1 0.14976119D+03 0.00000000D+00  -5  7  0 0.00000000D+00 0.00000000D+00 0.00000000D+00 0.00000000D+00 0.00000000D+00
  <mgrwgt>
 0.1544698395D-03    1    2    0
 0.389712815396524D+03 0.000000000000000D+00 0.000000000000000D+00 0.389712815396524D+03
 0.389712815396524D+03 0.000000000000000D+00 0.000000000000000D+00 -.389712815396524D+03
 0.336300623588734D+03 0.154514163905044D+03 -.190151163858329D+03 0.215867555477540D+03
 0.163770905590582D+03 0.423743680853709D+02 0.884457903545308D+02 -.131158928845455D+03
 0.369381320333935D+02 -.468178911224663D+01 0.350952813314939D+02 0.105274724928707D+02
 0.242415969580338D+03 -.192206742878168D+03 0.666100921723047D+02 -.952360991249550D+02
 0.000000000000000D+00 0.000000000000000D+00 0.000000000000000D+00 -.000000000000000D+00
 0.463813956933578D+03 0.000000000000000D+00 0.000000000000000D+00 0.463813956933578D+03
 0.480564050862419D+03 0.000000000000000D+00 0.000000000000000D+00 -.480564050862419D+03
 0.317827156012193D+03 0.927817287525308D+02 -.198342215491991D+03 0.215867555477540D+03
 0.156460118331206D+03 0.121529930963204D+02 0.844358263483487D+02 -.131158928845455D+03
 0.376185960610576D+02 -.117179807032569D+02 0.341616747358054D+02 0.105274724928707D+02
 0.281777145042828D+03 -.241676767642459D+03 0.600460950424051D+02 -.952360991249550D+02
 0.150694992348713D+03 0.148460026496864D+03 0.196986193654316D+02 -.167500939288409D+02
0.124639491770D-05 0.000000000000D+00 0.000000000000D+00 0.480861165346D-06 0.424683221181D-11  7 21 1 -24 -13 13 23 2 2 0.66733739D-01 0.79053831D-01 0.14808976D+06 0.14808976D+06 0.14808976D+06 0.11079914D+01  1  2  1  3  7  1       -2 0.154469839533D-03 0.100000000000D+01
  </mgrwgt>
  </event>
  <event>
  8     66 0.26562228E-05 0.33427200E+03 0.75467711E-02 0.90020075E-01
       -2 -1    0    0    0  501 0.00000000E+00 0.00000000E+00 0.69022497E+03 0.69022505E+03 0.32000000E+00 0.0000E+00 0.9000E+01
        1 -1    0    0  501    0 0.00000000E+00 0.00000000E+00 -.40528242E+03 0.40528254E+03 0.32000000E+00 0.0000E+00 0.9000E+01
       25  2    1    2    0    0 -.25941418E+03 -.17526102E+03 0.53360993E+03 0.68769044E+03 0.30027728E+03 0.0000E+00 0.0000E+00
       23  2    3    3    0    0 -.27951404E+02 -.41803867E+01 0.27308938E+03 0.28890503E+03 0.89941905E+02 0.0000E+00 0.0000E+00
      -24  1    1    2    0    0 0.25941418E+03 0.17526102E+03 -.24866738E+03 0.40781715E+03 0.80419002E+02 0.0000E+00 0.9000E+01
      -13  1    4    4    0    0 -.15684808E+02 -.18681299E+02 0.26818017E+03 0.26928724E+03 0.10565837E+00 0.0000E+00 0.9000E+01
       13  1    4    4    0    0 -.12266597E+02 0.14500913E+02 0.49092117E+01 0.19617782E+02 0.10565837E+00 0.0000E+00 0.9000E+01
       23  1    3    3    0    0 -.23146278E+03 -.17108064E+03 0.26052055E+03 0.39878542E+03 0.91188000E+02 0.0000E+00 0.9000E+01
#aMCatNLO 1  0  0  1  1 0.64134532D+03 0.00000000D+00  -5  7  0 0.00000000D+00 0.00000000D+00 0.00000000D+00 0.00000000D+00 0.00000000D+00
  <mgrwgt>
 0.1138591702D-02    5    2    0
 0.528900893479483D+03 0.000000000000000D+00 0.000000000000000D+00 0.528900893479483D+03
 0.528900893479483D+03 0.000000000000000D+00 0.000000000000000D+00 -.528900893479483D+03
 0.489338080731763D+03 0.259414183697072D+03 0.175261024827195D+03 -.367385894902319D+03
 0.206646039521407D+03 -.156848122817672D+02 -.186813451153016D+02 0.205201314952540D+03
 0.189944017259430D+02 -.122665917850204D+02 0.145009584172233D+02 -.200568911203099D+00
 0.342823264979853D+03 -.231462779630284D+03 -.171080638129117D+03 0.162385148860982D+03
 0.000000000000000D+00 0.000000000000000D+00 0.000000000000000D+00 0.000000000000000D+00
 0.101017435797063D+04 0.000000000000000D+00 0.000000000000000D+00 0.101017435797063D+04
 0.881075533936968D+03 0.000000000000000D+00 0.000000000000000D+00 -.881075533936968D+03
 0.419185891316018D+03 0.173808236648493D+03 -.637800644715659D+02 -.367385894902319D+03
 0.255530582098708D+03 -.592335447475982D+02 -.140284303847890D+03 0.205201314952540D+03
 0.164432274446944D+02 -.156057131507131D+02 0.517698927635263D+01 -.200568911203099D+00
 0.545880493508459D+03 -.315201161039798D+03 -.404906845283700D+03 0.162385148860982D+03
 0.654209697539719D+03 0.216232182289617D+03 0.603794224326804D+03 0.129098824033662D+03
0.221385044647D-03 0.000000000000D+00 0.000000000000D+00 0.825956319613D-05 0.000000000000D+00  7 -2 1 -24 -13 13 23 21 0 0.10618847D+00 0.62351157D-01 0.11173777D+06 0.11173777D+06 0.11173777D+06 0.11177880D+01  1  2  2  1  7  1       -2 0.107319107395D-02 0.100000000000D+01
-.915075961497D-05 0.000000000000D+00 -.850176863464D-06 0.825956319613D-05 0.000000000000D+00  7 -2 1 -24 -13 13 23 21 2 0.10618847D+00 0.62351157D-01 0.11173777D+06 0.11173777D+06 0.11173777D+06 0.11177880D+01  1  2  3  1  7  1       -2 -.554248863096D-04 0.100000000000D+01
0.134967142818D-04 0.000000000000D+00 0.000000000000D+00 0.825956319613D-05 0.000000000000D+00  7 -2 1 -24 -13 13 23 21 2 0.10618847D+00 0.62351157D-01 0.11173777D+06 0.11173777D+06 0.11173777D+06 0.11177880D+01  1  2 15  1  7  1       -2 0.817477330953D-04 0.100000000000D+01
0.509094768476D-04 0.000000000000D+00 -.619593907832D-04 0.825956319613D-05 0.000000000000D+00  7 -2 1 -24 -13 13 23 21 2 0.28088099D+00 0.62351157D-01 0.11173777D+06 0.11173777D+06 0.11173777D+06 0.11177880D+01  1  2  5  1  7  1       -2 0.165179738827D-04 0.100000000000D+01
0.918229720251D-05 0.000000000000D+00 -.669786076556D-05 0.825956319613D-05 0.000000000000D+00  7 21 1 -24 -13 13 23 2 2 0.28088099D+00 0.62351157D-01 0.11173777D+06 0.11173777D+06 0.11173777D+06 0.11177880D+01  1  2  5  3  7  1       -2 0.225598073934D-04 0.100000000000D+01
  </mgrwgt>
  </event>
  <event>
  8     66 0.26562228E-05 0.33673192E+03 0.75467711E-02 0.92046971E-01
       -2 -1    0    0    0  501 0.00000000E+00 0.00000000E+00 0.18260413E+03 0.18260441E+03 0.32000000E+00 0.0000E+00 0.9000E+01
        1 -1    0    0  501    0 0.00000000E+00 0.00000000E+00 -.13805435E+04 0.13805436E+04 0.32000000E+00 0.0000E+00 0.9000E+01
       25  2    1    2    0    0 -.18287101E+03 0.19484442E+03 -.12188804E+04 0.12833054E+04 0.29966158E+03 0.0000E+00 0.0000E+00
       23  2    3    3    0    0 0.17658515E+02 0.14450667E+03 -.42065364E+03 0.45371076E+03 0.87806455E+02 0.0000E+00 0.0000E+00
      -24  1    1    2    0    0 0.18287101E+03 -.19484442E+03 0.20940986E+02 0.27984263E+03 0.80419002E+02 0.0000E+00 0.9000E+01
      -11  1    4    4    0    0 0.23060158E+02 0.15496299E+03 -.37182392E+03 0.40348275E+03 0.51099893E-03 0.0000E+00 0.9000E+01
       11  1    4    4    0    0 -.54016428E+01 -.10456321E+02 -.48829716E+02 0.50228015E+02 0.51099893E-03 0.0000E+00 0.9000E+01
       23  1    3    3    0    0 -.20052952E+03 0.50337752E+02 -.79822676E+03 0.82959459E+03 0.91188000E+02 0.0000E+00 0.9000E+01
#aMCatNLO 1  0  0  2  1 0.50611738D+03 0.00000000D+00  -5  7  0 0.00000000D+00 0.00000000D+00 0.00000000D+00 0.00000000D+00 0.00000000D+00
  <mgrwgt>
 0.2247655072D-02    3    2    0
 0.502088832047289D+03 0.000000000000000D+00 0.000000000000000D+00 0.502088832047289D+03
 0.502088832047289D+03 0.000000000000000D+00 0.000000000000000D+00 -.502088832047289D+03
 0.460597246368292D+03 0.182871008029766D+03 -.194844421249482D+03 0.366437516280489D+03
 0.184509892450866D+03 0.230601580516293D+02 0.154962989580951D+03 -.974607684301644D+02
 0.199354961838580D+02 -.540164284409945D+01 -.104563207655213D+02 -.160907308326854D+02
 0.339135029091562D+03 -.200529523237296D+03 0.503377524340519D+02 -.252886017017639D+03
 0.000000000000000D+00 0.000000000000000D+00 -.000000000000000D+00 0.000000000000000D+00
 0.101158993928862D+04 0.000000000000000D+00 0.000000000000000D+00 0.101158993928862D+04
 0.704775269812370D+03 0.000000000000000D+00 0.000000000000000D+00 -.704775269812370D+03
 0.384966185444228D+03 0.144037305315432D+02 -.851341716942717D+02 0.366437516280489D+03
 0.239502702423464D+03 -.614187169753049D+02 0.209977818567228D+03 -.974607684301644D+02
 0.217298680149960D+02 -.137029129895061D+02 -.505031888312378D+01 -.160907308326854D+02
 0.478313396369222D+03 -.363395259326888D+03 0.156400133305439D+03 -.252886017017639D+03
 0.591853056849079D+03 0.424113158760155D+03 -.276193461295272D+03 0.306814669476249D+03
0.216453180117D-03 0.000000000000D+00 0.000000000000D+00 0.188588688029D-05 0.000000000000D+00  7 -2 1 -24 -11 11 23 21 0 0.28092967D-01 0.21239134D+00 0.11338839D+06 0.11338839D+06 0.11338839D+06 0.11172714D+01  1  2  2  2  7  2        1 0.220107846770D-02 0.100000000000D+01
-.969180122479D-05 0.000000000000D+00 -.831237205081D-06 0.188588688029D-05 0.000000000000D+00  7 -2 1 -24 -11 11 23 21 2 0.28092967D-01 0.21239134D+00 0.11338839D+06 0.11338839D+06 0.11338839D+06 0.11172714D+01  1  2  3  2  7  2        1 -.123025007533D-03 0.100000000000D+01
0.133610649051D-04 0.000000000000D+00 0.000000000000D+00 0.188588688029D-05 0.000000000000D+00  7 -2 1 -24 -11 11 23 21 2 0.28092967D-01 0.21239134D+00 0.11338839D+06 0.11338839D+06 0.11338839D+06 0.11172714D+01  1  2 15  2  7  2        1 0.169601611969D-03 0.100000000000D+01
  </mgrwgt>
  </event>
  <event>
  8     66 0.26562228E-05 0.22806064E+03 0.75467711E-02 0.91855732E-01
       -2 -1    0    0    0  501 0.00000000E+00 0.00000000E+00 0.61274443E+03 0.61274451E+03 0.32000000E+00 0.0000E+00 0.9000E+01
        1 -1    0    0  501    0 0.00000000E+00 0.00000000E+00 -.14469086E+04 0.14469087E+04 0.32000000E+00 0.0000E+00 0.9000E+01
       25  2    1    2    0    0 0.66807675E+02 0.16857862E+03 -.14087848E+04 0.14517568E+04 0.30006834E+03 0.0000E+00 0.0000E+00
       23  2    3    3    0    0 0.20530796E+02 0.13938865E+02 -.12966845E+03 0.15927506E+03 0.89100130E+02 0.0000E+00 0.0000E+00
      -24  1    1    2    0    0 -.66807675E+02 -.16857862E+03 0.57462060E+03 0.60789643E+03 0.80419002E+02 0.0000E+00 0.9000E+01
      -11  1    4    4    0    0 0.42457122E+02 -.58111148E+01 -.12123217E+03 0.12858311E+03 0.51099893E-03 0.0000E+00 0.9000E+01
       11  1    4    4    0    0 -.21926326E+02 0.19749980E+02 -.84362827E+01 0.30691959E+02 0.51099893E-03 0.0000E+00 0.9000E+01
       23  1    3    3    0    0 0.46276879E+02 0.15463975E+03 -.12791164E+04 0.12924817E+04 0.91188000E+02 0.0000E+00 0.9000E+01
#aMCatNLO 1  0  0  1  1 0.59605282D+03 0.00000000D+00  -5  7  0 0.00000000D+00 0.00000000D+00 0.00000000D+00 0.00000000D+00 0.00000000D+00
  <mgrwgt>
 0.1012119802D-02    7    2    0
 0.941586605794743D+03 0.000000000000000D+00 0.000000000000000D+00 0.941586605794743D+03
 0.941586605794743D+03 0.000000000000000D+00 0.000000000000000D+00 -.941586605794743D+03
 0.919396986336126D+03 -.668076746057886D+02 -.168578619633393D+03 0.897742494341138D+03
 0.869325591646012D+02 0.424571217100516D+02 -.581111475145958D+01 -.756365890581412D+02
 0.298313215803776D+02 -.219263256323515D+02 0.197499799332206D+02 0.436832738395048D+01
 0.847012344508380D+03 0.462768785280885D+02 0.154639754451632D+03 -.826474232666947D+03
 0.000000000000000D+00 0.000000000000000D+00 -.000000000000000D+00 0.000000000000000D+00
 0.132231850964996D+04 0.000000000000000D+00 0.000000000000000D+00 0.132231850964996D+04
 0.125300310266156D+04 0.000000000000000D+00 0.000000000000000D+00 -.125300310266156D+04
 0.913493680252285D+03 -.963765656109439D+02 0.113019729966436D+03 0.897742494341138D+03
 0.879505644354048D+02 0.396358404876453D+02 0.210572630936240D+02 -.756365890581412D+02
 0.382316708566572D+02 -.230243437747001D+02 0.302069191759575D+02 0.436832738395048D+01
 0.935576044716537D+03 0.175194830386153D+02 0.428509853509906D+03 -.826474232666947D+03
 0.600069652050643D+03 0.622455858593834D+02 -.592793765745924D+03 0.693154069884027D+02
0.152011134255D-02 0.000000000000D+00 0.000000000000D+00 0.202620544830D-04 0.000000000000D+00  7 -2 1 -24 -11 11 23 21 0 0.94268383D-01 0.22260134D+00 0.52011657D+05 0.52011657D+05 0.52011657D+05 0.11457916D+01  1  2  2  1  7  1       -2 0.130416212381D-02 0.100000000000D+01
0.121996639908D-03 0.000000000000D+00 -.583762780991D-05 0.202620544830D-04 0.000000000000D+00  7 -2 1 -24 -11 11 23 21 2 0.94268383D-01 0.22260134D+00 0.52011657D+05 0.52011657D+05 0.52011657D+05 0.11457916D+01  1  2  3  1  7  1       -2 0.137409050495D-03 0.100000000000D+01
0.941397259447D-04 0.000000000000D+00 0.000000000000D+00 0.202620544830D-04 0.000000000000D+00  7 -2 1 -24 -11 11 23 21 2 0.94268383D-01 0.22260134D+00 0.52011657D+05 0.52011657D+05 0.52011657D+05 0.11457916D+01  1  2 15  1  7  1       -2 0.106032841279D-03 0.100000000000D+01
-.460792086115D-03 0.000000000000D+00 0.000000000000D+00 0.202620544830D-04 0.000000000000D+00  7 -2 1 -24 -11 11 23 21 2 0.94268383D-01 0.22260134D+00 0.52011657D+05 0.52011657D+05 0.52011657D+05 0.11457916D+01  1  2  4  1  7  1       -2 -.519006122433D-03 0.100000000000D+01
0.716117407911D-03 0.000000000000D+00 -.473097479341D-03 0.202620544830D-04 0.000000000000D+00  7 -2 1 -24 -11 11 23 21 2 0.16820682D+00 0.22260134D+00 0.52011657D+05 0.52011657D+05 0.52011657D+05 0.11457916D+01  1  2  5  1  7  1       -2 0.182613555755D-03 0.100000000000D+01
-.317820004715D-03 0.000000000000D+00 0.403534032765D-03 0.202620544830D-04 0.000000000000D+00  7 -2 1 -24 -11 11 23 21 2 0.94268383D-01 0.22260134D+00 0.52011657D+05 0.52011657D+05 0.52011657D+05 0.11457916D+01  1  2  6  1  7  1       -2 -.357971704048D-03 0.100000000000D+01
0.703832970453D-04 0.000000000000D+00 -.301060571080D-04 0.202620544830D-04 0.000000000000D+00  7 21 1 -24 -11 11 23 2 2 0.16820682D+00 0.22260134D+00 0.52011657D+05 0.52011657D+05 0.52011657D+05 0.11457916D+01  1  2  5  3  7  1       -2 0.158880057633D-03 0.100000000000D+01
  </mgrwgt>
  </event>
  <event>
  8     66 0.26562228E-05 0.19026433E+03 0.75467711E-02 0.98610865E-01
       -2 -1    0    0    0  501 0.00000000E+00 0.00000000E+00 0.35466223E+02 0.35467666E+02 0.32000000E+00 0.0000E+00 0.9000E+01
        1 -1    0    0  501    0 0.00000000E+00 0.00000000E+00 -.11343065E+04 0.11343065E+04 0.32000000E+00 0.0000E+00 0.9000E+01
       25  2    1    2    0    0 0.18233990E+02 0.32535755E+02 -.94541384E+03 0.99257957E+03 0.30002636E+03 0.0000E+00 0.0000E+00
       23  2    3    3    0    0 0.11907524E+03 -.87700940E+01 -.58272308E+03 0.60304784E+03 0.99220371E+02 0.0000E+00 0.0000E+00
      -24  1    1    2    0    0 -.18233990E+02 -.32535755E+02 -.15342644E+03 0.17719464E+03 0.80419002E+02 0.0000E+00 0.9000E+01
      -13  1    4    4    0    0 -.45231143E+01 0.21965315E+02 -.15972018E+03 0.16128695E+03 0.10565837E+00 0.0000E+00 0.9000E+01
       13  1    4    4    0    0 0.12359835E+03 -.30735409E+02 -.42300290E+03 0.44176089E+03 0.10565837E+00 0.0000E+00 0.9000E+01
       23  1    3    3    0    0 -.10084125E+03 0.41305849E+02 -.36269076E+03 0.38953173E+03 0.91188000E+02 0.0000E+00 0.9000E+01
#aMCatNLO 1  0  0  2  2 0.25838528D+03 0.00000000D+00  -5  7  0 0.00000000D+00 0.00000000D+00 0.00000000D+00 0.00000000D+00 0.00000000D+00
  <mgrwgt>
 0.3746373563D-02    3    2    0
 0.200575267023503D+03 0.000000000000000D+00 0.000000000000000D+00 0.200575267023503D+03
 0.200575267023503D+03 0.000000000000000D+00 0.000000000000000D+00 -.200575267023503D+03
 0.964390976514394D+02 -.182340225864124D+02 -.325358136723694D+02 0.379766355862179D+02
 0.328112107377464D+02 -.452306145077205D+01 0.219652313783353D+02 -.239509097047595D+02
 0.129497295757763D+03 0.123598484988157D+03 -.307353558975397D+02 -.234158496548277D+02
 0.142402929900056D+03 -.100841400950973D+03 0.413059381915738D+02 0.939012377336931D+01
 0.000000000000000D+00 0.000000000000000D+00 0.000000000000000D+00 0.000000000000000D+00
 0.918922807795113D+03 0.000000000000000D+00 0.000000000000000D+00 0.918922807795113D+03
 0.263114484341664D+03 0.000000000000000D+00 0.000000000000000D+00 -.263114484341664D+03
 0.138669179581656D+03 -.474450033519885D+02 -.952295763823434D+02 0.379766355862179D+02
 0.274345900410229D+02 -.120082888892369D+02 0.590014008190330D+01 -.239509097047595D+02
 0.138357245550015D+03 0.903189512082538D+02 -.102161208067303D+03 -.234158496548277D+02
 0.172702167986373D+03 -.139991570659246D+03 -.427197050911119D+02 0.939012377336931D+01
 0.704874108977710D+03 0.109125911692218D+03 0.234210349458855D+03 0.655808323453449D+03
0.183592990151D-04 0.000000000000D+00 0.000000000000D+00 0.258976638049D-07 0.000000000000D+00  7 -2 1 -24 -13 13 23 21 0 0.54564565D-02 0.17450881D+00 0.36200515D+05 0.36200515D+05 0.36200515D+05 0.11598404D+01  1  2  2  2  7  2        1 0.370054286870D-02 0.100000000000D+01
-.101650702840D-05 0.000000000000D+00 -.705045423323D-07 0.258976638049D-07 0.000000000000D+00  7 -2 1 -24 -13 13 23 21 2 0.54564565D-02 0.17450881D+00 0.36200515D+05 0.36200515D+05 0.36200515D+05 0.11598404D+01  1  2  3  2  7  2        1 -.275623467611D-03 0.100000000000D+01
0.118553190660D-05 0.000000000000D+00 0.000000000000D+00 0.258976638049D-07 0.000000000000D+00  7 -2 1 -24 -13 13 23 21 2 0.54564565D-02 0.17450881D+00 0.36200515D+05 0.36200515D+05 0.36200515D+05 0.11598404D+01  1  2 15  2  7  2        1 0.321454162078D-03 0.100000000000D+01
  </mgrwgt>
  </event>
  <event>
  8     66 0.26562228E-05 0.15560044E+03 0.75467711E-02 0.10421745E+00
       -2 -1    0    0    0  501 0.00000000E+00 0.00000000E+00 0.52247996E+02 0.52248976E+02 0.32000000E+00 0.0000E+00 0.9000E+01
        1 -1    0    0  501    0 0.00000000E+00 0.00000000E+00 -.16779783E+04 0.16779783E+04 0.32000000E+00 0.0000E+00 0.9000E+01
       25  2    1    2    0    0 0.14515733E+03 0.39903070E+02 -.58260295E+03 0.67322929E+03 0.30190823E+03 0.0000E+00 0.0000E+00
       23  2    3    3    0    0 0.15494978E+03 0.62154510E+02 -.53481454E+03 0.56744649E+03 0.89979471E+02 0.0000E+00 0.0000E+00
      -24  1    1    2    0    0 -.14515733E+03 -.39903070E+02 -.10431274E+04 0.10569980E+04 0.80419002E+02 0.0000E+00 0.9000E+01
      -13  1    4    4    0    0 0.10421244E+03 0.14941439E+02 -.42292146E+03 0.43582800E+03 0.10565837E+00 0.0000E+00 0.9000E+01
       13  1    4    4    0    0 0.50737338E+02 0.47213071E+02 -.11189308E+03 0.13161848E+03 0.10565837E+00 0.0000E+00 0.9000E+01
       23  1    3    3    0    0 -.97924544E+01 -.22251440E+02 -.47788407E+02 0.10578281E+03 0.91188000E+02 0.0000E+00 0.9000E+01
#aMCatNLO 1  0  0  2  1 0.24152270D+02 0.00000000D+00  -5  7  0 0.00000000D+00 0.00000000D+00 0.00000000D+00 0.00000000D+00 0.00000000D+00
  <mgrwgt>
 0.9928512911D-03    6    2    0
 0.296094373391524D+03 0.000000000000000D+00 0.000000000000000D+00 0.296094373391524D+03
 0.296094373391524D+03 0.000000000000000D+00 0.000000000000000D+00 -.296094373391524D+03
 0.224595754141377D+03 -.145157331216175D+03 -.399030715892439D+02 -.145990173970389D+03
 0.112338018746640D+03 0.104212511443771D+03 0.149413924540513D+02 -.391961440199961D+02
 0.773771672947510D+02 0.507372647925797D+02 0.472131146411144D+02 0.344075251335015D+02
 0.177877806600280D+03 -.979244502017563D+01 -.222514355059217D+02 0.150778792856884D+03
 0.000000000000000D+00 -.000000000000000D+00 0.000000000000000D+00 0.000000000000000D+00
 0.309480922944753D+03 0.000000000000000D+00 0.000000000000000D+00 0.309480922944753D+03
 0.307438606760498D+03 0.000000000000000D+00 0.000000000000000D+00 -.307438606760498D+03
 0.223438290781687D+03 -.140867434936393D+03 -.479654950105582D+02 -.145990173970389D+03
 0.113889928917667D+03 0.106378629045916D+03 0.108703948937704D+02 -.391961440199961D+02
 0.767135937343044D+02 0.522126736146948D+02 0.444402339308055D+02 0.344075251335015D+02
 0.178639250855400D+03 -.637881782869562D+01 -.286670003646643D+02 0.150778792856884D+03
 0.242384654161922D+02 -.113450498955224D+02 0.213218665506466D+02 0.204231618425530D+01
0.146131060922D-04 0.000000000000D+00 0.000000000000D+00 0.143559507310D-06 0.000000000000D+00  7 -2 1 -24 -13 13 23 21 0 0.80382309D-02 0.25815059D+00 0.48319268D+05 0.48319268D+05 0.48319268D+05 0.11486039D+01  1  2  2  2  7  2        1 0.718714456076D-03 0.100000000000D+01
-.724250150583D-06 0.000000000000D+00 -.561181751133D-07 0.143559507310D-06 0.000000000000D+00  7 -2 1 -24 -13 13 23 21 2 0.80382309D-02 0.25815059D+00 0.48319268D+05 0.48319268D+05 0.48319268D+05 0.11486039D+01  1  2  3  2  7  2        1 -.469940606996D-04 0.100000000000D+01
0.923635334038D-06 0.000000000000D+00 0.000000000000D+00 0.143559507310D-06 0.000000000000D+00  7 -2 1 -24 -13 13 23 21 2 0.80382309D-02 0.25815059D+00 0.48319268D+05 0.48319268D+05 0.48319268D+05 0.11486039D+01  1  2 15  2  7  2        1 0.599314683155D-04 0.100000000000D+01
0.285465925700D-04 0.000000000000D+00 0.000000000000D+00 0.143559507310D-06 0.000000000000D+00  7 -2 1 -24 -13 13 23 21 2 0.80382309D-02 0.27363961D+00 0.53963145D+05 0.53963145D+05 0.53963145D+05 0.11443929D+01  1  2 12  2  7  2        1 0.157971200376D-02 0.100000000000D+01
-.204929190392D-04 0.000000000000D+00 0.000000000000D+00 0.143559507310D-06 0.000000000000D+00  7 -2 1 -24 -13 13 23 21 2 0.80382309D-02 0.25815059D+00 0.48319268D+05 0.48319268D+05 0.48319268D+05 0.11486039D+01  1  2  4  2  7  2        1 -.132971388472D-02 0.100000000000D+01
0.307698033891D-06 0.000000000000D+00 0.000000000000D+00 0.143559507310D-06 0.000000000000D+00  7 -2 21 -24 -13 13 23 -1 2 0.80382309D-02 0.27363961D+00 0.53963145D+05 0.53963145D+05 0.53963145D+05 0.11443929D+01  1  2 12  4  7  2        1 0.112013083330D-04 0.100000000000D+01
  </mgrwgt>
  </event>
  <event>
  8     66 0.26562228E-05 0.28370908E+03 0.75467711E-02 0.96604926E-01
       -2 -1    0    0    0  501 0.00000000E+00 0.00000000E+00 0.58208421E+03 0.58208430E+03 0.32000000E+00 0.0000E+00 0.9000E+01
        1 -1    0    0  501    0 0.00000000E+00 0.00000000E+00 -.28253364E+03 0.28253383E+03 0.32000000E+00 0.0000E+00 0.9000E+01
       25  2    1    2    0    0 0.19626768E+03 0.10255917E+01 0.47138137E+03 0.59164359E+03 0.29886400E+03 0.0000E+00 0.0000E+00
       23  2    3    3    0    0 0.18197858E+03 0.84172245E+02 0.27677480E+03 0.36076589E+03 0.11552735E+03 0.0000E+00 0.0000E+00
      -24  1    1    2    0    0 -.19626768E+03 -.10255917E+01 -.17183080E+03 0.27297453E+03 0.80419002E+02 0.0000E+00 0.9000E+01
      -11  1    4    4    0    0 0.83377809E+01 -.24743148E+02 0.25541735E+02 0.36525637E+02 0.51099893E-03 0.0000E+00 0.9000E+01
       11  1    4    4    0    0 0.17364080E+03 0.10891539E+03 0.25123306E+03 0.32424026E+03 0.51099893E-03 0.0000E+00 0.9000E+01
       23  1    3    3    0    0 0.14289103E+02 -.83146654E+02 0.19460657E+03 0.23087770E+03 0.91188000E+02 0.0000E+00 0.9000E+01
#aMCatNLO 1  0  0  2  1 0.23591173D+03 0.00000000D+00  -5  7  0 0.00000000D+00 0.00000000D+00 0.00000000D+00 0.00000000D+00 0.00000000D+00
  <mgrwgt>
 0.1283920583D-02    4    2    0
 0.405534820221357D+03 0.000000000000000D+00 0.000000000000000D+00 0.405534820221357D+03
 0.405534820221357D+03 0.000000000000000D+00 0.000000000000000D+00 -.405534820221357D+03
 0.354458765293643D+03 -.196267683826483D+03 -.102559166949657D+01 -.283992508327665D+03
 0.295038618735348D+02 0.833778094015048D+01 -.247431474412129D+02 0.137381195637935D+02
 0.252859907764566D+03 0.173640800416409D+03 0.108915393249472D+03 0.148069046389739D+03
 0.174247105510969D+03 0.142891024699234D+02 -.831466541387622D+02 0.122185342374133D+03
 0.000000000000000D+00 -.000000000000000D+00 -.000000000000000D+00 0.000000000000000D+00
 0.591324086187819D+03 0.000000000000000D+00 0.000000000000000D+00 0.591324086187819D+03
 0.504678428390771D+03 0.000000000000000D+00 0.000000000000000D+00 -.504678428390771D+03
 0.364491645599088D+03 -.188445416693778D+03 0.101111442962852D+03 -.283992508327665D+03
 0.237358661067621D+02 0.891703559808623D+01 -.171796940261321D+02 0.137381195637935D+02
 0.298782977254526D+03 0.179642741500381D+03 0.187284036758447D+03 0.148069046389739D+03
 0.157671881274558D+03 0.179004210556230D+02 -.359928859027140D+02 0.122185342374133D+03
 0.251320144343656D+03 -.180147814603122D+02 -.235222899792452D+03 0.866456577970480D+02
0.143173415935D-03 0.000000000000D+00 0.000000000000D+00 0.731880410632D-08 0.000000000000D+00  7 -2 1 -24 -11 11 23 21 0 0.89551438D-01 0.43466735D-01 0.80490840D+05 0.80490840D+05 0.80490840D+05 0.11295397D+01  1  2  2  2  7  2        1 0.168949249353D-02 0.100000000000D+01
-.671974133198D-05 0.000000000000D+00 -.549823615617D-06 0.731880410632D-08 0.000000000000D+00  7 -2 1 -24 -11 11 23 21 2 0.89551438D-01 0.43466735D-01 0.80490840D+05 0.80490840D+05 0.80490840D+05 0.11295397D+01  1  2  3  2  7  2        1 -.101169458103D-03 0.100000000000D+01
0.887008504413D-05 0.000000000000D+00 0.000000000000D+00 0.731880410632D-08 0.000000000000D+00  7 -2 1 -24 -11 11 23 21 2 0.89551438D-01 0.43466735D-01 0.80490840D+05 0.80490840D+05 0.80490840D+05 0.11295397D+01  1  2 15  2  7  2        1 0.133544083457D-03 0.100000000000D+01
-.290886942605D-04 0.000000000000D+00 0.000000000000D+00 0.731880410632D-08 0.000000000000D+00  7 -2 1 -24 -11 11 23 21 2 0.89551438D-01 0.43466735D-01 0.80490840D+05 0.80490840D+05 0.80490840D+05 0.11295397D+01  1  2  4  2  7  2        1 -.437946535421D-03 0.100000000000D+01
  </mgrwgt>
  </event>
  <event>
  8     66 0.26562228E-05 0.18534343E+03 0.75467711E-02 0.10613141E+00
       -2 -1    0    0    0  501 0.00000000E+00 0.00000000E+00 0.18609051E+03 0.18609078E+03 0.32000000E+00 0.0000E+00 0.9000E+01
        1 -1    0    0  501    0 0.00000000E+00 0.00000000E+00 -.42751585E+03 0.42751597E+03 0.32000000E+00 0.0000E+00 0.9000E+01
       25  2    1    2    0    0 0.18930443E+02 -.58813838E+02 -.35161986E+03 0.46384869E+03 0.29614466E+03 0.0000E+00 0.0000E+00
       23  2    3    3    0    0 -.25823185E+02 0.74321933E+02 -.78646113E+02 0.14360201E+03 0.90806060E+02 0.0000E+00 0.0000E+00
      -24  1    1    2    0    0 -.18930443E+02 0.58813838E+02 0.11019451E+03 0.14975806E+03 0.80419002E+02 0.0000E+00 0.9000E+01
      -13  1    4    4    0    0 -.15110791E+02 -.91436928E+01 -.52641100E+02 0.55525127E+02 0.10565837E+00 0.0000E+00 0.9000E+01
       13  1    4    4    0    0 -.10712394E+02 0.83465625E+02 -.26005012E+02 0.88076886E+02 0.10565837E+00 0.0000E+00 0.9000E+01
       23  1    3    3    0    0 0.44753627E+02 -.13313577E+03 -.27297374E+03 0.32024668E+03 0.91188000E+02 0.0000E+00 0.9000E+01
#aMCatNLO 1  0  0  2  1 0.34452460D+02 0.00000000D+00  -5  7  0 0.00000000D+00 0.00000000D+00 0.00000000D+00 0.00000000D+00 0.00000000D+00
  <mgrwgt>
 0.1661750524D-02    4    2    0
 0.282058083195900D+03 0.000000000000000D+00 0.000000000000000D+00 0.282058083195900D+03
 0.282058083195900D+03 0.000000000000000D+00 0.000000000000000D+00 -.282058083195900D+03
 0.210056565781141D+03 -.189304427709794D+02 0.588138386064393D+02 0.183954112751704D+03
 0.378674866544338D+02 -.151107968619324D+02 -.914381827494458D+01 -.334962826456299D+02
 0.846746473460623D+02 -.107123872390505D+02 0.834657489459837D+02 0.940794428696660D+01
 0.231517466610162D+03 0.447536268719623D+02 -.133135769277478D+03 -.159865774393041D+03
 0.000000000000000D+00 -.000000000000000D+00 -.000000000000000D+00 0.000000000000000D+00
 0.434777400621781D+03 0.000000000000000D+00 0.000000000000000D+00 0.434777400621781D+03
 0.284533396232634D+03 0.000000000000000D+00 0.000000000000000D+00 -.284533396232634D+03
 0.209414173152890D+03 -.614047269418684D+01 0.592474384236409D+02 0.183954112751704D+03
 0.369967846697194D+02 -.128281303939683D+02 -.906643234227244D+01 -.334962826456299D+02
 0.843512659699725D+02 -.555866333685806D+01 0.836404681774190D+02 0.940794428696660D+01
 0.234405026828840D+03 0.589599449677916D+02 -.132654153066301D+03 -.159865774393041D+03
 0.154143546232993D+03 -.344326785427784D+02 -.116732119248658D+01 0.150244004389147D+03
0.257157985749D-04 0.000000000000D+00 0.000000000000D+00 0.892780071161D-07 0.000000000000D+00  7 -2 1 -24 -13 13 23 21 0 0.28629339D-01 0.65771700D-01 0.34352186D+05 0.34352186D+05 0.34352186D+05 0.11619163D+01  1  2  2  2  7  2        1 0.168364329634D-02 0.100000000000D+01
-.112238436741D-05 0.000000000000D+00 -.987554376527D-07 0.892780071161D-07 0.000000000000D+00  7 -2 1 -24 -13 13 23 21 2 0.28629339D-01 0.65771700D-01 0.34352186D+05 0.34352186D+05 0.34352186D+05 0.11619163D+01  1  2  3  2  7  2        1 -.992067877979D-04 0.100000000000D+01
0.160150847917D-05 0.000000000000D+00 0.000000000000D+00 0.892780071161D-07 0.000000000000D+00  7 -2 1 -24 -13 13 23 21 2 0.28629339D-01 0.65771700D-01 0.34352186D+05 0.34352186D+05 0.34352186D+05 0.11619163D+01  1  2 15  2  7  2        1 0.141556240859D-03 0.100000000000D+01
-.726809837213D-06 0.000000000000D+00 0.000000000000D+00 0.892780071161D-07 0.000000000000D+00  7 -2 1 -24 -13 13 23 21 2 0.28629339D-01 0.65771700D-01 0.34352186D+05 0.34352186D+05 0.34352186D+05 0.11619163D+01  1  2  4  2  7  2        1 -.642422251979D-04 0.100000000000D+01
  </mgrwgt>
  </event>
  <event>
  8     66 0.26562228E-05 0.29681754E+03 0.75467711E-02 0.85281150E-01
       -2 -1    0    0    0  501 0.00000000E+00 0.00000000E+00 0.21327103E+03 0.21327127E+03 0.32000000E+00 0.0000E+00 0.9000E+01
        1 -1    0    0  501    0 0.00000000E+00 0.00000000E+00 -.45644772E+03 0.45644783E+03 0.32000000E+00 0.0000E+00 0.9000E+01
       25  2    1    2    0    0 -.17958755E+03 -.14613132E+03 -.14565292E+03 0.40593101E+03 0.29993193E+03 0.0000E+00 0.0000E+00
       23  2    3    3    0    0 -.20547915E+03 -.52189908E+02 -.36888458E+02 0.23376736E+03 0.91328820E+02 0.0000E+00 0.0000E+00
      -24  1    1    2    0    0 0.17958755E+03 0.14613132E+03 -.97523773E+02 0.26378809E+03 0.80419002E+02 0.0000E+00 0.9000E+01
      -11  1    4    4    0    0 -.65787928E+02 0.47901208E+00 -.51798864E+02 0.83734123E+02 0.51099893E-03 0.0000E+00 0.9000E+01
       11  1    4    4    0    0 -.13969122E+03 -.52668920E+02 0.14910406E+02 0.15003324E+03 0.51099893E-03 0.0000E+00 0.9000E+01
       23  1    3    3    0    0 0.25891595E+02 -.93941414E+02 -.10876446E+03 0.17216365E+03 0.91188000E+02 0.0000E+00 0.9000E+01
#aMCatNLO 1  0  0  2  1 0.11797259D+04 0.00000000D+00  -5  7  0 0.00000000D+00 0.00000000D+00 0.00000000D+00 0.00000000D+00 0.00000000D+00
  <mgrwgt>
 0.1071058461D-02    3    2    0
 0.312005113998025D+03 0.000000000000000D+00 0.000000000000000D+00 0.312005113998025D+03
 0.312005113998025D+03 0.000000000000000D+00 0.000000000000000D+00 -.312005113998025D+03
 0.245105614003690D+03 0.179587552333801D+03 0.146131321356165D+03 -.186923171674533D+01
 0.696816537555196D+02 -.657879283388543D+02 0.479012080831758D+00 -.229619664317388D+02
 0.166833782330578D+03 -.139691219241915D+03 -.526689198820423D+02 0.744705248530774D+02
 0.142389177906262D+03 0.258915952469692D+02 -.939414135549547D+02 -.496393267045933D+02
 0.000000000000000D+00 0.000000000000000D+00 -.000000000000000D+00 0.000000000000000D+00
 0.138569011883118D+04 0.000000000000000D+00 0.000000000000000D+00 0.138569011883118D+04
 0.115162586373651D+04 0.000000000000000D+00 0.000000000000000D+00 -.115162586373651D+04
 0.444667974661269D+03 -.136838904133699D+03 0.415372136792132D+03 -.186923171674533D+01
 0.244343284690954D+03 -.209843601313174D+03 0.123053044899629D+03 -.229619664317388D+02
 0.493422659248407D+03 -.442576991619840D+03 0.205050403746515D+03 0.744705248530774D+02
 0.152160418694018D+03 -.109229967303071D+03 0.210307669956041D+02 -.496393267045933D+02
 0.120272164527304D+04 0.898489464369784D+03 -.764506352433879D+03 0.234064255094674D+03
0.225506276897D-04 0.000000000000D+00 0.000000000000D+00 0.317202865870D-05 0.000000000000D+00  7 -2 1 -24 -11 11 23 21 0 0.32810954D-01 0.70222753D-01 0.88100649D+05 0.88100649D+05 0.88100649D+05 0.11262653D+01  1  2  2  2  7  2        1 0.105928921835D-02 0.100000000000D+01
-.124901947047D-05 0.000000000000D+00 -.866003480451D-07 0.317202865870D-05 0.000000000000D+00  7 -2 1 -24 -11 11 23 21 2 0.32810954D-01 0.70222753D-01 0.88100649D+05 0.88100649D+05 0.88100649D+05 0.11262653D+01  1  2  3  2  7  2        1 -.744228906906D-04 0.100000000000D+01
0.144653952774D-05 0.000000000000D+00 0.000000000000D+00 0.317202865870D-05 0.000000000000D+00  7 -2 1 -24 -11 11 23 21 2 0.32810954D-01 0.70222753D-01 0.88100649D+05 0.88100649D+05 0.88100649D+05 0.11262653D+01  1  2 15  2  7  2        1 0.861921336676D-04 0.100000000000D+01
  </mgrwgt>
  </event>
  <event>
  8     66 0.26562228E-05 0.66596715E+03 0.75467711E-02 0.89377595E-01
       -2 -1    0    0    0  501 0.00000000E+00 0.00000000E+00 0.62385126E+03 0.62385134E+03 0.32000000E+00 0.0000E+00 0.9000E+01
        1 -1    0    0  501    0 0.00000000E+00 0.00000000E+00 -.89981279E+03 0.89981285E+03 0.32000000E+00 0.0000E+00 0.9000E+01
       25  2    1    2    0    0 -.32277987E+02 -.64087864E+03 0.18183681E+03 0.73131715E+03 0.29998808E+03 0.0000E+00 0.0000E+00
       23  2    3    3    0    0 0.87659190E+02 -.21403291E+03 0.11348653E+03 0.27352985E+03 0.91897567E+02 0.0000E+00 0.0000E+00
      -24  1    1    2    0    0 0.32277987E+02 0.64087864E+03 -.45779833E+03 0.79234704E+03 0.80419002E+02 0.0000E+00 0.9000E+01
      -13  1    4    4    0    0 0.13248031E+02 -.14649160E+02 -.15118210E+02 0.24873272E+02 0.10565837E+00 0.0000E+00 0.9000E+01
       13  1    4    4    0    0 0.74411159E+02 -.19938375E+03 0.12860474E+03 0.24865657E+03 0.10565837E+00 0.0000E+00 0.9000E+01
       23  1    3    3    0    0 -.11993718E+03 -.42684573E+03 0.68350274E+02 0.45778731E+03 0.91188000E+02 0.0000E+00 0.9000E+01
#aMCatNLO 1  0  0  2  1 0.27989789D+03 0.00000000D+00  -5  7  0 0.00000000D+00 0.00000000D+00 0.00000000D+00 0.00000000D+00 0.00000000D+00
  <mgrwgt>
 0.1673879346D-02    4    2    0
 0.749232574732246D+03 0.000000000000000D+00 0.000000000000000D+00 0.749232574732246D+03
 0.749232574732246D+03 0.000000000000000D+00 0.000000000000000D+00 -.749232574732246D+03
 0.721362179647509D+03 0.322779866299076D+02 0.640878642388662D+03 -.319576087310392D+03
 0.225070073873471D+02 0.132479506338141D+02 -.146489154595490D+02 -.107919628148501D+02
 0.276522668045482D+03 0.744112395694722D+02 -.199383994767878D+03 0.176560969636919D+03
 0.478073294384155D+03 -.119937176833194D+03 -.426845732161235D+03 0.153807080488323D+03
 0.000000000000000D+00 0.000000000000000D+00 -.000000000000000D+00 0.000000000000000D+00
 0.141168133590131D+04 0.000000000000000D+00 0.000000000000000D+00 0.141168133590131D+04
 0.792346529568473D+03 0.000000000000000D+00 0.000000000000000D+00 -.792346529568473D+03
 0.853133799545122D+03 0.254424605479988D+02 0.786507386864592D+03 -.319576087310392D+03
 0.200469984415383D+02 0.130632064232368D+02 -.107129978559615D+02 -.107919628148501D+02
 0.243451692990103D+03 0.721538198276923D+02 -.151290373470658D+03 0.176560969636919D+03
 0.407749559465087D+03 -.123782893368172D+03 -.344913944631171D+03 0.153807080488323D+03
 0.679645815027932D+03 0.131234065692438D+02 -.279590070906802D+03 0.619334806332835D+03
0.964129199348D-03 0.000000000000D+00 0.000000000000D+00 0.254027052124D-04 0.000000000000D+00  7 -2 1 -24 -13 13 23 21 0 0.95977128D-01 0.13843275D+00 0.44351225D+06 0.44351225D+06 0.44351225D+06 0.10722096D+01  1  2  2  2  7  2        1 0.174328897678D-02 0.100000000000D+01
-.526588717834D-04 0.000000000000D+00 -.370250998655D-05 0.254027052124D-04 0.000000000000D+00  7 -2 1 -24 -13 13 23 21 2 0.95977128D-01 0.13843275D+00 0.44351225D+06 0.44351225D+06 0.44351225D+06 0.10722096D+01  1  2  3  2  7  2        1 -.109462427631D-03 0.100000000000D+01
0.616536939933D-04 0.000000000000D+00 0.000000000000D+00 0.254027052124D-04 0.000000000000D+00  7 -2 1 -24 -13 13 23 21 2 0.95977128D-01 0.13843275D+00 0.44351225D+06 0.44351225D+06 0.44351225D+06 0.10722096D+01  1  2 15  2  7  2        1 0.128160038155D-03 0.100000000000D+01
-.423855750883D-04 0.000000000000D+00 0.000000000000D+00 0.254027052124D-04 0.000000000000D+00  7 -2 1 -24 -13 13 23 21 2 0.95977128D-01 0.13843275D+00 0.44351225D+06 0.44351225D+06 0.44351225D+06 0.10722096D+01  1  2  4  2  7  2        1 -.881072417348D-04 0.100000000000D+01
  </mgrwgt>
  </event>
  <event>
  8     66 0.26562228E-05 0.40494501E+03 0.75467711E-02 0.97068235E-01
       -2 -1    0    0    0  501 0.00000000E+00 0.00000000E+00 0.11753218E+03 0.11753262E+03 0.32000000E+00 0.0000E+00 0.9000E+01
        1 -1    0    0  501    0 0.00000000E+00 0.00000000E+00 -.15210391E+04 0.15210392E+04 0.32000000E+00 0.0000E+00 0.9000E+01
       25  2    1    2    0    0 0.31880055E+03 -.16987293E+03 -.87853662E+03 0.99626993E+03 0.30039403E+03 0.0000E+00 0.0000E+00
       23  2    3    3    0    0 0.16338774E+03 0.25835697E+02 -.25649767E+03 0.31973263E+03 0.95262084E+02 0.0000E+00 0.0000E+00
      -24  1    1    2    0    0 -.31880055E+03 0.16987293E+03 -.52497031E+03 0.64230184E+03 0.80419002E+02 0.0000E+00 0.9000E+01
      -11  1    4    4    0    0 -.16119134E+01 -.55914678E+01 -.63970226E+02 0.64234357E+02 0.51099893E-03 0.0000E+00 0.9000E+01
       11  1    4    4    0    0 0.16499965E+03 0.31427165E+02 -.19252745E+03 0.25549828E+03 0.51099893E-03 0.0000E+00 0.9000E+01
       23  1    3    3    0    0 0.15541281E+03 -.19570862E+03 -.62203895E+03 0.67653730E+03 0.91188000E+02 0.0000E+00 0.9000E+01
#aMCatNLO 1  0  0  1  2 0.78323596D+00 0.00000000D+00  -5  7  0 0.00000000D+00 0.00000000D+00 0.00000000D+00 0.00000000D+00 0.00000000D+00
  <mgrwgt>
 0.1572037877D-02    8    2    0
 0.422813703916867D+03 0.000000000000000D+00 0.000000000000000D+00 0.422813703916867D+03
 0.422813703916867D+03 0.000000000000000D+00 0.000000000000000D+00 -.422813703916867D+03
 0.373282812779317D+03 -.318800550482780D+03 0.169872927097008D+03 0.488081961707193D+02
 0.182940470616583D+02 -.161191343976513D+01 -.559146774718972D+01 -.173438571658386D+02
 0.175536711120435D+03 0.164999649741911D+03 0.314271650448479D+02 0.509959393802069D+02
 0.278513836872323D+03 0.155412814180634D+03 -.195708624394666D+03 -.824602783850877D+02
 0.000000000000000D+00 -.000000000000000D+00 0.000000000000000D+00 -.000000000000000D+00
 0.422845445855232D+03 0.000000000000000D+00 0.000000000000000D+00 0.422845445855232D+03
 0.427673259197077D+03 0.000000000000000D+00 0.000000000000000D+00 -.427673259197077D+03
 0.373062030356981D+03 -.318721177938781D+03 0.169536524854024D+03 0.488081961707193D+02
 0.182987525790044D+02 -.160802185583281D+01 -.560796132919727D+01 -.173438571658386D+02
 0.175543550778152D+03 0.165036986549140D+03 0.312689215885472D+02 0.509959393802069D+02
 0.278723436843434D+03 0.155472075446298D+03 -.195959789617386D+03 -.824602783850877D+02
 0.489093449473854D+01 -.179862200824259D+00 0.762304504012458D+00 -.482781334184539D+01
0.806803775878D-04 0.000000000000D+00 0.000000000000D+00 0.530946008157D-06 0.000000000000D+00  7 -2 1 -24 -11 11 23 21 0 0.18081910D-01 0.23400605D+00 0.16398046D+06 0.16398046D+06 0.16398046D+06 0.11045107D+01  1  2  2  1  7  1       -2 0.137377085647D-02 0.100000000000D+01
-.447208188526D-05 0.000000000000D+00 -.309833893568D-06 0.530946008157D-06 0.000000000000D+00  7 -2 1 -24 -11 11 23 21 2 0.18081910D-01 0.23400605D+00 0.16398046D+06 0.16398046D+06 0.16398046D+06 0.11045107D+01  1  2  3  1  7  1       -2 -.928957857827D-04 0.100000000000D+01
0.517905752210D-05 0.000000000000D+00 0.000000000000D+00 0.530946008157D-06 0.000000000000D+00  7 -2 1 -24 -11 11 23 21 2 0.18081910D-01 0.23400605D+00 0.16398046D+06 0.16398046D+06 0.16398046D+06 0.11045107D+01  1  2 15  1  7  1       -2 0.107581352595D-03 0.100000000000D+01
-.286834576444D-04 0.000000000000D+00 0.000000000000D+00 0.530946008157D-06 0.000000000000D+00  7 -2 1 -24 -11 11 23 21 2 0.18081910D-01 0.23400605D+00 0.16398046D+06 0.16398046D+06 0.16398046D+06 0.11045107D+01  1  2  4  1  7  1       -2 -.595823691339D-03 0.100000000000D+01
0.301812591506D-09 0.000000000000D+00 0.000000000000D+00 0.530946008157D-06 0.000000000000D+00  7 -2 1 -24 -11 11 23 21 2 0.18349857D-01 0.23400605D+00 0.16398046D+06 0.16398046D+06 0.16398046D+06 0.11045107D+01  1  2  5  1  7  1       -2 0.611965950611D-08 0.100000000000D+01
-.301779941593D-09 0.000000000000D+00 0.000000000000D+00 0.530946008157D-06 0.000000000000D+00  7 -2 1 -24 -11 11 23 21 2 0.18081910D-01 0.23400605D+00 0.16398046D+06 0.16398046D+06 0.16398046D+06 0.11045107D+01  1  2  6  1  7  1       -2 -.626868772241D-08 0.100000000000D+01
0.286852913928D-04 0.000000000000D+00 0.000000000000D+00 0.530946008157D-06 0.563091041821D-05  7 -2 1 -24 -11 11 23 21 2 0.18083267D-01 0.23669557D+00 0.16430535D+06 0.16430535D+06 0.16430535D+06 0.11044435D+01  1  2 11  1  7  1       -2 0.579931088223D-03 0.100000000000D+01
0.762969858962D-06 0.000000000000D+00 0.000000000000D+00 0.530946008157D-06 0.796962975024D-10  7 21 1 -24 -11 11 23 2 2 0.18083267D-01 0.23669557D+00 0.16430535D+06 0.16430535D+06 0.16430535D+06 0.11044435D+01  1  2 11  3  7  1       -2 0.199474205619D-03 0.100000000000D+01
  </mgrwgt>
  </event>
  <event>
  8     66 0.26562228E-05 0.65848405E+03 0.75467711E-02 0.85466414E-01
       -4 -1    0    0    0  501 0.00000000E+00 0.00000000E+00 0.62297588E+03 0.62297781E+03 0.15500000E+01 0.0000E+00 0.9000E+01
        3 -1    0    0  501    0 0.00000000E+00 0.00000000E+00 -.74689074E+03 0.74689090E+03 0.50000000E+00 0.0000E+00 0.9000E+01
       25  2    1    2    0    0 0.22524569E+03 0.60311562E+03 -.42825508E+01 0.71012394E+03 0.29962243E+03 0.0000E+00 0.0000E+00
       23  2    3    3    0    0 0.34975406E+02 0.32143878E+02 -.49177505E+00 0.10140304E+03 0.89586982E+02 0.0000E+00 0.0000E+00
      -24  1    1    2    0    0 -.22524569E+03 -.60311562E+03 -.11963230E+03 0.65974478E+03 0.80419002E+02 0.0000E+00 0.9000E+01
      -13  1    4    4    0    0 0.42241398E+02 0.24186517E+02 0.37796512E+02 0.61627192E+02 0.10565837E+00 0.0000E+00 0.9000E+01
       13  1    4    4    0    0 -.72659917E+01 0.79573616E+01 -.38288287E+02 0.39775851E+02 0.10565837E+00 0.0000E+00 0.9000E+01
       23  1    3    3    0    0 0.19027028E+03 0.57097174E+03 -.37907757E+01 0.60872089E+03 0.91188000E+02 0.0000E+00 0.9000E+01
#aMCatNLO 1  0  0  1  2 0.87868835D+03 0.00000000D+00  -5  7  0 0.00000000D+00 0.00000000D+00 0.00000000D+00 0.00000000D+00 0.00000000D+00
  <mgrwgt>
 0.6978658103D-04    3    2    0
 0.682126344716082D+03 0.000000000000000D+00 0.000000000000000D+00 0.682126344716082D+03
 0.682126344716082D+03 0.000000000000000D+00 0.000000000000000D+00 -.682126344716082D+03
 0.651594470453129D+03 -.225245688546207D+03 -.603115615768876D+03 -.602002639346154D+02
 0.653139750451484D+02 0.422414668742071D+02 0.241865393184724D+02 0.435498005541876D+02
 0.364618314784816D+02 -.726606051778314D+01 0.795733904902934D+01 -.348331777846337D+02
 0.610882412455406D+03 0.190270282189783D+03 0.570971737401374D+03 0.514836411650615D+02
 0.000000000000000D+00 0.000000000000000D+00 0.000000000000000D+00 -.000000000000000D+00
 0.101199220688442D+04 0.000000000000000D+00 0.000000000000000D+00 0.101199220688442D+04
 0.177348753876364D+04 0.000000000000000D+00 0.000000000000000D+00 -.177348753876364D+04
 0.112778142597411D+04 -.638831955346811D+03 -.923955296466117D+03 -.602002639346154D+02
 0.466436445428178D+02 0.162187844166993D+02 0.399943495657217D+01 0.435498005541876D+02
 0.439265757379421D+02 -.259510057850785D+02 -.653751330614974D+01 -.348331777846337D+02
 0.404386355643864D+03 -.457120194928090D+02 0.387908390284616D+03 0.514836411650615D+02
 0.116274174374933D+04 0.694276196207999D+03 0.538584984531078D+03 -.761495331879224D+03
0.451471943989D-03 0.000000000000D+00 0.000000000000D+00 0.456279615421D-05 0.000000000000D+00  7 -4 3 -24 -13 13 23 21 0 0.95842605D-01 0.11490643D+00 0.43360125D+06 0.43360125D+06 0.43360125D+06 0.10729114D+01  1  2  2  1  7  1       -4 0.691817638477D-04 0.100000000000D+01
-.250438288540D-04 0.000000000000D+00 -.173377114021D-05 0.456279615421D-05 0.000000000000D+00  7 -4 3 -24 -13 13 23 21 2 0.95842605D-01 0.11490643D+00 0.43360125D+06 0.43360125D+06 0.43360125D+06 0.10729114D+01  1  2  3  1  7  1       -4 -.441762952075D-05 0.100000000000D+01
0.284725767788D-04 0.000000000000D+00 0.000000000000D+00 0.456279615421D-05 0.000000000000D+00  7 -4 3 -24 -13 13 23 21 2 0.95842605D-01 0.11490643D+00 0.43360125D+06 0.43360125D+06 0.43360125D+06 0.10729114D+01  1  2 15  1  7  1       -4 0.502244670505D-05 0.100000000000D+01
  </mgrwgt>
  </event>
  <event>
  9     66 0.26562228E-05 0.29710318E+03 0.75467711E-02 0.10051495E+00
       -2 -1    0    0    0  502 0.00000000E+00 0.00000000E+00 0.94312893E+02 0.94313436E+02 0.32000000E+00 0.0000E+00 0.9000E+01
        1 -1    0    0  501    0 0.00000000E+00 0.00000000E+00 -.10480438E+04 0.10480439E+04 0.32000000E+00 0.0000E+00 0.9000E+01
       25  2    1    2    0    0 0.97086027E+02 -.18101667E+03 -.46199466E+03 0.58774118E+03 0.29967966E+03 0.0000E+00 0.0000E+00
       23  2    3    3    0    0 0.45104727E+02 -.22567750E+03 -.28261497E+03 0.37516421E+03 0.88950513E+02 0.0000E+00 0.0000E+00
      -24  1    1    2    0    0 -.91571316E+02 0.19937458E+03 -.42297712E+03 0.48323119E+03 0.80419002E+02 0.0000E+00 0.9000E+01
      -13  1    4    4    0    0 0.23039118E+02 -.22336005E+03 -.25706223E+03 0.34132318E+03 0.10565837E+00 0.0000E+00 0.9000E+01
       13  1    4    4    0    0 0.22065609E+02 -.23174514E+01 -.25552737E+02 0.33841029E+02 0.10565837E+00 0.0000E+00 0.9000E+01
       23  1    3    3    0    0 0.51981300E+02 0.44660826E+02 -.17937969E+03 0.21257697E+03 0.91188000E+02 0.0000E+00 0.9000E+01
       21  1    1    2  501  502 -.55147110E+01 -.18357907E+02 -.68759140E+02 0.71384919E+02 0.75000000E+00 0.0000E+00 0.9000E+01
#aMCatNLO 2  0  0  1  2 0.19168327D+02 0.00000000D+00  -5  7  0 0.00000000D+00 0.00000000D+00 0.00000000D+00 0.00000000D+00 0.00000000D+00
  <mgrwgt>
 0.4344682027D-03    2    2    0
 0.301429659921649D+03 0.000000000000000D+00 0.000000000000000D+00 0.301429659921649D+03
 0.301429659921649D+03 0.000000000000000D+00 0.000000000000000D+00 -.301429659921649D+03
 0.232308489667002D+03 -.937192249264923D+02 0.192224410638952D+03 -.420297662458159D+02
 0.235591327338045D+03 0.209152370064244D+02 -.230430544210933D+03 0.443575323087320D+02
 0.224762760719548D+02 0.218595075813495D+02 -.300322543894045D+01 0.428083535382392D+01
 0.112483226766298D+03 0.509444803387184D+02 0.412093590109207D+02 -.660860141673994D+01
 0.000000000000000D+00 -.000000000000000D+00 -.000000000000000D+00 -.000000000000000D+00
 0.305834047605096D+03 0.000000000000000D+00 0.000000000000000D+00 0.305834047605096D+03
 0.323184747184580D+03 0.000000000000000D+00 0.000000000000000D+00 -.323184747184580D+03
 0.237422084041392D+03 -.915713158602785D+02 0.199374579365390D+03 -.420297662458159D+02
 0.228884777381690D+03 0.230391192747021D+02 -.223360358227666D+03 0.443575323087320D+02
 0.225961440285369D+02 0.220656075569286D+02 -.231713978332062D+01 0.428083535382392D+01
 0.114260972501063D+03 0.519813000574623D+02 0.446608253902608D+02 -.660860141673994D+01
 0.258548168369959D+02 -.551471102881449D+01 -.183579067446640D+02 -.173506995794837D+02
-.376966552375D-06 0.000000000000D+00 0.000000000000D+00 0.703036759979D-06 0.000000000000D+00  7 -2 1 -24 -13 13 23 21 2 0.14300512D-01 0.15038125D+00 0.88270300D+05 0.88270300D+05 0.88270300D+05 0.11261959D+01  1  2  8  1  7  1       -2 -.288697020378D-04 0.100000000000D+01
0.702502414293D-05 0.000000000000D+00 0.000000000000D+00 0.703036759979D-06 0.129225646780D-07  7 -2 1 -24 -13 13 23 21 2 0.14509466D-01 0.16123471D+00 0.94139340D+05 0.94139340D+05 0.94139340D+05 0.11238808D+01  1  2  1  1  7  1       -2 0.463337904728D-03 0.100000000000D+01
  </mgrwgt>
  </event>
  <event>
  8     66 0.26562228E-05 0.10430225E+03 0.75467711E-02 0.10806565E+00
       -2 -1    0    0    0  501 0.00000000E+00 0.00000000E+00 0.19703386E+04 0.19703386E+04 0.32000000E+00 0.0000E+00 0.9000E+01
        1 -1    0    0  501    0 0.00000000E+00 0.00000000E+00 -.29602143E+02 0.29603873E+02 0.32000000E+00 0.0000E+00 0.9000E+01
       25  2    1    2    0    0 0.20719936E+02 0.87524785E+02 0.17211621E+04 0.17494030E+04 0.29987020E+03 0.0000E+00 0.0000E+00
       23  2    3    3    0    0 0.72073686E+01 0.10698168E+03 0.15288657E+04 0.15352668E+04 0.90093793E+02 0.0000E+00 0.0000E+00
      -24  1    1    2    0    0 -.20719936E+02 -.87524785E+02 0.21957436E+03 0.25053946E+03 0.80419002E+02 0.0000E+00 0.9000E+01
      -11  1    4    4    0    0 0.13792505E+02 -.74516385E+01 0.62799246E+02 0.64726389E+02 0.51099893E-03 0.0000E+00 0.9000E+01
       11  1    4    4    0    0 -.65851362E+01 0.11443331E+03 0.14660665E+04 0.14705405E+04 0.51099893E-03 0.0000E+00 0.9000E+01
       23  1    3    3    0    0 0.13512567E+02 -.19456890E+02 0.19229637E+03 0.21413618E+03 0.91188000E+02 0.0000E+00 0.9000E+01
#aMCatNLO 1  0  0  1  2 0.93571657D+01 0.00000000D+00  -5  7  0 0.00000000D+00 0.00000000D+00 0.00000000D+00 0.00000000D+00 0.00000000D+00
  <mgrwgt>
 0.1802549198D-02   11    2    0
 0.241511905983676D+03 0.000000000000000D+00 0.000000000000000D+00 0.241511905983676D+03
 0.241511905983676D+03 0.000000000000000D+00 0.000000000000000D+00 -.241511905983676D+03
 0.155123906365044D+03 -.207199359484486D+02 -.875247851241048D+02 -.975002903321414D+02
 0.156768037188498D+02 0.137925047698357D+02 -.745163848099805D+01 -.455078225198307D-01
 0.198225659876934D+03 -.658513616666465D+01 0.114433313666446D+03 0.161725276127850D+03
 0.113997442006524D+03 0.135125673452775D+02 -.194568900613428D+02 -.641794779731887D+02
 0.000000000000000D+00 -.000000000000000D+00 -.000000000000000D+00 0.000000000000000D+00
 0.247891051734310D+03 0.000000000000000D+00 0.000000000000000D+00 0.247891051734310D+03
 0.245013125549042D+03 0.000000000000000D+00 0.000000000000000D+00 -.245013125549042D+03
 0.153789600454956D+03 -.183678098333920D+02 -.856757970537591D+02 -.975002903321414D+02
 0.158005909477212D+02 0.140321796315513D+02 -.726323193373119D+01 -.455078225198307D-01
 0.199532560295701D+03 -.355652952923581D+01 0.116814077821280D+03 0.161725276127850D+03
 0.113991685550486D+03 0.152485198660855D+02 -.180922712676846D+02 -.641794779731887D+02
 0.978974003448748D+01 -.735636013500902D+01 -.578277756610494D+01 0.287792618526787D+01
0.761478735441D-04 0.000000000000D+00 0.000000000000D+00 0.144518381326D-05 0.000000000000D+00  7 -2 1 -24 -11 11 23 21 0 0.30312915D+00 0.45543109D-02 0.29785059D+05 0.29785059D+05 0.29785059D+05 0.11676258D+01  1  2  2  1  7  1       -2 0.475078330786D-03 0.100000000000D+01
-.364961581047D-05 0.000000000000D+00 -.292427884605D-06 0.144518381326D-05 0.000000000000D+00  7 -2 1 -24 -11 11 23 21 2 0.30312915D+00 0.45543109D-02 0.29785059D+05 0.29785059D+05 0.29785059D+05 0.11676258D+01  1  2  3  1  7  1       -2 -.310428746735D-04 0.100000000000D+01
0.483305451271D-05 0.000000000000D+00 0.000000000000D+00 0.144518381326D-05 0.000000000000D+00  7 -2 1 -24 -11 11 23 21 2 0.30312915D+00 0.45543109D-02 0.29785059D+05 0.29785059D+05 0.29785059D+05 0.11676258D+01  1  2 15  1  7  1       -2 0.411089586739D-04 0.100000000000D+01
0.108487696876D-03 0.000000000000D+00 0.000000000000D+00 0.144518381326D-05 0.000000000000D+00  7 -2 1 -24 -11 11 23 21 2 0.31328784D+00 0.45543109D-02 0.31535743D+05 0.31535743D+05 0.31535743D+05 0.11653296D+01  1  2 12  1  7  1       -2 0.792541024607D-03 0.100000000000D+01
-.989768748048D-04 0.000000000000D+00 0.000000000000D+00 0.144518381326D-05 0.000000000000D+00  7 -2 1 -24 -11 11 23 21 2 0.30312915D+00 0.45543109D-02 0.29785059D+05 0.29785059D+05 0.29785059D+05 0.11676258D+01  1  2  4  1  7  1       -2 -.841876756267D-03 0.100000000000D+01
-.145926530567D-02 0.000000000000D+00 -.212205476823D-03 0.144518381326D-05 0.000000000000D+00  7 -2 1 -24 -11 11 23 21 2 0.31322577D+00 0.45543109D-02 0.29785059D+05 0.29785059D+05 0.29785059D+05 0.11676258D+01  1  2  5  1  7  1       -2 -.107281790089D-01 0.100000000000D+01
0.146554538713D-02 0.000000000000D+00 0.212091619681D-03 0.144518381326D-05 0.000000000000D+00  7 -2 1 -24 -11 11 23 21 2 0.30312915D+00 0.45543109D-02 0.29785059D+05 0.29785059D+05 0.29785059D+05 0.11676258D+01  1  2  6  1  7  1       -2 0.124656249161D-01 0.100000000000D+01
0.910763179225D-08 0.000000000000D+00 0.000000000000D+00 0.144518381326D-05 0.119582872263D-06  7 -2 1 -24 -11 11 23 21 2 0.31113581D+00 0.46203352D-02 0.31535743D+05 0.31535743D+05 0.31535743D+05 0.11653296D+01  1  2 11  1  7  1       -2 0.673151070741D-07 0.100000000000D+01
0.211723018972D-05 0.000000000000D+00 0.000000000000D+00 0.144518381326D-05 0.000000000000D+00  7 21 1 -24 -11 11 23 2 2 0.31328784D+00 0.45543109D-02 0.31535743D+05 0.31535743D+05 0.31535743D+05 0.11653296D+01  1  2 12  3  7  1       -2 0.122340825518D-03 0.100000000000D+01
-.845831782010D-05 0.000000000000D+00 -.124192405342D-05 0.144518381326D-05 0.000000000000D+00  7 21 1 -24 -11 11 23 2 2 0.31322577D+00 0.45543109D-02 0.29785059D+05 0.29785059D+05 0.29785059D+05 0.11676258D+01  1  2  5  3  7  1       -2 -.493117118993D-03 0.100000000000D+01
0.613152551098D-10 0.000000000000D+00 0.000000000000D+00 0.144518381326D-05 0.570905877731D-09  7 21 1 -24 -11 11 23 2 2 0.31113581D+00 0.46203352D-02 0.31535743D+05 0.31535743D+05 0.31535743D+05 0.11653296D+01  1  2 11  3  7  1       -2 0.358630187136D-08 0.100000000000D+01
  </mgrwgt>
  </event>
  <event>
  9     66 0.26562228E-05 0.19489926E+03 0.75467711E-02 0.99327618E-01
       21 -1    0    0  502  501 0.00000000E+00 0.00000000E+00 0.21420271E+03 0.21420402E+03 0.75000000E+00 0.0000E+00 0.9000E+01
        1 -1    0    0  501    0 0.00000000E+00 0.00000000E+00 -.62990028E+03 0.62990036E+03 0.32000000E+00 0.0000E+00 0.9000E+01
       25  2    1    2    0    0 0.19596599E+03 -.13219802E+03 -.12560008E+03 0.40218249E+03 0.30016061E+03 0.0000E+00 0.0000E+00
       23  2    3    3    0    0 0.89185127E+02 0.69239151E+02 -.82002451E+02 0.15279305E+03 0.62235587E+02 0.0000E+00 0.0000E+00
      -24  1    1    2    0    0 -.18089538E+02 -.11159888E+02 -.15660353E+03 0.17732359E+03 0.80419002E+02 0.0000E+00 0.9000E+01
      -11  1    4    4    0    0 0.49675424E+02 0.19854353E+02 -.58686375E+01 0.53817135E+02 0.51099893E-03 0.0000E+00 0.9000E+01
       11  1    4    4    0    0 0.39509703E+02 0.49384798E+02 -.76133814E+02 0.98975919E+02 0.51099893E-03 0.0000E+00 0.9000E+01
       23  1    3    3    0    0 0.10678086E+03 -.20143717E+03 -.43597625E+02 0.24938943E+03 0.91188000E+02 0.0000E+00 0.9000E+01
        2  1    1    2  502    0 -.17787645E+03 0.14335791E+03 -.13349397E+03 0.26459830E+03 0.32000000E+00 0.0000E+00 0.9000E+01
#aMCatNLO 2  0  0  1  2 0.22845464D+03 0.00000000D+00  -5  7  0 0.00000000D+00 0.00000000D+00 0.00000000D+00 0.00000000D+00 0.00000000D+00
  <mgrwgt>
 0.2975841120D-03    1    2    0
 0.225830079240009D+03 0.000000000000000D+00 0.000000000000000D+00 0.225830079240009D+03
 0.225830079240009D+03 0.000000000000000D+00 0.000000000000000D+00 -.225830079240009D+03
 0.133250323985195D+03 -.643240832481691D+02 0.261024233515718D+02 -.804332561646408D+02
 0.521219237622628D+02 0.291605037426114D+02 0.363881662523158D+02 0.232865049964590D+02
 0.795371582741174D+02 0.115769938206300D+02 0.718969110824139D+02 -.319838543206813D+02
 0.186750752458442D+03 0.235865856849278D+02 -.134387500686301D+03 0.891306054888631D+02
 0.000000000000000D+00 -.000000000000000D+00 0.000000000000000D+00 -.000000000000000D+00
 0.364676235362917D+03 0.000000000000000D+00 0.000000000000000D+00 0.364676235362917D+03
 0.369990798804701D+03 0.000000000000000D+00 0.000000000000000D+00 -.369990798804701D+03
 0.115708682230108D+03 -.180895383293538D+02 -.111598877611571D+02 -.804332561646408D+02
 0.583447033518698D+02 0.496754242951198D+02 0.198543525547271D+02 0.232865049964590D+02
 0.708720103442716D+02 0.395097027770379D+02 0.493847982632521D+02 -.319838543206813D+02
 0.261225193850032D+03 0.106780860626064D+03 -.201437170172568D+03 0.891306054888631D+02
 0.228516444391337D+03 -.177876449368868D+03 0.143357907115746D+03 -.531456344178397D+01
0.694269937554D-06 0.000000000000D+00 0.000000000000D+00 0.182315815314D-08 0.320323889594D-13  7 21 1 -24 -11 11 23 2 2 0.32954360D-01 0.96907813D-01 0.11354370D+06 0.11354370D+06 0.11354370D+06 0.11172232D+01  1  2  1  3  7  1       -2 0.297584111997D-03 0.100000000000D+01
  </mgrwgt>
  </event>
  <event>
  8     66 0.26562228E-05 0.20452265E+03 0.75467711E-02 0.10234274E+00
       -2 -1    0    0    0  501 0.00000000E+00 0.00000000E+00 0.21708948E+03 0.21708972E+03 0.32000000E+00 0.0000E+00 0.9000E+01
        1 -1    0    0  501    0 0.00000000E+00 0.00000000E+00 -.38071804E+03 0.38071818E+03 0.32000000E+00 0.0000E+00 0.9000E+01
       25  2    1    2    0    0 0.10369219E+03 -.15891588E+03 -.16444318E+03 0.39171518E+03 0.30065412E+03 0.0000E+00 0.0000E+00
       23  2    3    3    0    0 -.37181742E+02 -.60648034E+02 0.27232788E+02 0.11866398E+03 0.90988181E+02 0.0000E+00 0.0000E+00
      -24  1    1    2    0    0 -.10369219E+03 0.15891588E+03 0.81461638E+00 0.20609271E+03 0.80419002E+02 0.0000E+00 0.9000E+01
      -13  1    4    4    0    0 0.28621870E+02 -.18142003E+02 -.44164371E+01 0.34173964E+02 0.10565837E+00 0.0000E+00 0.9000E+01
       13  1    4    4    0    0 -.65803612E+02 -.42506030E+02 0.31649225E+02 0.84490014E+02 0.10565837E+00 0.0000E+00 0.9000E+01
       23  1    3    3    0    0 0.14087393E+03 -.98267844E+02 -.19167597E+03 0.27305120E+03 0.91188000E+02 0.0000E+00 0.9000E+01
#aMCatNLO 1  0  0  2  1 0.20781412D+02 0.00000000D+00  -5  7  0 0.00000000D+00 0.00000000D+00 0.00000000D+00 0.00000000D+00 0.00000000D+00
  <mgrwgt>
 0.1288540253D-02    6    2    0
 0.287489117531387D+03 0.000000000000000D+00 0.000000000000000D+00 0.287489117531387D+03
 0.287489117531387D+03 0.000000000000000D+00 0.000000000000000D+00 -.287489117531387D+03
 0.214507501127002D+03 -.103692187946311D+03 0.158915878722117D+03 0.594972750154539D+02
 0.342739262657697D+02 0.286219972246277D+02 -.181419708595169D+02 0.513343840688342D+01
 0.968516005260412D+02 -.658037378565175D+02 -.425060632998035D+02 0.569502870170089D+02
 0.229345207143961D+03 0.140873928578201D+03 -.982678445627961D+02 -.121581000439346D+03
 0.000000000000000D+00 -.000000000000000D+00 -.000000000000000D+00 0.000000000000000D+00
 0.299156627620169D+03 0.000000000000000D+00 0.000000000000000D+00 0.299156627620169D+03
 0.297081769927625D+03 0.000000000000000D+00 0.000000000000000D+00 -.297081769927625D+03
 0.216512653669746D+03 -.985739222309164D+02 0.164784008224383D+03 0.594972750154539D+02
 0.344821369886040D+02 0.294384597435239D+02 -.172058905422682D+02 0.513343840688342D+01
 0.941937437057382D+02 -.635351181073356D+02 -.399050739764948D+02 0.569502870170089D+02
 0.230165128947089D+03 0.146330508677555D+03 -.920118351168249D+02 -.121581000439346D+03
 0.208847342366159D+02 -.136599280828272D+02 -.156612085887953D+02 0.207485769254394D+01
0.129122638224D-04 0.000000000000D+00 0.000000000000D+00 0.143303693187D-05 0.000000000000D+00  7 -2 1 -24 -13 13 23 21 0 0.33398410D-01 0.58572035D-01 0.65736712D+05 0.65736712D+05 0.65736712D+05 0.11369869D+01  1  2  2  2  7  2        1 0.750927153228D-03 0.100000000000D+01
-.705917628756D-06 0.000000000000D+00 -.495864929552D-07 0.143303693187D-05 0.000000000000D+00  7 -2 1 -24 -13 13 23 21 2 0.33398410D-01 0.58572035D-01 0.65736712D+05 0.65736712D+05 0.65736712D+05 0.11369869D+01  1  2  3  2  7  2        1 -.530713760323D-04 0.100000000000D+01
0.835618092944D-06 0.000000000000D+00 0.000000000000D+00 0.143303693187D-05 0.000000000000D+00  7 -2 1 -24 -13 13 23 21 2 0.33398410D-01 0.58572035D-01 0.65736712D+05 0.65736712D+05 0.65736712D+05 0.11369869D+01  1  2 15  2  7  2        1 0.628223467208D-04 0.100000000000D+01
0.270294894828D-04 0.000000000000D+00 0.000000000000D+00 0.143303693187D-05 0.000000000000D+00  7 -2 1 -24 -13 13 23 21 2 0.33398410D-01 0.61672137D-01 0.71160126D+05 0.71160126D+05 0.71160126D+05 0.11340533D+01  1  2 12  2  7  2        1 0.188698572949D-02 0.100000000000D+01
-.190791899281D-04 0.000000000000D+00 0.000000000000D+00 0.143303693187D-05 0.000000000000D+00  7 -2 1 -24 -13 13 23 21 2 0.33398410D-01 0.58572035D-01 0.65736712D+05 0.65736712D+05 0.65736712D+05 0.11369869D+01  1  2  4  2  7  2        1 -.143438670720D-02 0.100000000000D+01
0.286677936218D-06 0.000000000000D+00 0.000000000000D+00 0.143303693187D-05 0.000000000000D+00  7 -2 21 -24 -13 13 23 -1 2 0.33398410D-01 0.61672137D-01 0.71160126D+05 0.71160126D+05 0.71160126D+05 0.11340533D+01  1  2 12  4  7  2        1 0.752631071896D-04 0.100000000000D+01
  </mgrwgt>
  </event>
  <event>
  8     66 0.26562228E-05 0.59219856E+02 0.75467711E-02 0.10926130E+00
       -2 -1    0    0    0  501 0.00000000E+00 0.00000000E+00 0.10176389E+03 0.10176439E+03 0.32000000E+00 0.0000E+00 0.9000E+01
        1 -1    0    0  501    0 0.00000000E+00 0.00000000E+00 -.40525985E+03 0.40525998E+03 0.32000000E+00 0.0000E+00 0.9000E+01
       25  2    1    2    0    0 0.18431981E+02 -.22493575E+02 -.15931040E+03 0.33938670E+03 0.29825799E+03 0.0000E+00 0.0000E+00
       23  2    3    3    0    0 0.48353063E+02 -.69861125E+02 0.23897958E+02 0.12720868E+03 0.91609719E+02 0.0000E+00 0.0000E+00
      -24  1    1    2    0    0 -.18431981E+02 0.22493575E+02 -.14418556E+03 0.16763767E+03 0.80419002E+02 0.0000E+00 0.9000E+01
      -11  1    4    4    0    0 -.79148774E+01 -.43031456E+02 -.22783701E+02 0.49329996E+02 0.51099893E-03 0.0000E+00 0.9000E+01
       11  1    4    4    0    0 0.56267940E+02 -.26829669E+02 0.46681659E+02 0.77878685E+02 0.51099893E-03 0.0000E+00 0.9000E+01
       23  1    3    3    0    0 -.29921081E+02 0.47367550E+02 -.18320836E+03 0.21217802E+03 0.91188000E+02 0.0000E+00 0.9000E+01
#aMCatNLO 1  0  0  2  1 0.25176182D+02 0.00000000D+00  -5  7  0 0.00000000D+00 0.00000000D+00 0.00000000D+00 0.00000000D+00 0.00000000D+00
  <mgrwgt>
 0.4087667572D-02    9    2    0
 0.203078750145488D+03 0.000000000000000D+00 0.000000000000000D+00 0.203078750145488D+03
 0.203078750145488D+03 0.000000000000000D+00 0.000000000000000D+00 -.203078750145488D+03
 0.101528722193593D+03 -.184319815055399D+02 0.224935753943606D+02 -.547281152576160D+02
 0.445559888595977D+02 -.791487738301432D+01 -.430314560578240D+02 0.841930215706779D+01
 0.132101674609035D+03 0.562679399508987D+02 -.268296690851630D+02 0.116468623349699D+03
 0.127971114628751D+03 -.299210810623444D+02 0.473675497486264D+02 -.701598102491512D+02
 0.000000000000000D+00 -.000000000000000D+00 0.000000000000000D+00 -.000000000000000D+00
 0.214780182943346D+03 0.000000000000000D+00 0.000000000000000D+00 0.214780182943346D+03
 0.217477074827236D+03 0.000000000000000D+00 0.000000000000000D+00 -.217477074827236D+03
 0.100218658729003D+03 -.124667798192216D+02 0.206391958263391D+02 -.547281152576160D+02
 0.449648214685192D+02 -.526795484906209D+01 -.438542948021291D+02 0.841930215706779D+01
 0.136179524081062D+03 0.642003921667104D+02 -.292956003456342D+02 0.116468623349699D+03
 0.125574036555143D+03 -.224243395607520D+02 0.450370662212754D+02 -.701598102491512D+02
 0.253202169368549D+02 -.240413179376747D+02 0.747363310014874D+01 -.269689188389022D+01
0.108624124717D-04 0.000000000000D+00 0.000000000000D+00 0.789029295947D-07 0.000000000000D+00  7 -2 1 -24 -11 11 23 21 0 0.15656032D-01 0.62347718D-01 0.22295014D+05 0.22295014D+05 0.22295014D+05 0.11794891D+01  1  2  2  2  7  2        1 0.204997228702D-02 0.100000000000D+01
-.534073118933D-06 0.000000000000D+00 -.417145240301D-07 0.789029295947D-07 0.000000000000D+00  7 -2 1 -24 -11 11 23 21 2 0.15656032D-01 0.62347718D-01 0.22295014D+05 0.22295014D+05 0.22295014D+05 0.11794891D+01  1  2  3  2  7  2        1 -.140220098752D-03 0.100000000000D+01
0.678047880443D-06 0.000000000000D+00 0.000000000000D+00 0.789029295947D-07 0.000000000000D+00  7 -2 1 -24 -11 11 23 21 2 0.15656032D-01 0.62347718D-01 0.22295014D+05 0.22295014D+05 0.22295014D+05 0.11794891D+01  1  2 15  2  7  2        1 0.178020457095D-03 0.100000000000D+01
0.181076080073D-04 0.000000000000D+00 0.000000000000D+00 0.789029295947D-07 0.000000000000D+00  7 -2 1 -24 -11 11 23 21 2 0.15656032D-01 0.68450624D-01 0.26898718D+05 0.26898718D+05 0.26898718D+05 0.11717585D+01  1  2 12  2  7  2        1 0.415759787750D-02 0.100000000000D+01
-.152298894225D-04 0.000000000000D+00 0.000000000000D+00 0.789029295947D-07 0.000000000000D+00  7 -2 1 -24 -11 11 23 21 2 0.15656032D-01 0.62347718D-01 0.22295014D+05 0.22295014D+05 0.22295014D+05 0.11794891D+01  1  2  4  2  7  2        1 -.399858469393D-02 0.100000000000D+01
-.539749748070D-04 0.000000000000D+00 -.132010802998D-04 0.789029295947D-07 0.000000000000D+00  7 -2 1 -24 -11 11 23 21 2 0.15656032D-01 0.70077544D-01 0.22295014D+05 0.22295014D+05 0.22295014D+05 0.11794891D+01  1  2  5  2  7  2        1 -.121458729434D-01 0.100000000000D+01
0.552298622913D-04 0.000000000000D+00 0.131114282803D-04 0.789029295947D-07 0.000000000000D+00  7 -2 1 -24 -11 11 23 21 2 0.15656032D-01 0.62347718D-01 0.22295014D+05 0.22295014D+05 0.22295014D+05 0.11794891D+01  1  2  6  2  7  2        1 0.145005177569D-01 0.100000000000D+01
0.277150192962D-06 0.000000000000D+00 0.000000000000D+00 0.789029295947D-07 0.000000000000D+00  7 -2 21 -24 -11 11 23 -1 2 0.15656032D-01 0.68450624D-01 0.26898718D+05 0.26898718D+05 0.26898718D+05 0.11717585D+01  1  2 12  4  7  2        1 0.224958916315D-03 0.100000000000D+01
-.943434886329D-06 0.000000000000D+00 -.244967538106D-06 0.789029295947D-07 0.000000000000D+00  7 -2 21 -24 -11 11 23 -1 2 0.15656032D-01 0.70077544D-01 0.22295014D+05 0.22295014D+05 0.22295014D+05 0.11794891D+01  1  2  5  4  7  2        1 -.738721986838D-03 0.100000000000D+01
  </mgrwgt>
  </event>
  <event>
  8     66 0.26562228E-05 0.19930822E+03 0.75467711E-02 0.96011800E-01
       -2 -1    0    0    0  501 0.00000000E+00 0.00000000E+00 0.10334257E+04 0.10334257E+04 0.32000000E+00 0.0000E+00 0.9000E+01
        1 -1    0    0  501    0 0.00000000E+00 0.00000000E+00 -.18887014E+03 0.18887041E+03 0.32000000E+00 0.0000E+00 0.9000E+01
       25  2    1    2    0    0 -.36233978E+03 0.89164846E+02 0.33024347E+03 0.58180835E+03 0.30033268E+03 0.0000E+00 0.0000E+00
       23  2    3    3    0    0 -.28793873E+03 -.47745050E+01 0.12464560E+03 0.32696359E+03 0.91853972E+02 0.0000E+00 0.0000E+00
      -24  1    1    2    0    0 0.36233978E+03 -.89164846E+02 0.51431208E+03 0.64048780E+03 0.80419002E+02 0.0000E+00 0.9000E+01
      -13  1    4    4    0    0 -.41710555E+01 -.14882619E+02 0.17811778E+02 0.23583059E+02 0.10565837E+00 0.0000E+00 0.9000E+01
       13  1    4    4    0    0 -.28376768E+03 0.10108114E+02 0.10683382E+03 0.30338053E+03 0.10565837E+00 0.0000E+00 0.9000E+01
       23  1    3    3    0    0 -.74401053E+02 0.93939351E+02 0.20559787E+03 0.25484477E+03 0.91188000E+02 0.0000E+00 0.9000E+01
#aMCatNLO 1  0  0  1  2 0.52001343D+02 0.00000000D+00  -5  7  0 0.00000000D+00 0.00000000D+00 0.00000000D+00 0.00000000D+00 0.00000000D+00
  <mgrwgt>
 0.1442859367D-02    9    2    0
 0.441795711747525D+03 0.000000000000000D+00 0.000000000000000D+00 0.441795711747525D+03
 0.441795711747525D+03 0.000000000000000D+00 0.000000000000000D+00 -.441795711747525D+03
 0.394413799066854D+03 0.362339784683994D+03 -.891648457831931D+02 0.992700340062094D+02
 0.155978116519336D+02 -.417068561286346D+01 -.148826518720670D+02 0.209851926431776D+01
 0.317560923642144D+03 -.283768046266192D+03 0.101081468267245D+02 -.142191636569981D+03
 0.156018889134118D+03 -.744010528049390D+02 0.939393508285356D+02 0.408230832994535D+02
 0.000000000000000D+00 0.000000000000000D+00 -.000000000000000D+00 0.000000000000000D+00
 0.472959484405465D+03 0.000000000000000D+00 0.000000000000000D+00 0.472959484405465D+03
 0.464798626999955D+03 0.000000000000000D+00 0.000000000000000D+00 -.464798626999955D+03
 0.373289211360090D+03 0.341212842536406D+03 -.812211536491543D+02 0.992700340062094D+02
 0.155462924783108D+02 -.502776143158694D+01 -.145603929104100D+02 0.209851926431776D+01
 0.333951688927771D+03 -.301697465699540D+03 0.168495761886081D+02 -.142191636569981D+03
 0.162333106059686D+03 -.831619982404512D+02 0.972334505073556D+02 0.408230832994535D+02
 0.526378125795617D+02 0.486743828351728D+02 -.183014801363994D+02 0.816085740551011D+01
0.147131865600D-03 0.000000000000D+00 0.000000000000D+00 0.613431474398D-05 0.000000000000D+00  7 -2 1 -24 -13 13 23 21 0 0.15898859D+00 0.29056969D-01 0.17293299D+06 0.17293299D+06 0.17293299D+06 0.11027088D+01  1  2  2  1  7  1       -2 0.669541926725D-03 0.100000000000D+01
-.813759407417D-05 0.000000000000D+00 -.565025104615D-06 0.613431474398D-05 0.000000000000D+00  7 -2 1 -24 -13 13 23 21 2 0.15898859D+00 0.29056969D-01 0.17293299D+06 0.17293299D+06 0.17293299D+06 0.11027088D+01  1  2  3  1  7  1       -2 -.450286323757D-04 0.100000000000D+01
0.950536407692D-05 0.000000000000D+00 0.000000000000D+00 0.613431474398D-05 0.000000000000D+00  7 -2 1 -24 -13 13 23 21 2 0.15898859D+00 0.29056969D-01 0.17293299D+06 0.17293299D+06 0.17293299D+06 0.11027088D+01  1  2 15  1  7  1       -2 0.525970625612D-04 0.100000000000D+01
0.236675774899D-03 0.000000000000D+00 0.000000000000D+00 0.613431474398D-05 0.000000000000D+00  7 -2 1 -24 -13 13 23 21 2 0.17409033D+00 0.29056969D-01 0.19648688D+06 0.19648688D+06 0.19648688D+06 0.10984170D+01  1  2 12  1  7  1       -2 0.998501541504D-03 0.100000000000D+01
-.203405150022D-03 0.000000000000D+00 0.000000000000D+00 0.613431474398D-05 0.000000000000D+00  7 -2 1 -24 -13 13 23 21 2 0.15898859D+00 0.29056969D-01 0.17293299D+06 0.17293299D+06 0.17293299D+06 0.11027088D+01  1  2  4  1  7  1       -2 -.112552378998D-02 0.100000000000D+01
-.805796249137D-03 0.000000000000D+00 -.164295748692D-03 0.613431474398D-05 0.000000000000D+00  7 -2 1 -24 -13 13 23 21 2 0.17617311D+00 0.29056969D-01 0.17293299D+06 0.17293299D+06 0.17293299D+06 0.11027088D+01  1  2  5  1  7  1       -2 -.332306871115D-02 0.100000000000D+01
0.819201763476D-03 0.000000000000D+00 0.163434196051D-03 0.613431474398D-05 0.000000000000D+00  7 -2 1 -24 -13 13 23 21 2 0.15898859D+00 0.29056969D-01 0.17293299D+06 0.17293299D+06 0.17293299D+06 0.11027088D+01  1  2  6  1  7  1       -2 0.453297801695D-02 0.100000000000D+01
0.353275787342D-05 0.000000000000D+00 0.000000000000D+00 0.613431474398D-05 0.000000000000D+00  7 21 1 -24 -13 13 23 2 2 0.17409033D+00 0.29056969D-01 0.19648688D+06 0.19648688D+06 0.19648688D+06 0.10984170D+01  1  2 12  3  7  1       -2 0.124274409435D-03 0.100000000000D+01
-.128159607492D-04 0.000000000000D+00 -.272905628056D-05 0.613431474398D-05 0.000000000000D+00  7 21 1 -24 -13 13 23 2 2 0.17617311D+00 0.29056969D-01 0.17293299D+06 0.17293299D+06 0.17293299D+06 0.11027088D+01  1  2  5  3  7  1       -2 -.441412457001D-03 0.100000000000D+01
  </mgrwgt>
  </event>
  <event>
  8     66 0.26562228E-05 0.17363240E+03 0.75467711E-02 0.10235640E+00
       -4 -1    0    0    0  501 0.00000000E+00 0.00000000E+00 0.28187020E+03 0.28187446E+03 0.15500000E+01 0.0000E+00 0.9000E+01
        3 -1    0    0  501    0 0.00000000E+00 0.00000000E+00 -.23422218E+03 0.23422271E+03 0.50000000E+00 0.0000E+00 0.9000E+01
       25  2    1    2    0    0 0.10275959E+03 0.11723317E+03 0.19470601E+02 0.33843363E+03 0.29975835E+03 0.0000E+00 0.0000E+00
       23  2    3    3    0    0 0.33775554E+02 -.39438357E+02 0.83750178E+02 0.13410086E+03 0.90954805E+02 0.0000E+00 0.0000E+00
      -24  1    1    2    0    0 -.10275959E+03 -.11723317E+03 0.28177417E+02 0.17766354E+03 0.80419002E+02 0.0000E+00 0.9000E+01
      -11  1    4    4    0    0 0.37876737E+01 -.54977515E+02 0.83835669E+02 0.10032593E+03 0.51099893E-03 0.0000E+00 0.9000E+01
       11  1    4    4    0    0 0.29987881E+02 0.15539158E+02 -.85490751E-01 0.33774927E+02 0.51099893E-03 0.0000E+00 0.9000E+01
       23  1    3    3    0    0 0.68984033E+02 0.15667153E+03 -.64279577E+02 0.20433277E+03 0.91188000E+02 0.0000E+00 0.9000E+01
#aMCatNLO 1  0  0  1  2 0.72807867D+02 0.00000000D+00  -5  7  0 0.00000000D+00 0.00000000D+00 0.00000000D+00 0.00000000D+00 0.00000000D+00
  <mgrwgt>
 0.2026386624D-03    9    2    0
 0.256946469743299D+03 0.000000000000000D+00 0.000000000000000D+00 0.256946469743299D+03
 0.256946469743299D+03 0.000000000000000D+00 0.000000000000000D+00 -.256946469743299D+03
 0.175812982319788D+03 -.102759586969190D+03 -.117233173227201D+03 0.118253616777793D+02
 0.929830384582294D+02 0.378767369075806D+01 -.549775152287400D+02 0.748930690265166D+02
 0.339277241352305D+02 0.299878807442543D+02 0.155391578161076D+02 -.321745984136391D+01
 0.211169194573349D+03 0.689840325341772D+02 0.156671530639834D+03 -.835009708629320D+02
 0.000000000000000D+00 -.000000000000000D+00 -.000000000000000D+00 0.000000000000000D+00
 0.327296087862793D+03 0.000000000000000D+00 0.000000000000000D+00 0.327296087862793D+03
 0.279063631716513D+03 0.000000000000000D+00 0.000000000000000D+00 -.279063631716513D+03
 0.157455762097537D+03 -.959589393916689D+02 -.947477906621652D+02 0.118253616777793D+02
 0.866113540588872D+02 0.745245831538048D+01 -.428604214720395D+02 0.748930690265166D+02
 0.376038172810706D+02 0.314475459903896D+02 0.203653351914397D+02 -.321745984136391D+01
 0.237354055057180D+03 0.781365516412255D+02 0.186933044886806D+03 -.835009708629320D+02
 0.873347310846309D+02 -.210776165553267D+02 -.696901679440411D+02 0.482324561462793D+02
0.125765034488D-04 0.000000000000D+00 0.000000000000D+00 0.197770633858D-05 0.000000000000D+00  7 -4 3 -24 -11 11 23 21 0 0.43365014D-01 0.36034550D-01 0.52499708D+05 0.52499708D+05 0.52499708D+05 0.11454365D+01  1  2  2  1  7  1       -4 0.158900989552D-03 0.100000000000D+01
-.687540536211D-06 0.000000000000D+00 -.482970847127D-07 0.197770633858D-05 0.000000000000D+00  7 -4 3 -24 -11 11 23 21 2 0.43365014D-01 0.36034550D-01 0.52499708D+05 0.52499708D+05 0.52499708D+05 0.11454365D+01  1  2  3  1  7  1       -4 -.113974316028D-04 0.100000000000D+01
0.813821412702D-06 0.000000000000D+00 0.000000000000D+00 0.197770633858D-05 0.000000000000D+00  7 -4 3 -24 -11 11 23 21 2 0.43365014D-01 0.36034550D-01 0.52499708D+05 0.52499708D+05 0.52499708D+05 0.11454365D+01  1  2 15  1  7  1       -4 0.134908029413D-04 0.100000000000D+01
0.118538463074D-04 0.000000000000D+00 0.000000000000D+00 0.197770633858D-05 0.000000000000D+00  7 -4 3 -24 -11 11 23 21 2 0.56718230D-01 0.36034550D-01 0.71014169D+05 0.71014169D+05 0.71014169D+05 0.11341289D+01  1  2 12  1  7  1       -4 0.107004912234D-03 0.100000000000D+01
-.128602677337D-04 0.000000000000D+00 0.000000000000D+00 0.197770633858D-05 0.000000000000D+00  7 -4 3 -24 -11 11 23 21 2 0.43365014D-01 0.36034550D-01 0.52499708D+05 0.52499708D+05 0.52499708D+05 0.11454365D+01  1  2  4  1  7  1       -4 -.213186007470D-03 0.100000000000D+01
-.203804284823D-04 0.000000000000D+00 -.609569332660D-05 0.197770633858D-05 0.000000000000D+00  7 -4 3 -24 -11 11 23 21 2 0.59129020D-01 0.36034550D-01 0.52499708D+05 0.52499708D+05 0.52499708D+05 0.11454365D+01  1  2  5  1  7  1       -4 -.169111709900D-03 0.100000000000D+01
0.215099225629D-04 0.000000000000D+00 0.581396196183D-05 0.197770633858D-05 0.000000000000D+00  7 -4 3 -24 -11 11 23 21 2 0.43365014D-01 0.36034550D-01 0.52499708D+05 0.52499708D+05 0.52499708D+05 0.11454365D+01  1  2  6  1  7  1       -4 0.356572243062D-03 0.100000000000D+01
0.422687227948D-06 0.000000000000D+00 0.000000000000D+00 0.197770633858D-05 0.000000000000D+00  7 21 3 -24 -11 11 23 4 2 0.56718230D-01 0.36034550D-01 0.71014169D+05 0.71014169D+05 0.71014169D+05 0.11341289D+01  1  2 12  3  7  1       -4 0.837878872993D-04 0.100000000000D+01
-.662996625480D-06 0.000000000000D+00 -.241312953348D-06 0.197770633858D-05 0.000000000000D+00  7 21 3 -24 -11 11 23 4 2 0.59129020D-01 0.36034550D-01 0.52499708D+05 0.52499708D+05 0.52499708D+05 0.11454365D+01  1  2  5  3  7  1       -4 -.123423023725D-03 0.100000000000D+01
  </mgrwgt>
  </event>
  <event>
  8     66 0.26562228E-05 0.13781905E+03 0.75467711E-02 0.10317648E+00
       -2 -1    0    0    0  501 0.00000000E+00 0.00000000E+00 0.41151056E+03 0.41151068E+03 0.32000000E+00 0.0000E+00 0.9000E+01
        1 -1    0    0  501    0 0.00000000E+00 0.00000000E+00 -.27151857E+03 0.27151876E+03 0.32000000E+00 0.0000E+00 0.9000E+01
       25  2    1    2    0    0 -.12620872E+03 -.11172991E+03 -.11878775E+03 0.36389564E+03 0.29982877E+03 0.0000E+00 0.0000E+00
       23  2    3    3    0    0 -.11129554E+03 -.10809127E+03 0.37784401E+02 0.18205579E+03 0.87442714E+02 0.0000E+00 0.0000E+00
      -24  1    1    2    0    0 0.12620872E+03 0.11172991E+03 0.25877974E+03 0.31913380E+03 0.80419002E+02 0.0000E+00 0.9000E+01
      -11  1    4    4    0    0 -.79452522E+02 -.32720535E+02 -.11260747E+02 0.86661070E+02 0.51099893E-03 0.0000E+00 0.9000E+01
       11  1    4    4    0    0 -.31843021E+02 -.75370733E+02 0.49045148E+02 0.95394716E+02 0.51099893E-03 0.0000E+00 0.9000E+01
       23  1    3    3    0    0 -.14913174E+02 -.36386461E+01 -.15657215E+03 0.18183985E+03 0.91188000E+02 0.0000E+00 0.9000E+01
#aMCatNLO 1  0  0  1  2 0.50769808D+02 0.00000000D+00  -5  7  0 0.00000000D+00 0.00000000D+00 0.00000000D+00 0.00000000D+00 0.00000000D+00
  <mgrwgt>
 0.1359475868D-02    9    2    0
 0.334264663465510D+03 0.000000000000000D+00 0.000000000000000D+00 0.334264663465510D+03
 0.334264663465510D+03 0.000000000000000D+00 0.000000000000000D+00 -.334264663465510D+03
 0.271866445692504D+03 0.126208716856574D+03 0.111729914803423D+03 0.197565012759197D+03
 0.908987445955202D+02 -.794525216408367D+02 -.327205354574044D+02 -.296520679436483D+02
 0.871935900541453D+02 -.318430209751440D+02 -.753707332311071D+02 0.301329841521242D+02
 0.218570546588850D+03 -.149131742405930D+02 -.363864611491186D+01 -.198045928967673D+03
 0.000000000000000D+00 0.000000000000000D+00 -.000000000000000D+00 0.000000000000000D+00
 0.365193573995048D+03 0.000000000000000D+00 0.000000000000000D+00 0.365193573995048D+03
 0.356731037404181D+03 0.000000000000000D+00 0.000000000000000D+00 -.356731037404181D+03
 0.271981207035540D+03 0.111752924126647D+03 0.126435401327084D+03 0.197565012759197D+03
 0.936183021317385D+02 -.843570940321077D+02 -.277312467652085D+02 -.296520679436483D+02
 0.850580379207577D+02 -.364215712711823D+02 -.707130979886688D+02 0.301329841521242D+02
 0.219796802091846D+03 -.265652380130639D+02 0.821468285709022D+01 -.198045928967673D+03
 0.514702622193480D+02 0.355909791897070D+02 -.362057394302965D+02 0.846253659086667D+01
0.307187453521D-04 0.000000000000D+00 0.000000000000D+00 0.471387800486D-06 0.000000000000D+00  7 -2 1 -24 -11 11 23 21 0 0.63309341D-01 0.41772112D-01 0.49947566D+05 0.49947566D+05 0.49947566D+05 0.11473355D+01  1  2  2  1  7  1       -2 0.819614108034D-03 0.100000000000D+01
-.137032383584D-05 0.000000000000D+00 -.117968070583D-06 0.471387800486D-06 0.000000000000D+00  7 -2 1 -24 -11 11 23 21 2 0.63309341D-01 0.41772112D-01 0.49947566D+05 0.49947566D+05 0.49947566D+05 0.11473355D+01  1  2  3  1  7  1       -2 -.481293508720D-04 0.100000000000D+01
0.188803068178D-05 0.000000000000D+00 0.000000000000D+00 0.471387800486D-06 0.000000000000D+00  7 -2 1 -24 -11 11 23 21 2 0.63309341D-01 0.41772112D-01 0.49947566D+05 0.49947566D+05 0.49947566D+05 0.11473355D+01  1  2 15  1  7  1       -2 0.663125669742D-04 0.100000000000D+01
0.390091128910D-04 0.000000000000D+00 0.000000000000D+00 0.471387800486D-06 0.000000000000D+00  7 -2 1 -24 -11 11 23 21 2 0.71125992D-01 0.41772112D-01 0.62843088D+05 0.62843088D+05 0.62843088D+05 0.11386632D+01  1  2 12  1  7  1       -2 0.105285024381D-02 0.100000000000D+01
-.347515073335D-04 0.000000000000D+00 0.000000000000D+00 0.471387800486D-06 0.000000000000D+00  7 -2 1 -24 -11 11 23 21 2 0.63309341D-01 0.41772112D-01 0.49947566D+05 0.49947566D+05 0.49947566D+05 0.11473355D+01  1  2  4  1  7  1       -2 -.122056366972D-02 0.100000000000D+01
-.991093424576D-04 0.000000000000D+00 -.279405029863D-04 0.471387800486D-06 0.000000000000D+00  7 -2 1 -24 -11 11 23 21 2 0.73110052D-01 0.41772112D-01 0.49947566D+05 0.49947566D+05 0.49947566D+05 0.11473355D+01  1  2  5  1  7  1       -2 -.256957454840D-02 0.100000000000D+01
0.102355773825D-03 0.000000000000D+00 0.276535627961D-04 0.471387800486D-06 0.000000000000D+00  7 -2 1 -24 -11 11 23 21 2 0.63309341D-01 0.41772112D-01 0.49947566D+05 0.49947566D+05 0.49947566D+05 0.11473355D+01  1  2  6  1  7  1       -2 0.359500201584D-02 0.100000000000D+01
0.721494871709D-06 0.000000000000D+00 0.000000000000D+00 0.471387800486D-06 0.000000000000D+00  7 21 1 -24 -11 11 23 2 2 0.71125992D-01 0.41772112D-01 0.62843088D+05 0.62843088D+05 0.62843088D+05 0.11386632D+01  1  2 12  3  7  1       -2 0.200109870710D-03 0.100000000000D+01
-.200616945722D-05 0.000000000000D+00 -.616323488484D-06 0.471387800486D-06 0.000000000000D+00  7 21 1 -24 -11 11 23 2 2 0.73110052D-01 0.41772112D-01 0.49947566D+05 0.49947566D+05 0.49947566D+05 0.11473355D+01  1  2  5  3  7  1       -2 -.536145368348D-03 0.100000000000D+01
  </mgrwgt>
  </event>
  <event>
  8     66 0.26562228E-05 0.23141669E+03 0.75467711E-02 0.89706838E-01
       -2 -1    0    0    0  501 0.00000000E+00 0.00000000E+00 0.36711659E+03 0.36711673E+03 0.32000000E+00 0.0000E+00 0.9000E+01
        1 -1    0    0  501    0 0.00000000E+00 0.00000000E+00 -.40521975E+03 0.40521988E+03 0.32000000E+00 0.0000E+00 0.9000E+01
       25  2    1    2    0    0 0.12031227E+03 0.56747991E+02 -.31497264E+03 0.45481606E+03 0.29992417E+03 0.0000E+00 0.0000E+00
       23  2    3    3    0    0 0.18806819E+03 0.30041219E+02 -.18850513E+03 0.28273062E+03 0.90168172E+02 0.0000E+00 0.0000E+00
      -24  1    1    2    0    0 -.12031227E+03 -.56747991E+02 0.27686947E+03 0.31752055E+03 0.80419002E+02 0.0000E+00 0.9000E+01
      -13  1    4    4    0    0 0.11323622E+03 0.13381873E+02 -.50172024E+02 0.12457431E+03 0.10565837E+00 0.0000E+00 0.9000E+01
       13  1    4    4    0    0 0.74831972E+02 0.16659346E+02 -.13833311E+03 0.15815631E+03 0.10565837E+00 0.0000E+00 0.9000E+01
       23  1    3    3    0    0 -.67755920E+02 0.26706772E+02 -.12646750E+03 0.17208544E+03 0.91188000E+02 0.0000E+00 0.9000E+01
#aMCatNLO 1  0  0  1  2 0.75443560D+03 0.00000000D+00  -5  7  0 0.00000000D+00 0.00000000D+00 0.00000000D+00 0.00000000D+00 0.00000000D+00
  <mgrwgt>
 0.9092145037D-03    5    2    0
 0.385698062727793D+03 0.000000000000000D+00 0.000000000000000D+00 0.385698062727793D+03
 0.385698062727793D+03 0.000000000000000D+00 0.000000000000000D+00 -.385698062727793D+03
 0.331583653425051D+03 -.120312274161607D+03 -.567479908657935D+02 0.292890978835286D+03
 0.122247903771540D+03 0.113236275180638D+03 0.133818680401558D+02 -.440797183238076D+02
 0.151516197474346D+03 0.748319190584723D+02 0.166593508286859D+02 -.130689739524869D+03
 0.166048370784649D+03 -.677559200775037D+02 0.267067719969517D+02 -.118121520986610D+03
 0.000000000000000D+00 -.000000000000000D+00 -.000000000000000D+00 0.000000000000000D+00
 0.118367976365731D+04 0.000000000000000D+00 0.000000000000000D+00 0.118367976365731D+04
 0.760385661585185D+03 0.000000000000000D+00 0.000000000000000D+00 -.760385661585185D+03
 0.335400050080730D+03 0.141105343590732D+03 0.181695945699150D+02 0.292890978835286D+03
 0.281061206979860D+03 0.271309263165616D+03 0.586827421138441D+02 -.440797183238076D+02
 0.286776867336738D+03 0.246616519308892D+03 0.658897262580584D+02 -.130689739524869D+03
 0.175754487854604D+03 0.662103051492252D+02 0.650990816286274D+02 -.118121520986610D+03
 0.865072812990561D+03 -.725241431214465D+03 -.207841144570445D+03 0.423294102072123D+03
0.427244963413D-04 0.000000000000D+00 0.000000000000D+00 0.521114146317D-05 0.000000000000D+00  7 -2 1 -24 -13 13 23 21 0 0.56479496D-01 0.62341521D-01 0.53553686D+05 0.53553686D+05 0.53553686D+05 0.11446817D+01  1  2  2  1  7  1       -2 0.850919608152D-03 0.100000000000D+01
-.162049283116D-05 0.000000000000D+00 -.164073315569D-06 0.521114146317D-05 0.000000000000D+00  7 -2 1 -24 -13 13 23 21 2 0.56479496D-01 0.62341521D-01 0.53553686D+05 0.53553686D+05 0.53553686D+05 0.11446817D+01  1  2  3  1  7  1       -2 -.422890732562D-04 0.100000000000D+01
0.262148425596D-05 0.000000000000D+00 0.000000000000D+00 0.521114146317D-05 0.000000000000D+00  7 -2 1 -24 -13 13 23 21 2 0.56479496D-01 0.62341521D-01 0.53553686D+05 0.53553686D+05 0.53553686D+05 0.11446817D+01  1  2 15  1  7  1       -2 0.684113731381D-04 0.100000000000D+01
0.326820124889D-04 0.000000000000D+00 -.164591000495D-04 0.521114146317D-05 0.000000000000D+00  7 -2 1 -24 -13 13 23 21 2 0.27188974D+00 0.62341521D-01 0.53553686D+05 0.53553686D+05 0.53553686D+05 0.11446817D+01  1  2  5  1  7  1       -2 0.133074413344D-04 0.100000000000D+01
0.589507827225D-05 0.000000000000D+00 -.314474301249D-05 0.521114146317D-05 0.000000000000D+00  7 21 1 -24 -13 13 23 2 2 0.27188974D+00 0.62341521D-01 0.53553686D+05 0.53553686D+05 0.53553686D+05 0.11446817D+01  1  2  5  3  7  1       -2 0.188651542871D-04 0.100000000000D+01
  </mgrwgt>
  </event>
  <event>
  8     66 0.26562228E-05 0.51267963E+02 0.75467711E-02 0.10467531E+00
       -2 -1    0    0    0  501 0.00000000E+00 0.00000000E+00 0.50064274E+02 0.50065296E+02 0.32000000E+00 0.0000E+00 0.9000E+01
        1 -1    0    0  501    0 0.00000000E+00 0.00000000E+00 -.26280492E+04 0.26280493E+04 0.32000000E+00 0.0000E+00 0.9000E+01
       25  2    1    2    0    0 0.77868600E+02 0.10894963E+02 -.44812595E+03 0.54528806E+03 0.30056610E+03 0.0000E+00 0.0000E+00
       23  2    3    3    0    0 0.34896082E+02 -.11364221E+03 -.19568875E+03 0.24629653E+03 0.90750226E+02 0.0000E+00 0.0000E+00
      -24  1    1    2    0    0 -.77868600E+02 -.10894963E+02 -.21298590E+04 0.21328265E+04 0.80419002E+02 0.0000E+00 0.9000E+01
      -11  1    4    4    0    0 0.22980825E+02 -.12821300E+03 -.16393446E+03 0.20938290E+03 0.51099893E-03 0.0000E+00 0.9000E+01
       11  1    4    4    0    0 0.11915257E+02 0.14570784E+02 -.31754288E+02 0.36913627E+02 0.51099893E-03 0.0000E+00 0.9000E+01
       23  1    3    3    0    0 0.42972518E+02 0.12453718E+03 -.25243720E+03 0.29899154E+03 0.91188000E+02 0.0000E+00 0.9000E+01
#aMCatNLO 1  0  0  1  2 0.23735701D+02 0.00000000D+00  -5  7  0 0.00000000D+00 0.00000000D+00 0.00000000D+00 0.00000000D+00 0.00000000D+00
  <mgrwgt>
 0.2558914545D-02    6    2    0
 0.362729612288718D+03 0.000000000000000D+00 0.000000000000000D+00 0.362729612288718D+03
 0.362729612288718D+03 0.000000000000000D+00 0.000000000000000D+00 -.362729612288718D+03
 0.304922940845739D+03 -.778686000843422D+02 -.108949634767254D+02 -.283422943304505D+03
 0.190404653518783D+03 0.229808251814662D+02 -.128212996164808D+03 0.138878512988977D+03
 0.234290855618039D+02 0.119152566442199D+02 0.145707842230177D+02 0.139513783007614D+02
 0.206702544651111D+03 0.429725182586561D+02 0.124537175418516D+03 0.130593052014767D+03
 0.000000000000000D+00 0.000000000000000D+00 0.000000000000000D+00 -.000000000000000D+00
 0.371905287527877D+03 0.000000000000000D+00 0.000000000000000D+00 0.371905287527877D+03
 0.378605344368065D+03 0.000000000000000D+00 0.000000000000000D+00 -.378605344368065D+03
 0.307229454394685D+03 -.853622643665670D+02 -.175339876841752D+02 -.283422943304505D+03
 0.192725529123556D+03 0.182907365900762D+02 -.132368187873513D+03 0.138878512988977D+03
 0.228336871834393D+02 0.113489308560450D+02 0.140690469586576D+02 0.139513783007614D+02
 0.203058744410447D+03 0.379564249460211D+02 0.120093159290331D+03 0.130593052014767D+03
 0.246632167838141D+02 0.177661719744248D+02 0.157399693087001D+02 -.670005684018794D+01
0.109468154706D-03 0.000000000000D+00 0.000000000000D+00 0.538524644992D-05 0.000000000000D+00  7 -2 1 -24 -11 11 23 21 0 0.77022761D-02 0.40431535D+00 0.44472752D+05 0.44472752D+05 0.44472752D+05 0.11517975D+01  1  2  2  1  7  1       -2 0.136264288585D-02 0.100000000000D+01
-.390664658612D-05 0.000000000000D+00 -.420386537697D-06 0.538524644992D-05 0.000000000000D+00  7 -2 1 -24 -11 11 23 21 2 0.77022761D-02 0.40431535D+00 0.44472752D+05 0.44472752D+05 0.44472752D+05 0.11517975D+01  1  2  3  1  7  1       -2 -.645135041376D-04 0.100000000000D+01
0.687969709470D-05 0.000000000000D+00 0.000000000000D+00 0.538524644992D-05 0.000000000000D+00  7 -2 1 -24 -11 11 23 21 2 0.77022761D-02 0.40431535D+00 0.44472752D+05 0.44472752D+05 0.44472752D+05 0.11517975D+01  1  2 15  1  7  1       -2 0.113609807593D-03 0.100000000000D+01
0.146065398847D-03 0.000000000000D+00 0.000000000000D+00 0.538524644992D-05 0.000000000000D+00  7 -2 1 -24 -11 11 23 21 2 0.80600557D-02 0.40431535D+00 0.50515235D+05 0.50515235D+05 0.50515235D+05 0.11469040D+01  1  2 12  1  7  1       -2 0.222336696360D-02 0.100000000000D+01
-.861391957794D-04 0.000000000000D+00 0.000000000000D+00 0.538524644992D-05 0.000000000000D+00  7 -2 1 -24 -11 11 23 21 2 0.77022761D-02 0.40431535D+00 0.44472752D+05 0.44472752D+05 0.44472752D+05 0.11517975D+01  1  2  4  1  7  1       -2 -.142248376986D-02 0.100000000000D+01
0.148372318940D-05 0.000000000000D+00 0.000000000000D+00 0.538524644992D-05 0.000000000000D+00  7 21 1 -24 -11 11 23 2 2 0.80600557D-02 0.40431535D+00 0.50515235D+05 0.50515235D+05 0.50515235D+05 0.11469040D+01  1  2 12  3  7  1       -2 0.346292162286D-03 0.100000000000D+01
  </mgrwgt>
  </event>
  <event>
  8     66 0.26562228E-05 0.12311930E+03 0.75467711E-02 0.97633940E-01
       -4 -1    0    0    0  501 0.00000000E+00 0.00000000E+00 0.11897271E+04 0.11897281E+04 0.15500000E+01 0.0000E+00 0.9000E+01
        3 -1    0    0  501    0 0.00000000E+00 0.00000000E+00 -.99954513E+02 0.99955763E+02 0.50000000E+00 0.0000E+00 0.9000E+01
       25  2    1    2    0    0 0.15839910E+03 0.22024201E+03 0.60960659E+03 0.73234788E+03 0.30185493E+03 0.0000E+00 0.0000E+00
       23  2    3    3    0    0 -.36078414E+02 0.23281093E+02 0.24896286E+03 0.26867315E+03 0.91428064E+02 0.0000E+00 0.0000E+00
      -24  1    1    2    0    0 -.15839910E+03 -.22024201E+03 0.48016600E+03 0.55733600E+03 0.80419002E+02 0.0000E+00 0.9000E+01
      -11  1    4    4    0    0 0.42382913E+01 0.36511999E+02 0.35736824E+02 0.51266068E+02 0.51099893E-03 0.0000E+00 0.9000E+01
       11  1    4    4    0    0 -.40316705E+02 -.13230906E+02 0.21322604E+03 0.21740708E+03 0.51099893E-03 0.0000E+00 0.9000E+01
       23  1    3    3    0    0 0.19447751E+03 0.19696091E+03 0.36064373E+03 0.46367473E+03 0.91188000E+02 0.0000E+00 0.9000E+01
#aMCatNLO 1  0  0  1  2 0.10852287D+03 0.00000000D+00  -5  7  0 0.00000000D+00 0.00000000D+00 0.00000000D+00 0.00000000D+00 0.00000000D+00
  <mgrwgt>
 0.1795079918D-03    9    2    0
 0.344847865950550D+03 0.000000000000000D+00 0.000000000000000D+00 0.344847865950550D+03
 0.344847865950550D+03 0.000000000000000D+00 0.000000000000000D+00 -.344847865950550D+03
 0.283480818206372D+03 -.158399099803431D+03 -.220242006060329D+03 0.172436157626107D+02
 0.393970984216412D+02 0.423829126363683D+01 0.365119989329692D+02 -.141789345554566D+02
 0.696227441499804D+02 -.403167048176899D+02 -.132309058140805D+02 0.551981244876656D+02
 0.297195071123106D+03 0.194477513357484D+03 0.196960912941440D+03 -.582628056948196D+02
 0.000000000000000D+00 0.000000000000000D+00 -.000000000000000D+00 0.000000000000000D+00
 0.453267067521976D+03 0.000000000000000D+00 0.000000000000000D+00 0.453267067521976D+03
 0.377353445698555D+03 0.000000000000000D+00 0.000000000000000D+00 -.377353445698555D+03
 0.286503655068566D+03 -.194296411533186D+03 -.193826444516830D+03 0.172436157626107D+02
 0.427497610121017D+02 -.935273208690587D+00 0.403190419713687D+02 -.141789345554566D+02
 0.743549468029359D+02 -.493843413878079D+02 -.655835290328732D+01 0.551981244876656D+02
 0.294573143078699D+03 0.157208273486951D+03 0.224386027860656D+03 -.582628056948196D+02
 0.132439007258227D+03 0.874077526427335D+02 -.643202724119079D+02 0.759136218234211D+02
0.108134606301D-03 0.000000000000D+00 0.000000000000D+00 0.424582583546D-06 0.000000000000D+00  7 -4 3 -24 -11 11 23 21 0 0.18303511D+00 0.15377791D-01 0.10678955D+06 0.10678955D+06 0.10678955D+06 0.11193884D+01  1  2  2  1  7  1       -4 0.128451515425D-03 0.100000000000D+01
-.598633990158D-05 0.000000000000D+00 -.415265360690D-06 0.424582583546D-06 0.000000000000D+00  7 -4 3 -24 -11 11 23 21 2 0.18303511D+00 0.15377791D-01 0.10678955D+06 0.10678955D+06 0.10678955D+06 0.11193884D+01  1  2  3  1  7  1       -4 -.891040660891D-05 0.100000000000D+01
0.704895079103D-05 0.000000000000D+00 0.000000000000D+00 0.424582583546D-06 0.000000000000D+00  7 -4 3 -24 -11 11 23 21 2 0.18303511D+00 0.15377791D-01 0.10678955D+06 0.10678955D+06 0.10678955D+06 0.11193884D+01  1  2 15  1  7  1       -4 0.104920567069D-04 0.100000000000D+01
0.864642002048D-04 0.000000000000D+00 0.000000000000D+00 0.424582583546D-06 0.000000000000D+00  7 -4 3 -24 -11 11 23 21 2 0.24713725D+00 0.15377791D-01 0.14954029D+06 0.14954029D+06 0.14954029D+06 0.11076571D+01  1  2 12  1  7  1       -4 0.383167254927D-04 0.100000000000D+01
-.952390700275D-04 0.000000000000D+00 0.000000000000D+00 0.424582583546D-06 0.000000000000D+00  7 -4 3 -24 -11 11 23 21 2 0.18303511D+00 0.15377791D-01 0.10678955D+06 0.10678955D+06 0.10678955D+06 0.11193884D+01  1  2  4  1  7  1       -4 -.141759213969D-03 0.100000000000D+01
-.152849582146D-03 0.000000000000D+00 -.440017671381D-04 0.424582583546D-06 0.000000000000D+00  7 -4 3 -24 -11 11 23 21 2 0.25134532D+00 0.15377791D-01 0.10678955D+06 0.10678955D+06 0.10678955D+06 0.11193884D+01  1  2  5  1  7  1       -4 -.642123383486D-04 0.100000000000D+01
0.160774879450D-03 0.000000000000D+00 0.418779299229D-04 0.424582583546D-06 0.000000000000D+00  7 -4 3 -24 -11 11 23 21 2 0.18303511D+00 0.15377791D-01 0.10678955D+06 0.10678955D+06 0.10678955D+06 0.11193884D+01  1  2  6  1  7  1       -4 0.239306416266D-03 0.100000000000D+01
0.334443537636D-05 0.000000000000D+00 0.000000000000D+00 0.424582583546D-06 0.000000000000D+00  7 21 3 -24 -11 11 23 4 2 0.24713725D+00 0.15377791D-01 0.14954029D+06 0.14954029D+06 0.14954029D+06 0.11076571D+01  1  2 12  3  7  1       -4 0.458183282189D-04 0.100000000000D+01
-.507571624934D-05 0.000000000000D+00 -.177050449979D-05 0.424582583546D-06 0.000000000000D+00  7 21 3 -24 -11 11 23 4 2 0.25134532D+00 0.15377791D-01 0.10678955D+06 0.10678955D+06 0.10678955D+06 0.11193884D+01  1  2  5  3  7  1       -4 -.679950913969D-04 0.100000000000D+01
  </mgrwgt>
  </event>
  <event>
  8     66 0.26562228E-05 0.28822618E+03 0.75467711E-02 0.99756796E-01
       -2 -1    0    0    0  501 0.00000000E+00 0.00000000E+00 0.95782406E+03 0.95782411E+03 0.32000000E+00 0.0000E+00 0.9000E+01
        1 -1    0    0  501    0 0.00000000E+00 0.00000000E+00 -.11047091E+03 0.11047138E+03 0.32000000E+00 0.0000E+00 0.9000E+01
       25  2    1    2    0    0 0.20499377E+03 -.43574891E+02 0.28714583E+03 0.46478851E+03 0.29942347E+03 0.0000E+00 0.0000E+00
       23  2    3    3    0    0 0.20076677E+03 0.55166360E+02 0.14880637E+03 0.27186169E+03 0.91732325E+02 0.0000E+00 0.0000E+00
      -24  1    1    2    0    0 -.20499377E+03 0.43574891E+02 0.56020731E+03 0.60350697E+03 0.80419002E+02 0.0000E+00 0.9000E+01
      -13  1    4    4    0    0 0.18831301E+03 0.67435579E+02 0.15527720E+03 0.25322000E+03 0.10565837E+00 0.0000E+00 0.9000E+01
       13  1    4    4    0    0 0.12453751E+02 -.12269219E+02 -.64708297E+01 0.18641686E+02 0.10565837E+00 0.0000E+00 0.9000E+01
       23  1    3    3    0    0 0.42270064E+01 -.98741251E+02 0.13833946E+03 0.19292683E+03 0.91188000E+02 0.0000E+00 0.9000E+01
#aMCatNLO 1  0  0  2  2 0.71654927D+02 0.00000000D+00  -5  7  0 0.00000000D+00 0.00000000D+00 0.00000000D+00 0.00000000D+00 0.00000000D+00
  <mgrwgt>
 0.1299910321D-02    4    2    0
 0.325287523817792D+03 0.000000000000000D+00 0.000000000000000D+00 0.325287523817792D+03
 0.325287523817792D+03 0.000000000000000D+00 0.000000000000000D+00 -.325287523817792D+03
 0.261353932238489D+03 -.204993771906584D+03 0.435748906548648D+02 0.133856058234500D+03
 0.213563846653931D+03 0.188313247079977D+03 0.674356849200868D+02 -.748335885226552D+02
 0.390389341901558D+02 0.124535183115251D+02 -.122693247231388D+02 -.349057579090613D+02
 0.136618334553008D+03 0.422700651508195D+01 -.987412508518129D+02 -.241167118027834D+02
 0.000000000000000D+00 -.000000000000000D+00 0.000000000000000D+00 0.000000000000000D+00
 0.572839814422902D+03 0.000000000000000D+00 0.000000000000000D+00 0.572839814422902D+03
 0.332481339058344D+03 0.000000000000000D+00 0.000000000000000D+00 -.332481339058344D+03
 0.240017452540441D+03 -.177576559331465D+03 0.411130492611892D+02 0.133856058234500D+03
 0.234848946973901D+03 0.212834448842855D+03 0.652338816055768D+02 -.748335885226552D+02
 0.407620113394639D+02 0.168173881966121D+02 -.126611645387395D+02 -.349057579090613D+02
 0.138880810713627D+03 0.192925225364433D+02 -.100094010942097D+03 -.241167118027834D+02
 0.250811931913813D+03 -.713678002444452D+02 0.640824461407100D+01 0.240358475364557D+03
0.115737177529D-03 0.000000000000D+00 0.000000000000D+00 0.228563052124D-05 0.000000000000D+00  7 -2 1 -24 -13 13 23 21 0 0.14735759D+00 0.16995565D-01 0.83074329D+05 0.83074329D+05 0.83074329D+05 0.11283912D+01  1  2  2  2  7  2        1 0.133199106487D-02 0.100000000000D+01
-.631545164492D-05 0.000000000000D+00 -.444461236008D-06 0.228563052124D-05 0.000000000000D+00  7 -2 1 -24 -13 13 23 21 2 0.14735759D+00 0.16995565D-01 0.83074329D+05 0.83074329D+05 0.83074329D+05 0.11283912D+01  1  2  3  2  7  2        1 -.925448494460D-04 0.100000000000D+01
0.741137930166D-05 0.000000000000D+00 0.000000000000D+00 0.228563052124D-05 0.000000000000D+00  7 -2 1 -24 -13 13 23 21 2 0.14735759D+00 0.16995565D-01 0.83074329D+05 0.83074329D+05 0.83074329D+05 0.11283912D+01  1  2 15  2  7  2        1 0.108604264623D-03 0.100000000000D+01
-.328518388112D-05 0.000000000000D+00 0.000000000000D+00 0.228563052124D-05 0.000000000000D+00  7 -2 1 -24 -13 13 23 21 2 0.14735759D+00 0.16995565D-01 0.83074329D+05 0.83074329D+05 0.83074329D+05 0.11283912D+01  1  2  4  2  7  2        1 -.481401592117D-04 0.100000000000D+01
  </mgrwgt>
  </event>
  <event>
  8     66 0.26562228E-05 0.12559064E+03 0.75467711E-02 0.97255851E-01
       -2 -1    0    0    0  501 0.00000000E+00 0.00000000E+00 0.12534543E+04 0.12534543E+04 0.32000000E+00 0.0000E+00 0.9000E+01
        1 -1    0    0  501    0 0.00000000E+00 0.00000000E+00 -.93886981E+02 0.93887526E+02 0.32000000E+00 0.0000E+00 0.9000E+01
       25  2    1    2    0    0 0.19658753E+03 0.18490094E+03 0.71527024E+03 0.82131703E+03 0.30019183E+03 0.0000E+00 0.0000E+00
       23  2    3    3    0    0 0.20351558E+03 0.20478819E+03 0.60492549E+03 0.67662869E+03 0.92383670E+02 0.0000E+00 0.0000E+00
      -24  1    1    2    0    0 -.19658753E+03 -.18490094E+03 0.44429706E+03 0.52602482E+03 0.80419002E+02 0.0000E+00 0.9000E+01
      -13  1    4    4    0    0 0.73144086E+02 0.10022183E+03 0.16815029E+03 0.20897130E+03 0.10565837E+00 0.0000E+00 0.9000E+01
       13  1    4    4    0    0 0.13037149E+03 0.10456636E+03 0.43677521E+03 0.46765740E+03 0.10565837E+00 0.0000E+00 0.9000E+01
       23  1    3    3    0    0 -.69280508E+01 -.19887247E+02 0.11034475E+03 0.14468834E+03 0.91188000E+02 0.0000E+00 0.9000E+01
#aMCatNLO 1  0  0  2  1 0.12042074D+03 0.00000000D+00  -5  7  0 0.00000000D+00 0.00000000D+00 0.00000000D+00 0.00000000D+00 0.00000000D+00
  <mgrwgt>
 0.9537886933D-03    9    2    0
 0.343050190690940D+03 0.000000000000000D+00 0.000000000000000D+00 0.343050190690940D+03
 0.343050190690940D+03 0.000000000000000D+00 0.000000000000000D+00 -.343050190690940D+03
 0.282091240930295D+03 -.196587529344425D+03 -.184900942886509D+03 -.165298784374838D+02
 0.126182917379771D+03 0.731440116742932D+02 0.100221820664669D+03 -.229710438883394D+02
 0.180183817491994D+03 0.130371568503546D+03 0.104566369199149D+03 0.673449080808697D+02
 0.976424055798199D+02 -.692805083341385D+01 -.198872469773082D+02 -.278439857550466D+02
 0.000000000000000D+00 0.000000000000000D+00 -.000000000000000D+00 -.000000000000000D+00
 0.398604455450692D+03 0.000000000000000D+00 0.000000000000000D+00 0.398604455450692D+03
 0.420352397273948D+03 0.000000000000000D+00 0.000000000000000D+00 -.420352397273948D+03
 0.272860317160421D+03 -.218252691277413D+03 -.141697080405783D+03 -.165298784374838D+02
 0.138081163815469D+03 0.628272118947507D+02 0.120795200189604D+03 -.229710438883394D+02
 0.189086697422531D+03 0.115955345346654D+03 0.133314666797308D+03 0.673449080808697D+02
 0.965598550172343D+02 -.145096556820656D+02 -.476829174967061D+01 -.278439857550466D+02
 0.122368819308985D+03 0.539797897180744D+02 -.107644494831458D+03 -.217479418232557D+02
0.105018575345D-03 0.000000000000D+00 0.000000000000D+00 0.178555592781D-05 0.000000000000D+00  7 -2 1 -24 -13 13 23 21 0 0.19283917D+00 0.14444196D-01 0.11102039D+06 0.11102039D+06 0.11102039D+06 0.11180152D+01  1  2  2  2  7  2        1 0.689498772618D-03 0.100000000000D+01
-.582834082145D-05 0.000000000000D+00 -.403298981350D-06 0.178555592781D-05 0.000000000000D+00  7 -2 1 -24 -13 13 23 21 2 0.19283917D+00 0.14444196D-01 0.11102039D+06 0.11102039D+06 0.11102039D+06 0.11180152D+01  1  2  3  2  7  2        1 -.478308058457D-04 0.100000000000D+01
0.678423368552D-05 0.000000000000D+00 0.000000000000D+00 0.178555592781D-05 0.000000000000D+00  7 -2 1 -24 -13 13 23 21 2 0.19283917D+00 0.14444196D-01 0.11102039D+06 0.11102039D+06 0.11102039D+06 0.11180152D+01  1  2 15  2  7  2        1 0.556754270495D-04 0.100000000000D+01
0.588972723503D-04 0.000000000000D+00 0.000000000000D+00 0.178555592781D-05 0.000000000000D+00  7 -2 1 -24 -13 13 23 21 2 0.19283917D+00 0.18645928D-01 0.15923394D+06 0.15923394D+06 0.15923394D+06 0.11055103D+01  1  2 12  2  7  2        1 0.334265502935D-03 0.100000000000D+01
-.611064366312D-04 0.000000000000D+00 0.000000000000D+00 0.178555592781D-05 0.000000000000D+00  7 -2 1 -24 -13 13 23 21 2 0.19283917D+00 0.14444196D-01 0.11102039D+06 0.11102039D+06 0.11102039D+06 0.11180152D+01  1  2  4  2  7  2        1 -.501475496366D-03 0.100000000000D+01
-.124704558375D-03 0.000000000000D+00 -.518815546657D-04 0.178555592781D-05 0.000000000000D+00  7 -2 1 -24 -13 13 23 21 2 0.19283917D+00 0.20686073D-01 0.11102039D+06 0.11102039D+06 0.11102039D+06 0.11180152D+01  1  2  5  2  7  2        1 -.638418116507D-03 0.100000000000D+01
0.137546597420D-03 0.000000000000D+00 0.487060558132D-04 0.178555592781D-05 0.000000000000D+00  7 -2 1 -24 -13 13 23 21 2 0.19283917D+00 0.14444196D-01 0.11102039D+06 0.11102039D+06 0.11102039D+06 0.11180152D+01  1  2  6  2  7  2        1 0.112878858623D-02 0.100000000000D+01
0.202451784930D-05 0.000000000000D+00 0.000000000000D+00 0.178555592781D-05 0.000000000000D+00  7 -2 21 -24 -13 13 23 -1 2 0.19283917D+00 0.18645928D-01 0.15923394D+06 0.15923394D+06 0.15923394D+06 0.11055103D+01  1  2 12  4  7  2        1 0.974595254262D-04 0.100000000000D+01
-.396539048611D-05 0.000000000000D+00 -.228345934921D-05 0.178555592781D-05 0.000000000000D+00  7 -2 21 -24 -13 13 23 -1 2 0.19283917D+00 0.20686073D-01 0.11102039D+06 0.11102039D+06 0.11102039D+06 0.11180152D+01  1  2  5  4  7  2        1 -.164174702195D-03 0.100000000000D+01
  </mgrwgt>
  </event>
  <event>
  8     66 0.26562228E-05 0.16210606E+03 0.75467711E-02 0.99320216E-01
       -2 -1    0    0    0  501 0.00000000E+00 0.00000000E+00 0.20583888E+03 0.20583913E+03 0.32000000E+00 0.0000E+00 0.9000E+01
        1 -1    0    0  501    0 0.00000000E+00 0.00000000E+00 -.90540253E+03 0.90540259E+03 0.32000000E+00 0.0000E+00 0.9000E+01
       25  2    1    2    0    0 -.13007841E+03 0.19202047E+03 -.46918995E+01 0.37428431E+03 0.29372517E+03 0.0000E+00 0.0000E+00
       23  2    3    3    0    0 -.66173242E+02 0.23184518E+03 0.39928743E+01 0.25570710E+03 0.85082856E+02 0.0000E+00 0.0000E+00
      -24  1    1    2    0    0 0.13007841E+03 -.19202047E+03 -.69487175E+03 0.73695740E+03 0.80419002E+02 0.0000E+00 0.9000E+01
      -11  1    4    4    0    0 -.48497233E+01 -.72317215E+01 -.14684077E+01 0.88302793E+01 0.51099893E-03 0.0000E+00 0.9000E+01
       11  1    4    4    0    0 -.61323519E+02 0.23907691E+03 0.54612820E+01 0.24687683E+03 0.51099893E-03 0.0000E+00 0.9000E+01
       23  1    3    3    0    0 -.63905166E+02 -.39824710E+02 -.86847738E+01 0.11857721E+03 0.91188000E+02 0.0000E+00 0.9000E+01
#aMCatNLO 1  0  0  1  2 0.50183665D+02 0.00000000D+00  -5  7  0 0.00000000D+00 0.00000000D+00 0.00000000D+00 0.00000000D+00 0.00000000D+00
  <mgrwgt>
 0.1846752190D-01    9    2    0
 0.431702692503401D+03 0.000000000000000D+00 0.000000000000000D+00 0.431702692503401D+03
 0.431702692503401D+03 0.000000000000000D+00 0.000000000000000D+00 -.431702692503401D+03
 0.385486127503145D+03 0.130078408384473D+03 -.192020474667805D+03 -.297220597407907D+03
 0.101752087991857D+02 -.484972327305639D+01 -.723172146753527D+01 0.526471869123057D+01
 0.322166558401055D+03 -.613235190474921D+02 0.239076906430425D+03 0.207057842583347D+03
 0.145577490303417D+03 -.639051660639247D+02 -.398247102950841D+02 0.848980361333298D+02
 0.000000000000000D+00 -.000000000000000D+00 0.000000000000000D+00 0.000000000000000D+00
 0.496691592786965D+03 0.000000000000000D+00 0.000000000000000D+00 0.496691592786965D+03
 0.442228934057797D+03 0.000000000000000D+00 0.000000000000000D+00 -.442228934057797D+03
 0.398942741077885D+03 0.148104367010385D+03 -.205944428556117D+03 -.297220597407907D+03
 0.102262520091596D+02 -.438090334155050D+01 -.759385627787627D+01 0.526471869123057D+01
 0.311394909632156D+03 -.467644515945085D+02 0.227830914576169D+03 0.207057842583347D+03
 0.144298663898143D+03 -.572438921465994D+02 -.449701382186188D+02 0.848980361333298D+02
 0.740579602274176D+02 -.397151199277270D+02 0.306775084764430D+02 0.544626587291677D+02
0.857713224690D-03 0.000000000000D+00 0.000000000000D+00 0.426683206125D-08 0.000000000000D+00  7 -2 1 -24 -11 11 23 21 0 0.31667544D-01 0.13929272D+00 0.95870900D+05 0.95870900D+05 0.95870900D+05 0.11232280D+01  1  2  2  1  7  1       -2 0.155947875826D-01 0.100000000000D+01
-.412509695697D-04 0.000000000000D+00 -.329384462389D-05 0.426683206125D-08 0.000000000000D+00  7 -2 1 -24 -11 11 23 21 2 0.31667544D-01 0.13929272D+00 0.95870900D+05 0.95870900D+05 0.95870900D+05 0.11232280D+01  1  2  3  1  7  1       -2 -.946253126793D-03 0.100000000000D+01
0.531996465692D-04 0.000000000000D+00 0.000000000000D+00 0.426683206125D-08 0.000000000000D+00  7 -2 1 -24 -11 11 23 21 2 0.31667544D-01 0.13929272D+00 0.95870900D+05 0.95870900D+05 0.95870900D+05 0.11232280D+01  1  2 15  1  7  1       -2 0.122034299886D-02 0.100000000000D+01
0.265788127406D-02 0.000000000000D+00 0.000000000000D+00 0.426683206125D-08 0.000000000000D+00  7 -2 1 -24 -11 11 23 21 2 0.36782271D-01 0.13929272D+00 0.11367808D+06 0.11367808D+06 0.11367808D+06 0.11171816D+01  1  2 12  1  7  1       -2 0.458712046730D-01 0.100000000000D+01
-.271213623153D-02 0.000000000000D+00 0.000000000000D+00 0.426683206125D-08 0.000000000000D+00  7 -2 1 -24 -11 11 23 21 2 0.31667544D-01 0.13929272D+00 0.95870900D+05 0.95870900D+05 0.95870900D+05 0.11232280D+01  1  2  4  1  7  1       -2 -.622135047042D-01 0.100000000000D+01
-.419802470732D-02 0.000000000000D+00 -.734363957997D-03 0.426683206125D-08 0.000000000000D+00  7 -2 1 -24 -11 11 23 21 2 0.37149751D-01 0.13929272D+00 0.95870900D+05 0.95870900D+05 0.95870900D+05 0.11232280D+01  1  2  5  1  7  1       -2 -.722486864349D-01 0.100000000000D+01
0.426999597741D-02 0.000000000000D+00 0.725101856393D-03 0.426683206125D-08 0.000000000000D+00  7 -2 1 -24 -11 11 23 21 2 0.31667544D-01 0.13929272D+00 0.95870900D+05 0.95870900D+05 0.95870900D+05 0.11232280D+01  1  2  6  1  7  1       -2 0.979491412485D-01 0.100000000000D+01
0.605383840052D-04 0.000000000000D+00 0.000000000000D+00 0.426683206125D-08 0.000000000000D+00  7 21 1 -24 -11 11 23 2 2 0.36782271D-01 0.13929272D+00 0.11367808D+06 0.11367808D+06 0.11367808D+06 0.11171816D+01  1  2 12  3  7  1       -2 0.118746263020D-01 0.100000000000D+01
-.949976571769D-04 0.000000000000D+00 -.176150023844D-04 0.426683206125D-08 0.000000000000D+00  7 21 1 -24 -11 11 23 2 2 0.37149751D-01 0.13929272D+00 0.95870900D+05 0.95870900D+05 0.95870900D+05 0.11232280D+01  1  2  5  3  7  1       -2 -.186341366393D-01 0.100000000000D+01
  </mgrwgt>
  </event>
  <event>
  8     66 0.26562228E-05 0.14729047E+03 0.75467711E-02 0.10226243E+00
       -2 -1    0    0    0  501 0.00000000E+00 0.00000000E+00 0.31925231E+03 0.31925247E+03 0.32000000E+00 0.0000E+00 0.9000E+01
        1 -1    0    0  501    0 0.00000000E+00 0.00000000E+00 -.20305417E+03 0.20305442E+03 0.32000000E+00 0.0000E+00 0.9000E+01
       25  2    1    2    0    0 0.76942749E+02 -.99420010E+02 0.16558092E+03 0.36511147E+03 0.30014133E+03 0.0000E+00 0.0000E+00
       23  2    3    3    0    0 0.13192816E+02 0.72676807E+02 0.64107197E+02 0.13643366E+03 0.95123306E+02 0.0000E+00 0.0000E+00
      -24  1    1    2    0    0 -.76942749E+02 0.99420010E+02 -.49382788E+02 0.15719542E+03 0.80419002E+02 0.0000E+00 0.9000E+01
      -13  1    4    4    0    0 0.28796696E+02 -.10093408E+02 0.36980947E+02 0.47945054E+02 0.10565837E+00 0.0000E+00 0.9000E+01
       13  1    4    4    0    0 -.15603881E+02 0.82770215E+02 0.27126250E+02 0.88488610E+02 0.10565837E+00 0.0000E+00 0.9000E+01
       23  1    3    3    0    0 0.63749933E+02 -.17209682E+03 0.10147373E+03 0.22867780E+03 0.91188000E+02 0.0000E+00 0.9000E+01
#aMCatNLO 1  0  0  2  1 0.62957630D+02 0.00000000D+00  -5  7  0 0.00000000D+00 0.00000000D+00 0.00000000D+00 0.00000000D+00 0.00000000D+00
  <mgrwgt>
 0.1210525701D-02    9    2    0
 0.254608758298222D+03 0.000000000000000D+00 0.000000000000000D+00 0.254608758298222D+03
 0.254608758298222D+03 0.000000000000000D+00 0.000000000000000D+00 -.254608758298222D+03
 0.172504750178283D+03 -.769427497789241D+02 0.994200113818005D+02 -.865225258126572D+02
 0.407387363292211D+02 0.287967393459787D+02 -.100935054352972D+02 0.269909908815736D+02
 0.845733243693237D+02 -.156039292388006D+02 0.827703293664755D+02 0.763132778450220D+01
 0.211400705719616D+03 0.637499396717461D+02 -.172096835312979D+03 0.519002071465814D+02
 0.000000000000000D+00 -.000000000000000D+00 -.000000000000000D+00 -.000000000000000D+00
 0.272682715366550D+03 0.000000000000000D+00 0.000000000000000D+00 0.272682715366550D+03
 0.317959947199138D+03 0.000000000000000D+00 0.000000000000000D+00 -.317959947199138D+03
 0.180551243357565D+03 -.672097122015582D+02 0.118862284330960D+03 -.865225258126572D+02
 0.415267977510731D+02 0.310646332471887D+02 -.556326378190044D+01 0.269909908815736D+02
 0.935044332115393D+02 -.106946866881523D+02 0.925768088837531D+02 0.763132778450220D+01
 0.197512197588580D+03 0.750228389473233D+02 -.149578604709017D+03 0.519002071465814D+02
 0.775479906569302D+02 -.281830733048014D+02 -.562972247237962D+02 -.452772318325879D+02
0.140049464188D-04 0.000000000000D+00 0.000000000000D+00 0.234375139911D-06 0.000000000000D+00  7 -2 1 -24 -13 13 23 21 0 0.49115771D-01 0.31239135D-01 0.54969322D+05 0.54969322D+05 0.54969322D+05 0.11436933D+01  1  2  2  2  7  2        1 0.902348378643D-03 0.100000000000D+01
-.771619677759D-06 0.000000000000D+00 -.537826818353D-07 0.234375139911D-06 0.000000000000D+00  7 -2 1 -24 -13 13 23 21 2 0.49115771D-01 0.31239135D-01 0.54969322D+05 0.54969322D+05 0.54969322D+05 0.11436933D+01  1  2  3  2  7  2        1 -.650302242655D-04 0.100000000000D+01
0.897146779522D-06 0.000000000000D+00 0.000000000000D+00 0.234375139911D-06 0.000000000000D+00  7 -2 1 -24 -13 13 23 21 2 0.49115771D-01 0.31239135D-01 0.54969322D+05 0.54969322D+05 0.54969322D+05 0.11436933D+01  1  2 15  2  7  2        1 0.756093422097D-04 0.100000000000D+01
0.179106322348D-04 0.000000000000D+00 0.000000000000D+00 0.234375139911D-06 0.000000000000D+00  7 -2 1 -24 -13 13 23 21 2 0.49115771D-01 0.39916222D-01 0.72025112D+05 0.72025112D+05 0.72025112D+05 0.11336082D+01  1  2 12  2  7  2        1 0.107922064206D-02 0.100000000000D+01
-.187096965350D-04 0.000000000000D+00 0.000000000000D+00 0.234375139911D-06 0.000000000000D+00  7 -2 1 -24 -13 13 23 21 2 0.49115771D-01 0.31239135D-01 0.54969322D+05 0.54969322D+05 0.54969322D+05 0.11436933D+01  1  2  4  2  7  2        1 -.157680758628D-02 0.100000000000D+01
-.307633399992D-04 0.000000000000D+00 -.816949378114D-05 0.234375139911D-06 0.000000000000D+00  7 -2 1 -24 -13 13 23 21 2 0.49115771D-01 0.41387857D-01 0.54969322D+05 0.54969322D+05 0.54969322D+05 0.11436933D+01  1  2  5  2  7  2        1 -.180363961098D-02 0.100000000000D+01
0.320960656253D-04 0.000000000000D+00 0.785655948113D-05 0.234375139911D-06 0.000000000000D+00  7 -2 1 -24 -13 13 23 21 2 0.49115771D-01 0.31239135D-01 0.54969322D+05 0.54969322D+05 0.54969322D+05 0.11436933D+01  1  2  6  2  7  2        1 0.270497812046D-02 0.100000000000D+01
0.597373512919D-06 0.000000000000D+00 0.000000000000D+00 0.234375139911D-06 0.000000000000D+00  7 -2 21 -24 -13 13 23 -1 2 0.49115771D-01 0.39916222D-01 0.72025112D+05 0.72025112D+05 0.72025112D+05 0.11336082D+01  1  2 12  4  7  2        1 0.193211522304D-03 0.100000000000D+01
-.969437590171D-06 0.000000000000D+00 -.301420880936D-06 0.234375139911D-06 0.000000000000D+00  7 -2 21 -24 -13 13 23 -1 2 0.49115771D-01 0.41387857D-01 0.54969322D+05 0.54969322D+05 0.54969322D+05 0.11436933D+01  1  2  5  4  7  2        1 -.299364882734D-03 0.100000000000D+01
  </mgrwgt>
  </event>
  <event>
  7     66 0.26562228E-05 0.37013867E+03 0.75467711E-02 0.89368304E-01
       -2 -1    0    0    0  501 0.00000000E+00 0.00000000E+00 0.26271383E+03 0.26271402E+03 0.32000000E+00 0.0000E+00 0.9000E+01
        1 -1    0    0  501    0 0.00000000E+00 0.00000000E+00 -.27236678E+04 0.27236678E+04 0.32000000E+00 0.0000E+00 0.9000E+01
       23  2    1    2    0    0 -.18333738E+03 -.66663220E+01 -.27485265E+03 0.34279925E+03 0.91160904E+02 0.0000E+00 0.0000E+00
      -24  1    1    2    0    0 -.35627998E+03 0.51778573E+03 -.14984510E+04 0.16269174E+04 0.80419002E+02 0.0000E+00 0.9000E+01
      -13  1    3    3    0    0 -.13717899E+03 -.28686668E+02 -.13792427E+03 0.19663193E+03 0.10565837E+00 0.0000E+00 0.9000E+01
       13  1    3    3    0    0 -.46158391E+02 0.22020346E+02 -.13692838E+03 0.14616732E+03 0.10565837E+00 0.0000E+00 0.9000E+01
       23  1    1    2    0    0 0.53961736E+03 -.51111941E+03 -.68765029E+03 0.10166652E+04 0.91188000E+02 0.0000E+00 0.9000E+01
#aMCatNLO 1  0  0  1  2 0.59103067D+02 0.00000000D+00  -5  7  0 0.00000000D+00 0.00000000D+00 0.00000000D+00 0.00000000D+00 0.00000000D+00
  <mgrwgt>
 0.1538346229D-01    9    2    0
 0.845899230348009D+03 0.000000000000000D+00 0.000000000000000D+00 0.845899230348009D+03
 0.845899230348009D+03 0.000000000000000D+00 0.000000000000000D+00 -.845899230348009D+03
 0.692155650488213D+03 -.356283162964581D+03 0.517790363511000D+03 -.278509740927478D+03
 0.146464719758297D+03 -.137175723696426D+03 -.286888560571758D+02 0.425638872798168D+02
 0.588320562956341D+02 -.461554961947609D+02 0.220192946820458D+02 -.290866237417357D+02
 0.794346034153874D+03 0.539614382855768D+03 -.511120802135870D+03 0.265032477389396D+03
 0.000000000000000D+00 0.000000000000000D+00 -.000000000000000D+00 0.000000000000000D+00
 0.905461225354787D+03 0.000000000000000D+00 0.000000000000000D+00 0.905461225354787D+03
 0.861205322635149D+03 0.000000000000000D+00 0.000000000000000D+00 -.861205322635149D+03
 0.711827918532799D+03 -.378182825599066D+03 0.528811728575287D+03 -.278509740927478D+03
 0.150384216312308D+03 -.141806042524078D+03 -.263585720242504D+02 0.425638872798168D+02
 0.606540852468457D+02 -.480192688535116D+02 0.229572688970724D+02 -.290866237417357D+02
 0.769964310174202D+03 0.515213905847117D+03 -.498840861145747D+03 0.265032477389396D+03
 0.738360177237810D+02 0.527942311295381D+02 -.265695643023616D+02 0.442559027196381D+02
0.195047384147D-01 0.000000000000D+00 0.000000000000D+00 0.547585293808D-09 0.000000000000D+00  7 -2 1 -24 -13 13 23 21 0 0.40417528D-01 0.41902583D+00 0.61918014D+06 0.61918014D+06 0.61918014D+06 0.10620097D+01  1  2  2  1  7  1       -2 0.116007021272D-01 0.100000000000D+01
-.107670498469D-02 0.000000000000D+00 -.749033312281D-04 0.547585293808D-09 0.000000000000D+00  7 -2 1 -24 -13 13 23 21 2 0.40417528D-01 0.41902583D+00 0.61918014D+06 0.61918014D+06 0.61918014D+06 0.10620097D+01  1  2  3  1  7  1       -2 -.722267089594D-03 0.100000000000D+01
0.125357718417D-02 0.000000000000D+00 0.000000000000D+00 0.547585293808D-09 0.000000000000D+00  7 -2 1 -24 -13 13 23 21 2 0.40417528D-01 0.41902583D+00 0.61918014D+06 0.61918014D+06 0.61918014D+06 0.10620097D+01  1  2 15  1  7  1       -2 0.840915159927D-03 0.100000000000D+01
0.732957353459D-01 0.000000000000D+00 0.000000000000D+00 0.547585293808D-09 0.000000000000D+00  7 -2 1 -24 -13 13 23 21 2 0.43612022D-01 0.41902583D+00 0.66794398D+06 0.66794398D+06 0.66794398D+06 0.10597336D+01  1  2 12  1  7  1       -2 0.420943118572D-01 0.100000000000D+01
-.735722498743D-01 0.000000000000D+00 0.000000000000D+00 0.547585293808D-09 0.000000000000D+00  7 -2 1 -24 -13 13 23 21 2 0.40417528D-01 0.41902583D+00 0.61918014D+06 0.61918014D+06 0.61918014D+06 0.10620097D+01  1  2  4  1  7  1       -2 -.493531798843D-01 0.100000000000D+01
-.186065916636D+00 0.000000000000D+00 -.289307098938D-01 0.547585293808D-09 0.000000000000D+00  7 -2 1 -24 -13 13 23 21 2 0.44107874D-01 0.41902583D+00 0.61918014D+06 0.61918014D+06 0.61918014D+06 0.10620097D+01  1  2  5  1  7  1       -2 -.105538233598D+00 0.100000000000D+01
0.187985782672D+00 0.000000000000D+00 0.288206265334D-01 0.547585293808D-09 0.000000000000D+00  7 -2 1 -24 -13 13 23 21 2 0.40417528D-01 0.41902583D+00 0.61918014D+06 0.61918014D+06 0.61918014D+06 0.10620097D+01  1  2  6  1  7  1       -2 0.126103200103D+00 0.100000000000D+01
0.978821493845D-03 0.000000000000D+00 0.000000000000D+00 0.547585293808D-09 0.000000000000D+00  7 21 1 -24 -13 13 23 2 2 0.43612022D-01 0.41902583D+00 0.66794398D+06 0.66794398D+06 0.66794398D+06 0.10597336D+01  1  2 12  3  7  1       -2 0.589569099202D-02 0.100000000000D+01
-.261265574438D-02 0.000000000000D+00 -.417748436228D-03 0.547585293808D-09 0.000000000000D+00  7 21 1 -24 -13 13 23 2 2 0.44107874D-01 0.41902583D+00 0.61918014D+06 0.61918014D+06 0.61918014D+06 0.10620097D+01  1  2  5  3  7  1       -2 -.155376773817D-01 0.100000000000D+01
  </mgrwgt>
  </event>
  <event>
  8     66 0.26562228E-05 0.28315161E+03 0.75467711E-02 0.96182589E-01
       -2 -1    0    0    0  501 0.00000000E+00 0.00000000E+00 0.62589396E+03 0.62589404E+03 0.32000000E+00 0.0000E+00 0.9000E+01
        1 -1    0    0  501    0 0.00000000E+00 0.00000000E+00 -.28997155E+03 0.28997173E+03 0.32000000E+00 0.0000E+00 0.9000E+01
       25  2    1    2    0    0 -.88893600E+02 -.34688915E+03 0.97298984E+02 0.47809584E+03 0.30145379E+03 0.0000E+00 0.0000E+00
       23  2    3    3    0    0 -.11559647E+03 -.54247238E+02 0.11664572E+01 0.15574658E+03 0.89164632E+02 0.0000E+00 0.0000E+00
      -24  1    1    2    0    0 0.88893600E+02 0.34688915E+03 0.23862342E+03 0.43776992E+03 0.80419002E+02 0.0000E+00 0.9000E+01
      -13  1    4    4    0    0 -.16942329E+02 -.22215653E+01 0.35207938E+02 0.39135507E+02 0.10565837E+00 0.0000E+00 0.9000E+01
       13  1    4    4    0    0 -.98654139E+02 -.52025672E+02 -.34041481E+02 0.11661108E+03 0.10565837E+00 0.0000E+00 0.9000E+01
       23  1    3    3    0    0 0.26702867E+02 -.29264191E+03 0.96132527E+02 0.32234926E+03 0.91188000E+02 0.0000E+00 0.9000E+01
#aMCatNLO 1  0  0  1  2 0.67337459D+02 0.00000000D+00  -5  7  0 0.00000000D+00 0.00000000D+00 0.00000000D+00 0.00000000D+00 0.00000000D+00
  <mgrwgt>
 0.1096164291D-02    9    2    0
 0.426018263265658D+03 0.000000000000000D+00 0.000000000000000D+00 0.426018263265658D+03
 0.426018263265658D+03 0.000000000000000D+00 0.000000000000000D+00 -.426018263265658D+03
 0.376485660836510D+03 0.888936006254227D+02 0.346889149381947D+03 0.839052004946690D+02
 0.281861200260376D+02 -.169422141975788D+02 -.222149556511919D+01 0.224161481450251D+02
 0.138768136939472D+03 -.986542531093328D+02 -.520257427836086D+02 -.825666776666319D+02
 0.308596608729296D+03 0.267028666814889D+02 -.292641911033219D+03 -.237546709730622D+02
 0.000000000000000D+00 -.000000000000000D+00 0.000000000000000D+00 0.000000000000000D+00
 0.517263284219306D+03 0.000000000000000D+00 0.000000000000000D+00 0.517263284219306D+03
 0.439953677942445D+03 0.000000000000000D+00 0.000000000000000D+00 -.439953677942445D+03
 0.350867773937269D+03 0.911061230686898D+02 0.318277505492716D+03 0.839052004946690D+02
 0.283458190108096D+02 -.167702507780078D+02 -.444527238497160D+01 0.224161481450251D+02
 0.142699123223146D+03 -.977980632566674D+02 -.630977204896807D+02 -.825666776666319D+02
 0.332780548078800D+03 0.286538595361223D+02 -.317871536593436D+03 -.237546709730622D+02
 0.102523697911727D+03 -.519166857013689D+01 0.671370239753725D+02 0.773096062768603D+02
0.785591198614D-04 0.000000000000D+00 0.000000000000D+00 0.250229786647D-06 0.000000000000D+00  7 -2 1 -24 -13 13 23 21 0 0.96291398D-01 0.44611028D-01 0.16132949D+06 0.16132949D+06 0.16132949D+06 0.11050650D+01  1  2  2  1  7  1       -2 0.743922662531D-03 0.100000000000D+01
-.434599868365D-05 0.000000000000D+00 -.301687705359D-06 0.250229786647D-06 0.000000000000D+00  7 -2 1 -24 -13 13 23 21 2 0.96291398D-01 0.44611028D-01 0.16132949D+06 0.16132949D+06 0.16132949D+06 0.11050650D+01  1  2  3  1  7  1       -2 -.502569879266D-04 0.100000000000D+01
0.505641579643D-05 0.000000000000D+00 0.000000000000D+00 0.250229786647D-06 0.000000000000D+00  7 -2 1 -24 -13 13 23 21 2 0.96291398D-01 0.44611028D-01 0.16132949D+06 0.16132949D+06 0.16132949D+06 0.11050650D+01  1  2 15  1  7  1       -2 0.584722283946D-04 0.100000000000D+01
0.181294862344D-03 0.000000000000D+00 0.000000000000D+00 0.250229786647D-06 0.000000000000D+00  7 -2 1 -24 -13 13 23 21 2 0.11825674D+00 0.44611028D-01 0.19083467D+06 0.19083467D+06 0.19083467D+06 0.10993935D+01  1  2 12  1  7  1       -2 0.124764861678D-02 0.100000000000D+01
-.184209532977D-03 0.000000000000D+00 0.000000000000D+00 0.250229786647D-06 0.000000000000D+00  7 -2 1 -24 -13 13 23 21 2 0.96291398D-01 0.44611028D-01 0.16132949D+06 0.16132949D+06 0.16132949D+06 0.11050650D+01  1  2  4  1  7  1       -2 -.213019306923D-02 0.100000000000D+01
-.282913627566D-03 0.000000000000D+00 -.488384258826D-04 0.250229786647D-06 0.000000000000D+00  7 -2 1 -24 -13 13 23 21 2 0.11910333D+00 0.44611028D-01 0.16132949D+06 0.16132949D+06 0.16132949D+06 0.11050650D+01  1  2  5  1  7  1       -2 -.194145014609D-02 0.100000000000D+01
0.287850174253D-03 0.000000000000D+00 0.477549942533D-04 0.250229786647D-06 0.000000000000D+00  7 -2 1 -24 -13 13 23 21 2 0.96291398D-01 0.44611028D-01 0.16132949D+06 0.16132949D+06 0.16132949D+06 0.11050650D+01  1  2  6  1  7  1       -2 0.332869008602D-02 0.100000000000D+01
0.529646904191D-05 0.000000000000D+00 0.000000000000D+00 0.250229786647D-06 0.000000000000D+00  7 21 1 -24 -13 13 23 2 2 0.11825674D+00 0.44611028D-01 0.19083467D+06 0.19083467D+06 0.19083467D+06 0.10993935D+01  1  2 12  3  7  1       -2 0.330618546244D-03 0.100000000000D+01
-.785814295930D-05 0.000000000000D+00 -.146432254556D-05 0.250229786647D-06 0.000000000000D+00  7 21 1 -24 -13 13 23 2 2 0.11910333D+00 0.44611028D-01 0.16132949D+06 0.16132949D+06 0.16132949D+06 0.11050650D+01  1  2  5  3  7  1       -2 -.491287645450D-03 0.100000000000D+01
  </mgrwgt>
  </event>
  <event>
  8     66 0.26562228E-05 0.38054699E+03 0.75467711E-02 0.96321307E-01
       -2 -1    0    0    0  501 0.00000000E+00 0.00000000E+00 0.22846440E+03 0.22846462E+03 0.32000000E+00 0.0000E+00 0.9000E+01
        1 -1    0    0  501    0 0.00000000E+00 0.00000000E+00 -.85156979E+03 0.85156985E+03 0.32000000E+00 0.0000E+00 0.9000E+01
       25  2    1    2    0    0 -.34038986E+03 -.77589028E+02 -.54487659E+03 0.71332985E+03 0.30010609E+03 0.0000E+00 0.0000E+00
       23  2    3    3    0    0 -.81397329E+02 -.29868557E+02 -.35309476E+03 0.37502541E+03 0.91926561E+02 0.0000E+00 0.0000E+00
      -24  1    1    2    0    0 0.34038986E+03 0.77589028E+02 -.78228810E+02 0.36670462E+03 0.80419002E+02 0.0000E+00 0.9000E+01
      -11  1    4    4    0    0 0.14892950E+02 0.12012801E+02 -.32977279E+02 0.38126215E+02 0.51099893E-03 0.0000E+00 0.9000E+01
       11  1    4    4    0    0 -.96290279E+02 -.41881358E+02 -.32011748E+03 0.33689919E+03 0.51099893E-03 0.0000E+00 0.9000E+01
       23  1    3    3    0    0 -.25899253E+03 -.47720471E+02 -.19178183E+03 0.33830445E+03 0.91188000E+02 0.0000E+00 0.9000E+01
#aMCatNLO 1  0  0  1  2 0.97730879D+02 0.00000000D+00  -5  7  0 0.00000000D+00 0.00000000D+00 0.00000000D+00 0.00000000D+00 0.00000000D+00
  <mgrwgt>
 0.7894757022D-03    4    2    0
 0.441082228548129D+03 0.000000000000000D+00 0.000000000000000D+00 0.441082228548129D+03
 0.441082228548129D+03 0.000000000000000D+00 0.000000000000000D+00 -.441082228548129D+03
 0.393700784855102D+03 0.340389863938142D+03 0.775890281487284D+02 0.163241463116027D+03
 0.233848755327116D+02 0.148929496319426D+02 0.120128008693494D+02 -.134441463177918D+02
 0.186355063311897D+03 -.962902786979009D+02 -.418813583652406D+02 -.153955654887192D+03
 0.278723733396548D+03 -.258992534872184D+03 -.477204706528372D+02 0.415833808895616D+01
 0.000000000000000D+00 0.000000000000000D+00 -.000000000000000D+00 -.000000000000000D+00
 0.472455908708504D+03 0.000000000000000D+00 0.000000000000000D+00 0.472455908708504D+03
 0.527052559600041D+03 0.000000000000000D+00 0.000000000000000D+00 -.527052559600041D+03
 0.399608127764399D+03 0.334557323976660D+03 0.121008518354340D+03 0.163241463116027D+03
 0.246272778708995D+02 0.145399562407064D+02 0.146406085131269D+02 -.134441463177918D+02
 0.184316859206645D+03 -.990155207395543D+02 -.215936927998237D+02 -.153955654887192D+03
 0.279009256421802D+03 -.263093081203135D+03 -.171945535686569D+02 0.415833808895616D+01
 0.111946947044799D+03 0.130113217253232D+02 -.968608804989860D+02 -.545966508915371D+02
0.704622365272D-04 0.000000000000D+00 0.000000000000D+00 0.648916576673D-05 0.000000000000D+00  7 -2 1 -24 -11 11 23 21 0 0.35148391D-01 0.13101076D+00 0.14481601D+06 0.14481601D+06 0.14481601D+06 0.11087593D+01  1  2  2  1  7  1       -2 0.116302772756D-02 0.100000000000D+01
-.381084797873D-05 0.000000000000D+00 -.270593541397D-06 0.648916576673D-05 0.000000000000D+00  7 -2 1 -24 -11 11 23 21 2 0.35148391D-01 0.13101076D+00 0.14481601D+06 0.14481601D+06 0.14481601D+06 0.11087593D+01  1  2  3  1  7  1       -2 -.773267620169D-04 0.100000000000D+01
0.449145128264D-05 0.000000000000D+00 0.000000000000D+00 0.648916576673D-05 0.000000000000D+00  7 -2 1 -24 -11 11 23 21 2 0.35148391D-01 0.13101076D+00 0.14481601D+06 0.14481601D+06 0.14481601D+06 0.11087593D+01  1  2 15  1  7  1       -2 0.911370346920D-04 0.100000000000D+01
-.190901415262D-04 0.000000000000D+00 0.000000000000D+00 0.648916576673D-05 0.000000000000D+00  7 -2 1 -24 -11 11 23 21 2 0.35148391D-01 0.13101076D+00 0.14481601D+06 0.14481601D+06 0.14481601D+06 0.11087593D+01  1  2  4  1  7  1       -2 -.387362298078D-03 0.100000000000D+01
  </mgrwgt>
  </event>
  <event>
  8     66 0.26562228E-05 0.19551689E+03 0.75467711E-02 0.98064035E-01
       -2 -1    0    0    0  501 0.00000000E+00 0.00000000E+00 0.40461198E+02 0.40462463E+02 0.32000000E+00 0.0000E+00 0.9000E+01
        1 -1    0    0  501    0 0.00000000E+00 0.00000000E+00 -.29658714E+04 0.29658714E+04 0.32000000E+00 0.0000E+00 0.9000E+01
       25  2    1    2    0    0 0.82093667E+02 -.80135295E+01 -.59750679E+03 0.67558184E+03 0.30429076E+03 0.0000E+00 0.0000E+00
       23  2    3    3    0    0 0.84913845E+02 0.89965465E+02 -.45395795E+03 0.47929287E+03 0.91321903E+02 0.0000E+00 0.0000E+00
      -24  1    1    2    0    0 -.82093667E+02 0.80135295E+01 -.23279034E+04 0.23307520E+04 0.80419002E+02 0.0000E+00 0.9000E+01
      -13  1    4    4    0    0 -.19313698E+01 0.43348902E+02 -.23775176E+03 0.24167906E+03 0.10565837E+00 0.0000E+00 0.9000E+01
       13  1    4    4    0    0 0.86845215E+02 0.46616563E+02 -.21620618E+03 0.23761380E+03 0.10565837E+00 0.0000E+00 0.9000E+01
       23  1    3    3    0    0 -.28201781E+01 -.97978994E+02 -.14354885E+03 0.19628897E+03 0.91188000E+02 0.0000E+00 0.9000E+01
#aMCatNLO 1  0  0  1  1 0.29300252D+03 0.00000000D+00  -5  7  0 0.00000000D+00 0.00000000D+00 0.00000000D+00 0.00000000D+00 0.00000000D+00
  <mgrwgt>
 0.9974736936D-03    5    2    0
 0.346416851082742D+03 0.000000000000000D+00 0.000000000000000D+00 0.346416851082742D+03
 0.346416851082742D+03 0.000000000000000D+00 0.000000000000000D+00 -.346416851082742D+03
 0.284262233918432D+03 -.820936717984289D+02 0.801353000613754D+01 -.259873457793249D+03
 0.448108215423186D+02 -.193149297686879D+01 0.433488890050126D+02 -.111871749878567D+02
 0.118144837328612D+03 0.868453314242081D+02 0.466165590549554D+02 0.651382178072089D+02
 0.245615809376122D+03 -.282016664891035D+01 -.979789780661056D+02 0.205922414973897D+03
 0.000000000000000D+00 -.000000000000000D+00 -.000000000000000D+00 0.000000000000000D+00
 0.567827937608473D+03 0.000000000000000D+00 0.000000000000000D+00 0.567827937608473D+03
 0.488076883744099D+03 0.000000000000000D+00 0.000000000000000D+00 -.488076883744099D+03
 0.291944246114511D+03 -.164832153994633D+02 0.104681977578163D+03 -.259873457793249D+03
 0.633631583913252D+02 0.103858697045317D+02 0.614969159193836D+02 -.111871749878567D+02
 0.165212986565350D+03 0.119110217006261D+03 0.941546584905096D+02 0.651382178072089D+02
 0.231722267497479D+03 0.515325179625000D+02 -.178973884669238D+02 0.205922414973897D+03
 0.303662162783907D+03 -.164545389273830D+03 -.242436163521133D+03 0.797510538643743D+02
0.736003114960D-04 0.000000000000D+00 0.000000000000D+00 0.106641007852D-06 0.000000000000D+00  7 -2 1 -24 -13 13 23 21 0 0.62248983D-02 0.45628800D+00 0.38226856D+05 0.38226856D+05 0.38226856D+05 0.11576950D+01  1  2  2  1  7  1       -2 0.732258757922D-03 0.100000000000D+01
-.246232901254D-05 0.000000000000D+00 -.282644575552D-06 0.106641007852D-06 0.000000000000D+00  7 -2 1 -24 -13 13 23 21 2 0.62248983D-02 0.45628800D+00 0.38226856D+05 0.38226856D+05 0.38226856D+05 0.11576950D+01  1  2  3  1  7  1       -2 -.328336642232D-04 0.100000000000D+01
0.450368436622D-05 0.000000000000D+00 0.000000000000D+00 0.106641007852D-06 0.000000000000D+00  7 -2 1 -24 -13 13 23 21 2 0.62248983D-02 0.45628800D+00 0.38226856D+05 0.38226856D+05 0.38226856D+05 0.11576950D+01  1  2 15  1  7  1       -2 0.600538999844D-04 0.100000000000D+01
0.307810316711D-04 0.000000000000D+00 -.236021907330D-04 0.106641007852D-06 0.000000000000D+00  7 -2 1 -24 -13 13 23 21 2 0.18790218D-01 0.45628800D+00 0.38226856D+05 0.38226856D+05 0.38226856D+05 0.11576950D+01  1  2  5  1  7  1       -2 0.749130842342D-04 0.100000000000D+01
0.503989783217D-05 0.000000000000D+00 -.297030651158D-05 0.106641007852D-06 0.000000000000D+00  7 21 1 -24 -13 13 23 2 2 0.18790218D-01 0.45628800D+00 0.38226856D+05 0.38226856D+05 0.38226856D+05 0.11576950D+01  1  2  5  3  7  1       -2 0.163081615678D-03 0.100000000000D+01
  </mgrwgt>
  </event>
  <event>
  8     66 0.26562228E-05 0.37888135E+03 0.75467711E-02 0.86546481E-01
       -2 -1    0    0    0  501 0.00000000E+00 0.00000000E+00 0.26335352E+03 0.26335372E+03 0.32000000E+00 0.0000E+00 0.9000E+01
        1 -1    0    0  501    0 0.00000000E+00 0.00000000E+00 -.69688264E+03 0.69688272E+03 0.32000000E+00 0.0000E+00 0.9000E+01
       25  2    1    2    0    0 0.10410924E+03 -.34409546E+03 -.14053705E+03 0.48954335E+03 0.30110065E+03 0.0000E+00 0.0000E+00
       23  2    3    3    0    0 0.18586907E+02 -.14614195E+03 -.18262875E+03 0.25166391E+03 0.90986383E+02 0.0000E+00 0.0000E+00
      -24  1    1    2    0    0 -.10410924E+03 0.34409546E+03 -.29299207E+03 0.47069309E+03 0.80419002E+02 0.0000E+00 0.9000E+01
      -11  1    4    4    0    0 0.32796902E+01 0.35187565E+01 0.76870899E+01 0.90680409E+01 0.51099893E-03 0.0000E+00 0.9000E+01
       11  1    4    4    0    0 0.15307217E+02 -.14966071E+03 -.19031584E+03 0.24259587E+03 0.51099893E-03 0.0000E+00 0.9000E+01
       23  1    3    3    0    0 0.85522335E+02 -.19795351E+03 0.42091698E+02 0.23787943E+03 0.91188000E+02 0.0000E+00 0.9000E+01
#aMCatNLO 1  0  0  1  2 0.96091048D+03 0.00000000D+00  -5  7  0 0.00000000D+00 0.00000000D+00 0.00000000D+00 0.00000000D+00 0.00000000D+00
  <mgrwgt>
 0.1675187215D-02    3    2    0
 0.428400080717192D+03 0.000000000000000D+00 0.000000000000000D+00 0.428400080717192D+03
 0.428400080717192D+03 0.000000000000000D+00 0.000000000000000D+00 -.428400080717192D+03
 0.379267043647221D+03 -.104109242435540D+03 0.344095459185920D+03 -.901989747705694D+02
 0.140523322758293D+02 0.327969016836965D+01 0.351875645783430D+01 0.132034097028102D+02
 0.175585794209128D+03 0.153072169445956D+02 -.149660705980643D+03 -.905413348854367D+02
 0.287894991302206D+03 0.855223353225749D+02 -.197953509663111D+03 0.167536899953196D+03
 0.000000000000000D+00 -.000000000000000D+00 -.000000000000000D+00 -.000000000000000D+00
 0.944660137923924D+03 0.000000000000000D+00 0.000000000000000D+00 0.944660137923924D+03
 0.141074177884890D+04 0.000000000000000D+00 0.000000000000000D+00 -.141074177884890D+04
 0.642062508170449D+03 0.303170276642936D+03 0.552927641517713D+03 -.901989747705694D+02
 0.261885399073792D+02 0.193266977585323D+02 0.117468441911210D+02 0.132034097028102D+02
 0.202527624786866D+03 0.166088961359741D+03 -.723475113145931D+02 -.905413348854367D+02
 0.416643352008505D+03 0.366473804048077D+03 -.538959138477807D+02 0.167536899953196D+03
 0.106797989189963D+04 -.855059739809286D+03 -.438431060546460D+03 -.466081640924975D+03
0.955359900197D-04 0.000000000000D+00 0.000000000000D+00 0.196546763863D-05 0.000000000000D+00  7 -2 1 -24 -11 11 23 21 0 0.40515947D-01 0.10721274D+00 0.14355108D+06 0.14355108D+06 0.14355108D+06 0.11090611D+01  1  2  2  1  7  1       -2 0.165951451274D-02 0.100000000000D+01
-.521018699559D-05 0.000000000000D+00 -.366883356880D-06 0.196546763863D-05 0.000000000000D+00  7 -2 1 -24 -11 11 23 21 2 0.40515947D-01 0.10721274D+00 0.14355108D+06 0.14355108D+06 0.14355108D+06 0.11090611D+01  1  2  3  1  7  1       -2 -.111321311398D-03 0.100000000000D+01
0.594371869430D-05 0.000000000000D+00 0.000000000000D+00 0.196546763863D-05 0.000000000000D+00  7 -2 1 -24 -11 11 23 21 2 0.40515947D-01 0.10721274D+00 0.14355108D+06 0.14355108D+06 0.14355108D+06 0.11090611D+01  1  2 15  1  7  1       -2 0.126994013880D-03 0.100000000000D+01
  </mgrwgt>
  </event>
  <event>
  8     66 0.26562228E-05 0.41121274E+03 0.75467711E-02 0.86230045E-01
       -2 -1    0    0    0  501 0.00000000E+00 0.00000000E+00 0.16899924E+04 0.16899924E+04 0.32000000E+00 0.0000E+00 0.9000E+01
        1 -1    0    0  501    0 0.00000000E+00 0.00000000E+00 -.11909668E+03 0.11909711E+03 0.32000000E+00 0.0000E+00 0.9000E+01
       25  2    1    2    0    0 -.33787809E+03 -.16723702E+03 0.11022972E+04 0.12023098E+04 0.29725407E+03 0.0000E+00 0.0000E+00
       23  2    3    3    0    0 0.43232889E+00 -.25457893E+02 0.33329558E+03 0.34543527E+03 0.87128030E+02 0.0000E+00 0.0000E+00
      -24  1    1    2    0    0 0.33787809E+03 0.16723702E+03 0.46859851E+03 0.60677970E+03 0.80419002E+02 0.0000E+00 0.9000E+01
      -13  1    4    4    0    0 -.21628534E+02 -.29452210E+02 0.31320942E+03 0.31533376E+03 0.10565837E+00 0.0000E+00 0.9000E+01
       13  1    4    4    0    0 0.22060863E+02 0.39943167E+01 0.20086154E+02 0.30101511E+02 0.10565837E+00 0.0000E+00 0.9000E+01
       23  1    3    3    0    0 -.33831042E+03 -.14177913E+03 0.76900164E+03 0.85687457E+03 0.91188000E+02 0.0000E+00 0.9000E+01
#aMCatNLO 1  0  0  2  2 0.98145513D+03 0.00000000D+00  -5  7  0 0.00000000D+00 0.00000000D+00 0.00000000D+00 0.00000000D+00 0.00000000D+00
  <mgrwgt>
 0.8489938436D-03    5    2    0
 0.448634485667361D+03 0.000000000000000D+00 0.000000000000000D+00 0.448634485667361D+03
 0.448634485667361D+03 0.000000000000000D+00 0.000000000000000D+00 -.448634485667361D+03
 0.403000027298364D+03 0.337878093810603D+03 0.167237021377804D+03 -.117524373862210D+03
 0.874294646108145D+02 -.216285980872764D+02 -.294522587374386D+02 0.794271961117582D+02
 0.255252271489784D+02 0.220609270663411D+02 0.399436586397466D+01 -.122023669558508D+02
 0.381314252276564D+03 -.338310422789668D+03 -.141779128504340D+03 0.502995447063027D+02
 0.000000000000000D+00 0.000000000000000D+00 0.000000000000000D+00 -.000000000000000D+00
 0.780758468895115D+03 0.000000000000000D+00 0.000000000000000D+00 0.780758468895115D+03
 0.274333555418065D+04 0.000000000000000D+00 0.000000000000000D+00 -.274333555418065D+04
 0.246333153271695D+03 0.186291917256045D+03 -.754728398814308D+02 -.117524373862210D+03
 0.169430761499816D+03 -.815923589886781D+02 -.125462306749455D+03 0.794271961117582D+02
 0.213409634484086D+02 0.111200621068481D+02 -.135234307895931D+02 -.122023669558508D+02
 0.892686752386219D+03 -.635724673288855D+03 -.617979354117897D+03 0.502995447063027D+02
 0.219430239246962D+04 0.519905052914640D+03 0.832437931538376D+03 -.196257708528553D+04
0.475378462649D-03 0.000000000000D+00 0.000000000000D+00 0.222703886835D-07 0.000000000000D+00  7 -2 1 -24 -13 13 23 21 0 0.25999887D+00 0.18322602D-01 0.16909592D+06 0.16909592D+06 0.16909592D+06 0.11034683D+01  1  2  2  2  7  2        1 0.818335134929D-03 0.100000000000D+01
-.261663226852D-04 0.000000000000D+00 -.182557846660D-05 0.222703886835D-07 0.000000000000D+00  7 -2 1 -24 -13 13 23 21 2 0.25999887D+00 0.18322602D-01 0.16909592D+06 0.16909592D+06 0.16909592D+06 0.11034683D+01  1  2  3  2  7  2        1 -.548471586228D-04 0.100000000000D+01
0.301548485137D-04 0.000000000000D+00 0.000000000000D+00 0.222703886835D-07 0.000000000000D+00  7 -2 1 -24 -13 13 23 21 2 0.25999887D+00 0.18322602D-01 0.16909592D+06 0.16909592D+06 0.16909592D+06 0.11034683D+01  1  2 15  2  7  2        1 0.632074968873D-04 0.100000000000D+01
0.280504394052D-03 0.000000000000D+00 -.379101154740D-03 0.222703886835D-07 0.000000000000D+00  7 -2 1 -24 -13 13 23 21 2 0.25999887D+00 0.18735335D+00 0.16909592D+06 0.16909592D+06 0.16909592D+06 0.11034683D+01  1  2  5  2  7  2        1 0.210727412374D-04 0.100000000000D+01
0.154782246091D-04 0.000000000000D+00 -.104625712869D-03 0.222703886835D-07 0.000000000000D+00  7 -2 21 -24 -13 13 23 -1 2 0.25999887D+00 0.18735335D+00 0.16909592D+06 0.16909592D+06 0.16909592D+06 0.11034683D+01  1  2  5  4  7  2        1 0.122562915426D-05 0.100000000000D+01
  </mgrwgt>
  </event>
  <event>
  8     66 0.26562228E-05 0.46499270E+03 0.75467711E-02 0.90764441E-01
       -2 -1    0    0    0  501 0.00000000E+00 0.00000000E+00 0.21535784E+03 0.21535808E+03 0.32000000E+00 0.0000E+00 0.9000E+01
        1 -1    0    0  501    0 0.00000000E+00 0.00000000E+00 -.10938786E+04 0.10938786E+04 0.32000000E+00 0.0000E+00 0.9000E+01
       25  2    1    2    0    0 0.58290060E+02 -.42179162E+03 -.59790014E+03 0.79297995E+03 0.30004454E+03 0.0000E+00 0.0000E+00
       23  2    3    3    0    0 -.68955488E+02 -.21994565E+03 -.39723088E+03 0.46814672E+03 0.90763604E+02 0.0000E+00 0.0000E+00
      -24  1    1    2    0    0 -.58290060E+02 0.42179162E+03 -.28062060E+03 0.51625676E+03 0.80419002E+02 0.0000E+00 0.9000E+01
      -13  1    4    4    0    0 -.17910172E+02 -.16595528E+03 -.22148613E+03 0.27734103E+03 0.10565837E+00 0.0000E+00 0.9000E+01
       13  1    4    4    0    0 -.51045315E+02 -.53990376E+02 -.17574475E+03 0.19080570E+03 0.10565837E+00 0.0000E+00 0.9000E+01
       23  1    3    3    0    0 0.12724555E+03 -.20184597E+03 -.20066926E+03 0.32483323E+03 0.91188000E+02 0.0000E+00 0.9000E+01
#aMCatNLO 1  0  0  1  1 0.40621947D+03 0.00000000D+00  -5  7  0 0.00000000D+00 0.00000000D+00 0.00000000D+00 0.00000000D+00 0.00000000D+00
  <mgrwgt>
 0.1066456206D-02    3    2    0
 0.485361226603554D+03 0.000000000000000D+00 0.000000000000000D+00 0.485361226603554D+03
 0.485361226603554D+03 0.000000000000000D+00 0.000000000000000D+00 -.485361226603554D+03
 0.442321370938009D+03 -.582900597182200D+02 0.421791623712746D+03 0.887416155922400D+02
 0.173607804967018D+03 -.179101275819444D+02 -.165955428615874D+03 -.477251819104563D+02
 0.982920647428049D+02 -.510453603611385D+02 -.539902240325555D+02 -.643487131644427D+02
 0.256501212559275D+03 0.127245547661303D+03 -.201845971064316D+03 0.233322794826590D+02
 0.000000000000000D+00 0.000000000000000D+00 0.000000000000000D+00 -.000000000000000D+00
 0.715110042884898D+03 0.000000000000000D+00 0.000000000000000D+00 0.715110042884898D+03
 0.744459285521544D+03 0.000000000000000D+00 0.000000000000000D+00 -.744459285521544D+03
 0.480315403181507D+03 -.241926255117393D+03 0.397281113729304D+03 0.887416155922400D+02
 0.204812745209863D+03 -.932287275387487D+02 -.176008442904083D+03 -.477251819104563D+02
 0.130713767252374D+03 -.966253338582380D+02 -.600739287892198D+02 -.643487131644427D+02
 0.236449081350447D+03 0.291316213213593D+02 -.214941550428953D+03 0.233322794826590D+02
 0.407278331412252D+03 0.402648695193020D+03 0.537428083929514D+02 -.293492426366460D+02
0.895753276942D-04 0.000000000000D+00 0.000000000000D+00 0.829600750716D-05 0.000000000000D+00  7 -2 1 -24 -13 13 23 21 0 0.33131998D-01 0.16828904D+00 0.21621821D+06 0.21621821D+06 0.21621821D+06 0.10952341D+01  1  2  2  1  7  1       -2 0.105695401083D-02 0.100000000000D+01
-.496528622413D-05 0.000000000000D+00 -.343992844071D-06 0.829600750716D-05 0.000000000000D+00  7 -2 1 -24 -13 13 23 21 2 0.33131998D-01 0.16828904D+00 0.21621821D+06 0.21621821D+06 0.21621821D+06 0.10952341D+01  1  2  3  1  7  1       -2 -.702790514713D-04 0.100000000000D+01
0.563662596996D-05 0.000000000000D+00 0.000000000000D+00 0.829600750716D-05 0.000000000000D+00  7 -2 1 -24 -13 13 23 21 2 0.33131998D-01 0.16828904D+00 0.21621821D+06 0.21621821D+06 0.21621821D+06 0.10952341D+01  1  2 15  1  7  1       -2 0.797812469989D-04 0.100000000000D+01
  </mgrwgt>
  </event>
  <event>
  8     66 0.26562228E-05 0.14384893E+03 0.75467711E-02 0.99153976E-01
       -2 -1    0    0    0  501 0.00000000E+00 0.00000000E+00 0.64812973E+02 0.64813763E+02 0.32000000E+00 0.0000E+00 0.9000E+01
        1 -1    0    0  501    0 0.00000000E+00 0.00000000E+00 -.22390833E+04 0.22390833E+04 0.32000000E+00 0.0000E+00 0.9000E+01
       25  2    1    2    0    0 0.10428081E+03 -.19539310E+03 -.56580000E+03 0.67825968E+03 0.30141932E+03 0.0000E+00 0.0000E+00
       23  2    3    3    0    0 0.13718227E+02 -.10970094E+03 -.60123501E+02 0.14951712E+03 0.80734426E+02 0.0000E+00 0.0000E+00
      -24  1    1    2    0    0 -.10428081E+03 0.19539310E+03 -.16084703E+04 0.16256374E+04 0.80419002E+02 0.0000E+00 0.9000E+01
      -13  1    4    4    0    0 -.27164134E+02 -.80017101E+02 -.49355066E+02 0.97859902E+02 0.10565837E+00 0.0000E+00 0.9000E+01
       13  1    4    4    0    0 0.40882360E+02 -.29683835E+02 -.10768435E+02 0.51657215E+02 0.10565837E+00 0.0000E+00 0.9000E+01
       23  1    3    3    0    0 0.90562584E+02 -.85692165E+02 -.50567650E+03 0.52874257E+03 0.91188000E+02 0.0000E+00 0.9000E+01
#aMCatNLO 1  0  0  2  1 0.14889174D+03 0.00000000D+00  -5  7  0 0.00000000D+00 0.00000000D+00 0.00000000D+00 0.00000000D+00 0.00000000D+00
  <mgrwgt>
 0.1582648817D-02    7    2    0
 0.380949574756654D+03 0.000000000000000D+00 0.000000000000000D+00 0.380949574756654D+03
 0.380949574756654D+03 0.000000000000000D+00 0.000000000000000D+00 -.380949574756654D+03
 0.325570599351948D+03 -.104280811489704D+03 0.195393102109889D+03 -.224668749965231D+03
 0.155070291618841D+03 -.271642493585660D+02 -.800171873496778D+02 0.130023646419352D+03
 0.125475107541220D+03 0.408824766449984D+02 -.296837495161655D+02 0.114854258652057D+03
 0.155783151001298D+03 0.905625842032720D+02 -.856921652440458D+02 -.202091551061768D+02
 0.000000000000000D+00 -.000000000000000D+00 -.000000000000000D+00 -.000000000000000D+00
 0.398059267891130D+03 0.000000000000000D+00 0.000000000000000D+00 0.398059267891130D+03
 0.947764900098756D+03 0.000000000000000D+00 0.000000000000000D+00 -.947764900098756D+03
 0.364889418052593D+03 -.904972816060580D+02 0.260789697387309D+03 -.224668749965231D+03
 0.141607844240155D+03 -.212417167739732D+02 -.519174574748593D+02 0.130023646419352D+03
 0.123820137940288D+03 0.458591130603291D+02 -.607186778169110D+01 0.114854258652057D+03
 0.145993789888825D+03 0.965869033211120D+02 -.571095044527169D+02 -.202091551061768D+02
 0.569512977868024D+03 -.307070180014099D+02 -.145690867678041D+03 -.549705632207626D+03
0.102353769163D-03 0.000000000000D+00 0.000000000000D+00 0.112575398044D-07 0.000000000000D+00  7 -2 1 -24 -13 13 23 21 0 0.99712891D-02 0.34447441D+00 0.68937381D+05 0.68937381D+05 0.68937381D+05 0.11352248D+01  1  2  2  2  7  2        1 0.155038352795D-02 0.100000000000D+01
-.472859190518D-05 0.000000000000D+00 -.393065423952D-06 0.112575398044D-07 0.000000000000D+00  7 -2 1 -24 -13 13 23 21 2 0.99712891D-02 0.34447441D+00 0.68937381D+05 0.68937381D+05 0.68937381D+05 0.11352248D+01  1  2  3  2  7  2        1 -.923062010804D-04 0.100000000000D+01
0.641884190841D-05 0.000000000000D+00 0.000000000000D+00 0.112575398044D-07 0.000000000000D+00  7 -2 1 -24 -13 13 23 21 2 0.99712891D-02 0.34447441D+00 0.68937381D+05 0.68937381D+05 0.68937381D+05 0.11352248D+01  1  2 15  2  7  2        1 0.125301342087D-03 0.100000000000D+01
0.131681567886D-03 0.000000000000D+00 0.000000000000D+00 0.112575398044D-07 0.000000000000D+00  7 -2 1 -24 -13 13 23 21 2 0.99712891D-02 0.85210428D+00 0.11674354D+06 0.11674354D+06 0.11674354D+06 0.11162462D+01  1  2 12  2  7  2        1 0.103969877147D-05 0.100000000000D+01
-.247051212316D-03 0.000000000000D+00 -.230203981308D-04 0.112575398044D-07 0.000000000000D+00  7 -2 1 -24 -13 13 23 21 2 0.99712891D-02 0.85866570D+00 0.68937381D+05 0.68937381D+05 0.68937381D+05 0.11352248D+01  1  2  5  2  7  2        1 -.176821012222D-05 0.100000000000D+01
0.131062403559D-04 0.000000000000D+00 0.000000000000D+00 0.112575398044D-07 0.000000000000D+00  7 -2 21 -24 -13 13 23 -1 2 0.99712891D-02 0.85210428D+00 0.11674354D+06 0.11674354D+06 0.11674354D+06 0.11162462D+01  1  2 12  4  7  2        1 0.241189559087D-08 0.100000000000D+01
-.234020074340D-04 0.000000000000D+00 -.231338509726D-05 0.112575398044D-07 0.000000000000D+00  7 -2 21 -24 -13 13 23 -1 2 0.99712891D-02 0.85866570D+00 0.68937381D+05 0.68937381D+05 0.68937381D+05 0.11352248D+01  1  2  5  4  7  2        1 -.375244866174D-08 0.100000000000D+01
  </mgrwgt>
  </event>
  <event>
  8     66 0.26562228E-05 0.97890950E+02 0.75467711E-02 0.10663213E+00
       -2 -1    0    0    0  501 0.00000000E+00 0.00000000E+00 0.10336445E+02 0.10341397E+02 0.32000000E+00 0.0000E+00 0.9000E+01
        1 -1    0    0  501    0 0.00000000E+00 0.00000000E+00 -.48212751E+04 0.48212751E+04 0.32000000E+00 0.0000E+00 0.9000E+01
       25  2    1    2    0    0 0.93782895E+02 0.26032300E+02 -.30822029E+04 0.30982766E+04 0.29978308E+03 0.0000E+00 0.0000E+00
       23  2    3    3    0    0 -.44335774E+02 -.78060742E+01 -.20425301E+04 0.20449691E+04 0.89122244E+02 0.0000E+00 0.0000E+00
      -24  1    1    2    0    0 -.93782895E+02 -.26032300E+02 -.17287357E+04 0.17333399E+04 0.80419002E+02 0.0000E+00 0.9000E+01
      -11  1    4    4    0    0 0.42454910E+01 0.15287618E+02 -.72988800E+02 0.74693376E+02 0.51099893E-03 0.0000E+00 0.9000E+01
       11  1    4    4    0    0 -.48581265E+02 -.23093692E+02 -.19695413E+04 0.19702758E+04 0.51099893E-03 0.0000E+00 0.9000E+01
       23  1    3    3    0    0 0.13811867E+03 0.33838374E+02 -.10396728E+04 0.10533074E+04 0.91188000E+02 0.0000E+00 0.9000E+01
#aMCatNLO 1  0  0  2  1 0.26446647D+02 0.00000000D+00  -5  7  0 0.00000000D+00 0.00000000D+00 0.00000000D+00 0.00000000D+00 0.00000000D+00
  <mgrwgt>
 0.2575606567D-03    9    2    0
 0.223264041240495D+03 0.000000000000000D+00 0.000000000000000D+00 0.223264041240495D+03
 0.223264041240495D+03 0.000000000000000D+00 0.000000000000000D+00 -.223264041240495D+03
 0.129873858758664D+03 -.937828952846717D+02 -.260323002854950D+02 -.304481711825999D+02
 0.218241770251679D+02 0.424549104803472D+01 0.152876179212003D+02 0.149853010274174D+02
 0.991523138712340D+02 -.485812651102632D+02 -.230936920973826D+02 -.832929973744331D+02
 0.195677732825925D+03 0.138118669346900D+03 0.338383744616773D+02 0.987558675296156D+02
 0.000000000000000D+00 -.000000000000000D+00 -.000000000000000D+00 -.000000000000000D+00
 0.230071973287405D+03 0.000000000000000D+00 0.000000000000000D+00 0.230071973287405D+03
 0.250905546164222D+03 0.000000000000000D+00 0.000000000000000D+00 -.250905546164222D+03
 0.128345813717281D+03 -.934872095454347D+02 -.183978930158736D+02 -.304481711825999D+02
 0.227769190119627D+02 0.429656348541359D+01 0.166062739653120D+02 0.149853010274174D+02
 0.978479586984744D+02 -.483556813246974D+02 -.172692702065072D+02 -.832929973744331D+02
 0.198339887031087D+03 0.138569856470184D+03 0.454877230668866D+02 0.987558675296156D+02
 0.336669409928222D+02 -.102352908546597D+01 -.264268338098178D+02 -.208335728768170D+02
0.743165532283D-04 0.000000000000D+00 0.000000000000D+00 0.360848869614D-06 0.000000000000D+00  7 -2 1 -24 -11 11 23 21 0 0.15906040D-02 0.74173501D+00 0.33277130D+05 0.33277130D+05 0.33277130D+05 0.11631814D+01  1  2  2  2  7  2        1 0.109841912344D-03 0.100000000000D+01
-.392377987852D-05 0.000000000000D+00 -.285395132395D-06 0.360848869614D-06 0.000000000000D+00  7 -2 1 -24 -11 11 23 21 2 0.15906040D-02 0.74173501D+00 0.33277130D+05 0.33277130D+05 0.33277130D+05 0.11631814D+01  1  2  3  2  7  2        1 -.784660948624D-05 0.100000000000D+01
0.478975723121D-05 0.000000000000D+00 0.000000000000D+00 0.360848869614D-06 0.000000000000D+00  7 -2 1 -24 -11 11 23 21 2 0.15906040D-02 0.74173501D+00 0.33277130D+05 0.33277130D+05 0.33277130D+05 0.11631814D+01  1  2 15  2  7  2        1 0.957835446706D-05 0.100000000000D+01
0.654326159861D-04 0.000000000000D+00 0.000000000000D+00 0.360848869614D-06 0.000000000000D+00  7 -2 1 -24 -11 11 23 21 2 0.15906040D-02 0.84391917D+00 0.38344338D+05 0.38344338D+05 0.38344338D+05 0.11575745D+01  1  2 12  2  7  2        1 0.119297621145D-04 0.100000000000D+01
-.793943684705D-04 0.000000000000D+00 0.000000000000D+00 0.360848869614D-06 0.000000000000D+00  7 -2 1 -24 -11 11 23 21 2 0.15906040D-02 0.74173501D+00 0.33277130D+05 0.33277130D+05 0.33277130D+05 0.11631814D+01  1  2  4  2  7  2        1 -.158769509015D-03 0.100000000000D+01
-.136710174401D-03 0.000000000000D+00 -.244304264552D-04 0.360848869614D-06 0.000000000000D+00  7 -2 1 -24 -11 11 23 21 2 0.15906040D-02 0.83561571D+00 0.33277130D+05 0.33277130D+05 0.33277130D+05 0.11631814D+01  1  2  5  2  7  2        1 -.320983548943D-04 0.100000000000D+01
0.162486992321D-03 0.000000000000D+00 0.312292142068D-04 0.360848869614D-06 0.000000000000D+00  7 -2 1 -24 -11 11 23 21 2 0.15906040D-02 0.74173501D+00 0.33277130D+05 0.33277130D+05 0.33277130D+05 0.11631814D+01  1  2  6  2  7  2        1 0.324934633138D-03 0.100000000000D+01
0.131942348970D-05 0.000000000000D+00 0.000000000000D+00 0.360848869614D-06 0.000000000000D+00  7 -2 21 -24 -11 11 23 -1 2 0.15906040D-02 0.84391917D+00 0.38344338D+05 0.38344338D+05 0.38344338D+05 0.11575745D+01  1  2 12  4  7  2        1 0.612719390116D-08 0.100000000000D+01
-.246735986151D-05 0.000000000000D+00 -.460860478510D-06 0.360848869614D-06 0.000000000000D+00  7 -2 21 -24 -11 11 23 -1 2 0.15906040D-02 0.83561571D+00 0.33277130D+05 0.33277130D+05 0.33277130D+05 0.11631814D+01  1  2  5  4  7  2        1 -.156591565480D-07 0.100000000000D+01
  </mgrwgt>
  </event>
  <event>
  8     66 0.26562228E-05 0.20525908E+03 0.75467711E-02 0.87922442E-01
       -2 -1    0    0    0  501 0.00000000E+00 0.00000000E+00 0.10231006E+03 0.10231056E+03 0.32000000E+00 0.0000E+00 0.9000E+01
        1 -1    0    0  501    0 0.00000000E+00 0.00000000E+00 -.74834586E+03 0.74834593E+03 0.32000000E+00 0.0000E+00 0.9000E+01
       25  2    1    2    0    0 -.10591271E+03 -.69871867E+02 -.61727567E+03 0.69770570E+03 0.29944016E+03 0.0000E+00 0.0000E+00
       23  2    3    3    0    0 -.36920164E+02 0.67951901E+02 -.11718397E+03 0.16651616E+03 0.89526481E+02 0.0000E+00 0.0000E+00
      -24  1    1    2    0    0 0.10591271E+03 0.69871867E+02 -.28760129E+02 0.15295078E+03 0.80419002E+02 0.0000E+00 0.9000E+01
      -13  1    4    4    0    0 -.14275919E+02 0.50906304E+02 -.77061151E+01 0.53428916E+02 0.10565837E+00 0.0000E+00 0.9000E+01
       13  1    4    4    0    0 -.22644244E+02 0.17045597E+02 -.10947785E+03 0.11308724E+03 0.10565837E+00 0.0000E+00 0.9000E+01
       23  1    3    3    0    0 -.68992545E+02 -.13782377E+03 -.50009171E+03 0.53118954E+03 0.91188000E+02 0.0000E+00 0.9000E+01
#aMCatNLO 1  0  0  1  1 0.91590976D+03 0.00000000D+00  -5  7  0 0.00000000D+00 0.00000000D+00 0.00000000D+00 0.00000000D+00 0.00000000D+00
  <mgrwgt>
 0.1584644689D-02    3    2    0
 0.276701189565756D+03 0.000000000000000D+00 0.000000000000000D+00 0.276701189565756D+03
 0.276701189565756D+03 0.000000000000000D+00 0.000000000000000D+00 -.276701189565756D+03
 0.201532380354462D+03 0.105912709414632D+03 0.698718673709870D+02 0.134344722678295D+03
 0.731316842612851D+02 -.142759077526948D+02 0.509063512520262D+02 0.505270729701828D+02
 0.460275688775289D+02 -.226442558159571D+02 0.170455495450154D+02 -.362660173719915D+02
 0.232710745638237D+03 -.689925458459797D+02 -.137823768168029D+03 -.148605778276486D+03
 0.000000000000000D+00 0.000000000000000D+00 0.000000000000000D+00 -.000000000000000D+00
 0.731350635926421D+03 0.000000000000000D+00 0.000000000000000D+00 0.731350635926421D+03
 0.160347137832198D+04 0.000000000000000D+00 0.000000000000000D+00 -.160347137832198D+04
 0.186101919518378D+03 -.415656887867448D+02 -.915996588324976D+02 0.134344722678295D+03
 0.951386191025435D+02 -.782956160527545D+02 -.191877108776510D+02 0.505270729701828D+02
 0.934473427155013D+02 -.757085397499803D+02 -.410536095062104D+02 -.362660173719915D+02
 0.695426545295663D+03 -.422109390827961D+03 -.524445243467369D+03 -.148605778276486D+03
 0.126470758761631D+04 0.617679235417440D+03 0.676286222683728D+03 -.872120742395556D+03
0.194596243077D-04 0.000000000000D+00 0.000000000000D+00 0.606925207417D-06 0.000000000000D+00  7 -2 1 -24 -13 13 23 21 0 0.15740052D-01 0.11513018D+00 0.42131292D+05 0.42131292D+05 0.42131292D+05 0.11538945D+01  1  2  2  1  7  1       -2 0.155567498259D-02 0.100000000000D+01
-.963840297718D-06 0.000000000000D+00 -.747300811781D-07 0.606925207417D-06 0.000000000000D+00  7 -2 1 -24 -13 13 23 21 2 0.15740052D-01 0.11513018D+00 0.42131292D+05 0.42131292D+05 0.42131292D+05 0.11538945D+01  1  2  3  1  7  1       -2 -.102593944661D-03 0.100000000000D+01
0.123600226867D-05 0.000000000000D+00 0.000000000000D+00 0.606925207417D-06 0.000000000000D+00  7 -2 1 -24 -13 13 23 21 2 0.15740052D-01 0.11513018D+00 0.42131292D+05 0.42131292D+05 0.42131292D+05 0.11538945D+01  1  2 15  1  7  1       -2 0.131563650797D-03 0.100000000000D+01
  </mgrwgt>
  </event>
  <event>
  8     66 0.26562228E-05 0.22496931E+03 0.75467711E-02 0.10041648E+00
       -2 -1    0    0    0  501 0.00000000E+00 0.00000000E+00 0.68400075E+02 0.68400823E+02 0.32000000E+00 0.0000E+00 0.9000E+01
        1 -1    0    0  501    0 0.00000000E+00 0.00000000E+00 -.27969761E+04 0.27969761E+04 0.32000000E+00 0.0000E+00 0.9000E+01
       25  2    1    2    0    0 -.14280277E+03 0.16266216E+03 -.48597208E+03 0.61091663E+03 0.30033092E+03 0.0000E+00 0.0000E+00
       23  2    3    3    0    0 -.14005722E+03 0.20469805E+03 -.39752284E+03 0.47707690E+03 0.89781122E+02 0.0000E+00 0.0000E+00
      -24  1    1    2    0    0 0.14280277E+03 -.16266216E+03 -.22426039E+04 0.22544603E+04 0.80419002E+02 0.0000E+00 0.9000E+01
      -11  1    4    4    0    0 -.97887673E+02 0.19525783E+03 -.35239199E+03 0.41459346E+03 0.51099893E-03 0.0000E+00 0.9000E+01
       11  1    4    4    0    0 -.42169542E+02 0.94402186E+01 -.45130845E+02 0.62483447E+02 0.51099893E-03 0.0000E+00 0.9000E+01
       23  1    3    3    0    0 -.27455501E+01 -.42035882E+02 -.88449237E+02 0.13383973E+03 0.91188000E+02 0.0000E+00 0.9000E+01
#aMCatNLO 1  0  0  2  1 0.26083435D+02 0.00000000D+00  -5  7  0 0.00000000D+00 0.00000000D+00 0.00000000D+00 0.00000000D+00 0.00000000D+00
  <mgrwgt>
 0.2263474927D-02    9    2    0
 0.437395095487185D+03 0.000000000000000D+00 0.000000000000000D+00 0.437395095487185D+03
 0.437395095487185D+03 0.000000000000000D+00 0.000000000000000D+00 -.437395095487185D+03
 0.389537080802733D+03 0.142802765577903D+03 -.162662164991800D+03 -.313720116647669D+03
 0.258848557323396D+03 -.978876731934522D+02 0.195257828538911D+03 0.138906297407442D+03
 0.638961058138813D+02 -.421695422375121D+02 0.944021861604948D+01 0.470672318937347D+02
 0.162508447034360D+03 -.274555014693890D+01 -.420358821631607D+02 0.127746587346493D+03
 0.000000000000000D+00 0.000000000000000D+00 0.000000000000000D+00 -.000000000000000D+00
 0.444328638599301D+03 0.000000000000000D+00 0.000000000000000D+00 0.444328638599301D+03
 0.462828016093681D+03 0.000000000000000D+00 0.000000000000000D+00 -.462828016093681D+03
 0.386334029326252D+03 0.131404984558597D+03 -.164618300030144D+03 -.313720116647669D+03
 0.260855442020505D+03 -.105522281960357D+03 0.193947544924258D+03 0.138906297407442D+03
 0.651161324237352D+02 -.440647709952866D+02 0.911495149848676D+01 0.470672318937347D+02
 0.162873362947472D+03 -.752550724216026D+01 -.428562384711041D+02 0.127746587346493D+03
 0.319776879750174D+02 0.257075756392069D+02 0.441204207850321D+01 -.184993774943792D+02
0.135544681044D-03 0.000000000000D+00 0.000000000000D+00 0.476565063282D-05 0.000000000000D+00  7 -2 1 -24 -11 11 23 21 0 0.10523147D-01 0.43030407D+00 0.87909502D+05 0.87909502D+05 0.87909502D+05 0.11263437D+01  1  2  2  2  7  2        1 0.777481081755D-03 0.100000000000D+01
-.614619712689D-05 0.000000000000D+00 -.520527264942D-06 0.476565063282D-05 0.000000000000D+00  7 -2 1 -24 -11 11 23 21 2 0.10523147D-01 0.43030407D+00 0.87909502D+05 0.87909502D+05 0.87909502D+05 0.11263437D+01  1  2  3  2  7  2        1 -.447255504048D-04 0.100000000000D+01
0.855504182067D-05 0.000000000000D+00 0.000000000000D+00 0.476565063282D-05 0.000000000000D+00  7 -2 1 -24 -11 11 23 21 2 0.10523147D-01 0.43030407D+00 0.87909502D+05 0.87909502D+05 0.87909502D+05 0.11263437D+01  1  2 15  2  7  2        1 0.622545854398D-04 0.100000000000D+01
0.397562044888D-03 0.000000000000D+00 0.000000000000D+00 0.476565063282D-05 0.000000000000D+00  7 -2 1 -24 -11 11 23 21 2 0.10523147D-01 0.45860348D+00 0.95597532D+05 0.95597532D+05 0.95597532D+05 0.11233302D+01  1  2 12  2  7  2        1 0.211184633348D-02 0.100000000000D+01
-.397529524067D-03 0.000000000000D+00 0.000000000000D+00 0.476565063282D-05 0.000000000000D+00  7 -2 1 -24 -11 11 23 21 2 0.10523147D-01 0.43030407D+00 0.87909502D+05 0.87909502D+05 0.87909502D+05 0.11263437D+01  1  2  4  2  7  2        1 -.289280125564D-02 0.100000000000D+01
-.118530499089D-02 0.000000000000D+00 -.184904461324D-03 0.476565063282D-05 0.000000000000D+00  7 -2 1 -24 -11 11 23 21 2 0.10523147D-01 0.45748351D+00 0.87909502D+05 0.87909502D+05 0.87909502D+05 0.11263437D+01  1  2  5  2  7  2        1 -.643507402333D-02 0.100000000000D+01
0.119473477208D-02 0.000000000000D+00 0.184558176502D-03 0.476565063282D-05 0.000000000000D+00  7 -2 1 -24 -11 11 23 21 2 0.10523147D-01 0.43030407D+00 0.87909502D+05 0.87909502D+05 0.87909502D+05 0.11263437D+01  1  2  6  2  7  2        1 0.869402154957D-02 0.100000000000D+01
0.514357958871D-05 0.000000000000D+00 0.000000000000D+00 0.476565063282D-05 0.000000000000D+00  7 -2 21 -24 -11 11 23 -1 2 0.10523147D-01 0.45860348D+00 0.95597532D+05 0.95597532D+05 0.95597532D+05 0.11233302D+01  1  2 12  4  7  2        1 0.655239847278D-05 0.100000000000D+01
-.122048304923D-04 0.000000000000D+00 -.194146189996D-05 0.476565063282D-05 0.000000000000D+00  7 -2 21 -24 -11 11 23 -1 2 0.10523147D-01 0.45748351D+00 0.87909502D+05 0.87909502D+05 0.87909502D+05 0.11263437D+01  1  2  5  4  7  2        1 -.160801918913D-04 0.100000000000D+01
  </mgrwgt>
  </event>
  <event>
  7     66 0.26562228E-05 0.31339226E+03 0.75467711E-02 0.88011013E-01
       -2 -1    0    0    0  501 0.00000000E+00 0.00000000E+00 0.23217742E+03 0.23217764E+03 0.32000000E+00 0.0000E+00 0.9000E+01
        1 -1    0    0  501    0 0.00000000E+00 0.00000000E+00 -.65260326E+03 0.65260334E+03 0.32000000E+00 0.0000E+00 0.9000E+01
       25  2    1    2    0    0 0.47076105E+02 0.28660822E+03 -.40667148E+03 0.58309102E+03 0.30042140E+03 0.0000E+00 0.0000E+00
      -24  1    1    2    0    0 -.47076105E+02 -.28660822E+03 -.13754369E+02 0.30168996E+03 0.80419002E+02 0.0000E+00 0.9000E+01
      -13  1    3    3    0    0 0.29420874E+02 0.86383610E+02 -.31726657E+03 0.33012998E+03 0.10565837E+00 0.0000E+00 0.9000E+01
       13  1    3    3    0    0 0.18153832E+01 0.90869410E+02 -.52732167E+02 0.10507729E+03 0.10565837E+00 0.0000E+00 0.9000E+01
       23  1    3    3    0    0 0.15839848E+02 0.10935520E+03 -.36672736E+02 0.14788375E+03 0.91188000E+02 0.0000E+00 0.9000E+01
#aMCatNLO 1  0  0  2  1 0.82626605D+03 0.00000000D+00  -5  7  0 0.00000000D+00 0.00000000D+00 0.00000000D+00 0.00000000D+00 0.00000000D+00
  <mgrwgt>
 0.1804566207D-02    3    2    0
 0.389255539703838D+03 0.000000000000000D+00 0.000000000000000D+00 0.389255539703838D+03
 0.389255539703838D+03 0.000000000000000D+00 0.000000000000000D+00 -.389255539703838D+03
 0.335443972653448D+03 -.470761054276719D+02 -.286608224898929D+03 0.147292255577827D+03
 0.203858090789543D+03 0.294208295660467D+02 0.863837519327877D+02 -.182292027719311D+03
 0.909428547951366D+02 0.181538755654774D+01 0.908689370721631D+02 -.318488330776447D+01
 0.148266161169548D+03 0.158398883050774D+02 0.109355535893978D+03 0.381846554492478D+02
 0.000000000000000D+00 -.000000000000000D+00 -.000000000000000D+00 0.000000000000000D+00
 0.163802428847272D+04 0.000000000000000D+00 0.000000000000000D+00 0.163802428847272D+04
 0.727079121418872D+03 0.000000000000000D+00 0.000000000000000D+00 -.727079121418872D+03
 0.318497503468845D+03 0.210274434838829D+03 -.170479022936910D+03 0.147292255577827D+03
 0.363444778434215D+03 0.252675822895400D+03 0.187127368723043D+03 -.182292027719311D+03
 0.174040236821131D+03 0.106096189859079D+03 0.137925556183245D+03 -.318488330776447D+01
 0.279268591312626D+03 0.184090876430835D+03 0.185278644351927D+03 0.381846554492478D+02
 0.122985229985478D+04 -.753137324024142D+03 -.339852546321305D+03 0.910945167053850D+03
0.732046984574D-04 0.000000000000D+00 0.000000000000D+00 0.349726298938D-08 0.000000000000D+00  7 -2 1 -24 -13 13 23 21 0 0.35719626D-01 0.10040053D+00 0.98214706D+05 0.98214706D+05 0.98214706D+05 0.11223646D+01  1  2  2  2  7  2        1 0.178242931389D-02 0.100000000000D+01
-.383455340803D-05 0.000000000000D+00 -.281125317316D-06 0.349726298938D-08 0.000000000000D+00  7 -2 1 -24 -13 13 23 21 2 0.35719626D-01 0.10040053D+00 0.98214706D+05 0.98214706D+05 0.98214706D+05 0.11223646D+01  1  2  3  2  7  2        1 -.117613204916D-03 0.100000000000D+01
0.455628443041D-05 0.000000000000D+00 0.000000000000D+00 0.349726298938D-08 0.000000000000D+00  7 -2 1 -24 -13 13 23 21 2 0.35719626D-01 0.10040053D+00 0.98214706D+05 0.98214706D+05 0.98214706D+05 0.11223646D+01  1  2 15  2  7  2        1 0.139750097950D-03 0.100000000000D+01
  </mgrwgt>
  </event>
  <event>
  8     66 0.26562228E-05 0.34762913E+03 0.75467711E-02 0.92684029E-01
       -2 -1    0    0    0  501 0.00000000E+00 0.00000000E+00 0.24370348E+03 0.24370369E+03 0.32000000E+00 0.0000E+00 0.9000E+01
        1 -1    0    0  501    0 0.00000000E+00 0.00000000E+00 -.60723693E+03 0.60723702E+03 0.32000000E+00 0.0000E+00 0.9000E+01
       25  2    1    2    0    0 -.29151212E+03 0.11609287E+02 -.61075651E+02 0.42308323E+03 0.30025837E+03 0.0000E+00 0.0000E+00
       23  2    3    3    0    0 -.44175061E+02 -.68944915E+02 0.40798514E+02 0.12921557E+03 0.91254088E+02 0.0000E+00 0.0000E+00
      -24  1    1    2    0    0 0.29151212E+03 -.11609287E+02 -.30245780E+03 0.42785749E+03 0.80419002E+02 0.0000E+00 0.9000E+01
      -13  1    4    4    0    0 -.13915209E+01 -.73906268E+02 0.65892195E+01 0.74212544E+02 0.10565837E+00 0.0000E+00 0.9000E+01
       13  1    4    4    0    0 -.42783540E+02 0.49613529E+01 0.34209295E+02 0.55003030E+02 0.10565837E+00 0.0000E+00 0.9000E+01
       23  1    3    3    0    0 -.24733706E+03 0.80554202E+02 -.10187417E+03 0.29386765E+03 0.91188000E+02 0.0000E+00 0.9000E+01
#aMCatNLO 1  0  0  1  2 0.39025831D+03 0.00000000D+00  -5  7  0 0.00000000D+00 0.00000000D+00 0.00000000D+00 0.00000000D+00 0.00000000D+00
  <mgrwgt>
 0.1554146524D-02    3    2    0
 0.384689330154008D+03 0.000000000000000D+00 0.000000000000000D+00 0.384689330154008D+03
 0.384689330154008D+03 0.000000000000000D+00 0.000000000000000D+00 -.384689330154008D+03
 0.330302668297185D+03 0.291512118263737D+03 -.116092870598942D+02 -.132357644619492D+03
 0.851932718339944D+02 -.139146542620411D+01 -.739063734987094D+02 0.423533392546303D+02
 0.769978881401571D+02 -.427835951060006D+02 0.496145856170140D+01 0.638249378910036D+02
 0.276884832036680D+03 -.247337057731532D+03 0.805542019969023D+02 0.261793674738580D+02
 0.000000000000000D+00 -.000000000000000D+00 0.000000000000000D+00 -.000000000000000D+00
 0.491241337004234D+03 0.000000000000000D+00 0.000000000000000D+00 0.491241337004234D+03
 0.106707024080028D+04 0.000000000000000D+00 0.000000000000000D+00 -.106707024080028D+04
 0.383400712410688D+03 0.299768817602437D+03 -.182068668986923D+03 -.132357644619492D+03
 0.132936435591497D+03 0.113203587662638D+01 -.126004004128950D+03 0.423533392546303D+02
 0.827733037181448D+02 -.409352324250626D+02 -.331979496043337D+02 0.638249378910036D+02
 0.263585946197110D+03 -.241084453585530D+03 -.485306773769020D+02 0.261793674738580D+02
 0.695615179887070D+03 -.188811674684700D+02 0.389801300097109D+03 -.575828903796042D+03
0.622230799935D-04 0.000000000000D+00 0.000000000000D+00 0.561471777915D-05 0.000000000000D+00  7 -2 1 -24 -13 13 23 21 0 0.37492866D-01 0.93421089D-01 0.12084601D+06 0.12084601D+06 0.12084601D+06 0.11150358D+01  1  2  2  1  7  1       -2 0.153443930677D-02 0.100000000000D+01
-.341370787366D-05 0.000000000000D+00 -.238953010888D-06 0.561471777915D-05 0.000000000000D+00  7 -2 1 -24 -13 13 23 21 2 0.37492866D-01 0.93421089D-01 0.12084601D+06 0.12084601D+06 0.12084601D+06 0.11150358D+01  1  2  3  1  7  1       -2 -.104665162076D-03 0.100000000000D+01
0.405646885448D-05 0.000000000000D+00 0.000000000000D+00 0.561471777915D-05 0.000000000000D+00  7 -2 1 -24 -13 13 23 21 2 0.37492866D-01 0.93421089D-01 0.12084601D+06 0.12084601D+06 0.12084601D+06 0.11150358D+01  1  2 15  1  7  1       -2 0.124372379191D-03 0.100000000000D+01
  </mgrwgt>
  </event>
  <event>
  9     66 -.26562228E-05 0.25427429E+03 0.75467711E-02 0.10188258E+00
       -2 -1    0    0    0  501 0.00000000E+00 0.00000000E+00 0.15249952E+03 0.15249985E+03 0.32000000E+00 0.0000E+00 0.9000E+01
        1 -1    0    0  502    0 0.00000000E+00 0.00000000E+00 -.55749789E+03 0.55749798E+03 0.32000000E+00 0.0000E+00 0.9000E+01
       25  2    1    2    0    0 0.91747525E+02 0.96006231E+02 -.29631708E+03 0.44136658E+03 0.29894120E+03 0.0000E+00 0.0000E+00
       23  2    3    3    0    0 0.86564901E+02 0.16718030E+03 -.16293648E+03 0.26473634E+03 0.89968298E+02 0.0000E+00 0.0000E+00
      -24  1    1    2    0    0 -.12861853E+03 -.11505491E+03 -.50160803E+02 0.19688494E+03 0.80419002E+02 0.0000E+00 0.9000E+01
      -13  1    4    4    0    0 0.10223367E+03 0.14052368E+03 -.15488809E+03 0.23278522E+03 0.10565837E+00 0.0000E+00 0.9000E+01
       13  1    4    4    0    0 -.15668772E+02 0.26656624E+02 -.80483969E+01 0.31951116E+02 0.10565837E+00 0.0000E+00 0.9000E+01
       23  1    3    3    0    0 0.51826241E+01 -.71174071E+02 -.13338060E+03 0.17663024E+03 0.91188000E+02 0.0000E+00 0.9000E+01
       21  1    1    2  502  501 0.36871006E+02 0.19048676E+02 -.58520495E+02 0.71746316E+02 0.75000000E+00 0.0000E+00 0.9000E+01
#aMCatNLO 2  0  0  2  1 0.41500881D+02 0.00000000D+00  -5  7  0 0.00000000D+00 0.00000000D+00 0.00000000D+00 0.00000000D+00 0.00000000D+00
  <mgrwgt>
 -.6698522737D-04    2    2    0
 0.267205799216808D+03 0.000000000000000D+00 0.000000000000000D+00 0.267205799216808D+03
 0.267205799216808D+03 0.000000000000000D+00 0.000000000000000D+00 -.267205799216808D+03
 0.189645147957995D+03 -.115127918332971D+03 -.108085248821786D+03 0.675367129573872D+02
 0.189660156966447D+03 0.114865662288588D+03 0.147049818493472D+03 -.339588817333264D+02
 0.328102745121987D+02 -.134075326319227D+02 0.278247744749862D+02 0.110695125324433D+02
 0.122296018996977D+03 0.136697886763051D+02 -.667893441466721D+02 -.446473437565042D+02
 0.000000000000000D+00 0.000000000000000D+00 0.000000000000000D+00 -.000000000000000D+00
 0.280156057382171D+03 0.000000000000000D+00 0.000000000000000D+00 0.280156057382171D+03
 0.303461419134688D+03 0.000000000000000D+00 0.000000000000000D+00 -.303461419134688D+03
 0.202011836258103D+03 -.128618531714844D+03 -.115054907485205D+03 0.675367129573872D+02
 0.177064707923377D+03 0.102233835028695D+03 0.140523834699806D+03 -.339588817333264D+02
 0.328423018076478D+02 -.156689337056906D+02 0.266564663233029D+02 0.110695125324433D+02
 0.124101750313038D+03 0.518262470916533D+01 -.711740695996235D+02 -.446473437565042D+02
 0.475968802146930D+02 0.368710056826746D+02 0.190486760617191D+02 -.233053617525173D+02
-.157531481250D-04 0.000000000000D+00 0.000000000000D+00 0.257856411883D-06 0.000000000000D+00  7 -2 1 -24 -13 13 23 21 2 0.22376754D-01 0.87417362D-01 0.76280773D+05 0.76280773D+05 0.76280773D+05 0.11315009D+01  1  2 13  2  7  2        1 -.135536267682D-02 0.100000000000D+01
0.157832092524D-04 0.000000000000D+00 0.000000000000D+00 0.257856411883D-06 0.103713969851D-08  7 -2 1 -24 -13 13 23 21 2 0.23461255D-01 0.85768054D-01 0.76280773D+05 0.76280773D+05 0.76280773D+05 0.11315009D+01  1  2  1  2  7  2        1 0.128837744945D-02 0.100000000000D+01
  </mgrwgt>
  </event>
  <event>
  9     66 -.26562228E-05 0.48357629E+03 0.75467711E-02 0.94760687E-01
       -2 -1    0    0    0  502 0.00000000E+00 0.00000000E+00 0.28392309E+03 0.28392327E+03 0.32000000E+00 0.0000E+00 0.9000E+01
        1 -1    0    0  501    0 0.00000000E+00 0.00000000E+00 -.14568142E+04 0.14568142E+04 0.32000000E+00 0.0000E+00 0.9000E+01
       25  2    1    2    0    0 0.10867509E+03 0.43717444E+03 -.11562730E+04 0.12782263E+04 0.30653446E+03 0.0000E+00 0.0000E+00
       23  2    3    3    0    0 -.44269073E+02 0.26857099E+03 -.49402780E+03 0.57203721E+03 0.95252115E+02 0.0000E+00 0.0000E+00
      -24  1    1    2    0    0 -.92555689E+02 -.42398452E+03 -.15141737E+02 0.44161738E+03 0.80419002E+02 0.0000E+00 0.9000E+01
      -13  1    4    4    0    0 -.14073291E+02 0.42066933E+01 -.53844620E+01 0.15644723E+02 0.10565837E+00 0.0000E+00 0.9000E+01
       13  1    4    4    0    0 -.30195783E+02 0.26436430E+03 -.48864334E+03 0.55639248E+03 0.10565837E+00 0.0000E+00 0.9000E+01
       23  1    3    3    0    0 0.15294416E+03 0.16860345E+03 -.66224521E+03 0.70618907E+03 0.91188000E+02 0.0000E+00 0.9000E+01
       21  1    1    2  501  502 -.16119402E+02 -.13189928E+02 -.14763286E+01 0.20893812E+02 0.75000000E+00 0.0000E+00 0.9000E+01
#aMCatNLO 2  0  0  1  2 0.20828090D+02 0.00000000D+00  -5  7  0 0.00000000D+00 0.00000000D+00 0.00000000D+00 0.00000000D+00 0.00000000D+00
  <mgrwgt>
 -.3300224318D-03    3    2    0
 0.629526787779363D+03 0.000000000000000D+00 0.000000000000000D+00 0.629526787779363D+03
 0.629526787779363D+03 0.000000000000000D+00 0.000000000000000D+00 -.629526787779363D+03
 0.594779992135012D+03 -.100133481271527D+03 -.430185152784390D+03 0.390141055699180D+03
 0.164964882661551D+02 -.142835712447028D+02 0.403429078750374D+01 0.719987607218013D+01
 0.303008792428635D+03 -.340898785781248D+02 0.261178233146989D+03 -.149793654731451D+03
 0.344768302728924D+03 0.148506931094355D+03 0.164972628849897D+03 -.247547277039910D+03
 0.000000000000000D+00 -.000000000000000D+00 -.000000000000000D+00 0.000000000000000D+00
 0.651899481955511D+03 0.000000000000000D+00 0.000000000000000D+00 0.651899481955511D+03
 0.634479185699883D+03 0.000000000000000D+00 0.000000000000000D+00 -.634479185699883D+03
 0.589072733883230D+03 -.925556889275571D+02 -.423984517353366D+03 0.390141055699180D+03
 0.163581392111737D+02 -.140732701328415D+02 0.420637263749380D+01 0.719987607218013D+01
 0.305349924939280D+03 -.301957995854083D+02 0.264364618188624D+03 -.149793654731451D+03
 0.348445041706499D+03 0.152944161045979D+03 0.168603454821993D+03 -.247547277039910D+03
 0.271528279152107D+02 -.161194024001720D+02 -.131899282947451D+02 0.174202962556283D+02
-.392545074769D-03 0.000000000000D+00 0.000000000000D+00 0.160280512861D-07 0.000000000000D+00  7 -2 1 -24 -13 13 23 21 2 0.43842339D-01 0.22237407D+00 0.24412529D+06 0.24412529D+06 0.24412529D+06 0.10912369D+01  1  2 13  1  7  1       -2 -.185334412502D-02 0.100000000000D+01
-.764168830276D-03 0.000000000000D+00 0.000000000000D+00 0.160280512861D-07 0.000000000000D+00  7 -2 1 -24 -13 13 23 21 2 0.42181068D-01 0.22237407D+00 0.23384603D+06 0.23384603D+06 0.23384603D+06 0.10926483D+01  1  2  8  1  7  1       -2 -.390143045967D-02 0.100000000000D+01
0.116119810144D-02 0.000000000000D+00 0.000000000000D+00 0.160280512861D-07 0.234851795028D-09  7 -2 1 -24 -13 13 23 21 2 0.43680137D-01 0.22412345D+00 0.24412529D+06 0.24412529D+06 0.24412529D+06 0.10912369D+01  1  2  1  1  7  1       -2 0.542475215286D-02 0.100000000000D+01
  </mgrwgt>
  </event>
  <event>
  8     66 0.26562228E-05 0.79570475E+03 0.75467711E-02 0.84022880E-01
       -2 -1    0    0    0  501 0.00000000E+00 0.00000000E+00 0.99524868E+03 0.99524873E+03 0.32000000E+00 0.0000E+00 0.9000E+01
        1 -1    0    0  501    0 0.00000000E+00 0.00000000E+00 -.10445973E+04 0.10445973E+04 0.32000000E+00 0.0000E+00 0.9000E+01
       25  2    1    2    0    0 0.76137865E+03 -.79046882E+02 0.61216668E+03 0.10249493E+04 0.29971165E+03 0.0000E+00 0.0000E+00
       23  2    3    3    0    0 0.67323295E+03 -.11755371E+03 0.52056061E+03 0.86383016E+03 0.90320065E+02 0.0000E+00 0.0000E+00
      -24  1    1    2    0    0 -.76137865E+03 0.79046882E+02 -.66151530E+03 0.10148968E+04 0.80419002E+02 0.0000E+00 0.9000E+01
      -11  1    4    4    0    0 0.60324477E+03 -.13247966E+03 0.46039592E+03 0.77033728E+03 0.51099893E-03 0.0000E+00 0.9000E+01
       11  1    4    4    0    0 0.69988176E+02 0.14925952E+02 0.60164690E+02 0.93492881E+02 0.51099893E-03 0.0000E+00 0.9000E+01
       23  1    3    3    0    0 0.88145699E+02 0.38506827E+02 0.91606068E+02 0.16111910E+03 0.91188000E+02 0.0000E+00 0.9000E+01
#aMCatNLO 1  0  0  2  1 0.99618352D+03 0.00000000D+00  -5  7  0 0.00000000D+00 0.00000000D+00 0.00000000D+00 0.00000000D+00 0.00000000D+00
  <mgrwgt>
 0.1809327324D-02    3    2    0
 0.101962453009614D+04 0.000000000000000D+00 0.000000000000000D+00 0.101962453009614D+04
 0.101962453009614D+04 0.000000000000000D+00 0.000000000000000D+00 -.101962453009614D+04
 0.999185668428597D+03 -.761378648019567D+03 0.790468820403624D+02 -.637149063264103D+03
 0.781704111265667D+03 0.603244772897971D+03 -.132479661264212D+03 0.479172412490788D+03
 0.949762019124977D+02 0.699881759148613D+02 0.149259519839388D+02 0.624447765566272D+02
 0.163383078585519D+03 0.881456992067345D+02 0.385068272399111D+02 0.955318742166886D+02
 0.000000000000000D+00 -.000000000000000D+00 -.000000000000000D+00 0.000000000000000D+00
 0.197041581899025D+04 0.000000000000000D+00 0.000000000000000D+00 0.197041581899025D+04
 0.143167651683912D+04 0.000000000000000D+00 0.000000000000000D+00 -.143167651683912D+04
 0.112368074703392D+04 -.725924702392723D+03 0.568564510797199D+03 -.637149063264103D+03
 0.826729889548046D+03 0.630107194006457D+03 0.238413576461561D+03 0.479172412490788D+03
 0.115444999188157D+03 0.735024157974177D+02 0.634475577961048D+02 0.624447765566272D+02
 0.203707831494954D+03 0.942764764762341D+02 0.123155333868450D+03 0.955318742166886D+02
 0.113252886856428D+04 -.719613838873857D+02 -.993580978923315D+03 0.538739302151130D+03
0.437657551216D-02 0.000000000000D+00 0.000000000000D+00 0.463522874294D-04 0.000000000000D+00  7 -2 1 -24 -11 11 23 21 0 0.15311519D+00 0.16070728D+00 0.63314605D+06 0.63314605D+06 0.63314605D+06 0.10613384D+01  1  2  2  2  7  2        1 0.178630137906D-02 0.100000000000D+01
-.224966510143D-03 0.000000000000D+00 -.168072023455D-04 0.463522874294D-04 0.000000000000D+00  7 -2 1 -24 -11 11 23 21 2 0.15311519D+00 0.16070728D+00 0.63314605D+06 0.63314605D+06 0.63314605D+06 0.10613384D+01  1  2  3  2  7  2        1 -.103429865226D-03 0.100000000000D+01
0.275049398485D-03 0.000000000000D+00 0.000000000000D+00 0.463522874294D-04 0.000000000000D+00  7 -2 1 -24 -11 11 23 21 2 0.15311519D+00 0.16070728D+00 0.63314605D+06 0.63314605D+06 0.63314605D+06 0.10613384D+01  1  2 15  2  7  2        1 0.126455809791D-03 0.100000000000D+01
  </mgrwgt>
  </event>
  <event>
  8     66 0.26562228E-05 0.85179545E+02 0.75467711E-02 0.10142452E+00
       -2 -1    0    0    0  501 0.00000000E+00 0.00000000E+00 0.41889717E+03 0.41889729E+03 0.32000000E+00 0.0000E+00 0.9000E+01
        1 -1    0    0  501    0 0.00000000E+00 0.00000000E+00 -.24803183E+03 0.24803204E+03 0.32000000E+00 0.0000E+00 0.9000E+01
       25  2    1    2    0    0 -.18978316E+03 -.34879676E+02 0.25691465E+03 0.44086310E+03 0.30186237E+03 0.0000E+00 0.0000E+00
       23  2    3    3    0    0 -.14357482E+03 -.56886858E+02 0.18131518E+02 0.18018674E+03 0.91042113E+02 0.0000E+00 0.0000E+00
      -24  1    1    2    0    0 0.18978316E+03 0.34879676E+02 -.86049314E+02 0.22606623E+03 0.80419002E+02 0.0000E+00 0.9000E+01
      -11  1    4    4    0    0 0.11006532E+02 -.13769488E+02 0.80763652E+01 0.19389951E+02 0.51099893E-03 0.0000E+00 0.9000E+01
       11  1    4    4    0    0 -.15458135E+03 -.43117370E+02 0.10055153E+02 0.16079679E+03 0.51099893E-03 0.0000E+00 0.9000E+01
       23  1    3    3    0    0 -.46208347E+02 0.22007183E+02 0.23878313E+03 0.26067636E+03 0.91188000E+02 0.0000E+00 0.9000E+01
#aMCatNLO 1  0  0  2  1 0.71752881D+02 0.00000000D+00  -5  7  0 0.00000000D+00 0.00000000D+00 0.00000000D+00 0.00000000D+00 0.00000000D+00
  <mgrwgt>
 0.9434751263D-03    9    2    0
 0.322335139873033D+03 0.000000000000000D+00 0.000000000000000D+00 0.322335139873033D+03
 0.322335139873033D+03 0.000000000000000D+00 0.000000000000000D+00 -.322335139873033D+03
 0.256678572254056D+03 0.189783164921324D+03 0.348796757811508D+02 -.148937678341840D+03
 0.179188599049536D+02 0.110065315153416D+02 -.137694881069196D+02 0.321605372600415D+01
 0.163683701417511D+03 -.154581349044087D+03 -.431173702205072D+02 -.322157263260498D+02
 0.206389146169546D+03 -.462083473925793D+02 0.220071825462760D+02 0.177937350941885D+03
 0.000000000000000D+00 -.000000000000000D+00 -.000000000000000D+00 -.000000000000000D+00
 0.343430589300840D+03 0.000000000000000D+00 0.000000000000000D+00 0.343430589300840D+03
 0.391696197492656D+03 0.000000000000000D+00 0.000000000000000D+00 -.391696197492656D+03
 0.262944872858271D+03 0.190877651432137D+03 0.636873642253806D+02 -.148937678341840D+03
 0.165445555063122D+02 0.110791220491964D+02 -.118588519660172D+02 0.321605372600415D+01
 0.159245665005813D+03 -.153901160652242D+03 -.252143124102410D+02 -.322157263260498D+02
 0.209916003588593D+03 -.453314809326882D+02 0.450869514919754D+02 0.177937350941885D+03
 0.864756898345073D+02 -.272413189640286D+01 -.717011513410978D+02 -.482656081918160D+02
0.252619571079D-04 0.000000000000D+00 0.000000000000D+00 0.447664813168D-06 0.000000000000D+00  7 -2 1 -24 -11 11 23 21 0 0.64445744D-01 0.38158769D-01 0.60449207D+05 0.60449207D+05 0.60449207D+05 0.11401155D+01  1  2  2  2  7  2        1 0.728467169143D-03 0.100000000000D+01
-.127829714360D-05 0.000000000000D+00 -.970125669204D-07 0.447664813168D-06 0.000000000000D+00  7 -2 1 -24 -11 11 23 21 2 0.64445744D-01 0.38158769D-01 0.60449207D+05 0.60449207D+05 0.60449207D+05 0.11401155D+01  1  2  3  2  7  2        1 -.479151132072D-04 0.100000000000D+01
0.159771392459D-05 0.000000000000D+00 0.000000000000D+00 0.447664813168D-06 0.000000000000D+00  7 -2 1 -24 -11 11 23 21 2 0.64445744D-01 0.38158769D-01 0.60449207D+05 0.60449207D+05 0.60449207D+05 0.11401155D+01  1  2 15  2  7  2        1 0.598879876659D-04 0.100000000000D+01
0.337211295858D-04 0.000000000000D+00 0.000000000000D+00 0.447664813168D-06 0.000000000000D+00  7 -2 1 -24 -11 11 23 21 2 0.64445744D-01 0.47420802D-01 0.81796189D+05 0.81796189D+05 0.81796189D+05 0.11289544D+01  1  2 12  2  7  2        1 0.930259676459D-03 0.100000000000D+01
-.358787494489D-04 0.000000000000D+00 0.000000000000D+00 0.447664813168D-06 0.000000000000D+00  7 -2 1 -24 -11 11 23 21 2 0.64445744D-01 0.38158769D-01 0.60449207D+05 0.60449207D+05 0.60449207D+05 0.11401155D+01  1  2  4  2  7  2        1 -.134486285147D-02 0.100000000000D+01
-.576096476714D-04 0.000000000000D+00 -.161747812977D-04 0.447664813168D-06 0.000000000000D+00  7 -2 1 -24 -11 11 23 21 2 0.64445744D-01 0.48916435D-01 0.60449207D+05 0.60449207D+05 0.60449207D+05 0.11401155D+01  1  2  5  2  7  2        1 -.156408043403D-02 0.100000000000D+01
0.602455270518D-04 0.000000000000D+00 0.156884447872D-04 0.447664813168D-06 0.000000000000D+00  7 -2 1 -24 -11 11 23 21 2 0.64445744D-01 0.38158769D-01 0.60449207D+05 0.60449207D+05 0.60449207D+05 0.11401155D+01  1  2  6  2  7  2        1 0.225821614588D-02 0.100000000000D+01
0.102790486750D-05 0.000000000000D+00 0.000000000000D+00 0.447664813168D-06 0.000000000000D+00  7 -2 21 -24 -11 11 23 -1 2 0.64445744D-01 0.47420802D-01 0.81796189D+05 0.81796189D+05 0.81796189D+05 0.11289544D+01  1  2 12  4  7  2        1 0.132752330715D-03 0.100000000000D+01
-.167207930511D-05 0.000000000000D+00 -.544750727300D-06 0.447664813168D-06 0.000000000000D+00  7 -2 21 -24 -11 11 23 -1 2 0.64445744D-01 0.48916435D-01 0.60449207D+05 0.60449207D+05 0.60449207D+05 0.11401155D+01  1  2  5  4  7  2        1 -.209249784883D-03 0.100000000000D+01
  </mgrwgt>
  </event>
  <event>
  8     66 0.26562228E-05 0.20158485E+03 0.75467711E-02 0.97397116E-01
       -2 -1    0    0    0  501 0.00000000E+00 0.00000000E+00 0.31731315E+03 0.31731331E+03 0.32000000E+00 0.0000E+00 0.9000E+01
        1 -1    0    0  501    0 0.00000000E+00 0.00000000E+00 -.34635209E+03 0.34635224E+03 0.32000000E+00 0.0000E+00 0.9000E+01
       25  2    1    2    0    0 -.21444136E+03 -.13941999E+03 0.35504807E+01 0.39356869E+03 0.29909977E+03 0.0000E+00 0.0000E+00
       23  2    3    3    0    0 -.23623871E+03 -.12288341E+03 -.47420493E+02 0.28557853E+03 0.91636938E+02 0.0000E+00 0.0000E+00
      -24  1    1    2    0    0 0.21444136E+03 0.13941999E+03 -.32589427E+02 0.27009686E+03 0.80419002E+02 0.0000E+00 0.9000E+01
      -13  1    4    4    0    0 -.13743740E+02 -.36840166E+02 0.92345844E+01 0.40390307E+02 0.10565837E+00 0.0000E+00 0.9000E+01
       13  1    4    4    0    0 -.22249497E+03 -.86043245E+02 -.56655077E+02 0.24518822E+03 0.10565837E+00 0.0000E+00 0.9000E+01
       23  1    3    3    0    0 0.21797356E+02 -.16536576E+02 0.50970973E+02 0.10799016E+03 0.91188000E+02 0.0000E+00 0.9000E+01
#aMCatNLO 1  0  0  2  1 0.13416051D+03 0.00000000D+00  -5  7  0 0.00000000D+00 0.00000000D+00 0.00000000D+00 0.00000000D+00 0.00000000D+00
  <mgrwgt>
 0.1212731496D-02    9    2    0
 0.331514969894754D+03 0.000000000000000D+00 0.000000000000000D+00 0.331514969894754D+03
 0.331514969894754D+03 0.000000000000000D+00 0.000000000000000D+00 -.331514969894754D+03
 0.268928460460501D+03 0.214441358629877D+03 0.139419987379457D+03 -.207911452154345D+02
 0.408332088298488D+02 -.137434630047842D+02 -.368401003964722D+02 0.110125006586163D+02
 0.242942193849449D+03 -.222495251748972D+03 -.860433106067538D+02 -.459708734023485D+02
 0.110326076649710D+03 0.217973561238793D+02 -.165365763762309D+02 0.557495179591667D+02
 0.000000000000000D+00 0.000000000000000D+00 -.000000000000000D+00 -.000000000000000D+00
 0.362086424894965D+03 0.000000000000000D+00 0.000000000000000D+00 0.362086424894965D+03
 0.526880025257397D+03 0.000000000000000D+00 0.000000000000000D+00 -.526880025257397D+03
 0.250804090009344D+03 0.169302749253000D+03 0.165347461386775D+03 -.207911452154345D+02
 0.403592982471617D+02 -.207950068381758D+02 -.327897159921759D+02 0.110125006586163D+02
 0.278232902620989D+03 -.267759145794608D+03 -.600438734832117D+02 -.459708734023485D+02
 0.107070812930091D+03 0.291650429033609D+01 -.569147498945690D+01 0.557495179591667D+02
 0.212499346344776D+03 0.116334899089447D+03 -.668223969219305D+02 -.164793600362432D+03
0.350940738971D-04 0.000000000000D+00 0.000000000000D+00 0.113046563105D-05 0.000000000000D+00  7 -2 1 -24 -13 13 23 21 0 0.48817431D-01 0.53284961D-01 0.10278469D+06 0.10278469D+06 0.10278469D+06 0.11207445D+01  1  2  2  2  7  2        1 0.113679209666D-02 0.100000000000D+01
-.194701409129D-05 0.000000000000D+00 -.134770484247D-06 0.113046563105D-05 0.000000000000D+00  7 -2 1 -24 -13 13 23 21 2 0.48817431D-01 0.53284961D-01 0.10278469D+06 0.10278469D+06 0.10278469D+06 0.11207445D+01  1  2  3  2  7  2        1 -.792190409973D-04 0.100000000000D+01
0.225893534497D-05 0.000000000000D+00 0.000000000000D+00 0.113046563105D-05 0.000000000000D+00  7 -2 1 -24 -13 13 23 21 2 0.48817431D-01 0.53284961D-01 0.10278469D+06 0.10278469D+06 0.10278469D+06 0.11207445D+01  1  2 15  2  7  2        1 0.919103218120D-04 0.100000000000D+01
0.333530134544D-04 0.000000000000D+00 0.000000000000D+00 0.113046563105D-05 0.000000000000D+00  7 -2 1 -24 -13 13 23 21 2 0.48817431D-01 0.85946467D-01 0.15553163D+06 0.15553163D+06 0.15553163D+06 0.11063129D+01  1  2 12  2  7  2        1 0.684272879640D-03 0.100000000000D+01
-.409098517227D-04 0.000000000000D+00 0.000000000000D+00 0.113046563105D-05 0.000000000000D+00  7 -2 1 -24 -13 13 23 21 2 0.48817431D-01 0.53284961D-01 0.10278469D+06 0.10278469D+06 0.10278469D+06 0.11207445D+01  1  2  4  2  7  2        1 -.166451759918D-02 0.100000000000D+01
-.476610761636D-04 0.000000000000D+00 -.132064046310D-04 0.113046563105D-05 0.000000000000D+00  7 -2 1 -24 -13 13 23 21 2 0.48817431D-01 0.89883306D-01 0.10278469D+06 0.10278469D+06 0.10278469D+06 0.11207445D+01  1  2  5  2  7  2        1 -.950294067941D-03 0.100000000000D+01
0.492934487103D-04 0.000000000000D+00 0.115862642962D-04 0.113046563105D-05 0.000000000000D+00  7 -2 1 -24 -13 13 23 21 2 0.48817431D-01 0.53284961D-01 0.10278469D+06 0.10278469D+06 0.10278469D+06 0.11207445D+01  1  2  6  2  7  2        1 0.200562479324D-02 0.100000000000D+01
0.181553350443D-05 0.000000000000D+00 0.000000000000D+00 0.113046563105D-05 0.000000000000D+00  7 -2 21 -24 -13 13 23 -1 2 0.48817431D-01 0.85946467D-01 0.15553163D+06 0.15553163D+06 0.15553163D+06 0.11063129D+01  1  2 12  4  7  2        1 0.987956134057D-04 0.100000000000D+01
-.215960127246D-05 0.000000000000D+00 -.771768959230D-06 0.113046563105D-05 0.000000000000D+00  7 -2 21 -24 -13 13 23 -1 2 0.48817431D-01 0.89883306D-01 0.10278469D+06 0.10278469D+06 0.10278469D+06 0.11207445D+01  1  2  5  4  7  2        1 -.110633500864D-03 0.100000000000D+01
  </mgrwgt>
  </event>
  <event>
  8     66 0.26562228E-05 0.24138072E+03 0.75467711E-02 0.93535018E-01
       -2 -1    0    0    0  501 0.00000000E+00 0.00000000E+00 0.27090038E+03 0.27090057E+03 0.32000000E+00 0.0000E+00 0.9000E+01
        1 -1    0    0  501    0 0.00000000E+00 0.00000000E+00 -.35237602E+03 0.35237617E+03 0.32000000E+00 0.0000E+00 0.9000E+01
       25  2    1    2    0    0 -.13546612E+03 0.10439080E+03 -.20124987E+03 0.39953226E+03 0.29979328E+03 0.0000E+00 0.0000E+00
       23  2    3    3    0    0 0.11477095E+01 -.27765039E+02 0.17200084E+02 0.95946791E+02 0.90209364E+02 0.0000E+00 0.0000E+00
      -24  1    1    2    0    0 0.13546612E+03 -.10439080E+03 0.11977423E+03 0.22374447E+03 0.80419002E+02 0.0000E+00 0.9000E+01
      -13  1    4    4    0    0 -.92294619E+01 -.53980429E+02 -.11233528E+02 0.55904141E+02 0.10565837E+00 0.0000E+00 0.9000E+01
       13  1    4    4    0    0 0.10377171E+02 0.26215390E+02 0.28433612E+02 0.40042650E+02 0.10565837E+00 0.0000E+00 0.9000E+01
       23  1    3    3    0    0 -.13661383E+03 0.13215584E+03 -.21844996E+03 0.30358547E+03 0.91188000E+02 0.0000E+00 0.9000E+01
#aMCatNLO 1  0  0  1  1 0.45914603D+03 0.00000000D+00  -5  7  0 0.00000000D+00 0.00000000D+00 0.00000000D+00 0.00000000D+00 0.00000000D+00
  <mgrwgt>
 0.1139323310D-02    3    2    0
 0.308964240744030D+03 0.000000000000000D+00 0.000000000000000D+00 0.308964240744030D+03
 0.308964240744030D+03 0.000000000000000D+00 0.000000000000000D+00 -.308964240744030D+03
 0.241473588331951D+03 0.135466117247961D+03 -.104390798802128D+03 0.150312242052180D+03
 0.549068405875849D+02 -.922948867559140D+01 -.539805387502411D+02 -.395968664559517D+01
 0.441382629384503D+02 0.103771982466688D+02 0.262154999976820D+02 0.339594989898945D+02
 0.277409789630074D+03 -.136613826819039D+03 0.132155837554687D+03 -.180312054396479D+03
 0.000000000000000D+00 0.000000000000000D+00 -.000000000000000D+00 -.000000000000000D+00
 0.485276794148510D+03 0.000000000000000D+00 0.000000000000000D+00 0.485276794148510D+03
 0.910077969194273D+03 0.000000000000000D+00 0.000000000000000D+00 -.910077969194273D+03
 0.183617532940229D+03 -.446000383375349D+00 -.682217957957006D+02 0.150312242052180D+03
 0.647171794128044D+02 -.474762387586548D+02 -.438022938457452D+02 -.395968664559517D+01
 0.525471933931736D+02 -.205355271823088D+02 0.344420104697679D+02 0.339594989898945D+02
 0.468956182006642D+03 -.375245439329631D+03 0.195660605641196D+03 -.180312054396479D+03
 0.625516675589934D+03 0.443703205653970D+03 -.118078526469518D+03 -.424801175045763D+03
0.260100657607D-04 0.000000000000D+00 0.000000000000D+00 0.201014241637D-05 0.000000000000D+00  7 -2 1 -24 -13 13 23 21 0 0.41677007D-01 0.54211721D-01 0.58264654D+05 0.58264654D+05 0.58264654D+05 0.11414972D+01  1  2  2  1  7  1       -2 0.112008504713D-02 0.100000000000D+01
-.133794617032D-05 0.000000000000D+00 -.998855011289D-07 0.201014241637D-05 0.000000000000D+00  7 -2 1 -24 -13 13 23 21 2 0.41677007D-01 0.54211721D-01 0.58264654D+05 0.58264654D+05 0.58264654D+05 0.11414972D+01  1  2  3  1  7  1       -2 -.750754448602D-04 0.100000000000D+01
0.168079807834D-05 0.000000000000D+00 0.000000000000D+00 0.201014241637D-05 0.000000000000D+00  7 -2 1 -24 -13 13 23 21 2 0.41677007D-01 0.54211721D-01 0.58264654D+05 0.58264654D+05 0.58264654D+05 0.11414972D+01  1  2 15  1  7  1       -2 0.943137072710D-04 0.100000000000D+01
  </mgrwgt>
  </event>
  <event>
  9     66 0.26562228E-05 0.20755233E+03 0.75467711E-02 0.10286360E+00
       21 -1    0    0  502  501 0.00000000E+00 0.00000000E+00 0.10057840E+03 0.10058119E+03 0.75000000E+00 0.0000E+00 0.9000E+01
        1 -1    0    0  501    0 0.00000000E+00 0.00000000E+00 -.25435783E+04 0.25435783E+04 0.32000000E+00 0.0000E+00 0.9000E+01
       25  2    1    2    0    0 0.61414621E+02 0.15351284E+03 -.30680890E+03 0.45982456E+03 0.29994829E+03 0.0000E+00 0.0000E+00
       23  2    3    3    0    0 0.15606597E+02 0.13049214E+03 -.29826902E+02 0.16374584E+03 0.93012320E+02 0.0000E+00 0.0000E+00
      -24  1    1    2    0    0 0.38283324E+02 -.14532802E+03 -.20347166E+04 0.20418434E+04 0.80419002E+02 0.0000E+00 0.9000E+01
      -13  1    4    4    0    0 -.14128851E+02 0.28563378E+02 0.28369454E+02 0.42665303E+02 0.10565837E+00 0.0000E+00 0.9000E+01
       13  1    4    4    0    0 0.29735449E+02 0.10192877E+03 -.58196356E+02 0.12108054E+03 0.10565837E+00 0.0000E+00 0.9000E+01
       23  1    3    3    0    0 0.45808024E+02 0.23020692E+02 -.27698200E+03 0.29607872E+03 0.91188000E+02 0.0000E+00 0.9000E+01
        2  1    1    2  502    0 -.99697945E+02 -.81848132E+01 -.10147444E+03 0.14249153E+03 0.32000000E+00 0.0000E+00 0.9000E+01
#aMCatNLO 2  0  0  1  2 0.10003335D+03 0.00000000D+00  -5  7  0 0.00000000D+00 0.00000000D+00 0.00000000D+00 0.00000000D+00 0.00000000D+00
  <mgrwgt>
 0.1417906594D-03    2    2    0
 0.437491293207992D+03 0.000000000000000D+00 0.000000000000000D+00 0.437491293207992D+03
 0.437491293207992D+03 0.000000000000000D+00 0.000000000000000D+00 -.437491293207992D+03
 0.389775051149606D+03 -.601070705309084D+01 -.148964391213069D+03 -.351042527474307D+03
 0.199246330930107D+03 -.366089055613551D+02 0.267177636388638D+02 0.194023322126098D+03
 0.186102238493861D+03 0.842278569207940D+01 0.100179169471926D+03 0.156611729629446D+03
 0.998589658424096D+02 0.341968269223665D+02 0.220674581022794D+02 0.407475718763379D+00
 0.000000000000000D+00 -.000000000000000D+00 -.000000000000000D+00 0.000000000000000D+00
 0.553124882698364D+03 0.000000000000000D+00 0.000000000000000D+00 0.553124882698364D+03
 0.462522216019568D+03 0.000000000000000D+00 0.000000000000000D+00 -.462522216019568D+03
 0.390235722845304D+03 0.382833235073449D+02 -.145328023711563D+03 -.351042527474307D+03
 0.196622828656163D+03 -.141289075443499D+02 0.285632839762245D+02 0.194023322126098D+03
 0.189211328320573D+03 0.297355048909211D+02 0.101928860761763D+03 0.156611729629446D+03
 0.104612354545705D+03 0.458080241211156D+02 0.230206921975488D+02 0.407475718763379D+00
 0.134964864350188D+03 -.996979449750317D+02 -.818481322397382D+01 0.906026666787957D+02
-.309817685246D-05 0.000000000000D+00 0.000000000000D+00 0.387737382288D-05 0.000000000000D+00  7 21 1 -24 -13 13 23 2 2 0.15756403D-01 0.37014223D+00 0.65827873D+05 0.65827873D+05 0.65827873D+05 0.11369354D+01  1  2 13  3  7  1       -2 -.311419347865D-03 0.100000000000D+01
0.541179424356D-05 0.000000000000D+00 0.000000000000D+00 0.387737382288D-05 0.925708450292D-10  7 21 1 -24 -13 13 23 2 2 0.15473810D-01 0.39131980D+00 0.65827873D+05 0.65827873D+05 0.65827873D+05 0.11369354D+01  1  2  1  3  7  1       -2 0.453210007255D-03 0.100000000000D+01
  </mgrwgt>
  </event>
  <event>
  9     66 0.26562228E-05 0.21838769E+03 0.75467711E-02 0.92323032E-01
       -2 -1    0    0    0  501 0.00000000E+00 0.00000000E+00 0.38751188E+03 0.38751201E+03 0.32000000E+00 0.0000E+00 0.9000E+01
        1 -1    0    0  502    0 0.00000000E+00 0.00000000E+00 -.15183645E+04 0.15183646E+04 0.32000000E+00 0.0000E+00 0.9000E+01
       25  2    1    2    0    0 -.38164115E+03 0.37433160E+02 -.24743353E+03 0.54628528E+03 0.30025497E+03 0.0000E+00 0.0000E+00
       23  2    3    3    0    0 -.37432305E+03 0.49616708E+02 -.16086144E+03 0.41974686E+03 0.87928705E+02 0.0000E+00 0.0000E+00
      -24  1    1    2    0    0 -.15439707E+03 -.12455266E+03 0.99942247E+02 0.23623609E+03 0.80419002E+02 0.0000E+00 0.9000E+01
      -13  1    4    4    0    0 -.27259992E+03 0.96995636E+01 -.81478308E+02 0.28468144E+03 0.10565837E+00 0.0000E+00 0.9000E+01
       13  1    4    4    0    0 -.10172314E+03 0.39917144E+02 -.79383130E+02 0.13506542E+03 0.10565837E+00 0.0000E+00 0.9000E+01
       23  1    3    3    0    0 -.73180926E+01 -.12183547E+02 -.86572091E+02 0.12653842E+03 0.91188000E+02 0.0000E+00 0.9000E+01
       21  1    1    2  502  501 0.53603822E+03 0.87119502E+02 -.98336138E+03 0.11233552E+04 0.75000000E+00 0.0000E+00 0.9000E+01
#aMCatNLO 2  0  0  2  1 0.54307162D+03 0.00000000D+00  -5  7  0 0.00000000D+00 0.00000000D+00 0.00000000D+00 0.00000000D+00 0.00000000D+00
  <mgrwgt>
 0.3518532344D-04    1    2    0
 0.271872779891028D+03 0.000000000000000D+00 0.000000000000000D+00 0.271872779891028D+03
 0.271872779891028D+03 0.000000000000000D+00 0.000000000000000D+00 -.271872779891028D+03
 0.194919663173801D+03 0.313224463168306D+02 -.943686359250992D+02 0.147105146231472D+03
 0.120411188719525D+03 -.111388992639467D+03 0.359003331903773D+02 -.283286562412302D+02
 0.789584317954681D+02 -.195128351471816D+02 0.532783594474866D+02 -.549099228801400D+02
 0.149456276093262D+03 0.995793814698181D+02 0.518994328723534D+01 -.638665671101022D+02
 0.000000000000000D+00 0.000000000000000D+00 0.000000000000000D+00 -.000000000000000D+00
 0.468956189637154D+03 0.000000000000000D+00 0.000000000000000D+00 0.468956189637154D+03
 0.125466759508302D+04 0.000000000000000D+00 0.000000000000000D+00 -.125466759508302D+04
 0.259728632423249D+03 -.154397074466421D+03 -.124552663136958D+03 0.147105146231472D+03
 0.274239753403920D+03 -.272600163026840D+03 0.969952062470686D+01 -.283286562412302D+02
 0.122294839161466D+03 -.101722889380641D+03 0.399171871614178D+02 -.549099228801400D+02
 0.112232718230834D+03 -.731809310731398D+01 -.121835469517409D+02 -.638665671101022D+02
 0.955127841500710D+03 0.536038219981216D+03 0.871195023025744D+02 -.785711405445871D+03
0.161541495751D-04 0.000000000000D+00 0.000000000000D+00 0.326883525565D-06 0.168516886271D-10  7 -2 1 -24 -13 13 23 21 2 0.59617209D-01 0.23359449D+00 0.37912441D+06 0.37912441D+06 0.37912441D+06 0.10771098D+01  1  2  1  2  7  2        1 0.351853234370D-04 0.100000000000D+01
  </mgrwgt>
  </event>
  <event>
  7     66 0.26562228E-05 0.17225500E+03 0.75467711E-02 0.88570458E-01
       -2 -1    0    0    0  501 0.00000000E+00 0.00000000E+00 0.12879349E+03 0.12879389E+03 0.32000000E+00 0.0000E+00 0.9000E+01
        1 -1    0    0  501    0 0.00000000E+00 0.00000000E+00 -.56423448E+03 0.56423458E+03 0.32000000E+00 0.0000E+00 0.9000E+01
       23  2    1    2    0    0 -.46964922E+02 -.38907582E+02 0.70072971E+02 0.12635779E+03 0.85653761E+02 0.0000E+00 0.0000E+00
      -24  1    1    2    0    0 -.55065158E+01 0.10153709E+03 -.30955060E+03 0.33560229E+03 0.80419002E+02 0.0000E+00 0.9000E+01
      -13  1    3    3    0    0 -.16694638E+02 -.55467064E+02 0.12532806E+02 0.59265407E+02 0.10565837E+00 0.0000E+00 0.9000E+01
       13  1    3    3    0    0 -.30270284E+02 0.16559482E+02 0.57540165E+02 0.67092386E+02 0.10565837E+00 0.0000E+00 0.9000E+01
       23  1    1    2    0    0 0.52471438E+02 -.62629512E+02 -.19596336E+03 0.23106838E+03 0.91188000E+02 0.0000E+00 0.9000E+01
#aMCatNLO 1  0  0  1  1 0.84551462D+03 0.00000000D+00  -5  7  0 0.00000000D+00 0.00000000D+00 0.00000000D+00 0.00000000D+00 0.00000000D+00
  <mgrwgt>
 0.1689935012D-02    3    2    0
 0.269573548855557D+03 0.000000000000000D+00 0.000000000000000D+00 0.269573548855557D+03
 0.269573548855557D+03 0.000000000000000D+00 0.000000000000000D+00 -.269573548855557D+03
 0.181382413049126D+03 -.550657785593653D+01 0.101538239012523D+03 -.126854355178313D+03
 0.863030576005944D+02 -.166944170171469D+02 -.554676387709799D+02 0.639754268515748D+02
 0.132713057815742D+03 -.302698359163745D+02 0.165591176098083D+02 0.128149476676203D+03
 0.138748569245652D+03 0.524708307894580D+02 -.626297178513509D+02 -.652705483494650D+02
 0.000000000000000D+00 0.000000000000000D+00 -.000000000000000D+00 -.000000000000000D+00
 0.629069281891987D+03 0.000000000000000D+00 0.000000000000000D+00 0.629069281891987D+03
 0.190119693624300D+04 0.000000000000000D+00 0.000000000000000D+00 -.190119693624300D+04
 0.391486441772221D+03 -.306331296757838D+03 0.191998769100378D+03 -.126854355178313D+03
 0.160541126029892D+03 -.146317159688971D+03 -.164889868292867D+02 0.639754268515748D+02
 0.299776712618002D+03 -.257378732697388D+03 0.848526782768690D+02 0.128149476676203D+03
 0.150979126770383D+03 -.996708888704457D+02 -.168794196074064D+02 -.652705483494650D+02
 0.152748281094449D+04 0.809698078014643D+03 -.243483040940554D+03 -.127212765435102D+04
0.198127376944D-04 0.000000000000D+00 0.000000000000D+00 0.116562756297D-09 0.000000000000D+00  7 -2 1 -24 -13 13 23 21 0 0.19814421D-01 0.86805343D-01 0.29671785D+05 0.29671785D+05 0.29671785D+05 0.11677794D+01  1  2  2  1  7  1       -2 0.164697580846D-02 0.100000000000D+01
-.832266955533D-06 0.000000000000D+00 -.760861295601D-07 0.116562756297D-09 0.000000000000D+00  7 -2 1 -24 -13 13 23 21 2 0.19814421D-01 0.86805343D-01 0.29671785D+05 0.29671785D+05 0.29671785D+05 0.11677794D+01  1  2  3  1  7  1       -2 -.943467702372D-04 0.100000000000D+01
0.121122561663D-05 0.000000000000D+00 0.000000000000D+00 0.116562756297D-09 0.000000000000D+00  7 -2 1 -24 -13 13 23 21 2 0.19814421D-01 0.86805343D-01 0.29671785D+05 0.29671785D+05 0.29671785D+05 0.11677794D+01  1  2 15  1  7  1       -2 0.137305974000D-03 0.100000000000D+01
  </mgrwgt>
  </event>
  <event>
  8     66 0.26562228E-05 0.19770098E+03 0.75467711E-02 0.10577732E+00
       -4 -1    0    0    0  501 0.00000000E+00 0.00000000E+00 0.33406413E+02 0.33442352E+02 0.15500000E+01 0.0000E+00 0.9000E+01
        3 -1    0    0  501    0 0.00000000E+00 0.00000000E+00 -.20095008E+04 0.20095009E+04 0.50000000E+00 0.0000E+00 0.9000E+01
       25  2    1    2    0    0 -.47974756E+02 -.15425687E+02 -.18916197E+04 0.19158893E+04 0.29977804E+03 0.0000E+00 0.0000E+00
       23  2    3    3    0    0 -.59413245E+02 -.12199844E+03 -.97041118E+03 0.98399385E+03 0.90180280E+02 0.0000E+00 0.0000E+00
      -24  1    1    2    0    0 0.47974756E+02 0.15425687E+02 -.84474679E+02 0.12705399E+03 0.80419002E+02 0.0000E+00 0.9000E+01
      -11  1    4    4    0    0 -.28151710E+02 0.53388029E+01 -.11103354E+03 0.11467113E+03 0.51099893E-03 0.0000E+00 0.9000E+01
       11  1    4    4    0    0 -.31261535E+02 -.12733724E+03 -.85937765E+03 0.86932272E+03 0.51099893E-03 0.0000E+00 0.9000E+01
       23  1    3    3    0    0 0.11438490E+02 0.10657275E+03 -.92120856E+03 0.93189541E+03 0.91188000E+02 0.0000E+00 0.9000E+01
#aMCatNLO 1  0  0  2  2 0.18441684D+02 0.00000000D+00  -5  7  0 0.00000000D+00 0.00000000D+00 0.00000000D+00 0.00000000D+00 0.00000000D+00
  <mgrwgt>
 0.2539409977D-04    4    2    0
 0.259165949032571D+03 0.000000000000000D+00 0.000000000000000D+00 0.259165949032571D+03
 0.259165949032571D+03 0.000000000000000D+00 0.000000000000000D+00 -.259165949032571D+03
 0.178715894321295D+03 0.479747555609831D+02 0.154256874024233D+02 0.151435220228705D+03
 0.286570375966626D+02 -.281517099212913D+02 0.533880290887726D+01 -.451902449833280D+00
 0.150030538676162D+03 -.312615354471025D+02 -.127337240266598D+03 -.729184899612952D+02
 0.160928427471023D+03 0.114384898074107D+02 0.106572749955298D+03 -.780648278175763D+02
 0.000000000000000D+00 -.000000000000000D+00 -.000000000000000D+00 0.000000000000000D+00
 0.306879813549199D+03 0.000000000000000D+00 0.000000000000000D+00 0.306879813549199D+03
 0.261118030635912D+03 0.000000000000000D+00 0.000000000000000D+00 -.261118030635912D+03
 0.180609002499824D+03 0.537798896978296D+02 0.180967778343003D+02 0.151435220228705D+03
 0.278446610954698D+02 -.272388871729394D+02 0.575881596140027D+01 -.451902449833280D+00
 0.147221289510883D+03 -.264592332678920D+02 -.125127578422533D+03 -.729184899612952D+02
 0.162984908728901D+03 0.166715264881118D+02 0.108980603740925D+03 -.780648278175763D+02
 0.493379823500328D+02 -.167532957451100D+02 -.770861911409314D+01 0.457617829132876D+02
0.274139206500D-04 0.000000000000D+00 0.000000000000D+00 0.190131627299D-05 0.000000000000D+00  7 -4 3 -24 -11 11 23 21 0 0.51422175D-02 0.30915674D+00 0.39085676D+05 0.39085676D+05 0.39085676D+05 0.11568234D+01  1  2  2  2  7  2        3 0.287741064168D-04 0.100000000000D+01
-.138728988130D-05 0.000000000000D+00 -.105276673547D-06 0.190131627299D-05 0.000000000000D+00  7 -4 3 -24 -11 11 23 21 2 0.51422175D-02 0.30915674D+00 0.39085676D+05 0.39085676D+05 0.39085676D+05 0.11568234D+01  1  2  3  2  7  2        3 -.194864193014D-05 0.100000000000D+01
0.170024319746D-05 0.000000000000D+00 0.000000000000D+00 0.190131627299D-05 0.000000000000D+00  7 -4 3 -24 -11 11 23 21 2 0.51422175D-02 0.30915674D+00 0.39085676D+05 0.39085676D+05 0.39085676D+05 0.11568234D+01  1  2 15  2  7  2        3 0.238822846665D-05 0.100000000000D+01
-.271926970840D-05 0.000000000000D+00 0.000000000000D+00 0.190131627299D-05 0.000000000000D+00  7 -4 3 -24 -11 11 23 21 2 0.51422175D-02 0.30915674D+00 0.39085676D+05 0.39085676D+05 0.39085676D+05 0.11568234D+01  1  2  4  2  7  2        3 -.381959318278D-05 0.100000000000D+01
  </mgrwgt>
  </event>
  <event>
  8     66 0.26562228E-05 0.26427729E+03 0.75467711E-02 0.92306283E-01
       -2 -1    0    0    0  501 0.00000000E+00 0.00000000E+00 0.11220403E+03 0.11220448E+03 0.32000000E+00 0.0000E+00 0.9000E+01
        1 -1    0    0  501    0 0.00000000E+00 0.00000000E+00 -.17541596E+04 0.17541596E+04 0.32000000E+00 0.0000E+00 0.9000E+01
       25  2    1    2    0    0 0.16135077E+03 -.14545997E+03 -.15840778E+04 0.16275970E+04 0.30426450E+03 0.0000E+00 0.0000E+00
       23  2    3    3    0    0 0.48788888E+02 -.10106778E+03 -.12756841E+04 0.12839944E+04 0.93148247E+02 0.0000E+00 0.0000E+00
      -24  1    1    2    0    0 -.16135077E+03 0.14545997E+03 -.57877776E+02 0.23876710E+03 0.80419002E+02 0.0000E+00 0.9000E+01
      -11  1    4    4    0    0 0.63495926E+02 -.11083946E+03 -.11509082E+04 0.11579753E+04 0.51099893E-03 0.0000E+00 0.9000E+01
       11  1    4    4    0    0 -.14707038E+02 0.97716803E+01 -.12477589E+03 0.12601907E+03 0.51099893E-03 0.0000E+00 0.9000E+01
       23  1    3    3    0    0 0.11256188E+03 -.44392193E+02 -.30839373E+03 0.34360266E+03 0.91188000E+02 0.0000E+00 0.9000E+01
#aMCatNLO 1  0  0  2  1 0.48975202D+03 0.00000000D+00  -5  7  0 0.00000000D+00 0.00000000D+00 0.00000000D+00 0.00000000D+00 0.00000000D+00
  <mgrwgt>
 0.1392850760D-02    3    2    0
 0.443648760548941D+03 0.000000000000000D+00 0.000000000000000D+00 0.443648760548941D+03
 0.443648760548941D+03 0.000000000000000D+00 0.000000000000000D+00 -.443648760548941D+03
 0.395125201310269D+03 -.161350770825574D+03 0.145459973827770D+03 0.320100036744965D+03
 0.305944065900678D+03 0.634959255749983D+02 -.110839461388899D+03 -.278001173908010D+03
 0.341723008549922D+02 -.147070377870645D+02 0.977168033586052D+01 -.292568530205782D+02
 0.152055953031942D+03 0.112561883037640D+03 -.443921927747316D+02 -.128420098163765D+02
 0.000000000000000D+00 0.000000000000000D+00 0.000000000000000D+00 0.000000000000000D+00
 0.804892930268553D+03 0.000000000000000D+00 0.000000000000000D+00 0.804892930268553D+03
 0.707864185225500D+03 0.000000000000000D+00 0.000000000000000D+00 -.707864185225500D+03
 0.461971141169317D+03 -.323207752842698D+03 -.477852457945173D+01 0.320100036744965D+03
 0.365388254933676D+03 -.632807481726073D+02 -.228515800460188D+03 -.278001173908010D+03
 0.413124995018430D+02 -.289618436570516D+02 -.345988127058745D+01 -.292568530205782D+02
 0.144814133531530D+03 0.564999284114939D+02 -.964298854083114D+02 -.128420098163765D+02
 0.499271086357686D+03 0.358950416260863D+03 0.333184091718538D+03 0.970287450430529D+02
0.102006412191D-03 0.000000000000D+00 0.000000000000D+00 0.675157090804D-07 0.000000000000D+00  7 -2 1 -24 -11 11 23 21 0 0.17262195D-01 0.26987075D+00 0.69842488D+05 0.69842488D+05 0.69842488D+05 0.11347428D+01  1  2  2  2  7  2        1 0.135110474060D-02 0.100000000000D+01
-.381795251752D-05 0.000000000000D+00 -.391731481720D-06 0.675157090804D-07 0.000000000000D+00  7 -2 1 -24 -11 11 23 21 2 0.17262195D-01 0.26987075D+00 0.69842488D+05 0.69842488D+05 0.69842488D+05 0.11347428D+01  1  2  3  2  7  2        1 -.651158836491D-04 0.100000000000D+01
0.626565515779D-05 0.000000000000D+00 0.000000000000D+00 0.675157090804D-07 0.000000000000D+00  7 -2 1 -24 -11 11 23 21 2 0.17262195D-01 0.26987075D+00 0.69842488D+05 0.69842488D+05 0.69842488D+05 0.11347428D+01  1  2 15  2  7  2        1 0.106861903171D-03 0.100000000000D+01
  </mgrwgt>
  </event>
  <event>
  9     66 0.26562228E-05 0.28525449E+03 0.75467711E-02 0.96816244E-01
       -2 -1    0    0    0  501 0.00000000E+00 0.00000000E+00 0.16387257E+04 0.16387258E+04 0.32000000E+00 0.0000E+00 0.9000E+01
       21 -1    0    0  501  502 0.00000000E+00 0.00000000E+00 -.15306622E+03 0.15306806E+03 0.75000000E+00 0.0000E+00 0.9000E+01
       25  2    1    2    0    0 0.85743189E+02 -.29571908E+03 0.28892693E+03 0.51772391E+03 0.29959574E+03 0.0000E+00 0.0000E+00
       23  2    3    3    0    0 0.15522447E+03 -.24581386E+03 0.21168146E+03 0.37075353E+03 0.90166778E+02 0.0000E+00 0.0000E+00
      -24  1    1    2    0    0 0.71896374E+02 0.14300026E+03 0.28761484E+03 0.33883281E+03 0.80419002E+02 0.0000E+00 0.9000E+01
      -13  1    4    4    0    0 0.80925276E+02 -.20321582E+03 0.15278380E+03 0.26681167E+03 0.10565837E+00 0.0000E+00 0.9000E+01
       13  1    4    4    0    0 0.74299192E+02 -.42598042E+02 0.58897667E+02 0.10394186E+03 0.10565837E+00 0.0000E+00 0.9000E+01
       23  1    3    3    0    0 -.69481279E+02 -.49905219E+02 0.77245463E+02 0.14697038E+03 0.91188000E+02 0.0000E+00 0.9000E+01
       -1  1    1    2    0  502 -.15763956E+03 0.15271882E+03 0.90911775E+03 0.93523711E+03 0.32000000E+00 0.0000E+00 0.9000E+01
#aMCatNLO 2  0  0  2  2 0.21948410D+03 0.00000000D+00  -5  7  0 0.00000000D+00 0.00000000D+00 0.00000000D+00 0.00000000D+00 0.00000000D+00
  <mgrwgt>
 0.3119180400D-04    1    2    0
 0.297117707735885D+03 0.000000000000000D+00 0.000000000000000D+00 0.297117707735885D+03
 0.297117707735885D+03 0.000000000000000D+00 0.000000000000000D+00 -.297117707735885D+03
 0.227035726961498D+03 0.175279954087974D+02 0.195671517960175D+03 0.805197602994181D+02
 0.162664936238978D+03 0.315698458465712D+02 -.155401234914676D+03 -.362447582672088D+02
 0.620242953454891D+02 0.551717973117349D+02 -.240674999978522D+02 -.149613314364294D+02
 0.142510456925804D+03 -.104269638567104D+03 -.162027830476465D+02 -.293136705957800D+02
 0.000000000000000D+00 -.000000000000000D+00 0.000000000000000D+00 0.000000000000000D+00
 0.724367647773689D+03 0.000000000000000D+00 0.000000000000000D+00 0.724367647773689D+03
 0.346281550408529D+03 0.000000000000000D+00 0.000000000000000D+00 -.346281550408529D+03
 0.196389433395083D+03 0.718963742106455D+02 0.143000255844380D+03 0.805197602994181D+02
 0.221719060942653D+03 0.809252850617094D+02 -.203216037066774D+03 -.362447582672088D+02
 0.869412698168173D+02 0.742991828179604D+02 -.425978214418677D+02 -.149613314364294D+02
 0.128423991699068D+03 -.694812789880412D+02 -.499052190287798D+02 -.293136705957800D+02
 0.437175442328597D+03 -.157639563102274D+03 0.152718821693041D+03 0.378086097365160D+03
0.248052580247D-05 0.000000000000D+00 0.000000000000D+00 0.107289484522D-05 0.955388894443D-11  7 -2 21 -24 -13 13 23 -1 2 0.25211176D+00 0.23548790D-01 0.17140532D+06 0.17140532D+06 0.17140532D+06 0.11030090D+01  1  2  1  4  7  2        1 0.311918040048D-04 0.100000000000D+01
  </mgrwgt>
  </event>
  <event>
  8     66 0.26562228E-05 0.41381664E+03 0.75467711E-02 0.88446993E-01
       -2 -1    0    0    0  501 0.00000000E+00 0.00000000E+00 0.21771991E+03 0.21772014E+03 0.32000000E+00 0.0000E+00 0.9000E+01
        1 -1    0    0  501    0 0.00000000E+00 0.00000000E+00 -.91807097E+03 0.91807103E+03 0.32000000E+00 0.0000E+00 0.9000E+01
       25  2    1    2    0    0 0.46577166E+02 0.36000152E+03 -.57517323E+03 0.74348105E+03 0.30028201E+03 0.0000E+00 0.0000E+00
       23  2    3    3    0    0 0.11051085E+03 0.29616891E+03 -.48621289E+03 0.58730386E+03 0.92704786E+02 0.0000E+00 0.0000E+00
      -24  1    1    2    0    0 -.46577166E+02 -.36000152E+03 -.12517783E+03 0.39231012E+03 0.80419002E+02 0.0000E+00 0.9000E+01
      -13  1    4    4    0    0 0.72448883E+02 0.79829401E+02 -.19115305E+03 0.21945632E+03 0.10565837E+00 0.0000E+00 0.9000E+01
       13  1    4    4    0    0 0.38061972E+02 0.21633951E+03 -.29505984E+03 0.36784754E+03 0.10565837E+00 0.0000E+00 0.9000E+01
       23  1    3    3    0    0 -.63933689E+02 0.63832612E+02 -.88960342E+02 0.15617718E+03 0.91188000E+02 0.0000E+00 0.9000E+01
#aMCatNLO 1  0  0  2  2 0.71140370D+03 0.00000000D+00  -5  7  0 0.00000000D+00 0.00000000D+00 0.00000000D+00 0.00000000D+00 0.00000000D+00
  <mgrwgt>
 0.9881439299D-03    3    2    0
 0.447082197713032D+03 0.000000000000000D+00 0.000000000000000D+00 0.447082197713032D+03
 0.447082197713032D+03 0.000000000000000D+00 0.000000000000000D+00 -.447082197713032D+03
 0.400277565444674D+03 -.465771662814742D+02 -.360001521996340D+03 0.148271322869434D+03
 0.129039109947748D+03 0.724489274914326D+02 0.798292236533741D+02 -.709192488140395D+02
 0.236145217119503D+03 0.380619274653614D+02 0.216339686500066D+03 -.866775247171480D+02
 0.128702502914138D+03 -.639336886753198D+02 0.638326118428995D+02 0.932545066175373D+01
 0.000000000000000D+00 -.000000000000000D+00 -.000000000000000D+00 0.000000000000000D+00
 0.940900086075626D+03 0.000000000000000D+00 0.000000000000000D+00 0.940900086075626D+03
 0.913664345717968D+03 0.000000000000000D+00 0.000000000000000D+00 -.913664345717968D+03
 0.279557690420863D+03 0.118194269656839D+03 -.189026494846386D+03 0.148271322869434D+03
 0.250627805883242D+03 0.164468666626757D+03 0.175313476172019D+03 -.709192488140395D+02
 0.446716010478523D+03 0.203566767126370D+03 0.388075729785405D+03 -.866775247171480D+02
 0.165738063865737D+03 0.742976970408318D+01 0.137882881323472D+03 0.932545066175373D+01
 0.711924861145229D+03 -.493659473114049D+03 -.512245592434510D+03 0.272357403576575D+02
0.618074373475D-04 0.000000000000D+00 0.000000000000D+00 0.257976987639D-05 0.000000000000D+00  7 -2 1 -24 -13 13 23 21 0 0.33495393D-01 0.14124171D+00 0.17124421D+06 0.17124421D+06 0.17124421D+06 0.11030408D+01  1  2  2  2  7  2        1 0.979240354489D-03 0.100000000000D+01
-.340878749124D-05 0.000000000000D+00 -.237356833687D-06 0.257976987639D-05 0.000000000000D+00  7 -2 1 -24 -13 13 23 21 2 0.33495393D-01 0.14124171D+00 0.17124421D+06 0.17124421D+06 0.17124421D+06 0.11030408D+01  1  2  3  2  7  2        1 -.657100271839D-04 0.100000000000D+01
0.387067128473D-05 0.000000000000D+00 0.000000000000D+00 0.257976987639D-05 0.000000000000D+00  7 -2 1 -24 -13 13 23 21 2 0.33495393D-01 0.14124171D+00 0.17124421D+06 0.17124421D+06 0.17124421D+06 0.11030408D+01  1  2 15  2  7  2        1 0.746136026354D-04 0.100000000000D+01
  </mgrwgt>
  </event>
  <event>
  8     66 0.26562228E-05 0.22380997E+03 0.75467711E-02 0.90533928E-01
       -2 -1    0    0    0  501 0.00000000E+00 0.00000000E+00 0.51028931E+02 0.51029934E+02 0.32000000E+00 0.0000E+00 0.9000E+01
        1 -1    0    0  501    0 0.00000000E+00 0.00000000E+00 -.11903881E+04 0.11903882E+04 0.32000000E+00 0.0000E+00 0.9000E+01
       25  2    1    2    0    0 -.10652475E+03 0.61570584E+02 -.93619510E+03 0.99065661E+03 0.29966782E+03 0.0000E+00 0.0000E+00
       23  2    3    3    0    0 -.42358279E+02 -.75079142E+02 -.21930148E+03 0.25238688E+03 0.90415138E+02 0.0000E+00 0.0000E+00
      -24  1    1    2    0    0 0.10652475E+03 -.61570584E+02 -.20316408E+03 0.25076147E+03 0.80419002E+02 0.0000E+00 0.9000E+01
      -11  1    4    4    0    0 -.19804651E+02 -.93231525E+02 -.15660665E+03 0.18333026E+03 0.51099893E-03 0.0000E+00 0.9000E+01
       11  1    4    4    0    0 -.22553628E+02 0.18152383E+02 -.62694832E+02 0.69056622E+02 0.51099893E-03 0.0000E+00 0.9000E+01
       23  1    3    3    0    0 -.64166467E+02 0.13664973E+03 -.71689362E+03 0.73826973E+03 0.91188000E+02 0.0000E+00 0.9000E+01
#aMCatNLO 1  0  0  1  1 0.66562786D+03 0.00000000D+00  -5  7  0 0.00000000D+00 0.00000000D+00 0.00000000D+00 0.00000000D+00 0.00000000D+00
  <mgrwgt>
 0.1280460049D-02    5    2    0
 0.246464769031483D+03 0.000000000000000D+00 0.000000000000000D+00 0.246464769031483D+03
 0.246464769031483D+03 0.000000000000000D+00 0.000000000000000D+00 -.246464769031483D+03
 0.161935867411516D+03 0.106524746109523D+03 -.615705837873725D+02 0.679525634419571D+02
 0.997267829006789D+02 -.198046513623978D+02 -.932315250277912D+02 0.293443308515521D+02
 0.290025385948588D+02 -.225536280771336D+02 0.181523831609912D+02 0.172397537139285D+01
 0.202264349155913D+03 -.641664666699916D+02 0.136649725654173D+03 -.990208696649020D+02
 0.000000000000000D+00 0.000000000000000D+00 -.000000000000000D+00 0.000000000000000D+00
 0.112311138749463D+04 0.000000000000000D+00 0.000000000000000D+00 0.112311138749463D+04
 0.570370676982094D+03 0.000000000000000D+00 0.000000000000000D+00 -.570370676982094D+03
 0.122781156202327D+03 0.263846988986714D+02 0.573959332157155D+02 0.679525634419571D+02
 0.780992332370342D+02 -.698578064133665D+02 -.189284801872714D+02 0.293443308515521D+02
 0.860782067507808D+02 -.549457072299699D+02 0.662378656309775D+02 0.172397537139285D+01
 0.541316706509401D+03 -.273464176198366D+03 0.447348563325223D+03 -.990208696649020D+02
 0.865206761777176D+03 0.371882990943031D+03 -.552053881984645D+03 0.552740710512531D+03
0.107134745679D-04 0.000000000000D+00 0.000000000000D+00 0.127436415421D-05 0.000000000000D+00  7 -2 1 -24 -11 11 23 21 0 0.78506853D-02 0.18313671D+00 0.50090901D+05 0.50090901D+05 0.50090901D+05 0.11472260D+01  1  2  2  1  7  1       -2 0.114917712816D-02 0.100000000000D+01
-.588464981828D-06 0.000000000000D+00 -.411425632632D-07 0.127436415421D-05 0.000000000000D+00  7 -2 1 -24 -11 11 23 21 2 0.78506853D-02 0.18313671D+00 0.50090901D+05 0.50090901D+05 0.50090901D+05 0.11472260D+01  1  2  3  1  7  1       -2 -.830759322394D-04 0.100000000000D+01
0.694600912698D-06 0.000000000000D+00 0.000000000000D+00 0.127436415421D-05 0.000000000000D+00  7 -2 1 -24 -11 11 23 21 2 0.78506853D-02 0.18313671D+00 0.50090901D+05 0.50090901D+05 0.50090901D+05 0.11472260D+01  1  2 15  1  7  1       -2 0.980595619766D-04 0.100000000000D+01
0.197215716517D-04 0.000000000000D+00 -.857213059275D-05 0.127436415421D-05 0.000000000000D+00  7 -2 1 -24 -11 11 23 21 2 0.88913642D-01 0.18313671D+00 0.50090901D+05 0.50090901D+05 0.50090901D+05 0.11472260D+01  1  2  5  1  7  1       -2 0.380207403298D-04 0.100000000000D+01
0.406914123226D-05 0.000000000000D+00 -.243985423086D-05 0.127436415421D-05 0.000000000000D+00  7 21 1 -24 -11 11 23 2 2 0.88913642D-01 0.18313671D+00 0.50090901D+05 0.50090901D+05 0.50090901D+05 0.11472260D+01  1  2  5  3  7  1       -2 0.782785507893D-04 0.100000000000D+01
  </mgrwgt>
  </event>
  <event>
  8     66 0.26562228E-05 0.98443508E+02 0.75467711E-02 0.99924887E-01
       -2 -1    0    0    0  501 0.00000000E+00 0.00000000E+00 0.60439973E+03 0.60439982E+03 0.32000000E+00 0.0000E+00 0.9000E+01
        1 -1    0    0  501    0 0.00000000E+00 0.00000000E+00 -.11683745E+03 0.11683789E+03 0.32000000E+00 0.0000E+00 0.9000E+01
       25  2    1    2    0    0 -.45919626E+02 0.15963579E+03 0.27562066E+03 0.44020628E+03 0.30037080E+03 0.0000E+00 0.0000E+00
       23  2    3    3    0    0 0.94885719E+02 0.90303842E+02 0.10274881E+03 0.18954118E+03 0.90611569E+02 0.0000E+00 0.0000E+00
      -24  1    1    2    0    0 0.45919626E+02 -.15963579E+03 0.21194162E+03 0.28103143E+03 0.80419002E+02 0.0000E+00 0.9000E+01
      -11  1    4    4    0    0 -.94061380E+01 0.21970334E+02 -.53848398E+01 0.24498317E+02 0.51099893E-03 0.0000E+00 0.9000E+01
       11  1    4    4    0    0 0.10429186E+03 0.68333508E+02 0.10813365E+03 0.16504286E+03 0.51099893E-03 0.0000E+00 0.9000E+01
       23  1    3    3    0    0 -.14080534E+03 0.69331952E+02 0.17287185E+03 0.25066510E+03 0.91188000E+02 0.0000E+00 0.9000E+01
#aMCatNLO 1  0  0  2  1 0.11384871D+03 0.00000000D+00  -5  7  0 0.00000000D+00 0.00000000D+00 0.00000000D+00 0.00000000D+00 0.00000000D+00
  <mgrwgt>
 0.2644048455D-02    8    2    0
 0.265738054543197D+03 0.000000000000000D+00 0.000000000000000D+00 0.265738054543197D+03
 0.265738054543197D+03 0.000000000000000D+00 0.000000000000000D+00 -.265738054543197D+03
 0.186942975627597D+03 0.459196258702208D+02 -.159635793749826D+03 0.298037161429841D+02
 0.381852618684165D+02 -.940613797473406D+01 0.219703341252163D+02 -.297815918108178D+02
 0.124771828326760D+03 0.104291856661092D+03 0.683335080768274D+02 -.466363078500975D+01
 0.181576043263622D+03 -.140805344556578D+03 0.693319515477824D+02 0.464150645284343D+01
 0.000000000000000D+00 0.000000000000000D+00 -.000000000000000D+00 -.000000000000000D+00
 0.286351498862192D+03 0.000000000000000D+00 0.000000000000000D+00 0.286351498862192D+03
 0.493940691986572D+03 0.000000000000000D+00 0.000000000000000D+00 -.493940691986572D+03
 0.162026288210456D+03 0.171903078384544D+02 -.136387440541183D+03 0.298037161429841D+02
 0.435783830292736D+02 -.161374292405238D+02 0.274174330338746D+02 -.297815918108178D+02
 0.119443768354250D+03 0.841865113702173D+02 0.846031657201847D+02 -.466363078500975D+01
 0.218484799925234D+03 -.173740838845162D+03 0.959840288256203D+02 0.464150645284343D+01
 0.236758951329551D+03 0.885014488770137D+02 -.716171870384963D+02 -.207589193124380D+03
0.275286647494D-04 0.000000000000D+00 0.000000000000D+00 0.142572118831D-05 0.000000000000D+00  7 -2 1 -24 -11 11 23 21 0 0.92984614D-01 0.17975033D-01 0.66216790D+05 0.66216790D+05 0.66216790D+05 0.11367166D+01  1  2  2  2  7  2        1 0.938096012736D-03 0.100000000000D+01
-.152744629044D-05 0.000000000000D+00 -.105717321102D-06 0.142572118831D-05 0.000000000000D+00  7 -2 1 -24 -11 11 23 21 2 0.92984614D-01 0.17975033D-01 0.66216790D+05 0.66216790D+05 0.66216790D+05 0.11367166D+01  1  2  3  2  7  2        1 -.672562298801D-04 0.100000000000D+01
0.179091555783D-05 0.000000000000D+00 0.000000000000D+00 0.142572118831D-05 0.000000000000D+00  7 -2 1 -24 -11 11 23 21 2 0.92984614D-01 0.17975033D-01 0.66216790D+05 0.66216790D+05 0.66216790D+05 0.11367166D+01  1  2 15  2  7  2        1 0.788572594707D-04 0.100000000000D+01
0.341258341390D-04 0.000000000000D+00 0.000000000000D+00 0.142572118831D-05 0.000000000000D+00  7 -2 1 -24 -11 11 23 21 2 0.92984614D-01 0.33562437D-01 0.10326984D+06 0.10326984D+06 0.10326984D+06 0.11205772D+01  1  2 12  2  7  2        1 0.645440168122D-03 0.100000000000D+01
-.453560961784D-04 0.000000000000D+00 -.965179895859D-05 0.142572118831D-05 0.000000000000D+00  7 -2 1 -24 -11 11 23 21 2 0.92984614D-01 0.35461096D-01 0.66216790D+05 0.66216790D+05 0.66216790D+05 0.11367166D+01  1  2  5  2  7  2        1 -.828973623429D-03 0.100000000000D+01
0.433772931716D-04 0.000000000000D+00 0.778467656173D-05 0.142572118831D-05 0.000000000000D+00  7 -2 1 -24 -11 11 23 21 2 0.92984614D-01 0.17975033D-01 0.66216790D+05 0.66216790D+05 0.66216790D+05 0.11367166D+01  1  2  6  2  7  2        1 0.190998087421D-02 0.100000000000D+01
0.232099548220D-05 0.000000000000D+00 0.000000000000D+00 0.142572118831D-05 0.000000000000D+00  7 -2 21 -24 -11 11 23 -1 2 0.92984614D-01 0.33562437D-01 0.10326984D+06 0.10326984D+06 0.10326984D+06 0.11205772D+01  1  2 12  4  7  2        1 0.263983946134D-03 0.100000000000D+01
-.276444848228D-05 0.000000000000D+00 -.710095479517D-06 0.142572118831D-05 0.000000000000D+00  7 -2 21 -24 -11 11 23 -1 2 0.92984614D-01 0.35461096D-01 0.66216790D+05 0.66216790D+05 0.66216790D+05 0.11367166D+01  1  2  5  4  7  2        1 -.296079952304D-03 0.100000000000D+01
  </mgrwgt>
  </event>
  <event>
  8     66 0.26562228E-05 0.11561094E+03 0.75467711E-02 0.10530223E+00
       -2 -1    0    0    0  501 0.00000000E+00 0.00000000E+00 0.71713807E+03 0.71713814E+03 0.32000000E+00 0.0000E+00 0.9000E+01
        1 -1    0    0  501    0 0.00000000E+00 0.00000000E+00 -.14268968E+03 0.14269004E+03 0.32000000E+00 0.0000E+00 0.9000E+01
       25  2    1    2    0    0 -.28043759E+02 0.54892625E+02 0.31574141E+02 0.30757886E+03 0.29968013E+03 0.0000E+00 0.0000E+00
       23  2    3    3    0    0 -.44614436E+02 0.14522641E+03 0.22073091E+02 0.17780868E+03 0.89708114E+02 0.0000E+00 0.0000E+00
      -24  1    1    2    0    0 0.28043759E+02 -.54892625E+02 0.54287425E+03 0.55224932E+03 0.80419002E+02 0.0000E+00 0.9000E+01
      -13  1    4    4    0    0 -.10024502E+02 0.26595116E+02 -.32108644E+02 0.42880847E+02 0.10565837E+00 0.0000E+00 0.9000E+01
       13  1    4    4    0    0 -.34589934E+02 0.11863129E+03 0.54181735E+02 0.13492783E+03 0.10565837E+00 0.0000E+00 0.9000E+01
       23  1    3    3    0    0 0.16570677E+02 -.90333785E+02 0.95010500E+01 0.12977019E+03 0.91188000E+02 0.0000E+00 0.9000E+01
#aMCatNLO 1  0  0  1  2 0.43692683D+02 0.00000000D+00  -5  7  0 0.00000000D+00 0.00000000D+00 0.00000000D+00 0.00000000D+00 0.00000000D+00
  <mgrwgt>
 0.8669704243D-03    9    2    0
 0.319888090088912D+03 0.000000000000000D+00 0.000000000000000D+00 0.319888090088912D+03
 0.319888090088912D+03 0.000000000000000D+00 0.000000000000000D+00 -.319888090088912D+03
 0.254755185774702D+03 0.280437589946902D+02 -.548926250049354D+02 0.233737750537323D+03
 0.864597343007968D+02 -.100244677477598D+02 0.265949888014326D+02 -.816547749515616D+02
 0.132687311068192D+03 -.345899684724279D+02 0.118631421244392D+03 -.483326234868272D+02
 0.165873949034132D+03 0.165706772254976D+02 -.903337850408888D+02 -.103750352098934D+03
 0.000000000000000D+00 0.000000000000000D+00 0.000000000000000D+00 0.000000000000000D+00
 0.351395150429661D+03 0.000000000000000D+00 0.000000000000000D+00 0.351395150429661D+03
 0.336147915935840D+03 0.000000000000000D+00 0.000000000000000D+00 -.336147915935840D+03
 0.256104901835751D+03 0.142040588136469D+02 -.654783435717493D+02 0.233737750537323D+03
 0.861014504013994D+02 -.146993192718528D+02 0.230192854315378D+02 -.816547749515616D+02
 0.129950578907146D+03 -.417050861760685D+02 0.113189205546420D+03 -.483326234868272D+02
 0.169109480959789D+03 0.749564797743364D+01 -.972750991119259D+02 -.103750352098934D+03
 0.462766542614151D+02 0.347046986568408D+02 0.265449517057174D+02 0.152472344938205D+02
0.293711925817D-04 0.000000000000D+00 0.000000000000D+00 0.194223253746D-05 0.000000000000D+00  7 -2 1 -24 -13 13 23 21 0 0.11032897D+00 0.21952292D-01 0.36622545D+05 0.36622545D+05 0.36622545D+05 0.11593828D+01  1  2  2  1  7  1       -2 0.517126105142D-03 0.100000000000D+01
-.110806763323D-05 0.000000000000D+00 -.112793113126D-06 0.194223253746D-05 0.000000000000D+00  7 -2 1 -24 -13 13 23 21 2 0.11032897D+00 0.21952292D-01 0.36622545D+05 0.36622545D+05 0.36622545D+05 0.11593828D+01  1  2  3  1  7  1       -2 -.262237544687D-04 0.100000000000D+01
0.184480810111D-05 0.000000000000D+00 0.000000000000D+00 0.194223253746D-05 0.000000000000D+00  7 -2 1 -24 -13 13 23 21 2 0.11032897D+00 0.21952292D-01 0.36622545D+05 0.36622545D+05 0.36622545D+05 0.11593828D+01  1  2 15  1  7  1       -2 0.436596045535D-04 0.100000000000D+01
0.460912284621D-04 0.000000000000D+00 0.000000000000D+00 0.194223253746D-05 0.000000000000D+00  7 -2 1 -24 -13 13 23 21 2 0.12378492D+00 0.21952292D-01 0.46192583D+05 0.46192583D+05 0.46192583D+05 0.11503333D+01  1  2 12  1  7  1       -2 0.803486879039D-03 0.100000000000D+01
-.442593881969D-04 0.000000000000D+00 0.000000000000D+00 0.194223253746D-05 0.000000000000D+00  7 -2 1 -24 -13 13 23 21 2 0.11032897D+00 0.21952292D-01 0.36622545D+05 0.36622545D+05 0.36622545D+05 0.11593828D+01  1  2  4  1  7  1       -2 -.104745170259D-02 0.100000000000D+01
-.106095684848D-03 0.000000000000D+00 -.279019749681D-04 0.194223253746D-05 0.000000000000D+00  7 -2 1 -24 -13 13 23 21 2 0.12561257D+00 0.21952292D-01 0.36622545D+05 0.36622545D+05 0.36622545D+05 0.11593828D+01  1  2  5  1  7  1       -2 -.181699266689D-02 0.100000000000D+01
0.109029899760D-03 0.000000000000D+00 0.276687960931D-04 0.194223253746D-05 0.000000000000D+00  7 -2 1 -24 -13 13 23 21 2 0.11032897D+00 0.21952292D-01 0.36622545D+05 0.36622545D+05 0.36622545D+05 0.11593828D+01  1  2  6  1  7  1       -2 0.258032383161D-02 0.100000000000D+01
0.844172544098D-06 0.000000000000D+00 0.000000000000D+00 0.194223253746D-05 0.000000000000D+00  7 21 1 -24 -13 13 23 2 2 0.12378492D+00 0.21952292D-01 0.46192583D+05 0.46192583D+05 0.46192583D+05 0.11503333D+01  1  2 12  3  7  1       -2 0.139309683010D-03 0.100000000000D+01
-.199973145906D-05 0.000000000000D+00 -.565061576428D-06 0.194223253746D-05 0.000000000000D+00  7 21 1 -24 -13 13 23 2 2 0.12561257D+00 0.21952292D-01 0.36622545D+05 0.36622545D+05 0.36622545D+05 0.11593828D+01  1  2  5  3  7  1       -2 -.326267555067D-03 0.100000000000D+01
  </mgrwgt>
  </event>
  <event>
  8     66 0.26562228E-05 0.17949777E+03 0.75467711E-02 0.10382464E+00
       -2 -1    0    0    0  501 0.00000000E+00 0.00000000E+00 0.85948132E+02 0.85948728E+02 0.32000000E+00 0.0000E+00 0.9000E+01
        1 -1    0    0  501    0 0.00000000E+00 0.00000000E+00 -.60738175E+03 0.60738184E+03 0.32000000E+00 0.0000E+00 0.9000E+01
       25  2    1    2    0    0 0.85968141E+02 -.39720598E+02 -.45297921E+03 0.55148040E+03 0.29995369E+03 0.0000E+00 0.0000E+00
       23  2    3    3    0    0 0.39504948E+02 0.99627674E+02 -.18779392E+03 0.23491246E+03 0.91820445E+02 0.0000E+00 0.0000E+00
      -24  1    1    2    0    0 -.85968141E+02 0.39720598E+02 -.68454409E+02 0.14185016E+03 0.80419002E+02 0.0000E+00 0.9000E+01
      -11  1    4    4    0    0 0.38125109E+02 -.31467347E+01 -.47255832E+02 0.60799174E+02 0.51099893E-03 0.0000E+00 0.9000E+01
       11  1    4    4    0    0 0.13798390E+01 0.10277441E+03 -.14053809E+03 0.17411329E+03 0.51099893E-03 0.0000E+00 0.9000E+01
       23  1    3    3    0    0 0.46463193E+02 -.13934827E+03 -.26518530E+03 0.31656794E+03 0.91188000E+02 0.0000E+00 0.9000E+01
#aMCatNLO 1  0  0  2  1 0.38190892D+02 0.00000000D+00  -5  7  0 0.00000000D+00 0.00000000D+00 0.00000000D+00 0.00000000D+00 0.00000000D+00
  <mgrwgt>
 0.1363034424D-02    9    2    0
 0.228480990186525D+03 0.000000000000000D+00 0.000000000000000D+00 0.228480990186525D+03
 0.228480990186525D+03 0.000000000000000D+00 0.000000000000000D+00 -.228480990186525D+03
 0.137111241437866D+03 -.859681409054999D+02 0.397205976239074D+02 0.580002538607726D+02
 0.383251706638047D+02 0.381251088881729D+02 -.314673472906490D+01 -.232224874197781D+01
 0.103809031200949D+03 0.137983901662624D+01 0.102774408757272D+03 -.145544463227217D+02
 0.177716537070431D+03 0.464631930007007D+02 -.139348271652114D+03 -.411235587960731D+02
 0.000000000000000D+00 0.000000000000000D+00 0.000000000000000D+00 -.000000000000000D+00
 0.240497156566995D+03 0.000000000000000D+00 0.000000000000000D+00 0.240497156566995D+03
 0.261777481572142D+03 0.000000000000000D+00 0.000000000000000D+00 -.261777481572142D+03
 0.136207057527962D+03 -.888692859943103D+02 0.286943744487040D+02 0.580002538607726D+02
 0.379023493365247D+02 0.373159896447197D+02 -.622190990319766D+01 -.232224874197781D+01
 0.958348861870362D+02 -.739287191288035D+00 0.947203618931536D+02 -.145544463227217D+02
 0.188610824422209D+03 0.425748004938231D+02 -.154126671994443D+03 -.411235587960731D+02
 0.437195206654048D+02 0.971778304705564D+01 0.369338455557826D+02 -.212803250051477D+02
0.562949889771D-05 0.000000000000D+00 0.000000000000D+00 0.138243997603D-05 0.000000000000D+00  7 -2 1 -24 -11 11 23 21 0 0.13222842D-01 0.93443399D-01 0.47998467D+05 0.47998467D+05 0.47998467D+05 0.11488593D+01  1  2  2  2  7  2        1 0.804885753922D-03 0.100000000000D+01
-.312079455776D-06 0.000000000000D+00 -.216187580483D-07 0.138243997603D-05 0.000000000000D+00  7 -2 1 -24 -11 11 23 21 2 0.13222842D-01 0.93443399D-01 0.47998467D+05 0.47998467D+05 0.47998467D+05 0.11488593D+01  1  2  3  2  7  2        1 -.588929582096D-04 0.100000000000D+01
0.367307270172D-06 0.000000000000D+00 0.000000000000D+00 0.138243997603D-05 0.000000000000D+00  7 -2 1 -24 -11 11 23 21 2 0.13222842D-01 0.93443399D-01 0.47998467D+05 0.47998467D+05 0.47998467D+05 0.11488593D+01  1  2 15  2  7  2        1 0.693150776572D-04 0.100000000000D+01
0.947195955878D-05 0.000000000000D+00 0.000000000000D+00 0.138243997603D-05 0.000000000000D+00  7 -2 1 -24 -11 11 23 21 2 0.13222842D-01 0.10925580D+00 0.57135176D+05 0.57135176D+05 0.57135176D+05 0.11422342D+01  1  2 12  2  7  2        1 0.140742238994D-02 0.100000000000D+01
-.936797397308D-05 0.000000000000D+00 0.000000000000D+00 0.138243997603D-05 0.000000000000D+00  7 -2 1 -24 -11 11 23 21 2 0.13222842D-01 0.93443399D-01 0.47998467D+05 0.47998467D+05 0.47998467D+05 0.11488593D+01  1  2  4  2  7  2        1 -.176784369972D-02 0.100000000000D+01
-.211440928154D-04 0.000000000000D+00 -.464463472354D-05 0.138243997603D-05 0.000000000000D+00  7 -2 1 -24 -11 11 23 21 2 0.13222842D-01 0.11102353D+00 0.47998467D+05 0.47998467D+05 0.47998467D+05 0.11488593D+01  1  2  5  2  7  2        1 -.310203117350D-02 0.100000000000D+01
0.216898542890D-04 0.000000000000D+00 0.457646665397D-05 0.138243997603D-05 0.000000000000D+00  7 -2 1 -24 -11 11 23 21 2 0.13222842D-01 0.93443399D-01 0.47998467D+05 0.47998467D+05 0.47998467D+05 0.11488593D+01  1  2  6  2  7  2        1 0.409312326902D-02 0.100000000000D+01
0.223395276005D-06 0.000000000000D+00 0.000000000000D+00 0.138243997603D-05 0.000000000000D+00  7 -2 21 -24 -11 11 23 -1 2 0.13222842D-01 0.10925580D+00 0.57135176D+05 0.57135176D+05 0.57135176D+05 0.11422342D+01  1  2 12  4  7  2        1 0.705366682892D-04 0.100000000000D+01
-.497741223777D-06 0.000000000000D+00 -.118407315780D-06 0.138243997603D-05 0.000000000000D+00  7 -2 21 -24 -11 11 23 -1 2 0.13222842D-01 0.11102353D+00 0.47998467D+05 0.47998467D+05 0.47998467D+05 0.11488593D+01  1  2  5  4  7  2        1 -.153480903496D-03 0.100000000000D+01
  </mgrwgt>
  </event>
  <event>
  8     66 0.26562228E-05 0.35080639E+03 0.75467711E-02 0.93607779E-01
       -2 -1    0    0    0  501 0.00000000E+00 0.00000000E+00 0.91013221E+02 0.91013784E+02 0.32000000E+00 0.0000E+00 0.9000E+01
        1 -1    0    0  501    0 0.00000000E+00 0.00000000E+00 -.14739765E+04 0.14739766E+04 0.32000000E+00 0.0000E+00 0.9000E+01
       25  2    1    2    0    0 -.19271688E+03 0.21353494E+03 -.96987086E+03 0.10552359E+04 0.30022733E+03 0.0000E+00 0.0000E+00
       23  2    3    3    0    0 -.18413269E+03 0.23998132E+03 -.66946961E+03 0.74007049E+03 0.89548314E+02 0.0000E+00 0.0000E+00
      -24  1    1    2    0    0 0.19271688E+03 -.21353494E+03 -.41309247E+03 0.50975442E+03 0.80419002E+02 0.0000E+00 0.9000E+01
      -13  1    4    4    0    0 -.15556183E+03 0.16217261E+03 -.40821024E+03 0.46597752E+03 0.10565837E+00 0.0000E+00 0.9000E+01
       13  1    4    4    0    0 -.28570853E+02 0.77808703E+02 -.26125937E+03 0.27409297E+03 0.10565837E+00 0.0000E+00 0.9000E+01
       23  1    3    3    0    0 -.85841881E+01 -.26446372E+02 -.30040125E+03 0.31516545E+03 0.91188000E+02 0.0000E+00 0.9000E+01
#aMCatNLO 1  0  0  2  1 0.32243453D+03 0.00000000D+00  -5  7  0 0.00000000D+00 0.00000000D+00 0.00000000D+00 0.00000000D+00 0.00000000D+00
  <mgrwgt>
 0.8690616205D-03    3    2    0
 0.366267417149678D+03 0.000000000000000D+00 0.000000000000000D+00 0.366267417149678D+03
 0.366267417149678D+03 0.000000000000000D+00 0.000000000000000D+00 -.366267417149678D+03
 0.309158027668961D+03 0.192716875364933D+03 -.213534944977602D+03 0.798404868521042D+02
 0.224850301745803D+03 -.155562011333408D+03 0.162172731297161D+03 0.762391295213535D+01
 0.923377224600748D+02 -.285706758834016D+02 0.778085857690122D+02 -.406914665415943D+02
 0.106188782424517D+03 -.858418814812303D+01 -.264463720885715D+02 -.467729332626452D+02
 0.000000000000000D+00 -.000000000000000D+00 -.000000000000000D+00 0.000000000000000D+00
 0.629752220522951D+03 0.000000000000000D+00 0.000000000000000D+00 0.629752220522951D+03
 0.513392698389721D+03 0.000000000000000D+00 0.000000000000000D+00 -.513392698389721D+03
 0.413463824049479D+03 0.344052263777434D+03 -.199345565017359D+03 0.798404868521042D+02
 0.184158270845220D+03 -.699052171887131D+02 0.170204010768837D+03 0.762391295213535D+01
 0.915631827632313D+02 0.994284935140318D+01 0.814196581619114D+02 -.406914665415943D+02
 0.111171711396122D+03 0.369366256490997D+02 -.221782882659847D+02 -.467729332626452D+02
 0.342787929858619D+03 -.321026521589224D+03 -.300998156474054D+02 0.116359522133230D+03
0.308474243785D-04 0.000000000000D+00 0.000000000000D+00 0.162199656751D-05 0.000000000000D+00  7 -2 1 -24 -13 13 23 21 0 0.14002080D-01 0.22676567D+00 0.12306512D+06 0.12306512D+06 0.12306512D+06 0.11143996D+01  1  2  2  2  7  2        1 0.859753246799D-03 0.100000000000D+01
-.170986990871D-05 0.000000000000D+00 -.118462231927D-06 0.162199656751D-05 0.000000000000D+00  7 -2 1 -24 -13 13 23 21 2 0.14002080D-01 0.22676567D+00 0.12306512D+06 0.12306512D+06 0.12306512D+06 0.11143996D+01  1  2  3  2  7  2        1 -.591833986034D-04 0.100000000000D+01
0.197879850198D-05 0.000000000000D+00 0.000000000000D+00 0.162199656751D-05 0.000000000000D+00  7 -2 1 -24 -13 13 23 21 2 0.14002080D-01 0.22676567D+00 0.12306512D+06 0.12306512D+06 0.12306512D+06 0.11143996D+01  1  2 15  2  7  2        1 0.684917723281D-04 0.100000000000D+01
  </mgrwgt>
  </event>
  <event>
  9     66 0.26562228E-05 0.22543037E+03 0.75467711E-02 0.10264937E+00
       -4 -1    0    0    0  502 0.00000000E+00 0.00000000E+00 0.16544778E+03 0.16545504E+03 0.15500000E+01 0.0000E+00 0.9000E+01
        3 -1    0    0  501    0 0.00000000E+00 0.00000000E+00 -.63638962E+03 0.63638982E+03 0.50000000E+00 0.0000E+00 0.9000E+01
       25  2    1    2    0    0 -.90005854E+02 -.69384027E+02 -.40623896E+03 0.51820929E+03 0.30099099E+03 0.0000E+00 0.0000E+00
       23  2    3    3    0    0 0.63229079E+01 -.99098497E+02 -.64370018E+02 0.15030739E+03 0.92673195E+02 0.0000E+00 0.0000E+00
      -24  1    1    2    0    0 0.15643921E+03 0.49087224E+02 0.83695453E+01 0.18281151E+03 0.80419002E+02 0.0000E+00 0.9000E+01
      -13  1    4    4    0    0 -.11261839E+02 0.14540128E+02 0.26937298E+00 0.18393697E+02 0.10565837E+00 0.0000E+00 0.9000E+01
       13  1    4    4    0    0 0.17584747E+02 -.11363863E+03 -.64639391E+02 0.13191369E+03 0.10565837E+00 0.0000E+00 0.9000E+01
       23  1    3    3    0    0 -.96328762E+02 0.29714470E+02 -.34186895E+03 0.36790190E+03 0.91188000E+02 0.0000E+00 0.9000E+01
       21  1    1    2  501  502 -.66433354E+02 0.20296803E+02 -.73072421E+02 0.10082406E+03 0.75000000E+00 0.0000E+00 0.9000E+01
#aMCatNLO 2  0  0  1  1 0.69464744D+02 0.00000000D+00  -5  7  0 0.00000000D+00 0.00000000D+00 0.00000000D+00 0.00000000D+00 0.00000000D+00
  <mgrwgt>
 0.4087233056D-04    1    2    0
 0.286489411085555D+03 0.000000000000000D+00 0.000000000000000D+00 0.286489411085555D+03
 0.286489411085555D+03 0.000000000000000D+00 0.000000000000000D+00 -.286489411085555D+03
 0.213076264677667D+03 0.130973562868773D+03 0.568675221376672D+02 0.136184761886189D+03
 0.245118211125485D+02 -.139788064452486D+02 0.153703738065448D+02 0.130066888048779D+02
 0.110443093915650D+03 0.452493702471284D+01 -.109648729297846D+03 0.124240936068269D+02
 0.224947642465244D+03 -.121519693448237D+03 0.374108333536336D+02 -.161615544297894D+03
 0.000000000000000D+00 -.000000000000000D+00 0.000000000000000D+00 -.000000000000000D+00
 0.315003576572570D+03 0.000000000000000D+00 0.000000000000000D+00 0.315003576572570D+03
 0.334253236548722D+03 0.000000000000000D+00 0.000000000000000D+00 -.334253236548722D+03
 0.227807566679835D+03 0.156439209990803D+03 0.490872253205689D+02 0.136184761886189D+03
 0.225260730763903D+02 -.112618766565316D+02 0.145402939705155D+02 0.130066888048779D+02
 0.115660526138708D+03 0.175847831605734D+02 -.113638790058357D+03 0.124240936068269D+02
 0.211180055064530D+03 -.963287627415257D+02 0.297144682442770D+02 -.161615544297894D+03
 0.720825921618286D+02 -.664333537533186D+02 0.202968025229952D+02 -.192496599761521D+02
0.682115559439D-05 0.000000000000D+00 0.000000000000D+00 0.386126137473D-06 0.560495639173D-09  7 -4 3 -24 -13 13 23 21 2 0.25453924D-01 0.97906076D-01 0.67964269D+05 0.67964269D+05 0.67964269D+05 0.11357508D+01  1  2  1  1  7  1       -4 0.408723305619D-04 0.100000000000D+01
  </mgrwgt>
  </event>
  <event>
  8     66 0.26562228E-05 0.47953622E+03 0.75467711E-02 0.88126166E-01
       -2 -1    0    0    0  501 0.00000000E+00 0.00000000E+00 0.40484084E+03 0.40484097E+03 0.32000000E+00 0.0000E+00 0.9000E+01
        1 -1    0    0  501    0 0.00000000E+00 0.00000000E+00 -.71316038E+03 0.71316045E+03 0.32000000E+00 0.0000E+00 0.9000E+01
       25  2    1    2    0    0 0.26454039E+03 -.34093328E+03 0.80198151E+02 0.53180151E+03 0.30027319E+03 0.0000E+00 0.0000E+00
       23  2    3    3    0    0 -.20207679E+02 -.92847839E+02 0.54380619E+02 0.14243068E+03 0.91105301E+02 0.0000E+00 0.0000E+00
      -24  1    1    2    0    0 -.26454039E+03 0.34093328E+03 -.38851769E+03 0.58619990E+03 0.80419002E+02 0.0000E+00 0.9000E+01
      -11  1    4    4    0    0 0.35701633E+02 -.48578752E+02 0.23156452E+02 0.64581136E+02 0.51099893E-03 0.0000E+00 0.9000E+01
       11  1    4    4    0    0 -.55909313E+02 -.44269087E+02 0.31224167E+02 0.77849546E+02 0.51099893E-03 0.0000E+00 0.9000E+01
       23  1    3    3    0    0 0.28474807E+03 -.24808544E+03 0.25817532E+02 0.38937083E+03 0.91188000E+02 0.0000E+00 0.9000E+01
#aMCatNLO 1  0  0  2  1 0.68761804D+03 0.00000000D+00  -5  7  0 0.00000000D+00 0.00000000D+00 0.00000000D+00 0.00000000D+00 0.00000000D+00
  <mgrwgt>
 0.1887856933D-02    3    2    0
 0.537323512733284D+03 0.000000000000000D+00 0.000000000000000D+00 0.537323512733284D+03
 0.537323512733284D+03 0.000000000000000D+00 0.000000000000000D+00 -.537323512733284D+03
 0.498381995470679D+03 -.264540387341053D+03 0.340933279306346D+03 -.236009067583920D+03
 0.738301841138698D+02 0.357016333853970D+02 -.485787522802295D+02 0.426191774533334D+02
 0.899485329535881D+02 -.559093125817090D+02 -.442690865529641D+02 0.548191145761189D+02
 0.412486312928432D+03 0.284748066537365D+03 -.248085440473153D+03 0.138570775554468D+03
 0.000000000000000D+00 0.000000000000000D+00 -.000000000000000D+00 0.000000000000000D+00
 0.144932069743626D+04 0.000000000000000D+00 0.000000000000000D+00 0.144932069743626D+04
 0.783580578022893D+03 0.000000000000000D+00 0.000000000000000D+00 -.783580578022893D+03
 0.854942521457280D+03 -.401656338000540D+03 0.712342196702908D+03 -.236009067583920D+03
 0.505790680707520D+02 0.230967535721997D+02 -.144356438904581D+02 0.426191774533334D+02
 0.926025647934761D+02 -.744050000523987D+02 0.583057892690127D+01 0.548191145761189D+02
 0.277683354795337D+03 0.214821549340215D+03 -.586739830563389D+02 0.138570775554468D+03
 0.957093766342312D+03 0.238143035140523D+03 -.645063148683013D+03 0.665740119413371D+03
0.263877221840D-03 0.000000000000D+00 0.000000000000D+00 0.163325234598D-04 0.000000000000D+00  7 -2 1 -24 -11 11 23 21 0 0.62283221D-01 0.10971700D+00 0.22995499D+06 0.22995499D+06 0.22995499D+06 0.10932003D+01  1  2  2  2  7  2        1 0.186680337297D-02 0.100000000000D+01
-.144290913467D-04 0.000000000000D+00 -.101335801233D-05 0.163325234598D-04 0.000000000000D+00  7 -2 1 -24 -11 11 23 21 2 0.62283221D-01 0.10971700D+00 0.22995499D+06 0.22995499D+06 0.22995499D+06 0.10932003D+01  1  2  3  2  7  2        1 -.121993060473D-03 0.100000000000D+01
0.169192636202D-04 0.000000000000D+00 0.000000000000D+00 0.163325234598D-04 0.000000000000D+00  7 -2 1 -24 -11 11 23 21 2 0.62283221D-01 0.10971700D+00 0.22995499D+06 0.22995499D+06 0.22995499D+06 0.10932003D+01  1  2 15  2  7  2        1 0.143046620219D-03 0.100000000000D+01
  </mgrwgt>
  </event>
  <event>
  8     66 0.26562228E-05 0.18015785E+03 0.75467711E-02 0.10400789E+00
       -2 -1    0    0    0  501 0.00000000E+00 0.00000000E+00 0.13310730E+03 0.13310768E+03 0.32000000E+00 0.0000E+00 0.9000E+01
        1 -1    0    0  501    0 0.00000000E+00 0.00000000E+00 -.53373934E+03 0.53373944E+03 0.32000000E+00 0.0000E+00 0.9000E+01
       25  2    1    2    0    0 -.12871793E+03 -.59795992E+02 -.14371933E+03 0.36251962E+03 0.30103382E+03 0.0000E+00 0.0000E+00
       23  2    3    3    0    0 -.12616074E+03 -.13160884E+03 -.42855066E+02 0.20872601E+03 0.92155138E+02 0.0000E+00 0.0000E+00
      -24  1    1    2    0    0 0.12871793E+03 0.59795992E+02 -.25691272E+03 0.30432750E+03 0.80419002E+02 0.0000E+00 0.9000E+01
      -13  1    4    4    0    0 -.67692585E+01 -.14477615E+02 0.23808776E+02 0.28675655E+02 0.10565837E+00 0.0000E+00 0.9000E+01
       13  1    4    4    0    0 -.11939148E+03 -.11713123E+03 -.66663842E+02 0.18005035E+03 0.10565837E+00 0.0000E+00 0.9000E+01
       23  1    3    3    0    0 -.25571941E+01 0.71812852E+02 -.10086426E+03 0.15379361E+03 0.91188000E+02 0.0000E+00 0.9000E+01
#aMCatNLO 1  0  0  2  1 0.88237207D+01 0.00000000D+00  -5  7  0 0.00000000D+00 0.00000000D+00 0.00000000D+00 0.00000000D+00 0.00000000D+00
  <mgrwgt>
 0.1431986224D-02   11    2    0
 0.266542232524669D+03 0.000000000000000D+00 0.000000000000000D+00 0.266542232524669D+03
 0.266542232524669D+03 0.000000000000000D+00 0.000000000000000D+00 -.266542232524669D+03
 0.187610894028494D+03 0.128717937824246D+03 0.597959945462772D+02 -.926647890101492D+02
 0.537639958207397D+02 -.676911158122164D+01 -.144774803512995D+02 0.513337017727265D+02
 0.175128854593521D+03 -.119391628270403D+03 -.117131360943406D+03 0.519230112158964D+02
 0.116580720606583D+03 -.255719797262165D+01 0.718128467484287D+02 -.105919239784737D+02
 0.000000000000000D+00 -.000000000000000D+00 0.000000000000000D+00 -.000000000000000D+00
 0.270638684754804D+03 0.000000000000000D+00 0.000000000000000D+00 0.270638684754804D+03
 0.271373026524178D+03 0.000000000000000D+00 0.000000000000000D+00 -.271373026524178D+03
 0.188380332465040D+03 0.130854801039381D+03 0.575342648159962D+02 -.926647890101492D+02
 0.538686005369941D+02 -.615740545698246D+01 -.151249312117887D+02 0.513337017727265D+02
 0.175204954093269D+03 -.117400583330917D+03 -.119238751581265D+03 0.519230112158964D+02
 0.115703598947644D+03 -.123706127013242D+01 0.704155685291643D+02 -.105919239784737D+02
 0.885422523603543D+01 -.605975098134873D+01 0.641384944789335D+01 -.734341769374354D+00
0.650324911781D-05 0.000000000000D+00 0.000000000000D+00 0.355826216475D-06 0.000000000000D+00  7 -2 1 -24 -13 13 23 21 0 0.20478083D-01 0.82113782D-01 0.53468252D+05 0.53468252D+05 0.53468252D+05 0.11447423D+01  1  2  2  2  7  2        1 0.553166951257D-03 0.100000000000D+01
-.352420159581D-06 0.000000000000D+00 -.249741889572D-07 0.355826216475D-06 0.000000000000D+00  7 -2 1 -24 -13 13 23 21 2 0.20478083D-01 0.82113782D-01 0.53468252D+05 0.53468252D+05 0.53468252D+05 0.11447423D+01  1  2  3  2  7  2        1 -.392827614806D-04 0.100000000000D+01
0.417386084034D-06 0.000000000000D+00 0.000000000000D+00 0.355826216475D-06 0.000000000000D+00  7 -2 1 -24 -13 13 23 21 2 0.20478083D-01 0.82113782D-01 0.53468252D+05 0.53468252D+05 0.53468252D+05 0.11447423D+01  1  2 15  2  7  2        1 0.465242340391D-04 0.100000000000D+01
0.747779442951D-05 0.000000000000D+00 0.000000000000D+00 0.355826216475D-06 0.000000000000D+00  7 -2 1 -24 -13 13 23 21 2 0.20478083D-01 0.84222488D-01 0.55629808D+05 0.55629808D+05 0.55629808D+05 0.11432417D+01  1  2 12  2  7  2        1 0.802510789631D-03 0.100000000000D+01
-.604604696173D-05 0.000000000000D+00 0.000000000000D+00 0.355826216475D-06 0.000000000000D+00  7 -2 1 -24 -13 13 23 21 2 0.20478083D-01 0.82113782D-01 0.53468252D+05 0.53468252D+05 0.53468252D+05 0.11447423D+01  1  2  4  2  7  2        1 -.673926885966D-03 0.100000000000D+01
-.198595981373D-03 0.000000000000D+00 -.280562990919D-04 0.355826216475D-06 0.000000000000D+00  7 -2 1 -24 -13 13 23 21 2 0.20478083D-01 0.84673023D-01 0.53468252D+05 0.53468252D+05 0.53468252D+05 0.11447423D+01  1  2  5  2  7  2        1 -.212123250614D-01 0.100000000000D+01
0.199376362429D-03 0.000000000000D+00 0.280430904802D-04 0.355826216475D-06 0.000000000000D+00  7 -2 1 -24 -13 13 23 21 2 0.20478083D-01 0.82113782D-01 0.53468252D+05 0.53468252D+05 0.53468252D+05 0.11447423D+01  1  2  6  2  7  2        1 0.222236267627D-01 0.100000000000D+01
0.126310060281D-07 0.000000000000D+00 0.000000000000D+00 0.355826216475D-06 0.318647442973D-07  7 -2 1 -24 -13 13 23 21 2 0.20792808D-01 0.83602007D-01 0.55629808D+05 0.55629808D+05 0.55629808D+05 0.11432417D+01  1  2 11  2  7  2        1 0.133558231636D-05 0.100000000000D+01
0.179679645785D-06 0.000000000000D+00 0.000000000000D+00 0.355826216475D-06 0.000000000000D+00  7 -2 21 -24 -13 13 23 -1 2 0.20478083D-01 0.84222488D-01 0.55629808D+05 0.55629808D+05 0.55629808D+05 0.11432417D+01  1  2 12  4  7  2        1 0.542347793063D-04 0.100000000000D+01
-.108247407628D-05 0.000000000000D+00 -.154271583939D-06 0.355826216475D-06 0.000000000000D+00  7 -2 21 -24 -13 13 23 -1 2 0.20478083D-01 0.84673023D-01 0.53468252D+05 0.53468252D+05 0.53468252D+05 0.11447423D+01  1  2  5  4  7  2        1 -.323900537282D-03 0.100000000000D+01
0.746583169512D-10 0.000000000000D+00 0.000000000000D+00 0.355826216475D-06 0.105665236553D-09  7 -2 21 -24 -13 13 23 -1 2 0.20792808D-01 0.83602007D-01 0.55629808D+05 0.55629808D+05 0.55629808D+05 0.11432417D+01  1  2 11  4  7  2        1 0.223711226819D-07 0.100000000000D+01
  </mgrwgt>
  </event>
  <event>
  8     66 0.26562228E-05 0.26645892E+03 0.75467711E-02 0.94184254E-01
       -2 -1    0    0    0  501 0.00000000E+00 0.00000000E+00 0.50026655E+03 0.50026665E+03 0.32000000E+00 0.0000E+00 0.9000E+01
        1 -1    0    0  501    0 0.00000000E+00 0.00000000E+00 -.75752706E+03 0.75752713E+03 0.32000000E+00 0.0000E+00 0.9000E+01
       25  2    1    2    0    0 0.14570771E+03 0.93054583E+02 0.42555157E+03 0.54885835E+03 0.30043544E+03 0.0000E+00 0.0000E+00
       23  2    3    3    0    0 0.13672422E+03 -.53860422E+02 0.21865127E+03 0.27906638E+03 0.92060895E+02 0.0000E+00 0.0000E+00
      -24  1    1    2    0    0 -.14570771E+03 -.93054583E+02 -.68281208E+03 0.70893543E+03 0.80419002E+02 0.0000E+00 0.9000E+01
      -13  1    4    4    0    0 0.11471482E+03 -.42179842E+01 0.11753697E+03 0.16429313E+03 0.10565837E+00 0.0000E+00 0.9000E+01
       13  1    4    4    0    0 0.22009392E+02 -.49642438E+02 0.10111431E+03 0.11477325E+03 0.10565837E+00 0.0000E+00 0.9000E+01
       23  1    3    3    0    0 0.89834943E+01 0.14691500E+03 0.20690029E+03 0.26979197E+03 0.91188000E+02 0.0000E+00 0.9000E+01
#aMCatNLO 1  0  0  1  1 0.38118660D+03 0.00000000D+00  -5  7  0 0.00000000D+00 0.00000000D+00 0.00000000D+00 0.00000000D+00 0.00000000D+00
  <mgrwgt>
 0.1662706375D-02    3    2    0
 0.615601780985329D+03 0.000000000000000D+00 0.000000000000000D+00 0.615601780985329D+03
 0.615601780985329D+03 0.000000000000000D+00 0.000000000000000D+00 -.615601780985329D+03
 0.581572380661865D+03 -.145707709490572D+03 -.930545828543353D+02 -.549426360852076D+03
 0.192400825305870D+03 0.114714945533942D+03 -.421792438419138D+01 0.154404559399695D+03
 0.138379807919182D+03 0.220092696636147D+02 -.496424974728554D+02 0.127279950240725D+03
 0.318850548083741D+03 0.898349429301511D+01 0.146915004711382D+03 0.267741851211655D+03
 0.000000000000000D+00 0.000000000000000D+00 -.000000000000000D+00 -.000000000000000D+00
 0.680907150766277D+03 0.000000000000000D+00 0.000000000000000D+00 0.680907150766277D+03
 0.164031028506745D+04 0.000000000000000D+00 0.000000000000000D+00 -.164031028506745D+04
 0.646452581521101D+03 -.326882983913253D+03 -.520760312402773D+02 -.549426360852076D+03
 0.166481795761666D+03 0.617676037780708D+02 0.775780124329250D+01 0.154404559399695D+03
 0.134823317270821D+03 -.182974445349668D+02 -.405258518740403D+02 0.127279950240725D+03
 0.341104376045952D+03 -.883822093106404D+02 0.168937355847736D+03 0.267741851211655D+03
 0.103235536523419D+04 0.371795033980789D+03 -.840932739767104D+02 -.959403134301177D+03
0.363518406492D-03 0.000000000000D+00 0.000000000000D+00 0.113600623616D-04 0.000000000000D+00  7 -2 1 -24 -13 13 23 21 0 0.76964097D-01 0.11654264D+00 0.71000357D+05 0.71000357D+05 0.71000357D+05 0.11341361D+01  1  2  2  1  7  1       -2 0.155366671190D-02 0.100000000000D+01
-.297754317573D-05 0.000000000000D+00 -.139600639752D-05 0.113600623616D-04 0.000000000000D+00  7 -2 1 -24 -13 13 23 21 2 0.76964097D-01 0.11654264D+00 0.71000357D+05 0.71000357D+05 0.71000357D+05 0.11341361D+01  1  2  3  1  7  1       -2 -.163689147334D-04 0.100000000000D+01
0.228121082725D-04 0.000000000000D+00 0.000000000000D+00 0.113600623616D-04 0.000000000000D+00  7 -2 1 -24 -13 13 23 21 2 0.76964097D-01 0.11654264D+00 0.71000357D+05 0.71000357D+05 0.71000357D+05 0.11341361D+01  1  2 15  1  7  1       -2 0.125408577866D-03 0.100000000000D+01
  </mgrwgt>
  </event>
  <event>
  8     66 0.26562228E-05 0.17357688E+03 0.75467711E-02 0.10142334E+00
       -2 -1    0    0    0  501 0.00000000E+00 0.00000000E+00 0.20173628E+02 0.20176166E+02 0.32000000E+00 0.0000E+00 0.9000E+01
        1 -1    0    0  501    0 0.00000000E+00 0.00000000E+00 -.27171375E+04 0.27171375E+04 0.32000000E+00 0.0000E+00 0.9000E+01
       25  2    1    2    0    0 -.14980294E+02 0.48577490E+02 -.25015970E+04 0.25200129E+04 0.29982245E+03 0.0000E+00 0.0000E+00
       23  2    3    3    0    0 0.88855007E+02 0.29052105E+02 -.18104499E+04 0.18149153E+04 0.86311958E+02 0.0000E+00 0.0000E+00
      -24  1    1    2    0    0 0.14980294E+02 -.48577490E+02 -.19536688E+03 0.21730075E+03 0.80419002E+02 0.0000E+00 0.9000E+01
      -11  1    4    4    0    0 0.35672503E+02 -.19312665E+02 -.29677405E+03 0.29953354E+03 0.51099893E-03 0.0000E+00 0.9000E+01
       11  1    4    4    0    0 0.53182504E+02 0.48364769E+02 -.15136758E+04 0.15153818E+04 0.51099893E-03 0.0000E+00 0.9000E+01
       23  1    3    3    0    0 -.10383530E+03 0.19525385E+02 -.69114709E+03 0.70509756E+03 0.91188000E+02 0.0000E+00 0.9000E+01
#aMCatNLO 1  0  0  2  1 0.18023509D+03 0.00000000D+00  -5  7  0 0.00000000D+00 0.00000000D+00 0.00000000D+00 0.00000000D+00 0.00000000D+00
  <mgrwgt>
 0.1273807915D-02    3    2    0
 0.234132482273018D+03 0.000000000000000D+00 0.000000000000000D+00 0.234132482273018D+03
 0.234132482273018D+03 0.000000000000000D+00 0.000000000000000D+00 -.234132482273018D+03
 0.145052269864943D+03 0.149802939003087D+02 -.485774895348032D+02 0.109493211404900D+03
 0.417036845627190D+02 0.356725027661804D+02 -.193126648674308D+02 -.967940226573531D+01
 0.140404170281648D+03 0.531825038258420D+02 0.483647694212120D+02 -.120605975797741D+03
 0.141104839836725D+03 -.103835300492331D+03 0.195253849810220D+02 0.207921666585770D+02
 0.000000000000000D+00 -.000000000000000D+00 0.000000000000000D+00 0.000000000000000D+00
 0.407167789245799D+03 0.000000000000000D+00 0.000000000000000D+00 0.407167789245799D+03
 0.302838732406075D+03 0.000000000000000D+00 0.000000000000000D+00 -.302838732406075D+03
 0.174967250337473D+03 0.353512368855585D+02 -.104440650338785D+03 0.109493211404900D+03
 0.563736805980991D+02 0.419156482235914D+02 -.364332193190598D+02 -.967940226573531D+01
 0.139969143835886D+03 0.710297551212044D+02 -.577681094889414D+00 -.120605975797741D+03
 0.130443616202223D+03 -.865497983073294D+02 -.278765830494968D+02 0.207921666585770D+02
 0.208252830678192D+03 -.617468419230249D+02 0.169328133802231D+03 0.104329056839724D+03
0.299925111097D-04 0.000000000000D+00 0.000000000000D+00 0.101653536358D-06 0.000000000000D+00  7 -2 1 -24 -11 11 23 21 0 0.31038317D-02 0.41802135D+00 0.30128932D+05 0.30128932D+05 0.30128932D+05 0.11671632D+01  1  2  2  2  7  2        1 0.125355317129D-02 0.100000000000D+01
-.148480849174D-05 0.000000000000D+00 -.115179139871D-06 0.101653536358D-06 0.000000000000D+00  7 -2 1 -24 -11 11 23 21 2 0.31038317D-02 0.41802135D+00 0.30128932D+05 0.30128932D+05 0.30128932D+05 0.11671632D+01  1  2  3  2  7  2        1 -.845402469021D-04 0.100000000000D+01
0.184054929445D-05 0.000000000000D+00 0.000000000000D+00 0.101653536358D-06 0.000000000000D+00  7 -2 1 -24 -11 11 23 21 2 0.31038317D-02 0.41802135D+00 0.30128932D+05 0.30128932D+05 0.30128932D+05 0.11671632D+01  1  2 15  2  7  2        1 0.104794990501D-03 0.100000000000D+01
  </mgrwgt>
  </event>
  <event>
  8     66 0.26562228E-05 0.37072812E+03 0.75467711E-02 0.96226062E-01
       -2 -1    0    0    0  501 0.00000000E+00 0.00000000E+00 0.36668674E+03 0.36668688E+03 0.32000000E+00 0.0000E+00 0.9000E+01
        1 -1    0    0  501    0 0.00000000E+00 0.00000000E+00 -.56708917E+03 0.56708926E+03 0.32000000E+00 0.0000E+00 0.9000E+01
       25  2    1    2    0    0 0.33238769E+03 0.22382274E+02 -.34097326E+03 0.56335757E+03 0.30021068E+03 0.0000E+00 0.0000E+00
       23  2    3    3    0    0 0.27265764E+03 -.17257884E+02 -.34183399E+03 0.44736183E+03 0.92962916E+02 0.0000E+00 0.0000E+00
      -24  1    1    2    0    0 -.33238769E+03 -.22382274E+02 0.14057082E+03 0.37041857E+03 0.80419002E+02 0.0000E+00 0.9000E+01
      -13  1    4    4    0    0 0.27392755E+03 -.86617972E+01 -.30733010E+03 0.41178044E+03 0.10565837E+00 0.0000E+00 0.9000E+01
       13  1    4    4    0    0 -.12699109E+01 -.85960867E+01 -.34503891E+02 0.35581386E+02 0.10565837E+00 0.0000E+00 0.9000E+01
       23  1    3    3    0    0 0.59730049E+02 0.39640158E+02 0.86073223E+00 0.11599575E+03 0.91188000E+02 0.0000E+00 0.9000E+01
#aMCatNLO 1  0  0  1  2 0.12003879D+03 0.00000000D+00  -5  7  0 0.00000000D+00 0.00000000D+00 0.00000000D+00 0.00000000D+00 0.00000000D+00
  <mgrwgt>
 0.1425965392D-02    4    2    0
 0.456008974563453D+03 0.000000000000000D+00 0.000000000000000D+00 0.456008974563453D+03
 0.456008974563453D+03 0.000000000000000D+00 0.000000000000000D+00 -.456008974563453D+03
 0.410144069317866D+03 -.332387690521427D+03 -.223822741263725D+02 0.225318438297916D+03
 0.354073548510578D+03 0.273927908016939D+03 -.866179743493738D+01 -.224179731977564D+03
 0.288481192131817D+02 -.127026621475337D+01 -.859608661280138D+01 -.275083205744519D+02
 0.118952212085280D+03 0.597300487192413D+02 0.396401581741113D+02 0.263696142541002D+02
 0.000000000000000D+00 -.000000000000000D+00 -.000000000000000D+00 -.000000000000000D+00
 0.489208493238962D+03 0.000000000000000D+00 0.000000000000000D+00 0.489208493238962D+03
 0.583028368850402D+03 0.000000000000000D+00 0.000000000000000D+00 -.583028368850402D+03
 0.369906990671569D+03 -.281275665797071D+03 -.218990179398091D+02 0.225318438297916D+03
 0.393168980640917D+03 0.322890188288180D+03 -.819886674539937D+01 -.224179731977564D+03
 0.289190416164608D+02 0.251486620032279D+01 -.856029877879535D+01 -.275083205744519D+02
 0.127888703365420D+03 0.759040399111380D+02 0.397930807270146D+02 0.263696142541002D+02
 0.152353145794997D+03 -.120033428602570D+03 -.113489726301080D+01 -.938198756114396D+02
0.145042758199D-03 0.000000000000D+00 0.000000000000D+00 0.387672416385D-05 0.000000000000D+00  7 -2 1 -24 -13 13 23 21 0 0.56413362D-01 0.87244506D-01 0.13743934D+06 0.13743934D+06 0.13743934D+06 0.11105616D+01  1  2  2  1  7  1       -2 0.178961169618D-02 0.100000000000D+01
-.763795128334D-05 0.000000000000D+00 -.557002382121D-06 0.387672416385D-05 0.000000000000D+00  7 -2 1 -24 -13 13 23 21 2 0.56413362D-01 0.87244506D-01 0.13743934D+06 0.13743934D+06 0.13743934D+06 0.11105616D+01  1  2  3  1  7  1       -2 -.116231796394D-03 0.100000000000D+01
0.936019791014D-05 0.000000000000D+00 0.000000000000D+00 0.387672416385D-05 0.000000000000D+00  7 -2 1 -24 -13 13 23 21 2 0.56413362D-01 0.87244506D-01 0.13743934D+06 0.13743934D+06 0.13743934D+06 0.11105616D+01  1  2 15  1  7  1       -2 0.142440371422D-03 0.100000000000D+01
-.256185714277D-04 0.000000000000D+00 0.000000000000D+00 0.387672416385D-05 0.000000000000D+00  7 -2 1 -24 -13 13 23 21 2 0.56413362D-01 0.87244506D-01 0.13743934D+06 0.13743934D+06 0.13743934D+06 0.11105616D+01  1  2  4  1  7  1       -2 -.389854879618D-03 0.100000000000D+01
  </mgrwgt>
  </event>
  <event>
  7     66 0.26562228E-05 0.22192169E+03 0.75467711E-02 0.10360459E+00
       -2 -1    0    0    0  501 0.00000000E+00 0.00000000E+00 0.11880900E+03 0.11880943E+03 0.32000000E+00 0.0000E+00 0.9000E+01
        1 -1    0    0  501    0 0.00000000E+00 0.00000000E+00 -.79638601E+03 0.79638607E+03 0.32000000E+00 0.0000E+00 0.9000E+01
       23  2    1    2    0    0 0.92391903E+02 0.15831241E+03 -.91858462E+02 0.22410989E+03 0.90488588E+02 0.0000E+00 0.0000E+00
      -24  1    1    2    0    0 -.12924558E+03 -.12541582E+03 -.16311863E+03 0.25594618E+03 0.80419002E+02 0.0000E+00 0.9000E+01
      -13  1    3    3    0    0 0.33060911E+02 0.79056909E+02 0.46945702E+01 0.85819979E+02 0.10565837E+00 0.0000E+00 0.9000E+01
       13  1    3    3    0    0 0.59330992E+02 0.79255496E+02 -.96553033E+02 0.13828991E+03 0.10565837E+00 0.0000E+00 0.9000E+01
       23  1    1    2    0    0 0.36853673E+02 -.32896585E+02 -.42259992E+03 0.43513943E+03 0.91188000E+02 0.0000E+00 0.9000E+01
#aMCatNLO 1  0  0  1  1 0.16694043D+00 0.00000000D+00  -5  7  0 0.00000000D+00 0.00000000D+00 0.00000000D+00 0.00000000D+00 0.00000000D+00
  <mgrwgt>
 0.3035385187D-03    6    2    0
 0.307600474557287D+03 0.000000000000000D+00 0.000000000000000D+00 0.307600474557287D+03
 0.307600474557287D+03 0.000000000000000D+00 0.000000000000000D+00 -.307600474557287D+03
 0.201108252337982D+03 -.129253810359146D+03 -.125423810728082D+03 0.392381627265486D+02
 0.132832563276783D+03 0.330613141187343D+02 0.790539351876367D+02 0.101498348295782D+03
 0.993852512756290D+02 0.593338190491034D+02 0.792572536518917D+02 0.867259083134120D+01
 0.181874882224180D+03 0.368586771913081D+02 -.328873781114468D+02 -.149409101853672D+03
 0.000000000000000D+00 0.000000000000000D+00 -.000000000000000D+00 -.000000000000000D+00
 0.307673252611256D+03 0.000000000000000D+00 0.000000000000000D+00 0.307673252611256D+03
 0.307696233996459D+03 0.000000000000000D+00 0.000000000000000D+00 -.307696233996459D+03
 0.201079701058103D+03 -.129261764713899D+03 -.125369824886769D+03 0.392381627265486D+02
 0.132852483293246D+03 0.330560594782232D+02 0.790895981920660D+02 0.101498348295782D+03
 0.994041854239310D+02 0.593298874502395D+02 0.792839372332713D+02 0.867259083134120D+01
 0.181864601989704D+03 0.368514832590417D+02 -.328385532227145D+02 -.149409101853672D+03
 0.168514842731597D+00 0.243345263943806D-01 -.165157315854263D+00 -.229813852026227D-01
0.462810338330D-05 0.000000000000D+00 0.000000000000D+00 0.188929158663D-09 0.000000000000D+00  7 -2 1 -24 -13 13 23 21 0 0.18278346D-01 0.12252096D+00 0.58963109D+05 0.58963109D+05 0.58963109D+05 0.11410493D+01  1  2  2  1  7  1       -2 0.264029471743D-03 0.100000000000D+01
-.239636213586D-06 0.000000000000D+00 -.177731355995D-07 0.188929158663D-09 0.000000000000D+00  7 -2 1 -24 -13 13 23 21 2 0.18278346D-01 0.12252096D+00 0.58963109D+05 0.58963109D+05 0.58963109D+05 0.11410493D+01  1  2  3  1  7  1       -2 -.177996168325D-04 0.100000000000D+01
0.294706729811D-06 0.000000000000D+00 0.000000000000D+00 0.188929158663D-09 0.000000000000D+00  7 -2 1 -24 -13 13 23 21 2 0.18278346D-01 0.12252096D+00 0.58963109D+05 0.58963109D+05 0.58963109D+05 0.11410493D+01  1  2 15  1  7  1       -2 0.218901258291D-04 0.100000000000D+01
-.866916496946D-03 0.000000000000D+00 0.000000000000D+00 0.188929158663D-09 0.000000000000D+00  7 -2 1 -24 -13 13 23 21 2 0.18278346D-01 0.12252096D+00 0.58963109D+05 0.58963109D+05 0.58963109D+05 0.11410493D+01  1  2  4  1  7  1       -2 -.643925274920D-01 0.100000000000D+01
0.866916573091D-03 0.000000000000D+00 0.000000000000D+00 0.188929158663D-09 0.470720983032D-07  7 -2 1 -24 -13 13 23 21 2 0.18282670D-01 0.12255910D+00 0.59004319D+05 0.59004319D+05 0.59004319D+05 0.11410231D+01  1  2 11  1  7  1       -2 0.643333054253D-01 0.100000000000D+01
0.964648646522D-07 0.000000000000D+00 0.000000000000D+00 0.188929158663D-09 0.208746770520D-11  7 21 1 -24 -13 13 23 2 2 0.18282670D-01 0.12255910D+00 0.59004319D+05 0.59004319D+05 0.59004319D+05 0.11410231D+01  1  2 11  3  7  1       -2 0.946406046700D-04 0.100000000000D+01
  </mgrwgt>
  </event>
  <event>
  8     66 0.26562228E-05 0.18140418E+03 0.75467711E-02 0.10129296E+00
       -2 -1    0    0    0  501 0.00000000E+00 0.00000000E+00 0.89924214E+02 0.89924784E+02 0.32000000E+00 0.0000E+00 0.9000E+01
        1 -1    0    0  501    0 0.00000000E+00 0.00000000E+00 -.11631351E+04 0.11631352E+04 0.32000000E+00 0.0000E+00 0.9000E+01
       25  2    1    2    0    0 0.13661644E+03 0.13756601E+03 -.93646308E+03 0.10025492E+04 0.30092082E+03 0.0000E+00 0.0000E+00
       23  2    3    3    0    0 0.72306713E+02 0.19418516E+03 -.67943715E+03 0.71668376E+03 0.95208375E+02 0.0000E+00 0.0000E+00
      -24  1    1    2    0    0 -.13661644E+03 -.13756601E+03 -.13674785E+03 0.25051077E+03 0.80419002E+02 0.0000E+00 0.9000E+01
      -11  1    4    4    0    0 0.13122166E+02 0.14361932E+03 -.51397183E+03 0.53382182E+03 0.51099893E-03 0.0000E+00 0.9000E+01
       11  1    4    4    0    0 0.59184548E+02 0.50565843E+02 -.16546532E+03 0.18286194E+03 0.51099893E-03 0.0000E+00 0.9000E+01
       23  1    3    3    0    0 0.64309724E+02 -.56619152E+02 -.25702593E+03 0.28586544E+03 0.91188000E+02 0.0000E+00 0.9000E+01
#aMCatNLO 1  0  0  2  1 0.20302572D+02 0.00000000D+00  -5  7  0 0.00000000D+00 0.00000000D+00 0.00000000D+00 0.00000000D+00 0.00000000D+00
  <mgrwgt>
 0.1675722014D-02    9    2    0
 0.323410572421984D+03 0.000000000000000D+00 0.000000000000000D+00 0.323410572421984D+03
 0.323410572421984D+03 0.000000000000000D+00 0.000000000000000D+00 -.323410572421984D+03
 0.258411056448312D+03 -.136616437297705D+03 -.137566005854075D+03 0.150733543824197D+03
 0.181364781261233D+03 0.131221656607137D+02 0.143619315162663D+03 -.109974928790680D+03
 0.797094864093582D+02 0.591845475678792D+02 0.505658429059761D+02 -.171431351869271D+02
 0.127335820725065D+03 0.643097240691121D+02 -.566191522145645D+02 -.236154798465893D+02
 0.000000000000000D+00 -.000000000000000D+00 -.000000000000000D+00 -.000000000000000D+00
 0.333223956360083D+03 0.000000000000000D+00 0.000000000000000D+00 0.333223956360083D+03
 0.334243916970760D+03 0.000000000000000D+00 0.000000000000000D+00 -.334243916970760D+03
 0.253906698462501D+03 -.136004995305293D+03 -.129550899603063D+03 0.150733543824197D+03
 0.185980327376579D+03 0.135605854167644D+02 0.149366354081965D+03 -.109974928790680D+03
 0.814726227382514D+02 0.593769155055776D+02 0.530875039614379D+02 -.171431351869271D+02
 0.125780048735269D+03 0.646118132902068D+02 -.526592063253283D+02 -.236154798465893D+02
 0.203281760182425D+02 -.154431890725606D+01 -.202437521150109D+02 -.101996061067730D+01
0.119734226898D-04 0.000000000000D+00 0.000000000000D+00 0.109212525823D-06 0.000000000000D+00  7 -2 1 -24 -11 11 23 21 0 0.13834542D-01 0.17894392D+00 0.77585357D+05 0.77585357D+05 0.77585357D+05 0.11308807D+01  1  2  2  2  7  2        1 0.558611454918D-03 0.100000000000D+01
-.647148734525D-06 0.000000000000D+00 -.459810958036D-07 0.109212525823D-06 0.000000000000D+00  7 -2 1 -24 -11 11 23 21 2 0.13834542D-01 0.17894392D+00 0.77585357D+05 0.77585357D+05 0.77585357D+05 0.11308807D+01  1  2  3  2  7  2        1 -.386126143931D-04 0.100000000000D+01
0.776373571972D-06 0.000000000000D+00 0.000000000000D+00 0.109212525823D-06 0.000000000000D+00  7 -2 1 -24 -11 11 23 21 2 0.13834542D-01 0.17894392D+00 0.77585357D+05 0.77585357D+05 0.77585357D+05 0.11308807D+01  1  2 15  2  7  2        1 0.463229111953D-04 0.100000000000D+01
0.258337358432D-04 0.000000000000D+00 0.000000000000D+00 0.109212525823D-06 0.000000000000D+00  7 -2 1 -24 -11 11 23 21 2 0.13834542D-01 0.18756725D+00 0.83462738D+05 0.83462738D+05 0.83462738D+05 0.11282220D+01  1  2 12  2  7  2        1 0.140043374317D-02 0.100000000000D+01
-.205157245758D-04 0.000000000000D+00 0.000000000000D+00 0.109212525823D-06 0.000000000000D+00  7 -2 1 -24 -11 11 23 21 2 0.13834542D-01 0.17894392D+00 0.77585357D+05 0.77585357D+05 0.77585357D+05 0.11308807D+01  1  2  4  2  7  2        1 -.122408608683D-02 0.100000000000D+01
-.159802655965D-03 0.000000000000D+00 -.269735892515D-04 0.109212525823D-06 0.000000000000D+00  7 -2 1 -24 -11 11 23 21 2 0.13834542D-01 0.18872458D+00 0.77585357D+05 0.77585357D+05 0.77585357D+05 0.11308807D+01  1  2  5  2  7  2        1 -.860944179241D-02 0.100000000000D+01
0.161048143106D-03 0.000000000000D+00 0.269354400646D-04 0.109212525823D-06 0.000000000000D+00  7 -2 1 -24 -11 11 23 21 2 0.13834542D-01 0.17894392D+00 0.77585357D+05 0.77585357D+05 0.77585357D+05 0.11308807D+01  1  2  6  2  7  2        1 0.960905819132D-02 0.100000000000D+01
0.300344976872D-06 0.000000000000D+00 0.000000000000D+00 0.109212525823D-06 0.000000000000D+00  7 -2 21 -24 -11 11 23 -1 2 0.13834542D-01 0.18756725D+00 0.83462738D+05 0.83462738D+05 0.83462738D+05 0.11282220D+01  1  2 12  4  7  2        1 0.176658732491D-04 0.100000000000D+01
-.144789150812D-05 0.000000000000D+00 -.248913907600D-06 0.109212525823D-06 0.000000000000D+00  7 -2 21 -24 -11 11 23 -1 2 0.13834542D-01 0.18872458D+00 0.77585357D+05 0.77585357D+05 0.77585357D+05 0.11308807D+01  1  2  5  4  7  2        1 -.842296657968D-04 0.100000000000D+01
  </mgrwgt>
  </event>
  <event>
  8     66 0.26562228E-05 0.50052070E+03 0.75467711E-02 0.82786181E-01
       -2 -1    0    0    0  501 0.00000000E+00 0.00000000E+00 0.19557775E+03 0.19557801E+03 0.32000000E+00 0.0000E+00 0.9000E+01
        1 -1    0    0  501    0 0.00000000E+00 0.00000000E+00 -.20010710E+04 0.20010711E+04 0.32000000E+00 0.0000E+00 0.9000E+01
       25  2    1    2    0    0 -.24014809E+03 -.38880921E+03 -.15971147E+04 0.16879915E+04 0.29949327E+03 0.0000E+00 0.0000E+00
       23  2    3    3    0    0 -.89843307E+02 -.34120840E+03 -.10442104E+04 0.11058611E+04 0.89768877E+02 0.0000E+00 0.0000E+00
      -24  1    1    2    0    0 0.24014809E+03 0.38880921E+03 -.20837863E+03 0.50865762E+03 0.80419002E+02 0.0000E+00 0.9000E+01
      -13  1    4    4    0    0 -.26096471E+02 -.46072641E+02 -.26410191E+03 0.26935765E+03 0.10565837E+00 0.0000E+00 0.9000E+01
       13  1    4    4    0    0 -.63746836E+02 -.29513576E+03 -.78010848E+03 0.83650346E+03 0.10565837E+00 0.0000E+00 0.9000E+01
       23  1    3    3    0    0 -.15030478E+03 -.47600803E+02 -.55290426E+03 0.58213034E+03 0.91188000E+02 0.0000E+00 0.9000E+01
#aMCatNLO 1  0  0  2  2 0.15617992D+04 0.00000000D+00  -5  7  0 0.00000000D+00 0.00000000D+00 0.00000000D+00 0.00000000D+00 0.00000000D+00
  <mgrwgt>
 0.2167361302D-02    3    2    0
 0.625591947483274D+03 0.000000000000000D+00 0.000000000000000D+00 0.625591947483274D+03
 0.625591947483274D+03 0.000000000000000D+00 0.000000000000000D+00 -.625591947483274D+03
 0.592331847046399D+03 0.240148089084088D+03 0.388809206145886D+03 0.368165856098166D+03
 0.917927213581170D+02 -.260964187549651D+02 -.460722959082018D+02 -.749814921980185D+02
 0.342894718496820D+03 -.637468885587938D+02 -.295136107547114D+03 -.162504769757766D+03
 0.224164608065212D+03 -.150304781770329D+03 -.476008026905696D+02 -.130679594142381D+03
 0.000000000000000D+00 0.000000000000000D+00 0.000000000000000D+00 0.000000000000000D+00
 0.115242103575228D+05 0.000000000000000D+00 0.000000000000000D+00 0.115242103575228D+05
 0.105853077814993D+04 0.000000000000000D+00 0.000000000000000D+00 -.105853077814993D+04
 0.430631851121269D+03 0.183315671088743D+03 -.991253871747719D+02 0.368165856098166D+03
 0.207707764240927D+03 -.427356570953501D+02 -.188928438214981D+03 -.749814921980185D+02
 0.923570742264290D+03 -.134107444433421D+03 -.899216497357630D+03 -.162504769757766D+03
 0.439258784504934D+03 -.187162351224623D+03 -.364041380037497D+03 -.130679594142381D+03
 0.105815719935413D+05 0.180689781664651D+03 0.155131170278488D+04 0.104656795793729D+05
0.631754617844D-03 0.000000000000D+00 0.000000000000D+00 0.646442535071D-05 0.000000000000D+00  7 -2 1 -24 -13 13 23 21 0 0.30088907D-01 0.30785710D+00 0.25052097D+06 0.25052097D+06 0.25052097D+06 0.10903911D+01  1  2  2  2  7  2        1 0.213709116426D-02 0.100000000000D+01
-.329744327781D-04 0.000000000000D+00 -.242610407733D-05 0.646442535071D-05 0.000000000000D+00  7 -2 1 -24 -13 13 23 21 2 0.30088907D-01 0.30785710D+00 0.25052097D+06 0.25052097D+06 0.25052097D+06 0.10903911D+01  1  2  3  2  7  2        1 -.132622299574D-03 0.100000000000D+01
0.405006227535D-04 0.000000000000D+00 0.000000000000D+00 0.646442535071D-05 0.000000000000D+00  7 -2 1 -24 -13 13 23 21 2 0.30088907D-01 0.30785710D+00 0.25052097D+06 0.25052097D+06 0.25052097D+06 0.10903911D+01  1  2 15  2  7  2        1 0.162892437298D-03 0.100000000000D+01
  </mgrwgt>
  </event>
  <event>
  9     66 0.26562228E-05 0.25818299E+03 0.75467711E-02 0.99599696E-01
       21 -1    0    0  502  501 0.00000000E+00 0.00000000E+00 0.19501176E+03 0.19501321E+03 0.75000000E+00 0.0000E+00 0.9000E+01
        1 -1    0    0  501    0 0.00000000E+00 0.00000000E+00 -.13033259E+04 0.13033260E+04 0.32000000E+00 0.0000E+00 0.9000E+01
       25  2    1    2    0    0 -.93562355E+02 -.56583255E+01 -.75479116E+03 0.81889518E+03 0.30346941E+03 0.0000E+00 0.0000E+00
       23  2    3    3    0    0 -.15700228E+03 -.38173414E+02 -.32968568E+03 0.37831399E+03 0.91224478E+02 0.0000E+00 0.0000E+00
      -24  1    1    2    0    0 0.22002909E+03 -.58499054E+01 -.45834798E+03 0.51477870E+03 0.80419002E+02 0.0000E+00 0.9000E+01
      -11  1    4    4    0    0 -.15484399E+03 -.11098030E+02 -.30180140E+03 0.33938755E+03 0.51099893E-03 0.0000E+00 0.9000E+01
       11  1    4    4    0    0 -.21582932E+01 -.27075385E+02 -.27884278E+02 0.38926439E+02 0.51099893E-03 0.0000E+00 0.9000E+01
       23  1    3    3    0    0 0.63439926E+02 0.32515089E+02 -.42510549E+03 0.44058118E+03 0.91188000E+02 0.0000E+00 0.9000E+01
        2  1    1    2  502    0 -.12646673E+03 0.11508231E+02 0.10482499E+03 0.16466528E+03 0.32000000E+00 0.0000E+00 0.9000E+01
#aMCatNLO 2  0  0  1  2 0.12698927D+03 0.00000000D+00  -5  7  0 0.00000000D+00 0.00000000D+00 0.00000000D+00 0.00000000D+00 0.00000000D+00
  <mgrwgt>
 0.6884977696D-03    2    2    0
 0.269654014924294D+03 0.000000000000000D+00 0.000000000000000D+00 0.269654014924294D+03
 0.269654014924294D+03 0.000000000000000D+00 0.000000000000000D+00 -.269654014924294D+03
 0.190268524658649D+03 0.170776002578901D+03 -.136796872413741D+01 0.238449392146298D+02
 0.196474206579358D+03 -.195628859995029D+03 -.738668409810771D+01 0.166403090737063D+02
 0.334670119074427D+02 -.980539619029614D+01 -.263795130446397D+02 0.181112225730877D+02
 0.119098286703137D+03 0.346582536064233D+02 0.351341658668848D+02 -.585964708614237D+02
 0.000000000000000D+00 -.000000000000000D+00 0.000000000000000D+00 0.000000000000000D+00
 0.896406152154759D+03 0.000000000000000D+00 0.000000000000000D+00 0.896406152154759D+03
 0.283537684860149D+03 0.000000000000000D+00 0.000000000000000D+00 -.283537684860149D+03
 0.235547910936082D+03 0.220029088697521D+03 -.584990536430084D+01 0.238449392146298D+02
 0.156130479574856D+03 -.154843987638643D+03 -.110980294813845D+02 0.166403090737063D+02
 0.326458431389478D+02 -.215829318780241D+01 -.270753847927660D+02 0.181112225730877D+02
 0.129733006342319D+03 0.634399258973433D+02 0.325150887334200D+02 -.585964708614237D+02
 0.625886597022703D+03 -.126466733768418D+03 0.115082309050314D+02 0.612868467294610D+03
-.579427375539D-05 0.000000000000D+00 0.000000000000D+00 0.584984734658D-07 0.000000000000D+00  7 21 1 -24 -11 11 23 2 2 0.29560977D-01 0.19069353D+00 0.10872697D+06 0.10872697D+06 0.10872697D+06 0.11187523D+01  1  2 13  3  7  1       -2 -.100120972412D-02 0.100000000000D+01
0.111358017031D-04 0.000000000000D+00 0.000000000000D+00 0.584984734658D-07 0.696009114322D-11  7 21 1 -24 -11 11 23 2 2 0.30001920D-01 0.20051177D+00 0.10872697D+06 0.10872697D+06 0.10872697D+06 0.11187523D+01  1  2  1  3  7  1       -2 0.168970749372D-02 0.100000000000D+01
  </mgrwgt>
  </event>
  <event>
  8     66 0.26562228E-05 0.20615174E+03 0.75467711E-02 0.10589329E+00
       -2 -1    0    0    0  501 0.00000000E+00 0.00000000E+00 0.10527533E+03 0.10527581E+03 0.32000000E+00 0.0000E+00 0.9000E+01
        1 -1    0    0  501    0 0.00000000E+00 0.00000000E+00 -.49618720E+03 0.49618730E+03 0.32000000E+00 0.0000E+00 0.9000E+01
       25  2    1    2    0    0 -.74744108E+02 0.78667593E+02 -.30355670E+03 0.44061096E+03 0.30035992E+03 0.0000E+00 0.0000E+00
       23  2    3    3    0    0 -.13823626E+03 0.40916403E+02 -.87952667E+02 0.19513845E+03 0.97774880E+02 0.0000E+00 0.0000E+00
      -24  1    1    2    0    0 0.74744108E+02 -.78667593E+02 -.87355178E+02 0.16085215E+03 0.80419002E+02 0.0000E+00 0.9000E+01
      -11  1    4    4    0    0 -.14463848E+03 0.45928271E+02 -.99169254E+02 0.18128496E+03 0.51099893E-03 0.0000E+00 0.9000E+01
       11  1    4    4    0    0 0.64022217E+01 -.50118680E+01 0.11216588E+02 0.13853487E+02 0.51099893E-03 0.0000E+00 0.9000E+01
       23  1    3    3    0    0 0.63492154E+02 0.37751189E+02 -.21560403E+03 0.24547251E+03 0.91188000E+02 0.0000E+00 0.9000E+01
#aMCatNLO 1  0  0  1  2 0.12698927D+03 0.00000000D+00  -5  7  0 0.00000000D+00 0.00000000D+00 0.00000000D+00 0.00000000D+00 0.00000000D+00
  <mgrwgt>
 0.4079687245D-05    1    2    0
 0.228552940459961D+03 0.000000000000000D+00 0.000000000000000D+00 0.228552940459961D+03
 0.228552940459961D+03 0.000000000000000D+00 0.000000000000000D+00 -.228552940459961D+03
 0.136945208746049D+03 0.747441077381618D+02 -.786675926610865D+02 0.226164203061391D+02
 0.153727577964208D+03 -.144638483501922D+03 0.459282710116161D+02 0.245452895458486D+02
 0.278208159709730D+02 0.640222145167305D+01 -.501186788795168D+01 0.266062124709287D+02
 0.138612278238690D+03 0.634921543120871D+02 0.377511895374221D+02 -.737679223229165D+02
 0.000000000000000D+00 -.000000000000000D+00 -.000000000000000D+00 0.000000000000000D+00
 0.625108447206231D+03 0.000000000000000D+00 0.000000000000000D+00 0.625108447206231D+03
 0.284868379279937D+03 0.000000000000000D+00 0.000000000000000D+00 -.284868379279937D+03
 0.118220115609041D+03 0.808671183974062D+02 -.213959452906459D+02 0.226164203061391D+02
 0.184644288738700D+03 -.136518827934118D+03 0.121875558437389D+03 0.245452895458486D+02
 0.287612981209428D+02 0.775997995033668D+01 0.768794112385851D+01 0.266062124709287D+02
 0.174563180850605D+03 0.710071906089039D+02 0.108043163979365D+03 -.737679223229165D+02
 0.403787943166880D+03 -.231154610225289D+02 -.216210718249967D+03 0.340240067926294D+03
0.223168254348D-07 0.000000000000D+00 0.000000000000D+00 0.355579683554D-07 0.000000000000D+00  7 -2 1 -24 -11 11 23 21 2 0.16196249D-01 0.76336538D-01 0.42498540D+05 0.42498540D+05 0.42498540D+05 0.11535572D+01  1  2 14  1  7  1       -2 0.407968724516D-05 0.100000000000D+01
  </mgrwgt>
  </event>
  <event>
  8     66 0.26562228E-05 0.19547040E+03 0.75467711E-02 0.10647611E+00
       -2 -1    0    0    0  501 0.00000000E+00 0.00000000E+00 0.43362779E+02 0.43363960E+02 0.32000000E+00 0.0000E+00 0.9000E+01
        1 -1    0    0  501    0 0.00000000E+00 0.00000000E+00 -.17837848E+04 0.17837848E+04 0.32000000E+00 0.0000E+00 0.9000E+01
       25  2    1    2    0    0 0.43420611E+02 0.84048590E+01 -.51067878E+03 0.59398552E+03 0.30011663E+03 0.0000E+00 0.0000E+00
       23  2    3    3    0    0 0.88587458E+02 0.97655849E+02 -.24471718E+03 0.29556198E+03 0.10042901E+03 0.0000E+00 0.0000E+00
      -24  1    1    2    0    0 -.43420611E+02 -.84048590E+01 -.12297432E+04 0.12331632E+04 0.80419002E+02 0.0000E+00 0.9000E+01
      -11  1    4    4    0    0 0.48015358E+02 -.97490237E+01 -.94997227E+02 0.10688775E+03 0.51099893E-03 0.0000E+00 0.9000E+01
       11  1    4    4    0    0 0.40572100E+02 0.10740487E+03 -.14971995E+03 0.18867423E+03 0.51099893E-03 0.0000E+00 0.9000E+01
       23  1    3    3    0    0 -.45166847E+02 -.89250990E+02 -.26596160E+03 0.29842354E+03 0.91188000E+02 0.0000E+00 0.9000E+01
#aMCatNLO 1  0  0  2  1 0.53016566D+01 0.00000000D+00  -5  7  0 0.00000000D+00 0.00000000D+00 0.00000000D+00 0.00000000D+00 0.00000000D+00
  <mgrwgt>
 0.6437807898D-03    6    2    0
 0.278120424431733D+03 0.000000000000000D+00 0.000000000000000D+00 0.278120424431733D+03
 0.278120424431733D+03 0.000000000000000D+00 0.000000000000000D+00 -.278120424431733D+03
 0.202970625901528D+03 -.434206107639562D+02 -.840485901965635D+01 -.181035543278750D+03
 0.538697539953820D+02 0.480153578242134D+02 -.974902341129655D+01 0.223926852132950D+02
 0.151301352927378D+03 0.405721005120551D+02 0.107404872752831D+03 0.985403337047468D+02
 0.148099116039179D+03 -.451668475723123D+02 -.892509903218785D+02 0.601025243607082D+02
 0.000000000000000D+00 -.000000000000000D+00 0.000000000000000D+00 0.000000000000000D+00
 0.282311407387418D+03 0.000000000000000D+00 0.000000000000000D+00 0.282311407387418D+03
 0.279814794933617D+03 0.000000000000000D+00 0.000000000000000D+00 -.279814794933617D+03
 0.202662290946102D+03 -.417493367577708D+02 -.937620217391028D+01 -.181035543278750D+03
 0.543145638533627D+02 0.484610949199664D+02 -.100080854651276D+02 0.223926852132950D+02
 0.151128157366233D+03 0.418181595922332D+02 0.106680664183293D+03 0.985403337047468D+02
 0.148161101764100D+03 -.439462069869048D+02 -.899604256820002D+02 0.601025243607082D+02
 0.586008839123713D+01 -.458371076752399D+01 0.266404913774538D+01 0.249661245380112D+01
0.145487982750D-04 0.000000000000D+00 0.000000000000D+00 0.748631101245D-07 0.000000000000D+00  7 -2 1 -24 -11 11 23 21 0 0.66712898D-02 0.27442852D+00 0.38208676D+05 0.38208676D+05 0.38208676D+05 0.11577137D+01  1  2  2  2  7  2        1 0.810817636673D-03 0.100000000000D+01
-.686055034653D-06 0.000000000000D+00 -.558712161627D-07 0.748631101245D-07 0.000000000000D+00  7 -2 1 -24 -11 11 23 21 2 0.66712898D-02 0.27442852D+00 0.38208676D+05 0.38208676D+05 0.38208676D+05 0.11577137D+01  1  2  3  2  7  2        1 -.512456949023D-04 0.100000000000D+01
0.897619339442D-06 0.000000000000D+00 0.000000000000D+00 0.748631101245D-07 0.000000000000D+00  7 -2 1 -24 -11 11 23 21 2 0.66712898D-02 0.27442852D+00 0.38208676D+05 0.38208676D+05 0.38208676D+05 0.11577137D+01  1  2 15  2  7  2        1 0.670487416957D-04 0.100000000000D+01
-.246041034560D-04 0.000000000000D+00 0.000000000000D+00 0.748631101245D-07 0.000000000000D+00  7 -2 1 -24 -11 11 23 21 2 0.66712898D-02 0.27442852D+00 0.38208676D+05 0.38208676D+05 0.38208676D+05 0.11577137D+01  1  2  4  2  7  2        1 -.183783270345D-02 0.100000000000D+01
0.229861879633D-04 0.000000000000D+00 0.000000000000D+00 0.748631101245D-07 0.190081797866D-07  7 -2 1 -24 -11 11 23 21 2 0.67718192D-02 0.27610040D+00 0.39181561D+05 0.39181561D+05 0.39181561D+05 0.11567274D+01  1  2 11  2  7  2        1 0.164897802940D-02 0.100000000000D+01
0.126973667568D-06 0.000000000000D+00 0.000000000000D+00 0.748631101245D-07 0.215852505516D-10  7 -2 21 -24 -11 11 23 -1 2 0.67718192D-02 0.27610040D+00 0.39181561D+05 0.39181561D+05 0.39181561D+05 0.11567274D+01  1  2 11  4  7  2        1 0.601478033221D-05 0.100000000000D+01
  </mgrwgt>
  </event>
  <event>
  8     66 0.26562228E-05 0.13931956E+03 0.75467711E-02 0.10551269E+00
       -2 -1    0    0    0  501 0.00000000E+00 0.00000000E+00 0.35715766E+03 0.35715780E+03 0.32000000E+00 0.0000E+00 0.9000E+01
        1 -1    0    0  501    0 0.00000000E+00 0.00000000E+00 -.16320507E+03 0.16320538E+03 0.32000000E+00 0.0000E+00 0.9000E+01
       25  2    1    2    0    0 -.27677185E+02 0.78881865E+02 0.24237959E+03 0.39466209E+03 0.30003654E+03 0.0000E+00 0.0000E+00
       23  2    3    3    0    0 -.86641765E+02 -.56339811E+02 0.98006039E+02 0.16900594E+03 0.90977225E+02 0.0000E+00 0.0000E+00
      -24  1    1    2    0    0 0.27677185E+02 -.78881865E+02 -.48426995E+02 0.12570109E+03 0.80419002E+02 0.0000E+00 0.9000E+01
      -13  1    4    4    0    0 0.95691767E+01 -.22471586E+02 0.51310547E+02 0.56827148E+02 0.10565837E+00 0.0000E+00 0.9000E+01
       13  1    4    4    0    0 -.96210942E+02 -.33868225E+02 0.46695491E+02 0.11217880E+03 0.10565837E+00 0.0000E+00 0.9000E+01
       23  1    3    3    0    0 0.58964580E+02 0.13522168E+03 0.14437355E+03 0.22565615E+03 0.91188000E+02 0.0000E+00 0.9000E+01
#aMCatNLO 1  0  0  2  1 0.82173558D+01 0.00000000D+00  -5  7  0 0.00000000D+00 0.00000000D+00 0.00000000D+00 0.00000000D+00 0.00000000D+00
  <mgrwgt>
 0.9529844264D-03    8    2    0
 0.241433341895484D+03 0.000000000000000D+00 0.000000000000000D+00 0.241433341895484D+03
 0.241433341895484D+03 0.000000000000000D+00 0.000000000000000D+00 -.241433341895484D+03
 0.154913905050780D+03 0.276771859133572D+02 -.788818658319178D+02 -.102677780685523D+03
 0.406300580977926D+02 0.956931866931931D+01 -.224715696582712D+02 0.324693442854715D+02
 0.102133869267647D+03 -.962110832334776D+02 -.338682401943992D+02 0.526279590676008D+01
 0.185188851374747D+03 0.589645786508011D+02 0.135221675684588D+03 0.649456404932910D+02
 0.000000000000000D+00 0.000000000000000D+00 -.000000000000000D+00 0.000000000000000D+00
 0.245966776391778D+03 0.000000000000000D+00 0.000000000000000D+00 0.245966776391778D+03
 0.245220955618419D+03 0.000000000000000D+00 0.000000000000000D+00 -.245220955618419D+03
 0.153558788523211D+03 0.262172312551216D+02 -.767008195338015D+02 -.102677780685523D+03
 0.402275621861217D+02 0.918663176754001D+01 -.218998684442951D+02 0.324693442854715D+02
 0.102580465250381D+03 -.971799652529018D+02 -.324208140501308D+02 0.526279590676008D+01
 0.186569783660136D+03 0.572051011921316D+02 0.137850183204464D+03 0.649456404932910D+02
 0.825113239034809D+01 0.457100103810860D+01 -.682868117623657D+01 0.745820773359083D+00
0.866707723292D-05 0.000000000000D+00 0.000000000000D+00 0.213716297936D-05 0.000000000000D+00  7 -2 1 -24 -13 13 23 21 0 0.54947368D-01 0.25108507D-01 0.43232350D+05 0.43232350D+05 0.43232350D+05 0.11528928D+01  1  2  2  2  7  2        1 0.593441390333D-03 0.100000000000D+01
-.468433362681D-06 0.000000000000D+00 -.332838586683D-07 0.213716297936D-05 0.000000000000D+00  7 -2 1 -24 -13 13 23 21 2 0.54947368D-01 0.25108507D-01 0.43232350D+05 0.43232350D+05 0.43232350D+05 0.11528928D+01  1  2  3  2  7  2        1 -.426315222762D-04 0.100000000000D+01
0.545540114326D-06 0.000000000000D+00 0.000000000000D+00 0.213716297936D-05 0.000000000000D+00  7 -2 1 -24 -13 13 23 21 2 0.54947368D-01 0.25108507D-01 0.43232350D+05 0.43232350D+05 0.43232350D+05 0.11528928D+01  1  2 15  2  7  2        1 0.496489092992D-04 0.100000000000D+01
0.924339344160D-05 0.000000000000D+00 0.000000000000D+00 0.213716297936D-05 0.000000000000D+00  7 -2 1 -24 -13 13 23 21 2 0.54947368D-01 0.25734130D-01 0.44836908D+05 0.44836908D+05 0.44836908D+05 0.11514823D+01  1  2 12  2  7  2        1 0.813068793127D-03 0.100000000000D+01
-.657263469280D-05 0.000000000000D+00 0.000000000000D+00 0.213716297936D-05 0.000000000000D+00  7 -2 1 -24 -13 13 23 21 2 0.54947368D-01 0.25108507D-01 0.43232350D+05 0.43232350D+05 0.43232350D+05 0.11528928D+01  1  2  4  2  7  2        1 -.598167091934D-03 0.100000000000D+01
0.905973484849D-07 0.000000000000D+00 0.000000000000D+00 0.213716297936D-05 0.223868154714D-06  7 -2 1 -24 -13 13 23 21 2 0.55979124D-01 0.25502410D-01 0.44836908D+05 0.44836908D+05 0.44836908D+05 0.11514823D+01  1  2 11  2  7  2        1 0.776885751203D-05 0.100000000000D+01
0.201835520789D-06 0.000000000000D+00 0.000000000000D+00 0.213716297936D-05 0.000000000000D+00  7 -2 21 -24 -13 13 23 -1 2 0.54947368D-01 0.25734130D-01 0.44836908D+05 0.44836908D+05 0.44836908D+05 0.11514823D+01  1  2 12  4  7  2        1 0.129479259807D-03 0.100000000000D+01
0.597715271800D-09 0.000000000000D+00 0.000000000000D+00 0.213716297936D-05 0.640348472477D-09  7 -2 21 -24 -13 13 23 -1 2 0.55979124D-01 0.25502410D-01 0.44836908D+05 0.44836908D+05 0.44836908D+05 0.11514823D+01  1  2 11  4  7  2        1 0.375830543394D-06 0.100000000000D+01
  </mgrwgt>
  </event>
  <event>
  9     66 -.26562228E-05 0.16861528E+03 0.75467711E-02 0.10635041E+00
       -2 -1    0    0    0  502 0.00000000E+00 0.00000000E+00 0.31688372E+02 0.31689988E+02 0.32000000E+00 0.0000E+00 0.9000E+01
        1 -1    0    0  501    0 0.00000000E+00 0.00000000E+00 -.16520302E+04 0.16520302E+04 0.32000000E+00 0.0000E+00 0.9000E+01
       25  2    1    2    0    0 0.29199293E+02 -.44385577E+02 -.11552640E+04 0.11942069E+04 0.29777949E+03 0.0000E+00 0.0000E+00
       23  2    3    3    0    0 0.58127586E+02 0.43068172E+02 -.21484057E+03 0.24489324E+03 0.92642046E+02 0.0000E+00 0.0000E+00
      -24  1    1    2    0    0 0.28560982E+02 0.41067223E+02 -.29946675E+03 0.31408565E+03 0.80419002E+02 0.0000E+00 0.9000E+01
      -13  1    4    4    0    0 -.11448905E+02 -.20146002E+02 -.35190195E+02 0.42134306E+02 0.10565837E+00 0.0000E+00 0.9000E+01
       13  1    4    4    0    0 0.69576490E+02 0.63214174E+02 -.17965037E+03 0.20275894E+03 0.10565837E+00 0.0000E+00 0.9000E+01
       23  1    3    3    0    0 -.28928292E+02 -.87453749E+02 -.94042340E+03 0.94931366E+03 0.91188000E+02 0.0000E+00 0.9000E+01
       21  1    1    2  501  502 -.57760275E+02 0.33183538E+01 -.16561109E+03 0.17542763E+03 0.75000000E+00 0.0000E+00 0.9000E+01
#aMCatNLO 2  0  0  1  2 0.57855517D+02 0.00000000D+00  -5  7  0 0.00000000D+00 0.00000000D+00 0.00000000D+00 0.00000000D+00 0.00000000D+00
  <mgrwgt>
 -.2285766681D-03    2    2    0
 0.197077218917787D+03 0.000000000000000D+00 0.000000000000000D+00 0.197077218917787D+03
 0.197077218917787D+03 0.000000000000000D+00 0.000000000000000D+00 -.197077218917787D+03
 0.927968324917918D+02 0.148298786102004D+02 0.418566735569281D+02 0.131198226091137D+02
 0.328628250239205D+02 -.161050175025713D+02 -.198787170358418D+02 0.206259615243416D+02
 0.103177233687000D+03 0.539200145890570D+02 0.641134433981288D+02 0.602298925256599D+02
 0.165317546632861D+03 -.526448756966861D+02 -.860913999192151D+02 -.939756766591152D+02
 0.000000000000000D+00 -.000000000000000D+00 0.000000000000000D+00 0.000000000000000D+00
 0.235692884776205D+03 0.000000000000000D+00 0.000000000000000D+00 0.235692884776205D+03
 0.222112954414848D+03 0.000000000000000D+00 0.000000000000000D+00 -.222112954414848D+03
 0.956119982832107D+02 0.285612368335167D+02 0.410678008491239D+02 0.131198226091137D+02
 0.310222534033581D+02 -.114490314036119D+02 -.201462055320015D+02 0.206259615243416D+02
 0.111644607343988D+03 0.695763701922158D+02 0.632139787247771D+02 0.602298925256599D+02
 0.160099079309870D+03 -.289283001823530D+02 -.874539278528369D+02 -.939756766591152D+02
 0.594279008506248D+02 -.577602754397676D+02 0.331835381093744D+01 0.135799303613571D+02
-.849394417921D-05 0.000000000000D+00 0.000000000000D+00 0.201726281941D-07 0.000000000000D+00  7 -2 1 -24 -13 13 23 21 2 0.50921105D-02 0.22550847D+00 0.39871277D+05 0.39871277D+05 0.39871277D+05 0.11560444D+01  1  2 13  1  7  1       -2 -.151560332456D-02 0.100000000000D+01
0.893712428970D-05 0.000000000000D+00 0.000000000000D+00 0.201726281941D-07 0.439486488818D-10  7 -2 1 -24 -13 13 23 21 2 0.48752101D-02 0.25415597D+00 0.39871277D+05 0.39871277D+05 0.39871277D+05 0.11560444D+01  1  2  1  1  7  1       -2 0.128702665644D-02 0.100000000000D+01
  </mgrwgt>
  </event>
  <event>
  9     66 0.26562228E-05 0.21654685E+03 0.75467711E-02 0.10065689E+00
       -2 -1    0    0    0  501 0.00000000E+00 0.00000000E+00 0.45939445E+03 0.45939456E+03 0.32000000E+00 0.0000E+00 0.9000E+01
        1 -1    0    0  502    0 0.00000000E+00 0.00000000E+00 -.93228805E+03 0.93228811E+03 0.32000000E+00 0.0000E+00 0.9000E+01
       25  2    1    2    0    0 0.23269265E+03 -.51687931E+02 -.54095487E+03 0.66268471E+03 0.29950184E+03 0.0000E+00 0.0000E+00
       23  2    3    3    0    0 0.84114097E+02 0.37397429E+02 -.59384765E+02 0.14284166E+03 0.91670280E+02 0.0000E+00 0.0000E+00
      -24  1    1    2    0    0 -.66147326E+02 0.64967225E+02 0.36675824E+03 0.38674932E+03 0.80419002E+02 0.0000E+00 0.9000E+01
      -13  1    4    4    0    0 -.80886317E+01 -.13695214E+02 0.79262210E+01 0.17771353E+02 0.10565837E+00 0.0000E+00 0.9000E+01
       13  1    4    4    0    0 0.92202728E+02 0.51092644E+02 -.67310986E+02 0.12507031E+03 0.10565837E+00 0.0000E+00 0.9000E+01
       23  1    3    3    0    0 0.14857855E+03 -.89085360E+02 -.48157010E+03 0.51984305E+03 0.91188000E+02 0.0000E+00 0.9000E+01
       21  1    1    2  502  501 -.16654533E+03 -.13279294E+02 -.29869698E+03 0.34224864E+03 0.75000000E+00 0.0000E+00 0.9000E+01
#aMCatNLO 2  0  0  2  1 0.16707389D+03 0.00000000D+00  -5  7  0 0.00000000D+00 0.00000000D+00 0.00000000D+00 0.00000000D+00 0.00000000D+00
  <mgrwgt>
 0.7735155494D-03    2    2    0
 0.510649986691802D+03 0.000000000000000D+00 0.000000000000000D+00 0.510649986691802D+03
 0.510649986691802D+03 0.000000000000000D+00 0.000000000000000D+00 -.510649986691802D+03
 0.469900874262458D+03 -.140975030807904D+03 0.590009264124533D+02 0.437017788024051D+03
 0.211098229708297D+02 -.113663535197559D+02 -.139566349739973D+02 0.110291873556621D+02
 0.101334957852665D+03 0.746397689304664D+02 0.496923574652937D+02 -.472053830251313D+02
 0.428954318297651D+03 0.777016153971931D+02 -.947366489037497D+02 -.400841592354582D+03
 0.000000000000000D+00 -.000000000000000D+00 -.000000000000000D+00 -.000000000000000D+00
 0.543184912714274D+03 0.000000000000000D+00 0.000000000000000D+00 0.543184912714274D+03
 0.788474321982452D+03 0.000000000000000D+00 0.000000000000000D+00 -.788474321982452D+03
 0.453925073083002D+03 -.661473255223946D+02 0.649672247817137D+02 0.437017788024051D+03
 0.193554215380551D+02 -.808876492298895D+01 -.136953003329658D+02 0.110291873556621D+02
 0.115499709464627D+03 0.922028614462391D+02 0.510927298251864D+02 -.472053830251313D+02
 0.446095305682020D+03 0.148578554458595D+03 -.890853601955537D+02 -.400841592354582D+03
 0.296783724929023D+03 -.166545325459451D+03 -.132792940783806D+02 -.245289409268178D+03
-.193303774186D-04 0.000000000000D+00 0.000000000000D+00 0.887545890049D-05 0.000000000000D+00  7 -2 1 -24 -13 13 23 21 2 0.66442770D-01 0.14507525D+00 0.92081384D+05 0.92081384D+05 0.92081384D+05 0.11246741D+01  1  2 13  2  7  2        1 -.998785696177D-04 0.100000000000D+01
0.189111241124D-03 0.000000000000D+00 0.000000000000D+00 0.887545890049D-05 0.229343414499D-08  7 -2 1 -24 -13 13 23 21 2 0.70676023D-01 0.14342882D+00 0.92081384D+05 0.92081384D+05 0.92081384D+05 0.11246741D+01  1  2  1  2  7  2        1 0.873394119005D-03 0.100000000000D+01
  </mgrwgt>
  </event>
  <event>
  8     66 0.26562228E-05 0.28529249E+03 0.75467711E-02 0.10109333E+00
       -2 -1    0    0    0  501 0.00000000E+00 0.00000000E+00 0.37513651E+03 0.37513665E+03 0.32000000E+00 0.0000E+00 0.9000E+01
        1 -1    0    0  501    0 0.00000000E+00 0.00000000E+00 -.24086771E+03 0.24086792E+03 0.32000000E+00 0.0000E+00 0.9000E+01
       25  2    1    2    0    0 0.35172202E+02 -.20055278E+03 0.15672751E+03 0.39593614E+03 0.30123647E+03 0.0000E+00 0.0000E+00
       23  2    3    3    0    0 0.69630357E+02 -.23222521E+03 0.12850239E+03 0.28962332E+03 0.92692337E+02 0.0000E+00 0.0000E+00
      -24  1    1    2    0    0 -.35172202E+02 0.20055278E+03 -.22458704E+02 0.22006843E+03 0.80419002E+02 0.0000E+00 0.9000E+01
      -11  1    4    4    0    0 -.92119464E+01 -.11200266E+02 0.33411483E+02 0.36422975E+02 0.51099893E-03 0.0000E+00 0.9000E+01
       11  1    4    4    0    0 0.78842304E+02 -.22102494E+03 0.95090903E+02 0.25320035E+03 0.51099893E-03 0.0000E+00 0.9000E+01
       23  1    3    3    0    0 -.34458155E+02 0.31672427E+02 0.28225125E+02 0.10631282E+03 0.91188000E+02 0.0000E+00 0.9000E+01
#aMCatNLO 1  0  0  1  2 0.15650273D+02 0.00000000D+00  -5  7  0 0.00000000D+00 0.00000000D+00 0.00000000D+00 0.00000000D+00 0.00000000D+00
  <mgrwgt>
 0.1142088868D-02    4    2    0
 0.300596705026836D+03 0.000000000000000D+00 0.000000000000000D+00 0.300596705026836D+03
 0.300596705026836D+03 0.000000000000000D+00 0.000000000000000D+00 -.300596705026836D+03
 0.230505952552745D+03 -.351722023861687D+02 0.200552784119805D+03 -.721614520986039D+02
 0.298582763636627D+02 -.921194638441158D+01 -.112002660781737D+02 0.261000143869251D+02
 0.238200926915447D+03 0.788423038535113D+02 -.221024944737815D+03 0.408845509953874D+02
 0.102628254221817D+03 -.344581550829310D+02 0.316724266961844D+02 0.517688671629150D+01
 0.000000000000000D+00 0.000000000000000D+00 0.000000000000000D+00 -.000000000000000D+00
 0.301535126037519D+03 0.000000000000000D+00 0.000000000000000D+00 0.301535126037519D+03
 0.373892146700353D+03 0.000000000000000D+00 0.000000000000000D+00 -.373892146700353D+03
 0.229120521428062D+03 -.405494520115518D+02 0.197932978954191D+03 -.721614520986039D+02
 0.302116738894730D+02 -.991471512333531D+01 -.115426562033733D+02 0.261000143869251D+02
 0.238956579488034D+03 0.732599556472938D+02 -.223744674280939D+03 0.408845509953874D+02
 0.103108304792493D+03 -.368651026751915D+02 0.304997577343791D+02 0.517688671629150D+01
 0.740301931398099D+02 0.140693141627849D+02 0.685459379574235D+01 -.723570206628340D+02
0.316550285222D-04 0.000000000000D+00 0.000000000000D+00 0.268534745012D-06 0.000000000000D+00  7 -2 1 -24 -11 11 23 21 0 0.57713337D-01 0.37056597D-01 0.81391803D+05 0.81391803D+05 0.81391803D+05 0.11291346D+01  1  2  2  1  7  1       -2 0.118551799444D-02 0.100000000000D+01
-.175277420395D-05 0.000000000000D+00 -.121563644486D-06 0.268534745012D-06 0.000000000000D+00  7 -2 1 -24 -11 11 23 21 2 0.57713337D-01 0.37056597D-01 0.81391803D+05 0.81391803D+05 0.81391803D+05 0.11291346D+01  1  2  3  1  7  1       -2 -.836917931323D-04 0.100000000000D+01
0.206025914157D-05 0.000000000000D+00 0.000000000000D+00 0.268534745012D-06 0.000000000000D+00  7 -2 1 -24 -11 11 23 21 2 0.57713337D-01 0.37056597D-01 0.81391803D+05 0.81391803D+05 0.81391803D+05 0.11291346D+01  1  2 15  1  7  1       -2 0.983736419022D-04 0.100000000000D+01
-.121702994797D-05 0.000000000000D+00 0.000000000000D+00 0.268534745012D-06 0.000000000000D+00  7 -2 1 -24 -11 11 23 21 2 0.57713337D-01 0.37056597D-01 0.81391803D+05 0.81391803D+05 0.81391803D+05 0.11291346D+01  1  2  4  1  7  1       -2 -.581109753965D-04 0.100000000000D+01
  </mgrwgt>
  </event>
  <event>
  8     66 0.26562228E-05 0.14614811E+03 0.75467711E-02 0.90381000E-01
       -2 -1    0    0    0  501 0.00000000E+00 0.00000000E+00 0.22834374E+03 0.22834397E+03 0.32000000E+00 0.0000E+00 0.9000E+01
        1 -1    0    0  501    0 0.00000000E+00 0.00000000E+00 -.26886385E+03 0.26886404E+03 0.32000000E+00 0.0000E+00 0.9000E+01
       25  2    1    2    0    0 0.60266236E+02 -.33731682E+02 -.15599786E+03 0.34045287E+03 0.29462345E+03 0.0000E+00 0.0000E+00
       23  2    3    3    0    0 0.12229498E+02 -.16433964E+02 0.54025033E+02 0.10586470E+03 0.88707355E+02 0.0000E+00 0.0000E+00
      -24  1    1    2    0    0 -.60266236E+02 0.33731682E+02 0.11547776E+03 0.15675514E+03 0.80419002E+02 0.0000E+00 0.9000E+01
      -13  1    4    4    0    0 0.16351800E+02 0.30532589E+02 0.64091032E+00 0.34641627E+02 0.10565837E+00 0.0000E+00 0.9000E+01
       13  1    4    4    0    0 -.41223014E+01 -.46966553E+02 0.53384123E+02 0.71223074E+02 0.10565837E+00 0.0000E+00 0.9000E+01
       23  1    3    3    0    0 0.48036738E+02 -.17297718E+02 -.21002290E+03 0.23458817E+03 0.91188000E+02 0.0000E+00 0.9000E+01
#aMCatNLO 1  0  0  2  1 0.71264902D+03 0.00000000D+00  -5  7  0 0.00000000D+00 0.00000000D+00 0.00000000D+00 0.00000000D+00 0.00000000D+00
  <mgrwgt>
 0.1302999076D-02    3    2    0
 0.247777079196458D+03 0.000000000000000D+00 0.000000000000000D+00 0.247777079196458D+03
 0.247777079196458D+03 0.000000000000000D+00 0.000000000000000D+00 -.247777079196458D+03
 0.166720599434630D+03 -.602662397106976D+02 0.337316838716923D+02 0.128680597510988D+03
 0.348095847121139D+02 0.163518292140587D+02 0.305326979407817D+02 0.347551803923911D+01
 0.758258968901145D+02 -.412232911676325D+01 -.469666618709380D+02 0.593860734056760D+02
 0.218198077356058D+03 0.480367396134021D+02 -.172977199415360D+02 -.191542188955903D+03
 0.000000000000000D+00 0.000000000000000D+00 0.000000000000000D+00 0.000000000000000D+00
 0.802372956277905D+03 0.000000000000000D+00 0.000000000000000D+00 0.802372956277905D+03
 0.778680483056536D+03 0.000000000000000D+00 0.000000000000000D+00 -.778680483056536D+03
 0.373517766319862D+03 -.341252462563472D+03 0.603045775959814D+01 0.128680597510988D+03
 0.332625785896576D+02 -.190535423035100D+02 0.270422342730852D+02 0.347551803923911D+01
 0.145342555046334D+03 -.119155417958994D+03 -.583072805391383D+02 0.593860734056760D+02
 0.315887788474721D+03 -.229749474087390D+03 -.446834708812895D+02 -.191542188955903D+03
 0.713042750903866D+03 0.709210896913365D+03 0.699180593877445D+02 0.236924732213688D+02
0.150484734213D-04 0.000000000000D+00 0.000000000000D+00 0.468988003491D-08 0.000000000000D+00  7 -2 1 -24 -13 13 23 21 0 0.35129839D-01 0.41363701D-01 0.21359269D+05 0.21359269D+05 0.21359269D+05 0.11812771D+01  1  2  2  2  7  2        1 0.125817196028D-02 0.100000000000D+01
-.552743978127D-06 0.000000000000D+00 -.577901002917D-07 0.468988003491D-08 0.000000000000D+00  7 -2 1 -24 -13 13 23 21 2 0.35129839D-01 0.41363701D-01 0.21359269D+05 0.21359269D+05 0.21359269D+05 0.11812771D+01  1  2  3  2  7  2        1 -.644874362920D-04 0.100000000000D+01
0.936972593454D-06 0.000000000000D+00 0.000000000000D+00 0.468988003491D-08 0.000000000000D+00  7 -2 1 -24 -13 13 23 21 2 0.35129839D-01 0.41363701D-01 0.21359269D+05 0.21359269D+05 0.21359269D+05 0.11812771D+01  1  2 15  2  7  2        1 0.109314552159D-03 0.100000000000D+01
  </mgrwgt>
  </event>
  <event>
  8     66 0.26562228E-05 0.18079815E+03 0.75467711E-02 0.10643132E+00
       21 -1    0    0  502  501 0.00000000E+00 0.00000000E+00 0.10491257E+03 0.10491525E+03 0.75000000E+00 0.0000E+00 0.9000E+01
        1 -1    0    0  501    0 0.00000000E+00 0.00000000E+00 -.88819273E+03 0.88819278E+03 0.32000000E+00 0.0000E+00 0.9000E+01
       23  2    1    2    0    0 -.98723685E+01 -.25277798E+02 -.83548545E+02 0.12702970E+03 0.91759220E+02 0.0000E+00 0.0000E+00
      -24  1    1    2    0    0 -.12958623E+02 -.12702562E+03 -.10553564E+02 0.15126806E+03 0.80419002E+02 0.0000E+00 0.9000E+01
      -11  1    3    3    0    0 -.28226624E+02 -.28815992E+02 0.10895730E+01 0.40352087E+02 0.51099893E-03 0.0000E+00 0.9000E+01
       11  1    3    3    0    0 0.18354256E+02 0.35381944E+01 -.84638118E+02 0.86677613E+02 0.51099893E-03 0.0000E+00 0.9000E+01
       23  1    1    2    0    0 0.30668312E+02 0.11925191E+03 -.51325017E+03 0.53563285E+03 0.91188000E+02 0.0000E+00 0.9000E+01
        2  1    1    2  502    0 -.78373210E+01 0.33051500E+02 -.17592788E+03 0.17917742E+03 0.32000000E+00 0.0000E+00 0.9000E+01
#aMCatNLO 2  0  0  1  1 0.33968004D+02 0.00000000D+00  -5  7  0 0.00000000D+00 0.00000000D+00 0.00000000D+00 0.00000000D+00 0.00000000D+00
  <mgrwgt>
 0.2928574302D-02    1    2    0
 0.270394354810042D+03 0.000000000000000D+00 0.000000000000000D+00 0.270394354810042D+03
 0.270394354810042D+03 0.000000000000000D+00 0.000000000000000D+00 -.270394354810042D+03
 0.208242419644153D+03 -.160253500117493D+02 -.114092632175355D+03 0.153700191363514D+03
 0.606047464980808D+02 -.291129728063094D+02 -.250780882254257D+02 0.468664016480195D+02
 0.353511505403815D+02 0.178425811535803D+02 0.569602473198374D+01 -.299816851520932D+02
 0.236590392937469D+03 0.272957416644785D+02 0.133474695668797D+03 -.170584907859441D+03
 0.000000000000000D+00 -.000000000000000D+00 0.000000000000000D+00 -.000000000000000D+00
 0.275188641336541D+03 0.000000000000000D+00 0.000000000000000D+00 0.275188641336541D+03
 0.338617538821182D+03 0.000000000000000D+00 0.000000000000000D+00 -.338617538821182D+03
 0.215393587609772D+03 -.129586227071101D+02 -.127025615138806D+03 0.153700191363514D+03
 0.618349684539376D+02 -.282266241235108D+02 -.288159922760958D+02 0.468664016480195D+02
 0.353312745814630D+02 0.183542556084605D+02 0.353819446197970D+01 -.299816851520932D+02
 0.229294627422785D+03 0.306683121927075D+02 0.119251912600137D+03 -.170584907859441D+03
 0.719517220897638D+02 -.783732097054715D+01 0.330515003527846D+02 -.634288974846410D+02
0.272632933007D-05 0.000000000000D+00 0.000000000000D+00 0.981714856413D-09 0.235893192570D-13  7 21 1 -24 -11 11 23 2 2 0.16140585D-01 0.13664507D+00 0.39425772D+05 0.39425772D+05 0.39425772D+05 0.11564841D+01  1  2  1  3  7  1       -2 0.292857430162D-02 0.100000000000D+01
  </mgrwgt>
  </event>
  <event>
  8     66 0.26562228E-05 0.12296167E+03 0.75467711E-02 0.10764694E+00
       -2 -1    0    0    0  501 0.00000000E+00 0.00000000E+00 0.11846743E+03 0.11846787E+03 0.32000000E+00 0.0000E+00 0.9000E+01
        1 -1    0    0  501    0 0.00000000E+00 0.00000000E+00 -.43468297E+03 0.43468309E+03 0.32000000E+00 0.0000E+00 0.9000E+01
       25  2    1    2    0    0 -.10166885E+03 0.25769174E+02 -.25606075E+03 0.40793932E+03 0.29974451E+03 0.0000E+00 0.0000E+00
       23  2    3    3    0    0 -.10272248E+03 0.54271189E+02 -.27388576E+03 0.31074643E+03 0.89736662E+02 0.0000E+00 0.0000E+00
      -24  1    1    2    0    0 0.10166885E+03 -.25769174E+02 -.60154786E+02 0.14521164E+03 0.80419002E+02 0.0000E+00 0.9000E+01
      -13  1    4    4    0    0 -.28551150E+02 -.65265137E+01 -.15624679E+03 0.15896803E+03 0.10565837E+00 0.0000E+00 0.9000E+01
       13  1    4    4    0    0 -.74171326E+02 0.60797703E+02 -.11763897E+03 0.15177840E+03 0.10565837E+00 0.0000E+00 0.9000E+01
       23  1    3    3    0    0 0.10536257E+01 -.28502016E+02 0.17825004E+02 0.97192886E+02 0.91188000E+02 0.0000E+00 0.9000E+01
#aMCatNLO 1  0  0  1  2 0.12054469D+02 0.00000000D+00  -5  7  0 0.00000000D+00 0.00000000D+00 0.00000000D+00 0.00000000D+00 0.00000000D+00
  <mgrwgt>
 0.1103223223D-02    6    2    0
 0.226927143385240D+03 0.000000000000000D+00 0.000000000000000D+00 0.226927143385240D+03
 0.226927143385240D+03 0.000000000000000D+00 0.000000000000000D+00 -.226927143385240D+03
 0.135069958097849D+03 0.101668853919746D+03 -.257691744564768D+02 0.278580583792413D+02
 0.848854869815420D+02 -.285510876036376D+02 -.652660606415747D+01 -.796729860744924D+02
 0.103022297680190D+03 -.741713895925554D+02 0.607977950113397D+02 -.376274754265320D+02
 0.130876544010898D+03 0.105362327644675D+01 -.285020144907054D+02 0.894424031217831D+02
 0.000000000000000D+00 0.000000000000000D+00 -.000000000000000D+00 -.000000000000000D+00
 0.231507474880079D+03 0.000000000000000D+00 0.000000000000000D+00 0.231507474880079D+03
 0.235079417346380D+03 0.000000000000000D+00 0.000000000000000D+00 -.235079417346380D+03
 0.133378177061947D+03 0.100195513888932D+03 -.225235375078842D+02 0.278580583792413D+02
 0.850710293158315D+02 -.294838701644460D+02 -.447176910795927D+01 -.796729860744924D+02
 0.105343326467340D+03 -.753149751679192D+02 0.633170122454145D+02 -.376274754265320D+02
 0.130221810359869D+03 -.379378510826150D+00 -.253452391022005D+02 0.894424031217831D+02
 0.125725490214720D+02 0.498270995425891D+01 -.109764665273705D+02 -.357194246630061D+01
0.393511220506D-05 0.000000000000D+00 0.000000000000D+00 0.365997332596D-06 0.000000000000D+00  7 -2 1 -24 -13 13 23 21 0 0.18225801D-01 0.66874346D-01 0.31135098D+05 0.31135098D+05 0.31135098D+05 0.11658424D+01  1  2  2  1  7  1       -2 0.533422811629D-03 0.100000000000D+01
-.201793298313D-06 0.000000000000D+00 -.151118670063D-07 0.365997332596D-06 0.000000000000D+00  7 -2 1 -24 -13 13 23 21 2 0.18225801D-01 0.66874346D-01 0.31135098D+05 0.31135098D+05 0.31135098D+05 0.11658424D+01  1  2  3  1  7  1       -2 -.371792729911D-04 0.100000000000D+01
0.253158971714D-06 0.000000000000D+00 0.000000000000D+00 0.365997332596D-06 0.000000000000D+00  7 -2 1 -24 -13 13 23 21 2 0.18225801D-01 0.66874346D-01 0.31135098D+05 0.31135098D+05 0.31135098D+05 0.11658424D+01  1  2 15  1  7  1       -2 0.466431075669D-04 0.100000000000D+01
0.603525420764D-05 0.000000000000D+00 0.000000000000D+00 0.365997332596D-06 0.000000000000D+00  7 -2 1 -24 -13 13 23 21 2 0.18912142D-01 0.66874346D-01 0.33370439D+05 0.33370439D+05 0.33370439D+05 0.11630698D+01  1  2 12  1  7  1       -2 0.104310632957D-02 0.100000000000D+01
-.348092987760D-05 0.000000000000D+00 0.000000000000D+00 0.365997332596D-06 0.000000000000D+00  7 -2 1 -24 -13 13 23 21 2 0.18225801D-01 0.66874346D-01 0.31135098D+05 0.31135098D+05 0.31135098D+05 0.11658424D+01  1  2  4  1  7  1       -2 -.641341626625D-03 0.100000000000D+01
0.688653999197D-07 0.000000000000D+00 0.000000000000D+00 0.365997332596D-06 0.000000000000D+00  7 21 1 -24 -13 13 23 2 2 0.18912142D-01 0.66874346D-01 0.33370439D+05 0.33370439D+05 0.33370439D+05 0.11630698D+01  1  2 12  3  7  1       -2 0.158571874080D-03 0.100000000000D+01
  </mgrwgt>
  </event>
  <event>
  8     66 0.26562228E-05 0.22470532E+03 0.75467711E-02 0.94365516E-01
       -2 -1    0    0    0  501 0.00000000E+00 0.00000000E+00 0.24804987E+04 0.24804988E+04 0.32000000E+00 0.0000E+00 0.9000E+01
        1 -1    0    0  501    0 0.00000000E+00 0.00000000E+00 -.72701666E+02 0.72702370E+02 0.32000000E+00 0.0000E+00 0.9000E+01
       25  2    1    2    0    0 -.20786424E+02 0.27468695E+03 0.20711748E+04 0.21108587E+04 0.30012450E+03 0.0000E+00 0.0000E+00
       23  2    3    3    0    0 -.12015553E+03 0.88052574E+02 0.10039645E+04 0.10190897E+04 0.91697952E+02 0.0000E+00 0.0000E+00
      -24  1    1    2    0    0 0.20786424E+02 -.27468695E+03 0.33662230E+03 0.44234238E+03 0.80419002E+02 0.0000E+00 0.9000E+01
      -13  1    4    4    0    0 -.13291207E+03 0.68193468E+02 0.80638461E+03 0.82010494E+03 0.10565837E+00 0.0000E+00 0.9000E+01
       13  1    4    4    0    0 0.12756542E+02 0.19859106E+02 0.19757992E+03 0.19898479E+03 0.10565837E+00 0.0000E+00 0.9000E+01
       23  1    3    3    0    0 0.99369107E+02 0.18663437E+03 0.10672102E+04 0.10917690E+04 0.91188000E+02 0.0000E+00 0.9000E+01
#aMCatNLO 1  0  0  1  2 0.28006567D+03 0.00000000D+00  -5  7  0 0.00000000D+00 0.00000000D+00 0.00000000D+00 0.00000000D+00 0.00000000D+00
  <mgrwgt>
 0.9185420763D-03    8    2    0
 0.424661412561198D+03 0.000000000000000D+00 0.000000000000000D+00 0.424661412561198D+03
 0.424661412561198D+03 0.000000000000000D+00 0.000000000000000D+00 -.424661412561198D+03
 0.375441318858040D+03 0.207864238478798D+02 -.274686948054809D+03 -.242082574968635D+03
 0.179298753224469D+03 -.132912266468282D+03 0.681935326228387D+02 0.991565148567209D+02
 0.380487777236314D+02 0.127567352578869D+02 0.198590414935188D+02 0.298428159325020D+02
 0.256533975316256D+03 0.993691073625154D+02 0.186634373938452D+03 0.113083244179412D+03
 0.000000000000000D+00 -.000000000000000D+00 0.000000000000000D+00 0.000000000000000D+00
 0.690644281904767D+03 0.000000000000000D+00 0.000000000000000D+00 0.690644281904767D+03
 0.527687509455546D+03 0.000000000000000D+00 0.000000000000000D+00 -.527687509455546D+03
 0.442255981215038D+03 0.138040734854772D+03 -.333862126308774D+03 -.242082574968635D+03
 0.139536356997705D+03 -.871926692890245D+02 0.451200499547006D+02 0.991565148567209D+02
 0.408690174405615D+02 0.240732110458509D+02 0.141479126982621D+02 0.298428159325020D+02
 0.271646221674614D+03 0.175107898575492D+03 0.148410990659144D+03 0.113083244179412D+03
 0.324024214032395D+03 -.250029175187091D+03 0.126183172996667D+03 0.162956772449221D+03
0.107925932518D-02 0.000000000000D+00 0.000000000000D+00 0.116970349793D-04 0.000000000000D+00  7 -2 1 -24 -13 13 23 21 0 0.38161525D+00 0.11184927D-01 0.11910240D+06 0.11910240D+06 0.11910240D+06 0.11155446D+01  1  2  2  1  7  1       -2 0.584571629572D-03 0.100000000000D+01
-.568223358525D-04 0.000000000000D+00 -.414463998420D-05 0.116970349793D-04 0.000000000000D+00  7 -2 1 -24 -13 13 23 21 2 0.38161525D+00 0.11184927D-01 0.11910240D+06 0.11910240D+06 0.11910240D+06 0.11155446D+01  1  2  3  1  7  1       -2 -.383005405167D-04 0.100000000000D+01
0.690510621124D-04 0.000000000000D+00 0.000000000000D+00 0.116970349793D-04 0.000000000000D+00  7 -2 1 -24 -13 13 23 21 2 0.38161525D+00 0.11184927D-01 0.11910240D+06 0.11910240D+06 0.11910240D+06 0.11155446D+01  1  2 15  1  7  1       -2 0.465431940182D-04 0.100000000000D+01
0.271844392176D-04 0.000000000000D+00 0.000000000000D+00 0.116970349793D-04 0.000000000000D+00  7 -2 1 -24 -13 13 23 21 2 0.64333509D+00 0.11184927D-01 0.26177038D+06 0.26177038D+06 0.26177038D+06 0.10889592D+01  1  2 12  1  7  1       -2 0.163849723770D-06 0.100000000000D+01
-.400640956813D-03 0.000000000000D+00 -.239369953378D-03 0.116970349793D-04 0.000000000000D+00  7 -2 1 -24 -13 13 23 21 2 0.64743554D+00 0.11184927D-01 0.11910240D+06 0.11910240D+06 0.11910240D+06 0.11155446D+01  1  2  5  1  7  1       -2 -.253850761130D-05 0.100000000000D+01
0.487420873544D-03 0.000000000000D+00 0.209423256686D-03 0.116970349793D-04 0.000000000000D+00  7 -2 1 -24 -13 13 23 21 2 0.38161525D+00 0.11184927D-01 0.11910240D+06 0.11910240D+06 0.11910240D+06 0.11155446D+01  1  2  6  1  7  1       -2 0.328541279336D-03 0.100000000000D+01
0.158714063655D-05 0.000000000000D+00 0.000000000000D+00 0.116970349793D-04 0.000000000000D+00  7 21 1 -24 -13 13 23 2 2 0.64333509D+00 0.11184927D-01 0.26177038D+06 0.26177038D+06 0.26177038D+06 0.10889592D+01  1  2 12  3  7  1       -2 0.617532598954D-07 0.100000000000D+01
-.121492871853D-04 0.000000000000D+00 -.141134509809D-04 0.116970349793D-04 0.000000000000D+00  7 21 1 -24 -13 13 23 2 2 0.64743554D+00 0.11184927D-01 0.11910240D+06 0.11910240D+06 0.11910240D+06 0.11155446D+01  1  2  5  3  7  1       -2 -.500581524183D-06 0.100000000000D+01
  </mgrwgt>
  </event>
  <event>
  8     66 0.26562228E-05 0.18213635E+03 0.75467711E-02 0.10009850E+00
       -2 -1    0    0    0  501 0.00000000E+00 0.00000000E+00 0.80043599E+02 0.80044238E+02 0.32000000E+00 0.0000E+00 0.9000E+01
        1 -1    0    0  501    0 0.00000000E+00 0.00000000E+00 -.20333016E+04 0.20333017E+04 0.32000000E+00 0.0000E+00 0.9000E+01
       25  2    1    2    0    0 0.16934811E+02 0.24171369E+03 -.46710113E+03 0.60541955E+03 0.29939451E+03 0.0000E+00 0.0000E+00
       23  2    3    3    0    0 0.11727737E+03 0.13936307E+03 -.32797913E+03 0.38584164E+03 0.90152167E+02 0.0000E+00 0.0000E+00
      -24  1    1    2    0    0 -.16934811E+02 -.24171369E+03 -.14861569E+04 0.15079264E+04 0.80419002E+02 0.0000E+00 0.9000E+01
      -13  1    4    4    0    0 0.42310385E+01 -.12893341E+02 -.23514970E+02 0.27149677E+02 0.10565837E+00 0.0000E+00 0.9000E+01
       13  1    4    4    0    0 0.11304633E+03 0.15225641E+03 -.30446416E+03 0.35869196E+03 0.10565837E+00 0.0000E+00 0.9000E+01
       23  1    3    3    0    0 -.10034256E+03 0.10235063E+03 -.13912200E+03 0.21957791E+03 0.91188000E+02 0.0000E+00 0.9000E+01
#aMCatNLO 1  0  0  2  1 0.55932738D+01 0.00000000D+00  -5  7  0 0.00000000D+00 0.00000000D+00 0.00000000D+00 0.00000000D+00 0.00000000D+00
  <mgrwgt>
 0.2980798747D-02   11    2    0
 0.403427172384139D+03 0.000000000000000D+00 0.000000000000000D+00 0.403427172384139D+03
 0.403427172384139D+03 0.000000000000000D+00 0.000000000000000D+00 -.403427172384139D+03
 0.351887599413150D+03 -.169348110787934D+02 -.241713692932196D+03 -.242168060423303D+03
 0.141855146041603D+02 0.423088909182022D+01 -.128935682745482D+02 0.413331576668509D+01
 0.202444621872657D+03 0.113046477576361D+03 0.152256634379753D+03 0.708677368066082D+02
 0.238336608878310D+03 -.100342555589388D+03 0.102350626826992D+03 0.167167007850010D+03
 0.000000000000000D+00 0.000000000000000D+00 -.000000000000000D+00 -.000000000000000D+00
 0.404564032100467D+03 0.000000000000000D+00 0.000000000000000D+00 0.404564032100467D+03
 0.410375661791887D+03 0.000000000000000D+00 0.000000000000000D+00 -.410375661791887D+03
 0.350753542456835D+03 -.185999208145374D+02 -.239936460439335D+03 -.242168060423303D+03
 0.141005768548039D+02 0.416385708434465D+01 -.128220225624609D+02 0.413331576668509D+01
 0.202683920516760D+03 0.112086409285504D+03 0.153281350364080D+03 0.708677368066082D+02
 0.239335691546658D+03 -.101474537123825D+03 0.103558832100876D+03 0.167167007850010D+03
 0.806596251729703D+01 0.382419156851320D+01 -.408169946315991D+01 -.581162969141989D+01
0.467230378787D-04 0.000000000000D+00 0.000000000000D+00 0.285754767592D-05 0.000000000000D+00  7 -2 1 -24 -13 13 23 21 0 0.12314451D-01 0.31281569D+00 0.98718220D+05 0.98718220D+05 0.98718220D+05 0.11221821D+01  1  2  2  2  7  2        1 0.688765105764D-03 0.100000000000D+01
-.239849884250D-05 0.000000000000D+00 -.179428767912D-06 0.285754767592D-05 0.000000000000D+00  7 -2 1 -24 -13 13 23 21 2 0.12314451D-01 0.31281569D+00 0.98718220D+05 0.98718220D+05 0.98718220D+05 0.11221821D+01  1  2  3  2  7  2        1 -.445252381381D-04 0.100000000000D+01
0.296936697818D-05 0.000000000000D+00 0.000000000000D+00 0.285754767592D-05 0.000000000000D+00  7 -2 1 -24 -13 13 23 21 2 0.12314451D-01 0.31281569D+00 0.98718220D+05 0.98718220D+05 0.98718220D+05 0.11221821D+01  1  2 15  2  7  2        1 0.551227165425D-04 0.100000000000D+01
0.350221284520D-04 0.000000000000D+00 0.000000000000D+00 0.285754767592D-05 0.000000000000D+00  7 -2 1 -24 -13 13 23 21 2 0.12314451D-01 0.31863978D+00 0.10048345D+06 0.10048345D+06 0.10048345D+06 0.11215502D+01  1  2 12  2  7  2        1 0.612878208290D-03 0.100000000000D+01
-.386998155013D-03 0.000000000000D+00 0.000000000000D+00 0.285754767592D-05 0.000000000000D+00  7 -2 1 -24 -13 13 23 21 2 0.12314451D-01 0.31281569D+00 0.98718220D+05 0.98718220D+05 0.98718220D+05 0.11221821D+01  1  2  4  2  7  2        1 -.718415398232D-02 0.100000000000D+01
-.262771795528D-02 0.000000000000D+00 -.253635810659D-03 0.285754767592D-05 0.000000000000D+00  7 -2 1 -24 -13 13 23 21 2 0.12314451D-01 0.31854240D+00 0.98718220D+05 0.98718220D+05 0.98718220D+05 0.11221821D+01  1  2  5  2  7  2        1 -.461079259903D-01 0.100000000000D+01
0.263192789115D-02 0.000000000000D+00 0.253594079179D-03 0.285754767592D-05 0.000000000000D+00  7 -2 1 -24 -13 13 23 21 2 0.12314451D-01 0.31281569D+00 0.98718220D+05 0.98718220D+05 0.98718220D+05 0.11221821D+01  1  2  6  2  7  2        1 0.488585668833D-01 0.100000000000D+01
0.351484460410D-03 0.000000000000D+00 0.000000000000D+00 0.285754767592D-05 0.612882698589D-06  7 -2 1 -24 -13 13 23 21 2 0.12349153D-01 0.31820352D+00 0.10048345D+06 0.10048345D+06 0.10048345D+06 0.11215502D+01  1  2 11  2  7  2        1 0.615013842027D-02 0.100000000000D+01
0.207731158625D-05 0.000000000000D+00 0.000000000000D+00 0.285754767592D-05 0.000000000000D+00  7 -2 21 -24 -13 13 23 -1 2 0.12314451D-01 0.31863978D+00 0.10048345D+06 0.10048345D+06 0.10048345D+06 0.11215502D+01  1  2 12  4  7  2        1 0.182989894548D-04 0.100000000000D+01
-.866928380101D-05 0.000000000000D+00 -.839740623070D-06 0.285754767592D-05 0.000000000000D+00  7 -2 21 -24 -13 13 23 -1 2 0.12314451D-01 0.31854240D+00 0.98718220D+05 0.98718220D+05 0.98718220D+05 0.11221821D+01  1  2  5  4  7  2        1 -.766850051292D-04 0.100000000000D+01
0.116891149584D-05 0.000000000000D+00 0.000000000000D+00 0.285754767592D-05 0.191044300284D-08  7 -2 21 -24 -13 13 23 -1 2 0.12349153D-01 0.31820352D+00 0.10048345D+06 0.10048345D+06 0.10048345D+06 0.11215502D+01  1  2 11  4  7  2        1 0.103186391583D-04 0.100000000000D+01
  </mgrwgt>
  </event>
  <event>
  8     66 0.26562228E-05 0.20834326E+03 0.75467711E-02 0.94822315E-01
       -2 -1    0    0    0  501 0.00000000E+00 0.00000000E+00 0.32927320E+03 0.32927336E+03 0.32000000E+00 0.0000E+00 0.9000E+01
        1 -1    0    0  501    0 0.00000000E+00 0.00000000E+00 -.48650245E+03 0.48650256E+03 0.32000000E+00 0.0000E+00 0.9000E+01
       25  2    1    2    0    0 0.15166909E+03 -.32373342E+01 0.21827535E+03 0.40287773E+03 0.30274138E+03 0.0000E+00 0.0000E+00
       23  2    3    3    0    0 0.14781202E+03 -.85929919E+01 0.85907065E+01 0.17412795E+03 0.91238760E+02 0.0000E+00 0.0000E+00
      -24  1    1    2    0    0 -.15166909E+03 0.32373342E+01 -.37550460E+03 0.41289818E+03 0.80419002E+02 0.0000E+00 0.9000E+01
      -13  1    4    4    0    0 0.13214302E+03 0.58174471E+01 0.38184824E+02 0.13767248E+03 0.10565837E+00 0.0000E+00 0.9000E+01
       13  1    4    4    0    0 0.15668997E+02 -.14410439E+02 -.29594118E+02 0.36455469E+02 0.10565837E+00 0.0000E+00 0.9000E+01
       23  1    3    3    0    0 0.38570678E+01 0.53556577E+01 0.20968464E+03 0.22874977E+03 0.91188000E+02 0.0000E+00 0.9000E+01
#aMCatNLO 1  0  0  1  1 0.38837680D+03 0.00000000D+00  -5  7  0 0.00000000D+00 0.00000000D+00 0.00000000D+00 0.00000000D+00 0.00000000D+00
  <mgrwgt>
 0.1000497325D-02    5    2    0
 0.400240333941232D+03 0.000000000000000D+00 0.000000000000000D+00 0.400240333941232D+03
 0.400240333941232D+03 0.000000000000000D+00 0.000000000000000D+00 -.400240333941232D+03
 0.347031601159802D+03 -.151669087516087D+03 0.323733418498859D+01 -.301578719091015D+03
 0.147803434754216D+03 0.132143176062862D+03 0.581747432155596D+01 0.659559954642584D+02
 0.313390530136645D+02 0.156688397858938D+02 -.144104659438471D+02 -.229991776991807D+02
 0.274306578954781D+03 0.385707166733046D+01 0.535565743730258D+01 0.258621901325938D+03
 0.000000000000000D+00 0.000000000000000D+00 0.000000000000000D+00 0.000000000000000D+00
 0.740027374834044D+03 0.000000000000000D+00 0.000000000000000D+00 0.740027374834044D+03
 0.572616767589573D+03 0.000000000000000D+00 0.000000000000000D+00 -.572616767589573D+03
 0.458955206925248D+03 -.336294992161467D+03 -.113410955364808D+02 -.301578719091015D+03
 0.100144920008937D+03 0.753461058822171D+02 0.133266436163023D+01 0.659559954642584D+02
 0.278046430396551D+02 0.212090292342925D+01 -.154802380638522D+02 -.229991776991807D+02
 0.302817568847532D+03 -.128343687466500D+03 -.508317821720243D+01 0.258621901325938D+03
 0.422921803602247D+03 0.387171670822321D+03 0.305718474559052D+02 0.167410607244471D+03
0.445993770709D-04 0.000000000000D+00 0.000000000000D+00 0.366739734087D-06 0.000000000000D+00  7 -2 1 -24 -13 13 23 21 0 0.50657435D-01 0.74846551D-01 0.43406913D+05 0.43406913D+05 0.43406913D+05 0.11527366D+01  1  2  2  1  7  1       -2 0.865082004045D-03 0.100000000000D+01
-.119363347379D-05 0.000000000000D+00 -.171273351238D-06 0.366739734087D-06 0.000000000000D+00  7 -2 1 -24 -13 13 23 21 2 0.50657435D-01 0.74846551D-01 0.43406913D+05 0.43406913D+05 0.43406913D+05 0.11527366D+01  1  2  3  1  7  1       -2 -.307651912546D-04 0.100000000000D+01
0.274637667818D-05 0.000000000000D+00 0.000000000000D+00 0.366739734087D-06 0.000000000000D+00  7 -2 1 -24 -13 13 23 21 2 0.50657435D-01 0.74846551D-01 0.43406913D+05 0.43406913D+05 0.43406913D+05 0.11527366D+01  1  2 15  1  7  1       -2 0.707862217476D-04 0.100000000000D+01
0.100337518200D-04 0.000000000000D+00 -.131727858592D-04 0.366739734087D-06 0.000000000000D+00  7 -2 1 -24 -13 13 23 21 2 0.12451615D+00 0.74846551D-01 0.43406913D+05 0.43406913D+05 0.43406913D+05 0.11527366D+01  1  2  5  1  7  1       -2 0.351831917935D-04 0.100000000000D+01
0.181143179119D-05 0.000000000000D+00 -.130064870975D-05 0.366739734087D-06 0.000000000000D+00  7 21 1 -24 -13 13 23 2 2 0.12451615D+00 0.74846551D-01 0.43406913D+05 0.43406913D+05 0.43406913D+05 0.11527366D+01  1  2  5  3  7  1       -2 0.602110983007D-04 0.100000000000D+01
  </mgrwgt>
  </event>
  <event>
  8     66 0.26562228E-05 0.16372094E+03 0.75467711E-02 0.10304943E+00
       -2 -1    0    0    0  501 0.00000000E+00 0.00000000E+00 0.10718835E+04 0.10718835E+04 0.32000000E+00 0.0000E+00 0.9000E+01
        1 -1    0    0  501    0 0.00000000E+00 0.00000000E+00 -.63872360E+02 0.63873161E+02 0.32000000E+00 0.0000E+00 0.9000E+01
       25  2    1    2    0    0 -.15634152E+03 0.22430199E+02 0.74626237E+03 0.81964688E+03 0.29994617E+03 0.0000E+00 0.0000E+00
       23  2    3    3    0    0 -.13434290E+03 -.35520110E+02 0.66654038E+03 0.68358431E+03 0.60841869E+02 0.0000E+00 0.0000E+00
      -24  1    1    2    0    0 0.15634152E+03 -.22430199E+02 0.26174873E+03 0.31610979E+03 0.80419002E+02 0.0000E+00 0.9000E+01
      -11  1    4    4    0    0 -.13532575E+03 -.42507595E+02 0.65390029E+03 0.66910802E+03 0.51099893E-03 0.0000E+00 0.9000E+01
       11  1    4    4    0    0 0.98285535E+00 0.69874851E+01 0.12640093E+02 0.14476288E+02 0.51099893E-03 0.0000E+00 0.9000E+01
       23  1    3    3    0    0 -.21998621E+02 0.57950309E+02 0.79721988E+02 0.13606257E+03 0.91188000E+02 0.0000E+00 0.9000E+01
#aMCatNLO 1  0  0  2  1 0.68270597D+02 0.00000000D+00  -5  7  0 0.00000000D+00 0.00000000D+00 0.00000000D+00 0.00000000D+00 0.00000000D+00
  <mgrwgt>
 0.2207440135D-02    9    2    0
 0.261656661697649D+03 0.000000000000000D+00 0.000000000000000D+00 0.261656661697649D+03
 0.261656661697649D+03 0.000000000000000D+00 0.000000000000000D+00 -.261656661697649D+03
 0.181876074746373D+03 0.156341516534767D+03 -.224301991490575D+02 -.408155238177923D+02
 0.192628664560804D+03 -.135325751200764D+03 -.425075948176956D+02 0.130329765806750D+03
 0.707068978184854D+01 0.982855353941389D+00 0.698748507737968D+01 -.451333178220040D+00
 0.141737894306271D+03 -.219986206879444D+02 0.579503088893734D+02 -.890629088107381D+02
 0.000000000000000D+00 -.000000000000000D+00 -.000000000000000D+00 -.000000000000000D+00
 0.273823293476169D+03 0.000000000000000D+00 0.000000000000000D+00 0.273823293476169D+03
 0.380988244555395D+03 0.000000000000000D+00 0.000000000000000D+00 -.380988244555395D+03
 0.191480251278460D+03 0.168904463771056D+03 -.168695257271364D+01 -.408155238177923D+02
 0.180371949833586D+03 -.122774773191009D+03 -.217841111690056D+02 0.130329765806750D+03
 0.797675200615263D+01 0.148918189522846D+01 0.782350357658392D+01 -.451333178220040D+00
 0.147918816965508D+03 -.122520549364308D+02 0.740433014693457D+02 -.890629088107381D+02
 0.127063767947858D+03 -.353668175388451D+02 -.583957413042104D+02 -.107164951079226D+03
0.116941057764D-03 0.000000000000D+00 0.000000000000D+00 0.337856353098D-08 0.000000000000D+00  7 -2 1 -24 -11 11 23 21 0 0.16490521D+00 0.98265822D-02 0.47611012D+05 0.47611012D+05 0.47611012D+05 0.11491703D+01  1  2  2  2  7  2        1 0.204538389568D-02 0.100000000000D+01
-.623615798779D-05 0.000000000000D+00 -.449084453103D-06 0.337856353098D-08 0.000000000000D+00  7 -2 1 -24 -11 11 23 21 2 0.16490521D+00 0.98265822D-02 0.47611012D+05 0.47611012D+05 0.47611012D+05 0.11491703D+01  1  2  3  2  7  2        1 -.144043525754D-03 0.100000000000D+01
0.759245441745D-05 0.000000000000D+00 0.000000000000D+00 0.337856353098D-08 0.000000000000D+00  7 -2 1 -24 -11 11 23 21 2 0.16490521D+00 0.98265822D-02 0.47611012D+05 0.47611012D+05 0.47611012D+05 0.11491703D+01  1  2 15  2  7  2        1 0.175371423488D-03 0.100000000000D+01
0.231194842838D-03 0.000000000000D+00 0.000000000000D+00 0.337856353098D-08 0.000000000000D+00  7 -2 1 -24 -11 11 23 21 2 0.16490521D+00 0.14454891D-01 0.64036141D+05 0.64036141D+05 0.64036141D+05 0.11379619D+01  1  2 12  2  7  2        1 0.313653838005D-02 0.100000000000D+01
-.244718428814D-03 0.000000000000D+00 0.000000000000D+00 0.337856353098D-08 0.000000000000D+00  7 -2 1 -24 -11 11 23 21 2 0.16490521D+00 0.98265822D-02 0.47611012D+05 0.47611012D+05 0.47611012D+05 0.11491703D+01  1  2  4  2  7  2        1 -.565253564331D-02 0.100000000000D+01
-.279010413769D-03 0.000000000000D+00 -.524116628253D-04 0.337856353098D-08 0.000000000000D+00  7 -2 1 -24 -11 11 23 21 2 0.16490521D+00 0.14922259D-01 0.47611012D+05 0.47611012D+05 0.47611012D+05 0.11491703D+01  1  2  5  2  7  2        1 -.372224484798D-02 0.100000000000D+01
0.280347319126D-03 0.000000000000D+00 0.481486130260D-04 0.337856353098D-08 0.000000000000D+00  7 -2 1 -24 -11 11 23 21 2 0.16490521D+00 0.98265822D-02 0.47611012D+05 0.47611012D+05 0.47611012D+05 0.11491703D+01  1  2  6  2  7  2        1 0.647549602841D-02 0.100000000000D+01
0.107205488089D-04 0.000000000000D+00 0.000000000000D+00 0.337856353098D-08 0.000000000000D+00  7 -2 21 -24 -11 11 23 -1 2 0.16490521D+00 0.14454891D-01 0.64036141D+05 0.64036141D+05 0.64036141D+05 0.11379619D+01  1  2 12  4  7  2        1 0.142410070020D-02 0.100000000000D+01
-.118173497578D-04 0.000000000000D+00 -.257602058232D-05 0.337856353098D-08 0.000000000000D+00  7 -2 21 -24 -11 11 23 -1 2 0.16490521D+00 0.14922259D-01 0.47611012D+05 0.47611012D+05 0.47611012D+05 0.11491703D+01  1  2  5  4  7  2        1 -.153062627577D-02 0.100000000000D+01
  </mgrwgt>
  </event>
  <event>
  8     66 0.26562228E-05 0.14310928E+03 0.75467711E-02 0.10236009E+00
       -2 -1    0    0    0  501 0.00000000E+00 0.00000000E+00 0.40404889E+02 0.40406156E+02 0.32000000E+00 0.0000E+00 0.9000E+01
        1 -1    0    0  501    0 0.00000000E+00 0.00000000E+00 -.13798726E+04 0.13798727E+04 0.32000000E+00 0.0000E+00 0.9000E+01
       25  2    1    2    0    0 0.14086031E+02 -.39519429E+02 -.57223509E+03 0.64770302E+03 0.30050959E+03 0.0000E+00 0.0000E+00
       23  2    3    3    0    0 0.58149469E+02 -.11245117E+03 -.17022827E+03 0.22676911E+03 0.80124527E+02 0.0000E+00 0.0000E+00
      -24  1    1    2    0    0 -.14086031E+02 0.39519429E+02 -.76723264E+03 0.77257578E+03 0.80419002E+02 0.0000E+00 0.9000E+01
      -13  1    4    4    0    0 0.37947699E+02 -.17032741E+02 -.16578526E+02 0.44777235E+02 0.10565837E+00 0.0000E+00 0.9000E+01
       13  1    4    4    0    0 0.20201770E+02 -.95418433E+02 -.15364974E+03 0.18199188E+03 0.10565837E+00 0.0000E+00 0.9000E+01
       23  1    3    3    0    0 -.44063438E+02 0.72931746E+02 -.40200681E+03 0.42093391E+03 0.91188000E+02 0.0000E+00 0.9000E+01
#aMCatNLO 1  0  0  2  1 0.15408302D+03 0.00000000D+00  -5  7  0 0.00000000D+00 0.00000000D+00 0.00000000D+00 0.00000000D+00 0.00000000D+00
  <mgrwgt>
 0.1431983622D-02    9    2    0
 0.236123963742746D+03 0.000000000000000D+00 0.000000000000000D+00 0.236123963742746D+03
 0.236123963742746D+03 0.000000000000000D+00 0.000000000000000D+00 -.236123963742746D+03
 0.147358310591778D+03 -.140860315221398D+02 0.395194310112719D+02 -.116133776458853D+03
 0.876440847181720D+02 0.379477276459355D+02 -.170326091857155D+02 0.771449659856215D+02
 0.111531149089449D+03 0.202017409905525D+02 -.954185645182251D+02 0.540960666171292D+02
 0.125714383086094D+03 -.440634371143482D+02 0.729317426926687D+02 -.151072561438976D+02
 0.000000000000000D+00 0.000000000000000D+00 0.000000000000000D+00 -.000000000000000D+00
 0.300565947455915D+03 0.000000000000000D+00 0.000000000000000D+00 0.300565947455915D+03
 0.362098181772120D+03 0.000000000000000D+00 0.000000000000000D+00 -.362098181772120D+03
 0.153660263576848D+03 -.573787797088707D+02 0.191018913372978D+02 -.116133776458853D+03
 0.833632545397305D+02 0.133533061986132D+02 -.286317244346073D+02 0.771449659856215D+02
 0.124635927334553D+03 -.137640094547781D+02 -.111437345637932D+03 0.540960666171292D+02
 0.135089667924670D+03 -.815724982667118D+02 0.552418806190332D+02 -.151072561438976D+02
 0.165915015852233D+03 0.139361981231747D+03 0.657252981162085D+02 -.615322343162058D+02
0.122656128153D-04 0.000000000000D+00 0.000000000000D+00 0.109554530926D-07 0.000000000000D+00  7 -2 1 -24 -13 13 23 21 0 0.62162371D-02 0.21228820D+00 0.31441862D+05 0.31441862D+05 0.31441862D+05 0.11654491D+01  1  2  2  2  7  2        1 0.138943466792D-02 0.100000000000D+01
-.613459990728D-06 0.000000000000D+00 -.471031828207D-07 0.109554530926D-07 0.000000000000D+00  7 -2 1 -24 -13 13 23 21 2 0.62162371D-02 0.21228820D+00 0.31441862D+05 0.31441862D+05 0.31441862D+05 0.11654491D+01  1  2  3  2  7  2        1 -.943890770754D-04 0.100000000000D+01
0.780217458547D-06 0.000000000000D+00 0.000000000000D+00 0.109554530926D-07 0.000000000000D+00  7 -2 1 -24 -13 13 23 21 2 0.62162371D-02 0.21228820D+00 0.31441862D+05 0.31441862D+05 0.31441862D+05 0.11654491D+01  1  2 15  2  7  2        1 0.120046958145D-03 0.100000000000D+01
0.155209380382D-06 0.000000000000D+00 0.000000000000D+00 0.109554530926D-07 0.000000000000D+00  7 -2 1 -24 -13 13 23 21 2 0.62162371D-02 0.34204298D+00 0.70974858D+05 0.70974858D+05 0.70974858D+05 0.11341494D+01  1  2 12  2  7  2        1 0.632560474747D-05 0.100000000000D+01
-.510626209561D-05 0.000000000000D+00 0.000000000000D+00 0.109554530926D-07 0.000000000000D+00  7 -2 1 -24 -13 13 23 21 2 0.62162371D-02 0.21228820D+00 0.31441862D+05 0.31441862D+05 0.31441862D+05 0.11654491D+01  1  2  4  2  7  2        1 -.785667156448D-03 0.100000000000D+01
-.466788209008D-05 0.000000000000D+00 -.379113205285D-05 0.109554530926D-07 0.000000000000D+00  7 -2 1 -24 -13 13 23 21 2 0.62162371D-02 0.36302391D+00 0.31441862D+05 0.31441862D+05 0.31441862D+05 0.11654491D+01  1  2  5  2  7  2        1 -.166493367094D-03 0.100000000000D+01
0.626537408808D-05 0.000000000000D+00 0.330406391992D-05 0.109554530926D-07 0.000000000000D+00  7 -2 1 -24 -13 13 23 21 2 0.62162371D-02 0.21228820D+00 0.31441862D+05 0.31441862D+05 0.31441862D+05 0.11654491D+01  1  2  6  2  7  2        1 0.964012138761D-03 0.100000000000D+01
0.843384706611D-08 0.000000000000D+00 0.000000000000D+00 0.109554530926D-07 0.000000000000D+00  7 -2 21 -24 -13 13 23 -1 2 0.62162371D-02 0.34204298D+00 0.70974858D+05 0.70974858D+05 0.70974858D+05 0.11341494D+01  1  2 12  4  7  2        1 0.156566856375D-06 0.100000000000D+01
-.940429502079D-07 0.000000000000D+00 -.226266059486D-06 0.109554530926D-07 0.000000000000D+00  7 -2 21 -24 -13 13 23 -1 2 0.62162371D-02 0.36302391D+00 0.31441862D+05 0.31441862D+05 0.31441862D+05 0.11654491D+01  1  2  5  4  7  2        1 -.144271344724D-05 0.100000000000D+01
  </mgrwgt>
  </event>
  <event>
  8     66 0.26562228E-05 0.27961196E+03 0.75467711E-02 0.95404943E-01
       -2 -1    0    0    0  501 0.00000000E+00 0.00000000E+00 0.13301749E+03 0.13301787E+03 0.32000000E+00 0.0000E+00 0.9000E+01
        1 -1    0    0  501    0 0.00000000E+00 0.00000000E+00 -.13672549E+04 0.13672550E+04 0.32000000E+00 0.0000E+00 0.9000E+01
       25  2    1    2    0    0 0.75151422E+02 -.35965614E+03 -.66487439E+03 0.81789334E+03 0.30313575E+03 0.0000E+00 0.0000E+00
       23  2    3    3    0    0 -.70115107E+02 -.12305380E+03 -.14888206E+03 0.22489556E+03 0.91399000E+02 0.0000E+00 0.0000E+00
      -24  1    1    2    0    0 -.75151422E+02 0.35965614E+03 -.56936304E+03 0.68237949E+03 0.80419002E+02 0.0000E+00 0.9000E+01
      -11  1    4    4    0    0 -.95599655E+00 0.69091978E+01 -.42982705E+02 0.43544964E+02 0.51099893E-03 0.0000E+00 0.9000E+01
       11  1    4    4    0    0 -.69159110E+02 -.12996300E+03 -.10589935E+03 0.18135059E+03 0.51099893E-03 0.0000E+00 0.9000E+01
       23  1    3    3    0    0 0.14526653E+03 -.23660234E+03 -.51599233E+03 0.59299778E+03 0.91188000E+02 0.0000E+00 0.9000E+01
#aMCatNLO 1  0  0  2  1 0.10364159D+03 0.00000000D+00  -5  7  0 0.00000000D+00 0.00000000D+00 0.00000000D+00 0.00000000D+00 0.00000000D+00
  <mgrwgt>
 0.1473189623D-02    9    2    0
 0.426461169673391D+03 0.000000000000000D+00 0.000000000000000D+00 0.426461169673391D+03
 0.426461169673391D+03 0.000000000000000D+00 0.000000000000000D+00 -.426461169673391D+03
 0.376383888281834D+03 -.751514220577116D+02 0.359656143338739D+03 -.140476946574935D+02
 0.143957567566948D+02 -.955996545064631D+00 0.690919785134403D+01 -.125931278185656D+02
 0.165748291729647D+03 -.691591102245088D+02 -.129963002812517D+03 0.761520294161884D+02
 0.296394402578606D+03 0.145266528827285D+03 -.236602338377566D+03 -.495112069401293D+02
 0.000000000000000D+00 0.000000000000000D+00 0.000000000000000D+00 -.000000000000000D+00
 0.441991560471852D+03 0.000000000000000D+00 0.000000000000000D+00 0.441991560471852D+03
 0.646276370511167D+03 0.000000000000000D+00 0.000000000000000D+00 -.646276370511167D+03
 0.360121493538328D+03 -.110742356309720D+03 0.332804848143302D+03 -.140476946574935D+02
 0.140887430723851D+02 -.233248337821266D+01 0.587071838834976D+01 -.125931278185656D+02
 0.183187328360443D+03 -.860210979565176D+02 -.142684394360379D+03 0.761520294161884D+02
 0.301798626384421D+03 0.116359409762904D+03 -.258411082754753D+03 -.495112069401293D+02
 0.229071739627442D+03 0.827365278815457D+02 0.624199105834800D+02 -.204284810039315D+03
0.672125314673D-04 0.000000000000D+00 0.000000000000D+00 0.245311824897D-06 0.000000000000D+00  7 -2 1 -24 -11 11 23 21 0 0.20464261D-01 0.21034694D+00 0.16914518D+06 0.16914518D+06 0.16914518D+06 0.11034585D+01  1  2  2  2  7  2        1 0.118211305782D-02 0.100000000000D+01
-.372805870821D-05 0.000000000000D+00 -.258113818300D-06 0.245311824897D-06 0.000000000000D+00  7 -2 1 -24 -11 11 23 21 2 0.20464261D-01 0.21034694D+00 0.16914518D+06 0.16914518D+06 0.16914518D+06 0.11034585D+01  1  2  3  2  7  2        1 -.798368658539D-04 0.100000000000D+01
0.438829273572D-05 0.000000000000D+00 0.000000000000D+00 0.245311824897D-06 0.000000000000D+00  7 -2 1 -24 -11 11 23 21 2 0.20464261D-01 0.21034694D+00 0.16914518D+06 0.16914518D+06 0.16914518D+06 0.11034585D+01  1  2 15  2  7  2        1 0.939758640865D-04 0.100000000000D+01
0.150796051110D-03 0.000000000000D+00 0.000000000000D+00 0.245311824897D-06 0.000000000000D+00  7 -2 1 -24 -11 11 23 21 2 0.20464261D-01 0.32100656D+00 0.21814714D+06 0.21814714D+06 0.21814714D+06 0.10949401D+01  1  2 12  2  7  2        1 0.104848734950D-02 0.100000000000D+01
-.148703896409D-03 0.000000000000D+00 0.000000000000D+00 0.245311824897D-06 0.000000000000D+00  7 -2 1 -24 -11 11 23 21 2 0.20464261D-01 0.21034694D+00 0.16914518D+06 0.16914518D+06 0.16914518D+06 0.11034585D+01  1  2  4  2  7  2        1 -.318451343145D-02 0.100000000000D+01
-.173390928222D-03 0.000000000000D+00 -.237001995894D-04 0.245311824897D-06 0.000000000000D+00  7 -2 1 -24 -11 11 23 21 2 0.20464261D-01 0.32231411D+00 0.16914518D+06 0.16914518D+06 0.16914518D+06 0.11034585D+01  1  2  5  2  7  2        1 -.122205245626D-02 0.100000000000D+01
0.169811120397D-03 0.000000000000D+00 0.216944171434D-04 0.245311824897D-06 0.000000000000D+00  7 -2 1 -24 -11 11 23 21 2 0.20464261D-01 0.21034694D+00 0.16914518D+06 0.16914518D+06 0.16914518D+06 0.11034585D+01  1  2  6  2  7  2        1 0.363652739958D-02 0.100000000000D+01
0.747656952376D-05 0.000000000000D+00 0.000000000000D+00 0.245311824897D-06 0.000000000000D+00  7 -2 21 -24 -11 11 23 -1 2 0.20464261D-01 0.32100656D+00 0.21814714D+06 0.21814714D+06 0.21814714D+06 0.10949401D+01  1  2 12  4  7  2        1 0.248487221128D-04 0.100000000000D+01
-.777673111207D-05 0.000000000000D+00 -.118347605854D-05 0.245311824897D-06 0.000000000000D+00  7 -2 21 -24 -11 11 23 -1 2 0.20464261D-01 0.32231411D+00 0.16914518D+06 0.16914518D+06 0.16914518D+06 0.11034585D+01  1  2  5  4  7  2        1 -.263600165111D-04 0.100000000000D+01
  </mgrwgt>
  </event>
  <event>
  8     66 0.26562228E-05 0.23915456E+03 0.75467711E-02 0.94919847E-01
       -2 -1    0    0    0  501 0.00000000E+00 0.00000000E+00 0.20781301E+03 0.20781326E+03 0.32000000E+00 0.0000E+00 0.9000E+01
        1 -1    0    0  501    0 0.00000000E+00 0.00000000E+00 -.76039370E+03 0.76039377E+03 0.32000000E+00 0.0000E+00 0.9000E+01
       25  2    1    2    0    0 0.48134040E+02 -.14371669E+03 0.49538909E+02 0.34211870E+03 0.30268751E+03 0.0000E+00 0.0000E+00
       23  2    3    3    0    0 -.62920650E+02 -.14044441E+03 -.24166872E+02 0.18058961E+03 0.91350588E+02 0.0000E+00 0.0000E+00
      -24  1    1    2    0    0 -.48134040E+02 0.14371669E+03 -.60211960E+03 0.62608833E+03 0.80419002E+02 0.0000E+00 0.9000E+01
      -13  1    4    4    0    0 0.69502596E+01 -.99026121E+00 0.17740261E+02 0.19079171E+02 0.10565837E+00 0.0000E+00 0.9000E+01
       13  1    4    4    0    0 -.69870910E+02 -.13945415E+03 -.41907133E+02 0.16151044E+03 0.10565837E+00 0.0000E+00 0.9000E+01
       23  1    3    3    0    0 0.11105469E+03 -.32722824E+01 0.73705781E+02 0.16152909E+03 0.91188000E+02 0.0000E+00 0.9000E+01
#aMCatNLO 1  0  0  2  1 0.34930888D+03 0.00000000D+00  -5  7  0 0.00000000D+00 0.00000000D+00 0.00000000D+00 0.00000000D+00 0.00000000D+00
  <mgrwgt>
 0.2095312894D-02    3    2    0
 0.397517118301795D+03 0.000000000000000D+00 0.000000000000000D+00 0.397517118301795D+03
 0.397517118301795D+03 0.000000000000000D+00 0.000000000000000D+00 -.397517118301795D+03
 0.343964388843126D+03 -.481340402576550D+02 0.143716695248392D+03 -.298115599245007D+03
 0.355649764385542D+02 0.695036286556649D+01 -.990076268042166D+00 0.348651653387063D+02
 0.167563364963371D+03 -.698710100637037D+02 -.139454333236001D+03 0.612210108723150D+02
 0.247941506358539D+03 0.111054687455792D+03 -.327228574434824D+01 0.202029423033986D+03
 0.000000000000000D+00 -.000000000000000D+00 -.000000000000000D+00 0.000000000000000D+00
 0.126297552200000D+04 0.000000000000000D+00 0.000000000000000D+00 0.126297552200000D+04
 0.470999573647393D+03 0.000000000000000D+00 0.000000000000000D+00 -.470999573647393D+03
 0.428849215249972D+03 0.344061634100255D+01 0.297589793360140D+03 -.298115599245007D+03
 0.394043609609063D+02 0.119535328554937D+02 0.139368920823368D+02 0.348651653387063D+02
 0.115172635653775D+03 -.510022788940198D+02 -.831594334926932D+02 0.612210108723150D+02
 0.284960875841428D+03 0.146618576622602D+03 0.102832653539772D+03 0.202029423033986D+03
 0.865588007941309D+03 -.111010446925079D+03 -.331199905489555D+03 0.791975948352604D+03
0.852202844597D-04 0.000000000000D+00 0.000000000000D+00 0.579959649928D-06 0.000000000000D+00  7 -2 1 -24 -13 13 23 21 0 0.31971257D-01 0.11698367D+00 0.57194903D+05 0.57194903D+05 0.57194903D+05 0.11421948D+01  1  2  2  2  7  2        1 0.203223551761D-02 0.100000000000D+01
-.324818867594D-05 0.000000000000D+00 -.327268331341D-06 0.579959649928D-06 0.000000000000D+00  7 -2 1 -24 -13 13 23 21 2 0.31971257D-01 0.11698367D+00 0.57194903D+05 0.57194903D+05 0.57194903D+05 0.11421948D+01  1  2  3  2  7  2        1 -.101053804702D-03 0.100000000000D+01
0.527569492048D-05 0.000000000000D+00 0.000000000000D+00 0.579959649928D-06 0.000000000000D+00  7 -2 1 -24 -13 13 23 21 2 0.31971257D-01 0.11698367D+00 0.57194903D+05 0.57194903D+05 0.57194903D+05 0.11421948D+01  1  2 15  2  7  2        1 0.164131181205D-03 0.100000000000D+01
  </mgrwgt>
  </event>
  <event>
  8     66 0.26562228E-05 0.20343501E+03 0.75467711E-02 0.97735342E-01
       -2 -1    0    0    0  501 0.00000000E+00 0.00000000E+00 0.57540105E+02 0.57540995E+02 0.32000000E+00 0.0000E+00 0.9000E+01
        1 -1    0    0  501    0 0.00000000E+00 0.00000000E+00 -.27046627E+04 0.27046627E+04 0.32000000E+00 0.0000E+00 0.9000E+01
       25  2    1    2    0    0 0.31283252E+03 0.91585964E+02 -.17216976E+04 0.17777593E+04 0.29988883E+03 0.0000E+00 0.0000E+00
       23  2    3    3    0    0 0.10480560E+03 -.58396073E+02 -.88681314E+03 0.89962655E+03 0.92174088E+02 0.0000E+00 0.0000E+00
      -24  1    1    2    0    0 -.31283252E+03 -.91585964E+02 -.92542501E+03 0.98444443E+03 0.80419002E+02 0.0000E+00 0.9000E+01
      -11  1    4    4    0    0 0.92169178E+01 0.19207460E+02 -.25764559E+03 0.25852491E+03 0.51099893E-03 0.0000E+00 0.9000E+01
       11  1    4    4    0    0 0.95588683E+02 -.77603532E+02 -.62916755E+03 0.64110163E+03 0.51099893E-03 0.0000E+00 0.9000E+01
       23  1    3    3    0    0 0.20802692E+03 0.14998204E+03 -.83488443E+03 0.87813272E+03 0.91188000E+02 0.0000E+00 0.9000E+01
#aMCatNLO 1  0  0  2  1 0.14389391D+02 0.00000000D+00  -5  7  0 0.00000000D+00 0.00000000D+00 0.00000000D+00 0.00000000D+00 0.00000000D+00
  <mgrwgt>
 0.2965807947D-02    9    2    0
 0.394496932456511D+03 0.000000000000000D+00 0.000000000000000D+00 0.394496932456511D+03
 0.394496932456511D+03 0.000000000000000D+00 0.000000000000000D+00 -.394496932456511D+03
 0.341602924368943D+03 -.312832520990153D+03 -.915859641815790D+02 0.630330624269449D+02
 0.406581094519008D+02 0.921691778961808D+01 0.192074595343549D+02 -.346295219270825D+02
 0.133549438772723D+03 0.955886829334125D+02 -.776035324582653D+02 -.517295664157726D+02
 0.273183392319456D+03 0.208026920267122D+03 0.149982037105489D+03 0.233260259159102D+02
 0.000000000000000D+00 0.000000000000000D+00 -.000000000000000D+00 -.000000000000000D+00
 0.397824111443743D+03 0.000000000000000D+00 0.000000000000000D+00 0.397824111443743D+03
 0.410433273901723D+03 0.000000000000000D+00 0.000000000000000D+00 -.410433273901723D+03
 0.342365699374961D+03 -.315283154082749D+03 -.858511615929007D+02 0.630330624269449D+02
 0.409209378315005D+02 0.892462322230177D+01 0.198914671266651D+02 -.346295219270825D+02
 0.131585151738168D+03 0.946387159627914D+02 -.753804852551829D+02 -.517295664157726D+02
 0.274253279373029D+03 0.206065475871608D+03 0.154572074035509D+03 0.233260259159102D+02
 0.191323170278065D+02 0.565433902604791D+01 -.132318943140910D+02 -.126091624579801D+02
0.862215898973D-04 0.000000000000D+00 0.000000000000D+00 0.408882198874D-05 0.000000000000D+00  7 -2 1 -24 -11 11 23 21 0 0.88523938D-02 0.41610202D+00 0.14150806D+06 0.14150806D+06 0.14150806D+06 0.11095548D+01  1  2  2  2  7  2        1 0.735145454964D-03 0.100000000000D+01
-.477691716331D-05 0.000000000000D+00 -.331113607872D-06 0.408882198874D-05 0.000000000000D+00  7 -2 1 -24 -11 11 23 21 2 0.88523938D-02 0.41610202D+00 0.14150806D+06 0.14150806D+06 0.14150806D+06 0.11095548D+01  1  2  3  2  7  2        1 -.501420924598D-04 0.100000000000D+01
0.563202742700D-05 0.000000000000D+00 0.000000000000D+00 0.408882198874D-05 0.000000000000D+00  7 -2 1 -24 -11 11 23 21 2 0.88523938D-02 0.41610202D+00 0.14150806D+06 0.14150806D+06 0.14150806D+06 0.11095548D+01  1  2 15  2  7  2        1 0.591179688334D-04 0.100000000000D+01
0.236327877712D-03 0.000000000000D+00 0.000000000000D+00 0.408882198874D-05 0.000000000000D+00  7 -2 1 -24 -11 11 23 21 2 0.88523938D-02 0.43462140D+00 0.14705476D+06 0.14705476D+06 0.14705476D+06 0.11082322D+01  1  2 12  2  7  2        1 0.202859256955D-02 0.100000000000D+01
-.238985173770D-03 0.000000000000D+00 0.000000000000D+00 0.408882198874D-05 0.000000000000D+00  7 -2 1 -24 -11 11 23 21 2 0.88523938D-02 0.41610202D+00 0.14150806D+06 0.14150806D+06 0.14150806D+06 0.11095548D+01  1  2  4  2  7  2        1 -.250856698369D-02 0.100000000000D+01
-.145489407371D-02 0.000000000000D+00 -.173198625287D-03 0.408882198874D-05 0.000000000000D+00  7 -2 1 -24 -11 11 23 21 2 0.88523938D-02 0.43403242D+00 0.14150806D+06 0.14150806D+06 0.14150806D+06 0.11095548D+01  1  2  5  2  7  2        1 -.126190856820D-01 0.100000000000D+01
0.146105467893D-02 0.000000000000D+00 0.173044602194D-03 0.408882198874D-05 0.000000000000D+00  7 -2 1 -24 -11 11 23 21 2 0.88523938D-02 0.41610202D+00 0.14150806D+06 0.14150806D+06 0.14150806D+06 0.11095548D+01  1  2  6  2  7  2        1 0.153363217940D-01 0.100000000000D+01
0.413532501429D-05 0.000000000000D+00 0.000000000000D+00 0.408882198874D-05 0.000000000000D+00  7 -2 21 -24 -11 11 23 -1 2 0.88523938D-02 0.43462140D+00 0.14705476D+06 0.14705476D+06 0.14705476D+06 0.11082322D+01  1  2 12  4  7  2        1 0.955325106607D-05 0.100000000000D+01
-.107046724115D-04 0.000000000000D+00 -.128739074654D-05 0.408882198874D-05 0.000000000000D+00  7 -2 21 -24 -11 11 23 -1 2 0.88523938D-02 0.43403242D+00 0.14150806D+06 0.14150806D+06 0.14150806D+06 0.11095548D+01  1  2  5  4  7  2        1 -.251283334626D-04 0.100000000000D+01
  </mgrwgt>
  </event>
  <event>
  8     66 0.26562228E-05 0.21499810E+03 0.75467711E-02 0.10227455E+00
       -2 -1    0    0    0  501 0.00000000E+00 0.00000000E+00 0.29876686E+03 0.29876703E+03 0.32000000E+00 0.0000E+00 0.9000E+01
        1 -1    0    0  501    0 0.00000000E+00 0.00000000E+00 -.36395415E+03 0.36395429E+03 0.32000000E+00 0.0000E+00 0.9000E+01
       25  2    1    2    0    0 0.13299996E+03 -.10473349E+03 -.22899056E+03 0.41381005E+03 0.30023989E+03 0.0000E+00 0.0000E+00
       23  2    3    3    0    0 0.59754386E+02 -.56370250E+02 -.25486870E+03 0.28462474E+03 0.96462414E+02 0.0000E+00 0.0000E+00
      -24  1    1    2    0    0 -.13299996E+03 0.10473349E+03 0.16380327E+03 0.24891127E+03 0.80419002E+02 0.0000E+00 0.9000E+01
      -13  1    4    4    0    0 0.66845379E+02 -.72365940E+02 -.24603241E+03 0.26502281E+03 0.10565837E+00 0.0000E+00 0.9000E+01
       13  1    4    4    0    0 -.70909928E+01 0.15995691E+02 -.88362863E+01 0.19601924E+02 0.10565837E+00 0.0000E+00 0.9000E+01
       23  1    3    3    0    0 0.73245569E+02 -.48363238E+02 0.25878137E+02 0.12918531E+03 0.91188000E+02 0.0000E+00 0.9000E+01
#aMCatNLO 1  0  0  1  1 0.99882297D+02 0.00000000D+00  -5  7  0 0.00000000D+00 0.00000000D+00 0.00000000D+00 0.00000000D+00 0.00000000D+00
  <mgrwgt>
 0.1181067756D-02    4    2    0
 0.329753759659603D+03 0.000000000000000D+00 0.000000000000000D+00 0.329753759659603D+03
 0.329753759659603D+03 0.000000000000000D+00 0.000000000000000D+00 -.329753759659603D+03
 0.266314926297637D+03 -.132999955245556D+03 0.104733487656100D+03 0.189204472681316D+03
 0.241996119243056D+03 0.668454625461352D+02 -.723660405464388D+02 -.221036110265548D+03
 0.188237745999789D+02 -.709107977131704D+01 0.159957927980620D+02 -.694159136143110D+01
 0.132372699178535D+03 0.732455724707378D+02 -.483632399077233D+02 0.387732289456635D+02
 0.000000000000000D+00 0.000000000000000D+00 0.000000000000000D+00 -.000000000000000D+00
 0.357010859606303D+03 0.000000000000000D+00 0.000000000000000D+00 0.357010859606303D+03
 0.439661474468243D+03 0.000000000000000D+00 0.000000000000000D+00 -.439661474468243D+03
 0.286141884372361D+03 -.173851108695907D+03 0.968887070838718D+02 0.189204472681316D+03
 0.236880531745306D+03 0.314351586536176D+02 -.791659969875791D+02 -.221036110265548D+03
 0.196362394281569D+02 -.993498703143499D+01 0.154496679878897D+02 -.694159136143110D+01
 0.124369560650430D+03 0.542608894133542D+02 -.520089306713753D+02 0.387732289456635D+02
 0.129644117878292D+03 0.980900476603699D+02 0.188365525871929D+02 -.826506148619393D+02
0.416569797481D-04 0.000000000000D+00 0.000000000000D+00 0.309658805334D-06 0.000000000000D+00  7 -2 1 -24 -13 13 23 21 0 0.45964157D-01 0.55992970D-01 0.46224183D+05 0.46224183D+05 0.46224183D+05 0.11503070D+01  1  2  2  1  7  1       -2 0.143277608274D-02 0.100000000000D+01
-.179951070410D-05 0.000000000000D+00 -.159973770767D-06 0.309658805334D-06 0.000000000000D+00  7 -2 1 -24 -13 13 23 21 2 0.45964157D-01 0.55992970D-01 0.46224183D+05 0.46224183D+05 0.46224183D+05 0.11503070D+01  1  2  3  1  7  1       -2 -.818978516273D-04 0.100000000000D+01
0.266215019515D-05 0.000000000000D+00 0.000000000000D+00 0.309658805334D-06 0.000000000000D+00  7 -2 1 -24 -13 13 23 21 2 0.45964157D-01 0.55992970D-01 0.46224183D+05 0.46224183D+05 0.46224183D+05 0.11503070D+01  1  2 15  1  7  1       -2 0.121157590891D-03 0.100000000000D+01
-.639333193348D-05 0.000000000000D+00 0.000000000000D+00 0.309658805334D-06 0.000000000000D+00  7 -2 1 -24 -13 13 23 21 2 0.45964157D-01 0.55992970D-01 0.46224183D+05 0.46224183D+05 0.46224183D+05 0.11503070D+01  1  2  4  1  7  1       -2 -.290968066430D-03 0.100000000000D+01
  </mgrwgt>
  </event>
  <event>
  8     66 0.26562228E-05 0.14136256E+03 0.75467711E-02 0.10182521E+00
       -2 -1    0    0    0  501 0.00000000E+00 0.00000000E+00 0.12297001E+03 0.12297043E+03 0.32000000E+00 0.0000E+00 0.9000E+01
        1 -1    0    0  501    0 0.00000000E+00 0.00000000E+00 -.94791697E+03 0.94791702E+03 0.32000000E+00 0.0000E+00 0.9000E+01
       25  2    1    2    0    0 -.18497223E+03 -.63354167E+02 -.19795464E+03 0.40921151E+03 0.30006590E+03 0.0000E+00 0.0000E+00
       23  2    3    3    0    0 -.89421743E+02 -.11041072E+03 -.21188507E+03 0.26830898E+03 0.83112285E+02 0.0000E+00 0.0000E+00
      -24  1    1    2    0    0 0.18497223E+03 0.63354167E+02 -.62699232E+03 0.66167594E+03 0.80419002E+02 0.0000E+00 0.9000E+01
      -13  1    4    4    0    0 -.28614197E+02 0.72872899E+01 -.22202368E+02 0.36943648E+02 0.10565837E+00 0.0000E+00 0.9000E+01
       13  1    4    4    0    0 -.60807546E+02 -.11769801E+03 -.18968270E+03 0.23136533E+03 0.10565837E+00 0.0000E+00 0.9000E+01
       23  1    3    3    0    0 -.95550485E+02 0.47056548E+02 0.13930430E+02 0.14090253E+03 0.91188000E+02 0.0000E+00 0.9000E+01
#aMCatNLO 1  0  0  2  1 0.37077324D+02 0.00000000D+00  -5  7  0 0.00000000D+00 0.00000000D+00 0.00000000D+00 0.00000000D+00 0.00000000D+00
  <mgrwgt>
 0.3285004507D-02    9    2    0
 0.341417067025154D+03 0.000000000000000D+00 0.000000000000000D+00 0.341417067025154D+03
 0.341417067025154D+03 0.000000000000000D+00 0.000000000000000D+00 -.341417067025154D+03
 0.280221878610624D+03 0.184972228285455D+03 0.633541673031044D+02 -.183925554358661D+03
 0.311153165805837D+02 -.286141445443534D+02 0.728749141774550D+01 0.981254945165022D+01
 0.133690118164431D+03 -.608075980793199D+02 -.117698207015098D+03 -.179615081792805D+02
 0.237806820694670D+03 -.955504856617812D+02 0.470565482942484D+02 0.192074513086291D+03
 0.000000000000000D+00 -.000000000000000D+00 -.000000000000000D+00 -.000000000000000D+00
 0.357669452480648D+03 0.000000000000000D+00 0.000000000000000D+00 0.357669452480648D+03
 0.363741869864880D+03 0.000000000000000D+00 0.000000000000000D+00 -.363741869864880D+03
 0.285396322273602D+03 0.187039219547123D+03 0.785593127387819D+02 -.183925554358661D+03
 0.313439626596513D+02 -.283858937840387D+02 0.896654351184485D+01 0.981254945165022D+01
 0.127109632646521D+03 -.598545332643461D+02 -.110687297298138D+03 -.179615081792805D+02
 0.239990109474236D+03 -.938044278475752D+02 0.599008517494435D+02 0.192074513086291D+03
 0.375712952915172D+02 -.499436465116282D+01 -.367394107019325D+02 -.607241738423199D+01
0.360168749882D-04 0.000000000000D+00 0.000000000000D+00 0.164232435040D-06 0.000000000000D+00  7 -2 1 -24 -13 13 23 21 0 0.18918500D-01 0.14583342D+00 0.65954297D+05 0.65954297D+05 0.65954297D+05 0.11368641D+01  1  2  2  2  7  2        1 0.146483758670D-02 0.100000000000D+01
-.180368127213D-05 0.000000000000D+00 -.138314283416D-06 0.164232435040D-06 0.000000000000D+00  7 -2 1 -24 -13 13 23 21 2 0.18918500D-01 0.14583342D+00 0.65954297D+05 0.65954297D+05 0.65954297D+05 0.11368641D+01  1  2  3  2  7  2        1 -.948113577557D-04 0.100000000000D+01
0.227525900178D-05 0.000000000000D+00 0.000000000000D+00 0.164232435040D-06 0.000000000000D+00  7 -2 1 -24 -13 13 23 21 2 0.18918500D-01 0.14583342D+00 0.65954297D+05 0.65954297D+05 0.65954297D+05 0.11368641D+01  1  2 15  2  7  2        1 0.119600063791D-03 0.100000000000D+01
0.695925519811D-04 0.000000000000D+00 0.000000000000D+00 0.164232435040D-06 0.000000000000D+00  7 -2 1 -24 -13 13 23 21 2 0.18918500D-01 0.15864513D+00 0.76947904D+05 0.76947904D+05 0.76947904D+05 0.11311823D+01  1  2 12  2  7  2        1 0.312721692713D-02 0.100000000000D+01
-.600606333346D-04 0.000000000000D+00 0.000000000000D+00 0.164232435040D-06 0.000000000000D+00  7 -2 1 -24 -13 13 23 21 2 0.18918500D-01 0.14583342D+00 0.65954297D+05 0.65954297D+05 0.65954297D+05 0.11368641D+01  1  2  4  2  7  2        1 -.315711555147D-02 0.100000000000D+01
-.220805681735D-03 0.000000000000D+00 -.479826463029D-04 0.164232435040D-06 0.000000000000D+00  7 -2 1 -24 -13 13 23 21 2 0.18918500D-01 0.16051405D+00 0.65954297D+05 0.65954297D+05 0.65954297D+05 0.11368641D+01  1  2  5  2  7  2        1 -.984195702122D-02 0.100000000000D+01
0.224593964806D-03 0.000000000000D+00 0.477627695666D-04 0.164232435040D-06 0.000000000000D+00  7 -2 1 -24 -13 13 23 21 2 0.18918500D-01 0.14583342D+00 0.65954297D+05 0.65954297D+05 0.65954297D+05 0.11368641D+01  1  2  6  2  7  2        1 0.118058878118D-01 0.100000000000D+01
0.972693365748D-06 0.000000000000D+00 0.000000000000D+00 0.164232435040D-06 0.000000000000D+00  7 -2 21 -24 -13 13 23 -1 2 0.18918500D-01 0.15864513D+00 0.76947904D+05 0.76947904D+05 0.76947904D+05 0.11311823D+01  1  2 12  4  7  2        1 0.589749856583D-04 0.100000000000D+01
-.331278728466D-05 0.000000000000D+00 -.751701774710D-06 0.164232435040D-06 0.000000000000D+00  7 -2 21 -24 -13 13 23 -1 2 0.18918500D-01 0.16051405D+00 0.65954297D+05 0.65954297D+05 0.65954297D+05 0.11368641D+01  1  2  5  4  7  2        1 -.197628937750D-03 0.100000000000D+01
  </mgrwgt>
  </event>
  <event>
  8     66 0.26562228E-05 0.24960418E+03 0.75467711E-02 0.95035459E-01
       -2 -1    0    0    0  501 0.00000000E+00 0.00000000E+00 0.93434851E+02 0.93435399E+02 0.32000000E+00 0.0000E+00 0.9000E+01
        1 -1    0    0  501    0 0.00000000E+00 0.00000000E+00 -.27554023E+04 0.27554023E+04 0.32000000E+00 0.0000E+00 0.9000E+01
       25  2    1    2    0    0 0.29686793E+03 -.34903850E+03 -.13582128E+04 0.14645683E+04 0.30043272E+03 0.0000E+00 0.0000E+00
       23  2    3    3    0    0 0.27303899E+02 0.12954525E+00 -.25574143E+03 0.27362687E+03 0.93394136E+02 0.0000E+00 0.0000E+00
      -24  1    1    2    0    0 -.29686793E+03 0.34903850E+03 -.13037546E+04 0.13842694E+04 0.80419002E+02 0.0000E+00 0.9000E+01
      -13  1    4    4    0    0 -.15751521E+00 -.73045942E+00 -.24357899E+03 0.24358016E+03 0.10565837E+00 0.0000E+00 0.9000E+01
       13  1    4    4    0    0 0.27461414E+02 0.86000467E+00 -.12162447E+02 0.30046716E+02 0.10565837E+00 0.0000E+00 0.9000E+01
       23  1    3    3    0    0 0.26956403E+03 -.34916805E+03 -.11024714E+04 0.11909414E+04 0.91188000E+02 0.0000E+00 0.9000E+01
#aMCatNLO 1  0  0  2  1 0.20142767D+02 0.00000000D+00  -5  7  0 0.00000000D+00 0.00000000D+00 0.00000000D+00 0.00000000D+00 0.00000000D+00
  <mgrwgt>
 0.1975493042D-02    9    2    0
 0.507396695089832D+03 0.000000000000000D+00 0.000000000000000D+00 0.507396695089832D+03
 0.507396695089832D+03 0.000000000000000D+00 0.000000000000000D+00 -.507396695089832D+03
 0.466111147488326D+03 -.296867930119580D+03 0.349038503426429D+03 -.288780375176197D+02
 0.448573979581753D+02 -.157550668308389D+00 -.730461174964139D+00 -.448511734053513D+02
 0.524463306326120D+02 0.274614493015813D+02 0.860007001791364D+00 0.446737818752655D+02
 0.451378514100551D+03 0.269564031486307D+03 -.349168049253256D+03 0.290554290477055D+02
 0.000000000000000D+00 0.000000000000000D+00 0.000000000000000D+00 -.000000000000000D+00
 0.512644951207291D+03 0.000000000000000D+00 0.000000000000000D+00 0.512644951207291D+03
 0.527198779289253D+03 0.000000000000000D+00 0.000000000000000D+00 -.527198779289253D+03
 0.465563699644803D+03 -.303472205458531D+03 0.342568273393571D+03 -.288780375176197D+02
 0.448786142850315D+02 -.793653847971612D+00 -.135365352928339D+01 -.448511734053513D+02
 0.520553499198094D+02 0.267206781260204D+02 0.134271071412839D+00 0.446737818752655D+02
 0.452495614844977D+03 0.263156824468022D+03 -.355445210811307D+03 0.290554290477055D+02
 0.248504518019232D+02 0.143883567124602D+02 0.140963198756067D+02 -.145538280819613D+02
0.141235828209D-03 0.000000000000D+00 0.000000000000D+00 0.143465076645D-05 0.000000000000D+00  7 -2 1 -24 -13 13 23 21 0 0.14374636D-01 0.42390808D+00 0.22272749D+06 0.22272749D+06 0.22272749D+06 0.10942533D+01  1  2  2  2  7  2        1 0.507212375007D-03 0.100000000000D+01
-.779637124344D-05 0.000000000000D+00 -.542382768570D-06 0.143465076645D-05 0.000000000000D+00  7 -2 1 -24 -13 13 23 21 2 0.14374636D-01 0.42390808D+00 0.22272749D+06 0.22272749D+06 0.22272749D+06 0.10942533D+01  1  2  3  2  7  2        1 -.335253395526D-04 0.100000000000D+01
0.901851675355D-05 0.000000000000D+00 0.000000000000D+00 0.143465076645D-05 0.000000000000D+00  7 -2 1 -24 -13 13 23 21 2 0.14374636D-01 0.42390808D+00 0.22272749D+06 0.22272749D+06 0.22272749D+06 0.10942533D+01  1  2 15  2  7  2        1 0.387807131013D-04 0.100000000000D+01
0.335037652969D-03 0.000000000000D+00 0.000000000000D+00 0.143465076645D-05 0.000000000000D+00  7 -2 1 -24 -13 13 23 21 2 0.14374636D-01 0.44258843D+00 0.23264317D+06 0.23264317D+06 0.23264317D+06 0.10928178D+01  1  2 12  2  7  2        1 0.117210101269D-02 0.100000000000D+01
-.335165683031D-03 0.000000000000D+00 0.000000000000D+00 0.143465076645D-05 0.000000000000D+00  7 -2 1 -24 -13 13 23 21 2 0.14374636D-01 0.42390808D+00 0.22272749D+06 0.22272749D+06 0.22272749D+06 0.10942533D+01  1  2  4  2  7  2        1 -.144125298541D-02 0.100000000000D+01
-.224429946166D-02 0.000000000000D+00 -.284572640619D-03 0.143465076645D-05 0.000000000000D+00  7 -2 1 -24 -13 13 23 21 2 0.14374636D-01 0.44186275D+00 0.22272749D+06 0.22272749D+06 0.22272749D+06 0.10942533D+01  1  2  5  2  7  2        1 -.795249733769D-02 0.100000000000D+01
0.225440897938D-02 0.000000000000D+00 0.284327968215D-03 0.143465076645D-05 0.000000000000D+00  7 -2 1 -24 -13 13 23 21 2 0.14374636D-01 0.42390808D+00 0.22272749D+06 0.22272749D+06 0.22272749D+06 0.10942533D+01  1  2  6  2  7  2        1 0.969423134997D-02 0.100000000000D+01
0.566900736732D-05 0.000000000000D+00 0.000000000000D+00 0.143465076645D-05 0.000000000000D+00  7 -2 21 -24 -13 13 23 -1 2 0.14374636D-01 0.44258843D+00 0.23264317D+06 0.23264317D+06 0.23264317D+06 0.10928178D+01  1  2 12  4  7  2        1 0.497432311393D-05 0.100000000000D+01
-.162452861572D-04 0.000000000000D+00 -.208196501518D-05 0.143465076645D-05 0.000000000000D+00  7 -2 21 -24 -13 13 23 -1 2 0.14374636D-01 0.44186275D+00 0.22272749D+06 0.22272749D+06 0.22272749D+06 0.10942533D+01  1  2  5  4  7  2        1 -.145310696421D-04 0.100000000000D+01
  </mgrwgt>
  </event>
  <event>
  8     66 0.26562228E-05 0.17321192E+03 0.75467711E-02 0.85961299E-01
       -2 -1    0    0    0  501 0.00000000E+00 0.00000000E+00 0.56325721E+03 0.56325730E+03 0.32000000E+00 0.0000E+00 0.9000E+01
        1 -1    0    0  501    0 0.00000000E+00 0.00000000E+00 -.51704103E+03 0.51704113E+03 0.32000000E+00 0.0000E+00 0.9000E+01
       25  2    1    2    0    0 -.21902340E+02 0.30526545E+02 -.46869980E+03 0.55778790E+03 0.30006041E+03 0.0000E+00 0.0000E+00
       23  2    3    3    0    0 -.10709017E+03 -.39426689E+02 -.30824057E+03 0.34281618E+03 0.97405945E+02 0.0000E+00 0.0000E+00
      -24  1    1    2    0    0 0.21902340E+02 -.30526545E+02 0.51491598E+03 0.52251054E+03 0.80419002E+02 0.0000E+00 0.9000E+01
      -11  1    4    4    0    0 -.58894633E+02 -.16079720E+02 -.49513267E+02 0.78604699E+02 0.51099893E-03 0.0000E+00 0.9000E+01
       11  1    4    4    0    0 -.48195537E+02 -.23346968E+02 -.25872730E+03 0.26421148E+03 0.51099893E-03 0.0000E+00 0.9000E+01
       23  1    3    3    0    0 0.85187829E+02 0.69953234E+02 -.16045923E+03 0.21497171E+03 0.91188000E+02 0.0000E+00 0.9000E+01
#aMCatNLO 1  0  0  1  1 0.11342509D+04 0.00000000D+00  -5  7  0 0.00000000D+00 0.00000000D+00 0.00000000D+00 0.00000000D+00 0.00000000D+00
  <mgrwgt>
 0.1612338507D-02    3    2    0
 0.539654696830453D+03 0.000000000000000D+00 0.000000000000000D+00 0.539654696830453D+03
 0.539654696830453D+03 0.000000000000000D+00 0.000000000000000D+00 -.539654696830453D+03
 0.500940573141301D+03 0.219023403856457D+02 -.305265453207955D+02 0.493013853133128D+03
 0.807968943282719D+02 -.588946326235270D+02 -.160797204304847D+02 -.529245025683868D+02
 0.275532333897303D+03 -.481955371692074D+02 -.233469682918775D+02 -.270277961164881D+03
 0.222039592294030D+03 0.851878294070887D+02 0.699532340431577D+02 -.169811389399861D+03
 0.000000000000000D+00 0.000000000000000D+00 0.000000000000000D+00 -.000000000000000D+00
 0.887729293933260D+03 0.000000000000000D+00 0.000000000000000D+00 0.887729293933260D+03
 0.384961488293004D+04 0.000000000000000D+00 0.000000000000000D+00 -.384961488293004D+04
 0.715386352916501D+03 -.471213442263441D+03 -.200513466963861D+03 0.493013853133128D+03
 0.181229109809806D+03 -.165123603911482D+03 -.526989819790434D+02 -.529245025683868D+02
 0.455582139956709D+03 -.344599471224239D+03 -.125523361921453D+03 -.270277961164881D+03
 0.213507972125018D+03 -.913891857918627D+02 0.908358780035932D+01 -.169811389399861D+03
 0.317163860205527D+04 0.107232570319103D+04 0.369652223063998D+03 -.296188558899678D+04
0.243889186435D-03 0.000000000000D+00 0.000000000000D+00 0.848083191349D-06 0.000000000000D+00  7 -2 1 -24 -11 11 23 21 0 0.86654970D-01 0.79544789D-01 0.30002369D+05 0.30002369D+05 0.30002369D+05 0.11673327D+01  1  2  2  1  7  1       -2 0.143136090321D-02 0.100000000000D+01
0.772583945921D-05 0.000000000000D+00 -.936598693408D-06 0.848083191349D-06 0.000000000000D+00  7 -2 1 -24 -11 11 23 21 2 0.86654970D-01 0.79544789D-01 0.30002369D+05 0.30002369D+05 0.30002369D+05 0.11673327D+01  1  2  3  1  7  1       -2 0.617862183165D-04 0.100000000000D+01
0.149038658896D-04 0.000000000000D+00 0.000000000000D+00 0.848083191349D-06 0.000000000000D+00  7 -2 1 -24 -11 11 23 21 2 0.86654970D-01 0.79544789D-01 0.30002369D+05 0.30002369D+05 0.30002369D+05 0.11673327D+01  1  2 15  1  7  1       -2 0.119191385801D-03 0.100000000000D+01
  </mgrwgt>
  </event>
  <event>
  8     66 0.26562228E-05 0.58797475E+03 0.75467711E-02 0.83728328E-01
       -2 -1    0    0    0  501 0.00000000E+00 0.00000000E+00 0.18472694E+04 0.18472694E+04 0.32000000E+00 0.0000E+00 0.9000E+01
        1 -1    0    0  501    0 0.00000000E+00 0.00000000E+00 -.12281022E+04 0.12281022E+04 0.32000000E+00 0.0000E+00 0.9000E+01
       25  2    1    2    0    0 -.10800056E+04 -.97582499E+03 -.12381614E+02 0.14866717E+04 0.30231261E+03 0.0000E+00 0.0000E+00
       23  2    3    3    0    0 -.13223003E+03 -.21115788E+03 0.23598920E+02 0.26494990E+03 0.87000599E+02 0.0000E+00 0.0000E+00
      -24  1    1    2    0    0 0.10800056E+04 0.97582499E+03 0.63154884E+03 0.15887000E+04 0.80419002E+02 0.0000E+00 0.9000E+01
      -13  1    4    4    0    0 -.60224072E+02 -.16170324E+03 0.37269956E+02 0.17653311E+03 0.10565837E+00 0.0000E+00 0.9000E+01
       13  1    4    4    0    0 -.72005961E+02 -.49454645E+02 -.13671036E+02 0.88416790E+02 0.10565837E+00 0.0000E+00 0.9000E+01
       23  1    3    3    0    0 -.94777553E+03 -.76466710E+03 -.35980534E+02 0.12217218E+04 0.91188000E+02 0.0000E+00 0.9000E+01
#aMCatNLO 1  0  0  2  1 0.30398080D+02 0.00000000D+00  -5  7  0 0.00000000D+00 0.00000000D+00 0.00000000D+00 0.00000000D+00 0.00000000D+00
  <mgrwgt>
 0.1983850569D-02    9    2    0
 0.150619907368546D+04 0.000000000000000D+00 0.000000000000000D+00 0.150619907368546D+04
 0.150619907368546D+04 0.000000000000000D+00 0.000000000000000D+00 -.150619907368546D+04
 0.149210304557884D+04 0.108000556248244D+04 0.975824986816427D+03 0.318210406465546D+03
 0.172563153104094D+03 -.602240548119940D+02 -.161703405368689D+03 0.176457456587606D+01
 0.930749452129731D+02 -.720059788855794D+02 -.494544795467399D+02 -.321300308728226D+02
 0.125465700347502D+04 -.947775528784870D+03 -.764667101900998D+03 -.287844950158600D+03
 0.000000000000000D+00 -.000000000000000D+00 0.000000000000000D+00 -.000000000000000D+00
 0.151110502508773D+04 0.000000000000000D+00 0.000000000000000D+00 0.151110502508773D+04
 0.155411134695781D+04 0.000000000000000D+00 0.000000000000000D+00 -.155411134695781D+04
 0.148257177140470D+04 0.108033257567545D+04 0.960820224892857D+03 0.318210406465546D+03
 0.174190057353087D+03 -.601859353933972D+02 -.163452487096694D+03 0.176457456587606D+01
 0.935627781149580D+02 -.719854613495136D+02 -.503959117290086D+02 -.321300308728226D+02
 0.126222690995451D+04 -.947498841652459D+03 -.777362689228613D+03 -.287844950158600D+03
 0.526648552182908D+02 -.662337280083576D+00 0.303908631614595D+02 -.430063218700738D+02
0.168979547344D-01 0.000000000000D+00 0.000000000000D+00 0.626720885176D-06 0.000000000000D+00  7 -2 1 -24 -13 13 23 21 0 0.28419530D+00 0.18893880D+00 0.21592484D+07 0.21592484D+07 0.21592484D+07 0.10263099D+01  1  2  2  2  7  2        1 0.576522946137D-03 0.100000000000D+01
-.938078378593D-03 0.000000000000D+00 -.648925955136D-04 0.626720885176D-06 0.000000000000D+00  7 -2 1 -24 -13 13 23 21 2 0.28419530D+00 0.18893880D+00 0.21592484D+07 0.21592484D+07 0.21592484D+07 0.10263099D+01  1  2  3  2  7  2        1 -.337115410281D-04 0.100000000000D+01
0.106019913180D-02 0.000000000000D+00 0.000000000000D+00 0.626720885176D-06 0.000000000000D+00  7 -2 1 -24 -13 13 23 21 2 0.28419530D+00 0.18893880D+00 0.21592484D+07 0.21592484D+07 0.21592484D+07 0.10263099D+01  1  2 15  2  7  2        1 0.381001708869D-04 0.100000000000D+01
0.704029502528D-01 0.000000000000D+00 0.000000000000D+00 0.626720885176D-06 0.000000000000D+00  7 -2 1 -24 -13 13 23 21 2 0.28419530D+00 0.19525106D+00 0.22043931D+07 0.22043931D+07 0.22043931D+07 0.10257491D+01  1  2 12  2  7  2        1 0.235666790135D-02 0.100000000000D+01
-.717422073690D-01 0.000000000000D+00 0.000000000000D+00 0.626720885176D-06 0.000000000000D+00  7 -2 1 -24 -13 13 23 21 2 0.28419530D+00 0.18893880D+00 0.21592484D+07 0.21592484D+07 0.21592484D+07 0.10263099D+01  1  2  4  2  7  2        1 -.257818581299D-02 0.100000000000D+01
-.688912070614D+00 0.000000000000D+00 -.603856498444D-01 0.626720885176D-06 0.000000000000D+00  7 -2 1 -24 -13 13 23 21 2 0.28419530D+00 0.19523409D+00 0.21592484D+07 0.21592484D+07 0.21592484D+07 0.10263099D+01  1  2  5  2  7  2        1 -.231298086661D-01 0.100000000000D+01
0.690552745032D+00 0.000000000000D+00 0.603532289433D-01 0.626720885176D-06 0.000000000000D+00  7 -2 1 -24 -13 13 23 21 2 0.28419530D+00 0.18893880D+00 0.21592484D+07 0.21592484D+07 0.21592484D+07 0.10263099D+01  1  2  6  2  7  2        1 0.248162602693D-01 0.100000000000D+01
0.197356194050D-02 0.000000000000D+00 0.000000000000D+00 0.626720885176D-06 0.000000000000D+00  7 -2 21 -24 -13 13 23 -1 2 0.28419530D+00 0.19525106D+00 0.22043931D+07 0.22043931D+07 0.22043931D+07 0.10257491D+01  1  2 12  4  7  2        1 0.596342736362D-04 0.100000000000D+01
-.400976050822D-02 0.000000000000D+00 -.353516094893D-03 0.626720885176D-06 0.000000000000D+00  7 -2 21 -24 -13 13 23 -1 2 0.28419530D+00 0.19523409D+00 0.21592484D+07 0.21592484D+07 0.21592484D+07 0.10263099D+01  1  2  5  4  7  2        1 -.121628971865D-03 0.100000000000D+01
  </mgrwgt>
  </event>
  <event>
  8     66 0.26562228E-05 0.10199457E+03 0.75467711E-02 0.99447049E-01
       -2 -1    0    0    0  501 0.00000000E+00 0.00000000E+00 0.39287597E+03 0.39287610E+03 0.32000000E+00 0.0000E+00 0.9000E+01
        1 -1    0    0  501    0 0.00000000E+00 0.00000000E+00 -.36353600E+03 0.36353614E+03 0.32000000E+00 0.0000E+00 0.9000E+01
       25  2    1    2    0    0 -.72767913E+02 0.28010031E+03 0.13800766E+03 0.43699522E+03 0.29692988E+03 0.0000E+00 0.0000E+00
       23  2    3    3    0    0 -.22299750E+02 0.10232747E+03 -.58744281E+02 0.15207980E+03 0.93323016E+02 0.0000E+00 0.0000E+00
      -24  1    1    2    0    0 0.72767913E+02 -.28010031E+03 -.10866768E+03 0.31941702E+03 0.80419002E+02 0.0000E+00 0.9000E+01
      -13  1    4    4    0    0 0.33968266E+02 0.43534072E+02 -.70444412E+01 0.55665913E+02 0.10565837E+00 0.0000E+00 0.9000E+01
       13  1    4    4    0    0 -.56268016E+02 0.58793403E+02 -.51699840E+02 0.96413891E+02 0.10565837E+00 0.0000E+00 0.9000E+01
       23  1    3    3    0    0 -.50468163E+02 0.17777283E+03 0.19675194E+03 0.28491541E+03 0.91188000E+02 0.0000E+00 0.9000E+01
#aMCatNLO 1  0  0  2  1 0.22842826D+02 0.00000000D+00  -5  7  0 0.00000000D+00 0.00000000D+00 0.00000000D+00 0.00000000D+00 0.00000000D+00
  <mgrwgt>
 0.1112033486D-02    9    2    0
 0.377921499482846D+03 0.000000000000000D+00 0.000000000000000D+00 0.377921499482846D+03
 0.377921499482846D+03 0.000000000000000D+00 0.000000000000000D+00 -.377921499482846D+03
 0.323875792628134D+03 0.727679129734407D+02 -.280100307591485D+03 -.121148510617243D+03
 0.559812283016362D+02 0.339683811655538D+02 0.435340516618559D+02 -.921050210653144D+01
 0.984934173214476D+02 -.562681307588001D+02 0.587934220905634D+02 -.554813863872224D+02
 0.277492560714475D+03 -.504681633801944D+02 0.177772833839066D+03 0.185840399110997D+03
 0.000000000000000D+00 0.000000000000000D+00 -.000000000000000D+00 -.000000000000000D+00
 0.385834542939272D+03 0.000000000000000D+00 0.000000000000000D+00 0.385834542939272D+03
 0.394946801396251D+03 0.000000000000000D+00 0.000000000000000D+00 -.394946801396251D+03
 0.318516034860919D+03 0.639345339037545D+02 -.276080898033321D+03 -.121148510617243D+03
 0.556172965286185D+02 0.324338160741879D+02 0.442323173591844D+02 -.921050210653144D+01
 0.100822101640342D+03 -.590088716246087D+02 0.600405280899297D+02 -.554813863872224D+02
 0.281232661153256D+03 -.581510626160761D+02 0.181268746148444D+03 0.185840399110997D+03
 0.245932501523873D+02 0.207915842627424D+02 -.946069356423661D+01 -.911225845697950D+01
0.282233531228D-04 0.000000000000D+00 0.000000000000D+00 0.422756700721D-07 0.000000000000D+00  7 -2 1 -24 -13 13 23 21 0 0.60442478D-01 0.55928636D-01 0.10337328D+06 0.10337328D+06 0.10337328D+06 0.11205416D+01  1  2  2  2  7  2        1 0.559014812607D-03 0.100000000000D+01
-.151815690950D-05 0.000000000000D+00 -.108385107371D-06 0.422756700721D-07 0.000000000000D+00  7 -2 1 -24 -13 13 23 21 2 0.60442478D-01 0.55928636D-01 0.10337328D+06 0.10337328D+06 0.10337328D+06 0.11205416D+01  1  2  3  2  7  2        1 -.377561175332D-04 0.100000000000D+01
0.182071399227D-05 0.000000000000D+00 0.000000000000D+00 0.422756700721D-07 0.000000000000D+00  7 -2 1 -24 -13 13 23 21 2 0.60442478D-01 0.55928636D-01 0.10337328D+06 0.10337328D+06 0.10337328D+06 0.11205416D+01  1  2 15  2  7  2        1 0.452806235351D-04 0.100000000000D+01
0.863733885042D-04 0.000000000000D+00 0.000000000000D+00 0.422756700721D-07 0.000000000000D+00  7 -2 1 -24 -13 13 23 21 2 0.60442478D-01 0.59014089D-01 0.11140031D+06 0.11140031D+06 0.11140031D+06 0.11178947D+01  1  2 12  2  7  2        1 0.198759804248D-02 0.100000000000D+01
-.815368837097D-04 0.000000000000D+00 0.000000000000D+00 0.422756700721D-07 0.000000000000D+00  7 -2 1 -24 -13 13 23 21 2 0.60442478D-01 0.55928636D-01 0.10337328D+06 0.10337328D+06 0.10337328D+06 0.11205416D+01  1  2  4  2  7  2        1 -.202779840829D-02 0.100000000000D+01
-.389341059142D-03 0.000000000000D+00 -.635828320279D-04 0.422756700721D-07 0.000000000000D+00  7 -2 1 -24 -13 13 23 21 2 0.60442478D-01 0.59474282D-01 0.10337328D+06 0.10337328D+06 0.10337328D+06 0.11205416D+01  1  2  5  2  7  2        1 -.892201250673D-02 0.100000000000D+01
0.392627306783D-03 0.000000000000D+00 0.634629048914D-04 0.422756700721D-07 0.000000000000D+00  7 -2 1 -24 -13 13 23 21 2 0.60442478D-01 0.55928636D-01 0.10337328D+06 0.10337328D+06 0.10337328D+06 0.11205416D+01  1  2  6  2  7  2        1 0.976452608345D-02 0.100000000000D+01
0.108739508890D-05 0.000000000000D+00 0.000000000000D+00 0.422756700721D-07 0.000000000000D+00  7 -2 21 -24 -13 13 23 -1 2 0.60442478D-01 0.59014089D-01 0.11140031D+06 0.11140031D+06 0.11140031D+06 0.11178947D+01  1  2 12  4  7  2        1 0.964336347561D-04 0.100000000000D+01
-.401801084069D-05 0.000000000000D+00 -.669783501741D-06 0.422756700721D-07 0.000000000000D+00  7 -2 21 -24 -13 13 23 -1 2 0.60442478D-01 0.59474282D-01 0.10337328D+06 0.10337328D+06 0.10337328D+06 0.11205416D+01  1  2  5  4  7  2        1 -.353252678314D-03 0.100000000000D+01
  </mgrwgt>
  </event>
  <event>
  8     66 0.26562228E-05 0.32470232E+03 0.75467711E-02 0.99407087E-01
       -2 -1    0    0    0  501 0.00000000E+00 0.00000000E+00 0.17541289E+03 0.17541318E+03 0.32000000E+00 0.0000E+00 0.9000E+01
        1 -1    0    0  501    0 0.00000000E+00 0.00000000E+00 -.11848160E+04 0.11848160E+04 0.32000000E+00 0.0000E+00 0.9000E+01
       25  2    1    2    0    0 0.29395119E+03 -.67106007E+01 -.96471350E+03 0.10521436E+04 0.29980287E+03 0.0000E+00 0.0000E+00
       23  2    3    3    0    0 0.10747798E+03 -.54752676E+02 -.68089578E+03 0.69725203E+03 0.89397811E+02 0.0000E+00 0.0000E+00
      -24  1    1    2    0    0 -.29395119E+03 0.67106007E+01 -.44689570E+02 0.30808555E+03 0.80419002E+02 0.0000E+00 0.9000E+01
      -13  1    4    4    0    0 0.26578748E+02 0.94780688E+01 -.45686417E+02 0.53698449E+02 0.10565837E+00 0.0000E+00 0.9000E+01
       13  1    4    4    0    0 0.80899236E+02 -.64230745E+02 -.63520936E+03 0.64355359E+03 0.10565837E+00 0.0000E+00 0.9000E+01
       23  1    3    3    0    0 0.18647320E+03 0.48042076E+02 -.28381772E+03 0.35489160E+03 0.91188000E+02 0.0000E+00 0.9000E+01
#aMCatNLO 1  0  0  1  1 0.21278538D+02 0.00000000D+00  -5  7  0 0.00000000D+00 0.00000000D+00 0.00000000D+00 0.00000000D+00 0.00000000D+00
  <mgrwgt>
 0.1763776638D-02    4    2    0
 0.455886188878574D+03 0.000000000000000D+00 0.000000000000000D+00 0.455886188878574D+03
 0.455886188878574D+03 0.000000000000000D+00 0.000000000000000D+00 -.455886188878574D+03
 0.410143115256464D+03 -.293951185244863D+03 0.671060071603177D+01 0.274404496262502D+03
 0.295313828388410D+02 0.265786722579677D+02 0.947817171576640D+01 -.870867465830347D+01
 0.256860576273031D+03 0.808993123600465D+02 -.642308482210934D+02 -.235174520388123D+03
 0.215237303388812D+03 0.186473200626848D+03 0.480420757892952D+02 -.305213012160749D+02
 0.000000000000000D+00 -.000000000000000D+00 -.000000000000000D+00 -.000000000000000D+00
 0.457118860523275D+03 0.000000000000000D+00 0.000000000000000D+00 0.457118860523275D+03
 0.558121128706240D+03 0.000000000000000D+00 0.000000000000000D+00 -.558121128706240D+03
 0.406175305409121D+03 -.288115646688232D+03 0.142376028237576D+02 0.274404496262502D+03
 0.300942903529861D+02 0.270049126882550D+02 0.100279603232849D+02 -.870867465830347D+01
 0.256902643193321D+03 0.845720030653844D+02 -.594936075342519D+02 -.235174520388123D+03
 0.218848399533685D+03 0.189576308179194D+03 0.520446364544916D+02 -.305213012160749D+02
 0.103219350740401D+03 -.130375772446020D+02 -.168165920672822D+02 -.101002268182965D+03
0.121173661537D-03 0.000000000000D+00 0.000000000000D+00 0.490472546424D-05 0.000000000000D+00  7 -2 1 -24 -13 13 23 21 0 0.26986624D-01 0.18227940D+00 0.10543160D+06 0.10543160D+06 0.10543160D+06 0.11198419D+01  1  2  2  1  7  1       -2 0.180429949402D-02 0.100000000000D+01
-.578938838936D-05 0.000000000000D+00 -.465338766060D-06 0.490472546424D-05 0.000000000000D+00  7 -2 1 -24 -13 13 23 21 2 0.26986624D-01 0.18227940D+00 0.10543160D+06 0.10543160D+06 0.10543160D+06 0.11198419D+01  1  2  3  1  7  1       -2 -.108105178324D-03 0.100000000000D+01
0.771420427716D-05 0.000000000000D+00 0.000000000000D+00 0.490472546424D-05 0.000000000000D+00  7 -2 1 -24 -13 13 23 21 2 0.26986624D-01 0.18227940D+00 0.10543160D+06 0.10543160D+06 0.10543160D+06 0.11198419D+01  1  2 15  1  7  1       -2 0.144047241768D-03 0.100000000000D+01
-.409494829567D-05 0.000000000000D+00 0.000000000000D+00 0.490472546424D-05 0.000000000000D+00  7 -2 1 -24 -13 13 23 21 2 0.26986624D-01 0.18227940D+00 0.10543160D+06 0.10543160D+06 0.10543160D+06 0.11198419D+01  1  2  4  1  7  1       -2 -.764649192555D-04 0.100000000000D+01
  </mgrwgt>
  </event>
  <event>
  8     66 0.26562228E-05 0.36358942E+03 0.75467711E-02 0.89978163E-01
       -2 -1    0    0    0  501 0.00000000E+00 0.00000000E+00 0.36209607E+03 0.36209621E+03 0.32000000E+00 0.0000E+00 0.9000E+01
        1 -1    0    0  501    0 0.00000000E+00 0.00000000E+00 -.76045649E+03 0.76045656E+03 0.32000000E+00 0.0000E+00 0.9000E+01
       25  2    1    2    0    0 0.29392598E+03 0.83705919E+02 -.60753043E+03 0.74358249E+03 0.30070339E+03 0.0000E+00 0.0000E+00
       23  2    3    3    0    0 0.99806627E+02 0.15264308E+03 -.30947998E+03 0.36997309E+03 0.88549189E+02 0.0000E+00 0.0000E+00
      -24  1    1    2    0    0 -.29392598E+03 -.83705919E+02 0.20917001E+03 0.37897028E+03 0.80419002E+02 0.0000E+00 0.9000E+01
      -11  1    4    4    0    0 0.30413994E+02 0.20647853E+02 -.14644534E+02 0.39570282E+02 0.51099893E-03 0.0000E+00 0.9000E+01
       11  1    4    4    0    0 0.69392633E+02 0.13199523E+03 -.29483544E+03 0.33040281E+03 0.51099893E-03 0.0000E+00 0.9000E+01
       23  1    3    3    0    0 0.19411936E+03 -.68937164E+02 -.29805046E+03 0.37360940E+03 0.91188000E+02 0.0000E+00 0.9000E+01
#aMCatNLO 1  0  0  2  1 0.66939766D+03 0.00000000D+00  -5  7  0 0.00000000D+00 0.00000000D+00 0.00000000D+00 0.00000000D+00 0.00000000D+00
  <mgrwgt>
 0.1550672723D-02    5    2    0
 0.524746058691935D+03 0.000000000000000D+00 0.000000000000000D+00 0.524746058691935D+03
 0.524746058691935D+03 0.000000000000000D+00 0.000000000000000D+00 -.524746058691935D+03
 0.484747991740782D+03 -.293925984177647D+03 -.837059186172671D+02 0.367578882086543D+03
 0.367662858397594D+02 0.304139938391505D+02 0.206478528376704D+02 -.644147806731084D+00
 0.241491873723747D+03 0.693926333864859D+02 0.131995229306607D+03 -.189948011167769D+03
 0.286485966079580D+03 0.194119356952010D+03 -.689371635270107D+02 -.176986723112042D+03
 0.000000000000000D+00 -.000000000000000D+00 -.000000000000000D+00 -.000000000000000D+00
 0.763995485058693D+03 0.000000000000000D+00 0.000000000000000D+00 0.763995485058693D+03
 0.141355011373885D+04 0.000000000000000D+00 0.000000000000000D+00 -.141355011373885D+04
 0.380253249790737D+03 -.547896463063290D+02 -.302954182694542D+01 0.367578882086543D+03
 0.661994348280104D+02 0.588796701694824D+02 0.302511931315783D+02 -.644147806731084D+00
 0.355283999599191D+03 0.234375976790398D+03 0.187654935794809D+03 -.189948011167769D+03
 0.443063270062524D+03 0.395808931777300D+03 -.894036839836872D+00 -.176986723112042D+03
 0.932745644517078D+03 -.634274932430851D+03 -.213982550259605D+03 -.649554628680156D+03
0.184406035850D-03 0.000000000000D+00 0.000000000000D+00 0.136701538292D-05 0.000000000000D+00  7 -2 1 -24 -11 11 23 21 0 0.55707104D-01 0.11699332D+00 0.13219727D+06 0.13219727D+06 0.13219727D+06 0.11119080D+01  1  2  2  2  7  2        1 0.151291468465D-02 0.100000000000D+01
-.856808528450D-05 0.000000000000D+00 -.708167732890D-06 0.136701538292D-05 0.000000000000D+00  7 -2 1 -24 -11 11 23 21 2 0.55707104D-01 0.11699332D+00 0.13219727D+06 0.13219727D+06 0.13219727D+06 0.11119080D+01  1  2  3  2  7  2        1 -.869082123031D-04 0.100000000000D+01
0.111885500769D-04 0.000000000000D+00 0.000000000000D+00 0.136701538292D-05 0.000000000000D+00  7 -2 1 -24 -11 11 23 21 2 0.55707104D-01 0.11699332D+00 0.13219727D+06 0.13219727D+06 0.13219727D+06 0.11119080D+01  1  2 15  2  7  2        1 0.113488236071D-03 0.100000000000D+01
0.136055374093D-04 0.000000000000D+00 -.587971217690D-04 0.136701538292D-05 0.000000000000D+00  7 -2 1 -24 -11 11 23 21 2 0.55707104D-01 0.36970882D+00 0.13219727D+06 0.13219727D+06 0.13219727D+06 0.11119080D+01  1  2  5  2  7  2        1 0.994149822632D-05 0.100000000000D+01
0.442408646328D-05 0.000000000000D+00 -.777299553300D-05 0.136701538292D-05 0.000000000000D+00  7 -2 21 -24 -11 11 23 -1 2 0.55707104D-01 0.36970882D+00 0.13219727D+06 0.13219727D+06 0.13219727D+06 0.11119080D+01  1  2  5  4  7  2        1 0.123651634686D-05 0.100000000000D+01
  </mgrwgt>
  </event>
  <event>
  8     66 0.26562228E-05 0.18997172E+03 0.75467711E-02 0.10647438E+00
       -2 -1    0    0    0  501 0.00000000E+00 0.00000000E+00 0.12763354E+03 0.12763394E+03 0.32000000E+00 0.0000E+00 0.9000E+01
        1 -1    0    0  501    0 0.00000000E+00 0.00000000E+00 -.44784596E+03 0.44784607E+03 0.32000000E+00 0.0000E+00 0.9000E+01
       25  2    1    2    0    0 -.46158316E+02 0.35248690E+02 -.80435473E+02 0.31599348E+03 0.30001492E+03 0.0000E+00 0.0000E+00
       23  2    3    3    0    0 -.74778871E+02 -.88756613E+02 -.29261872E+02 0.15128027E+03 0.92519449E+02 0.0000E+00 0.0000E+00
      -24  1    1    2    0    0 0.46158316E+02 -.35248690E+02 -.23977694E+03 0.25948653E+03 0.80419002E+02 0.0000E+00 0.9000E+01
      -13  1    4    4    0    0 -.28963466E+02 -.59816386E+01 0.27971429E+02 0.40707178E+02 0.10565837E+00 0.0000E+00 0.9000E+01
       13  1    4    4    0    0 -.45815405E+02 -.82774974E+02 -.57233301E+02 0.11057310E+03 0.10565837E+00 0.0000E+00 0.9000E+01
       23  1    3    3    0    0 0.28620555E+02 0.12400530E+03 -.51173601E+02 0.16471321E+03 0.91188000E+02 0.0000E+00 0.9000E+01
#aMCatNLO 1  0  0  2  2 0.15107622D+02 0.00000000D+00  -5  7  0 0.00000000D+00 0.00000000D+00 0.00000000D+00 0.00000000D+00 0.00000000D+00
  <mgrwgt>
 0.1000530598D-02    4    2    0
 0.239082229402512D+03 0.000000000000000D+00 0.000000000000000D+00 0.239082229402512D+03
 0.239082229402512D+03 0.000000000000000D+00 0.000000000000000D+00 -.239082229402512D+03
 0.151725531922082D+03 0.461583164557565D+02 -.352486905928450D+02 -.114805752103840D+03
 0.677234530936583D+02 -.289634444881531D+02 -.598154143402378D+01 0.609245939205480D+02
 0.947494279988394D+02 -.458154270605202D+02 -.827750723916188D+02 0.516605651650067D+01
 0.163966045790445D+03 0.286205550929168D+02 0.124005304418488D+03 0.487151016667910D+02
 0.000000000000000D+00 -.000000000000000D+00 0.000000000000000D+00 0.000000000000000D+00
 0.300450229305615D+03 0.000000000000000D+00 0.000000000000000D+00 0.300450229305615D+03
 0.240133143694964D+03 0.000000000000000D+00 0.000000000000000D+00 -.240133143694964D+03
 0.153160597366522D+03 0.470302597887240D+02 -.399843291725171D+02 -.114805752103840D+03
 0.677774033930149D+02 -.285759258145400D+02 -.808620616591612D+01 0.609245939205480D+02
 0.971066338680624D+02 -.452667382289731D+02 -.857550733855663D+02 0.516605651650067D+01
 0.160358427550812D+03 0.295480901136407D+02 0.118967740092848D+03 0.487151016667910D+02
 0.621803108221680D+02 -.273568585885162D+01 0.148578686311516D+02 0.603170856106505D+02
0.910244154740D-05 0.000000000000D+00 0.000000000000D+00 0.100861898892D-05 0.000000000000D+00  7 -2 1 -24 -13 13 23 21 0 0.19635969D-01 0.68899417D-01 0.36089255D+05 0.36089255D+05 0.36089255D+05 0.11599620D+01  1  2  2  2  7  2        1 0.105199760266D-02 0.100000000000D+01
-.473184941767D-06 0.000000000000D+00 -.349557722699D-07 0.100861898892D-05 0.000000000000D+00  7 -2 1 -24 -13 13 23 21 2 0.19635969D-01 0.68899417D-01 0.36089255D+05 0.36089255D+05 0.36089255D+05 0.11599620D+01  1  2  3  2  7  2        1 -.735826288078D-04 0.100000000000D+01
0.581230290517D-06 0.000000000000D+00 0.000000000000D+00 0.100861898892D-05 0.000000000000D+00  7 -2 1 -24 -13 13 23 21 2 0.19635969D-01 0.68899417D-01 0.36089255D+05 0.36089255D+05 0.36089255D+05 0.11599620D+01  1  2 15  2  7  2        1 0.903842217785D-04 0.100000000000D+01
-.439012206741D-06 0.000000000000D+00 0.000000000000D+00 0.100861898892D-05 0.000000000000D+00  7 -2 1 -24 -13 13 23 21 2 0.19635969D-01 0.68899417D-01 0.36089255D+05 0.36089255D+05 0.36089255D+05 0.11599620D+01  1  2  4  2  7  2        1 -.682685973270D-04 0.100000000000D+01
  </mgrwgt>
  </event>
  <event>
  8     66 0.26562228E-05 0.16398560E+03 0.75467711E-02 0.10116215E+00
       -2 -1    0    0    0  501 0.00000000E+00 0.00000000E+00 0.51191307E+02 0.51192307E+02 0.32000000E+00 0.0000E+00 0.9000E+01
        1 -1    0    0  501    0 0.00000000E+00 0.00000000E+00 -.13476627E+04 0.13476627E+04 0.32000000E+00 0.0000E+00 0.9000E+01
       25  2    1    2    0    0 0.74739089E+01 -.30938822E+02 -.12787341E+04 0.13105663E+04 0.28532458E+03 0.0000E+00 0.0000E+00
       23  2    3    3    0    0 0.20712927E+02 0.78903314E+02 -.38128165E+03 0.40173371E+03 0.96744605E+02 0.0000E+00 0.0000E+00
      -24  1    1    2    0    0 -.74739089E+01 0.30938822E+02 -.17737286E+02 0.88288715E+02 0.80419002E+02 0.0000E+00 0.9000E+01
      -13  1    4    4    0    0 0.39491576E+02 0.51823494E+02 -.10555571E+03 0.12404547E+03 0.10565837E+00 0.0000E+00 0.9000E+01
       13  1    4    4    0    0 -.18778649E+02 0.27079820E+02 -.27572594E+03 0.27768825E+03 0.10565837E+00 0.0000E+00 0.9000E+01
       23  1    3    3    0    0 -.13239018E+02 -.10984214E+03 -.89745245E+03 0.90883261E+03 0.91188000E+02 0.0000E+00 0.9000E+01
#aMCatNLO 1  0  0  2  2 0.20896920D+03 0.00000000D+00  -5  7  0 0.00000000D+00 0.00000000D+00 0.00000000D+00 0.00000000D+00 0.00000000D+00
  <mgrwgt>
 0.1281840313D-01    6    2    0
 0.262658220173840D+03 0.000000000000000D+00 0.000000000000000D+00 0.262658220173840D+03
 0.262658220173840D+03 0.000000000000000D+00 0.000000000000000D+00 -.262658220173840D+03
 0.191327035149717D+03 -.747390939300642D+01 0.309388243102276D+02 0.170662673873043D+03
 0.698087249413291D+02 0.394916295645708D+02 0.518235272111337D+02 0.250597545811157D+02
 0.589640458442464D+02 -.187787005738062D+02 0.270797995761873D+02 -.488958440155731D+02
 0.205216634412388D+03 -.132390195977582D+02 -.109842151097549D+03 -.146826584438586D+03
 0.000000000000000D+00 -.000000000000000D+00 0.000000000000000D+00 -.000000000000000D+00
 0.350533945852713D+03 0.000000000000000D+00 0.000000000000000D+00 0.350533945852713D+03
 0.443560550199401D+03 0.000000000000000D+00 0.000000000000000D+00 -.443560550199401D+03
 0.195294986583725D+03 0.463627270560613D+02 -.199415424878671D+02 0.170662673873043D+03
 0.723867599900722D+02 0.592921742739168D+02 0.331102671699589D+02 0.250597545811157D+02
 0.506298183066805D+02 -.351789107597095D+01 0.126569894583916D+02 -.488958440155731D+02
 0.247042738988553D+03 0.497375365676236D+02 -.169360547652780D+03 -.146826584438586D+03
 0.228740192183083D+03 -.151874546821631D+03 0.143534833512297D+03 -.930266043466876D+02
0.107938367365D-03 0.000000000000D+00 0.000000000000D+00 0.199072189583D-09 0.000000000000D+00  7 -2 1 -24 -13 13 23 21 0 0.78756655D-02 0.20733280D+00 0.26891278D+05 0.26891278D+05 0.26891278D+05 0.11717698D+01  1  2  2  2  7  2        1 0.904038137184D-02 0.100000000000D+01
-.437862646312D-05 0.000000000000D+00 -.414511751505D-06 0.199072189583D-09 0.000000000000D+00  7 -2 1 -24 -13 13 23 21 2 0.78756655D-02 0.20733280D+00 0.26891278D+05 0.26891278D+05 0.26891278D+05 0.11717698D+01  1  2  3  2  7  2        1 -.503539323825D-03 0.100000000000D+01
0.664675109332D-05 0.000000000000D+00 0.000000000000D+00 0.199072189583D-09 0.000000000000D+00  7 -2 1 -24 -13 13 23 21 2 0.78756655D-02 0.20733280D+00 0.26891278D+05 0.26891278D+05 0.26891278D+05 0.11717698D+01  1  2 15  2  7  2        1 0.764372247634D-03 0.100000000000D+01
-.143542368508D-04 0.000000000000D+00 -.310421025102D-04 0.199072189583D-09 0.000000000000D+00  7 -2 1 -24 -13 13 23 21 2 0.78756655D-02 0.39564910D+00 0.26891278D+05 0.26891278D+05 0.26891278D+05 0.11717698D+01  1  2  5  2  7  2        1 -.263918959716D-03 0.100000000000D+01
0.328338224133D-04 0.000000000000D+00 0.255247670063D-04 0.199072189583D-09 0.000000000000D+00  7 -2 1 -24 -13 13 23 21 2 0.78756655D-02 0.20733280D+00 0.26891278D+05 0.26891278D+05 0.26891278D+05 0.11717698D+01  1  2  6  2  7  2        1 0.377586918542D-02 0.100000000000D+01
0.773888717030D-06 0.000000000000D+00 -.217848751533D-05 0.199072189583D-09 0.000000000000D+00  7 -2 21 -24 -13 13 23 -1 2 0.78756655D-02 0.39564910D+00 0.26891278D+05 0.26891278D+05 0.26891278D+05 0.11717698D+01  1  2  5  4  7  2        1 0.523860808738D-05 0.100000000000D+01
  </mgrwgt>
  </event>
  <event>
  9     66 0.26562228E-05 0.18883039E+03 0.75467711E-02 0.10648050E+00
       21 -1    0    0  502  501 0.00000000E+00 0.00000000E+00 0.15384426E+03 0.15384609E+03 0.75000000E+00 0.0000E+00 0.9000E+01
        1 -1    0    0  501    0 0.00000000E+00 0.00000000E+00 -.36844305E+03 0.36844319E+03 0.32000000E+00 0.0000E+00 0.9000E+01
       25  2    1    2    0    0 -.38739883E+02 0.78337651E+02 -.22434426E+03 0.38489633E+03 0.30029530E+03 0.0000E+00 0.0000E+00
       23  2    3    3    0    0 -.99519552E+02 0.95874012E+02 -.21869514E+03 0.27377092E+03 0.89593427E+02 0.0000E+00 0.0000E+00
      -24  1    1    2    0    0 0.26418547E+02 -.66400809E+02 0.29177358E+02 0.11146991E+03 0.80419002E+02 0.0000E+00 0.9000E+01
      -13  1    4    4    0    0 -.93985929E+01 0.63644802E+02 -.12079201E+03 0.13685655E+03 0.10565837E+00 0.0000E+00 0.9000E+01
       13  1    4    4    0    0 -.90120959E+02 0.32229210E+02 -.97903130E+02 0.13691437E+03 0.10565837E+00 0.0000E+00 0.9000E+01
       23  1    3    3    0    0 0.60779669E+02 -.17536361E+02 -.56491186E+01 0.11112541E+03 0.91188000E+02 0.0000E+00 0.9000E+01
        2  1    1    2  502    0 0.12321336E+02 -.11936841E+02 -.19431884E+02 0.25923040E+02 0.32000000E+00 0.0000E+00 0.9000E+01
#aMCatNLO 2  0  0  1  1 0.17155276D+02 0.00000000D+00  -5  7  0 0.00000000D+00 0.00000000D+00 0.00000000D+00 0.00000000D+00 0.00000000D+00
  <mgrwgt>
 0.1197995280D-03    1    2    0
 0.228032353462656D+03 0.000000000000000D+00 0.000000000000000D+00 0.228032353462656D+03
 0.228032353462656D+03 0.000000000000000D+00 0.000000000000000D+00 -.228032353462656D+03
 0.136258045925975D+03 0.300640990675504D+02 -.699326021666711D+02 0.794016386899483D+02
 0.953391956775974D+02 -.679865249926728D+01 0.611261453886363D+02 -.728487124565199D+02
 0.103838546465259D+03 -.872734451879941D+02 0.294704056655909D+02 -.479299977773997D+02
 0.120628918856481D+03 0.640079986197109D+02 -.206639488875561D+02 0.413770715439713D+02
 0.000000000000000D+00 0.000000000000000D+00 -.000000000000000D+00 -.000000000000000D+00
 0.233110158012611D+03 0.000000000000000D+00 0.000000000000000D+00 0.233110158012611D+03
 0.243158612802701D+03 0.000000000000000D+00 0.000000000000000D+00 -.243158612802701D+03
 0.133711794573735D+03 0.264185492700528D+02 -.664008138622927D+02 0.794016386899483D+02
 0.971901883068021D+02 -.939848163387548D+01 0.636448453491454D+02 -.728487124565199D+02
 0.107041164816484D+03 -.901210687867507D+02 0.322291675204595D+02 -.479299977773997D+02
 0.118444100588159D+03 0.607796654251202D+02 -.175363577003179D+02 0.413770715439713D+02
 0.198815225301325D+02 0.123213357254531D+02 -.119368413069944D+02 -.100484547900894D+02
0.639517869148D-07 0.000000000000D+00 0.000000000000D+00 0.387778733164D-06 0.385188141190D-10  7 21 1 -24 -13 13 23 2 2 0.23668370D-01 0.56683388D-01 0.39157731D+05 0.39157731D+05 0.39157731D+05 0.11567512D+01  1  2  1  3  7  1       -2 0.119799527962D-03 0.100000000000D+01
  </mgrwgt>
  </event>
  <event>
  9     66 0.26562228E-05 0.20636809E+03 0.75467711E-02 0.10030678E+00
       -2 -1    0    0    0  501 0.00000000E+00 0.00000000E+00 0.11168678E+03 0.11168724E+03 0.32000000E+00 0.0000E+00 0.9000E+01
        1 -1    0    0  502    0 0.00000000E+00 0.00000000E+00 -.17477336E+04 0.17477336E+04 0.32000000E+00 0.0000E+00 0.9000E+01
       25  2    1    2    0    0 -.42354537E+02 0.28216117E+02 -.54545482E+03 0.62461732E+03 0.30005963E+03 0.0000E+00 0.0000E+00
       23  2    3    3    0    0 -.50911644E+02 -.97940364E+02 -.21591638E+03 0.26006346E+03 0.93961755E+02 0.0000E+00 0.0000E+00
      -24  1    1    2    0    0 0.50259171E+02 0.14100894E+03 -.45291298E+02 0.17586365E+03 0.80419002E+02 0.0000E+00 0.9000E+01
      -13  1    4    4    0    0 -.30282578E+02 -.10288868E+03 -.21322390E+03 0.23867878E+03 0.10565837E+00 0.0000E+00 0.9000E+01
       13  1    4    4    0    0 -.20629065E+02 0.49483147E+01 -.26924755E+01 0.21384685E+02 0.10565837E+00 0.0000E+00 0.9000E+01
       23  1    3    3    0    0 0.85571065E+01 0.12615648E+03 -.32953844E+03 0.36455386E+03 0.91188000E+02 0.0000E+00 0.9000E+01
       21  1    1    2  502  501 -.79046340E+01 -.16922506E+03 -.10453007E+04 0.10589399E+04 0.75000000E+00 0.0000E+00 0.9000E+01
#aMCatNLO 2  0  0  2  1 0.16940957D+03 0.00000000D+00  -5  7  0 0.00000000D+00 0.00000000D+00 0.00000000D+00 0.00000000D+00 0.00000000D+00
  <mgrwgt>
 0.2741848329D-03    2    2    0
 0.256461111541536D+03 0.000000000000000D+00 0.000000000000000D+00 0.256461111541536D+03
 0.256461111541536D+03 0.000000000000000D+00 0.000000000000000D+00 -.256461111541536D+03
 0.174997916445318D+03 0.473612420100185D+02 0.789690926231812D+02 0.125211221427522D+03
 0.161325485138627D+03 -.323980773335990D+02 -.148177801077099D+03 -.549510328224613D+02
 0.289577287026828D+02 -.210621735663581D+02 -.432398732076401D+01 0.193968561867293D+02
 0.147641092796445D+03 0.609900888993863D+01 0.735326957746815D+02 -.896570447917895D+02
 0.000000000000000D+00 -.000000000000000D+00 -.000000000000000D+00 -.000000000000000D+00
 0.287651056800722D+03 0.000000000000000D+00 0.000000000000000D+00 0.287651056800722D+03
 0.678595712812087D+03 0.000000000000000D+00 0.000000000000000D+00 -.678595712812087D+03
 0.211079538602884D+03 0.502591715703424D+02 0.141008940724079D+03 0.125211221427522D+03
 0.120510413682762D+03 -.302825935837048D+02 -.102888815347342D+03 -.549510328224613D+02
 0.287451366888045D+02 -.206290510487210D+02 0.494844482223039D+01 0.193968561867293D+02
 0.179839706680560D+03 0.855710706903185D+01 0.126156486130369D+03 -.896570447917895D+02
 0.426071973957799D+03 -.790463400694837D+01 -.169225056329337D+03 -.390944656011365D+03
-.867666214106D-06 0.000000000000D+00 0.000000000000D+00 0.492793438751D-06 0.000000000000D+00  7 -2 1 -24 -13 13 23 21 2 0.15319495D-01 0.26421347D+00 0.97252061D+05 0.97252061D+05 0.97252061D+05 0.11227164D+01  1  2 13  2  7  2        1 -.183614772612D-04 0.100000000000D+01
0.174107605866D-04 0.000000000000D+00 0.000000000000D+00 0.492793438751D-06 0.189678330897D-09  7 -2 1 -24 -13 13 23 21 2 0.17182601D-01 0.26888183D+00 0.97252061D+05 0.97252061D+05 0.97252061D+05 0.11227164D+01  1  2  1  2  7  2        1 0.292546310151D-03 0.100000000000D+01
  </mgrwgt>
  </event>
  <event>
  8     66 0.26562228E-05 0.14108294E+03 0.75467711E-02 0.10418608E+00
       -2 -1    0    0    0  501 0.00000000E+00 0.00000000E+00 0.14098855E+03 0.14098891E+03 0.32000000E+00 0.0000E+00 0.9000E+01
        1 -1    0    0  501    0 0.00000000E+00 0.00000000E+00 -.13137243E+04 0.13137243E+04 0.32000000E+00 0.0000E+00 0.9000E+01
       25  2    1    2    0    0 0.88802599E+02 -.31562201E+02 -.42063818E+02 0.31727389E+03 0.30001880E+03 0.0000E+00 0.0000E+00
       23  2    3    3    0    0 0.61361478E+02 0.86714411E+02 0.40165222E+02 0.14459141E+03 0.89491964E+02 0.0000E+00 0.0000E+00
      -24  1    1    2    0    0 -.88802599E+02 0.31562201E+02 -.11306719E+04 0.11374394E+04 0.80419002E+02 0.0000E+00 0.9000E+01
      -11  1    4    4    0    0 0.21167549E+02 0.40180057E+01 0.47695965E+02 0.52336551E+02 0.51099893E-03 0.0000E+00 0.9000E+01
       11  1    4    4    0    0 0.40193929E+02 0.82696405E+02 -.75307438E+01 0.92254861E+02 0.51099893E-03 0.0000E+00 0.9000E+01
       23  1    3    3    0    0 0.27441122E+02 -.11827661E+03 -.82229039E+02 0.17268248E+03 0.91188000E+02 0.0000E+00 0.9000E+01
#aMCatNLO 1  0  0  2  1 0.76137986D+02 0.00000000D+00  -5  7  0 0.00000000D+00 0.00000000D+00 0.00000000D+00 0.00000000D+00 0.00000000D+00
  <mgrwgt>
 0.1248917693D-02    9    2    0
 0.430372372729962D+03 0.000000000000000D+00 0.000000000000000D+00 0.430372372729962D+03
 0.430372372729962D+03 0.000000000000000D+00 0.000000000000000D+00 -.430372372729962D+03
 0.381842267129332D+03 -.888025993757145D+02 0.315622005258799D+02 -.361184477593069D+03
 0.153436241948051D+03 0.211675490113974D+02 0.401800572210484D+01 0.151915999295690D+03
 0.145656186289939D+03 0.401939285320726D+02 0.826964051071678D+02 0.112966708795288D+03
 0.179810050092601D+03 0.274411218322445D+02 -.118276611355153D+03 0.963017695020907D+02
 0.000000000000000D+00 0.000000000000000D+00 0.000000000000000D+00 -.000000000000000D+00
 0.464665650906106D+03 0.000000000000000D+00 0.000000000000000D+00 0.464665650906106D+03
 0.476490763990729D+03 0.000000000000000D+00 0.000000000000000D+00 -.476490763990729D+03
 0.382178089843803D+03 -.955849195582820D+02 -.147400852983650D+01 -.361184477593069D+03
 0.153310645932309D+03 0.184445121320490D+02 -.924571719144878D+01 0.151915999295690D+03
 0.138344367641637D+03 0.376728141779715D+02 0.704162327452778D+02 0.112966708795288D+03
 0.190272509153122D+03 0.241558449572505D+02 -.134278966113805D+03 0.963017695020907D+02
 0.770508023259649D+02 0.153117482910110D+02 0.745824590898123D+02 -.118251130846226D+02
0.439464496553D-04 0.000000000000D+00 0.000000000000D+00 0.440847242835D-05 0.000000000000D+00  7 -2 1 -24 -11 11 23 21 0 0.21690577D-01 0.20211146D+00 0.37875411D+05 0.37875411D+05 0.37875411D+05 0.11580580D+01  1  2  2  2  7  2        1 0.793406942947D-03 0.100000000000D+01
-.571819429766D-06 0.000000000000D+00 -.168765938042D-06 0.440847242835D-05 0.000000000000D+00  7 -2 1 -24 -11 11 23 21 2 0.21690577D-01 0.20211146D+00 0.37875411D+05 0.37875411D+05 0.37875411D+05 0.11580580D+01  1  2  3  2  7  2        1 -.138449606555D-04 0.100000000000D+01
0.274671849062D-05 0.000000000000D+00 0.000000000000D+00 0.440847242835D-05 0.000000000000D+00  7 -2 1 -24 -11 11 23 21 2 0.21690577D-01 0.20211146D+00 0.37875411D+05 0.37875411D+05 0.37875411D+05 0.11580580D+01  1  2 15  2  7  2        1 0.665038777189D-04 0.100000000000D+01
0.420016557005D-04 0.000000000000D+00 0.000000000000D+00 0.440847242835D-05 0.000000000000D+00  7 -2 1 -24 -11 11 23 21 2 0.21690577D-01 0.23107760D+00 0.54208956D+05 0.54208956D+05 0.54208956D+05 0.11442207D+01  1  2 12  2  7  2        1 0.737700033477D-03 0.100000000000D+01
-.446506310334D-04 0.000000000000D+00 0.000000000000D+00 0.440847242835D-05 0.000000000000D+00  7 -2 1 -24 -11 11 23 21 2 0.21690577D-01 0.20211146D+00 0.37875411D+05 0.37875411D+05 0.37875411D+05 0.11580580D+01  1  2  4  2  7  2        1 -.108108643694D-02 0.100000000000D+01
-.983813162240D-04 0.000000000000D+00 -.365626719650D-04 0.440847242835D-05 0.000000000000D+00  7 -2 1 -24 -11 11 23 21 2 0.21690577D-01 0.23437905D+00 0.37875411D+05 0.37875411D+05 0.37875411D+05 0.11580580D+01  1  2  5  2  7  2        1 -.173291983093D-02 0.100000000000D+01
0.103061805301D-03 0.000000000000D+00 0.361652202960D-04 0.440847242835D-05 0.000000000000D+00  7 -2 1 -24 -11 11 23 21 2 0.21690577D-01 0.20211146D+00 0.37875411D+05 0.37875411D+05 0.37875411D+05 0.11580580D+01  1  2  6  2  7  2        1 0.249534479802D-02 0.100000000000D+01
0.873333057952D-06 0.000000000000D+00 0.000000000000D+00 0.440847242835D-05 0.000000000000D+00  7 -2 21 -24 -11 11 23 -1 2 0.21690577D-01 0.23107760D+00 0.54208956D+05 0.54208956D+05 0.54208956D+05 0.11442207D+01  1  2 12  4  7  2        1 0.128288124594D-04 0.100000000000D+01
-.197327860110D-05 0.000000000000D+00 -.825549637525D-06 0.440847242835D-05 0.000000000000D+00  7 -2 21 -24 -11 11 23 -1 2 0.21690577D-01 0.23437905D+00 0.37875411D+05 0.37875411D+05 0.37875411D+05 0.11580580D+01  1  2  5  4  7  2        1 -.290155431803D-04 0.100000000000D+01
  </mgrwgt>
  </event>
  <event>
  9     66 -.26562228E-05 0.99546460E+03 0.75467711E-02 0.85941067E-01
       -2 -1    0    0    0  501 0.00000000E+00 0.00000000E+00 0.67512133E+03 0.67512141E+03 0.32000000E+00 0.0000E+00 0.9000E+01
        1 -1    0    0  502    0 0.00000000E+00 0.00000000E+00 -.25418589E+04 0.25418589E+04 0.32000000E+00 0.0000E+00 0.9000E+01
       25  2    1    2    0    0 -.35578076E+03 0.86117067E+03 -.11537035E+03 0.98440336E+03 0.29587966E+03 0.0000E+00 0.0000E+00
       23  2    3    3    0    0 0.33667400E+01 0.87000851E+02 -.23196454E+02 0.12119010E+03 0.81046177E+02 0.0000E+00 0.0000E+00
      -24  1    1    2    0    0 0.66706948E+03 -.81094268E+03 -.14807411E+04 0.18170501E+04 0.80419002E+02 0.0000E+00 0.9000E+01
      -13  1    4    4    0    0 -.19091584E+02 0.12950217E+02 0.21746885E+02 0.31703862E+02 0.10565837E+00 0.0000E+00 0.9000E+01
       13  1    4    4    0    0 0.22458324E+02 0.74050635E+02 -.44943339E+02 0.89486243E+02 0.10565837E+00 0.0000E+00 0.9000E+01
       23  1    3    3    0    0 -.35914750E+03 0.77416982E+03 -.92173899E+02 0.86321325E+03 0.91188000E+02 0.0000E+00 0.9000E+01
       21  1    1    2  502  501 -.31128871E+03 -.50227996E+02 -.27062614E+03 0.41552687E+03 0.75000000E+00 0.0000E+00 0.9000E+01
#aMCatNLO 2  0  0  2  1 0.31531495D+03 0.00000000D+00  -5  7  0 0.00000000D+00 0.00000000D+00 0.00000000D+00 0.00000000D+00 0.00000000D+00
  <mgrwgt>
 -.6873624233D-04    2    2    0
 0.114030108738235D+04 0.000000000000000D+00 0.000000000000000D+00 0.114030108738235D+04
 0.114030108738235D+04 0.000000000000000D+00 0.000000000000000D+00 -.114030108738235D+04
 0.112252561602568D+04 0.510370569298611D+03 -.836226831565385D+03 -.542072975570067D+03
 0.564849978751463D+02 -.265727278988557D+02 0.117430041993962D+02 0.484411701896394D+02
 0.737728828785617D+02 0.121677293660310D+02 0.723902879872370D+02 0.735056565264806D+01
 0.102781867798531D+04 -.495965570765786D+03 0.752093539378752D+03 0.486281239727780D+03
 0.000000000000000D+00 -.000000000000000D+00 -.000000000000000D+00 -.000000000000000D+00
 0.128953369704914D+04 0.000000000000000D+00 0.000000000000000D+00 0.128953369704914D+04
 0.133076179056555D+04 0.000000000000000D+00 0.000000000000000D+00 -.133076179056555D+04
 0.118444925570925D+04 0.667069477545522D+03 -.810942676568198D+03 -.542072975570067D+03
 0.536539248953176D+02 -.190916542360796D+02 0.129501129671035D+02 0.484411701896394D+02
 0.777298021719948D+02 0.224583942686982D+02 0.740507383970967D+02 0.735056565264806D+01
 0.986463651952169D+03 -.359147504011173D+03 0.774169820859848D+03 0.486281239727780D+03
 0.317998852885950D+03 -.311288713566968D+03 -.502279956558504D+02 -.412280935164147D+02
-.472735949619D-02 0.000000000000D+00 0.000000000000D+00 0.148604226815D-07 0.000000000000D+00  7 -2 1 -24 -13 13 23 21 2 0.91844933D-01 0.40980036D+00 0.13539312D+07 0.13539312D+07 0.13539312D+07 0.10392147D+01  1  2 13  2  7  2        1 -.556686174834D-03 0.100000000000D+01
0.457203028531D-02 0.000000000000D+00 0.000000000000D+00 0.148604226815D-07 0.875168792747D-12  7 -2 1 -24 -13 13 23 21 2 0.10386479D+00 0.39105509D+00 0.13539312D+07 0.13539312D+07 0.13539312D+07 0.10392147D+01  1  2  1  2  7  2        1 0.487949932504D-03 0.100000000000D+01
  </mgrwgt>
  </event>
  <event>
  8     66 0.26562228E-05 0.16326504E+03 0.75467711E-02 0.10284902E+00
       -2 -1    0    0    0  501 0.00000000E+00 0.00000000E+00 0.12203071E+03 0.12203113E+03 0.32000000E+00 0.0000E+00 0.9000E+01
        1 -1    0    0  501    0 0.00000000E+00 0.00000000E+00 -.84248582E+03 0.84248589E+03 0.32000000E+00 0.0000E+00 0.9000E+01
       25  2    1    2    0    0 -.32463902E+02 0.11053934E+03 -.11304217E+03 0.34106648E+03 0.30045793E+03 0.0000E+00 0.0000E+00
       23  2    3    3    0    0 0.69892746E+02 0.12398727E+03 -.93157223E+01 0.16863633E+03 0.89964387E+02 0.0000E+00 0.0000E+00
      -24  1    1    2    0    0 0.32463902E+02 -.11053934E+03 -.60741295E+03 0.62345053E+03 0.80419002E+02 0.0000E+00 0.9000E+01
      -13  1    4    4    0    0 0.21384201E+02 0.98153138E+02 -.37057149E+02 0.10707271E+03 0.10565837E+00 0.0000E+00 0.9000E+01
       13  1    4    4    0    0 0.48508545E+02 0.25834134E+02 0.27741427E+02 0.61563620E+02 0.10565837E+00 0.0000E+00 0.9000E+01
       23  1    3    3    0    0 -.10235665E+03 -.13447932E+02 -.10372644E+03 0.17243015E+03 0.91188000E+02 0.0000E+00 0.9000E+01
#aMCatNLO 1  0  0  1  2 0.79503805D+02 0.00000000D+00  -5  7  0 0.00000000D+00 0.00000000D+00 0.00000000D+00 0.00000000D+00 0.00000000D+00
  <mgrwgt>
 0.9533772510D-03    9    2    0
 0.320639005815238D+03 0.000000000000000D+00 0.000000000000000D+00 0.320639005815238D+03
 0.320639005815238D+03 0.000000000000000D+00 0.000000000000000D+00 -.320639005815238D+03
 0.255294688177151D+03 0.324639019594257D+02 -.110539340187229D+03 -.213155603251802D+03
 0.119410670139330D+03 0.213841636231882D+02 0.981532373971667D+02 0.645567012611086D+02
 0.123761635259400D+03 0.485085820817899D+02 0.258340340536965D+02 0.110889415685211D+03
 0.142811018054594D+03 -.102356647664404D+03 -.134479312636347D+02 0.377094863054818D+02
 0.000000000000000D+00 0.000000000000000D+00 -.000000000000000D+00 0.000000000000000D+00
 0.367931168880016D+03 0.000000000000000D+00 0.000000000000000D+00 0.367931168880016D+03
 0.358336981437645D+03 0.000000000000000D+00 0.000000000000000D+00 -.358336981437645D+03
 0.243459886023411D+03 0.317886029113793D+02 -.797475621913614D+02 -.213155603251802D+03
 0.132432563373550D+03 0.210431752801323D+02 0.113701367353708D+03 0.645567012611086D+02
 0.127779334831162D+03 0.481680029945322D+02 0.413635030722183D+02 0.110889415685211D+03
 0.142515760636234D+03 -.102742971744420D+03 0.416738352281356D+01 0.377094863054818D+02
 0.800806054533037D+02 0.174319055837664D+01 -.794846917573788D+02 0.959418744237105D+01
0.140983643955D-04 0.000000000000D+00 0.000000000000D+00 0.145856305730D-05 0.000000000000D+00  7 -2 1 -24 -13 13 23 21 0 0.18773992D-01 0.12961324D+00 0.47014458D+05 0.47014458D+05 0.47014458D+05 0.11496548D+01  1  2  2  1  7  1       -2 0.706355247852D-03 0.100000000000D+01
-.637495633392D-06 0.000000000000D+00 -.541414314634D-07 0.145856305730D-05 0.000000000000D+00  7 -2 1 -24 -13 13 23 21 2 0.18773992D-01 0.12961324D+00 0.47014458D+05 0.47014458D+05 0.47014458D+05 0.11496548D+01  1  2  3  1  7  1       -2 -.422149750190D-04 0.100000000000D+01
0.894734694542D-06 0.000000000000D+00 0.000000000000D+00 0.145856305730D-05 0.000000000000D+00  7 -2 1 -24 -13 13 23 21 2 0.18773992D-01 0.12961324D+00 0.47014458D+05 0.47014458D+05 0.47014458D+05 0.11496548D+01  1  2 15  1  7  1       -2 0.592493513684D-04 0.100000000000D+01
0.945300605851D-05 0.000000000000D+00 0.000000000000D+00 0.145856305730D-05 0.000000000000D+00  7 -2 1 -24 -13 13 23 21 2 0.22504137D-01 0.12961324D+00 0.65970834D+05 0.65970834D+05 0.65970834D+05 0.11368548D+01  1  2 12  1  7  1       -2 0.452332235378D-03 0.100000000000D+01
-.954107753566D-05 0.000000000000D+00 0.000000000000D+00 0.145856305730D-05 0.000000000000D+00  7 -2 1 -24 -13 13 23 21 2 0.18773992D-01 0.12961324D+00 0.47014458D+05 0.47014458D+05 0.47014458D+05 0.11496548D+01  1  2  4  1  7  1       -2 -.631810366573D-03 0.100000000000D+01
-.201556987816D-04 0.000000000000D+00 -.838557029580D-05 0.145856305730D-05 0.000000000000D+00  7 -2 1 -24 -13 13 23 21 2 0.24040522D-01 0.12961324D+00 0.47014458D+05 0.47014458D+05 0.47014458D+05 0.11496548D+01  1  2  5  1  7  1       -2 -.887289891625D-03 0.100000000000D+01
0.218090420586D-04 0.000000000000D+00 0.813558889713D-05 0.145856305730D-05 0.000000000000D+00  7 -2 1 -24 -13 13 23 21 2 0.18773992D-01 0.12961324D+00 0.47014458D+05 0.47014458D+05 0.47014458D+05 0.11496548D+01  1  2  6  1  7  1       -2 0.144419525008D-02 0.100000000000D+01
0.250640040776D-06 0.000000000000D+00 0.000000000000D+00 0.145856305730D-05 0.000000000000D+00  7 21 1 -24 -13 13 23 2 2 0.22504137D-01 0.12961324D+00 0.65970834D+05 0.65970834D+05 0.65970834D+05 0.11368548D+01  1  2 12  3  7  1       -2 0.152048296348D-03 0.100000000000D+01
-.538601218651D-06 0.000000000000D+00 -.281502042794D-06 0.145856305730D-05 0.000000000000D+00  7 21 1 -24 -13 13 23 2 2 0.24040522D-01 0.12961324D+00 0.47014458D+05 0.47014458D+05 0.47014458D+05 0.11496548D+01  1  2  5  3  7  1       -2 -.299487896775D-03 0.100000000000D+01
  </mgrwgt>
  </event>
  <event>
  9     66 0.26562228E-05 0.16608220E+03 0.75467711E-02 0.10492412E+00
       21 -1    0    0  502  501 0.00000000E+00 0.00000000E+00 0.27718577E+03 0.27718678E+03 0.75000000E+00 0.0000E+00 0.9000E+01
        1 -1    0    0  501    0 0.00000000E+00 0.00000000E+00 -.53514817E+03 0.53514827E+03 0.32000000E+00 0.0000E+00 0.9000E+01
       25  2    1    2    0    0 0.47745201E+02 0.10643312E+02 -.44253461E+03 0.53690725E+03 0.30006603E+03 0.0000E+00 0.0000E+00
       23  2    3    3    0    0 0.61179696E+02 0.91158348E+02 -.36473120E+03 0.39188387E+03 0.92148363E+02 0.0000E+00 0.0000E+00
      -24  1    1    2    0    0 0.52321300E+02 -.32377260E+02 0.79773047E+02 0.12890601E+03 0.80419002E+02 0.0000E+00 0.9000E+01
      -11  1    4    4    0    0 -.38919528E+01 0.48134597E+00 -.14846188E+03 0.14851367E+03 0.51099893E-03 0.0000E+00 0.9000E+01
       11  1    4    4    0    0 0.65071649E+02 0.90677002E+02 -.21626932E+03 0.24337020E+03 0.51099893E-03 0.0000E+00 0.9000E+01
       23  1    3    3    0    0 -.13434495E+02 -.80515036E+02 -.77803414E+02 0.14502338E+03 0.91188000E+02 0.0000E+00 0.9000E+01
        2  1    1    2  502    0 -.10006650E+03 0.21733948E+02 0.10479916E+03 0.14652179E+03 0.32000000E+00 0.0000E+00 0.9000E+01
#aMCatNLO 2  0  0  1  2 0.10239956D+03 0.00000000D+00  -5  7  0 0.00000000D+00 0.00000000D+00 0.00000000D+00 0.00000000D+00 0.00000000D+00
  <mgrwgt>
 0.3228130195D-03    2    2    0
 0.274420149561058D+03 0.000000000000000D+00 0.000000000000000D+00 0.274420149561058D+03
 0.274420149561058D+03 0.000000000000000D+00 0.000000000000000D+00 -.274420149561058D+03
 0.198284699556882D+03 0.158211135267108D+02 -.244496007892186D+02 0.178889674134689D+03
 0.827672830989897D+02 -.186616509678099D+02 0.368925124247443D+01 -.805515695689031D+02
 0.144020380486347D+03 0.385237020203360D+02 0.964430849107306D+02 -.997823919886780D+02
 0.123767935979898D+03 -.356831645792370D+02 -.756827353639864D+02 0.144428742289210D+01
 0.000000000000000D+00 -.000000000000000D+00 0.000000000000000D+00 0.000000000000000D+00
 0.510659285572448D+03 0.000000000000000D+00 0.000000000000000D+00 0.510659285572448D+03
 0.290479011434848D+03 0.000000000000000D+00 0.000000000000000D+00 -.290479011434848D+03
 0.205559083622678D+03 0.523212997043616D+02 -.323772603945392D+02 0.178889674134689D+03
 0.806469735971533D+02 -.389195277775605D+01 0.481345968945713D+00 -.805515695689031D+02
 0.149710266861071D+03 0.650716489265676D+02 0.906770023688943D+02 -.997823919886780D+02
 0.122394828372186D+03 -.134344954079172D+02 -.805150360816636D+02 0.144428742289210D+01
 0.242827144554208D+03 -.100066500445256D+03 0.217339481383628D+02 0.220180274137600D+03
-.458048380019D-06 0.000000000000D+00 0.000000000000D+00 0.242802466123D-05 0.000000000000D+00  7 21 1 -24 -11 11 23 2 2 0.42782732D-01 0.77778977D-01 0.48746896D+05 0.48746896D+05 0.48746896D+05 0.11482662D+01  1  2 13  3  7  1       -2 -.173419556250D-03 0.100000000000D+01
0.140800302440D-05 0.000000000000D+00 0.000000000000D+00 0.242802466123D-05 0.136205715360D-09  7 21 1 -24 -11 11 23 2 2 0.42644035D-01 0.82330545D-01 0.48746896D+05 0.48746896D+05 0.48746896D+05 0.11482662D+01  1  2  1  3  7  1       -2 0.496232575796D-03 0.100000000000D+01
  </mgrwgt>
  </event>
  <event>
  8     66 0.26562228E-05 0.25175459E+03 0.75467711E-02 0.99917963E-01
       -2 -1    0    0    0  501 0.00000000E+00 0.00000000E+00 0.80904308E+02 0.80904941E+02 0.32000000E+00 0.0000E+00 0.9000E+01
        1 -1    0    0  501    0 0.00000000E+00 0.00000000E+00 -.13006042E+04 0.13006043E+04 0.32000000E+00 0.0000E+00 0.9000E+01
       25  2    1    2    0    0 -.68856769E+02 0.14102698E+03 -.32548974E+03 0.47007686E+03 0.30066396E+03 0.0000E+00 0.0000E+00
       23  2    3    3    0    0 0.45450625E+02 0.14998185E+03 -.11725721E+03 0.21547441E+03 0.90109107E+02 0.0000E+00 0.0000E+00
      -24  1    1    2    0    0 0.68856769E+02 -.14102698E+03 -.89421020E+03 0.91143237E+03 0.80419002E+02 0.0000E+00 0.9000E+01
      -11  1    4    4    0    0 0.53613414E+02 0.15941740E+03 -.11099357E+03 0.20151397E+03 0.51099893E-03 0.0000E+00 0.9000E+01
       11  1    4    4    0    0 -.81627895E+01 -.94355480E+01 -.62636359E+01 0.13960438E+02 0.51099893E-03 0.0000E+00 0.9000E+01
       23  1    3    3    0    0 -.11430739E+03 -.89548728E+01 -.20823253E+03 0.25460245E+03 0.91188000E+02 0.0000E+00 0.9000E+01
#aMCatNLO 1  0  0  1  1 0.13392718D+03 0.00000000D+00  -5  7  0 0.00000000D+00 0.00000000D+00 0.00000000D+00 0.00000000D+00 0.00000000D+00
  <mgrwgt>
 0.1864561437D-02    4    2    0
 0.324383956111916D+03 0.000000000000000D+00 0.000000000000000D+00 0.324383956111916D+03
 0.324383956111916D+03 0.000000000000000D+00 0.000000000000000D+00 -.324383956111916D+03
 0.259698572656375D+03 0.688567694088258D+02 -.141026981989968D+03 -.190646973075286D+03
 0.220440240222742D+03 0.536134141655569D+02 0.159417402729206D+03 0.142497694851695D+03
 0.179520558110748D+02 -.816278953044230D+01 -.943554798899334D+01 0.129079668837911D+02
 0.150677043533640D+03 -.114307394043940D+03 -.895487275024431D+01 0.352413113398002D+02
 0.000000000000000D+00 0.000000000000000D+00 -.000000000000000D+00 -.000000000000000D+00
 0.350879567205299D+03 0.000000000000000D+00 0.000000000000000D+00 0.350879567205299D+03
 0.559353941788119D+03 0.000000000000000D+00 0.000000000000000D+00 -.559353941788119D+03
 0.232807603026986D+03 0.487739773900948D+02 -.949051887916655D+02 -.190646973075286D+03
 0.250842517877755D+03 0.343960437441327D+02 0.203551683638226D+03 0.142497694851695D+03
 0.172174422312539D+02 -.959688670416250D+01 -.614202519540455D+01 0.129079668837911D+02
 0.161579637528842D+03 -.127040200842832D+03 0.202870713711048D+02 0.352413113398002D+02
 0.247786308328581D+03 0.534670664127668D+02 -.122791541022261D+03 -.208474374582820D+03
0.443994547755D-04 0.000000000000D+00 0.000000000000D+00 0.169303022512D-05 0.000000000000D+00  7 -2 1 -24 -11 11 23 21 0 0.12446868D-01 0.20009301D+00 0.63380374D+05 0.63380374D+05 0.63380374D+05 0.11383456D+01  1  2  2  1  7  1       -2 0.197183227353D-02 0.100000000000D+01
-.227395028414D-05 0.000000000000D+00 -.170505596983D-06 0.169303022512D-05 0.000000000000D+00  7 -2 1 -24 -11 11 23 21 2 0.12446868D-01 0.20009301D+00 0.63380374D+05 0.63380374D+05 0.63380374D+05 0.11383456D+01  1  2  3  1  7  1       -2 -.130864409159D-03 0.100000000000D+01
0.281560676912D-05 0.000000000000D+00 0.000000000000D+00 0.169303022512D-05 0.000000000000D+00  7 -2 1 -24 -11 11 23 21 2 0.12446868D-01 0.20009301D+00 0.63380374D+05 0.63380374D+05 0.63380374D+05 0.11383456D+01  1  2 15  1  7  1       -2 0.162036399316D-03 0.100000000000D+01
-.240563578798D-05 0.000000000000D+00 0.000000000000D+00 0.169303022512D-05 0.000000000000D+00  7 -2 1 -24 -11 11 23 21 2 0.12446868D-01 0.20009301D+00 0.63380374D+05 0.63380374D+05 0.63380374D+05 0.11383456D+01  1  2  4  1  7  1       -2 -.138442827111D-03 0.100000000000D+01
  </mgrwgt>
  </event>
  <event>
  9     66 0.26562228E-05 0.19111091E+03 0.75467711E-02 0.10568040E+00
       -2 -1    0    0    0  501 0.00000000E+00 0.00000000E+00 0.64934816E+02 0.64935605E+02 0.32000000E+00 0.0000E+00 0.9000E+01
        1 -1    0    0  502    0 0.00000000E+00 0.00000000E+00 -.89502728E+03 0.89502733E+03 0.32000000E+00 0.0000E+00 0.9000E+01
       25  2    1    2    0    0 -.24561884E+02 -.30806271E+02 -.41608572E+03 0.51480174E+03 0.30056812E+03 0.0000E+00 0.0000E+00
       23  2    3    3    0    0 -.13105741E+03 -.23930550E+02 -.25316198E+03 0.29974833E+03 0.89495020E+02 0.0000E+00 0.0000E+00
      -24  1    1    2    0    0 0.41057443E+02 0.61515628E+02 -.38373714E+03 0.39898783E+03 0.80419002E+02 0.0000E+00 0.9000E+01
      -11  1    4    4    0    0 -.98463213E+02 -.24361973E+02 -.97443830E+02 0.14065493E+03 0.51099893E-03 0.0000E+00 0.9000E+01
       11  1    4    4    0    0 -.32594196E+02 0.43142293E+00 -.15571815E+03 0.15909340E+03 0.51099893E-03 0.0000E+00 0.9000E+01
       23  1    3    3    0    0 0.10649552E+03 -.68757207E+01 -.16292374E+03 0.21505341E+03 0.91188000E+02 0.0000E+00 0.9000E+01
       21  1    1    2  502  501 -.16495559E+02 -.30709357E+02 -.30269604E+02 0.46173364E+02 0.75000000E+00 0.0000E+00 0.9000E+01
#aMCatNLO 2  0  0  2  1 0.34859261D+02 0.00000000D+00  -5  7  0 0.00000000D+00 0.00000000D+00 0.00000000D+00 0.00000000D+00 0.00000000D+00
  <mgrwgt>
 0.2526640384D-03    1    2    0
 0.220272341379708D+03 0.000000000000000D+00 0.000000000000000D+00 0.220272341379708D+03
 0.220272341379708D+03 0.000000000000000D+00 0.000000000000000D+00 -.220272341379708D+03
 0.125078845180525D+03 0.362800862174985D+02 0.526217463450887D+02 -.713597135151700D+02
 0.120222889038565D+03 -.102850411791040D+03 -.325295088466994D+02 0.530769902819014D+02
 0.484749132935613D+02 -.343814317575660D+02 -.289582761924163D+01 -.340492077957441D+02
 0.146768035246766D+03 0.100951757331108D+03 -.171964098791476D+02 0.523319310290127D+02
 0.000000000000000D+00 -.000000000000000D+00 -.000000000000000D+00 0.000000000000000D+00
 0.251791671201128D+03 0.000000000000000D+00 0.000000000000000D+00 0.251791671201128D+03
 0.230814364368827D+03 0.000000000000000D+00 0.000000000000000D+00 -.230814364368827D+03
 0.130496401302212D+03 0.410574427847062D+02 0.615156279125137D+02 -.713597135151700D+02
 0.114480028223057D+03 -.984632125667277D+02 -.243619731468169D+02 0.530769902819014D+02
 0.471372071428181D+02 -.325941961087402D+02 0.431422915676575D+00 -.340492077957441D+02
 0.149808059535377D+03 0.106495524865653D+03 -.687572077086200D+01 0.523319310290127D+02
 0.406843393664909D+02 -.164955589748908D+02 -.307093569105114D+02 0.209773068323016D+02
0.155180136462D-05 0.000000000000D+00 0.000000000000D+00 0.203321826185D-06 0.119958440280D-08  7 -2 1 -24 -11 11 23 21 2 0.99898904D-02 0.13769455D+00 0.43788902D+05 0.43788902D+05 0.43788902D+05 0.11523971D+01  1  2  1  2  7  2        1 0.252664038435D-03 0.100000000000D+01
  </mgrwgt>
  </event>
  <event>
  8     66 0.26562228E-05 0.18506740E+03 0.75467711E-02 0.99210169E-01
       -2 -1    0    0    0  501 0.00000000E+00 0.00000000E+00 0.29235907E+03 0.29235925E+03 0.32000000E+00 0.0000E+00 0.9000E+01
        1 -1    0    0  501    0 0.00000000E+00 0.00000000E+00 -.23287198E+03 0.23287220E+03 0.32000000E+00 0.0000E+00 0.9000E+01
       25  2    1    2    0    0 -.31579315E+02 0.71074405E+01 -.12187156E+03 0.32421915E+03 0.29869317E+03 0.0000E+00 0.0000E+00
       23  2    3    3    0    0 0.86289050E+02 0.50590676E+02 -.10960711E+02 0.13343076E+03 0.87626554E+02 0.0000E+00 0.0000E+00
      -24  1    1    2    0    0 0.31579315E+02 -.71074405E+01 0.18135865E+03 0.20101230E+03 0.80419002E+02 0.0000E+00 0.9000E+01
      -11  1    4    4    0    0 0.69615223E+02 -.53635696E+01 -.23582054E+02 0.73696407E+02 0.51099893E-03 0.0000E+00 0.9000E+01
       11  1    4    4    0    0 0.16673827E+02 0.55954246E+02 0.12621343E+02 0.59734349E+02 0.51099893E-03 0.0000E+00 0.9000E+01
       23  1    3    3    0    0 -.11786836E+03 -.43483236E+02 -.11091085E+03 0.19078839E+03 0.91188000E+02 0.0000E+00 0.9000E+01
#aMCatNLO 1  0  0  1  1 0.23332519D+03 0.00000000D+00  -5  7  0 0.00000000D+00 0.00000000D+00 0.00000000D+00 0.00000000D+00 0.00000000D+00
  <mgrwgt>
 0.7496627886D-03    5    2    0
 0.260925929171046D+03 0.000000000000000D+00 0.000000000000000D+00 0.260925929171046D+03
 0.260925929171046D+03 0.000000000000000D+00 0.000000000000000D+00 -.260925929171046D+03
 0.181640598151469D+03 0.315793146519416D+02 -.710744045983700D+01 0.159619303715674D+03
 0.768618488623954D+02 0.696152229861809D+02 -.536356963942640D+01 -.321355980161106D+02
 0.586824618408816D+02 0.166738265645130D+02 0.559542461195819D+02 0.589382529367197D+01
 0.204666949487345D+03 -.117868364202636D+03 -.434832360203185D+02 -.133377530993235D+03
 0.000000000000000D+00 0.000000000000000D+00 0.000000000000000D+00 0.000000000000000D+00
 0.473288493697687D+03 0.000000000000000D+00 0.000000000000000D+00 0.473288493697687D+03
 0.358418338252072D+03 0.000000000000000D+00 0.000000000000000D+00 -.358418338252072D+03
 0.200730103116364D+03 0.234799908986696D+02 -.882934100114916D+02 0.159619303715674D+03
 0.834911077483552D+02 0.662186486511742D+02 -.394101380866239D+02 -.321355980161106D+02
 0.386467449505633D+02 0.146122126546624D+02 0.352890487264320D+02 0.589382529367197D+01
 0.248770046439542D+03 -.127473004462849D+03 -.139758191247938D+03 -.133377530993235D+03
 0.260068829694934D+03 0.231621522583426D+02 0.232172690619621D+03 0.114870155445615D+03
0.111419542422D-04 0.000000000000D+00 0.000000000000D+00 0.410109853067D-07 0.000000000000D+00  7 -2 1 -24 -11 11 23 21 0 0.44978349D-01 0.35826489D-01 0.34249941D+05 0.34249941D+05 0.34249941D+05 0.11620347D+01  1  2  2  1  7  1       -2 0.712869470120D-03 0.100000000000D+01
-.530186698902D-06 0.000000000000D+00 -.427880380338D-07 0.410109853067D-07 0.000000000000D+00  7 -2 1 -24 -11 11 23 21 2 0.44978349D-01 0.35826489D-01 0.34249941D+05 0.34249941D+05 0.34249941D+05 0.11620347D+01  1  2  3  1  7  1       -2 -.458052966868D-04 0.100000000000D+01
0.698018068675D-06 0.000000000000D+00 0.000000000000D+00 0.410109853067D-07 0.000000000000D+00  7 -2 1 -24 -11 11 23 21 2 0.44978349D-01 0.35826489D-01 0.34249941D+05 0.34249941D+05 0.34249941D+05 0.11620347D+01  1  2 15  1  7  1       -2 0.603050298973D-04 0.100000000000D+01
-.250862497012D-06 0.000000000000D+00 -.331192603439D-05 0.410109853067D-07 0.000000000000D+00  7 -2 1 -24 -11 11 23 21 2 0.10557952D+00 0.35826489D-01 0.34249941D+05 0.34249941D+05 0.34249941D+05 0.11620347D+01  1  2  5  1  7  1       -2 -.354876983782D-05 0.100000000000D+01
0.185760572654D-06 0.000000000000D+00 -.308290785904D-06 0.410109853067D-07 0.000000000000D+00  7 21 1 -24 -11 11 23 2 2 0.10557952D+00 0.35826489D-01 0.34249941D+05 0.34249941D+05 0.34249941D+05 0.11620347D+01  1  2  5  3  7  1       -2 0.258423550979D-04 0.100000000000D+01
  </mgrwgt>
  </event>
  <event>
  8     66 0.26562228E-05 0.32542105E+03 0.75467711E-02 0.91817335E-01
       -2 -1    0    0    0  501 0.00000000E+00 0.00000000E+00 0.13809965E+04 0.13809966E+04 0.32000000E+00 0.0000E+00 0.9000E+01
        1 -1    0    0  501    0 0.00000000E+00 0.00000000E+00 -.15114145E+03 0.15114179E+03 0.32000000E+00 0.0000E+00 0.9000E+01
       25  2    1    2    0    0 0.40060843E+03 0.32976281E+02 0.62809514E+03 0.80401969E+03 0.30061540E+03 0.0000E+00 0.0000E+00
       23  2    3    3    0    0 0.17558458E+03 0.10126269E+03 0.16678917E+03 0.27826575E+03 0.92353240E+02 0.0000E+00 0.0000E+00
      -24  1    1    2    0    0 -.40060843E+03 -.32976281E+02 0.60175994E+03 0.72811867E+03 0.80419002E+02 0.0000E+00 0.9000E+01
      -11  1    4    4    0    0 0.76942159E+02 0.65179264E+02 0.28841654E+02 0.10488219E+03 0.51099893E-03 0.0000E+00 0.9000E+01
       11  1    4    4    0    0 0.98642420E+02 0.36083429E+02 0.13794752E+03 0.17338356E+03 0.51099893E-03 0.0000E+00 0.9000E+01
       23  1    3    3    0    0 0.22502385E+03 -.68286412E+02 0.46130596E+03 0.52575394E+03 0.91188000E+02 0.0000E+00 0.9000E+01
#aMCatNLO 1  0  0  2  1 0.36510964D+03 0.00000000D+00  -5  7  0 0.00000000D+00 0.00000000D+00 0.00000000D+00 0.00000000D+00 0.00000000D+00
  <mgrwgt>
 0.3902675988D-03    7    2    0
 0.456865524478224D+03 0.000000000000000D+00 0.000000000000000D+00 0.456865524478224D+03
 0.456865524478224D+03 0.000000000000000D+00 0.000000000000000D+00 -.456865524478224D+03
 0.410953545719828D+03 -.400608426871113D+03 -.329762811699392D+02 0.290009307675035D+02
 0.137045762402905D+03 0.769421590185886D+02 0.651792637859389D+02 -.928068355805469D+02
 0.105055142393572D+03 0.986424195190581D+02 0.360834291262804D+02 -.205964978785724D+01
 0.260676598440142D+03 0.225023848333466D+03 -.682864117422801D+02 0.658655546009006D+02
 0.000000000000000D+00 0.000000000000000D+00 0.000000000000000D+00 -.000000000000000D+00
 0.514607515252333D+03 0.000000000000000D+00 0.000000000000000D+00 0.514607515252333D+03
 0.196534099347452D+04 0.000000000000000D+00 0.000000000000000D+00 -.196534099347452D+04
 0.513704678428077D+03 -.466073502425329D+03 -.198392835143129D+03 0.290009307675035D+02
 0.112050943985542D+03 0.593063079785424D+02 0.206171567276045D+02 -.928068355805469D+02
 0.852204741856568D+02 0.851710554083206D+02 0.204410954020867D+01 -.205964978785724D+01
 0.273000262941035D+03 0.187239945979652D+03 -.163758430526576D+03 0.658655546009006D+02
 0.149597214918655D+04 0.134356193058814D+03 0.339489999401892D+03 -.145073347822219D+04
0.347576220865D-03 0.000000000000D+00 0.000000000000D+00 0.215080966529D-05 0.000000000000D+00  7 -2 1 -24 -11 11 23 21 0 0.21246103D+00 0.23252560D-01 0.18836501D+06 0.18836501D+06 0.18836501D+06 0.10998301D+01  1  2  2  2  7  2        1 0.885064936361D-03 0.100000000000D+01
-.192479538008D-04 0.000000000000D+00 -.133478420704D-05 0.215080966529D-05 0.000000000000D+00  7 -2 1 -24 -11 11 23 21 2 0.21246103D+00 0.23252560D-01 0.18836501D+06 0.18836501D+06 0.18836501D+06 0.10998301D+01  1  2  3  2  7  2        1 -.592871928143D-04 0.100000000000D+01
0.221761077330D-04 0.000000000000D+00 0.000000000000D+00 0.215080966529D-05 0.000000000000D+00  7 -2 1 -24 -11 11 23 21 2 0.21246103D+00 0.23252560D-01 0.18836501D+06 0.18836501D+06 0.18836501D+06 0.10998301D+01  1  2 15  2  7  2        1 0.683064386298D-04 0.100000000000D+01
0.529167896571D-04 0.000000000000D+00 0.000000000000D+00 0.215080966529D-05 0.000000000000D+00  7 -2 1 -24 -11 11 23 21 2 0.21246103D+00 0.95300271D-01 0.41661474D+06 0.41661474D+06 0.41661474D+06 0.10741558D+01  1  2 12  2  7  2        1 0.222943212292D-04 0.100000000000D+01
-.979233141257D-03 0.000000000000D+00 -.147894804830D-03 0.215080966529D-05 0.000000000000D+00  7 -2 1 -24 -11 11 23 21 2 0.21246103D+00 0.10642050D+00 0.18836501D+06 0.18836501D+06 0.18836501D+06 0.10998301D+01  1  2  5  2  7  2        1 -.385064758941D-03 0.100000000000D+01
0.893553807445D-05 0.000000000000D+00 0.000000000000D+00 0.215080966529D-05 0.000000000000D+00  7 -2 21 -24 -11 11 23 -1 2 0.21246103D+00 0.95300271D-01 0.41661474D+06 0.41661474D+06 0.41661474D+06 0.10741558D+01  1  2 12  4  7  2        1 0.864408505153D-05 0.100000000000D+01
-.182111885288D-03 0.000000000000D+00 -.272401016002D-04 0.215080966529D-05 0.000000000000D+00  7 -2 21 -24 -11 11 23 -1 2 0.21246103D+00 0.10642050D+00 0.18836501D+06 0.18836501D+06 0.18836501D+06 0.10998301D+01  1  2  5  4  7  2        1 -.149690230672D-03 0.100000000000D+01
  </mgrwgt>
  </event>
  <event>
  8     66 0.26562228E-05 0.53750838E+03 0.75467711E-02 0.89104074E-01
       -2 -1    0    0    0  501 0.00000000E+00 0.00000000E+00 0.79432493E+03 0.79432500E+03 0.32000000E+00 0.0000E+00 0.9000E+01
        1 -1    0    0  501    0 0.00000000E+00 0.00000000E+00 -.45957634E+03 0.45957645E+03 0.32000000E+00 0.0000E+00 0.9000E+01
       25  2    1    2    0    0 0.42516248E+02 0.51317285E+03 0.41687693E+03 0.72629717E+03 0.29760242E+03 0.0000E+00 0.0000E+00
       23  2    3    3    0    0 0.32538856E+02 0.38548358E+03 0.40749257E+03 0.56879347E+03 0.88427649E+02 0.0000E+00 0.0000E+00
      -24  1    1    2    0    0 -.42516248E+02 -.51317285E+03 -.82128337E+02 0.52760428E+03 0.80419002E+02 0.0000E+00 0.9000E+01
      -13  1    4    4    0    0 -.18404492E+02 0.26719068E+03 0.26637794E+03 0.37773906E+03 0.10565837E+00 0.0000E+00 0.9000E+01
       13  1    4    4    0    0 0.50943348E+02 0.11829290E+03 0.14111463E+03 0.19105441E+03 0.10565837E+00 0.0000E+00 0.9000E+01
       23  1    3    3    0    0 0.99773920E+01 0.12768927E+03 0.93843587E+01 0.15750370E+03 0.91188000E+02 0.0000E+00 0.9000E+01
#aMCatNLO 1  0  0  1  1 0.51036343D+03 0.00000000D+00  -5  7  0 0.00000000D+00 0.00000000D+00 0.00000000D+00 0.00000000D+00 0.00000000D+00
  <mgrwgt>
 0.1504091595D-02    3    2    0
 0.604196207740517D+03 0.000000000000000D+00 0.000000000000000D+00 0.604196207740517D+03
 0.604196207740517D+03 0.000000000000000D+00 0.000000000000000D+00 -.604196207740517D+03
 0.570225461901843D+03 -.425162483292666D+02 -.513172846301741D+03 -.231378175058440D+03
 0.318173292012998D+03 -.184045907461735D+02 0.267190888691378D+03 0.171768867348440D+03
 0.159157900805863D+03 0.509434470266912D+02 0.118292691354006D+03 0.935031644715497D+02
 0.160835760760328D+03 0.997739204874893D+01 0.127689266256357D+03 -.338938567615491D+02
 0.000000000000000D+00 -.000000000000000D+00 0.000000000000000D+00 -.000000000000000D+00
 0.754371971030904D+03 0.000000000000000D+00 0.000000000000000D+00 0.754371971030904D+03
 0.131698144645618D+04 0.000000000000000D+00 0.000000000000000D+00 -.131698144645618D+04
 0.792686849940913D+03 0.104820111237717D+03 -.746566882805295D+03 -.231378175058440D+03
 0.245813172128811D+03 0.425646379779826D+02 0.170610150330119D+03 0.171768867348440D+03
 0.142009286413391D+03 0.835008438601807D+02 0.667188484319431D+02 0.935031644715497D+02
 0.131238783902256D+03 0.415518372708231D+02 0.776725070368516D+02 -.338938567615491D+02
 0.759605325101711D+03 -.272437430346704D+03 0.431565377006381D+03 -.562609475425274D+03
0.536413644976D-03 0.000000000000D+00 0.000000000000D+00 0.127724579623D-06 0.000000000000D+00  7 -2 1 -24 -13 13 23 21 0 0.12220385D+00 0.70704066D-01 0.28891526D+06 0.28891526D+06 0.28891526D+06 0.10857636D+01  1  2  2  1  7  1       -2 0.148975949437D-02 0.100000000000D+01
-.293051438539D-04 0.000000000000D+00 -.205996963767D-05 0.127724579623D-06 0.000000000000D+00  7 -2 1 -24 -13 13 23 21 2 0.12220385D+00 0.70704066D-01 0.28891526D+06 0.28891526D+06 0.28891526D+06 0.10857636D+01  1  2  3  1  7  1       -2 -.959468661407D-04 0.100000000000D+01
0.336826111029D-04 0.000000000000D+00 0.000000000000D+00 0.127724579623D-06 0.000000000000D+00  7 -2 1 -24 -13 13 23 21 2 0.12220385D+00 0.70704066D-01 0.28891526D+06 0.28891526D+06 0.28891526D+06 0.10857636D+01  1  2 15  1  7  1       -2 0.110278966549D-03 0.100000000000D+01
  </mgrwgt>
  </event>
  <event>
  8     66 0.26562228E-05 0.45829156E+03 0.75467711E-02 0.94280502E-01
       -2 -1    0    0    0  501 0.00000000E+00 0.00000000E+00 0.86092476E+03 0.86092482E+03 0.32000000E+00 0.0000E+00 0.9000E+01
        1 -1    0    0  501    0 0.00000000E+00 0.00000000E+00 -.39091213E+03 0.39091226E+03 0.32000000E+00 0.0000E+00 0.9000E+01
       25  2    1    2    0    0 -.22764791E+03 0.34491379E+03 -.12918657E+03 0.51951475E+03 0.28708416E+03 0.0000E+00 0.0000E+00
       23  2    3    3    0    0 -.10189770E+03 0.17506232E+02 -.13991920E+02 0.13925973E+03 0.92238217E+02 0.0000E+00 0.0000E+00
      -24  1    1    2    0    0 0.22764791E+03 -.34491379E+03 0.59919920E+03 0.73232233E+03 0.80419002E+02 0.0000E+00 0.9000E+01
      -11  1    4    4    0    0 -.10351832E+03 -.11474465E+02 -.26782227E+02 0.10754066E+03 0.51099893E-03 0.0000E+00 0.9000E+01
       11  1    4    4    0    0 0.16206214E+01 0.28980697E+02 0.12790307E+02 0.31719067E+02 0.51099893E-03 0.0000E+00 0.9000E+01
       23  1    3    3    0    0 -.12575021E+03 0.32740756E+03 -.11519465E+03 0.38025502E+03 0.91188000E+02 0.0000E+00 0.9000E+01
#aMCatNLO 1  0  0  1  2 0.10977336D+03 0.00000000D+00  -5  7  0 0.00000000D+00 0.00000000D+00 0.00000000D+00 0.00000000D+00 0.00000000D+00
  <mgrwgt>
 0.8089507205D-02    4    2    0
 0.580125891954362D+03 0.000000000000000D+00 0.000000000000000D+00 0.580125891954362D+03
 0.580125891954362D+03 0.000000000000000D+00 0.000000000000000D+00 -.580125891954362D+03
 0.547395885103985D+03 0.227647910507603D+03 -.344913790011043D+03 0.349837026879868D+03
 0.126878816035207D+03 -.103518321049979D+03 -.114744648252815D+02 -.724605259604343D+02
 0.290415391617826D+02 0.162062139793732D+01 0.289806971200999D+02 0.950672184789699D+00
 0.456935543607749D+03 -.125750210855561D+03 0.327407557716224D+03 -.278327173104224D+03
 0.000000000000000D+00 -.000000000000000D+00 -.000000000000000D+00 -.000000000000000D+00
 0.610594171505022D+03 0.000000000000000D+00 0.000000000000000D+00 0.610594171505022D+03
 0.690779941888932D+03 0.000000000000000D+00 0.000000000000000D+00 -.690779941888932D+03
 0.530714662367165D+03 0.250979302867485D+03 -.299690308573917D+03 0.349837026879868D+03
 0.121990148094803D+03 -.981325473350901D+02 -.103516339556288D+01 -.724605259604343D+02
 0.316782649043304D+02 0.293465879048918D+01 0.315277095192373D+02 0.950672184789699D+00
 0.481050060303029D+03 -.105451262659482D+03 0.366753220965925D+03 -.278327173104224D+03
 0.135940977724626D+03 -.503301516634019D+02 -.975554585156829D+02 -.801857703839095D+02
0.395209616705D-02 0.000000000000D+00 0.000000000000D+00 0.216750609758D-07 0.000000000000D+00  7 -2 1 -24 -11 11 23 21 0 0.13244998D+00 0.60140342D-01 0.21003115D+06 0.21003115D+06 0.21003115D+06 0.10961968D+01  1  2  2  1  7  1       -2 0.112315861754D-01 0.100000000000D+01
-.204725423504D-03 0.000000000000D+00 -.151770898923D-04 0.216750609758D-07 0.000000000000D+00  7 -2 1 -24 -11 11 23 21 2 0.13244998D+00 0.60140342D-01 0.21003115D+06 0.21003115D+06 0.21003115D+06 0.10961968D+01  1  2  3  1  7  1       -2 -.699137181255D-03 0.100000000000D+01
0.253995729237D-03 0.000000000000D+00 0.000000000000D+00 0.216750609758D-07 0.000000000000D+00  7 -2 1 -24 -11 11 23 21 2 0.13244998D+00 0.60140342D-01 0.21003115D+06 0.21003115D+06 0.21003115D+06 0.10961968D+01  1  2 15  1  7  1       -2 0.867395241637D-03 0.100000000000D+01
-.969352179747D-03 0.000000000000D+00 0.000000000000D+00 0.216750609758D-07 0.000000000000D+00  7 -2 1 -24 -11 11 23 21 2 0.13244998D+00 0.60140342D-01 0.21003115D+06 0.21003115D+06 0.21003115D+06 0.10961968D+01  1  2  4  1  7  1       -2 -.331033703090D-02 0.100000000000D+01
  </mgrwgt>
  </event>
  <event>
  8     66 0.26562228E-05 0.10662199E+03 0.75467711E-02 0.95342723E-01
       -2 -1    0    0    0  501 0.00000000E+00 0.00000000E+00 0.11415434E+03 0.11415479E+03 0.32000000E+00 0.0000E+00 0.9000E+01
        1 -1    0    0  501    0 0.00000000E+00 0.00000000E+00 -.87489186E+03 0.87489192E+03 0.32000000E+00 0.0000E+00 0.9000E+01
       25  2    1    2    0    0 0.22271764E+03 0.79726228E+02 -.44580044E+03 0.58703676E+03 0.29985781E+03 0.0000E+00 0.0000E+00
       23  2    3    3    0    0 0.14993033E+03 0.15296213E+03 -.21006395E+03 0.31400117E+03 0.92700344E+02 0.0000E+00 0.0000E+00
      -24  1    1    2    0    0 -.22271764E+03 -.79726228E+02 -.31493708E+03 0.40200995E+03 0.80419002E+02 0.0000E+00 0.9000E+01
      -11  1    4    4    0    0 0.80972574E+02 0.73984823E+02 -.16884788E+03 0.20134527E+03 0.51099893E-03 0.0000E+00 0.9000E+01
       11  1    4    4    0    0 0.68957751E+02 0.78977311E+02 -.41216074E+02 0.11265590E+03 0.51099893E-03 0.0000E+00 0.9000E+01
       23  1    3    3    0    0 0.72787317E+02 -.73235907E+02 -.23573649E+03 0.27303559E+03 0.91188000E+02 0.0000E+00 0.9000E+01
#aMCatNLO 1  0  0  1  2 0.27565782D+03 0.00000000D+00  -5  7  0 0.00000000D+00 0.00000000D+00 0.00000000D+00 0.00000000D+00 0.00000000D+00
  <mgrwgt>
 0.5756221490D-03    7    2    0
 0.316026828580388D+03 0.000000000000000D+00 0.000000000000000D+00 0.316026828580388D+03
 0.316026828580388D+03 0.000000000000000D+00 0.000000000000000D+00 -.316026828580388D+03
 0.250013847007644D+03 -.222717642185052D+03 -.797262282164537D+02 -.896036467448451D+01
 0.111843291628553D+03 0.809725742953165D+02 0.739848234914886D+02 -.218771567447034D+02
 0.126678064573326D+03 0.689577512792791D+02 0.789773114726783D+02 0.710967288635440D+02
 0.143518453951254D+03 0.727873166104568D+02 -.732359067477132D+02 -.402592074443561D+02
 0.000000000000000D+00 0.000000000000000D+00 -.000000000000000D+00 0.000000000000000D+00
 0.110942951262843D+04 0.000000000000000D+00 0.000000000000000D+00 0.110942951262843D+04
 0.369618594184905D+03 0.000000000000000D+00 0.000000000000000D+00 -.369618594184905D+03
 0.278105102109008D+03 -.265168781724152D+03 0.219194189822716D+02 -.896036467448451D+01
 0.138182526147107D+03 0.608750547942169D+02 0.122106626556321D+03 -.218771567447034D+02
 0.158395369703469D+03 0.460430420880708D+02 0.133844635916717D+03 0.710967288635440D+02
 0.114866896784847D+03 0.520178429960292D+02 -.235051666442380D+02 -.402592074443561D+02
 0.789498212068902D+03 0.106232841845835D+03 -.254365514811071D+03 0.739810918443523D+03
0.162652689445D-04 0.000000000000D+00 0.000000000000D+00 0.115147288578D-05 0.000000000000D+00  7 -2 1 -24 -11 11 23 21 0 0.17562246D-01 0.13459879D+00 0.90642436D+05 0.90642436D+05 0.90642436D+05 0.11252404D+01  1  2  2  1  7  1       -2 0.849258378037D-03 0.100000000000D+01
-.901042942941D-06 0.000000000000D+00 -.624629154905D-07 0.115147288578D-05 0.000000000000D+00  7 -2 1 -24 -11 11 23 21 2 0.17562246D-01 0.13459879D+00 0.90642436D+05 0.90642436D+05 0.90642436D+05 0.11252404D+01  1  2  3  1  7  1       -2 -.595682312814D-04 0.100000000000D+01
0.106296262827D-05 0.000000000000D+00 0.000000000000D+00 0.115147288578D-05 0.000000000000D+00  7 -2 1 -24 -11 11 23 21 2 0.17562246D-01 0.13459879D+00 0.90642436D+05 0.90642436D+05 0.90642436D+05 0.11252404D+01  1  2 15  1  7  1       -2 0.702727924130D-04 0.100000000000D+01
0.299285349340D-06 0.000000000000D+00 0.000000000000D+00 0.115147288578D-05 0.000000000000D+00  7 -2 1 -24 -11 11 23 21 2 0.58839937D-01 0.13459879D+00 0.22051556D+06 0.22051556D+06 0.22051556D+06 0.10945830D+01  1  2 12  1  7  1       -2 0.206744878594D-05 0.100000000000D+01
-.204154374402D-04 0.000000000000D+00 -.577618511064D-05 0.115147288578D-05 0.000000000000D+00  7 -2 1 -24 -11 11 23 21 2 0.68992776D-01 0.13459879D+00 0.90642436D+05 0.90642436D+05 0.90642436D+05 0.11252404D+01  1  2  5  1  7  1       -2 -.110431724045D-03 0.100000000000D+01
0.420185742570D-07 0.000000000000D+00 0.000000000000D+00 0.115147288578D-05 0.000000000000D+00  7 21 1 -24 -11 11 23 2 2 0.58839937D-01 0.13459879D+00 0.22051556D+06 0.22051556D+06 0.22051556D+06 0.10945830D+01  1  2 12  3  7  1       -2 0.296508238950D-05 0.100000000000D+01
-.324118658838D-05 0.000000000000D+00 -.940930379713D-06 0.115147288578D-05 0.000000000000D+00  7 21 1 -24 -11 11 23 2 2 0.68992776D-01 0.13459879D+00 0.90642436D+05 0.90642436D+05 0.90642436D+05 0.11252404D+01  1  2  5  3  7  1       -2 -.178941597340D-03 0.100000000000D+01
  </mgrwgt>
  </event>
  <event>
  8     66 0.26562228E-05 0.16192355E+03 0.75467711E-02 0.10145804E+00
       -2 -1    0    0    0  501 0.00000000E+00 0.00000000E+00 0.23484648E+03 0.23484670E+03 0.32000000E+00 0.0000E+00 0.9000E+01
        1 -1    0    0  501    0 0.00000000E+00 0.00000000E+00 -.67939125E+03 0.67939132E+03 0.32000000E+00 0.0000E+00 0.9000E+01
       25  2    1    2    0    0 0.58675763E+02 0.61080910E+02 -.62554904E+03 0.69882334E+03 0.29978113E+03 0.0000E+00 0.0000E+00
       23  2    3    3    0    0 0.62242099E+02 -.32407647E+02 -.84789697E+02 0.14250620E+03 0.90522876E+02 0.0000E+00 0.0000E+00
      -24  1    1    2    0    0 -.58675763E+02 -.61080910E+02 0.18100428E+03 0.21541469E+03 0.80419002E+02 0.0000E+00 0.9000E+01
      -11  1    4    4    0    0 0.35799708E+02 -.34711949E+02 -.10012279E+03 0.11185308E+03 0.51099893E-03 0.0000E+00 0.9000E+01
       11  1    4    4    0    0 0.26442391E+02 0.23043024E+01 0.15333098E+02 0.30653119E+02 0.51099893E-03 0.0000E+00 0.9000E+01
       23  1    3    3    0    0 -.35663356E+01 0.93488557E+02 -.54075935E+03 0.55631713E+03 0.91188000E+02 0.0000E+00 0.9000E+01
#aMCatNLO 1  0  0  1  1 0.19713937D+03 0.00000000D+00  -5  7  0 0.00000000D+00 0.00000000D+00 0.00000000D+00 0.00000000D+00 0.00000000D+00
  <mgrwgt>
 0.6994118285D-03    5    2    0
 0.399440582250404D+03 0.000000000000000D+00 0.000000000000000D+00 0.399440582250404D+03
 0.399440582250404D+03 0.000000000000000D+00 0.000000000000000D+00 -.399440582250404D+03
 0.347241635559062D+03 -.586757633776344D+02 -.610809103432813D+02 0.327010419856998D+03
 0.722901996930316D+02 0.357997082670343D+02 -.347119494943999D+02 -.523386513195731D+02
 0.436116123457516D+02 0.264423906949780D+02 0.230430244757916D+01 0.346043768324231D+02
 0.335737716902963D+03 -.356633558437785D+01 0.934885573901020D+02 -.309276145369848D+03
 0.000000000000000D+00 0.000000000000000D+00 -.000000000000000D+00 0.000000000000000D+00
 0.796990190555287D+03 0.000000000000000D+00 0.000000000000000D+00 0.796990190555287D+03
 0.436622035339542D+03 0.000000000000000D+00 0.000000000000000D+00 -.436622035339542D+03
 0.342970362815399D+03 -.608777772242683D+02 0.227933183309981D+02 0.327010419856998D+03
 0.656639868837924D+02 0.353595869278534D+02 -.179478233726149D+02 -.523386513195731D+02
 0.453170410769951D+02 0.261586776812074D+02 0.131108694595142D+02 0.346043768324231D+02
 0.368894309421519D+03 -.581435428356373D+01 0.179115100896082D+03 -.309276145369848D+03
 0.410766525697122D+03 0.517386689877124D+01 -.197071465313980D+03 0.360368155215745D+03
0.433219346122D-04 0.000000000000D+00 0.000000000000D+00 0.732396011473D-05 0.000000000000D+00  7 -2 1 -24 -11 11 23 21 0 0.36130251D-01 0.10452175D+00 0.26219236D+05 0.26219236D+05 0.26219236D+05 0.11728030D+01  1  2  2  1  7  1       -2 0.997745505426D-03 0.100000000000D+01
-.209671607689D-07 0.000000000000D+00 -.166367635838D-06 0.732396011473D-05 0.000000000000D+00  7 -2 1 -24 -11 11 23 21 2 0.36130251D-01 0.10452175D+00 0.26219236D+05 0.26219236D+05 0.26219236D+05 0.11728030D+01  1  2  3  1  7  1       -2 -.664204298038D-06 0.100000000000D+01
0.264034219961D-05 0.000000000000D+00 0.000000000000D+00 0.732396011473D-05 0.000000000000D+00  7 -2 1 -24 -11 11 23 21 2 0.36130251D-01 0.10452175D+00 0.26219236D+05 0.26219236D+05 0.26219236D+05 0.11728030D+01  1  2 15  1  7  1       -2 0.836415887018D-04 0.100000000000D+01
-.329537091280D-04 0.000000000000D+00 -.132032324197D-04 0.732396011473D-05 0.000000000000D+00  7 -2 1 -24 -11 11 23 21 2 0.76426413D-01 0.10452175D+00 0.26219236D+05 0.26219236D+05 0.26219236D+05 0.11728030D+01  1  2  5  1  7  1       -2 -.240271676786D-03 0.100000000000D+01
-.185008329059D-05 0.000000000000D+00 -.107001621541D-05 0.732396011473D-05 0.000000000000D+00  7 21 1 -24 -11 11 23 2 2 0.76426413D-01 0.10452175D+00 0.26219236D+05 0.26219236D+05 0.26219236D+05 0.11728030D+01  1  2  5  3  7  1       -2 -.141039384591D-03 0.100000000000D+01
  </mgrwgt>
  </event>
  <event>
  8     66 0.26562228E-05 0.20930174E+03 0.75467711E-02 0.10059298E+00
       -2 -1    0    0    0  501 0.00000000E+00 0.00000000E+00 0.22638311E+03 0.22638333E+03 0.32000000E+00 0.0000E+00 0.9000E+01
        1 -1    0    0  501    0 0.00000000E+00 0.00000000E+00 -.46213280E+03 0.46213291E+03 0.32000000E+00 0.0000E+00 0.9000E+01
       25  2    1    2    0    0 -.43664514E+02 0.12800071E+03 0.76731439E+02 0.33865564E+03 0.30084739E+03 0.0000E+00 0.0000E+00
       23  2    3    3    0    0 -.50812909E+02 -.26135375E+02 0.11288935E+03 0.15581232E+03 0.90931088E+02 0.0000E+00 0.0000E+00
      -24  1    1    2    0    0 0.43664514E+02 -.12800071E+03 -.31248113E+03 0.34986061E+03 0.80419002E+02 0.0000E+00 0.9000E+01
      -13  1    4    4    0    0 0.11539379E+02 0.47048498E+01 0.76113289E+02 0.77126758E+02 0.10565837E+00 0.0000E+00 0.9000E+01
       13  1    4    4    0    0 -.62352288E+02 -.30840225E+02 0.36776065E+02 0.78685561E+02 0.10565837E+00 0.0000E+00 0.9000E+01
       23  1    3    3    0    0 0.71483949E+01 0.15413609E+03 -.36157916E+02 0.18284332E+03 0.91188000E+02 0.0000E+00 0.9000E+01
#aMCatNLO 1  0  0  2  1 0.16858486D+03 0.00000000D+00  -5  7  0 0.00000000D+00 0.00000000D+00 0.00000000D+00 0.00000000D+00 0.00000000D+00
  <mgrwgt>
 0.1281652372D-02    3    2    0
 0.323448876042487D+03 0.000000000000000D+00 0.000000000000000D+00 0.323448876042487D+03
 0.323448876042487D+03 0.000000000000000D+00 0.000000000000000D+00 -.323448876042487D+03
 0.258491209253464D+03 0.436645146329004D+02 -.128000710961107D+03 -.205084659256298D+03
 0.109826817892643D+03 0.115394782366136D+02 0.470489830380409D+01 0.109117525184552D+03
 0.971501618209996D+02 -.623523874110073D+02 -.308402725401207D+02 0.678174853238097D+02
 0.181429563117868D+03 0.714839454149324D+01 0.154136085197423D+03 0.281496487479357D+02
 0.000000000000000D+00 0.000000000000000D+00 -.000000000000000D+00 0.000000000000000D+00
 0.959773097508923D+03 0.000000000000000D+00 0.000000000000000D+00 0.959773097508923D+03
 0.345610855166257D+03 0.000000000000000D+00 0.000000000000000D+00 -.345610855166257D+03
 0.242807106465184D+03 -.146622371080800D+02 -.101061250419433D+03 -.205084659256298D+03
 0.111279014263646D+03 -.141864908645889D+02 0.165869885764777D+02 0.109117525184552D+03
 0.111776803911301D+03 -.866613285747028D+02 -.196126669947715D+02 0.678174853238097D+02
 0.202641043888960D+03 -.375387513025549D+02 0.174775801386863D+03 0.281496487479357D+02
 0.636879984146089D+03 0.153048807849927D+03 -.706888725491360D+02 0.614162242342665D+03
0.298750797216D-04 0.000000000000D+00 0.000000000000D+00 0.139020550899D-05 0.000000000000D+00  7 -2 1 -24 -13 13 23 21 0 0.34828196D-01 0.71097380D-01 0.43807217D+05 0.43807217D+05 0.43807217D+05 0.11523809D+01  1  2  2  2  7  2        1 0.124845304471D-02 0.100000000000D+01
-.127740943821D-05 0.000000000000D+00 -.114728172420D-06 0.139020550899D-05 0.000000000000D+00  7 -2 1 -24 -13 13 23 21 2 0.34828196D-01 0.71097380D-01 0.43807217D+05 0.43807217D+05 0.43807217D+05 0.11523809D+01  1  2  3  2  7  2        1 -.708900656890D-04 0.100000000000D+01
0.187564748604D-05 0.000000000000D+00 0.000000000000D+00 0.139020550899D-05 0.000000000000D+00  7 -2 1 -24 -13 13 23 21 2 0.34828196D-01 0.71097380D-01 0.43807217D+05 0.43807217D+05 0.43807217D+05 0.11523809D+01  1  2 15  2  7  2        1 0.104089393360D-03 0.100000000000D+01
  </mgrwgt>
  </event>
  <event>
  8     66 0.26562228E-05 0.11671487E+03 0.75467711E-02 0.10036654E+00
       -2 -1    0    0    0  501 0.00000000E+00 0.00000000E+00 0.44046679E+02 0.44047841E+02 0.32000000E+00 0.0000E+00 0.9000E+01
        1 -1    0    0  501    0 0.00000000E+00 0.00000000E+00 -.11291985E+04 0.11291985E+04 0.32000000E+00 0.0000E+00 0.9000E+01
       25  2    1    2    0    0 -.72917880E+02 0.12451631E+02 -.95234679E+03 0.10012683E+04 0.30016957E+03 0.0000E+00 0.0000E+00
       23  2    3    3    0    0 -.98775224E+01 0.11066270E+03 -.35150074E+03 0.38243819E+03 0.10179587E+03 0.0000E+00 0.0000E+00
      -24  1    1    2    0    0 0.72917880E+02 -.12451631E+02 -.13280498E+03 0.17197802E+03 0.80419002E+02 0.0000E+00 0.9000E+01
      -11  1    4    4    0    0 -.49844001E+02 0.71912238E+02 -.15271286E+03 0.17600287E+03 0.51099893E-03 0.0000E+00 0.9000E+01
       11  1    4    4    0    0 0.39966479E+02 0.38750460E+02 -.19878789E+03 0.20643532E+03 0.51099893E-03 0.0000E+00 0.9000E+01
       23  1    3    3    0    0 -.63040358E+02 -.98211066E+02 -.60084605E+03 0.61883013E+03 0.91188000E+02 0.0000E+00 0.9000E+01
#aMCatNLO 1  0  0  2  1 0.18373780D+03 0.00000000D+00  -5  7  0 0.00000000D+00 0.00000000D+00 0.00000000D+00 0.00000000D+00 0.00000000D+00
  <mgrwgt>
 0.5686189704D-03    7    2    0
 0.223020514589030D+03 0.000000000000000D+00 0.000000000000000D+00 0.223020514589030D+03
 0.223020514589030D+03 0.000000000000000D+00 0.000000000000000D+00 -.223020514589030D+03
 0.129268424535993D+03 0.729178802165196D+02 -.124516310873785D+02 0.690727823070738D+02
 0.914223017970898D+02 -.498439996759393D+02 0.719122380236592D+02 0.264998676338530D+02
 0.593767249166374D+02 0.399664777185909D+02 0.387504600806787D+02 -.206561846460362D+02
 0.165973577928340D+03 -.630403582591712D+02 -.982110670169593D+02 -.749164652948905D+02
 0.000000000000000D+00 -.000000000000000D+00 -.000000000000000D+00 -.000000000000000D+00
 0.287193001702940D+03 0.000000000000000D+00 0.000000000000000D+00 0.287193001702940D+03
 0.424710134083874D+03 0.000000000000000D+00 0.000000000000000D+00 -.424710134083874D+03
 0.155261083587209D+03 0.109237158688682D+03 0.305774758324963D+02 0.690727823070738D+02
 0.108268551281196D+03 -.243541032179820D+02 0.102111281787886D+03 0.264998676338530D+02
 0.870343238338284D+02 0.586553781635564D+02 0.608920534517498D+02 -.206561846460362D+02
 0.131838546798692D+03 -.250255964100628D+02 -.531732435537921D+02 -.749164652948905D+02
 0.229500630285890D+03 -.118512837224194D+03 -.140407567518340D+03 -.137517132380933D+03
0.409459720638D-05 0.000000000000D+00 0.000000000000D+00 0.158491027687D-07 0.000000000000D+00  7 -2 1 -24 -11 11 23 21 0 0.67765050D-02 0.17372293D+00 0.40107305D+05 0.40107305D+05 0.40107305D+05 0.11558137D+01  1  2  2  2  7  2        1 0.603901621122D-03 0.100000000000D+01
-.224275041021D-06 0.000000000000D+00 -.157243314047D-07 0.158491027687D-07 0.000000000000D+00  7 -2 1 -24 -11 11 23 21 2 0.67765050D-02 0.17372293D+00 0.40107305D+05 0.40107305D+05 0.40107305D+05 0.11558137D+01  1  2  3  2  7  2        1 -.441887379967D-04 0.100000000000D+01
0.265316326024D-06 0.000000000000D+00 0.000000000000D+00 0.158491027687D-07 0.000000000000D+00  7 -2 1 -24 -11 11 23 21 2 0.67765050D-02 0.17372293D+00 0.40107305D+05 0.40107305D+05 0.40107305D+05 0.11558137D+01  1  2 15  2  7  2        1 0.522750706612D-04 0.100000000000D+01
0.212610120685D-07 0.000000000000D+00 0.000000000000D+00 0.158491027687D-07 0.000000000000D+00  7 -2 1 -24 -11 11 23 21 2 0.67765050D-02 0.33686904D+00 0.96346814D+05 0.96346814D+05 0.96346814D+05 0.11230508D+01  1  2 12  2  7  2        1 0.779957899636D-06 0.100000000000D+01
-.147577836592D-05 0.000000000000D+00 -.117967336460D-05 0.158491027687D-07 0.000000000000D+00  7 -2 1 -24 -11 11 23 21 2 0.67765050D-02 0.36674097D+00 0.40107305D+05 0.40107305D+05 0.40107305D+05 0.11558137D+01  1  2  5  2  7  2        1 -.436088627332D-04 0.100000000000D+01
0.152655987551D-08 0.000000000000D+00 0.000000000000D+00 0.158491027687D-07 0.000000000000D+00  7 -2 21 -24 -11 11 23 -1 2 0.67765050D-02 0.33686904D+00 0.96346814D+05 0.96346814D+05 0.96346814D+05 0.11230508D+01  1  2 12  4  7  2        1 0.257512236032D-07 0.100000000000D+01
-.460273572227D-07 0.000000000000D+00 -.953418804895D-07 0.158491027687D-07 0.000000000000D+00  7 -2 21 -24 -11 11 23 -1 2 0.67765050D-02 0.36674097D+00 0.40107305D+05 0.40107305D+05 0.40107305D+05 0.11558137D+01  1  2  5  4  7  2        1 -.565829736893D-06 0.100000000000D+01
  </mgrwgt>
  </event>
  <event>
  8     66 0.26562228E-05 0.82231543E+02 0.75467711E-02 0.10102843E+00
       -2 -1    0    0    0  501 0.00000000E+00 0.00000000E+00 0.82749174E+02 0.82749793E+02 0.32000000E+00 0.0000E+00 0.9000E+01
        1 -1    0    0  501    0 0.00000000E+00 0.00000000E+00 -.85554246E+03 0.85554252E+03 0.32000000E+00 0.0000E+00 0.9000E+01
       25  2    1    2    0    0 -.47720743E+02 -.16153062E+03 -.50338743E+03 0.61054829E+03 0.30166357E+03 0.0000E+00 0.0000E+00
       23  2    3    3    0    0 0.90473742E+02 -.72881932E+02 -.23056634E+03 0.27933401E+03 0.10662729E+03 0.0000E+00 0.0000E+00
      -24  1    1    2    0    0 0.47720743E+02 0.16153062E+03 -.26940586E+03 0.32774402E+03 0.80419002E+02 0.0000E+00 0.9000E+01
      -11  1    4    4    0    0 0.81159797E+02 -.39648455E+02 -.67780790E+02 0.11292984E+03 0.51099893E-03 0.0000E+00 0.9000E+01
       11  1    4    4    0    0 0.93139450E+01 -.33233477E+02 -.16278555E+03 0.16640417E+03 0.51099893E-03 0.0000E+00 0.9000E+01
       23  1    3    3    0    0 -.13819448E+03 -.88648685E+02 -.27282109E+03 0.33121429E+03 0.91188000E+02 0.0000E+00 0.9000E+01
#aMCatNLO 1  0  0  1  2 0.80890556D+02 0.00000000D+00  -5  7  0 0.00000000D+00 0.00000000D+00 0.00000000D+00 0.00000000D+00 0.00000000D+00
  <mgrwgt>
 0.9994972149D-03    9    2    0
 0.266074708959890D+03 0.000000000000000D+00 0.000000000000000D+00 0.266074708959890D+03
 0.266074708959890D+03 0.000000000000000D+00 0.000000000000000D+00 -.266074708959890D+03
 0.186648058139566D+03 0.477207429501327D+02 0.161530617307565D+03 0.933818732168089D+00
 0.100687244587649D+03 0.811597969202805D+02 -.396484552254395D+02 0.444860493272696D+02
 0.570068760682984D+02 0.931394577568208D+01 -.332334761458314D+02 -.453714711731771D+02
 0.187807239124266D+03 -.138194485646095D+03 -.886486859362942D+02 -.483968862606448D-01
 0.000000000000000D+00 0.000000000000000D+00 0.000000000000000D+00 0.000000000000000D+00
 0.347322697268283D+03 0.000000000000000D+00 0.000000000000000D+00 0.347322697268283D+03
 0.290051821417658D+03 0.000000000000000D+00 0.000000000000000D+00 -.290051821417658D+03
 0.163271499738787D+03 0.422846356364217D+02 0.135652144267065D+03 0.933818732168089D+00
 0.105205808006487D+03 0.779611853998625D+02 -.548753772159959D+02 0.444860493272696D+02
 0.623144980233633D+02 0.746025174864736D+01 -.420579470651162D+02 -.453714711731771D+02
 0.207470477022660D+03 -.144335245816009D+03 -.117881643884803D+03 -.483968862606448D-01
 0.991122358946443D+02 0.166291730310778D+02 0.791628238988507D+02 0.572708758506244D+02
0.884101524724D-05 0.000000000000D+00 0.000000000000D+00 0.133099926424D-08 0.000000000000D+00  7 -2 1 -24 -11 11 23 21 0 0.12730694D-01 0.13162197D+00 0.62323529D+05 0.62323529D+05 0.62323529D+05 0.11389731D+01  1  2  2  1  7  1       -2 0.801171983698D-03 0.100000000000D+01
-.488742028172D-06 0.000000000000D+00 -.339518264422D-07 0.133099926424D-08 0.000000000000D+00  7 -2 1 -24 -11 11 23 21 2 0.12730694D-01 0.13162197D+00 0.62323529D+05 0.62323529D+05 0.62323529D+05 0.11389731D+01  1  2  3  1  7  1       -2 -.574553232940D-04 0.100000000000D+01
0.575621991345D-06 0.000000000000D+00 0.000000000000D+00 0.133099926424D-08 0.000000000000D+00  7 -2 1 -24 -11 11 23 21 2 0.12730694D-01 0.13162197D+00 0.62323529D+05 0.62323529D+05 0.62323529D+05 0.11389731D+01  1  2 15  1  7  1       -2 0.676687203095D-04 0.100000000000D+01
0.803100164186D-05 0.000000000000D+00 0.000000000000D+00 0.133099926424D-08 0.000000000000D+00  7 -2 1 -24 -11 11 23 21 2 0.17058604D-01 0.13162197D+00 0.86931188D+05 0.86931188D+05 0.86931188D+05 0.11267478D+01  1  2 12  1  7  1       -2 0.578879197951D-03 0.100000000000D+01
-.877549936853D-05 0.000000000000D+00 0.000000000000D+00 0.133099926424D-08 0.000000000000D+00  7 -2 1 -24 -11 11 23 21 2 0.12730694D-01 0.13162197D+00 0.62323529D+05 0.62323529D+05 0.62323529D+05 0.11389731D+01  1  2  4  1  7  1       -2 -.103162634728D-02 0.100000000000D+01
-.132403111468D-04 0.000000000000D+00 -.404565277826D-05 0.133099926424D-08 0.000000000000D+00  7 -2 1 -24 -11 11 23 21 2 0.18061146D-01 0.13162197D+00 0.62323529D+05 0.62323529D+05 0.62323529D+05 0.11389731D+01  1  2  5  1  7  1       -2 -.891786309021D-03 0.100000000000D+01
0.140241721885D-04 0.000000000000D+00 0.381022830572D-05 0.133099926424D-08 0.000000000000D+00  7 -2 1 -24 -11 11 23 21 2 0.12730694D-01 0.13162197D+00 0.62323529D+05 0.62323529D+05 0.62323529D+05 0.11389731D+01  1  2  6  1  7  1       -2 0.164864754938D-02 0.100000000000D+01
0.304912622458D-06 0.000000000000D+00 0.000000000000D+00 0.133099926424D-08 0.000000000000D+00  7 21 1 -24 -11 11 23 2 2 0.17058604D-01 0.13162197D+00 0.86931188D+05 0.86931188D+05 0.86931188D+05 0.11267478D+01  1  2 12  3  7  1       -2 0.291655679352D-03 0.100000000000D+01
-.457373587976D-06 0.000000000000D+00 -.174675801516D-06 0.133099926424D-08 0.000000000000D+00  7 21 1 -24 -11 11 23 2 2 0.18061146D-01 0.13162197D+00 0.62323529D+05 0.62323529D+05 0.62323529D+05 0.11389731D+01  1  2  5  3  7  1       -2 -.407657936168D-03 0.100000000000D+01
  </mgrwgt>
  </event>
  <event>
  9     66 -.26562228E-05 0.43531532E+03 0.75467711E-02 0.95758421E-01
       -2 -1    0    0    0  502 0.00000000E+00 0.00000000E+00 0.50519389E+03 0.50519399E+03 0.32000000E+00 0.0000E+00 0.9000E+01
        1 -1    0    0  501    0 0.00000000E+00 0.00000000E+00 -.86648533E+03 0.86648538E+03 0.32000000E+00 0.0000E+00 0.9000E+01
       25  2    1    2    0    0 0.39330638E+03 -.69789069E+01 0.29058413E+03 0.57396766E+03 0.30043490E+03 0.0000E+00 0.0000E+00
       23  2    3    3    0    0 -.38493966E+01 0.20243572E+02 0.75033744E+02 0.11217659E+03 0.80801639E+02 0.0000E+00 0.0000E+00
      -24  1    1    2    0    0 -.36919347E+03 0.33355764E+02 -.65983103E+03 0.76109173E+03 0.80419002E+02 0.0000E+00 0.9000E+01
      -11  1    4    4    0    0 0.30249717E+02 0.34262738E+02 0.49227297E+02 0.67173710E+02 0.51099893E-03 0.0000E+00 0.9000E+01
       11  1    4    4    0    0 -.34099114E+02 -.14019166E+02 0.25806448E+02 0.45002881E+02 0.51099893E-03 0.0000E+00 0.9000E+01
       23  1    3    3    0    0 0.39715577E+03 -.27222479E+02 0.21555039E+03 0.46179107E+03 0.91188000E+02 0.0000E+00 0.9000E+01
       21  1    1    2  501  502 -.24112906E+02 -.26376857E+02 0.79554536E+01 0.36619975E+02 0.75000000E+00 0.0000E+00 0.9000E+01
#aMCatNLO 2  0  0  1  2 0.35737527D+02 0.00000000D+00  -5  7  0 0.00000000D+00 0.00000000D+00 0.00000000D+00 0.00000000D+00 0.00000000D+00
  <mgrwgt>
 -.3587383547D-03    3    2    0
 0.641241598879531D+03 0.000000000000000D+00 0.000000000000000D+00 0.641241598879531D+03
 0.641241598879531D+03 0.000000000000000D+00 0.000000000000000D+00 -.641241598879531D+03
 0.608572979091944D+03 -.380572485245035D+03 0.209083790451439D+02 -.467569543583193D+03
 0.828274148469260D+02 0.286810579894466D+02 0.325467984407920D+02 0.705583692703087D+02
 0.552073354039641D+02 -.351279718217387D+02 -.151446233906465D+02 0.398059776974816D+02
 0.535875468416228D+03 0.387019399077327D+03 -.383105540952894D+02 0.357205196615402D+03
 0.000000000000000D+00 -.000000000000000D+00 -.000000000000000D+00 0.000000000000000D+00
 0.671093861184451D+03 0.000000000000000D+00 0.000000000000000D+00 0.671093861184451D+03
 0.652276211700061D+03 0.000000000000000D+00 0.000000000000000D+00 -.652276211700061D+03
 0.602083814896271D+03 -.369193471105532D+03 0.333557643013848D+02 -.467569543583193D+03
 0.840682108932418D+02 0.302497169971431D+02 0.342627382195015D+02 0.705583692703087D+02
 0.542568191938251D+02 -.340991136274740D+02 -.140191661092820D+02 0.398059776974816D+02
 0.542572185034594D+03 0.397155773942829D+03 -.272224790207922D+02 0.357205196615402D+03
 0.403890428665816D+02 -.241129062069661D+02 -.263768573908121D+02 0.188176494843905D+02
-.963387793349D-03 0.000000000000D+00 0.000000000000D+00 0.230448467318D-06 0.000000000000D+00  7 -2 1 -24 -11 11 23 21 2 0.78339811D-01 0.13104961D+00 0.20522236D+06 0.20522236D+06 0.20522236D+06 0.10969666D+01  1  2 13  1  7  1       -2 -.379376889363D-02 0.100000000000D+01
-.394987346822D-03 0.000000000000D+00 0.000000000000D+00 0.230448467318D-06 0.000000000000D+00  7 -2 1 -24 -11 11 23 21 2 0.74264442D-01 0.13104961D+00 0.18949943D+06 0.18949943D+06 0.18949943D+06 0.10996288D+01  1  2  8  1  7  1       -2 -.176474153971D-02 0.100000000000D+01
0.133401725418D-02 0.000000000000D+00 0.000000000000D+00 0.230448467318D-06 0.115878038935D-08  7 -2 1 -24 -11 11 23 21 2 0.77721737D-01 0.13330474D+00 0.20522236D+06 0.20522236D+06 0.20522236D+06 0.10969666D+01  1  2  1  1  7  1       -2 0.519977207865D-02 0.100000000000D+01
  </mgrwgt>
  </event>
  <event>
  8     66 0.26562228E-05 0.11499381E+03 0.75467711E-02 0.10202505E+00
       -2 -1    0    0    0  501 0.00000000E+00 0.00000000E+00 0.45330897E+03 0.45330908E+03 0.32000000E+00 0.0000E+00 0.9000E+01
        1 -1    0    0  501    0 0.00000000E+00 0.00000000E+00 -.15742967E+03 0.15742999E+03 0.32000000E+00 0.0000E+00 0.9000E+01
       25  2    1    2    0    0 -.13684556E+02 0.12130495E+03 0.53920455E+02 0.32804939E+03 0.29967788E+03 0.0000E+00 0.0000E+00
       23  2    3    3    0    0 0.92448894E+02 0.10835546E+03 0.67294194E+02 0.18688953E+03 0.10055587E+03 0.0000E+00 0.0000E+00
      -24  1    1    2    0    0 0.13684556E+02 -.12130495E+03 0.24195885E+03 0.28268968E+03 0.80419002E+02 0.0000E+00 0.9000E+01
      -13  1    4    4    0    0 0.30085280E+02 0.98462552E+02 0.68626472E+02 0.12373198E+03 0.10565837E+00 0.0000E+00 0.9000E+01
       13  1    4    4    0    0 0.62363614E+02 0.98929130E+01 -.13322782E+01 0.63157551E+02 0.10565837E+00 0.0000E+00 0.9000E+01
       23  1    3    3    0    0 -.10613345E+03 0.12949482E+02 -.13373739E+02 0.14115986E+03 0.91188000E+02 0.0000E+00 0.9000E+01
#aMCatNLO 1  0  0  1  2 0.85078900D+02 0.00000000D+00  -5  7  0 0.00000000D+00 0.00000000D+00 0.00000000D+00 0.00000000D+00 0.00000000D+00
  <mgrwgt>
 0.7842392140D-03    9    2    0
 0.267141185342570D+03 0.000000000000000D+00 0.000000000000000D+00 0.267141185342570D+03
 0.267141185342570D+03 0.000000000000000D+00 0.000000000000000D+00 -.267141185342570D+03
 0.189149081416735D+03 0.136845560391442D+02 -.121304946592127D+03 0.120033336639106D+03
 0.103433697409312D+03 0.300853146927212D+02 0.984625969990527D+02 0.992575396648675D+01
 0.729332382547180D+02 0.623636394510698D+02 0.989287336625666D+01 -.364988324922269D+02
 0.168766353604375D+03 -.106133510182935D+03 0.129494762268176D+02 -.934602581133656D+02
 0.000000000000000D+00 0.000000000000000D+00 0.000000000000000D+00 0.000000000000000D+00
 0.348122886120340D+03 0.000000000000000D+00 0.000000000000000D+00 0.348122886120340D+03
 0.293821830163456D+03 0.000000000000000D+00 0.000000000000000D+00 -.293821830163456D+03
 0.189794022310839D+03 -.162901436867391D+02 -.121988459554605D+03 0.120033336639106D+03
 0.995899182413682D+02 0.140259858474938D+02 0.980963961852069D+02 0.992575396648675D+01
 0.638880505313021D+02 0.515409671102171D+02 0.964608401052434D+01 -.364988324922269D+02
 0.187741937446521D+03 -.134333598451914D+03 0.123064297225614D+02 -.934602581133656D+02
 0.100930787753765D+03 0.850567891809422D+02 0.193954963631197D+01 0.543010559568838D+02
0.136026866938D-04 0.000000000000D+00 0.000000000000D+00 0.323584932896D-07 0.000000000000D+00  7 -2 1 -24 -13 13 23 21 0 0.69739875D-01 0.24219982D-01 0.51258635D+05 0.51258635D+05 0.51258635D+05 0.11463469D+01  1  2  2  1  7  1       -2 0.597704088134D-03 0.100000000000D+01
-.730550805399D-06 0.000000000000D+00 -.522378985737D-07 0.323584932896D-07 0.000000000000D+00  7 -2 1 -24 -13 13 23 21 2 0.69739875D-01 0.24219982D-01 0.51258635D+05 0.51258635D+05 0.51258635D+05 0.11463469D+01  1  2  3  1  7  1       -2 -.421836421286D-04 0.100000000000D+01
0.881503581868D-06 0.000000000000D+00 0.000000000000D+00 0.323584932896D-07 0.000000000000D+00  7 -2 1 -24 -13 13 23 21 2 0.69739875D-01 0.24219982D-01 0.51258635D+05 0.51258635D+05 0.51258635D+05 0.11463469D+01  1  2 15  1  7  1       -2 0.508999940289D-04 0.100000000000D+01
0.104147974447D-04 0.000000000000D+00 0.000000000000D+00 0.323584932896D-07 0.000000000000D+00  7 -2 1 -24 -13 13 23 21 2 0.93554732D-01 0.24219982D-01 0.74652103D+05 0.74652103D+05 0.74652103D+05 0.11322917D+01  1  2 12  1  7  1       -2 0.304219354467D-03 0.100000000000D+01
-.121871037167D-04 0.000000000000D+00 0.000000000000D+00 0.323584932896D-07 0.000000000000D+00  7 -2 1 -24 -13 13 23 21 2 0.69739875D-01 0.24219982D-01 0.51258635D+05 0.51258635D+05 0.51258635D+05 0.11463469D+01  1  2  4  1  7  1       -2 -.703710704266D-03 0.100000000000D+01
-.181488733988D-04 0.000000000000D+00 -.604525791041D-05 0.323584932896D-07 0.000000000000D+00  7 -2 1 -24 -13 13 23 21 2 0.97537713D-01 0.24219982D-01 0.51258635D+05 0.51258635D+05 0.51258635D+05 0.11463469D+01  1  2  5  1  7  1       -2 -.495204064155D-03 0.100000000000D+01
0.193998777896D-04 0.000000000000D+00 0.572034955002D-05 0.323584932896D-07 0.000000000000D+00  7 -2 1 -24 -13 13 23 21 2 0.69739875D-01 0.24219982D-01 0.51258635D+05 0.51258635D+05 0.51258635D+05 0.11463469D+01  1  2  6  1  7  1       -2 0.112019245748D-02 0.100000000000D+01
0.396528119328D-06 0.000000000000D+00 0.000000000000D+00 0.323584932896D-07 0.000000000000D+00  7 21 1 -24 -13 13 23 2 2 0.93554732D-01 0.24219982D-01 0.74652103D+05 0.74652103D+05 0.74652103D+05 0.11322917D+01  1  2 12  3  7  1       -2 0.113008255524D-03 0.100000000000D+01
-.599781245294D-06 0.000000000000D+00 -.253284173290D-06 0.323584932896D-07 0.000000000000D+00  7 21 1 -24 -13 13 23 2 2 0.97537713D-01 0.24219982D-01 0.51258635D+05 0.51258635D+05 0.51258635D+05 0.11463469D+01  1  2  5  3  7  1       -2 -.160686525124D-03 0.100000000000D+01
  </mgrwgt>
  </event>
  <event>
  9     66 -.26562228E-05 0.33929154E+03 0.75467711E-02 0.98976442E-01
       -2 -1    0    0    0  501 0.00000000E+00 0.00000000E+00 0.68719653E+02 0.68720398E+02 0.32000000E+00 0.0000E+00 0.9000E+01
        1 -1    0    0  502    0 0.00000000E+00 0.00000000E+00 -.26273618E+04 0.26273618E+04 0.32000000E+00 0.0000E+00 0.9000E+01
       25  2    1    2    0    0 -.24298106E+03 -.12278854E+03 -.66666294E+03 0.77887960E+03 0.29681163E+03 0.0000E+00 0.0000E+00
       23  2    3    3    0    0 -.97308032E+02 0.57078585E+02 -.33134998E+03 0.36135973E+03 0.89784340E+02 0.0000E+00 0.0000E+00
      -24  1    1    2    0    0 0.24840400E+03 0.13608058E+03 -.18330285E+04 0.18565245E+04 0.80419002E+02 0.0000E+00 0.9000E+01
      -11  1    4    4    0    0 -.47037325E+02 0.69410937E+02 -.14052133E+03 0.16363567E+03 0.51099893E-03 0.0000E+00 0.9000E+01
       11  1    4    4    0    0 -.50270707E+02 -.12332352E+02 -.19082865E+03 0.19772406E+03 0.51099893E-03 0.0000E+00 0.9000E+01
       23  1    3    3    0    0 -.14567303E+03 -.17986712E+03 -.33531296E+03 0.41751987E+03 0.91188000E+02 0.0000E+00 0.9000E+01
       21  1    1    2  502  501 -.54229417E+01 -.13292036E+02 -.58950658E+02 0.60678077E+02 0.75000000E+00 0.0000E+00 0.9000E+01
#aMCatNLO 2  0  0  2  1 0.14355713D+02 0.00000000D+00  -5  7  0 0.00000000D+00 0.00000000D+00 0.00000000D+00 0.00000000D+00 0.00000000D+00
  <mgrwgt>
 -.4957183387D-03    3    2    0
 0.417340194431921D+03 0.000000000000000D+00 0.000000000000000D+00 0.417340194431921D+03
 0.417340194431921D+03 0.000000000000000D+00 0.000000000000000D+00 -.417340194431921D+03
 0.368441281538603D+03 0.245998301601922D+03 0.130184027322945D+03 -.227637247888799D+03
 0.950287267236164D+02 -.476572350506569D+02 0.678914897829803D+02 0.463680112263367D+02
 0.533217218855834D+02 -.506153902210801D+02 -.131771955076967D+02 -.103754429381706D+02
 0.317888658716038D+03 -.147725676330185D+03 -.184898321598228D+03 0.191644679600633D+03
 0.000000000000000D+00 -.000000000000000D+00 -.000000000000000D+00 -.000000000000000D+00
 0.422705495956891D+03 0.000000000000000D+00 0.000000000000000D+00 0.422705495956891D+03
 0.427116416071985D+03 0.000000000000000D+00 0.000000000000000D+00 -.427116416071985D+03
 0.372167170870383D+03 0.248404000554140D+03 0.136080575401511D+03 -.227637247888799D+03
 0.958143020880558D+02 -.470373246608186D+02 0.694109365178735D+02 0.463680112263367D+02
 0.527909152885871D+02 -.502707073333319D+02 -.123323519674891D+02 -.103754429381706D+02
 0.314031443837405D+03 -.145673026885456D+03 -.179867124270682D+03 0.191644679600633D+03
 0.150180799444462D+02 -.542294167453313D+01 -.132920356812134D+02 -.441092011509362D+01
-.114006603680D-03 0.000000000000D+00 0.000000000000D+00 0.109211066664D-06 0.000000000000D+00  7 -2 1 -24 -11 11 23 21 2 0.10437891D-01 0.40669306D+00 0.12012070D+06 0.12012070D+06 0.12012070D+06 0.11152465D+01  1  2 13  2  7  2        1 -.104181813519D-02 0.100000000000D+01
-.349412074614D-03 0.000000000000D+00 0.000000000000D+00 0.109211066664D-06 0.000000000000D+00  7 -2 1 -24 -11 11 23 21 2 0.10437891D-01 0.39494894D+00 0.11511875D+06 0.11511875D+06 0.11511875D+06 0.11167386D+01  1  2  8  2  7  2        1 -.362326670648D-02 0.100000000000D+01
0.453455406275D-03 0.000000000000D+00 0.000000000000D+00 0.109211066664D-06 0.351613811937D-08  7 -2 1 -24 -11 11 23 21 2 0.10572080D-01 0.40420065D+00 0.12012070D+06 0.12012070D+06 0.12012070D+06 0.11152465D+01  1  2  1  2  7  2        1 0.416936650294D-02 0.100000000000D+01
  </mgrwgt>
  </event>
  <event>
  8     66 0.26562228E-05 0.63278937E+02 0.75467711E-02 0.10601890E+00
       -2 -1    0    0    0  501 0.00000000E+00 0.00000000E+00 0.16804599E+03 0.16804630E+03 0.32000000E+00 0.0000E+00 0.9000E+01
        1 -1    0    0  501    0 0.00000000E+00 0.00000000E+00 -.35606646E+03 0.35606660E+03 0.32000000E+00 0.0000E+00 0.9000E+01
       25  2    1    2    0    0 0.98473971E+02 0.34153555E+02 -.29599988E+02 0.31813268E+03 0.29911311E+03 0.0000E+00 0.0000E+00
       23  2    3    3    0    0 0.12513348E+03 -.29157410E+02 0.63192824E+02 0.17101108E+03 0.93503542E+02 0.0000E+00 0.0000E+00
      -24  1    1    2    0    0 -.98473971E+02 -.34153555E+02 -.15842047E+03 0.20598022E+03 0.80419002E+02 0.0000E+00 0.9000E+01
      -13  1    4    4    0    0 -.57720848E+01 0.18426778E+02 0.42798047E+01 0.19778549E+02 0.10565837E+00 0.0000E+00 0.9000E+01
       13  1    4    4    0    0 0.13090557E+03 -.47584188E+02 0.58913019E+02 0.15123253E+03 0.10565837E+00 0.0000E+00 0.9000E+01
       23  1    3    3    0    0 -.26659512E+02 0.63310965E+02 -.92792813E+02 0.14712160E+03 0.91188000E+02 0.0000E+00 0.9000E+01
#aMCatNLO 1  0  0  2  1 0.44294112D+01 0.00000000D+00  -5  7  0 0.00000000D+00 0.00000000D+00 0.00000000D+00 0.00000000D+00 0.00000000D+00
  <mgrwgt>
 0.1149158581D-02   11    2    0
 0.244613284029648D+03 0.000000000000000D+00 0.000000000000000D+00 0.244613284029648D+03
 0.244613284029648D+03 0.000000000000000D+00 0.000000000000000D+00 -.244613284029648D+03
 0.159784044699769D+03 -.984739727451695D+02 -.341535554202548D+02 -.905546041357725D+02
 0.228335520281995D+02 -.577225579421347D+01 0.184268577140621D+02 0.121861838184221D+02
 0.184658559056442D+03 0.130905741662362D+03 -.475842698143214D+02 0.121236164154374D+03
 0.121950412274885D+03 -.266595131229785D+02 0.633109675205141D+02 -.428677438370238D+02
 0.000000000000000D+00 0.000000000000000D+00 -.000000000000000D+00 -.000000000000000D+00
 0.246290171253310D+03 0.000000000000000D+00 0.000000000000000D+00 0.246290171253310D+03
 0.247565918196359D+03 0.000000000000000D+00 0.000000000000000D+00 -.247565918196359D+03
 0.159673588136745D+03 -.987747806847149D+02 -.327390464826359D+02 -.905546041357725D+02
 0.230085445434162D+02 -.581542166410272D+01 0.186298394200992D+02 0.121861838184221D+02
 0.183998195053987D+03 0.130558606808770D+03 -.459519147850408D+02 0.121236164154374D+03
 0.122566291650286D+03 -.268897551279639D+02 0.643936496277726D+02 -.428677438370238D+02
 0.460947006523589D+01 0.921350668011772D+00 -.433252778019508D+01 -.127574694304863D+01
0.615846801377D-05 0.000000000000D+00 0.000000000000D+00 0.158673775852D-06 0.000000000000D+00  7 -2 1 -24 -13 13 23 21 0 0.25853264D-01 0.54779489D-01 0.40886849D+05 0.40886849D+05 0.40886849D+05 0.11550621D+01  1  2  2  2  7  2        1 0.610573784602D-03 0.100000000000D+01
-.327057147891D-06 0.000000000000D+00 -.236501387347D-07 0.158673775852D-06 0.000000000000D+00  7 -2 1 -24 -13 13 23 21 2 0.25853264D-01 0.54779489D-01 0.40886849D+05 0.40886849D+05 0.40886849D+05 0.11550621D+01  1  2  3  2  7  2        1 -.432613212274D-04 0.100000000000D+01
0.400064077705D-06 0.000000000000D+00 0.000000000000D+00 0.158673775852D-06 0.000000000000D+00  7 -2 1 -24 -13 13 23 21 2 0.25853264D-01 0.54779489D-01 0.40886849D+05 0.40886849D+05 0.40886849D+05 0.11550621D+01  1  2 15  2  7  2        1 0.529182764809D-04 0.100000000000D+01
0.775205119014D-06 0.000000000000D+00 0.000000000000D+00 0.158673775852D-06 0.000000000000D+00  7 -2 1 -24 -13 13 23 21 2 0.25853264D-01 0.55626694D-01 0.41757458D+05 0.41757458D+05 0.41757458D+05 0.11542412D+01  1  2 12  2  7  2        1 0.100361811272D-03 0.100000000000D+01
-.572473882166D-04 0.000000000000D+00 0.000000000000D+00 0.158673775852D-06 0.000000000000D+00  7 -2 1 -24 -13 13 23 21 2 0.25853264D-01 0.54779489D-01 0.40886849D+05 0.40886849D+05 0.40886849D+05 0.11550621D+01  1  2  4  2  7  2        1 -.757236974345D-02 0.100000000000D+01
-.389525940816D-03 0.000000000000D+00 -.466403024566D-04 0.158673775852D-06 0.000000000000D+00  7 -2 1 -24 -13 13 23 21 2 0.25853264D-01 0.55767978D-01 0.40886849D+05 0.40886849D+05 0.40886849D+05 0.11550621D+01  1  2  5  2  7  2        1 -.503310388080D-01 0.100000000000D+01
0.390305094396D-03 0.000000000000D+00 0.466328448028D-04 0.158673775852D-06 0.000000000000D+00  7 -2 1 -24 -13 13 23 21 2 0.25853264D-01 0.54779489D-01 0.40886849D+05 0.40886849D+05 0.40886849D+05 0.11550621D+01  1  2  6  2  7  2        1 0.516274118278D-01 0.100000000000D+01
0.565525538916D-04 0.000000000000D+00 0.000000000000D+00 0.158673775852D-06 0.574698768061D-07  7 -2 1 -24 -13 13 23 21 2 0.26030495D-01 0.55440712D-01 0.41757458D+05 0.41757458D+05 0.41757458D+05 0.11542412D+01  1  2 11  2  7  2        1 0.726906567960D-02 0.100000000000D+01
0.436409963932D-07 0.000000000000D+00 0.000000000000D+00 0.158673775852D-06 0.000000000000D+00  7 -2 21 -24 -13 13 23 -1 2 0.25853264D-01 0.55626694D-01 0.41757458D+05 0.41757458D+05 0.41757458D+05 0.11542412D+01  1  2 12  4  7  2        1 0.236886164134D-04 0.100000000000D+01
-.126636116007D-05 0.000000000000D+00 -.152284025570D-06 0.158673775852D-06 0.000000000000D+00  7 -2 21 -24 -13 13 23 -1 2 0.25853264D-01 0.55767978D-01 0.40886849D+05 0.40886849D+05 0.40886849D+05 0.11550621D+01  1  2  5  4  7  2        1 -.685046962922D-03 0.100000000000D+01
0.179210607769D-06 0.000000000000D+00 0.000000000000D+00 0.158673775852D-06 0.127385971187D-09  7 -2 21 -24 -13 13 23 -1 2 0.26030495D-01 0.55440712D-01 0.41757458D+05 0.41757458D+05 0.41757458D+05 0.11542412D+01  1  2 11  4  7  2        1 0.968554199711D-04 0.100000000000D+01
  </mgrwgt>
  </event>
  <event>
  8     66 0.26562228E-05 0.20554204E+03 0.75467711E-02 0.96356054E-01
       -2 -1    0    0    0  501 0.00000000E+00 0.00000000E+00 0.23716427E+03 0.23716448E+03 0.32000000E+00 0.0000E+00 0.9000E+01
        1 -1    0    0  501    0 0.00000000E+00 0.00000000E+00 -.75060493E+03 0.75060500E+03 0.32000000E+00 0.0000E+00 0.9000E+01
       25  2    1    2    0    0 -.25979980E+02 -.78108346E+02 0.12784102E+03 0.33624413E+03 0.29990151E+03 0.0000E+00 0.0000E+00
       23  2    3    3    0    0 0.26330281E+02 -.14663317E+03 0.32495308E+02 0.17864315E+03 0.93074479E+02 0.0000E+00 0.0000E+00
      -24  1    1    2    0    0 0.25979980E+02 0.78108346E+02 -.64128168E+03 0.65152535E+03 0.80419002E+02 0.0000E+00 0.9000E+01
      -11  1    4    4    0    0 -.14885267E+02 -.12114782E+03 0.42341815E+02 0.12919440E+03 0.51099893E-03 0.0000E+00 0.9000E+01
       11  1    4    4    0    0 0.41215548E+02 -.25485356E+02 -.98465068E+01 0.49448746E+02 0.51099893E-03 0.0000E+00 0.9000E+01
       23  1    3    3    0    0 -.52310261E+02 0.68524825E+02 0.95345708E+02 0.15760098E+03 0.91188000E+02 0.0000E+00 0.9000E+01
#aMCatNLO 1  0  0  2  1 0.33860633D+03 0.00000000D+00  -5  7  0 0.00000000D+00 0.00000000D+00 0.00000000D+00 0.00000000D+00 0.00000000D+00
  <mgrwgt>
 0.1178660042D-02    5    2    0
 0.421920381370392D+03 0.000000000000000D+00 0.000000000000000D+00 0.421920381370392D+03
 0.421920381370392D+03 0.000000000000000D+00 0.000000000000000D+00 -.421920381370392D+03
 0.372459804189510D+03 0.259799795618551D+02 0.781083462226745D+02 -.354236103037002D+03
 0.176993460795637D+03 -.148852668565337D+02 -.121147815083472D+03 0.128173011572356D+03
 0.518917395030588D+02 0.412155479746206D+02 -.254853561549392D+02 0.185614615658615D+02
 0.242495758252578D+03 -.523102606799420D+02 0.685248250157369D+02 0.207501629898784D+03
 0.000000000000000D+00 0.000000000000000D+00 0.000000000000000D+00 -.000000000000000D+00
 0.524185313078634D+03 0.000000000000000D+00 0.000000000000000D+00 0.524185313078634D+03
 0.866665940724008D+03 0.000000000000000D+00 0.000000000000000D+00 -.866665940724008D+03
 0.379535494916852D+03 -.107837210718717D+03 0.216308861809816D+02 -.354236103037002D+03
 0.215116634192184D+03 -.846610636657331D+02 -.150596645744961D+03 0.128173011572356D+03
 0.446529962642632D+02 0.240354601574280D+02 -.327362012905595D+02 0.185614615658615D+02
 0.269937130345964D+03 -.143497438899145D+03 0.300393344491529D+02 0.207501629898784D+03
 0.481608998083379D+03 0.311960253126167D+03 0.131662626405386D+03 -.342480627645374D+03
0.586327131247D-04 0.000000000000D+00 0.000000000000D+00 0.366410672685D-05 0.000000000000D+00  7 -2 1 -24 -11 11 23 21 0 0.36486832D-01 0.11547770D+00 0.42247529D+05 0.42247529D+05 0.42247529D+05 0.11537874D+01  1  2  2  2  7  2        1 0.113350341993D-02 0.100000000000D+01
-.120900796065D-05 0.000000000000D+00 -.225165056747D-06 0.366410672685D-05 0.000000000000D+00  7 -2 1 -24 -11 11 23 21 2 0.36486832D-01 0.11547770D+00 0.42247529D+05 0.42247529D+05 0.42247529D+05 0.11537874D+01  1  2  3  2  7  2        1 -.311145559676D-04 0.100000000000D+01
0.368898106339D-05 0.000000000000D+00 0.000000000000D+00 0.366410672685D-05 0.000000000000D+00  7 -2 1 -24 -11 11 23 21 2 0.36486832D-01 0.11547770D+00 0.42247529D+05 0.42247529D+05 0.42247529D+05 0.11537874D+01  1  2 15  2  7  2        1 0.949381736902D-04 0.100000000000D+01
-.401519161500D-05 0.000000000000D+00 -.178299633580D-04 0.366410672685D-05 0.000000000000D+00  7 -2 1 -24 -11 11 23 21 2 0.36486832D-01 0.26335194D+00 0.42247529D+05 0.42247529D+05 0.42247529D+05 0.11537874D+01  1  2  5  2  7  2        1 -.215747279009D-04 0.100000000000D+01
0.768050431545D-06 0.000000000000D+00 -.159828469919D-05 0.366410672685D-05 0.000000000000D+00  7 -2 21 -24 -11 11 23 -1 2 0.36486832D-01 0.26335194D+00 0.42247529D+05 0.42247529D+05 0.42247529D+05 0.11537874D+01  1  2  5  4  7  2        1 0.290773240859D-05 0.100000000000D+01
  </mgrwgt>
  </event>
  <event>
  9     66 0.26562228E-05 0.16834633E+03 0.75467711E-02 0.10494581E+00
       -2 -1    0    0    0  501 0.00000000E+00 0.00000000E+00 0.17586337E+03 0.17586366E+03 0.32000000E+00 0.0000E+00 0.9000E+01
       21 -1    0    0  501  502 0.00000000E+00 0.00000000E+00 -.63758572E+03 0.63758616E+03 0.75000000E+00 0.0000E+00 0.9000E+01
       25  2    1    2    0    0 0.17126439E+01 0.54597220E+02 -.28500963E+03 0.41693767E+03 0.29937058E+03 0.0000E+00 0.0000E+00
       23  2    3    3    0    0 -.65568599E+01 0.99369639E+02 -.28470170E+03 0.31501466E+03 0.90894754E+02 0.0000E+00 0.0000E+00
      -24  1    1    2    0    0 0.87759523E+02 -.33697959E+02 0.63694177E+02 0.13914543E+03 0.80419002E+02 0.0000E+00 0.9000E+01
      -13  1    4    4    0    0 -.16276333E+02 0.10869442E+03 -.27991660E+03 0.30072032E+03 0.10565837E+00 0.0000E+00 0.9000E+01
       13  1    4    4    0    0 0.97194736E+01 -.93247791E+01 -.47850998E+01 0.14294335E+02 0.10565837E+00 0.0000E+00 0.9000E+01
       23  1    3    3    0    0 0.82695037E+01 -.44772419E+02 -.30792319E+00 0.10192301E+03 0.91188000E+02 0.0000E+00 0.9000E+01
       -1  1    1    2    0  502 -.89472167E+02 -.20899260E+02 -.24040690E+03 0.25736672E+03 0.32000000E+00 0.0000E+00 0.9000E+01
#aMCatNLO 2  0  0  2  1 0.91880617D+02 0.00000000D+00  -5  7  0 0.00000000D+00 0.00000000D+00 0.00000000D+00 0.00000000D+00 0.00000000D+00
  <mgrwgt>
 0.8691913971D-04    2    2    0
 0.250901293108443D+03 0.000000000000000D+00 0.000000000000000D+00 0.250901293108443D+03
 0.250901293108443D+03 0.000000000000000D+00 0.000000000000000D+00 -.250901293108443D+03
 0.168044480877531D+03 0.570480963291521D+02 -.408716556379167D+02 0.129795046398789D+03
 0.208170304808886D+03 -.529277908815560D+02 0.100133394067783D+03 -.174662039805703D+03
 0.123852437172446D+02 0.743037016524264D+01 -.985964423802330D+01 0.985533684170157D+00
 0.113202556813225D+03 -.115506756128387D+02 -.494020941918428D+02 0.438814597227437D+02
 0.000000000000000D+00 -.000000000000000D+00 -.000000000000000D+00 -.000000000000000D+00
 0.267994686392999D+03 0.000000000000000D+00 0.000000000000000D+00 0.267994686392999D+03
 0.418396924638743D+03 0.000000000000000D+00 0.000000000000000D+00 -.418396924638743D+03
 0.179307714536808D+03 0.877595235628831D+02 -.336979597660599D+02 0.129795046398789D+03
 0.206364385160975D+03 -.162763686797170D+02 0.108694577308991D+03 -.174662039805703D+03
 0.135053543557141D+02 0.971950847861063D+01 -.932493831427250D+01 0.985533684170157D+00
 0.110967508897537D+03 0.826950330626821D+01 -.447724189048768D+02 0.438814597227437D+02
 0.176246648080708D+03 -.894721666680450D+02 -.208992603237824D+02 -.150402238245743D+03
-.548784404330D-06 0.000000000000D+00 0.000000000000D+00 0.143560740926D-05 0.000000000000D+00  7 -2 21 -24 -13 13 23 -1 2 0.25330247D-01 0.98949149D-01 0.48596074D+05 0.48596074D+05 0.48596074D+05 0.11483849D+01  1  2 13  4  7  2        1 -.791800067839D-04 0.100000000000D+01
0.125980958924D-05 0.000000000000D+00 0.000000000000D+00 0.143560740926D-05 0.848419338195D-10  7 -2 21 -24 -13 13 23 -1 2 0.27055945D-01 0.98090116D-01 0.48596074D+05 0.48596074D+05 0.48596074D+05 0.11483849D+01  1  2  1  4  7  2        1 0.166099146495D-03 0.100000000000D+01
  </mgrwgt>
  </event>
  <event>
  8     66 0.26562228E-05 0.17427585E+03 0.75467711E-02 0.10519368E+00
       -2 -1    0    0    0  501 0.00000000E+00 0.00000000E+00 0.35472642E+03 0.35472656E+03 0.32000000E+00 0.0000E+00 0.9000E+01
        1 -1    0    0  501    0 0.00000000E+00 0.00000000E+00 -.14224415E+03 0.14224451E+03 0.32000000E+00 0.0000E+00 0.9000E+01
       25  2    1    2    0    0 -.10202248E+03 0.70442665E+01 0.16189068E+03 0.35738262E+03 0.30175410E+03 0.0000E+00 0.0000E+00
       23  2    3    3    0    0 0.71297312E+01 0.94437042E+02 0.13218402E+02 0.13384202E+03 0.93647064E+02 0.0000E+00 0.0000E+00
      -24  1    1    2    0    0 0.10202248E+03 -.70442665E+01 0.50591592E+02 0.13958845E+03 0.80419002E+02 0.0000E+00 0.9000E+01
      -13  1    4    4    0    0 0.31057434E+02 0.64388886E+02 -.28657122E+02 0.77017755E+02 0.10565837E+00 0.0000E+00 0.9000E+01
       13  1    4    4    0    0 -.23927702E+02 0.30048156E+02 0.41875523E+02 0.56824266E+02 0.10565837E+00 0.0000E+00 0.9000E+01
       23  1    3    3    0    0 -.10915222E+03 -.87392776E+02 0.14867228E+03 0.22354060E+03 0.91188000E+02 0.0000E+00 0.9000E+01
#aMCatNLO 1  0  0  1  2 0.26234277D+02 0.00000000D+00  -5  7  0 0.00000000D+00 0.00000000D+00 0.00000000D+00 0.00000000D+00 0.00000000D+00
  <mgrwgt>
 0.9898326729D-03    9    2    0
 0.224628319604609D+03 0.000000000000000D+00 0.000000000000000D+00 0.224628319604609D+03
 0.224628319604609D+03 0.000000000000000D+00 0.000000000000000D+00 -.224628319604609D+03
 0.130485869290498D+03 0.102022597879670D+03 -.704427433524014D+01 -.100555383296611D+02
 0.987514031126564D+02 0.310574442700929D+02 0.643888832436916D+02 -.681274282999049D+02
 0.430537453491339D+02 -.239277941925020D+02 0.300481058386727D+02 0.194472874503687D+02
 0.176965621456929D+03 -.109152247957261D+03 -.873927147471241D+02 0.587356791791973D+02
 0.000000000000000D+00 -.000000000000000D+00 0.000000000000000D+00 0.000000000000000D+00
 0.238324867586990D+03 0.000000000000000D+00 0.000000000000000D+00 0.238324867586990D+03
 0.237934277851086D+03 0.000000000000000D+00 0.000000000000000D+00 -.237934277851086D+03
 0.135258336042903D+03 0.107569677785642D+03 -.124600194509602D+02 -.100555383296611D+02
 0.975906371454685D+02 0.351558402627612D+02 0.603875224456098D+02 -.681274282999049D+02
 0.409015354400170D+02 -.221753320814979D+02 0.283371356923912D+02 0.194472874503687D+02
 0.176271452138725D+03 -.101778863199809D+03 -.945915244205724D+02 0.587356791791973D+02
 0.262371846709627D+02 -.187713227670957D+02 0.183268857335315D+02 0.390589735903289D+00
0.629761894121D-05 0.000000000000D+00 0.000000000000D+00 0.229079460265D-07 0.000000000000D+00  7 -2 1 -24 -13 13 23 21 0 0.54573334D-01 0.21883754D-01 0.41398174D+05 0.41398174D+05 0.41398174D+05 0.11545777D+01  1  2  2  1  7  1       -2 0.521523577573D-03 0.100000000000D+01
-.345702608250D-06 0.000000000000D+00 -.241845149354D-07 0.229079460265D-07 0.000000000000D+00  7 -2 1 -24 -13 13 23 21 2 0.54573334D-01 0.21883754D-01 0.41398174D+05 0.41398174D+05 0.41398174D+05 0.11545777D+01  1  2  3  1  7  1       -2 -.381633542403D-04 0.100000000000D+01
0.405378194806D-06 0.000000000000D+00 0.000000000000D+00 0.229079460265D-07 0.000000000000D+00  7 -2 1 -24 -13 13 23 21 2 0.54573334D-01 0.21883754D-01 0.41398174D+05 0.41398174D+05 0.41398174D+05 0.11545777D+01  1  2 15  1  7  1       -2 0.447511568628D-04 0.100000000000D+01
0.954353384558D-05 0.000000000000D+00 0.000000000000D+00 0.229079460265D-07 0.000000000000D+00  7 -2 1 -24 -13 13 23 21 2 0.59422598D-01 0.21883754D-01 0.46909973D+05 0.46909973D+05 0.46909973D+05 0.11497403D+01  1  2 12  1  7  1       -2 0.880985869766D-03 0.100000000000D+01
-.749774908227D-05 0.000000000000D+00 0.000000000000D+00 0.229079460265D-07 0.000000000000D+00  7 -2 1 -24 -13 13 23 21 2 0.54573334D-01 0.21883754D-01 0.41398174D+05 0.41398174D+05 0.41398174D+05 0.11545777D+01  1  2  4  1  7  1       -2 -.827703486763D-03 0.100000000000D+01
-.334163146965D-04 0.000000000000D+00 -.738612234248D-05 0.229079460265D-07 0.000000000000D+00  7 -2 1 -24 -13 13 23 21 2 0.60940806D-01 0.21883754D-01 0.41398174D+05 0.41398174D+05 0.41398174D+05 0.11545777D+01  1  2  5  1  7  1       -2 -.295460951046D-02 0.100000000000D+01
0.340685121057D-04 0.000000000000D+00 0.734137237134D-05 0.229079460265D-07 0.000000000000D+00  7 -2 1 -24 -13 13 23 21 2 0.54573334D-01 0.21883754D-01 0.41398174D+05 0.41398174D+05 0.41398174D+05 0.11545777D+01  1  2  6  1  7  1       -2 0.376094557838D-02 0.100000000000D+01
0.134681319286D-06 0.000000000000D+00 0.000000000000D+00 0.229079460265D-07 0.000000000000D+00  7 21 1 -24 -13 13 23 2 2 0.59422598D-01 0.21883754D-01 0.46909973D+05 0.46909973D+05 0.46909973D+05 0.11497403D+01  1  2 12  3  7  1       -2 0.132997755716D-03 0.100000000000D+01
-.561377125669D-06 0.000000000000D+00 -.130551582168D-06 0.229079460265D-07 0.000000000000D+00  7 21 1 -24 -13 13 23 2 2 0.60940806D-01 0.21883754D-01 0.41398174D+05 0.41398174D+05 0.41398174D+05 0.11545777D+01  1  2  5  3  7  1       -2 -.530894913896D-03 0.100000000000D+01
  </mgrwgt>
  </event>
  <event>
  8     66 0.26562228E-05 0.28206636E+03 0.75467711E-02 0.99972915E-01
       -2 -1    0    0    0  501 0.00000000E+00 0.00000000E+00 0.17127902E+03 0.17127932E+03 0.32000000E+00 0.0000E+00 0.9000E+01
        1 -1    0    0  501    0 0.00000000E+00 0.00000000E+00 -.85191848E+03 0.85191854E+03 0.32000000E+00 0.0000E+00 0.9000E+01
       25  2    1    2    0    0 -.22414561E+03 -.15492252E+03 -.17010342E+03 0.43894063E+03 0.29915124E+03 0.0000E+00 0.0000E+00
       23  2    3    3    0    0 -.16885672E+03 -.17227089E+03 -.20052293E+03 0.32669792E+03 0.91281063E+02 0.0000E+00 0.0000E+00
      -24  1    1    2    0    0 0.22414561E+03 0.15492252E+03 -.51053604E+03 0.58425723E+03 0.80419002E+02 0.0000E+00 0.9000E+01
      -11  1    4    4    0    0 -.15045205E+02 -.41018525E+02 -.26257211E+01 0.43769533E+02 0.51099893E-03 0.0000E+00 0.9000E+01
       11  1    4    4    0    0 -.15381151E+03 -.13125236E+03 -.19789721E+03 0.28292838E+03 0.51099893E-03 0.0000E+00 0.9000E+01
       23  1    3    3    0    0 -.55288891E+02 0.17348372E+02 0.30419516E+02 0.11224271E+03 0.91188000E+02 0.0000E+00 0.9000E+01
#aMCatNLO 1  0  0  2  2 0.23045304D+01 0.00000000D+00  -5  7  0 0.00000000D+00 0.00000000D+00 0.00000000D+00 0.00000000D+00 0.00000000D+00
  <mgrwgt>
 0.1681590482D-02   10    2    0
 0.381989453933104D+03 0.000000000000000D+00 0.000000000000000D+00 0.381989453933104D+03
 0.381989453933104D+03 0.000000000000000D+00 0.000000000000000D+00 -.381989453933104D+03
 0.327652714633932D+03 0.224145606913301D+03 0.154922517701949D+03 -.163238616335019D+03
 0.562812957773046D+02 -.150452050400807D+02 -.410185253031972D+02 0.354782558988650D+02
 0.202616934137060D+03 -.153811511259812D+03 -.131252364781760D+03 -.129791271767429D+02
 0.177427963317911D+03 -.552888906134084D+02 0.173483723830084D+02 0.140739487612897D+03
 0.000000000000000D+00 -.000000000000000D+00 0.000000000000000D+00 -.000000000000000D+00
 0.382714573938730D+03 0.000000000000000D+00 0.000000000000000D+00 0.382714573938730D+03
 0.383826618856930D+03 0.000000000000000D+00 0.000000000000000D+00 -.383826618856930D+03
 0.327939675633428D+03 0.224955325958600D+03 0.154355014042551D+03 -.163238616335019D+03
 0.563154015228771D+02 -.149061373943984D+02 -.411159929350713D+02 0.354782558988650D+02
 0.202465145136098D+03 -.153311196308989D+03 -.131603017970780D+03 -.129791271767429D+02
 0.177262161355805D+03 -.548508145262067D+02 0.170413402290464D+02 0.140739487612897D+03
 0.255880914745233D+01 -.188717772900525D+01 0.132265663425447D+01 -.111204491820021D+01
0.211095505959D-04 0.000000000000D+00 0.000000000000D+00 0.233189868123D-05 0.000000000000D+00  7 -2 1 -24 -11 11 23 21 0 0.26350646D-01 0.13106441D+00 0.10176981D+06 0.10176981D+06 0.10176981D+06 0.11210974D+01  1  2  2  2  7  2        1 0.583530046826D-03 0.100000000000D+01
-.112647231807D-05 0.000000000000D+00 -.810662325607D-07 0.233189868123D-05 0.000000000000D+00  7 -2 1 -24 -11 11 23 21 2 0.26350646D-01 0.13106441D+00 0.10176981D+06 0.10176981D+06 0.10176981D+06 0.11210974D+01  1  2  3  2  7  2        1 -.391373499537D-04 0.100000000000D+01
0.132160922988D-05 0.000000000000D+00 0.000000000000D+00 0.233189868123D-05 0.000000000000D+00  7 -2 1 -24 -11 11 23 21 2 0.26350646D-01 0.13106441D+00 0.10176981D+06 0.10176981D+06 0.10176981D+06 0.11210974D+01  1  2 15  2  7  2        1 0.459170474960D-04 0.100000000000D+01
-.848044323152D-03 0.000000000000D+00 0.000000000000D+00 0.233189868123D-05 0.000000000000D+00  7 -2 1 -24 -11 11 23 21 2 0.26350646D-01 0.13106441D+00 0.10176981D+06 0.10176981D+06 0.10176981D+06 0.11210974D+01  1  2  4  2  7  2        1 -.294638464869D-01 0.100000000000D+01
-.471113203626D-02 0.000000000000D+00 -.431254966853D-03 0.233189868123D-05 0.000000000000D+00  7 -2 1 -24 -11 11 23 21 2 0.26350646D-01 0.13186080D+00 0.10176981D+06 0.10176981D+06 0.10176981D+06 0.11210974D+01  1  2  5  2  7  2        1 -.162088145815D+00 0.100000000000D+01
0.471366599052D-02 0.000000000000D+00 0.431247053628D-03 0.233189868123D-05 0.000000000000D+00  7 -2 1 -24 -11 11 23 21 2 0.26350646D-01 0.13106441D+00 0.10176981D+06 0.10176981D+06 0.10176981D+06 0.11210974D+01  1  2  6  2  7  2        1 0.163768245767D+00 0.100000000000D+01
0.848052966333D-03 0.000000000000D+00 0.000000000000D+00 0.233189868123D-05 0.294198307303D-05  7 -2 1 -24 -11 11 23 21 2 0.26400666D-01 0.13169476D+00 0.10249039D+06 0.10249039D+06 0.10249039D+06 0.11208464D+01  1  2 11  2  7  2        1 0.291250283732D-01 0.100000000000D+01
0.284858879069D-08 0.000000000000D+00 0.000000000000D+00 0.233189868123D-05 0.000000000000D+00  7 -2 21 -24 -11 11 23 -1 2 0.26350646D-01 0.13181874D+00 0.10249039D+06 0.10249039D+06 0.10249039D+06 0.11208464D+01  1  2 12  4  7  2        1 0.163810361027D-06 0.100000000000D+01
-.529705180141D-05 0.000000000000D+00 -.485428989250D-06 0.233189868123D-05 0.000000000000D+00  7 -2 21 -24 -11 11 23 -1 2 0.26350646D-01 0.13186080D+00 0.10176981D+06 0.10176981D+06 0.10176981D+06 0.11210974D+01  1  2  5  4  7  2        1 -.304603046770D-03 0.100000000000D+01
0.947248208381D-06 0.000000000000D+00 0.000000000000D+00 0.233189868123D-05 0.263202800604D-08  7 -2 21 -24 -11 11 23 -1 2 0.26400666D-01 0.13169476D+00 0.10249039D+06 0.10249039D+06 0.10249039D+06 0.11208464D+01  1  2 11  4  7  2        1 0.544381358253D-04 0.100000000000D+01
  </mgrwgt>
  </event>
  <event>
  8     66 0.26562228E-05 0.22216480E+03 0.75467711E-02 0.10350084E+00
       -2 -1    0    0    0  501 0.00000000E+00 0.00000000E+00 0.22154839E+03 0.22154862E+03 0.32000000E+00 0.0000E+00 0.9000E+01
        1 -1    0    0  501    0 0.00000000E+00 0.00000000E+00 -.33960766E+03 0.33960781E+03 0.32000000E+00 0.0000E+00 0.9000E+01
       25  2    1    2    0    0 -.14336102E+03 0.46162607E+02 0.26738563E+02 0.33728817E+03 0.30060770E+03 0.0000E+00 0.0000E+00
       23  2    3    3    0    0 -.13234527E+03 0.85977471E+02 -.73029046E+02 0.19595382E+03 0.90317564E+02 0.0000E+00 0.0000E+00
      -24  1    1    2    0    0 0.14336102E+03 -.46162607E+02 -.14479783E+03 0.22386826E+03 0.80419002E+02 0.0000E+00 0.9000E+01
      -13  1    4    4    0    0 -.13174727E+03 0.96271509E+02 -.81696999E+02 0.18248276E+03 0.10565837E+00 0.0000E+00 0.9000E+01
       13  1    4    4    0    0 -.59799413E+00 -.10294038E+02 0.86679533E+01 0.13471057E+02 0.10565837E+00 0.0000E+00 0.9000E+01
       23  1    3    3    0    0 -.11015757E+02 -.39814864E+02 0.99767609E+02 0.14133435E+03 0.91188000E+02 0.0000E+00 0.9000E+01
#aMCatNLO 1  0  0  2  1 0.43926084D+02 0.00000000D+00  -5  7  0 0.00000000D+00 0.00000000D+00 0.00000000D+00 0.00000000D+00 0.00000000D+00
  <mgrwgt>
 0.2539411191D-03    4    2    0
 0.274298443183992D+03 0.000000000000000D+00 0.000000000000000D+00 0.274298443183992D+03
 0.274298443183992D+03 0.000000000000000D+00 0.000000000000000D+00 -.274298443183992D+03
 0.197832671733323D+03 0.143361026360055D+03 -.461626075530546D+02 -.999358786205865D+02
 0.169079342772152D+03 -.131747452856046D+03 0.962716537463525D+02 -.442967437081921D+02
 0.156446157923570D+02 -.597814949540865D+00 -.102941834682733D+02 0.117654752261905D+02
 0.166040256070152D+03 -.110157585544686D+02 -.398148627250246D+02 0.132467147102588D+03
 0.000000000000000D+00 -.000000000000000D+00 -.000000000000000D+00 0.000000000000000D+00
 0.304571988845181D+03 0.000000000000000D+00 0.000000000000000D+00 0.304571988845181D+03
 0.291586069084248D+03 0.000000000000000D+00 0.000000000000000D+00 -.291586069084248D+03
 0.206014231071795D+03 0.156837243524343D+03 -.372766234757050D+02 -.999358786205865D+02
 0.165057058342335D+03 -.120597448553337D+03 0.103623773372237D+03 -.442967437081921D+02
 0.152009864335760D+02 0.431491035654507D+00 -.961547693782311D+01 0.117654752261905D+02
 0.164080378894467D+03 0.241162985492593D-03 -.325511034005765D+02 0.132467147102588D+03
 0.458054031872568D+02 -.366715271696459D+02 -.241805695581325D+02 0.129859197609331D+02
0.189126105049D-04 0.000000000000D+00 0.000000000000D+00 0.114846181192D-05 0.000000000000D+00  7 -2 1 -24 -13 13 23 21 0 0.34084397D-01 0.52247361D-01 0.49357198D+05 0.49357198D+05 0.49357198D+05 0.11477900D+01  1  2  2  2  7  2        1 0.123435775481D-02 0.100000000000D+01
-.993934301054D-06 0.000000000000D+00 -.726294041434D-07 0.114846181192D-05 0.000000000000D+00  7 -2 1 -24 -13 13 23 21 2 0.34084397D-01 0.52247361D-01 0.49357198D+05 0.49357198D+05 0.49357198D+05 0.11477900D+01  1  2  3  2  7  2        1 -.854618179525D-04 0.100000000000D+01
0.120521561123D-05 0.000000000000D+00 0.000000000000D+00 0.114846181192D-05 0.000000000000D+00  7 -2 1 -24 -13 13 23 21 2 0.34084397D-01 0.52247361D-01 0.49357198D+05 0.49357198D+05 0.49357198D+05 0.11477900D+01  1  2 15  2  7  2        1 0.103628496422D-03 0.100000000000D+01
-.116136800293D-04 0.000000000000D+00 0.000000000000D+00 0.114846181192D-05 0.000000000000D+00  7 -2 1 -24 -13 13 23 21 2 0.34084397D-01 0.52247361D-01 0.49357198D+05 0.49357198D+05 0.49357198D+05 0.11477900D+01  1  2  4  2  7  2        1 -.998583314177D-03 0.100000000000D+01
  </mgrwgt>
  </event>
  <event>
  8     66 0.26562228E-05 0.25306309E+03 0.75467711E-02 0.89747783E-01
       -2 -1    0    0    0  501 0.00000000E+00 0.00000000E+00 0.22362401E+03 0.22362424E+03 0.32000000E+00 0.0000E+00 0.9000E+01
        1 -1    0    0  501    0 0.00000000E+00 0.00000000E+00 -.97570524E+03 0.97570530E+03 0.32000000E+00 0.0000E+00 0.9000E+01
       25  2    1    2    0    0 0.15965782E+03 0.38719907E+02 0.83079862E+02 0.34437274E+03 0.29103345E+03 0.0000E+00 0.0000E+00
       23  2    3    3    0    0 0.20188615E+03 0.82319548E+01 0.20117614E+02 0.22192993E+03 0.89567811E+02 0.0000E+00 0.0000E+00
      -24  1    1    2    0    0 -.15965782E+03 -.38719907E+02 -.83516109E+03 0.85495679E+03 0.80419002E+02 0.0000E+00 0.9000E+01
      -13  1    4    4    0    0 0.20511349E+03 -.44004037E+01 0.99610413E+01 0.20540239E+03 0.10565837E+00 0.0000E+00 0.9000E+01
       13  1    4    4    0    0 -.32273482E+01 0.12632359E+02 0.10156573E+02 0.16527534E+02 0.10565837E+00 0.0000E+00 0.9000E+01
       23  1    3    3    0    0 -.42228328E+02 0.30487953E+02 0.62962248E+02 0.12244281E+03 0.91188000E+02 0.0000E+00 0.9000E+01
#aMCatNLO 1  0  0  2  2 0.72272207D+03 0.00000000D+00  -5  7  0 0.00000000D+00 0.00000000D+00 0.00000000D+00 0.00000000D+00 0.00000000D+00
  <mgrwgt>
 0.2525329342D-01    3    2    0
 0.467109503677786D+03 0.000000000000000D+00 0.000000000000000D+00 0.467109503677786D+03
 0.467109503677786D+03 0.000000000000000D+00 0.000000000000000D+00 -.467109503677786D+03
 0.425238564368636D+03 -.159657818662040D+03 -.387199074774736D+02 -.383889007887622D+03
 0.271710359277422D+03 0.205113783791222D+03 -.440042738972460D+01 0.178144579699472D+03
 0.293937639242312D+02 -.322763804922363D+01 0.126323822686072D+02 0.263438537134645D+02
 0.207876319785283D+03 -.422283270799584D+02 0.304879525985910D+02 0.179400574474686D+03
 0.000000000000000D+00 -.000000000000000D+00 0.000000000000000D+00 0.000000000000000D+00
 0.108745232171576D+04 0.000000000000000D+00 0.000000000000000D+00 0.108745232171576D+04
 0.853372463773704D+03 0.000000000000000D+00 0.000000000000000D+00 -.853372463773704D+03
 0.494719531463707D+03 0.132056259176441D+02 -.301222575389827D+03 -.383889007887622D+03
 0.433638706259371D+03 0.337651417464019D+03 -.205666128894717D+03 0.178144579699472D+03
 0.276276853042868D+02 0.748689794238478D+01 -.363823116316224D+01 0.263438537134645D+02
 0.225154346835849D+03 0.391396971592756D+02 -.930738767835029D+02 0.179400574474686D+03
 0.759684515626249D+03 -.397483638483323D+03 0.603600812231208D+03 0.234079857942056D+03
0.173451075634D-02 0.000000000000D+00 0.000000000000D+00 0.265311268158D-07 0.000000000000D+00  7 -2 1 -24 -13 13 23 21 0 0.34403716D-01 0.15010852D+00 0.64040930D+05 0.64040930D+05 0.64040930D+05 0.11379592D+01  1  2  2  2  7  2        1 0.242451682498D-01 0.100000000000D+01
-.523467313124D-04 0.000000000000D+00 -.666097801151D-05 0.265311268158D-07 0.000000000000D+00  7 -2 1 -24 -13 13 23 21 2 0.34403716D-01 0.15010852D+00 0.64040930D+05 0.64040930D+05 0.64040930D+05 0.11379592D+01  1  2  3  2  7  2        1 -.947525965286D-03 0.100000000000D+01
0.108041307672D-03 0.000000000000D+00 0.000000000000D+00 0.265311268158D-07 0.000000000000D+00  7 -2 1 -24 -13 13 23 21 2 0.34403716D-01 0.15010852D+00 0.64040930D+05 0.64040930D+05 0.64040930D+05 0.11379592D+01  1  2 15  2  7  2        1 0.195565113191D-02 0.100000000000D+01
  </mgrwgt>
  </event>
  <event>
  8     66 0.26562228E-05 0.37437604E+03 0.75467711E-02 0.90772599E-01
       -2 -1    0    0    0  501 0.00000000E+00 0.00000000E+00 0.41476171E+03 0.41476184E+03 0.32000000E+00 0.0000E+00 0.9000E+01
        1 -1    0    0  501    0 0.00000000E+00 0.00000000E+00 -.73958458E+03 0.73958465E+03 0.32000000E+00 0.0000E+00 0.9000E+01
       25  2    1    2    0    0 0.31968547E+03 0.30854550E+02 0.23888689E+03 0.50059829E+03 0.30063417E+03 0.0000E+00 0.0000E+00
       23  2    3    3    0    0 0.27097628E+03 0.87391136E+02 0.94828364E+02 0.31448789E+03 0.94047130E+02 0.0000E+00 0.0000E+00
      -24  1    1    2    0    0 -.31968547E+03 -.30854550E+02 -.56370976E+03 0.65374820E+03 0.80419002E+02 0.0000E+00 0.9000E+01
      -13  1    4    4    0    0 0.22708365E+03 0.10786721E+03 0.78323163E+02 0.26331891E+03 0.10565837E+00 0.0000E+00 0.9000E+01
       13  1    4    4    0    0 0.43892629E+02 -.20476070E+02 0.16505201E+02 0.51168986E+02 0.10565837E+00 0.0000E+00 0.9000E+01
       23  1    3    3    0    0 0.48709191E+02 -.56536586E+02 0.14405852E+03 0.18611040E+03 0.91188000E+02 0.0000E+00 0.9000E+01
#aMCatNLO 1  0  0  1  1 0.52218717D+03 0.00000000D+00  -5  7  0 0.00000000D+00 0.00000000D+00 0.00000000D+00 0.00000000D+00 0.00000000D+00
  <mgrwgt>
 0.1990070465D-02    3    2    0
 0.553851497123318D+03 0.000000000000000D+00 0.000000000000000D+00 0.553851497123318D+03
 0.553851497123318D+03 0.000000000000000D+00 0.000000000000000D+00 -.553851497123318D+03
 0.515974156727131D+03 -.319685467405749D+03 -.308545498305717D+02 -.395741472605822D+03
 0.297374608265556D+03 0.227083879006131D+03 0.107867368341779D+03 0.158837024599558D+03
 0.581633090588441D+02 0.438923976877054D+02 -.204762319806092D+02 0.322048423342702D+02
 0.236190920195106D+03 0.487091907119120D+02 -.565365865305981D+02 0.204699605671994D+03
 0.000000000000000D+00 0.000000000000000D+00 -.000000000000000D+00 -.000000000000000D+00
 0.783177729794942D+03 0.000000000000000D+00 0.000000000000000D+00 0.783177729794942D+03
 0.101126678777940D+04 0.000000000000000D+00 0.000000000000000D+00 -.101126678777940D+04
 0.684902628111185D+03 -.538927762498670D+03 0.124779596517982D+03 -.395741472605822D+03
 0.270903572478492D+03 0.123334173648700D+03 0.181516464290051D+03 0.158837024599558D+03
 0.418421387411070D+02 0.256345512755869D+02 -.751548305527647D+01 0.322048423342702D+02
 0.226968077811036D+03 -.358490612235487D+02 0.348901825119709D+01 0.204699605671994D+03
 0.569828100432527D+03 0.425808098797932D+03 -.302269596003954D+03 -.228089057984463D+03
0.301515368323D-03 0.000000000000D+00 0.000000000000D+00 0.175787975633D-05 0.000000000000D+00  7 -2 1 -24 -13 13 23 21 0 0.63809509D-01 0.11378226D+00 0.14015742D+06 0.14015742D+06 0.14015742D+06 0.11098854D+01  1  2  2  1  7  1       -2 0.194940806011D-02 0.100000000000D+01
-.136270532215D-04 0.000000000000D+00 -.115789840518D-05 0.175787975633D-05 0.000000000000D+00  7 -2 1 -24 -13 13 23 21 2 0.63809509D-01 0.11378226D+00 0.14015742D+06 0.14015742D+06 0.14015742D+06 0.11098854D+01  1  2  3  1  7  1       -2 -.108530440641D-03 0.100000000000D+01
0.187326140108D-04 0.000000000000D+00 0.000000000000D+00 0.175787975633D-05 0.000000000000D+00  7 -2 1 -24 -13 13 23 21 2 0.63809509D-01 0.11378226D+00 0.14015742D+06 0.14015742D+06 0.14015742D+06 0.11098854D+01  1  2 15  1  7  1       -2 0.149192846018D-03 0.100000000000D+01
  </mgrwgt>
  </event>
  <event>
  8     66 0.26562228E-05 0.15829951E+03 0.75467711E-02 0.98831257E-01
       -2 -1    0    0    0  501 0.00000000E+00 0.00000000E+00 0.51713219E+03 0.51713229E+03 0.32000000E+00 0.0000E+00 0.9000E+01
        1 -1    0    0  501    0 0.00000000E+00 0.00000000E+00 -.57930307E+03 0.57930316E+03 0.32000000E+00 0.0000E+00 0.9000E+01
       25  2    1    2    0    0 0.98283061E+02 -.20474619E+03 0.41608658E+03 0.56091890E+03 0.29986899E+03 0.0000E+00 0.0000E+00
       23  2    3    3    0    0 -.39808531E+02 0.91642796E+01 0.15892284E+03 0.18772268E+03 0.91184617E+02 0.0000E+00 0.0000E+00
      -24  1    1    2    0    0 -.98283061E+02 0.20474619E+03 -.47825746E+03 0.53551655E+03 0.80419002E+02 0.0000E+00 0.9000E+01
      -11  1    4    4    0    0 -.44819842E+01 -.32101347E+02 0.10980024E+03 0.11448440E+03 0.51099893E-03 0.0000E+00 0.9000E+01
       11  1    4    4    0    0 -.35326547E+02 0.41265627E+02 0.49122597E+02 0.73238285E+02 0.51099893E-03 0.0000E+00 0.9000E+01
       23  1    3    3    0    0 0.13809159E+03 -.21391047E+03 0.25716374E+03 0.37319622E+03 0.91188000E+02 0.0000E+00 0.9000E+01
#aMCatNLO 1  0  0  1  2 0.96448969D+02 0.00000000D+00  -5  7  0 0.00000000D+00 0.00000000D+00 0.00000000D+00 0.00000000D+00 0.00000000D+00
  <mgrwgt>
 0.1035826730D-02    9    2    0
 0.547335702110766D+03 0.000000000000000D+00 0.000000000000000D+00 0.547335702110766D+03
 0.547335702110766D+03 0.000000000000000D+00 0.000000000000000D+00 -.547335702110766D+03
 0.509217324494540D+03 -.982830612716380D+02 0.204746191678655D+03 -.448613981582351D+03
 0.120904893673262D+03 -.448198416900292D+01 -.321013471386160D+02 0.116479219794510D+03
 0.761461811347741D+02 -.353265465463899D+02 0.412656267886185D+02 0.533612598825968D+02
 0.388403004918956D+03 0.138091591987031D+03 -.213910471328657D+03 0.278773501905244D+03
 0.000000000000000D+00 -.000000000000000D+00 -.000000000000000D+00 0.000000000000000D+00
 0.758147195464480D+03 0.000000000000000D+00 0.000000000000000D+00 0.758147195464480D+03
 0.560599814889020D+03 0.000000000000000D+00 0.000000000000000D+00 -.560599814889020D+03
 0.519510934707666D+03 -.693379905812445D+02 0.239503932989519D+03 -.448613981582351D+03
 0.118947146757321D+03 0.226667292619770D+01 -.239974430224460D+02 0.116479219794510D+03
 0.772432634408419D+02 -.310106659659881D+02 0.464482108060062D+02 0.533612598825968D+02
 0.383210792983105D+03 0.159802297147672D+03 -.187839881219494D+03 0.278773501905244D+03
 0.219834872464567D+03 -.617203135266367D+02 -.741148195535849D+02 0.197547380575460D+03
0.201633655693D-03 0.000000000000D+00 0.000000000000D+00 0.232032790380D-04 0.000000000000D+00  7 -2 1 -24 -11 11 23 21 0 0.79558814D-01 0.89123564D-01 0.89434914D+05 0.89434914D+05 0.89434914D+05 0.11257233D+01  1  2  2  1  7  1       -2 0.117932256293D-02 0.100000000000D+01
-.622607132120D-05 0.000000000000D+00 -.774326329223D-06 0.232032790380D-04 0.000000000000D+00  7 -2 1 -24 -11 11 23 21 2 0.79558814D-01 0.89123564D-01 0.89434914D+05 0.89434914D+05 0.89434914D+05 0.11257233D+01  1  2  3  1  7  1       -2 -.461473733309D-04 0.100000000000D+01
0.124096918492D-04 0.000000000000D+00 0.000000000000D+00 0.232032790380D-04 0.000000000000D+00  7 -2 1 -24 -11 11 23 21 2 0.79558814D-01 0.89123564D-01 0.89434914D+05 0.89434914D+05 0.89434914D+05 0.11257233D+01  1  2 15  1  7  1       -2 0.919801032053D-04 0.100000000000D+01
0.604743297046D-03 0.000000000000D+00 0.000000000000D+00 0.232032790380D-04 0.000000000000D+00  7 -2 1 -24 -11 11 23 21 2 0.11088698D+00 0.89123564D-01 0.12296451D+06 0.12296451D+06 0.12296451D+06 0.11144282D+01  1  2 12  1  7  1       -2 0.199254479792D-02 0.100000000000D+01
-.651938012503D-03 0.000000000000D+00 0.000000000000D+00 0.232032790380D-04 0.000000000000D+00  7 -2 1 -24 -11 11 23 21 2 0.79558814D-01 0.89123564D-01 0.89434914D+05 0.89434914D+05 0.89434914D+05 0.11257233D+01  1  2  4  1  7  1       -2 -.483213655923D-02 0.100000000000D+01
-.673732465915D-03 0.000000000000D+00 -.882902738373D-04 0.232032790380D-04 0.000000000000D+00  7 -2 1 -24 -11 11 23 21 2 0.11148632D+00 0.89123564D-01 0.89434914D+05 0.89434914D+05 0.89434914D+05 0.11257233D+01  1  2  5  1  7  1       -2 -.226459220581D-02 0.100000000000D+01
0.669829268068D-03 0.000000000000D+00 0.834925231953D-04 0.232032790380D-04 0.000000000000D+00  7 -2 1 -24 -11 11 23 21 2 0.79558814D-01 0.89123564D-01 0.89434914D+05 0.89434914D+05 0.89434914D+05 0.11257233D+01  1  2  6  1  7  1       -2 0.496474577736D-02 0.100000000000D+01
0.251494495975D-04 0.000000000000D+00 0.000000000000D+00 0.232032790380D-04 0.000000000000D+00  7 21 1 -24 -11 11 23 2 2 0.11088698D+00 0.89123564D-01 0.12296451D+06 0.12296451D+06 0.12296451D+06 0.11144282D+01  1  2 12  3  7  1       -2 0.771673801375D-03 0.100000000000D+01
-.259794851699D-04 0.000000000000D+00 -.371457290294D-05 0.232032790380D-04 0.000000000000D+00  7 21 1 -24 -11 11 23 2 2 0.11148632D+00 0.89123564D-01 0.89434914D+05 0.89434914D+05 0.89434914D+05 0.11257233D+01  1  2  5  3  7  1       -2 -.821564174102D-03 0.100000000000D+01
  </mgrwgt>
  </event>
  <event>
  9     66 0.26562228E-05 0.38385069E+03 0.75467711E-02 0.94434842E-01
       -2 -1    0    0    0  502 0.00000000E+00 0.00000000E+00 0.27056283E+03 0.27056302E+03 0.32000000E+00 0.0000E+00 0.9000E+01
        1 -1    0    0  501    0 0.00000000E+00 0.00000000E+00 -.11241571E+04 0.11241572E+04 0.32000000E+00 0.0000E+00 0.9000E+01
       25  2    1    2    0    0 0.41556747E+03 -.23547650E+02 -.35894308E+03 0.62604157E+03 0.29972838E+03 0.0000E+00 0.0000E+00
       23  2    3    3    0    0 0.22992680E+03 -.10633633E+03 -.28384310E+03 0.39094227E+03 0.89973368E+02 0.0000E+00 0.0000E+00
      -24  1    1    2    0    0 -.26406532E+03 -.13579662E+03 -.44873880E+03 0.54406337E+03 0.80419002E+02 0.0000E+00 0.9000E+01
      -11  1    4    4    0    0 0.22783916E+03 -.81779722E+02 -.27018656E+03 0.36276629E+03 0.51099893E-03 0.0000E+00 0.9000E+01
       11  1    4    4    0    0 0.20876487E+01 -.24556604E+02 -.13656542E+02 0.28175986E+02 0.51099893E-03 0.0000E+00 0.9000E+01
       23  1    3    3    0    0 0.18564066E+03 0.82788676E+02 -.75099984E+02 0.23509930E+03 0.91188000E+02 0.0000E+00 0.9000E+01
       21  1    1    2  501  502 -.15150214E+03 0.15934427E+03 -.45912401E+02 0.22461524E+03 0.75000000E+00 0.0000E+00 0.9000E+01
#aMCatNLO 2  0  0  1  2 0.21987155D+03 0.00000000D+00  -5  7  0 0.00000000D+00 0.00000000D+00 0.00000000D+00 0.00000000D+00 0.00000000D+00
  <mgrwgt>
 0.1407006369D-03    2    2    0
 0.408794580738543D+03 0.000000000000000D+00 0.000000000000000D+00 0.408794580738543D+03
 0.408794580738543D+03 0.000000000000000D+00 0.000000000000000D+00 -.408794580738543D+03
 0.357809387072019D+03 -.326118734113194D+03 -.705311732856806D+02 -.101154665625649D+03
 0.194107986078156D+03 0.187991654765907D+03 -.398696138436349D+02 -.273397492609763D+02
 0.216606118680260D+02 -.224317123010391D+01 -.200016095321186D+02 0.800536729040996D+01
 0.244011176458884D+03 0.140370250577391D+03 0.130402396661434D+03 0.120489047596215D+03
 0.000000000000000D+00 -.000000000000000D+00 0.000000000000000D+00 0.000000000000000D+00
 0.632047486493671D+03 0.000000000000000D+00 0.000000000000000D+00 0.632047486493671D+03
 0.481221231562737D+03 0.000000000000000D+00 0.000000000000000D+00 -.481221231562737D+03
 0.323837460461150D+03 -.264065323762734D+03 -.135796624596498D+03 -.101154665625649D+03
 0.243610479742562D+03 0.227839155969564D+03 -.817797221676927D+02 -.273397492609763D+02
 0.259127568035351D+02 0.208764872250571D+01 -.245566036437494D+02 0.800536729040996D+01
 0.253277084966141D+03 0.185640660996435D+03 0.827886756694997D+02 0.120489047596215D+03
 0.266630936083019D+03 -.151502141925770D+03 0.159344274738440D+03 0.150826254930934D+03
-.151813054988D-04 0.000000000000D+00 0.000000000000D+00 0.309175664481D-05 0.000000000000D+00  7 -2 1 -24 -11 11 23 21 2 0.42955451D-01 0.14691753D+00 0.25857402D+06 0.25857402D+06 0.25857402D+06 0.10893591D+01  1  2 13  1  7  1       -2 -.166334742306D-03 0.100000000000D+01
0.353803085973D-04 0.000000000000D+00 0.000000000000D+00 0.309175664481D-05 0.447114432163D-09  7 -2 1 -24 -11 11 23 21 2 0.41625026D-01 0.17294709D+00 0.25857402D+06 0.25857402D+06 0.25857402D+06 0.10893591D+01  1  2  1  1  7  1       -2 0.307035379252D-03 0.100000000000D+01
  </mgrwgt>
  </event>
  <event>
  8     66 0.26562228E-05 0.14354844E+03 0.75467711E-02 0.10432647E+00
       -4 -1    0    0    0  501 0.00000000E+00 0.00000000E+00 0.12431143E+03 0.12432109E+03 0.15500000E+01 0.0000E+00 0.9000E+01
        3 -1    0    0  501    0 0.00000000E+00 0.00000000E+00 -.60933858E+03 0.60933879E+03 0.50000000E+00 0.0000E+00 0.9000E+01
       25  2    1    2    0    0 -.20052827E+01 0.13041353E+03 -.47907183E+03 0.58031585E+03 0.30040797E+03 0.0000E+00 0.0000E+00
       23  2    3    3    0    0 -.65388247E+02 -.18188187E+01 -.34252291E+03 0.36017123E+03 0.90124549E+02 0.0000E+00 0.0000E+00
      -24  1    1    2    0    0 0.20052827E+01 -.13041353E+03 -.59553225E+01 0.15334403E+03 0.80419002E+02 0.0000E+00 0.9000E+01
      -13  1    4    4    0    0 -.49301774E+02 -.41802159E+02 -.15859569E+03 0.17126205E+03 0.10565837E+00 0.0000E+00 0.9000E+01
       13  1    4    4    0    0 -.16086473E+02 0.39983341E+02 -.18392722E+03 0.18890917E+03 0.10565837E+00 0.0000E+00 0.9000E+01
       23  1    3    3    0    0 0.63382964E+02 0.13223235E+03 -.13654892E+03 0.22014462E+03 0.91188000E+02 0.0000E+00 0.9000E+01
#aMCatNLO 1  0  0  1  2 0.28276138D+02 0.00000000D+00  -5  7  0 0.00000000D+00 0.00000000D+00 0.00000000D+00 0.00000000D+00 0.00000000D+00
  <mgrwgt>
 0.4469686256D-04    9    2    0
 0.275229666818544D+03 0.000000000000000D+00 0.000000000000000D+00 0.275229666818544D+03
 0.275229666818544D+03 0.000000000000000D+00 0.000000000000000D+00 -.275229666818544D+03
 0.199131645866221D+03 0.200528269169664D+01 -.130413534571318D+03 0.127178949802872D+03
 0.885167607919220D+02 -.493018186314876D+02 -.418022709513924D+02 -.604741082119333D+02
 0.897166838678450D+02 -.160864277760905D+02 0.399834531593087D+02 -.786869346149971D+02
 0.173094243111100D+03 0.633829637158815D+02 0.132232352363401D+03 0.119820930240584D+02
 0.000000000000000D+00 -.000000000000000D+00 -.000000000000000D+00 0.000000000000000D+00
 0.314835829430484D+03 0.000000000000000D+00 0.000000000000000D+00 0.314835829430484D+03
 0.280686035077301D+03 0.000000000000000D+00 0.000000000000000D+00 -.280686035077301D+03
 0.197443882019836D+03 0.116967508077081D+02 -.127301105023772D+03 0.127178949802872D+03
 0.855656321173880D+02 -.450476127064960D+02 -.404360263263480D+02 -.604741082119333D+02
 0.896762337167240D+02 -.117024438467830D+02 0.413913761854395D+02 -.786869346149971D+02
 0.178499355301966D+03 0.719751685021359D+02 0.134991751840878D+03 0.119820930240584D+02
 0.443367613518721D+02 -.269218627565651D+02 -.864599667619831D+01 0.341497943531832D+02
0.662844173220D-05 0.000000000000D+00 0.000000000000D+00 0.104739416962D-05 0.000000000000D+00  7 -4 3 -24 -13 13 23 21 0 0.19125594D-01 0.93745157D-01 0.47011722D+05 0.47011722D+05 0.47011722D+05 0.11496570D+01  1  2  2  1  7  1       -4 0.576864393231D-04 0.100000000000D+01
-.342772265308D-06 0.000000000000D+00 -.254549615604D-07 0.104739416962D-05 0.000000000000D+00  7 -4 3 -24 -13 13 23 21 2 0.19125594D-01 0.93745157D-01 0.47011722D+05 0.47011722D+05 0.47011722D+05 0.11496570D+01  1  2  3  1  7  1       -4 -.394279804302D-05 0.100000000000D+01
0.422664756586D-06 0.000000000000D+00 0.000000000000D+00 0.104739416962D-05 0.000000000000D+00  7 -4 3 -24 -13 13 23 21 2 0.19125594D-01 0.93745157D-01 0.47011722D+05 0.47011722D+05 0.47011722D+05 0.11496570D+01  1  2 15  1  7  1       -4 0.486177542289D-05 0.100000000000D+01
0.250393081084D-04 0.000000000000D+00 0.000000000000D+00 0.104739416962D-05 0.000000000000D+00  7 -4 3 -24 -13 13 23 21 2 0.22049599D-01 0.93745157D-01 0.53118538D+05 0.53118538D+05 0.53118538D+05 0.11449913D+01  1  2 12  1  7  1       -4 0.220442965974D-03 0.100000000000D+01
-.254737798855D-04 0.000000000000D+00 0.000000000000D+00 0.104739416962D-05 0.000000000000D+00  7 -4 3 -24 -13 13 23 21 2 0.19125594D-01 0.93745157D-01 0.47011722D+05 0.47011722D+05 0.47011722D+05 0.11496570D+01  1  2  4  1  7  1       -4 -.293016616705D-03 0.100000000000D+01
-.393905671986D-04 0.000000000000D+00 -.603410200185D-05 0.104739416962D-05 0.000000000000D+00  7 -4 3 -24 -13 13 23 21 2 0.22249654D-01 0.93745157D-01 0.47011722D+05 0.47011722D+05 0.47011722D+05 0.11496570D+01  1  2  5  1  7  1       -4 -.342903941987D-03 0.100000000000D+01
0.399142145947D-04 0.000000000000D+00 0.596569017819D-05 0.104739416962D-05 0.000000000000D+00  7 -4 3 -24 -13 13 23 21 2 0.19125594D-01 0.93745157D-01 0.47011722D+05 0.47011722D+05 0.47011722D+05 0.11496570D+01  1  2  6  1  7  1       -4 0.459120247233D-03 0.100000000000D+01
0.547103129540D-06 0.000000000000D+00 0.000000000000D+00 0.104739416962D-05 0.000000000000D+00  7 21 3 -24 -13 13 23 4 2 0.22049599D-01 0.93745157D-01 0.53118538D+05 0.53118538D+05 0.53118538D+05 0.11449913D+01  1  2 12  3  7  1       -4 0.101418882742D-03 0.100000000000D+01
-.862292692818D-06 0.000000000000D+00 -.138607079780D-06 0.104739416962D-05 0.000000000000D+00  7 21 3 -24 -13 13 23 4 2 0.22249654D-01 0.93745157D-01 0.47011722D+05 0.47011722D+05 0.47011722D+05 0.11496570D+01  1  2  5  3  7  1       -4 -.158970091402D-03 0.100000000000D+01
  </mgrwgt>
  </event>
  <event>
  9     66 -.26562228E-05 0.19635896E+03 0.75467711E-02 0.10619590E+00
       -2 -1    0    0    0  501 0.00000000E+00 0.00000000E+00 0.23458685E+02 0.23460868E+02 0.32000000E+00 0.0000E+00 0.9000E+01
        1 -1    0    0  502    0 0.00000000E+00 0.00000000E+00 -.23501061E+04 0.23501062E+04 0.32000000E+00 0.0000E+00 0.9000E+01
       25  2    1    2    0    0 -.34415526E+02 -.10690901E+03 -.14352433E+04 0.14704935E+04 0.29968924E+03 0.0000E+00 0.0000E+00
       23  2    3    3    0    0 -.34626447E+01 0.27485746E+02 -.10044298E+04 0.10090440E+04 0.92321048E+02 0.0000E+00 0.0000E+00
      -24  1    1    2    0    0 0.41091650E+02 0.98428397E+02 -.83860140E+03 0.84917383E+03 0.80419002E+02 0.0000E+00 0.9000E+01
      -11  1    4    4    0    0 -.44561178E+02 0.68717279E-01 -.58987198E+03 0.59155275E+03 0.51099893E-03 0.0000E+00 0.9000E+01
       11  1    4    4    0    0 0.41098533E+02 0.27417029E+02 -.41455778E+03 0.41749124E+03 0.51099893E-03 0.0000E+00 0.9000E+01
       23  1    3    3    0    0 -.30952881E+02 -.13439475E+03 -.43081357E+03 0.46144947E+03 0.91188000E+02 0.0000E+00 0.9000E+01
       21  1    1    2  502  501 -.66761240E+01 0.84806085E+01 -.52802733E+02 0.53899745E+02 0.75000000E+00 0.0000E+00 0.9000E+01
#aMCatNLO 2  0  0  2  1 0.10793116D+02 0.00000000D+00  -5  7  0 0.00000000D+00 0.00000000D+00 0.00000000D+00 0.00000000D+00 0.00000000D+00
  <mgrwgt>
 -.4083773636D-03    3    2    0
 0.229330548132186D+03 0.000000000000000D+00 0.000000000000000D+00 0.229330548132186D+03
 0.229330548132186D+03 0.000000000000000D+00 0.000000000000000D+00 -.229330548132186D+03
 0.138472153575346D+03 0.390855400209371D+02 0.100976736564017D+03 -.313582619986585D+02
 0.680815355328601D+02 -.455471488029307D+02 0.132118556931035D+01 -.505846536523403D+02
 0.561610447462412D+02 0.402806331918472D+02 0.284559982590500D+02 -.268661441173478D+02
 0.195946362409926D+03 -.338190244098536D+02 -.130753920392377D+03 0.108809059768347D+03
 0.000000000000000D+00 -.000000000000000D+00 0.000000000000000D+00 0.000000000000000D+00
 0.234872808486304D+03 0.000000000000000D+00 0.000000000000000D+00 0.234872808486304D+03
 0.234709610599310D+03 0.000000000000000D+00 0.000000000000000D+00 -.234709610599310D+03
 0.137212351883014D+03 0.410916500163575D+02 0.984283966051170D+02 -.313582619986585D+02
 0.674129845039556D+02 -.445611778630020D+02 0.687172847846684D-01 -.505846536523403D+02
 0.562367548110386D+02 0.410985331633390D+02 0.274170287187489D+02 -.268661441173478D+02
 0.197925978153270D+03 -.309528813235393D+02 -.134394751140168D+03 0.108809059768347D+03
 0.107943497343358D+02 -.667612399315510D+01 0.848060853151798D+01 0.163197886994140D+00
-.138227228653D-04 0.000000000000D+00 0.000000000000D+00 0.468851387918D-06 0.000000000000D+00  7 -2 1 -24 -11 11 23 21 2 0.35238370D-02 0.36570305D+00 0.40738073D+05 0.40738073D+05 0.40738073D+05 0.11552043D+01  1  2 13  2  7  2        1 -.108230736290D-02 0.100000000000D+01
-.143563520771D-04 0.000000000000D+00 0.000000000000D+00 0.468851387918D-06 0.000000000000D+00  7 -2 1 -24 -11 11 23 21 2 0.35238370D-02 0.35324929D+00 0.38556841D+05 0.38556841D+05 0.38556841D+05 0.11573576D+01  1  2  8  2  7  2        1 -.127773495355D-02 0.100000000000D+01
0.247670651304D-04 0.000000000000D+00 0.000000000000D+00 0.468851387918D-06 0.286626978960D-07  7 -2 1 -24 -11 11 23 21 2 0.36089980D-02 0.36153492D+00 0.40738073D+05 0.40738073D+05 0.40738073D+05 0.11552043D+01  1  2  1  2  7  2        1 0.195166495289D-02 0.100000000000D+01
  </mgrwgt>
  </event>
  <event>
  8     66 0.26562228E-05 0.27187017E+03 0.75467711E-02 0.96096532E-01
       -2 -1    0    0    0  501 0.00000000E+00 0.00000000E+00 0.50195335E+03 0.50195345E+03 0.32000000E+00 0.0000E+00 0.9000E+01
        1 -1    0    0  501    0 0.00000000E+00 0.00000000E+00 -.25119620E+03 0.25119641E+03 0.32000000E+00 0.0000E+00 0.9000E+01
       25  2    1    2    0    0 0.15585345E+03 -.16486650E+03 -.37573439E+02 0.37755299E+03 0.29943820E+03 0.0000E+00 0.0000E+00
       23  2    3    3    0    0 0.13218476E+03 -.84380301E+02 0.88418588E+02 0.20084001E+03 0.89028185E+02 0.0000E+00 0.0000E+00
      -24  1    1    2    0    0 -.15585345E+03 0.16486650E+03 0.28833059E+03 0.37559686E+03 0.80419002E+02 0.0000E+00 0.9000E+01
      -13  1    4    4    0    0 -.30670417E+01 -.35012960E+02 0.84734091E+01 0.36154169E+02 0.10565837E+00 0.0000E+00 0.9000E+01
       13  1    4    4    0    0 0.13525180E+03 -.49367341E+02 0.79945178E+02 0.16468584E+03 0.10565837E+00 0.0000E+00 0.9000E+01
       23  1    3    3    0    0 0.23668696E+02 -.80486201E+02 -.12599203E+03 0.17671298E+03 0.91188000E+02 0.0000E+00 0.9000E+01
#aMCatNLO 1  0  0  1  2 0.26550701D+03 0.00000000D+00  -5  7  0 0.00000000D+00 0.00000000D+00 0.00000000D+00 0.00000000D+00 0.00000000D+00
  <mgrwgt>
 0.1594913168D-02    3    2    0
 0.355089973530035D+03 0.000000000000000D+00 0.000000000000000D+00 0.355089973530035D+03
 0.355089973530035D+03 0.000000000000000D+00 0.000000000000000D+00 -.355089973530035D+03
 0.296516072894187D+03 -.155853451372160D+03 0.164866502331881D+03 0.173156875793189D+03
 0.353496719048613D+02 -.306723638631411D+01 -.350129397405012D+02 -.377960519893908D+01
 0.146422611175112D+03 0.135251991915753D+03 -.493673610019637D+02 0.266335017198432D+02
 0.231891591085909D+03 0.236686958427210D+02 -.804862015894159D+02 -.196010772314093D+03
 0.000000000000000D+00 0.000000000000000D+00 0.000000000000000D+00 -.000000000000000D+00
 0.407632335462669D+03 0.000000000000000D+00 0.000000000000000D+00 0.407632335462669D+03
 0.996635116263439D+03 0.000000000000000D+00 0.000000000000000D+00 -.996635116263439D+03
 0.343690877164884D+03 -.260992934084741D+03 0.116428466516471D+03 0.173156875793189D+03
 0.442580541465202D+02 -.161410012621794D+02 -.410360575546773D+02 -.377960519893908D+01
 0.118117892509960D+03 0.918072093944018D+02 -.693824864093680D+02 0.266335017198432D+02
 0.252121495211136D+03 -.558194845256672D+02 -.117106615046377D+03 -.196010772314093D+03
 0.646079132693608D+03 0.241146210478186D+03 0.111096692493952D+03 -.589002780800770D+03
0.817077187426D-04 0.000000000000D+00 0.000000000000D+00 0.836125611450D-06 0.000000000000D+00  7 -2 1 -24 -13 13 23 21 0 0.77223615D-01 0.38645593D-01 0.73913390D+05 0.73913390D+05 0.73913390D+05 0.11326567D+01  1  2  2  1  7  1       -2 0.156989027695D-02 0.100000000000D+01
-.414572587862D-05 0.000000000000D+00 -.313779154108D-06 0.836125611450D-06 0.000000000000D+00  7 -2 1 -24 -13 13 23 21 2 0.77223615D-01 0.38645593D-01 0.73913390D+05 0.73913390D+05 0.73913390D+05 0.11326567D+01  1  2  3  1  7  1       -2 -.102188823956D-03 0.100000000000D+01
0.516088625664D-05 0.000000000000D+00 0.000000000000D+00 0.836125611450D-06 0.000000000000D+00  7 -2 1 -24 -13 13 23 21 2 0.77223615D-01 0.38645593D-01 0.73913390D+05 0.73913390D+05 0.73913390D+05 0.11326567D+01  1  2 15  1  7  1       -2 0.127211714566D-03 0.100000000000D+01
  </mgrwgt>
  </event>
  <event>
  8     66 0.26562228E-05 0.37362231E+03 0.75467711E-02 0.90989461E-01
       -2 -1    0    0    0  501 0.00000000E+00 0.00000000E+00 0.13916336E+04 0.13916336E+04 0.32000000E+00 0.0000E+00 0.9000E+01
        1 -1    0    0  501    0 0.00000000E+00 0.00000000E+00 -.11531637E+03 0.11531681E+03 0.32000000E+00 0.0000E+00 0.9000E+01
       25  2    1    2    0    0 0.31173762E+03 0.32674361E+02 0.96223704E+03 0.10559942E+04 0.30162170E+03 0.0000E+00 0.0000E+00
       23  2    3    3    0    0 0.38809894E+02 0.87646792E+02 0.20865431E+03 0.24746856E+03 0.92281628E+02 0.0000E+00 0.0000E+00
      -24  1    1    2    0    0 -.31173762E+03 -.32674361E+02 0.31408016E+03 0.45095623E+03 0.80419002E+02 0.0000E+00 0.9000E+01
      -13  1    4    4    0    0 0.93890443E+01 0.98782249E+02 0.13650363E+03 0.16875823E+03 0.10565837E+00 0.0000E+00 0.9000E+01
       13  1    4    4    0    0 0.29420850E+02 -.11135457E+02 0.72150676E+02 0.78710329E+02 0.10565837E+00 0.0000E+00 0.9000E+01
       23  1    3    3    0    0 0.27292773E+03 -.54972431E+02 0.75358273E+03 0.80852563E+03 0.91188000E+02 0.0000E+00 0.9000E+01
#aMCatNLO 1  0  0  2  1 0.50470206D+03 0.00000000D+00  -5  7  0 0.00000000D+00 0.00000000D+00 0.00000000D+00 0.00000000D+00 0.00000000D+00
  <mgrwgt>
 0.1440055081D-02    5    2    0
 0.400597670795534D+03 0.000000000000000D+00 0.000000000000000D+00 0.400597670795534D+03
 0.400597670795534D+03 0.000000000000000D+00 0.000000000000000D+00 -.400597670795534D+03
 0.347858702349258D+03 -.311737623867816D+03 -.326743606026085D+02 -.127634246463078D+03
 0.999611635681529D+02 0.938901864915163D+01 0.987823917191874D+02 -.120879955717193D+02
 0.331072141547911D+02 0.294208763217160D+02 -.111356010237773D+02 0.103197895033157D+02
 0.320268261518866D+03 0.272927728896948D+03 -.549724300928016D+02 0.129402452531482D+03
 0.000000000000000D+00 -.000000000000000D+00 0.000000000000000D+00 -.000000000000000D+00
 0.604403214755957D+03 0.000000000000000D+00 0.000000000000000D+00 0.604403214755957D+03
 0.959761573149843D+03 0.000000000000000D+00 0.000000000000000D+00 -.959761573149843D+03
 0.230661799197804D+03 -.152847554804091D+03 -.841710982167289D+02 -.127634246463078D+03
 0.104582243188646D+03 0.655666578844201D+02 0.805750540011891D+02 -.120879955717193D+02
 0.589216269548503D+02 0.546965042046736D+02 -.193275061868292D+02 0.103197895033157D+02
 0.552744118916133D+03 0.512699693848687D+03 -.132683227495688D+03 0.129402452531482D+03
 0.617254999648368D+03 -.480115301133690D+03 0.155606777898057D+03 -.355358358393886D+03
0.379949493889D-03 0.000000000000D+00 0.000000000000D+00 0.573502298296D-06 0.000000000000D+00  7 -2 1 -24 -13 13 23 21 0 0.21409751D+00 0.17741017D-01 0.13959363D+06 0.13959363D+06 0.13959363D+06 0.11100245D+01  1  2  2  2  7  2        1 0.136024770814D-02 0.100000000000D+01
-.209835806095D-04 0.000000000000D+00 -.145910609953D-05 0.573502298296D-06 0.000000000000D+00  7 -2 1 -24 -13 13 23 21 2 0.21409751D+00 0.17741017D-01 0.13959363D+06 0.13959363D+06 0.13959363D+06 0.11100245D+01  1  2  3  2  7  2        1 -.925628807557D-04 0.100000000000D+01
0.245034215286D-04 0.000000000000D+00 0.000000000000D+00 0.573502298296D-06 0.000000000000D+00  7 -2 1 -24 -13 13 23 21 2 0.21409751D+00 0.17741017D-01 0.13959363D+06 0.13959363D+06 0.13959363D+06 0.11100245D+01  1  2 15  2  7  2        1 0.108089621465D-03 0.100000000000D+01
0.431884875005D-04 0.000000000000D+00 -.143020981390D-03 0.573502298296D-06 0.000000000000D+00  7 -2 1 -24 -13 13 23 21 2 0.21409751D+00 0.64579265D-01 0.13959363D+06 0.13959363D+06 0.13959363D+06 0.11100245D+01  1  2  5  2  7  2        1 0.348582417112D-04 0.100000000000D+01
0.103416875601D-04 0.000000000000D+00 -.217560325759D-04 0.573502298296D-06 0.000000000000D+00  7 -2 21 -24 -13 13 23 -1 2 0.21409751D+00 0.64579265D-01 0.13959363D+06 0.13959363D+06 0.13959363D+06 0.11100245D+01  1  2  5  4  7  2        1 0.294223901131D-04 0.100000000000D+01
  </mgrwgt>
  </event>
  <event>
  9     66 0.26562228E-05 0.23272410E+03 0.75467711E-02 0.97528330E-01
       21 -1    0    0  502  501 0.00000000E+00 0.00000000E+00 0.18348112E+03 0.18348266E+03 0.75000000E+00 0.0000E+00 0.9000E+01
        1 -1    0    0  501    0 0.00000000E+00 0.00000000E+00 -.18047452E+04 0.18047453E+04 0.32000000E+00 0.0000E+00 0.9000E+01
       25  2    1    2    0    0 0.20796129E+03 0.48417302E+02 -.18597810E+03 0.41260856E+03 0.30010970E+03 0.0000E+00 0.0000E+00
       23  2    3    3    0    0 0.49429897E+02 -.60174956E+02 0.63824753E+01 0.12582933E+03 0.98630344E+02 0.0000E+00 0.0000E+00
      -24  1    1    2    0    0 -.33773922E+02 -.20462625E+03 -.12695621E+04 0.12889017E+04 0.80419002E+02 0.0000E+00 0.9000E+01
      -13  1    4    4    0    0 0.92815701E+01 0.19655991E+02 -.23113080E+02 0.31729027E+02 0.10565837E+00 0.0000E+00 0.9000E+01
       13  1    4    4    0    0 0.40148327E+02 -.79830948E+02 0.29495556E+02 0.94100304E+02 0.10565837E+00 0.0000E+00 0.9000E+01
       23  1    3    3    0    0 0.15853140E+03 0.10859226E+03 -.19236058E+03 0.28677923E+03 0.91188000E+02 0.0000E+00 0.9000E+01
        2  1    1    2  502    0 -.17418737E+03 0.15620895E+03 -.16572394E+03 0.28671764E+03 0.32000000E+00 0.0000E+00 0.9000E+01
#aMCatNLO 2  0  0  1  1 0.23397110D+03 0.00000000D+00  -5  7  0 0.00000000D+00 0.00000000D+00 0.00000000D+00 0.00000000D+00 0.00000000D+00
  <mgrwgt>
 0.2931544973D-03    1    2    0
 0.424793353813520D+03 0.000000000000000D+00 0.000000000000000D+00 0.424793353813520D+03
 0.424793353813520D+03 0.000000000000000D+00 0.000000000000000D+00 -.424793353813520D+03
 0.375593773981776D+03 -.110995162649852D+03 -.135375257197466D+03 -.322423759525497D+03
 0.256580870328501D+02 0.437579291477721D+01 0.240555040973004D+02 0.777962654483203D+01
 0.216082884707687D+03 -.478701193451724D+01 -.395336115447774D+02 0.212381710932370D+03
 0.232251961904727D+03 0.111406381669592D+03 0.150853364644943D+03 0.102262422048295D+03
 0.000000000000000D+00 -.000000000000000D+00 0.000000000000000D+00 0.000000000000000D+00
 0.657344085999832D+03 0.000000000000000D+00 0.000000000000000D+00 0.657344085999832D+03
 0.503751583338963D+03 0.000000000000000D+00 0.000000000000000D+00 -.503751583338963D+03
 0.391710196077334D+03 -.337739223521871D+02 -.204626252516547D+03 -.322423759525497D+03
 0.230874804768174D+02 0.928153213807372D+01 0.196561015148039D+02 0.777962654483203D+01
 0.230414583707858D+03 0.401483587219904D+02 -.798310624922089D+02 0.212381710932370D+03
 0.236002838673618D+03 0.158531403677767D+03 0.108592263088946D+03 0.102262422048295D+03
 0.279880570403169D+03 -.174187372185645D+03 0.156208950405007D+03 0.153592502660869D+03
0.385705292385D-05 0.000000000000D+00 0.000000000000D+00 0.469916700163D-06 0.364348302668D-11  7 21 1 -24 -13 13 23 2 2 0.28227980D-01 0.27765319D+00 0.15217937D+06 0.15217937D+06 0.15217937D+06 0.11070579D+01  1  2  1  3  7  1       -2 0.293154497282D-03 0.100000000000D+01
  </mgrwgt>
  </event>
  <event>
  8     66 0.26562228E-05 0.18490306E+03 0.75467711E-02 0.10219491E+00
       -2 -1    0    0    0  501 0.00000000E+00 0.00000000E+00 0.69739199E+02 0.69739933E+02 0.32000000E+00 0.0000E+00 0.9000E+01
        1 -1    0    0  501    0 0.00000000E+00 0.00000000E+00 -.15005522E+04 0.15005522E+04 0.32000000E+00 0.0000E+00 0.9000E+01
       25  2    1    2    0    0 0.14536146E+02 -.73182885E+02 -.28689391E+03 0.42112502E+03 0.29911725E+03 0.0000E+00 0.0000E+00
       23  2    3    3    0    0 0.13718466E+02 -.13994629E+03 -.81859489E+02 0.18700457E+03 0.92176855E+02 0.0000E+00 0.0000E+00
      -24  1    1    2    0    0 -.14536146E+02 0.73182885E+02 -.11439191E+04 0.11491671E+04 0.80419002E+02 0.0000E+00 0.9000E+01
      -11  1    4    4    0    0 0.28937856E+02 -.10610649E+03 -.15626437E+02 0.11108633E+03 0.51099893E-03 0.0000E+00 0.9000E+01
       11  1    4    4    0    0 -.15219390E+02 -.33839795E+02 -.66233052E+02 0.75918237E+02 0.51099893E-03 0.0000E+00 0.9000E+01
       23  1    3    3    0    0 0.81767965E+00 0.66763403E+02 -.20503442E+03 0.23412045E+03 0.91188000E+02 0.0000E+00 0.9000E+01
#aMCatNLO 1  0  0  2  2 0.14105360D+03 0.00000000D+00  -5  7  0 0.00000000D+00 0.00000000D+00 0.00000000D+00 0.00000000D+00 0.00000000D+00
  <mgrwgt>
 0.1316651245D-02    7    2    0
 0.323493293160118D+03 0.000000000000000D+00 0.000000000000000D+00 0.323493293160118D+03
 0.323493293160118D+03 0.000000000000000D+00 0.000000000000000D+00 -.323493293160118D+03
 0.259346742772521D+03 -.145361458966708D+02 0.731828845756112D+02 -.235003155085223D+03
 0.235058170214301D+03 0.289378558008151D+02 -.106106492305608D+03 0.207741079656255D+03
 0.377854833339041D+02 -.152193895548142D+02 -.338397948728055D+02 0.714011311689168D+01
 0.114796189999510D+03 0.817679650669846D+00 0.667634026028028D+02 0.201219623120766D+02
 0.000000000000000D+00 -.000000000000000D+00 0.000000000000000D+00 -.000000000000000D+00
 0.398224823226189D+03 0.000000000000000D+00 0.000000000000000D+00 0.398224823226189D+03
 0.405184456418815D+03 0.000000000000000D+00 0.000000000000000D+00 -.405184456418815D+03
 0.255511599975448D+03 0.351618659913487D+02 0.485399016031125D+02 -.235003155085223D+03
 0.256508398789802D+03 0.763875699488437D+02 -.129634646720205D+03 0.207741079656255D+03
 0.389777987452167D+02 -.780961838364169D+01 -.375139632723936D+02 0.714011311689168D+01
 0.111186287215308D+03 0.226312134066991D+02 0.559470636689422D+02 0.201219623120766D+02
 0.141225194919229D+03 -.126371030963250D+03 0.626616447205444D+02 -.695963319262604D+01
0.293123139681D-04 0.000000000000D+00 0.000000000000D+00 0.117461481880D-05 0.000000000000D+00  7 -2 1 -24 -11 11 23 21 0 0.10729167D-01 0.23085424D+00 0.34189143D+05 0.34189143D+05 0.34189143D+05 0.11621053D+01  1  2  2  2  7  2        1 0.121857271240D-02 0.100000000000D+01
-.100899053801D-05 0.000000000000D+00 -.112567003747D-06 0.117461481880D-05 0.000000000000D+00  7 -2 1 -24 -11 11 23 21 2 0.10729167D-01 0.23085424D+00 0.34189143D+05 0.34189143D+05 0.34189143D+05 0.11621053D+01  1  2  3  2  7  2        1 -.566473289281D-04 0.100000000000D+01
0.183580134318D-05 0.000000000000D+00 0.000000000000D+00 0.117461481880D-05 0.000000000000D+00  7 -2 1 -24 -11 11 23 21 2 0.10729167D-01 0.23085424D+00 0.34189143D+05 0.34189143D+05 0.34189143D+05 0.11621053D+01  1  2 15  2  7  2        1 0.103066618185D-03 0.100000000000D+01
-.118642472727D-04 0.000000000000D+00 0.000000000000D+00 0.117461481880D-05 0.000000000000D+00  7 -2 1 -24 -11 11 23 21 2 0.10729167D-01 0.23085424D+00 0.34189143D+05 0.34189143D+05 0.34189143D+05 0.11621053D+01  1  2  4  2  7  2        1 -.666089415531D-03 0.100000000000D+01
-.157811942223D-04 0.000000000000D+00 -.118081013155D-04 0.117461481880D-05 0.000000000000D+00  7 -2 1 -24 -11 11 23 21 2 0.10729167D-01 0.32366060D+00 0.34189143D+05 0.34189143D+05 0.34189143D+05 0.11621053D+01  1  2  5  2  7  2        1 -.361778195292D-03 0.100000000000D+01
0.193022327485D-04 0.000000000000D+00 0.111646118968D-04 0.117461481880D-05 0.000000000000D+00  7 -2 1 -24 -11 11 23 21 2 0.10729167D-01 0.23085424D+00 0.34189143D+05 0.34189143D+05 0.34189143D+05 0.11621053D+01  1  2  6  2  7  2        1 0.108367708750D-02 0.100000000000D+01
-.347535226372D-06 0.000000000000D+00 -.497327837994D-06 0.117461481880D-05 0.000000000000D+00  7 -2 21 -24 -11 11 23 -1 2 0.10729167D-01 0.32366060D+00 0.34189143D+05 0.34189143D+05 0.34189143D+05 0.11621053D+01  1  2  5  4  7  2        1 -.415023371922D-05 0.100000000000D+01
  </mgrwgt>
  </event>
  <event>
  9     66 -.26562228E-05 0.41573904E+03 0.75467711E-02 0.96635594E-01
       -2 -1    0    0    0  502 0.00000000E+00 0.00000000E+00 0.29624000E+03 0.29624017E+03 0.32000000E+00 0.0000E+00 0.9000E+01
        1 -1    0    0  501    0 0.00000000E+00 0.00000000E+00 -.14367114E+04 0.14367115E+04 0.32000000E+00 0.0000E+00 0.9000E+01
       25  2    1    2    0    0 -.35985769E+03 -.55810724E+02 0.42437610E+02 0.47011101E+03 0.29426352E+03 0.0000E+00 0.0000E+00
       23  2    3    3    0    0 -.29863458E+03 0.14660512E+02 0.87454988E+02 0.33206652E+03 0.11498809E+03 0.0000E+00 0.0000E+00
      -24  1    1    2    0    0 0.36888523E+03 0.55176249E+02 -.11910314E+04 0.12506573E+04 0.80419002E+02 0.0000E+00 0.9000E+01
      -11  1    4    4    0    0 -.19191955E+03 0.63654189E+02 0.44555178E+02 0.20705104E+03 0.51099893E-03 0.0000E+00 0.9000E+01
       11  1    4    4    0    0 -.10671502E+03 -.48993677E+02 0.42899810E+02 0.12501548E+03 0.51099893E-03 0.0000E+00 0.9000E+01
       23  1    3    3    0    0 -.61223108E+02 -.70471237E+02 -.45017378E+02 0.13804448E+03 0.91188000E+02 0.0000E+00 0.9000E+01
       21  1    1    2  501  502 -.90275409E+01 0.63447569E+00 0.81223230E+01 0.12183336E+02 0.75000000E+00 0.0000E+00 0.9000E+01
#aMCatNLO 2  0  0  1  2 0.90498097D+01 0.00000000D+00  -5  7  0 0.00000000D+00 0.00000000D+00 0.00000000D+00 0.00000000D+00 0.00000000D+00
  <mgrwgt>
 -.1994841087D-01    5    2    0
 0.640643042942178D+03 0.000000000000000D+00 0.000000000000000D+00 0.640643042942178D+03
 0.640643042942178D+03 0.000000000000000D+00 0.000000000000000D+00 -.640643042942178D+03
 0.609376097639051D+03 0.364582800296780D+03 0.554786328505706D+02 -.478407269430783D+03
 0.319394418341216D+03 -.194164977128107D+03 0.638120023049353D+02 0.245439981433752D+03
 0.207080543137997D+03 -.108171447940616D+03 -.488913161175534D+02 0.169678897936815D+03
 0.145435026766091D+03 -.622463752280565D+02 -.703993190379525D+02 0.632883900602169D+02
 0.000000000000000D+00 -.000000000000000D+00 0.000000000000000D+00 0.000000000000000D+00
 0.663388954716777D+03 0.000000000000000D+00 0.000000000000000D+00 0.663388954716777D+03
 0.641559806794938D+03 0.000000000000000D+00 0.000000000000000D+00 -.641559806794938D+03
 0.611932561480720D+03 0.368885226014241D+03 0.551762487868603D+02 -.478407269430783D+03
 0.318002760507210D+03 -.191919554569250D+03 0.636541890054893D+02 0.245439981433752D+03
 0.206347776519667D+03 -.106715022800633D+03 -.489936769207930D+02 0.169678897936815D+03
 0.145034946684782D+03 -.612231077071122D+02 -.704712365588036D+02 0.632883900602169D+02
 0.236307163193352D+02 -.902754093724608D+01 0.634475687246946D+00 0.218291479218391D+02
-.198272038811D-01 0.000000000000D+00 0.000000000000D+00 0.690138522785D-09 0.000000000000D+00  7 -2 1 -24 -11 11 23 21 2 0.45605860D-01 0.22071465D+00 0.17670771D+06 0.17670771D+06 0.17670771D+06 0.11019794D+01  1  2 13  1  7  1       -2 -.912885978538D-01 0.100000000000D+01
-.652886666766D-01 0.000000000000D+00 0.000000000000D+00 0.690138522785D-09 0.000000000000D+00  7 -2 1 -24 -11 11 23 21 2 0.44012329D-01 0.22071465D+00 0.17283895D+06 0.17283895D+06 0.17283895D+06 0.11027272D+01  1  2  8  1  7  1       -2 -.322611275568D+00 0.100000000000D+01
-.430431963411D-02 0.000000000000D+00 0.000000000000D+00 0.690138522785D-09 0.000000000000D+00  7 -2 1 -24 -11 11 23 21 2 0.45612544D-01 0.22071465D+00 0.17283895D+06 0.17283895D+06 0.17283895D+06 0.11027272D+01  1  2  9  1  7  1       -2 -.198589938354D-01 0.100000000000D+01
0.430157619260D-02 0.000000000000D+00 0.000000000000D+00 0.690138522785D-09 0.000000000000D+00  7 -2 1 -24 -11 11 23 21 2 0.44012329D-01 0.22071465D+00 0.17283895D+06 0.17283895D+06 0.17283895D+06 0.11027272D+01  1  2 10  1  7  1       -2 0.212554039328D-01 0.100000000000D+01
0.854201841829D-01 0.000000000000D+00 0.000000000000D+00 0.690138522785D-09 0.546163505957D-10  7 -2 1 -24 -11 11 23 21 2 0.45574978D-01 0.22103050D+00 0.17670771D+06 0.17670771D+06 0.17670771D+06 0.11019794D+01  1  2  1  1  7  1       -2 0.392555052458D+00 0.100000000000D+01
  </mgrwgt>
  </event>
  <event>
  8     66 0.26562228E-05 0.55281595E+03 0.75467711E-02 0.91244936E-01
       -2 -1    0    0    0  501 0.00000000E+00 0.00000000E+00 0.52050597E+03 0.52050607E+03 0.32000000E+00 0.0000E+00 0.9000E+01
        1 -1    0    0  501    0 0.00000000E+00 0.00000000E+00 -.14115222E+04 0.14115223E+04 0.32000000E+00 0.0000E+00 0.9000E+01
       25  2    1    2    0    0 -.52788150E+03 -.37224384E+03 -.10436189E+04 0.12634633E+04 0.29995811E+03 0.0000E+00 0.0000E+00
       23  2    3    3    0    0 -.17463383E+03 -.26679035E+03 -.51913212E+03 0.61592493E+03 0.90505834E+02 0.0000E+00 0.0000E+00
      -24  1    1    2    0    0 0.52788150E+03 0.37224384E+03 0.15260265E+03 0.66856499E+03 0.80419002E+02 0.0000E+00 0.9000E+01
      -11  1    4    4    0    0 -.73133306E+02 -.79322339E+02 -.10716966E+03 0.15207186E+03 0.51099893E-03 0.0000E+00 0.9000E+01
       11  1    4    4    0    0 -.10150052E+03 -.18746801E+03 -.41196246E+03 0.46385308E+03 0.51099893E-03 0.0000E+00 0.9000E+01
       23  1    3    3    0    0 -.35324767E+03 -.10545349E+03 -.52448678E+03 0.64753841E+03 0.91188000E+02 0.0000E+00 0.9000E+01
#aMCatNLO 1  0  0  1  2 0.10604773D+02 0.00000000D+00  -5  7  0 0.00000000D+00 0.00000000D+00 0.00000000D+00 0.00000000D+00 0.00000000D+00
  <mgrwgt>
 0.2147072678D-02    9    2    0
 0.857149857080762D+03 0.000000000000000D+00 0.000000000000000D+00 0.857149857080762D+03
 0.857149857080762D+03 0.000000000000000D+00 0.000000000000000D+00 -.857149857080762D+03
 0.832793658161130D+03 0.527881502684113D+03 0.372243837276417D+03 0.519474451588062D+03
 0.115684104846078D+03 -.731333057465865D+02 -.793223390791078D+02 -.417408460339965D+02
 0.308646172634902D+03 -.101500522916782D+03 -.187468012871952D+03 -.223194641243098D+03
 0.457175778519413D+03 -.353247674020744D+03 -.105453485325358D+03 -.254538964310968D+03
 0.000000000000000D+00 -.000000000000000D+00 0.000000000000000D+00 0.000000000000000D+00
 0.866583571492210D+03 0.000000000000000D+00 0.000000000000000D+00 0.866583571492210D+03
 0.860151748242818D+03 0.000000000000000D+00 0.000000000000000D+00 -.860151748242818D+03
 0.835047133512761D+03 0.532705351581246D+03 0.370415714809040D+03 0.519474451588062D+03
 0.115437163750197D+03 -.724648402178694D+02 -.795756714031034D+02 -.417408460339965D+02
 0.308475910106486D+03 -.997156381165720D+02 -.188144441191853D+03 -.223194641243098D+03
 0.455372307399784D+03 -.350608336921054D+03 -.106453730472711D+03 -.254538964310968D+03
 0.124028049657989D+02 -.991653632575089D+01 0.375812825862711D+01 0.643182324939184D+01
0.784640375548D-03 0.000000000000D+00 0.000000000000D+00 0.384861682763D-04 0.000000000000D+00  7 -2 1 -24 -11 11 23 21 0 0.80077853D-01 0.21715727D+00 0.45680826D+06 0.45680826D+06 0.45680826D+06 0.10712945D+01  1  2  2  1  7  1       -2 0.909892518060D-03 0.100000000000D+01
-.405989746240D-04 0.000000000000D+00 -.301322564266D-05 0.384861682763D-04 0.000000000000D+00  7 -2 1 -24 -11 11 23 21 2 0.80077853D-01 0.21715727D+00 0.45680826D+06 0.45680826D+06 0.45680826D+06 0.10712945D+01  1  2  3  1  7  1       -2 -.540321495526D-04 0.100000000000D+01
0.489656507091D-04 0.000000000000D+00 0.000000000000D+00 0.384861682763D-04 0.000000000000D+00  7 -2 1 -24 -11 11 23 21 2 0.80077853D-01 0.21715727D+00 0.45680826D+06 0.45680826D+06 0.45680826D+06 0.10712945D+01  1  2 15  1  7  1       -2 0.651671473616D-04 0.100000000000D+01
0.442062727975D-03 0.000000000000D+00 0.000000000000D+00 0.384861682763D-04 0.000000000000D+00  7 -2 1 -24 -11 11 23 21 2 0.81098381D-01 0.21715727D+00 0.46413756D+06 0.46413756D+06 0.46413756D+06 0.10708024D+01  1  2 12  1  7  1       -2 0.570669425029D-03 0.100000000000D+01
-.435096294954D-03 0.000000000000D+00 0.000000000000D+00 0.384861682763D-04 0.000000000000D+00  7 -2 1 -24 -11 11 23 21 2 0.80077853D-01 0.21715727D+00 0.45680826D+06 0.45680826D+06 0.45680826D+06 0.10712945D+01  1  2  4  1  7  1       -2 -.579058665802D-03 0.100000000000D+01
-.657189626259D-01 0.000000000000D+00 -.691661498403D-02 0.384861682763D-04 0.000000000000D+00  7 -2 1 -24 -11 11 23 21 2 0.81169271D-01 0.21715727D+00 0.45680826D+06 0.45680826D+06 0.45680826D+06 0.10712945D+01  1  2  5  1  7  1       -2 -.848215979067D-01 0.100000000000D+01
0.658071994570D-01 0.000000000000D+00 0.691598125628D-02 0.384861682763D-04 0.000000000000D+00  7 -2 1 -24 -11 11 23 21 2 0.80077853D-01 0.21715727D+00 0.45680826D+06 0.45680826D+06 0.45680826D+06 0.10712945D+01  1  2  6  1  7  1       -2 0.875811390713D-01 0.100000000000D+01
0.377945036335D-04 0.000000000000D+00 0.000000000000D+00 0.384861682763D-04 0.000000000000D+00  7 21 1 -24 -11 11 23 2 2 0.81098381D-01 0.21715727D+00 0.46413756D+06 0.46413756D+06 0.46413756D+06 0.10708024D+01  1  2 12  3  7  1       -2 0.460271074121D-03 0.100000000000D+01
-.163008466081D-03 0.000000000000D+00 -.172050666210D-04 0.384861682763D-04 0.000000000000D+00  7 21 1 -24 -11 11 23 2 2 0.81169271D-01 0.21715727D+00 0.45680826D+06 0.45680826D+06 0.45680826D+06 0.10712945D+01  1  2  5  3  7  1       -2 -.198537783608D-02 0.100000000000D+01
  </mgrwgt>
  </event>
  <event>
  8     66 0.26562228E-05 0.29532784E+03 0.75467711E-02 0.93542196E-01
       -2 -1    0    0    0  501 0.00000000E+00 0.00000000E+00 0.16104379E+03 0.16104411E+03 0.32000000E+00 0.0000E+00 0.9000E+01
        1 -1    0    0  501    0 0.00000000E+00 0.00000000E+00 -.58532863E+03 0.58532872E+03 0.32000000E+00 0.0000E+00 0.9000E+01
       25  2    1    2    0    0 0.20228274E+03 -.56977381E+02 -.35774395E+03 0.51172494E+03 0.29952788E+03 0.0000E+00 0.0000E+00
       23  2    3    3    0    0 0.23215351E+03 0.75955883E+01 -.24947930E+03 0.35330014E+03 0.92887662E+02 0.0000E+00 0.0000E+00
      -24  1    1    2    0    0 -.20228274E+03 0.56977381E+02 -.66540895E+02 0.23464790E+03 0.80419002E+02 0.0000E+00 0.9000E+01
      -11  1    4    4    0    0 0.70134493E+02 -.40481226E+02 -.87179698E+02 0.11898688E+03 0.51099893E-03 0.0000E+00 0.9000E+01
       11  1    4    4    0    0 0.16201902E+03 0.48076814E+02 -.16229961E+03 0.23431326E+03 0.51099893E-03 0.0000E+00 0.9000E+01
       23  1    3    3    0    0 -.29870776E+02 -.64572970E+02 -.10826464E+03 0.15842480E+03 0.91188000E+02 0.0000E+00 0.9000E+01
#aMCatNLO 1  0  0  1  2 0.39558260D+03 0.00000000D+00  -5  7  0 0.00000000D+00 0.00000000D+00 0.00000000D+00 0.00000000D+00 0.00000000D+00
  <mgrwgt>
 0.7777805823D-03    5    2    0
 0.307023930584344D+03 0.000000000000000D+00 0.000000000000000D+00 0.307023930584344D+03
 0.307023930584344D+03 0.000000000000000D+00 0.000000000000000D+00 -.307023930584344D+03
 0.239236272457270D+03 -.202282738827243D+03 0.569773814612874D+02 0.812529979708021D+02
 0.843900777108721D+02 0.701344931847024D+02 -.404812260985589D+02 -.237509666188413D+02
 0.172663725367313D+03 0.162019021381104D+03 0.480768143579016D+02 -.353725697345330D+02
 0.117757785633232D+03 -.298707757385632D+02 -.645729697206300D+02 -.221294616174278D+02
 0.000000000000000D+00 -.000000000000000D+00 -.000000000000000D+00 0.000000000000000D+00
 0.751323288606293D+03 0.000000000000000D+00 0.000000000000000D+00 0.751323288606293D+03
 0.466542696077324D+03 0.000000000000000D+00 0.000000000000000D+00 -.466542696077324D+03
 0.194628656333335D+03 -.947767430068525D+02 0.125811037741205D+03 0.812529979708021D+02
 0.124374508781264D+03 0.121863598889167D+03 -.736025033756548D+01 -.237509666188413D+02
 0.309994195117448D+03 0.281615275742921D+03 0.124651589581234D+03 -.353725697345330D+02
 0.101441115326609D+03 0.244438152013188D+02 -.297965662725252D+02 -.221294616174278D+02
 0.487427509124961D+03 -.333145946826554D+03 -.213305810712348D+03 0.284780592528970D+03
0.138502861780D-04 0.000000000000D+00 0.000000000000D+00 0.696364419472D-06 0.000000000000D+00  7 -2 1 -24 -11 11 23 21 0 0.24775999D-01 0.90050590D-01 0.87218532D+05 0.87218532D+05 0.87218532D+05 0.11266286D+01  1  2  2  1  7  1       -2 0.750914885123D-03 0.100000000000D+01
-.768049047410D-06 0.000000000000D+00 -.531887457876D-07 0.696364419472D-06 0.000000000000D+00  7 -2 1 -24 -11 11 23 21 2 0.24775999D-01 0.90050590D-01 0.87218532D+05 0.87218532D+05 0.87218532D+05 0.11266286D+01  1  2  3  1  7  1       -2 -.528545610678D-04 0.100000000000D+01
0.889258470136D-06 0.000000000000D+00 0.000000000000D+00 0.696364419472D-06 0.000000000000D+00  7 -2 1 -24 -11 11 23 21 2 0.24775999D-01 0.90050590D-01 0.87218532D+05 0.87218532D+05 0.87218532D+05 0.11266286D+01  1  2 15  1  7  1       -2 0.611957872657D-04 0.100000000000D+01
0.684939354465D-06 0.000000000000D+00 -.461985793788D-05 0.696364419472D-06 0.000000000000D+00  7 -2 1 -24 -11 11 23 21 2 0.87065637D-01 0.90050590D-01 0.87218532D+05 0.87218532D+05 0.87218532D+05 0.11266286D+01  1  2  5  1  7  1       -2 0.409357443820D-05 0.100000000000D+01
0.245792815154D-06 0.000000000000D+00 -.679730647739D-06 0.696364419472D-06 0.000000000000D+00  7 21 1 -24 -11 11 23 2 2 0.87065637D-01 0.90050590D-01 0.87218532D+05 0.87218532D+05 0.87218532D+05 0.11266286D+01  1  2  5  3  7  1       -2 0.144308965190D-04 0.100000000000D+01
  </mgrwgt>
  </event>
  <event>
  8     66 0.26562228E-05 0.32172328E+03 0.75467711E-02 0.99857554E-01
       -4 -1    0    0    0  501 0.00000000E+00 0.00000000E+00 0.26892706E+03 0.26893153E+03 0.15500000E+01 0.0000E+00 0.9000E+01
        3 -1    0    0  501    0 0.00000000E+00 0.00000000E+00 -.47153707E+03 0.47153734E+03 0.50000000E+00 0.0000E+00 0.9000E+01
       25  2    1    2    0    0 0.15612792E+02 0.28504586E+03 -.92861622E+02 0.42423030E+03 0.29975517E+03 0.0000E+00 0.0000E+00
       23  2    3    3    0    0 0.42892382E+02 0.18023642E+03 0.60996377E+02 0.21514484E+03 0.90784468E+02 0.0000E+00 0.0000E+00
      -24  1    1    2    0    0 -.15612792E+02 -.28504586E+03 -.10974839E+03 0.31623856E+03 0.80419002E+02 0.0000E+00 0.9000E+01
      -11  1    4    4    0    0 -.24173609E+02 0.19300981E+02 0.16752356E+01 0.30978987E+02 0.51099893E-03 0.0000E+00 0.9000E+01
       11  1    4    4    0    0 0.67065991E+02 0.16093544E+03 0.59321141E+02 0.18416585E+03 0.51099893E-03 0.0000E+00 0.9000E+01
       23  1    3    3    0    0 -.27279590E+02 0.10480944E+03 -.15385800E+03 0.20908546E+03 0.91188000E+02 0.0000E+00 0.9000E+01
#aMCatNLO 1  0  0  1  2 0.24998130D+01 0.00000000D+00  -5  7  0 0.00000000D+00 0.00000000D+00 0.00000000D+00 0.00000000D+00 0.00000000D+00
  <mgrwgt>
 0.1483809945D-03    6    2    0
 0.356105083073310D+03 0.000000000000000D+00 0.000000000000000D+00 0.356105083073310D+03
 0.356105083073310D+03 0.000000000000000D+00 0.000000000000000D+00 -.356105083073310D+03
 0.297564815283310D+03 -.156127918238605D+02 -.285045863315038D+03 -.241391772575101D+02
 0.326847274306930D+02 -.241736090251180D+02 0.193009811903049D+02 0.105546273743283D+02
 0.208348803714011D+03 0.670659911759938D+02 0.160935440238633D+03 0.114066475845616D+03
 0.173611819718606D+03 -.272795903270154D+02 0.104809441886100D+03 -.100481925962434D+03
 0.000000000000000D+00 -.000000000000000D+00 -.000000000000000D+00 -.000000000000000D+00
 0.356145391591568D+03 0.000000000000000D+00 0.000000000000000D+00 0.356145391591568D+03
 0.397095525541926D+03 0.000000000000000D+00 0.000000000000000D+00 -.397095525541926D+03
 0.296610454569644D+03 -.152471811744411D+02 -.284069303855951D+03 -.241391772575101D+02
 0.327186240647907D+02 -.241333647352128D+02 0.194084751652304D+02 0.105546273743283D+02
 0.208961636037794D+03 0.673227725478017D+02 0.161621312704204D+03 0.114066475845616D+03
 0.173923838554172D+03 -.270657430934391D+02 0.105380635693174D+03 -.100481925962434D+03
 0.410263639070935D+02 -.876483544708622D+00 -.234111970665782D+01 -.409501339503574D+02
0.339953680671D-04 0.000000000000D+00 0.000000000000D+00 0.435652118191D-05 0.000000000000D+00  7 -4 3 -24 -11 11 23 21 0 0.41373758D-01 0.72544529D-01 0.10350587D+06 0.10350587D+06 0.10350587D+06 0.11204961D+01  1  2  2  1  7  1       -4 0.117252564547D-03 0.100000000000D+01
-.186495861172D-05 0.000000000000D+00 -.130551164564D-06 0.435652118191D-05 0.000000000000D+00  7 -4 3 -24 -11 11 23 21 2 0.41373758D-01 0.72544529D-01 0.10350587D+06 0.10350587D+06 0.10350587D+06 0.11204961D+01  1  2  3  1  7  1       -4 -.807592856441D-05 0.100000000000D+01
0.215261627894D-05 0.000000000000D+00 0.000000000000D+00 0.435652118191D-05 0.000000000000D+00  7 -4 3 -24 -11 11 23 21 2 0.41373758D-01 0.72544529D-01 0.10350587D+06 0.10350587D+06 0.10350587D+06 0.11204961D+01  1  2 15  1  7  1       -4 0.932158772105D-05 0.100000000000D+01
-.634568430636D-06 0.000000000000D+00 0.000000000000D+00 0.435652118191D-05 0.000000000000D+00  7 -4 3 -24 -11 11 23 21 2 0.41373758D-01 0.72544529D-01 0.10350587D+06 0.10350587D+06 0.10350587D+06 0.11204961D+01  1  2  4  1  7  1       -4 -.274790511856D-05 0.100000000000D+01
0.635168378344D-06 0.000000000000D+00 0.000000000000D+00 0.435652118191D-05 0.469368873299D-05  7 -4 3 -24 -11 11 23 21 2 0.41378441D-01 0.80894964D-01 0.10437389D+06 0.10437389D+06 0.10437389D+06 0.11201996D+01  1  2 11  1  7  1       -4 0.216171678975D-05 0.100000000000D+01
0.427932903119D-06 0.000000000000D+00 0.000000000000D+00 0.435652118191D-05 0.105570496328D-09  7 21 3 -24 -11 11 23 4 2 0.41378441D-01 0.80894964D-01 0.10437389D+06 0.10437389D+06 0.10437389D+06 0.11201996D+01  1  2 11  3  7  1       -4 0.304689590942D-04 0.100000000000D+01
  </mgrwgt>
  </event>
  <event>
  8     66 0.26562228E-05 0.31395893E+03 0.75467711E-02 0.91671546E-01
       -2 -1    0    0    0  501 0.00000000E+00 0.00000000E+00 0.29417760E+03 0.29417777E+03 0.32000000E+00 0.0000E+00 0.9000E+01
        1 -1    0    0  501    0 0.00000000E+00 0.00000000E+00 -.41665447E+03 0.41665459E+03 0.32000000E+00 0.0000E+00 0.9000E+01
       25  2    1    2    0    0 -.37230646E+02 -.26384856E+03 0.12728778E+02 0.40139745E+03 0.29992617E+03 0.0000E+00 0.0000E+00
       23  2    3    3    0    0 -.77570692E+02 -.21848796E+03 0.92656807E+02 0.26579272E+03 0.91138810E+02 0.0000E+00 0.0000E+00
      -24  1    1    2    0    0 0.37230646E+02 0.26384856E+03 -.13520565E+03 0.30943492E+03 0.80419002E+02 0.0000E+00 0.9000E+01
      -11  1    4    4    0    0 -.31385054E+02 -.22331640E+02 0.44006165E+02 0.58483043E+02 0.51099893E-03 0.0000E+00 0.9000E+01
       11  1    4    4    0    0 -.46185638E+02 -.19615632E+03 0.48650642E+02 0.20730967E+03 0.51099893E-03 0.0000E+00 0.9000E+01
       23  1    3    3    0    0 0.40340046E+02 -.45360599E+02 -.79928030E+02 0.13560474E+03 0.91188000E+02 0.0000E+00 0.9000E+01
#aMCatNLO 1  0  0  2  2 0.50239151D+03 0.00000000D+00  -5  7  0 0.00000000D+00 0.00000000D+00 0.00000000D+00 0.00000000D+00 0.00000000D+00
  <mgrwgt>
 0.1120458651D-02    3    2    0
 0.350100724959985D+03 0.000000000000000D+00 0.000000000000000D+00 0.350100724959985D+03
 0.350100724959985D+03 0.000000000000000D+00 0.000000000000000D+00 -.350100724959985D+03
 0.290483243784381D+03 0.372306458609821D+02 0.263848559119212D+03 -.831331211047399D+02
 0.670683812272324D+02 -.313850543389332D+02 -.223316398134476D+02 0.549039523880206D+02
 0.218966989722158D+03 -.461856375334937D+02 -.196156320767986D+03 0.856511955338346D+02
 0.123682835186199D+03 0.403400460114448D+02 -.453605985377779D+02 -.574220268171154D+02
 0.000000000000000D+00 0.000000000000000D+00 -.000000000000000D+00 0.000000000000000D+00
 0.773305883524649D+03 0.000000000000000D+00 0.000000000000000D+00 0.773305883524649D+03
 0.615173299666216D+03 0.000000000000000D+00 0.000000000000000D+00 -.615173299666216D+03
 0.387887052816436D+03 -.171231752029345D+03 0.328264711872287D+03 -.831331211047399D+02
 0.993303138473106D+02 -.825191785110482D+02 -.653088348089033D+01 0.549039523880206D+02
 0.259607972465599D+03 -.193251163084708D+03 -.150712176142910D+03 0.856511955338346D+02
 0.114963093682069D+03 -.329955685163797D+02 -.226994462365831D+02 -.574220268171154D+02
 0.526690750379451D+03 0.479997662141481D+03 -.148322206011904D+03 0.158132583858434D+03
0.377773734770D-04 0.000000000000D+00 0.000000000000D+00 0.454552455365D-05 0.000000000000D+00  7 -2 1 -24 -11 11 23 21 0 0.45258115D-01 0.64100711D-01 0.98570211D+05 0.98570211D+05 0.98570211D+05 0.11222356D+01  1  2  2  2  7  2        1 0.110772700783D-02 0.100000000000D+01
-.206844840968D-05 0.000000000000D+00 -.145075061163D-06 0.454552455365D-05 0.000000000000D+00  7 -2 1 -24 -11 11 23 21 2 0.45258115D-01 0.64100711D-01 0.98570211D+05 0.98570211D+05 0.98570211D+05 0.11222356D+01  1  2  3  2  7  2        1 -.763860047102D-04 0.100000000000D+01
0.241320720340D-05 0.000000000000D+00 0.000000000000D+00 0.454552455365D-05 0.000000000000D+00  7 -2 1 -24 -11 11 23 21 2 0.45258115D-01 0.64100711D-01 0.98570211D+05 0.98570211D+05 0.98570211D+05 0.11222356D+01  1  2 15  2  7  2        1 0.891176477705D-04 0.100000000000D+01
  </mgrwgt>
  </event>
  <event>
  8     66 0.26562228E-05 0.21512909E+03 0.75467711E-02 0.10070570E+00
       -2 -1    0    0    0  501 0.00000000E+00 0.00000000E+00 0.83648078E+02 0.83648690E+02 0.32000000E+00 0.0000E+00 0.9000E+01
        1 -1    0    0  501    0 0.00000000E+00 0.00000000E+00 -.22089379E+04 0.22089379E+04 0.32000000E+00 0.0000E+00 0.9000E+01
       25  2    1    2    0    0 0.22289331E+03 0.10102924E+03 -.19296445E+04 0.19691169E+04 0.30660254E+03 0.0000E+00 0.0000E+00
       23  2    3    3    0    0 0.77579849E+02 0.12189076E+03 -.14307888E+04 0.14411742E+04 0.94607443E+02 0.0000E+00 0.0000E+00
      -24  1    1    2    0    0 -.22289331E+03 -.10102924E+03 -.19564527E+03 0.32346966E+03 0.80419002E+02 0.0000E+00 0.9000E+01
      -11  1    4    4    0    0 0.57511818E+02 0.12455566E+02 -.38288536E+03 0.38738089E+03 0.51099893E-03 0.0000E+00 0.9000E+01
       11  1    4    4    0    0 0.20068031E+02 0.10943520E+03 -.10479034E+04 0.10537933E+04 0.51099893E-03 0.0000E+00 0.9000E+01
       23  1    3    3    0    0 0.14531346E+03 -.20861519E+02 -.49885576E+03 0.52794273E+03 0.91188000E+02 0.0000E+00 0.9000E+01
#aMCatNLO 1  0  0  2  1 0.38778910D+01 0.00000000D+00  -5  7  0 0.00000000D+00 0.00000000D+00 0.00000000D+00 0.00000000D+00 0.00000000D+00
  <mgrwgt>
 0.2327628910D-02   11    2    0
 0.429853621273688D+03 0.000000000000000D+00 0.000000000000000D+00 0.429853621273688D+03
 0.429853621273688D+03 0.000000000000000D+00 0.000000000000000D+00 -.429853621273688D+03
 0.378942160427165D+03 -.222893310282762D+03 -.101029243015160D+03 0.277923747243400D+03
 0.864967359686009D+02 0.575118182225634D+02 0.124555655014276D+02 -.633950706758526D+02
 0.219625914046275D+03 0.200680310859774D+02 0.109435196464085D+03 -.189358797059607D+03
 0.174642432105335D+03 0.145313460974221D+03 -.208615189503524D+02 -.251698795079405D+02
 0.000000000000000D+00 0.000000000000000D+00 0.000000000000000D+00 -.000000000000000D+00
 0.430239824230888D+03 0.000000000000000D+00 0.000000000000000D+00 0.430239824230888D+03
 0.439704025213309D+03 0.000000000000000D+00 0.000000000000000D+00 -.439704025213309D+03
 0.380022266986016D+03 -.224570431710038D+03 -.101371689196610D+03 0.277923747243400D+03
 0.862322011704579D+02 0.571301305029242D+02 0.123776298791339D+02 -.633950706758526D+02
 0.219440702006259D+03 0.190978037562285D+02 0.109237088778614D+03 -.189358797059607D+03
 0.174020818363212D+03 0.144543002455819D+03 -.210188364667239D+02 -.251698795079405D+02
 0.102278609182528D+02 0.379949499506668D+01 0.775807005586256D+00 -.946420098242162D+01
0.609818219596D-04 0.000000000000D+00 0.000000000000D+00 0.108273291573D-07 0.000000000000D+00  7 -2 1 -24 -11 11 23 21 0 0.12868984D-01 0.33983664D+00 0.90156067D+05 0.90156067D+05 0.90156067D+05 0.11254340D+01  1  2  2  2  7  2        1 0.644435944015D-03 0.100000000000D+01
-.285759989713D-05 0.000000000000D+00 -.234186253207D-06 0.108273291573D-07 0.000000000000D+00  7 -2 1 -24 -11 11 23 21 2 0.12868984D-01 0.33983664D+00 0.90156067D+05 0.90156067D+05 0.90156067D+05 0.11254340D+01  1  2  3  2  7  2        1 -.382490697496D-04 0.100000000000D+01
0.378391555302D-05 0.000000000000D+00 0.000000000000D+00 0.108273291573D-07 0.000000000000D+00  7 -2 1 -24 -11 11 23 21 2 0.12868984D-01 0.33983664D+00 0.90156067D+05 0.90156067D+05 0.90156067D+05 0.11254340D+01  1  2 15  2  7  2        1 0.506478356398D-04 0.100000000000D+01
0.240813047419D-04 0.000000000000D+00 0.000000000000D+00 0.108273291573D-07 0.000000000000D+00  7 -2 1 -24 -11 11 23 21 2 0.12868984D-01 0.34777503D+00 0.91385411D+05 0.91385411D+05 0.91385411D+05 0.11249468D+01  1  2 12  2  7  2        1 0.297445294729D-03 0.100000000000D+01
-.314326529088D-02 0.000000000000D+00 0.000000000000D+00 0.108273291573D-07 0.000000000000D+00  7 -2 1 -24 -11 11 23 21 2 0.12868984D-01 0.33983664D+00 0.90156067D+05 0.90156067D+05 0.90156067D+05 0.11254340D+01  1  2  4  2  7  2        1 -.420727105545D-01 0.100000000000D+01
-.482850694509D-02 0.000000000000D+00 -.251970125446D-03 0.108273291573D-07 0.000000000000D+00  7 -2 1 -24 -11 11 23 21 2 0.12868984D-01 0.34772759D+00 0.90156067D+05 0.90156067D+05 0.90156067D+05 0.11254340D+01  1  2  5  2  7  2        1 -.597512621096D-01 0.100000000000D+01
0.483308378471D-02 0.000000000000D+00 0.251903758250D-03 0.108273291573D-07 0.000000000000D+00  7 -2 1 -24 -11 11 23 21 2 0.12868984D-01 0.33983664D+00 0.90156067D+05 0.90156067D+05 0.90156067D+05 0.11254340D+01  1  2  6  2  7  2        1 0.646909873467D-01 0.100000000000D+01
0.311987089776D-02 0.000000000000D+00 0.000000000000D+00 0.108273291573D-07 0.486103495063D-08  7 -2 1 -24 -11 11 23 21 2 0.12880546D-01 0.34762425D+00 0.91385411D+05 0.91385411D+05 0.91385411D+05 0.11249468D+01  1  2 11  2  7  2        1 0.385391774895D-01 0.100000000000D+01
0.119486137894D-05 0.000000000000D+00 0.000000000000D+00 0.108273291573D-07 0.000000000000D+00  7 -2 21 -24 -11 11 23 -1 2 0.12868984D-01 0.34777503D+00 0.91385411D+05 0.91385411D+05 0.91385411D+05 0.11249468D+01  1  2 12  4  7  2        1 0.644050207286D-05 0.100000000000D+01
-.201303121584D-04 0.000000000000D+00 -.104807172299D-05 0.108273291573D-07 0.000000000000D+00  7 -2 21 -24 -11 11 23 -1 2 0.12868984D-01 0.34772759D+00 0.90156067D+05 0.90156067D+05 0.90156067D+05 0.11254340D+01  1  2  5  4  7  2        1 -.108816039203D-03 0.100000000000D+01
0.128888433535D-04 0.000000000000D+00 0.000000000000D+00 0.108273291573D-07 0.199247483038D-10  7 -2 21 -24 -11 11 23 -1 2 0.12880546D-01 0.34762425D+00 0.91385411D+05 0.91385411D+05 0.91385411D+05 0.11249468D+01  1  2 11  4  7  2        1 0.695322702735D-04 0.100000000000D+01
  </mgrwgt>
  </event>
  <event>
  8     66 0.26562228E-05 0.21111724E+03 0.75467711E-02 0.10166851E+00
       -2 -1    0    0    0  501 0.00000000E+00 0.00000000E+00 0.11434842E+03 0.11434887E+03 0.32000000E+00 0.0000E+00 0.9000E+01
        1 -1    0    0  501    0 0.00000000E+00 0.00000000E+00 -.76312112E+03 0.76312118E+03 0.32000000E+00 0.0000E+00 0.9000E+01
       25  2    1    2    0    0 0.34416796E+02 0.96748595E+02 -.67386289E+03 0.74464859E+03 0.29977579E+03 0.0000E+00 0.0000E+00
       23  2    3    3    0    0 0.13061657E+03 0.16504360E+02 -.30647235E+03 0.34591986E+03 0.91663353E+02 0.0000E+00 0.0000E+00
      -24  1    1    2    0    0 -.34416796E+02 -.96748595E+02 0.25090195E+02 0.13282146E+03 0.80419002E+02 0.0000E+00 0.9000E+01
      -11  1    4    4    0    0 0.18421404E+01 -.58705678E+01 -.10861452E+03 0.10878865E+03 0.51099893E-03 0.0000E+00 0.9000E+01
       11  1    4    4    0    0 0.12877443E+03 0.22374928E+02 -.19785783E+03 0.23713121E+03 0.51099893E-03 0.0000E+00 0.9000E+01
       23  1    3    3    0    0 -.96199778E+02 0.80244235E+02 -.36739055E+03 0.39872873E+03 0.91188000E+02 0.0000E+00 0.9000E+01
#aMCatNLO 1  0  0  2  1 0.11487269D+03 0.00000000D+00  -5  7  0 0.00000000D+00 0.00000000D+00 0.00000000D+00 0.00000000D+00 0.00000000D+00
  <mgrwgt>
 0.1729305472D-02    3    2    0
 0.295401286954437D+03 0.000000000000000D+00 0.000000000000000D+00 0.295401286954437D+03
 0.295401286954437D+03 0.000000000000000D+00 0.000000000000000D+00 -.295401286954437D+03
 0.224820765108721D+03 -.344167959667811D+02 -.967485945272731D+02 0.183118415464089D+03
 0.423028787127595D+02 0.184214037174175D+01 -.587056784057478D+01 -.418530345311597D+02
 0.134919489310646D+03 0.128774434075044D+03 0.223749275250396D+02 -.334630593751780D+02
 0.188759440776748D+03 -.961997784800050D+02 0.802442348428083D+02 -.107802321557751D+03
 0.000000000000000D+00 -.000000000000000D+00 0.000000000000000D+00 0.000000000000000D+00
 0.660280014603862D+03 0.000000000000000D+00 0.000000000000000D+00 0.660280014603862D+03
 0.310113668206932D+03 0.000000000000000D+00 0.000000000000000D+00 -.310113668206932D+03
 0.243350882579976D+03 -.156505536791696D+02 -.137750289239404D+03 0.183118415464089D+03
 0.442820514586868D+02 0.531281995277806D+01 -.134535321039754D+02 -.418530345311597D+02
 0.143910611137723D+03 0.139951089577200D+03 -.204454920230498D+01 -.334630593751780D+02
 0.170323063973432D+03 -.818062770395568D+02 0.487963859418345D+02 -.107802321557751D+03
 0.368527073660976D+03 -.478070788112517D+02 0.104451984603850D+03 0.350166346396930D+03
0.261014303854D-04 0.000000000000D+00 0.000000000000D+00 0.418899514828D-05 0.000000000000D+00  7 -2 1 -24 -11 11 23 21 0 0.17592104D-01 0.11740329D+00 0.44570488D+05 0.44570488D+05 0.44570488D+05 0.11517126D+01  1  2  2  2  7  2        1 0.169493778502D-02 0.100000000000D+01
-.125112763948D-05 0.000000000000D+00 -.100236365345D-06 0.418899514828D-05 0.000000000000D+00  7 -2 1 -24 -11 11 23 21 2 0.17592104D-01 0.11740329D+00 0.44570488D+05 0.44570488D+05 0.44570488D+05 0.11517126D+01  1  2  3  2  7  2        1 -.107765394012D-03 0.100000000000D+01
0.165012737166D-05 0.000000000000D+00 0.000000000000D+00 0.418899514828D-05 0.000000000000D+00  7 -2 1 -24 -11 11 23 21 2 0.17592104D-01 0.11740329D+00 0.44570488D+05 0.44570488D+05 0.44570488D+05 0.11517126D+01  1  2 15  2  7  2        1 0.142133081202D-03 0.100000000000D+01
  </mgrwgt>
  </event>
  <event>
  8     66 0.26562228E-05 0.37019058E+03 0.75467711E-02 0.93807256E-01
       -2 -1    0    0    0  501 0.00000000E+00 0.00000000E+00 0.19855828E+04 0.19855828E+04 0.32000000E+00 0.0000E+00 0.9000E+01
        1 -1    0    0  501    0 0.00000000E+00 0.00000000E+00 -.15341949E+03 0.15341982E+03 0.32000000E+00 0.0000E+00 0.9000E+01
       25  2    1    2    0    0 0.44990417E+03 -.15767704E+03 0.63784886E+03 0.85054231E+03 0.29882310E+03 0.0000E+00 0.0000E+00
       23  2    3    3    0    0 0.24772898E+03 -.37431639E+02 0.49124886E+03 0.55875374E+03 0.90052855E+02 0.0000E+00 0.0000E+00
      -24  1    1    2    0    0 -.44990417E+03 0.15767704E+03 0.11943145E+04 0.12884604E+04 0.80419002E+02 0.0000E+00 0.9000E+01
      -11  1    4    4    0    0 0.21807376E+03 -.16916981E+02 0.46585938E+03 0.51465261E+03 0.51099893E-03 0.0000E+00 0.9000E+01
       11  1    4    4    0    0 0.29655223E+02 -.20514658E+02 0.25389485E+02 0.44101127E+02 0.51099893E-03 0.0000E+00 0.9000E+01
       23  1    3    3    0    0 0.20217519E+03 -.12024540E+03 0.14659999E+03 0.29178857E+03 0.91188000E+02 0.0000E+00 0.9000E+01
#aMCatNLO 1  0  0  1  2 0.79288879D+02 0.00000000D+00  -5  7  0 0.00000000D+00 0.00000000D+00 0.00000000D+00 0.00000000D+00 0.00000000D+00
  <mgrwgt>
 0.3279032972D-02    9    2    0
 0.551930689247297D+03 0.000000000000000D+00 0.000000000000000D+00 0.551930689247297D+03
 0.551930689247297D+03 0.000000000000000D+00 0.000000000000000D+00 -.551930689247297D+03
 0.514413282982561D+03 -.449904169982986D+03 0.157677041686511D+03 0.175721364982853D+03
 0.224043382512263D+03 0.218073760902879D+03 -.169169810123739D+02 0.485086364128798D+02
 0.433158961793362D+02 0.296552229806153D+02 -.205146584285914D+02 -.239996541922430D+02
 0.322088816820434D+03 0.202175186099491D+03 -.120245402245545D+03 -.200230347203490D+03
 0.000000000000000D+00 -.000000000000000D+00 0.000000000000000D+00 0.000000000000000D+00
 0.603549154346720D+03 0.000000000000000D+00 0.000000000000000D+00 0.603549154346720D+03
 0.584663245989326D+03 0.000000000000000D+00 0.000000000000000D+00 -.584663245989326D+03
 0.482110389811120D+03 -.414547716012632D+03 0.152431640569576D+03 0.175721364982853D+03
 0.240293277712815D+03 0.234548329648417D+03 -.193611096393938D+02 0.485086364128798D+02
 0.457507707882909D+02 0.328152899182179D+02 -.209834785952853D+02 -.239996541922430D+02
 0.338550883466120D+03 0.225614546138664D+03 -.123722811078252D+03 -.200230347203490D+03
 0.815070785577011D+02 -.784304496926660D+02 0.116357587433550D+02 0.188859083573938D+02
0.225048626412D-02 0.000000000000D+00 0.000000000000D+00 0.190057729609D-05 0.000000000000D+00  7 -2 1 -24 -11 11 23 21 0 0.30547431D+00 0.23603026D-01 0.24529521D+06 0.24529521D+06 0.24529521D+06 0.10910804D+01  1  2  2  1  7  1       -2 0.139644890068D-02 0.100000000000D+01
-.123243603189D-03 0.000000000000D+00 -.864245982088D-05 0.190057729609D-05 0.000000000000D+00  7 -2 1 -24 -11 11 23 21 2 0.30547431D+00 0.23603026D-01 0.24529521D+06 0.24529521D+06 0.24529521D+06 0.10910804D+01  1  2  3  1  7  1       -2 -.910388054241D-04 0.100000000000D+01
0.142091633120D-03 0.000000000000D+00 0.000000000000D+00 0.190057729609D-05 0.000000000000D+00  7 -2 1 -24 -11 11 23 21 2 0.30547431D+00 0.23603026D-01 0.24529521D+06 0.24529521D+06 0.24529521D+06 0.10910804D+01  1  2 15  1  7  1       -2 0.104961654847D-03 0.100000000000D+01
0.283080821814D-02 0.000000000000D+00 0.000000000000D+00 0.190057729609D-05 0.000000000000D+00  7 -2 1 -24 -11 11 23 21 2 0.34240479D+00 0.23603026D-01 0.28918756D+06 0.28918756D+06 0.28918756D+06 0.10857333D+01  1  2 12  1  7  1       -2 0.117681289243D-02 0.100000000000D+01
-.255084901225D-02 0.000000000000D+00 0.000000000000D+00 0.190057729609D-05 0.000000000000D+00  7 -2 1 -24 -11 11 23 21 2 0.30547431D+00 0.23603026D-01 0.24529521D+06 0.24529521D+06 0.24529521D+06 0.10910804D+01  1  2  4  1  7  1       -2 -.188428641231D-02 0.100000000000D+01
-.867343179132D-02 0.000000000000D+00 -.185601441305D-02 0.190057729609D-05 0.000000000000D+00  7 -2 1 -24 -11 11 23 21 2 0.34293013D+00 0.23603026D-01 0.24529521D+06 0.24529521D+06 0.24529521D+06 0.10910804D+01  1  2  5  1  7  1       -2 -.364828009186D-02 0.100000000000D+01
0.884124321276D-02 0.000000000000D+00 0.184366884004D-02 0.190057729609D-05 0.000000000000D+00  7 -2 1 -24 -11 11 23 21 2 0.30547431D+00 0.23603026D-01 0.24529521D+06 0.24529521D+06 0.24529521D+06 0.10910804D+01  1  2  6  1  7  1       -2 0.653093710120D-02 0.100000000000D+01
0.514838536107D-04 0.000000000000D+00 0.000000000000D+00 0.190057729609D-05 0.000000000000D+00  7 21 1 -24 -11 11 23 2 2 0.34240479D+00 0.23603026D-01 0.28918756D+06 0.28918756D+06 0.28918756D+06 0.10857333D+01  1  2 12  3  7  1       -2 0.153473627362D-03 0.100000000000D+01
-.151514719678D-03 0.000000000000D+00 -.341387590297D-04 0.190057729609D-05 0.000000000000D+00  7 21 1 -24 -11 11 23 2 2 0.34293013D+00 0.23603026D-01 0.24529521D+06 0.24529521D+06 0.24529521D+06 0.10910804D+01  1  2  5  3  7  1       -2 -.459995894849D-03 0.100000000000D+01
  </mgrwgt>
  </event>
  <event>
  8     66 0.26562228E-05 0.30030830E+03 0.75467711E-02 0.96645505E-01
       -2 -1    0    0    0  501 0.00000000E+00 0.00000000E+00 0.91477185E+02 0.91477745E+02 0.32000000E+00 0.0000E+00 0.9000E+01
        1 -1    0    0  501    0 0.00000000E+00 0.00000000E+00 -.12041800E+04 0.12041801E+04 0.32000000E+00 0.0000E+00 0.9000E+01
       25  2    1    2    0    0 0.45217581E+02 -.24632987E+03 -.72357706E+03 0.82596735E+03 0.30973420E+03 0.0000E+00 0.0000E+00
       23  2    3    3    0    0 0.76533569E+02 -.11434155E+03 -.15194300E+03 0.23142353E+03 0.10741880E+03 0.0000E+00 0.0000E+00
      -24  1    1    2    0    0 -.45217581E+02 0.24632987E+03 -.38912578E+03 0.46969045E+03 0.80419002E+02 0.0000E+00 0.9000E+01
      -11  1    4    4    0    0 0.81962214E+02 -.13215110E+03 -.14045861E+03 0.20954794E+03 0.51099893E-03 0.0000E+00 0.9000E+01
       11  1    4    4    0    0 -.54286449E+01 0.17809551E+02 -.11484391E+02 0.21875592E+02 0.51099893E-03 0.0000E+00 0.9000E+01
       23  1    3    3    0    0 -.31315988E+02 -.13198832E+03 -.57163406E+03 0.59454382E+03 0.91188000E+02 0.0000E+00 0.9000E+01
#aMCatNLO 1  0  0  1  2 0.21004695D+03 0.00000000D+00  -5  7  0 0.00000000D+00 0.00000000D+00 0.00000000D+00 0.00000000D+00 0.00000000D+00
  <mgrwgt>
 0.1452298344D-02    3    2    0
 0.331896653850678D+03 0.000000000000000D+00 0.000000000000000D+00 0.331896653850678D+03
 0.331896653850678D+03 0.000000000000000D+00 0.000000000000000D+00 -.331896653850678D+03
 0.264505148060701D+03 -.452175814489319D+02 0.246329871508475D+03 0.277978798970423D+02
 0.173568688297531D+03 0.819622137160369D+02 -.132151103216827D+03 0.770997470726563D+02
 0.234479126271796D+02 -.542864482048399D+01 0.178095510674963D+02 0.142532211362597D+02
 0.202271558715944D+03 -.313159874466211D+02 -.131988319359144D+03 -.119150848105958D+03
 0.000000000000000D+00 0.000000000000000D+00 -.000000000000000D+00 -.000000000000000D+00
 0.375171156755765D+03 0.000000000000000D+00 0.000000000000000D+00 0.375171156755765D+03
 0.755812276949390D+03 0.000000000000000D+00 0.000000000000000D+00 -.755812276949390D+03
 0.322128883899497D+03 -.128030353247833D+03 0.283081805152556D+03 0.277978798970423D+02
 0.141382347843735D+03 0.375018400199476D+02 -.112419790420805D+03 0.770997470726563D+02
 0.284499933382923D+02 -.127548639100902D+02 0.210608939702197D+02 0.142532211362597D+02
 0.204272412542612D+03 -.887061681791599D+02 -.106518816669077D+03 -.119150848105958D+03
 0.434749796081019D+03 0.191989545317135D+03 -.852040920328941D+02 -.380641120193625D+03
0.339045054761D-04 0.000000000000D+00 0.000000000000D+00 0.821296636382D-10 0.000000000000D+00  7 -2 1 -24 -11 11 23 21 0 0.14073459D-01 0.18525851D+00 0.90185073D+05 0.90185073D+05 0.90185073D+05 0.11254225D+01  1  2  2  1  7  1       -2 0.143774086882D-02 0.100000000000D+01
-.186067557783D-05 0.000000000000D+00 -.130202228289D-06 0.821296636382D-10 0.000000000000D+00  7 -2 1 -24 -11 11 23 21 2 0.14073459D-01 0.18525851D+00 0.90185073D+05 0.90185073D+05 0.90185073D+05 0.11254225D+01  1  2  3  1  7  1       -2 -.999367032419D-04 0.100000000000D+01
0.213171452357D-05 0.000000000000D+00 0.000000000000D+00 0.821296636382D-10 0.000000000000D+00  7 -2 1 -24 -11 11 23 21 2 0.14073459D-01 0.18525851D+00 0.90185073D+05 0.90185073D+05 0.90185073D+05 0.11254225D+01  1  2 15  1  7  1       -2 0.114494178500D-03 0.100000000000D+01
  </mgrwgt>
  </event>
  <event>
  8     66 0.26562228E-05 0.15082601E+03 0.75467711E-02 0.10296449E+00
       -2 -1    0    0    0  501 0.00000000E+00 0.00000000E+00 0.10549173E+03 0.10549221E+03 0.32000000E+00 0.0000E+00 0.9000E+01
        1 -1    0    0  501    0 0.00000000E+00 0.00000000E+00 -.77953486E+03 0.77953493E+03 0.32000000E+00 0.0000E+00 0.9000E+01
       25  2    1    2    0    0 -.42212714E+02 0.45806914E+02 -.71320178E+03 0.77602804E+03 0.29947045E+03 0.0000E+00 0.0000E+00
       23  2    3    3    0    0 -.25127235E+02 -.29446021E+02 -.63300248E+02 0.11523899E+03 0.88174015E+02 0.0000E+00 0.0000E+00
      -24  1    1    2    0    0 0.42212714E+02 -.45806914E+02 0.39158652E+02 0.10899909E+03 0.80419002E+02 0.0000E+00 0.9000E+01
      -13  1    4    4    0    0 -.29578780E+02 -.50732108E+02 -.12586205E+02 0.60058928E+02 0.10565837E+00 0.0000E+00 0.9000E+01
       13  1    4    4    0    0 0.44515454E+01 0.21286087E+02 -.50714043E+02 0.55180061E+02 0.10565837E+00 0.0000E+00 0.9000E+01
       23  1    3    3    0    0 -.17085478E+02 0.75252935E+02 -.64990154E+03 0.66078906E+03 0.91188000E+02 0.0000E+00 0.9000E+01
#aMCatNLO 1  0  0  2  2 0.16949417D+03 0.00000000D+00  -5  7  0 0.00000000D+00 0.00000000D+00 0.00000000D+00 0.00000000D+00 0.00000000D+00
  <mgrwgt>
 0.9798585968D-03    5    2    0
 0.286765971770625D+03 0.000000000000000D+00 0.000000000000000D+00 0.286765971770625D+03
 0.286765971770625D+03 0.000000000000000D+00 0.000000000000000D+00 -.286765971770625D+03
 0.214219588486782D+03 0.422127136326418D+02 -.458069142735439D+02 0.188527529951412D+03
 0.778861212844576D+02 -.295788291266050D+02 -.507322112420019D+02 0.511623249934288D+02
 0.255475832607111D+02 0.445159408357675D+01 0.212861898772038D+02 -.134074770590764D+02
 0.255878650509300D+03 -.170854785896135D+02 0.752529356383420D+02 -.226282377885764D+03
 0.000000000000000D+00 0.000000000000000D+00 -.000000000000000D+00 -.000000000000000D+00
 0.326314708758264D+03 0.000000000000000D+00 0.000000000000000D+00 0.326314708758264D+03
 0.562218614957906D+03 0.000000000000000D+00 0.000000000000000D+00 -.562218614957906D+03
 0.205019547886528D+03 -.205930094079969D+01 -.435072307558071D+01 0.188527529951412D+03
 0.773489950188034D+02 -.459717913646729D+02 -.353818870385487D+02 0.511623249934288D+02
 0.299792998384085D+02 -.141209268729055D+01 0.267769298455600D+02 -.134074770590764D+02
 0.285704968720398D+03 -.742771761269449D+02 0.128807081996660D+03 -.226282377885764D+03
 0.290480512252033D+03 0.123720361119708D+03 -.115851401728091D+03 -.235903906199641D+03
0.160257800674D-04 0.000000000000D+00 0.000000000000D+00 0.412169364258D-06 0.000000000000D+00  7 -2 1 -24 -13 13 23 21 0 0.16229539D-01 0.11992848D+00 0.22748485D+05 0.22748485D+05 0.22748485D+05 0.11786523D+01  1  2  2  2  7  2        1 0.114895046630D-02 0.100000000000D+01
-.443403070138D-06 0.000000000000D+00 -.615432151438D-07 0.412169364258D-06 0.000000000000D+00  7 -2 1 -24 -13 13 23 21 2 0.16229539D-01 0.11992848D+00 0.22748485D+05 0.22748485D+05 0.22748485D+05 0.11786523D+01  1  2  3  2  7  2        1 -.441623573718D-04 0.100000000000D+01
0.996661886770D-06 0.000000000000D+00 0.000000000000D+00 0.412169364258D-06 0.000000000000D+00  7 -2 1 -24 -13 13 23 21 2 0.16229539D-01 0.11992848D+00 0.22748485D+05 0.22748485D+05 0.22748485D+05 0.11786523D+01  1  2 15  2  7  2        1 0.992662013113D-04 0.100000000000D+01
-.838657936579D-05 0.000000000000D+00 -.494550963035D-05 0.412169364258D-06 0.000000000000D+00  7 -2 1 -24 -13 13 23 21 2 0.16229539D-01 0.24829192D+00 0.22748485D+05 0.22748485D+05 0.22748485D+05 0.11786523D+01  1  2  5  2  7  2        1 -.216921330194D-03 0.100000000000D+01
-.356005327621D-06 0.000000000000D+00 -.389154787903D-06 0.412169364258D-06 0.000000000000D+00  7 -2 21 -24 -13 13 23 -1 2 0.16229539D-01 0.24829192D+00 0.22748485D+05 0.22748485D+05 0.22748485D+05 0.11786523D+01  1  2  5  4  7  2        1 -.727438324800D-05 0.100000000000D+01
  </mgrwgt>
  </event>
  <event>
  8     66 0.26562228E-05 0.29044481E+03 0.75467711E-02 0.97693480E-01
       -2 -1    0    0    0  501 0.00000000E+00 0.00000000E+00 0.37399846E+03 0.37399860E+03 0.32000000E+00 0.0000E+00 0.9000E+01
        1 -1    0    0  501    0 0.00000000E+00 0.00000000E+00 -.46617459E+03 0.46617470E+03 0.32000000E+00 0.0000E+00 0.9000E+01
       25  2    1    2    0    0 -.19932670E+03 -.82288741E+02 0.23680131E+03 0.43868116E+03 0.29977280E+03 0.0000E+00 0.0000E+00
       23  2    3    3    0    0 -.19831579E+03 0.32086655E+02 0.11961266E+03 0.25124802E+03 0.91976475E+02 0.0000E+00 0.0000E+00
      -24  1    1    2    0    0 0.19932670E+03 0.82288741E+02 -.32897743E+03 0.40149214E+03 0.80419002E+02 0.0000E+00 0.9000E+01
      -11  1    4    4    0    0 -.19521870E+03 0.36956642E+02 0.84910592E+02 0.21606930E+03 0.51099893E-03 0.0000E+00 0.9000E+01
       11  1    4    4    0    0 -.30970946E+01 -.48699865E+01 0.34702070E+02 0.35178722E+02 0.51099893E-03 0.0000E+00 0.9000E+01
       23  1    3    3    0    0 -.10109071E+01 -.11437540E+03 0.11718864E+03 0.18743314E+03 0.91188000E+02 0.0000E+00 0.9000E+01
#aMCatNLO 1  0  0  2  2 0.17278263D+03 0.00000000D+00  -5  7  0 0.00000000D+00 0.00000000D+00 0.00000000D+00 0.00000000D+00 0.00000000D+00
  <mgrwgt>
 0.2043346929D-02    3    2    0
 0.417550816693079D+03 0.000000000000000D+00 0.000000000000000D+00 0.417550816693079D+03
 0.417550816693079D+03 0.000000000000000D+00 0.000000000000000D+00 -.417550816693079D+03
 0.367618859426897D+03 0.199326700230736D+03 0.822887411798994D+02 -.286659797498910D+03
 0.226753701610626D+03 -.195218698579556D+03 0.369566416847811D+02 0.109275374876539D+03
 0.392226811706549D+02 -.309709459610205D+01 -.486998652510271D+01 0.387957466034997D+02
 0.201506391177980D+03 -.101090705507781D+01 -.114375396339578D+03 0.138588676018871D+03
 0.000000000000000D+00 0.000000000000000D+00 0.000000000000000D+00 0.000000000000000D+00
 0.915353595781126D+03 0.000000000000000D+00 0.000000000000000D+00 0.915353595781126D+03
 0.441658321473653D+03 0.000000000000000D+00 0.000000000000000D+00 -.441658321473653D+03
 0.341973787300689D+03 0.167374181833586D+03 0.170557614848410D+02 -.286659797498910D+03
 0.242456758989328D+03 -.216346955676915D+03 -.617796038611147D+01 0.109275374876539D+03
 0.412401533680387D+02 -.672028631425340D+01 -.122669493824200D+02 0.387957466034997D+02
 0.227118004451734D+03 -.203115987265400D+02 -.153778914154855D+03 0.138588676018871D+03
 0.504223213144988D+03 0.760046588841225D+02 0.155168062438545D+03 0.473695274307473D+03
0.127255599584D-03 0.000000000000D+00 0.000000000000D+00 0.915316924276D-05 0.000000000000D+00  7 -2 1 -24 -11 11 23 21 0 0.57538244D-01 0.71719187D-01 0.84358188D+05 0.84358188D+05 0.84358188D+05 0.11278350D+01  1  2  2  2  7  2        1 0.200403324051D-02 0.100000000000D+01
-.593714230628D-05 0.000000000000D+00 -.488695009573D-06 0.915316924276D-05 0.000000000000D+00  7 -2 1 -24 -11 11 23 21 2 0.57538244D-01 0.71719187D-01 0.84358188D+05 0.84358188D+05 0.84358188D+05 0.11278350D+01  1  2  3  2  7  2        1 -.118931431029D-03 0.100000000000D+01
0.789970984351D-05 0.000000000000D+00 0.000000000000D+00 0.915316924276D-05 0.000000000000D+00  7 -2 1 -24 -11 11 23 21 2 0.57538244D-01 0.71719187D-01 0.84358188D+05 0.84358188D+05 0.84358188D+05 0.11278350D+01  1  2 15  2  7  2        1 0.158245119947D-03 0.100000000000D+01
  </mgrwgt>
  </event>
  <event>
  7     66 0.26562228E-05 0.75748344E+03 0.75467711E-02 0.81286678E-01
       -2 -1    0    0    0  501 0.00000000E+00 0.00000000E+00 0.21797513E+04 0.21797513E+04 0.32000000E+00 0.0000E+00 0.9000E+01
        1 -1    0    0  501    0 0.00000000E+00 0.00000000E+00 -.16917481E+04 0.16917482E+04 0.32000000E+00 0.0000E+00 0.9000E+01
       25  2    1    2    0    0 -.75119485E+03 0.16907609E+04 0.71429349E+03 0.20058520E+04 0.30043461E+03 0.0000E+00 0.0000E+00
      -24  1    1    2    0    0 0.75119485E+03 -.16907609E+04 -.22629034E+03 0.18656475E+04 0.80419002E+02 0.0000E+00 0.9000E+01
      -13  1    3    3    0    0 -.21697087E+03 0.34750102E+03 0.16557296E+03 0.44186846E+03 0.10565837E+00 0.0000E+00 0.9000E+01
       13  1    3    3    0    0 -.35499116E+03 0.95632986E+03 0.45986599E+03 0.11189559E+04 0.10565837E+00 0.0000E+00 0.9000E+01
       23  1    3    3    0    0 -.17923283E+03 0.38693000E+03 0.88854545E+02 0.44502766E+03 0.91188000E+02 0.0000E+00 0.9000E+01
#aMCatNLO 1  0  0  1  2 0.22316801D+03 0.00000000D+00  -5  7  0 0.00000000D+00 0.00000000D+00 0.00000000D+00 0.00000000D+00 0.00000000D+00
  <mgrwgt>
 0.6791059835D-03    9    2    0
 0.192030995370550D+04 0.000000000000000D+00 0.000000000000000D+00 0.192030995370550D+04
 0.192030995370550D+04 0.000000000000000D+00 0.000000000000000D+00 -.192030995370550D+04
 0.190940107161930D+04 0.751194851916469D+03 -.169076088376472D+04 -.465165738991902D+03
 0.424382488742789D+03 -.216970783533436D+03 0.347500640647838D+03 0.110758659226954D+03
 0.106952073393622D+04 -.354991242360581D+03 0.956330239543662D+03 0.321384957801595D+03
 0.437315613112691D+03 -.179232826022452D+03 0.386930003573220D+03 0.330221219633530D+02
 0.000000000000000D+00 0.000000000000000D+00 0.000000000000000D+00 0.000000000000000D+00
 0.207701489102911D+04 0.000000000000000D+00 0.000000000000000D+00 0.207701489102911D+04
 0.200468118873598D+04 0.000000000000000D+00 0.000000000000000D+00 -.200468118873598D+04
 0.198531754536659D+04 0.706117337127266D+03 -.179444634399095D+04 -.465165738991902D+03
 0.411607044183756D+03 -.226646535298856D+03 0.325244871235443D+03 0.110758659226954D+03
 0.102858716234501D+04 -.379274765517167D+03 0.900474270416281D+03 0.321384957801595D+03
 0.421586535502288D+03 -.189173768646090D+03 0.364064252969301D+03 0.330221219633530D+02
 0.234597792367440D+03 0.889777323348469D+02 0.204662949369921D+03 0.723337022931225D+02
0.392366907119D-01 0.000000000000D+00 0.000000000000D+00 0.109045952642D-06 0.000000000000D+00  7 -2 1 -24 -13 13 23 21 0 0.33534636D+00 0.26026895D+00 0.34553337D+07 0.34553337D+07 0.34553337D+07 0.10137948D+01  1  2  2  1  7  1       -2 0.277560103627D-03 0.100000000000D+01
-.217701206192D-02 0.000000000000D+00 -.150679223592D-03 0.109045952642D-06 0.000000000000D+00  7 -2 1 -24 -13 13 23 21 2 0.33534636D+00 0.26026895D+00 0.34553337D+07 0.34553337D+07 0.34553337D+07 0.10137948D+01  1  2  3  1  7  1       -2 -.158279854331D-04 0.100000000000D+01
0.252516044945D-02 0.000000000000D+00 0.000000000000D+00 0.109045952642D-06 0.000000000000D+00  7 -2 1 -24 -13 13 23 21 2 0.33534636D+00 0.26026895D+00 0.34553337D+07 0.34553337D+07 0.34553337D+07 0.10137948D+01  1  2 15  1  7  1       -2 0.183592013609D-04 0.100000000000D+01
0.615796045909D-01 0.000000000000D+00 0.000000000000D+00 0.109045952642D-06 0.000000000000D+00  7 -2 1 -24 -13 13 23 21 2 0.36960774D+00 0.26026895D+00 0.38947557D+07 0.38947557D+07 0.38947557D+07 0.10106822D+01  1  2 12  1  7  1       -2 0.254220988155D-03 0.100000000000D+01
-.570101147355D-01 0.000000000000D+00 0.000000000000D+00 0.109045952642D-06 0.000000000000D+00  7 -2 1 -24 -13 13 23 21 2 0.33534636D+00 0.26026895D+00 0.34553337D+07 0.34553337D+07 0.34553337D+07 0.10137948D+01  1  2  4  1  7  1       -2 -.414492542947D-03 0.100000000000D+01
-.196280757952D+00 0.000000000000D+00 -.368095202057D-01 0.109045952642D-06 0.000000000000D+00  7 -2 1 -24 -13 13 23 21 2 0.36920184D+00 0.26026895D+00 0.34553337D+07 0.34553337D+07 0.34553337D+07 0.10137948D+01  1  2  5  1  7  1       -2 -.831139692535D-03 0.100000000000D+01
0.199069225897D+00 0.000000000000D+00 0.366399204943D-01 0.109045952642D-06 0.000000000000D+00  7 -2 1 -24 -13 13 23 21 2 0.33534636D+00 0.26026895D+00 0.34553337D+07 0.34553337D+07 0.34553337D+07 0.10137948D+01  1  2  6  1  7  1       -2 0.144733456593D-02 0.100000000000D+01
0.976590655213D-03 0.000000000000D+00 0.000000000000D+00 0.109045952642D-06 0.000000000000D+00  7 21 1 -24 -13 13 23 2 2 0.36960774D+00 0.26026895D+00 0.38947557D+07 0.38947557D+07 0.38947557D+07 0.10106822D+01  1  2 12  3  7  1       -2 0.267309255578D-04 0.100000000000D+01
-.296940911977D-02 0.000000000000D+00 -.578035790453D-03 0.109045952642D-06 0.000000000000D+00  7 21 1 -24 -13 13 23 2 2 0.36920184D+00 0.26026895D+00 0.34553337D+07 0.34553337D+07 0.34553337D+07 0.10137948D+01  1  2  5  3  7  1       -2 -.836395801806D-04 0.100000000000D+01
  </mgrwgt>
  </event>
  <event>
  8     66 0.26562228E-05 0.20827332E+03 0.75467711E-02 0.98003714E-01
       -2 -1    0    0    0  501 0.00000000E+00 0.00000000E+00 0.82613203E+02 0.82613823E+02 0.32000000E+00 0.0000E+00 0.9000E+01
        1 -1    0    0  501    0 0.00000000E+00 0.00000000E+00 -.15082088E+04 0.15082089E+04 0.32000000E+00 0.0000E+00 0.9000E+01
       25  2    1    2    0    0 0.46494969E+02 -.11456574E+03 -.14046064E+04 0.14418433E+04 0.30117424E+03 0.0000E+00 0.0000E+00
       23  2    3    3    0    0 0.10760008E+03 -.89231851E+02 -.41819874E+03 0.44902362E+03 0.84805185E+02 0.0000E+00 0.0000E+00
      -24  1    1    2    0    0 -.46494969E+02 0.11456574E+03 -.20989232E+02 0.14897937E+03 0.80419002E+02 0.0000E+00 0.9000E+01
      -13  1    4    4    0    0 0.11775656E+03 -.85721612E+02 -.33716802E+03 0.36728339E+03 0.10565837E+00 0.0000E+00 0.9000E+01
       13  1    4    4    0    0 -.10156479E+02 -.35102391E+01 -.81030724E+02 0.81740230E+02 0.10565837E+00 0.0000E+00 0.9000E+01
       23  1    3    3    0    0 -.61105112E+02 -.25333885E+02 -.98640766E+03 0.99281971E+03 0.91188000E+02 0.0000E+00 0.9000E+01
#aMCatNLO 1  0  0  2  2 0.24835242D+03 0.00000000D+00  -5  7  0 0.00000000D+00 0.00000000D+00 0.00000000D+00 0.00000000D+00 0.00000000D+00
  <mgrwgt>
 0.4232547969D-02    6    2    0
 0.352985103968533D+03 0.000000000000000D+00 0.000000000000000D+00 0.352985103968533D+03
 0.352985103968533D+03 0.000000000000000D+00 0.000000000000000D+00 -.352985103968533D+03
 0.293323445826063D+03 -.464949688308391D+02 0.114565737392066D+03 0.253543561555281D+03
 0.146773373632804D+03 0.117756757014446D+03 -.857217395052380D+02 -.180984187483717D+02
 0.205632311092170D+02 -.101566768387775D+02 -.351011160305903D+01 -.175318996625517D+02
 0.245310157368982D+03 -.611051113448296D+02 -.253338862837687D+02 -.217913243144357D+03
 0.000000000000000D+00 0.000000000000000D+00 0.000000000000000D+00 -.000000000000000D+00
 0.434811321866188D+03 0.000000000000000D+00 0.000000000000000D+00 0.434811321866188D+03
 0.628551917362091D+03 0.000000000000000D+00 0.000000000000000D+00 -.628551917362091D+03
 0.304405117891032D+03 -.134228482376016D+03 0.623990124663689D+02 0.253543561555281D+03
 0.135396121340350D+03 0.763404307553924D+02 -.110348065433430D+03 -.180984187483717D+02
 0.255007377678734D+02 -.169178625721324D+02 -.753034175310148D+01 -.175318996625517D+02
 0.283078179460138D+03 -.138660992258447D+03 -.714489470228726D+02 -.217913243144357D+03
 0.314983082768885D+03 0.213466906451203D+03 0.126928341743035D+03 -.193740595495903D+03
0.889937095968D-04 0.000000000000D+00 0.000000000000D+00 0.658584656762D-07 0.000000000000D+00  7 -2 1 -24 -13 13 23 21 0 0.12709774D-01 0.23203218D+00 0.43377775D+05 0.43377775D+05 0.43377775D+05 0.11527626D+01  1  2  2  2  7  2        1 0.280353047740D-02 0.100000000000D+01
-.327094036039D-05 0.000000000000D+00 -.341759277433D-06 0.658584656762D-07 0.000000000000D+00  7 -2 1 -24 -13 13 23 21 2 0.12709774D-01 0.23203218D+00 0.43377775D+05 0.43377775D+05 0.43377775D+05 0.11527626D+01  1  2  3  2  7  2        1 -.136929920157D-03 0.100000000000D+01
0.554138564145D-05 0.000000000000D+00 0.000000000000D+00 0.658584656762D-07 0.000000000000D+00  7 -2 1 -24 -13 13 23 21 2 0.12709774D-01 0.23203218D+00 0.43377775D+05 0.43377775D+05 0.43377775D+05 0.11527626D+01  1  2 15  2  7  2        1 0.231976560206D-03 0.100000000000D+01
-.215833553020D-04 0.000000000000D+00 -.248172829920D-04 0.658584656762D-07 0.000000000000D+00  7 -2 1 -24 -13 13 23 21 2 0.12709774D-01 0.44208165D+00 0.43377775D+05 0.43377775D+05 0.43377775D+05 0.11527626D+01  1  2  5  2  7  2        1 -.112017922116D-03 0.100000000000D+01
0.345444299371D-04 0.000000000000D+00 0.204247151181D-04 0.658584656762D-07 0.000000000000D+00  7 -2 1 -24 -13 13 23 21 2 0.12709774D-01 0.23203218D+00 0.43377775D+05 0.43377775D+05 0.43377775D+05 0.11527626D+01  1  2  6  2  7  2        1 0.144611809205D-02 0.100000000000D+01
-.896995125207D-07 0.000000000000D+00 -.173769348325D-05 0.658584656762D-07 0.000000000000D+00  7 -2 21 -24 -13 13 23 -1 2 0.12709774D-01 0.44208165D+00 0.43377775D+05 0.43377775D+05 0.43377775D+05 0.11527626D+01  1  2  5  4  7  2        1 -.129318352024D-06 0.100000000000D+01
  </mgrwgt>
  </event>
  <event>
  8     66 0.26562228E-05 0.18436379E+03 0.75467711E-02 0.98538687E-01
       -2 -1    0    0    0  501 0.00000000E+00 0.00000000E+00 0.31437364E+03 0.31437380E+03 0.32000000E+00 0.0000E+00 0.9000E+01
        1 -1    0    0  501    0 0.00000000E+00 0.00000000E+00 -.37556136E+03 0.37556149E+03 0.32000000E+00 0.0000E+00 0.9000E+01
       25  2    1    2    0    0 0.26341282E+03 0.64460944E+02 -.20511881E+02 0.40416744E+03 0.29898003E+03 0.0000E+00 0.0000E+00
       23  2    3    3    0    0 -.47327394E+01 0.75710722E+02 -.17635174E+02 0.12070294E+03 0.92215442E+02 0.0000E+00 0.0000E+00
      -24  1    1    2    0    0 -.26341282E+03 -.64460944E+02 -.40675833E+02 0.28576785E+03 0.80419002E+02 0.0000E+00 0.9000E+01
      -11  1    4    4    0    0 0.26024249E+02 0.90752383E+01 0.23806638E+02 0.36419466E+02 0.51099893E-03 0.0000E+00 0.9000E+01
       11  1    4    4    0    0 -.30756988E+02 0.66635483E+02 -.41441812E+02 0.84283473E+02 0.51099893E-03 0.0000E+00 0.9000E+01
       23  1    3    3    0    0 0.26814556E+03 -.11249777E+02 -.28767072E+01 0.28346450E+03 0.91188000E+02 0.0000E+00 0.9000E+01
#aMCatNLO 1  0  0  1  2 0.48619728D+02 0.00000000D+00  -5  7  0 0.00000000D+00 0.00000000D+00 0.00000000D+00 0.00000000D+00 0.00000000D+00
  <mgrwgt>
 0.1343774297D-02    9    2    0
 0.343608344517918D+03 0.000000000000000D+00 0.000000000000000D+00 0.343608344517918D+03
 0.343608344517918D+03 0.000000000000000D+00 0.000000000000000D+00 -.343608344517918D+03
 0.283276688638837D+03 -.263412819994471D+03 -.644609444643528D+02 -.153928318751998D+02
 0.386832117909739D+02 0.260242486567533D+02 0.907523829937826D+01 0.271434965714867D+02
 0.809270407091830D+02 -.307569880514773D+02 0.666354832798608D+02 -.341014071851360D+02
 0.284329747896842D+03 0.268145559389195D+03 -.112497771148862D+02 0.223507424888491D+02
 0.000000000000000D+00 -.000000000000000D+00 0.000000000000000D+00 0.000000000000000D+00
 0.371016624493438D+03 0.000000000000000D+00 0.000000000000000D+00 0.371016624493438D+03
 0.366726452212381D+03 0.000000000000000D+00 0.000000000000000D+00 -.366726452212381D+03
 0.265390780733225D+03 -.244029073416365D+03 -.646368517042116D+02 -.153928318751998D+02
 0.406151841875741D+02 0.288257634129638D+02 0.904981459059199D+01 0.271434965714867D+02
 0.789106131865608D+02 -.251101204135980D+02 0.665842380318885D+02 -.341014071851360D+02
 0.304017856816445D+03 0.288931156323985D+03 -.114384061279040D+02 0.223507424888491D+02
 0.488086417820138D+02 -.486177259069857D+02 0.441205209635073D+00 0.429017228105685D+01
0.261776328761D-04 0.000000000000D+00 0.000000000000D+00 0.685763285249D-06 0.000000000000D+00  7 -2 1 -24 -11 11 23 21 0 0.48365199D-01 0.57778693D-01 0.11130917D+06 0.11130917D+06 0.11130917D+06 0.11179235D+01  1  2  2  1  7  1       -2 0.774579990427D-03 0.100000000000D+01
-.145277736533D-05 0.000000000000D+00 -.100529002973D-06 0.685763285249D-06 0.000000000000D+00  7 -2 1 -24 -11 11 23 21 2 0.48365199D-01 0.57778693D-01 0.11130917D+06 0.11130917D+06 0.11130917D+06 0.11179235D+01  1  2  3  1  7  1       -2 -.537228639427D-04 0.100000000000D+01
0.170124471539D-05 0.000000000000D+00 0.000000000000D+00 0.685763285249D-06 0.000000000000D+00  7 -2 1 -24 -11 11 23 21 2 0.48365199D-01 0.57778693D-01 0.11130917D+06 0.11130917D+06 0.11130917D+06 0.11179235D+01  1  2 15  1  7  1       -2 0.629110423655D-04 0.100000000000D+01
0.345976335214D-04 0.000000000000D+00 0.000000000000D+00 0.685763285249D-06 0.000000000000D+00  7 -2 1 -24 -11 11 23 21 2 0.53732793D-01 0.57778693D-01 0.12892893D+06 0.12892893D+06 0.12892893D+06 0.11127775D+01  1  2 12  1  7  1       -2 0.102763626513D-02 0.100000000000D+01
-.287456922195D-04 0.000000000000D+00 0.000000000000D+00 0.685763285249D-06 0.000000000000D+00  7 -2 1 -24 -11 11 23 21 2 0.48365199D-01 0.57778693D-01 0.11130917D+06 0.11130917D+06 0.11130917D+06 0.11179235D+01  1  2  4  1  7  1       -2 -.106299901753D-02 0.100000000000D+01
-.111183162885D-03 0.000000000000D+00 -.256599888356D-04 0.685763285249D-06 0.000000000000D+00  7 -2 1 -24 -11 11 23 21 2 0.55351487D-01 0.57778693D-01 0.11130917D+06 0.11130917D+06 0.11130917D+06 0.11179235D+01  1  2  5  1  7  1       -2 -.314808787281D-02 0.100000000000D+01
0.113839336248D-03 0.000000000000D+00 0.254281873916D-04 0.685763285249D-06 0.000000000000D+00  7 -2 1 -24 -11 11 23 21 2 0.48365199D-01 0.57778693D-01 0.11130917D+06 0.11130917D+06 0.11130917D+06 0.11179235D+01  1  2  6  1  7  1       -2 0.420971259500D-02 0.100000000000D+01
0.587215030378D-06 0.000000000000D+00 0.000000000000D+00 0.685763285249D-06 0.000000000000D+00  7 21 1 -24 -11 11 23 2 2 0.53732793D-01 0.57778693D-01 0.12892893D+06 0.12892893D+06 0.12892893D+06 0.11127775D+01  1  2 12  3  7  1       -2 0.184021159124D-03 0.100000000000D+01
-.217882804066D-05 0.000000000000D+00 -.536792028618D-06 0.685763285249D-06 0.000000000000D+00  7 21 1 -24 -11 11 23 2 2 0.55351487D-01 0.57778693D-01 0.11130917D+06 0.11130917D+06 0.11130917D+06 0.11179235D+01  1  2  5  3  7  1       -2 -.650277000919D-03 0.100000000000D+01
  </mgrwgt>
  </event>
  <event>
  9     66 0.26562228E-05 0.24854049E+03 0.75467711E-02 0.99256062E-01
       -2 -1    0    0    0  501 0.00000000E+00 0.00000000E+00 0.51979013E+03 0.51979023E+03 0.32000000E+00 0.0000E+00 0.9000E+01
        1 -1    0    0  502    0 0.00000000E+00 0.00000000E+00 -.70677480E+03 0.70677488E+03 0.32000000E+00 0.0000E+00 0.9000E+01
       25  2    1    2    0    0 -.68992940E+02 0.11463084E+03 -.22624424E+03 0.39902240E+03 0.30022020E+03 0.0000E+00 0.0000E+00
       23  2    3    3    0    0 -.11671401E+03 0.14645830E+02 -.19442039E+03 0.25204515E+03 0.10904499E+03 0.0000E+00 0.0000E+00
      -24  1    1    2    0    0 0.20490870E+03 -.19781687E+02 0.38511394E+03 0.44402574E+03 0.80419002E+02 0.0000E+00 0.9000E+01
      -13  1    4    4    0    0 -.63460417E+02 -.36922338E+02 -.14623439E+03 0.16363066E+03 0.10565837E+00 0.0000E+00 0.9000E+01
       13  1    4    4    0    0 -.53253596E+02 0.51568168E+02 -.48185991E+02 0.88414491E+02 0.10565837E+00 0.0000E+00 0.9000E+01
       23  1    3    3    0    0 0.47721073E+02 0.99985007E+02 -.31823851E+02 0.14697725E+03 0.91188000E+02 0.0000E+00 0.9000E+01
       21  1    1    2  502  501 -.13591576E+03 -.94849150E+02 -.34585438E+03 0.38351697E+03 0.75000000E+00 0.0000E+00 0.9000E+01
#aMCatNLO 2  0  0  2  1 0.16573912D+03 0.00000000D+00  -5  7  0 0.00000000D+00 0.00000000D+00 0.00000000D+00 0.00000000D+00 0.00000000D+00
  <mgrwgt>
 0.5993283909D-03    2    2    0
 0.405592505403265D+03 0.000000000000000D+00 0.000000000000000D+00 0.405592505403265D+03
 0.405592505403265D+03 0.000000000000000D+00 0.000000000000000D+00 -.405592505403265D+03
 0.354022919856651D+03 0.144190733777897D+03 -.621538695418138D+02 0.306938007785007D+03
 0.213648110716285D+03 -.973185028205962D+02 -.605503201745523D+02 -.180300535074510D+03
 0.104217497489744D+03 -.701269582705638D+02 0.397930677491678D+02 -.660303586682177D+02
 0.139296482743850D+03 0.232547273132631D+02 0.829111219671984D+02 -.606071140422795D+02
 0.000000000000000D+00 -.000000000000000D+00 -.000000000000000D+00 -.000000000000000D+00
 0.429532900693682D+03 0.000000000000000D+00 0.000000000000000D+00 0.429532900693682D+03
 0.855287605169076D+03 0.000000000000000D+00 0.000000000000000D+00 -.855287605169076D+03
 0.378228827885397D+03 0.204908698007660D+03 -.197816871617966D+02 0.306938007785007D+03
 0.194676079648909D+03 -.634604565118090D+02 -.369223983325388D+02 -.180300535074510D+03
 0.992735160812335D+02 -.532535808820085D+02 0.515681961340596D+02 -.660303586682177D+02
 0.155765159146265D+03 0.477210973466607D+02 0.999850391576556D+02 -.606071140422795D+02
 0.456876923100952D+03 -.135915757960503D+03 -.948491497973797D+02 -.425754704475394D+03
-.377097888888D-04 0.000000000000D+00 0.000000000000D+00 0.503938190112D-07 0.000000000000D+00  7 -2 1 -24 -13 13 23 21 2 0.75510602D-01 0.10858016D+00 0.11485018D+06 0.11485018D+06 0.11485018D+06 0.11168207D+01  1  2 13  2  7  2        1 -.229255359348D-03 0.100000000000D+01
0.155055541690D-03 0.000000000000D+00 0.000000000000D+00 0.503938190112D-07 0.160225271701D-10  7 -2 1 -24 -13 13 23 21 2 0.79967671D-01 0.10873452D+00 0.11485018D+06 0.11485018D+06 0.11485018D+06 0.11168207D+01  1  2  1  2  7  2        1 0.828583750284D-03 0.100000000000D+01
  </mgrwgt>
  </event>
  <event>
  8     66 0.26562228E-05 0.12406648E+03 0.75467711E-02 0.10595095E+00
       -2 -1    0    0    0  501 0.00000000E+00 0.00000000E+00 0.41416044E+03 0.41416056E+03 0.32000000E+00 0.0000E+00 0.9000E+01
        1 -1    0    0  501    0 0.00000000E+00 0.00000000E+00 -.14529641E+03 0.14529676E+03 0.32000000E+00 0.0000E+00 0.9000E+01
       25  2    1    2    0    0 0.63184277E+01 0.86755117E+02 0.30292663E+03 0.43619399E+03 0.30155310E+03 0.0000E+00 0.0000E+00
       23  2    3    3    0    0 0.77136738E+02 0.14257353E+03 0.17348041E+03 0.25397844E+03 0.90179307E+02 0.0000E+00 0.0000E+00
      -24  1    1    2    0    0 -.63184277E+01 -.86755117E+02 -.34062608E+02 0.12326334E+03 0.80419002E+02 0.0000E+00 0.9000E+01
      -13  1    4    4    0    0 0.55692337E+02 0.12248092E+03 0.81245553E+02 0.15717526E+03 0.10565837E+00 0.0000E+00 0.9000E+01
       13  1    4    4    0    0 0.21444400E+02 0.20092614E+02 0.92234859E+02 0.96803181E+02 0.10565837E+00 0.0000E+00 0.9000E+01
       23  1    3    3    0    0 -.70818310E+02 -.55818415E+02 0.12944622E+03 0.18221554E+03 0.91188000E+02 0.0000E+00 0.9000E+01
#aMCatNLO 1  0  0  1  2 0.13060396D+03 0.00000000D+00  -5  7  0 0.00000000D+00 0.00000000D+00 0.00000000D+00 0.00000000D+00 0.00000000D+00
  <mgrwgt>
 0.5157794515D-05    1    2    0
 0.245308291013210D+03 0.000000000000000D+00 0.000000000000000D+00 0.245308291013210D+03
 0.245308291013210D+03 0.000000000000000D+00 0.000000000000000D+00 -.245308291013210D+03
 0.159225760224294D+03 -.631842904914775D+01 -.867551356606500D+02 -.106391967062777D+03
 0.134705777839389D+03 0.556923730797186D+02 0.122481048978774D+03 0.651143648693728D+01
 0.598401387265413D+02 0.214443500770829D+02 0.200924746846344D+02 0.521274832850249D+02
 0.136844905236196D+03 -.708182941076537D+02 -.558183880027581D+02 0.477530472908150D+02
 0.000000000000000D+00 -.000000000000000D+00 -.000000000000000D+00 0.000000000000000D+00
 0.310842541999784D+03 0.000000000000000D+00 0.000000000000000D+00 0.310842541999784D+03
 0.285796056550331D+03 0.000000000000000D+00 0.000000000000000D+00 -.285796056550331D+03
 0.147870769169897D+03 0.105004797194790D+02 -.630002991318318D+02 -.106391967062777D+03
 0.162423697533110D+03 0.719654112303558D+02 0.145464904020350D+03 0.651143648693728D+01
 0.664317678728302D+02 0.283599465552486D+02 0.298599849374122D+02 0.521274832850249D+02
 0.122784627488928D+03 -.565990340165052D+02 -.357352658648906D+02 0.477530472908150D+02
 0.971277364853501D+02 -.542268034885783D+02 -.765893239610395D+02 0.250464854494530D+02
0.657728805104D-07 0.000000000000D+00 0.000000000000D+00 0.143722255602D-06 0.000000000000D+00  7 -2 1 -24 -13 13 23 21 2 0.63717027D-01 0.22353330D-01 0.42156494D+05 0.42156494D+05 0.42156494D+05 0.11538713D+01  1  2 14  1  7  1       -2 0.515779451465D-05 0.100000000000D+01
  </mgrwgt>
  </event>
  <event>
  8     66 0.26562228E-05 0.25954916E+03 0.75467711E-02 0.95236516E-01
       -2 -1    0    0    0  501 0.00000000E+00 0.00000000E+00 0.59884104E+03 0.59884113E+03 0.32000000E+00 0.0000E+00 0.9000E+01
        1 -1    0    0  501    0 0.00000000E+00 0.00000000E+00 -.41855094E+03 0.41855106E+03 0.32000000E+00 0.0000E+00 0.9000E+01
       25  2    1    2    0    0 0.19136810E+03 0.38666702E+03 -.36732877E+02 0.52780121E+03 0.30181399E+03 0.0000E+00 0.0000E+00
       23  2    3    3    0    0 -.10187757E+02 0.81438562E+02 0.48287459E+02 0.14136508E+03 0.10448147E+03 0.0000E+00 0.0000E+00
      -24  1    1    2    0    0 -.19136810E+03 -.38666702E+03 0.21702298E+03 0.48959098E+03 0.80419002E+02 0.0000E+00 0.9000E+01
      -11  1    4    4    0    0 -.44519389E+02 0.53536196E+02 0.63845592E+02 0.94468830E+02 0.51099893E-03 0.0000E+00 0.9000E+01
       11  1    4    4    0    0 0.34331632E+02 0.27902366E+02 -.15558133E+02 0.46896252E+02 0.51099893E-03 0.0000E+00 0.9000E+01
       23  1    3    3    0    0 0.20155585E+03 0.30522846E+03 -.85020337E+02 0.38643613E+03 0.91188000E+02 0.0000E+00 0.9000E+01
#aMCatNLO 1  0  0  1  2 0.18100449D+02 0.00000000D+00  -5  7  0 0.00000000D+00 0.00000000D+00 0.00000000D+00 0.00000000D+00 0.00000000D+00
  <mgrwgt>
 0.8417735369D-03    9    2    0
 0.500645169414074D+03 0.000000000000000D+00 0.000000000000000D+00 0.500645169414074D+03
 0.500645169414074D+03 0.000000000000000D+00 0.000000000000000D+00 -.500645169414074D+03
 0.458387462797492D+03 -.191368095099612D+03 -.386667020617264D+03 0.132358291921838D+03
 0.844920980783953D+02 -.445193887671156D+02 0.535361961750025D+02 0.478624525134602D+02
 0.504517579109097D+02 0.343316316378434D+02 0.279023659103599D+02 -.242523591015154D+02
 0.407959020041351D+03 0.201555852228884D+03 0.305228458531901D+03 -.155968385333783D+03
 0.000000000000000D+00 -.000000000000000D+00 0.000000000000000D+00 0.000000000000000D+00
 0.604193445169826D+03 0.000000000000000D+00 0.000000000000000D+00 0.604193445169826D+03
 0.501518587877206D+03 0.000000000000000D+00 0.000000000000000D+00 -.501518587877206D+03
 0.457428489083252D+03 -.183528694470548D+03 -.389322626540105D+03 0.132358291921838D+03
 0.834331615921141D+02 -.430819455957084D+02 0.530492606578171D+02 0.478624525134602D+02
 0.508859762858011D+02 0.351990844219734D+02 0.276085152883136D+02 -.242523591015154D+02
 0.409706300528708D+03 0.208555081730486D+03 0.302857461538729D+03 -.155968385333783D+03
 0.104258105557156D+03 -.171435260862031D+02 0.580738905524504D+01 0.102674857292620D+03
0.105610528182D-03 0.000000000000D+00 0.000000000000D+00 0.117710574303D-07 0.000000000000D+00  7 -2 1 -24 -11 11 23 21 0 0.92129407D-01 0.64392468D-01 0.21608485D+06 0.21608485D+06 0.21608485D+06 0.10952545D+01  1  2  2  1  7  1       -2 0.674312684171D-03 0.100000000000D+01
-.582799238513D-05 0.000000000000D+00 -.405572236111D-06 0.117710574303D-07 0.000000000000D+00  7 -2 1 -24 -11 11 23 21 2 0.92129407D-01 0.64392468D-01 0.21608485D+06 0.21608485D+06 0.21608485D+06 0.10952545D+01  1  2  3  1  7  1       -2 -.446378440495D-04 0.100000000000D+01
0.674095804226D-05 0.000000000000D+00 0.000000000000D+00 0.117710574303D-07 0.000000000000D+00  7 -2 1 -24 -11 11 23 21 2 0.92129407D-01 0.64392468D-01 0.21608485D+06 0.21608485D+06 0.21608485D+06 0.10952545D+01  1  2 15  1  7  1       -2 0.516304438904D-04 0.100000000000D+01
0.401745400772D-02 0.000000000000D+00 0.000000000000D+00 0.117710574303D-07 0.000000000000D+00  7 -2 1 -24 -11 11 23 21 2 0.11125417D+00 0.64392468D-01 0.22462538D+06 0.22462538D+06 0.22462538D+06 0.10939732D+01  1  2 12  1  7  1       -2 0.194268068969D-01 0.100000000000D+01
-.396486325858D-02 0.000000000000D+00 0.000000000000D+00 0.117710574303D-07 0.000000000000D+00  7 -2 1 -24 -11 11 23 21 2 0.92129407D-01 0.64392468D-01 0.21608485D+06 0.21608485D+06 0.21608485D+06 0.10952545D+01  1  2  4  1  7  1       -2 -.303677383425D-01 0.100000000000D+01
-.418315228877D-02 0.000000000000D+00 -.731087718969D-04 0.117710574303D-07 0.000000000000D+00  7 -2 1 -24 -11 11 23 21 2 0.11126492D+00 0.64392468D-01 0.21608485D+06 0.21608485D+06 0.21608485D+06 0.10952545D+01  1  2  5  1  7  1       -2 -.202977522583D-01 0.100000000000D+01
0.412456539529D-02 0.000000000000D+00 0.718259246839D-04 0.117710574303D-07 0.000000000000D+00  7 -2 1 -24 -11 11 23 21 2 0.92129407D-01 0.64392468D-01 0.21608485D+06 0.21608485D+06 0.21608485D+06 0.10952545D+01  1  2  6  1  7  1       -2 0.315909312710D-01 0.100000000000D+01
0.109889478671D-03 0.000000000000D+00 0.000000000000D+00 0.117710574303D-07 0.000000000000D+00  7 21 1 -24 -11 11 23 2 2 0.11125417D+00 0.64392468D-01 0.22462538D+06 0.22462538D+06 0.22462538D+06 0.10939732D+01  1  2 12  3  7  1       -2 0.484563936382D-02 0.100000000000D+01
-.113705702159D-03 0.000000000000D+00 -.200053943576D-05 0.117710574303D-07 0.000000000000D+00  7 21 1 -24 -11 11 23 2 2 0.11126492D+00 0.64392468D-01 0.21608485D+06 0.21608485D+06 0.21608485D+06 0.10952545D+01  1  2  5  3  7  1       -2 -.503741867807D-02 0.100000000000D+01
  </mgrwgt>
  </event>
  <event>
  8     66 0.26562228E-05 0.28786753E+03 0.75467711E-02 0.88101097E-01
       -2 -1    0    0    0  501 0.00000000E+00 0.00000000E+00 0.17263803E+03 0.17263833E+03 0.32000000E+00 0.0000E+00 0.9000E+01
        1 -1    0    0  501    0 0.00000000E+00 0.00000000E+00 -.67126259E+03 0.67126267E+03 0.32000000E+00 0.0000E+00 0.9000E+01
       25  2    1    2    0    0 -.20739501E+03 -.11955792E+03 -.14763958E+03 0.41150713E+03 0.30038956E+03 0.0000E+00 0.0000E+00
       23  2    3    3    0    0 -.13791900E+03 0.23365676E+02 0.13101136E+02 0.16777183E+03 0.91695908E+02 0.0000E+00 0.0000E+00
      -24  1    1    2    0    0 0.20739501E+03 0.11955792E+03 -.35098498E+03 0.43239387E+03 0.80419002E+02 0.0000E+00 0.9000E+01
      -11  1    4    4    0    0 -.11936440E+03 0.22008528E+02 0.46143765E+02 0.12985177E+03 0.51099893E-03 0.0000E+00 0.9000E+01
       11  1    4    4    0    0 -.18554600E+02 0.13571475E+01 -.33042629E+02 0.37920052E+02 0.51099893E-03 0.0000E+00 0.9000E+01
       23  1    3    3    0    0 -.69476007E+02 -.14292359E+03 -.16074072E+03 0.24373531E+03 0.91188000E+02 0.0000E+00 0.9000E+01
#aMCatNLO 1  0  0  2  2 0.84448165D+03 0.00000000D+00  -5  7  0 0.00000000D+00 0.00000000D+00 0.00000000D+00 0.00000000D+00 0.00000000D+00
  <mgrwgt>
 0.1507438550D-02    3    2    0
 0.340419758165319D+03 0.000000000000000D+00 0.000000000000000D+00 0.340419758165319D+03
 0.340419758165319D+03 0.000000000000000D+00 0.000000000000000D+00 -.340419758165319D+03
 0.278902565518965D+03 0.207395011015669D+03 0.119557919318803D+03 -.118374990739848D+03
 0.194745536743481D+03 -.119364404660056D+03 0.220085280110209D+02 0.152294411179285D+03
 0.228025888132345D+02 -.185545996157268D+02 0.135714753234610D+01 -.131849550723908D+02
 0.184388825254958D+03 -.694760067398857D+02 -.142923594862170D+03 -.207344653670463D+02
 0.000000000000000D+00 -.000000000000000D+00 0.000000000000000D+00 0.000000000000000D+00
 0.105008315896001D+04 0.000000000000000D+00 0.000000000000000D+00 0.105008315896001D+04
 0.893539579820693D+03 0.000000000000000D+00 0.000000000000000D+00 -.893539579820693D+03
 0.309759247317171D+03 0.222154744614709D+03 -.161611281650274D+03 -.118374990739848D+03
 0.275258127215247D+03 -.107579830360628D+03 -.202484638975846D+03 0.152294411179285D+03
 0.334429667570874D+02 -.171443341657764D+02 -.255080534589937D+02 -.131849550723908D+02
 0.466293870882931D+03 -.531612007798573D+02 -.453716531941006D+03 -.207344653670463D+02
 0.858868526608266D+03 -.442693793084463D+02 0.843320506026120D+03 0.156543579139317D+03
0.376832293702D-04 0.000000000000D+00 0.000000000000D+00 0.361097349834D-05 0.000000000000D+00  7 -2 1 -24 -11 11 23 21 0 0.26559726D-01 0.10327120D+00 0.82867717D+05 0.82867717D+05 0.82867717D+05 0.11284816D+01  1  2  2  2  7  2        1 0.148819712526D-02 0.100000000000D+01
-.202194545568D-05 0.000000000000D+00 -.144713523004D-06 0.361097349834D-05 0.000000000000D+00  7 -2 1 -24 -11 11 23 21 2 0.26559726D-01 0.10327120D+00 0.82867717D+05 0.82867717D+05 0.82867717D+05 0.11284816D+01  1  2  3  2  7  2        1 -.101688250420D-03 0.100000000000D+01
0.240453745224D-05 0.000000000000D+00 0.000000000000D+00 0.361097349834D-05 0.000000000000D+00  7 -2 1 -24 -11 11 23 21 2 0.26559726D-01 0.10327120D+00 0.82867717D+05 0.82867717D+05 0.82867717D+05 0.11284816D+01  1  2 15  2  7  2        1 0.120929674883D-03 0.100000000000D+01
  </mgrwgt>
  </event>
  <event>
  8     66 0.26562228E-05 0.18419683E+03 0.75467711E-02 0.10656249E+00
       -2 -1    0    0    0  501 0.00000000E+00 0.00000000E+00 0.49866398E+03 0.49866408E+03 0.32000000E+00 0.0000E+00 0.9000E+01
        1 -1    0    0  501    0 0.00000000E+00 0.00000000E+00 -.22941126E+03 0.22941149E+03 0.32000000E+00 0.0000E+00 0.9000E+01
       25  2    1    2    0    0 0.78602665E+02 0.14160946E+02 0.43061280E+03 0.53088732E+03 0.30005841E+03 0.0000E+00 0.0000E+00
       23  2    3    3    0    0 0.99214167E+02 0.10504798E+03 0.17935451E+03 0.24781265E+03 0.91457871E+02 0.0000E+00 0.0000E+00
      -24  1    1    2    0    0 -.78602665E+02 -.14160946E+02 -.16136008E+03 0.19718825E+03 0.80419002E+02 0.0000E+00 0.9000E+01
      -13  1    4    4    0    0 0.44453013E+02 0.66876419E+02 0.15883024E+03 0.17797635E+03 0.10565837E+00 0.0000E+00 0.9000E+01
       13  1    4    4    0    0 0.54761153E+02 0.38171560E+02 0.20524267E+02 0.69836298E+02 0.10565837E+00 0.0000E+00 0.9000E+01
       23  1    3    3    0    0 -.20611502E+02 -.90887033E+02 0.25125829E+03 0.28307467E+03 0.91188000E+02 0.0000E+00 0.9000E+01
#aMCatNLO 1  0  0  1  1 0.28954292D+01 0.00000000D+00  -5  7  0 0.00000000D+00 0.00000000D+00 0.00000000D+00 0.00000000D+00 0.00000000D+00
  <mgrwgt>
 0.7463033834D-03   10    2    0
 0.338229583767183D+03 0.000000000000000D+00 0.000000000000000D+00 0.338229583767183D+03
 0.338229583767183D+03 0.000000000000000D+00 0.000000000000000D+00 -.338229583767183D+03
 0.276461010925965D+03 -.786026648701692D+02 -.141609459525869D+02 -.252159797138385D+03
 0.128337112019723D+03 0.444529998146917D+02 0.668764571853444D+02 0.100109363215309D+03
 0.669956658065961D+02 0.547611666927103D+02 0.381715214526405D+02 -.570690891051422D+01
 0.204665378782082D+03 -.206115016372328D+02 -.908870326853981D+02 0.157757342833590D+03
 0.000000000000000D+00 -.000000000000000D+00 0.000000000000000D+00 0.000000000000000D+00
 0.339733595182715D+03 0.000000000000000D+00 0.000000000000000D+00 0.339733595182715D+03
 0.339629083685817D+03 0.000000000000000D+00 0.000000000000000D+00 -.339629083685817D+03
 0.276295146218003D+03 -.778466406654847D+02 -.150708033456945D+02 -.252159797138385D+03
 0.128239724747034D+03 0.448039290561845D+02 0.664541220764266D+02 0.100109363215309D+03
 0.670204136839380D+02 0.549444652387369D+02 0.379509259529001D+02 -.570690891051422D+01
 0.204910079469098D+03 -.200513107536386D+02 -.915612092710570D+02 0.157757342833590D+03
 0.289731475045777D+01 -.185044287579819D+01 0.222696458742480D+01 0.104511496897825D+00
0.210129800951D-04 0.000000000000D+00 0.000000000000D+00 0.610990870784D-05 0.000000000000D+00  7 -2 1 -24 -13 13 23 21 0 0.76717560D-01 0.35294065D-01 0.38177597D+05 0.38177597D+05 0.38177597D+05 0.11577457D+01  1  2  2  1  7  1       -2 0.465053207420D-03 0.100000000000D+01
-.740019085801D-06 0.000000000000D+00 -.806953764099D-07 0.610990870784D-05 0.000000000000D+00  7 -2 1 -24 -13 13 23 21 2 0.76717560D-01 0.35294065D-01 0.38177597D+05 0.38177597D+05 0.38177597D+05 0.11577457D+01  1  2  3  1  7  1       -2 -.219525140435D-04 0.100000000000D+01
0.130123087866D-05 0.000000000000D+00 0.000000000000D+00 0.610990870784D-05 0.000000000000D+00  7 -2 1 -24 -13 13 23 21 2 0.76717560D-01 0.35294065D-01 0.38177597D+05 0.38177597D+05 0.38177597D+05 0.11577457D+01  1  2 15  1  7  1       -2 0.386007465022D-04 0.100000000000D+01
-.328554430257D-03 0.000000000000D+00 0.000000000000D+00 0.610990870784D-05 0.000000000000D+00  7 -2 1 -24 -13 13 23 21 2 0.76717560D-01 0.35294065D-01 0.38177597D+05 0.38177597D+05 0.38177597D+05 0.11577457D+01  1  2  4  1  7  1       -2 -.974649962773D-02 0.100000000000D+01
-.281148844152D-02 0.000000000000D+00 -.315398022878D-03 0.610990870784D-05 0.000000000000D+00  7 -2 1 -24 -13 13 23 21 2 0.77330418D-01 0.35294065D-01 0.38177597D+05 0.38177597D+05 0.38177597D+05 0.11577457D+01  1  2  5  1  7  1       -2 -.819680408921D-01 0.100000000000D+01
0.281391889270D-02 0.000000000000D+00 0.315388039244D-03 0.610990870784D-05 0.000000000000D+00  7 -2 1 -24 -13 13 23 21 2 0.76717560D-01 0.35294065D-01 0.38177597D+05 0.38177597D+05 0.38177597D+05 0.11577457D+01  1  2  6  1  7  1       -2 0.834743254528D-01 0.100000000000D+01
0.328557821957D-03 0.000000000000D+00 0.000000000000D+00 0.610990870784D-05 0.520506649586D-05  7 -2 1 -24 -13 13 23 21 2 0.77058702D-01 0.35440102D-01 0.38715459D+05 0.38715459D+05 0.38715459D+05 0.11571965D+01  1  2 11  1  7  1       -2 0.959087586599D-02 0.100000000000D+01
0.660504105463D-08 0.000000000000D+00 0.000000000000D+00 0.610990870784D-05 0.000000000000D+00  7 21 1 -24 -13 13 23 2 2 0.77216740D-01 0.35294065D-01 0.38715459D+05 0.38715459D+05 0.38715459D+05 0.11571965D+01  1  2 12  3  7  1       -2 0.198884488127D-05 0.100000000000D+01
-.413739890809D-05 0.000000000000D+00 -.464972813563D-06 0.610990870784D-05 0.000000000000D+00  7 21 1 -24 -13 13 23 2 2 0.77330418D-01 0.35294065D-01 0.38177597D+05 0.38177597D+05 0.38177597D+05 0.11577457D+01  1  2  5  3  7  1       -2 -.124354878462D-02 0.100000000000D+01
0.516679961020D-06 0.000000000000D+00 0.000000000000D+00 0.610990870784D-05 0.431304728381D-08  7 21 1 -24 -13 13 23 2 2 0.77058702D-01 0.35440102D-01 0.38715459D+05 0.38715459D+05 0.38715459D+05 0.11571965D+01  1  2 11  3  7  1       -2 0.155501084373D-03 0.100000000000D+01
  </mgrwgt>
  </event>
  <event>
  8     66 0.26562228E-05 0.18305034E+03 0.75467711E-02 0.10138578E+00
       -2 -1    0    0    0  501 0.00000000E+00 0.00000000E+00 0.53448052E+02 0.53449010E+02 0.32000000E+00 0.0000E+00 0.9000E+01
        1 -1    0    0  501    0 0.00000000E+00 0.00000000E+00 -.16557176E+04 0.16557176E+04 0.32000000E+00 0.0000E+00 0.9000E+01
       25  2    1    2    0    0 0.59888831E+02 0.17644414E+03 -.12850573E+04 0.13325899E+04 0.29950690E+03 0.0000E+00 0.0000E+00
       23  2    3    3    0    0 0.19682382E+02 0.21651691E+03 -.77381677E+03 0.81018727E+03 0.10170570E+03 0.0000E+00 0.0000E+00
      -24  1    1    2    0    0 -.59888831E+02 -.17644414E+03 -.31721221E+03 0.37657670E+03 0.80419002E+02 0.0000E+00 0.9000E+01
      -11  1    4    4    0    0 0.57750408E+02 0.16711271E+03 -.60056084E+03 0.62604720E+03 0.51099893E-03 0.0000E+00 0.9000E+01
       11  1    4    4    0    0 -.38068026E+02 0.49404191E+02 -.17325592E+03 0.18414007E+03 0.51099893E-03 0.0000E+00 0.9000E+01
       23  1    3    3    0    0 0.40206449E+02 -.40072766E+02 -.51124053E+03 0.52240263E+03 0.91188000E+02 0.0000E+00 0.9000E+01
#aMCatNLO 1  0  0  1  2 0.23016750D+02 0.00000000D+00  -5  7  0 0.00000000D+00 0.00000000D+00 0.00000000D+00 0.00000000D+00 0.00000000D+00
  <mgrwgt>
 0.5725013527D-03    9    2    0
 0.297482306877475D+03 0.000000000000000D+00 0.000000000000000D+00 0.297482306877475D+03
 0.297482306877475D+03 0.000000000000000D+00 0.000000000000000D+00 -.297482306877475D+03
 0.227530945249764D+03 -.598888305519017D+02 -.176444140121651D+03 0.102878124417862D+03
 0.181117723239203D+03 0.577504077254750D+02 0.167112715002292D+03 -.392665323584432D+02
 0.623959236213369D+02 -.380680262102659D+02 0.494041912005955D+02 -.181729382027915D+01
 0.123920021644645D+03 0.402064490366926D+02 -.400727660812359D+02 -.617942982391398D+02
 0.000000000000000D+00 0.000000000000000D+00 0.000000000000000D+00 0.000000000000000D+00
 0.573378587132679D+03 0.000000000000000D+00 0.000000000000000D+00 0.573378587132679D+03
 0.298185262393554D+03 0.000000000000000D+00 0.000000000000000D+00 -.298185262393554D+03
 0.234469432621704D+03 -.654951928759971D+02 -.183398937036102D+03 0.102878124417862D+03
 0.174817881445248D+03 0.534311386090713D+02 0.161754581191650D+03 -.392665323584432D+02
 0.618788673884842D+02 -.395760975009481D+02 0.475334006678235D+02 -.181729382027915D+01
 0.124243477862559D+03 0.371949915563701D+02 -.438085351916500D+02 -.617942982391398D+02
 0.276154190208238D+03 0.144451602115038D+02 0.179194903682779D+02 0.275193324739124D+03
0.129461496666D-04 0.000000000000D+00 0.000000000000D+00 0.248359297435D-07 0.000000000000D+00  7 -2 1 -24 -11 11 23 21 0 0.82228533D-02 0.25472585D+00 0.75497786D+05 0.75497786D+05 0.75497786D+05 0.11318787D+01  1  2  2  1  7  1       -2 0.631711320304D-03 0.100000000000D+01
-.713713969091D-06 0.000000000000D+00 -.497166235193D-07 0.248359297435D-07 0.000000000000D+00  7 -2 1 -24 -11 11 23 21 2 0.82228533D-02 0.25472585D+00 0.75497786D+05 0.75497786D+05 0.75497786D+05 0.11318787D+01  1  2  3  1  7  1       -2 -.446171723914D-04 0.100000000000D+01
0.848694511153D-06 0.000000000000D+00 0.000000000000D+00 0.248359297435D-07 0.000000000000D+00  7 -2 1 -24 -11 11 23 21 2 0.82228533D-02 0.25472585D+00 0.75497786D+05 0.75497786D+05 0.75497786D+05 0.11318787D+01  1  2 15  1  7  1       -2 0.530553568398D-04 0.100000000000D+01
0.629406231666D-03 0.000000000000D+00 0.000000000000D+00 0.248359297435D-07 0.000000000000D+00  7 -2 1 -24 -11 11 23 21 2 0.15849978D-01 0.25472585D+00 0.82283017D+05 0.82283017D+05 0.82283017D+05 0.11287388D+01  1  2 12  1  7  1       -2 0.140557239021D-01 0.100000000000D+01
-.515748679431D-03 0.000000000000D+00 0.000000000000D+00 0.248359297435D-07 0.000000000000D+00  7 -2 1 -24 -11 11 23 21 2 0.82228533D-02 0.25472585D+00 0.75497786D+05 0.75497786D+05 0.75497786D+05 0.11318787D+01  1  2  4  1  7  1       -2 -.322415543723D-01 0.100000000000D+01
-.628215551959D-03 0.000000000000D+00 -.420289822891D-05 0.248359297435D-07 0.000000000000D+00  7 -2 1 -24 -11 11 23 21 2 0.15864064D-01 0.25472585D+00 0.75497786D+05 0.75497786D+05 0.75497786D+05 0.11318787D+01  1  2  5  1  7  1       -2 -.141216967444D-01 0.100000000000D+01
0.516217325778D-03 0.000000000000D+00 0.343430551005D-05 0.248359297435D-07 0.000000000000D+00  7 -2 1 -24 -11 11 23 21 2 0.82228533D-02 0.25472585D+00 0.75497786D+05 0.75497786D+05 0.75497786D+05 0.11318787D+01  1  2  6  1  7  1       -2 0.322708513677D-01 0.100000000000D+01
0.448090795083D-04 0.000000000000D+00 0.000000000000D+00 0.248359297435D-07 0.000000000000D+00  7 21 1 -24 -11 11 23 2 2 0.15849978D-01 0.25472585D+00 0.82283017D+05 0.82283017D+05 0.82283017D+05 0.11287388D+01  1  2 12  3  7  1       -2 0.134799625273D-01 0.100000000000D+01
-.445369212182D-04 0.000000000000D+00 -.299594086133D-06 0.248359297435D-07 0.000000000000D+00  7 21 1 -24 -11 11 23 2 2 0.15864064D-01 0.25472585D+00 0.75497786D+05 0.75497786D+05 0.75497786D+05 0.11318787D+01  1  2  5  3  7  1       -2 -.135109348324D-01 0.100000000000D+01
  </mgrwgt>
  </event>
  <event>
  8     66 0.26562228E-05 0.64978940E+03 0.75467711E-02 0.89983698E-01
       -2 -1    0    0    0  501 0.00000000E+00 0.00000000E+00 0.24097056E+03 0.24097077E+03 0.32000000E+00 0.0000E+00 0.9000E+01
        1 -1    0    0  501    0 0.00000000E+00 0.00000000E+00 -.18687568E+04 0.18687569E+04 0.32000000E+00 0.0000E+00 0.9000E+01
       25  2    1    2    0    0 0.54818339E+03 -.27447862E+03 -.59273858E+03 0.90405998E+03 0.30023637E+03 0.0000E+00 0.0000E+00
       23  2    3    3    0    0 0.43531091E+03 -.10043607E+03 -.40005548E+03 0.60661581E+03 0.91407675E+02 0.0000E+00 0.0000E+00
      -24  1    1    2    0    0 -.54818339E+03 0.27447862E+03 -.10350477E+04 0.12056677E+04 0.80419002E+02 0.0000E+00 0.9000E+01
      -13  1    4    4    0    0 0.16166799E+03 -.79687200E+02 -.18151367E+03 0.25580034E+03 0.10565837E+00 0.0000E+00 0.9000E+01
       13  1    4    4    0    0 0.27364292E+03 -.20748874E+02 -.21854181E+03 0.35081548E+03 0.10565837E+00 0.0000E+00 0.9000E+01
       23  1    3    3    0    0 0.11287248E+03 -.17404255E+03 -.19268310E+03 0.29744417E+03 0.91188000E+02 0.0000E+00 0.9000E+01
#aMCatNLO 1  0  0  2  2 0.22151807D+03 0.00000000D+00  -5  7  0 0.00000000D+00 0.00000000D+00 0.00000000D+00 0.00000000D+00 0.00000000D+00
  <mgrwgt>
 0.1308601215D-02    4    2    0
 0.671055611182268D+03 0.000000000000000D+00 0.000000000000000D+00 0.671055611182268D+03
 0.671055611182268D+03 0.000000000000000D+00 0.000000000000000D+00 -.671055611182268D+03
 0.639882835381969D+03 -.548183392625241D+03 0.274478618948637D+03 -.164740046291201D+03
 0.181954658715491D+03 0.161667838862489D+03 -.796872782760466D+02 0.249187757877221D+02
 0.286403935739038D+03 0.273643072959998D+03 -.207487955477083D+02 0.819522453087139D+02
 0.233869792528037D+03 0.112872480802754D+03 -.174042545124882D+03 0.578690251947652D+02
 0.000000000000000D+00 -.000000000000000D+00 0.000000000000000D+00 0.000000000000000D+00
 0.109015578212680D+04 0.000000000000000D+00 0.000000000000000D+00 0.109015578212680D+04
 0.710054040375507D+03 0.000000000000000D+00 0.000000000000000D+00 -.710054040375507D+03
 0.558841946748601D+03 -.490656836223272D+03 0.194817072421126D+03 -.164740046291201D+03
 0.210701126183943D+03 0.180511309434967D+03 -.105781313824780D+03 0.249187757877221D+02
 0.319497060623496D+03 0.302720137487945D+03 -.610140934145057D+02 0.819522453087139D+02
 0.271229248082103D+03 0.137112080151485D+03 -.207609024540658D+03 0.578690251947652D+02
 0.439940440864162D+03 -.129686690851125D+03 0.179587359358817D+03 0.380101741751291D+03
0.507183820236D-03 0.000000000000D+00 0.000000000000D+00 0.185062732266D-04 0.000000000000D+00  7 -2 1 -24 -13 13 23 21 0 0.37072412D-01 0.28750107D+00 0.42222626D+06 0.42222626D+06 0.42222626D+06 0.10737387D+01  1  2  2  2  7  2        1 0.140206529993D-02 0.100000000000D+01
-.281413496513D-04 0.000000000000D+00 -.194771941427D-05 0.185062732266D-04 0.000000000000D+00  7 -2 1 -24 -13 13 23 21 2 0.37072412D-01 0.28750107D+00 0.42222626D+06 0.42222626D+06 0.42222626D+06 0.10737387D+01  1  2  3  2  7  2        1 -.896901946007D-04 0.100000000000D+01
0.327795110537D-04 0.000000000000D+00 0.000000000000D+00 0.185062732266D-04 0.000000000000D+00  7 -2 1 -24 -13 13 23 21 2 0.37072412D-01 0.28750107D+00 0.42222626D+06 0.42222626D+06 0.42222626D+06 0.10737387D+01  1  2 15  2  7  2        1 0.104472626997D-03 0.100000000000D+01
-.339636133354D-04 0.000000000000D+00 0.000000000000D+00 0.185062732266D-04 0.000000000000D+00  7 -2 1 -24 -13 13 23 21 2 0.37072412D-01 0.28750107D+00 0.42222626D+06 0.42222626D+06 0.42222626D+06 0.10737387D+01  1  2  4  2  7  2        1 -.108246517212D-03 0.100000000000D+01
  </mgrwgt>
  </event>
  <event>
  9     66 0.26562228E-05 0.19330341E+03 0.75467711E-02 0.10116654E+00
       -2 -1    0    0    0  501 0.00000000E+00 0.00000000E+00 0.64664582E+03 0.64664590E+03 0.32000000E+00 0.0000E+00 0.9000E+01
        1 -1    0    0  502    0 0.00000000E+00 0.00000000E+00 -.17559297E+03 0.17559326E+03 0.32000000E+00 0.0000E+00 0.9000E+01
       25  2    1    2    0    0 0.81291544E+02 -.19927591E+03 0.17138077E+03 0.40669850E+03 0.29952144E+03 0.0000E+00 0.0000E+00
       23  2    3    3    0    0 0.27688443E+02 -.20241043E+03 0.22770196E+02 0.22426091E+03 0.89654033E+02 0.0000E+00 0.0000E+00
      -24  1    1    2    0    0 -.34542220E+02 0.45266676E+02 0.20837836E+03 0.23050161E+03 0.80419002E+02 0.0000E+00 0.9000E+01
      -13  1    4    4    0    0 0.41164015E+02 -.20030699E+03 0.87190943E+01 0.20467878E+03 0.10565837E+00 0.0000E+00 0.9000E+01
       13  1    4    4    0    0 -.13475571E+02 -.21034304E+01 0.14051102E+02 0.19582137E+02 0.10565837E+00 0.0000E+00 0.9000E+01
       23  1    3    3    0    0 0.53603100E+02 0.31345137E+01 0.14861057E+03 0.18243758E+03 0.91188000E+02 0.0000E+00 0.9000E+01
       21  1    1    2  502  501 -.46749323E+02 0.15400924E+03 0.91293717E+02 0.18503905E+03 0.75000000E+00 0.0000E+00 0.9000E+01
#aMCatNLO 2  0  0  2  1 0.16094826D+03 0.00000000D+00  -5  7  0 0.00000000D+00 0.00000000D+00 0.00000000D+00 0.00000000D+00 0.00000000D+00
  <mgrwgt>
 0.1538900750D-03    1    2    0
 0.242849048007903D+03 0.000000000000000D+00 0.000000000000000D+00 0.242849048007903D+03
 0.242849048007903D+03 0.000000000000000D+00 0.000000000000000D+00 -.242849048007903D+03
 0.157151905596473D+03 -.481139985725585D+02 0.899770374315322D+02 0.884233077567037D+02
 0.194229272779634D+03 0.204158451442229D+02 -.131955020328121D+03 -.141053451860483D+03
 0.153338268205571D+02 -.148485991687281D+02 0.241984817801928D+01 0.296473986795128D+01
 0.118983090819143D+03 0.425467525970638D+02 0.395581347185696D+02 0.496654042358280D+02
 0.000000000000000D+00 -.000000000000000D+00 0.000000000000000D+00 -.000000000000000D+00
 0.325351298852582D+03 0.000000000000000D+00 0.000000000000000D+00 0.325351298852582D+03
 0.348995155118090D+03 0.000000000000000D+00 0.000000000000000D+00 -.348995155118090D+03
 0.132393860698912D+03 -.345422208674554D+02 0.452666766982033D+02 0.884233077567037D+02
 0.248422142704192D+03 0.411640905378957D+02 -.200307269848531D+03 -.141053451860483D+03
 0.139572920144240D+02 -.134756467728137D+02 -.210315523574426D+01 0.296473986795128D+01
 0.116897481861526D+03 0.536031004011915D+02 0.313451288678657D+01 0.496654042358280D+02
 0.162675676691618D+03 -.467493232988180D+02 0.154009235499285D+03 -.236438562655078D+02
0.708738104137D-05 0.000000000000D+00 0.000000000000D+00 0.550585052461D-06 0.159674855434D-09  7 -2 1 -24 -13 13 23 21 2 0.99483744D-01 0.27014262D-01 0.85100321D+05 0.85100321D+05 0.85100321D+05 0.11275178D+01  1  2  1  2  7  2        1 0.153890074952D-03 0.100000000000D+01
  </mgrwgt>
  </event>
  <event>
  8     66 0.26562228E-05 0.30555151E+03 0.75467711E-02 0.96582348E-01
       -4 -1    0    0    0  501 0.00000000E+00 0.00000000E+00 0.78903503E+03 0.78903656E+03 0.15500000E+01 0.0000E+00 0.9000E+01
        3 -1    0    0  501    0 0.00000000E+00 0.00000000E+00 -.14966015E+03 0.14966098E+03 0.50000000E+00 0.0000E+00 0.9000E+01
       25  2    1    2    0    0 -.21784237E+03 -.84999711E+02 0.57165967E+03 0.68231342E+03 0.28995962E+03 0.0000E+00 0.0000E+00
       23  2    3    3    0    0 -.12461910E+03 0.69561931E+02 0.23092250E+03 0.28608502E+03 0.90280974E+02 0.0000E+00 0.0000E+00
      -24  1    1    2    0    0 0.21784237E+03 0.84999711E+02 0.67715217E+02 0.25638412E+03 0.80419002E+02 0.0000E+00 0.9000E+01
      -11  1    4    4    0    0 -.12700714E+03 0.80521135E+02 0.18297163E+03 0.23683978E+03 0.51099893E-03 0.0000E+00 0.9000E+01
       11  1    4    4    0    0 0.23880399E+01 -.10959203E+02 0.47950876E+02 0.49245238E+02 0.51099893E-03 0.0000E+00 0.9000E+01
       23  1    3    3    0    0 -.93223270E+02 -.15456164E+03 0.34073716E+03 0.39622840E+03 0.91188000E+02 0.0000E+00 0.9000E+01
#aMCatNLO 1  0  0  1  2 0.19687718D+03 0.00000000D+00  -5  7  0 0.00000000D+00 0.00000000D+00 0.00000000D+00 0.00000000D+00 0.00000000D+00
  <mgrwgt>
 0.2572174646D-02    3    2    0
 0.343639647316956D+03 0.000000000000000D+00 0.000000000000000D+00 0.343639647316956D+03
 0.343639647316956D+03 0.000000000000000D+00 0.000000000000000D+00 -.343639647316956D+03
 0.287178347094162D+03 0.217842370515772D+03 0.849997108823604D+02 -.146027181864708D+03
 0.153261505649748D+03 -.127007140285539D+03 0.805211347199433D+02 0.295740138285264D+02
 0.226513404706681D+02 0.238803994690729D+01 -.109592034695077D+02 0.196793381403956D+02
 0.224188101419333D+03 -.932232701771403D+02 -.154561642132796D+03 0.967738298957861D+02
 0.000000000000000D+00 -.000000000000000D+00 0.000000000000000D+00 -.000000000000000D+00
 0.373793405217566D+03 0.000000000000000D+00 0.000000000000000D+00 0.373793405217566D+03
 0.950769402171601D+03 0.000000000000000D+00 0.000000000000000D+00 -.950769402171601D+03
 0.320447647144071D+03 0.272948197624434D+03 0.198701327631487D+02 -.146027181864708D+03
 0.118317068144998D+03 -.102377578555363D+03 0.514114552375114D+02 0.295740138285264D+02
 0.264008566789807D+02 0.683660192592085D+01 -.162169589580336D+02 0.196793381403956D+02
 0.249756418867228D+03 -.502410655946140D+02 -.205362310555275D+03 0.967738298957861D+02
 0.609640816553890D+03 -.127166155400377D+03 0.150297681512649D+03 -.576975996954035D+03
0.114459849200D-02 0.000000000000D+00 0.000000000000D+00 0.118356893419D-07 0.000000000000D+00  7 -4 3 -24 -11 11 23 21 0 0.12139019D+00 0.23024820D-01 0.93361725D+05 0.93361725D+05 0.93361725D+05 0.11241783D+01  1  2  2  1  7  1       -4 0.254253816642D-02 0.100000000000D+01
-.625218293477D-04 0.000000000000D+00 -.439555958898D-05 0.118356893419D-07 0.000000000000D+00  7 -4 3 -24 -11 11 23 21 2 0.12139019D+00 0.23024820D-01 0.93361725D+05 0.93361725D+05 0.93361725D+05 0.11241783D+01  1  2  3  1  7  1       -4 -.175515861934D-03 0.100000000000D+01
0.730788634127D-04 0.000000000000D+00 0.000000000000D+00 0.118356893419D-07 0.000000000000D+00  7 -4 3 -24 -11 11 23 21 2 0.12139019D+00 0.23024820D-01 0.93361725D+05 0.93361725D+05 0.93361725D+05 0.11241783D+01  1  2 15  1  7  1       -4 0.205152341747D-03 0.100000000000D+01
  </mgrwgt>
  </event>
  <event>
  8     66 0.26562228E-05 0.50957865E+03 0.75467711E-02 0.88122067E-01
       -2 -1    0    0    0  501 0.00000000E+00 0.00000000E+00 0.53174496E+03 0.53174506E+03 0.32000000E+00 0.0000E+00 0.9000E+01
        1 -1    0    0  501    0 0.00000000E+00 0.00000000E+00 -.66719927E+03 0.66719935E+03 0.32000000E+00 0.0000E+00 0.9000E+01
       25  2    1    2    0    0 -.27671544E+03 -.38280335E+03 0.22059659E+03 0.60199440E+03 0.30103914E+03 0.0000E+00 0.0000E+00
       23  2    3    3    0    0 -.86032989E+02 -.27816729E+03 0.47315829E+02 0.30933423E+03 0.93113701E+02 0.0000E+00 0.0000E+00
      -24  1    1    2    0    0 0.27671544E+03 0.38280335E+03 -.35605090E+03 0.59695000E+03 0.80419002E+02 0.0000E+00 0.9000E+01
      -11  1    4    4    0    0 -.87203674E+02 -.13326209E+03 0.40179083E+02 0.16424866E+03 0.51099893E-03 0.0000E+00 0.9000E+01
       11  1    4    4    0    0 0.11706855E+01 -.14490520E+03 0.71367459E+01 0.14508557E+03 0.51099893E-03 0.0000E+00 0.9000E+01
       23  1    3    3    0    0 -.19068245E+03 -.10463606E+03 0.17328076E+03 0.29266017E+03 0.91188000E+02 0.0000E+00 0.9000E+01
#aMCatNLO 1  0  0  2  1 0.67489592D+03 0.00000000D+00  -5  7  0 0.00000000D+00 0.00000000D+00 0.00000000D+00 0.00000000D+00 0.00000000D+00
  <mgrwgt>
 0.1118239658D-02    5    2    0
 0.595634076481921D+03 0.000000000000000D+00 0.000000000000000D+00 0.595634076481921D+03
 0.595634076481921D+03 0.000000000000000D+00 0.000000000000000D+00 -.595634076481921D+03
 0.560311488278182D+03 0.276715442794936D+03 0.382803349293934D+03 -.290468427596339D+03
 0.169875643909775D+03 -.872036740493998D+02 -.133262086384963D+03 0.591140419728969D+02
 0.146831954092247D+03 0.117068545553837D+01 -.144905203183711D+03 0.236798295686277D+02
 0.314249066683638D+03 -.190682454201075D+03 -.104636059725260D+03 0.207674556054814D+03
 0.000000000000000D+00 0.000000000000000D+00 0.000000000000000D+00 -.000000000000000D+00
 0.988436958602968D+03 0.000000000000000D+00 0.000000000000000D+00 0.988436958602968D+03
 0.105933452575489D+04 0.000000000000000D+00 0.000000000000000D+00 -.105933452575489D+04
 0.377468497327959D+03 0.114469358372730D+03 0.196316349507887D+03 -.290468427596339D+03
 0.284629136400458D+03 -.165837918849204D+03 -.223644941819532D+03 0.591140419728969D+02
 0.230258080518175D+03 -.640699706996792D+02 -.219893356357252D+03 0.236798295686277D+02
 0.476806187415839D+03 -.327543572490240D+03 -.261945368162514D+03 0.207674556054814D+03
 0.678609582695428D+03 0.442982103666393D+03 0.509167316831411D+03 -.708975671519218D+02
0.253672075675D-03 0.000000000000D+00 0.000000000000D+00 0.121227310408D-05 0.000000000000D+00  7 -2 1 -24 -11 11 23 21 0 0.81806930D-01 0.10264605D+00 0.25967040D+06 0.25967040D+06 0.25967040D+06 0.10892213D+01  1  2  2  2  7  2        1 0.109251769277D-02 0.100000000000D+01
-.136756719079D-04 0.000000000000D+00 -.974167563984D-06 0.121227310408D-05 0.000000000000D+00  7 -2 1 -24 -11 11 23 21 2 0.81806930D-01 0.10264605D+00 0.25967040D+06 0.25967040D+06 0.25967040D+06 0.10892213D+01  1  2  3  2  7  2        1 -.698774007817D-04 0.100000000000D+01
0.160818742619D-04 0.000000000000D+00 0.000000000000D+00 0.121227310408D-05 0.000000000000D+00  7 -2 1 -24 -11 11 23 21 2 0.81806930D-01 0.10264605D+00 0.25967040D+06 0.25967040D+06 0.25967040D+06 0.10892213D+01  1  2 15  2  7  2        1 0.821721653372D-04 0.100000000000D+01
0.108446608905D-04 0.000000000000D+00 -.781199373730D-04 0.121227310408D-05 0.000000000000D+00  7 -2 1 -24 -11 11 23 21 2 0.81806930D-01 0.25697764D+00 0.25967040D+06 0.25967040D+06 0.25967040D+06 0.10892213D+01  1  2  5  2  7  2        1 0.983686782691D-05 0.100000000000D+01
0.592002579542D-05 0.000000000000D+00 -.789325071690D-05 0.121227310408D-05 0.000000000000D+00  7 -2 21 -24 -11 11 23 -1 2 0.81806930D-01 0.25697764D+00 0.25967040D+06 0.25967040D+06 0.25967040D+06 0.10892213D+01  1  2  5  4  7  2        1 0.359033326337D-05 0.100000000000D+01
  </mgrwgt>
  </event>
  <event>
  8     66 0.26562228E-05 0.22963867E+03 0.75467711E-02 0.10146083E+00
       -2 -1    0    0    0  501 0.00000000E+00 0.00000000E+00 0.15172777E+03 0.15172810E+03 0.32000000E+00 0.0000E+00 0.9000E+01
        1 -1    0    0  501    0 0.00000000E+00 0.00000000E+00 -.55443558E+03 0.55443567E+03 0.32000000E+00 0.0000E+00 0.9000E+01
       25  2    1    2    0    0 -.87130547E+02 -.10976981E+03 -.74173021E+02 0.34004430E+03 0.30081115E+03 0.0000E+00 0.0000E+00
       23  2    3    3    0    0 -.11505003E+03 -.14655524E+03 0.91409675E+01 0.20817642E+03 0.92406252E+02 0.0000E+00 0.0000E+00
      -24  1    1    2    0    0 0.87130547E+02 0.10976981E+03 -.32853480E+03 0.36611948E+03 0.80419002E+02 0.0000E+00 0.9000E+01
      -13  1    4    4    0    0 -.11936032E+02 -.59043620E+02 -.30121168E+02 0.67349194E+02 0.10565837E+00 0.0000E+00 0.9000E+01
       13  1    4    4    0    0 -.10311400E+03 -.87511622E+02 0.39262136E+02 0.14082723E+03 0.10565837E+00 0.0000E+00 0.9000E+01
       23  1    3    3    0    0 0.27919487E+02 0.36785437E+02 -.83313989E+02 0.13186788E+03 0.91188000E+02 0.0000E+00 0.9000E+01
#aMCatNLO 1  0  0  2  1 0.10143294D+03 0.00000000D+00  -5  7  0 0.00000000D+00 0.00000000D+00 0.00000000D+00 0.00000000D+00 0.00000000D+00
  <mgrwgt>
 0.4576438016D-03    4    2    0
 0.290040382770638D+03 0.000000000000000D+00 0.000000000000000D+00 0.290040382770638D+03
 0.290040382770638D+03 0.000000000000000D+00 0.000000000000000D+00 -.290040382770638D+03
 0.217619321518506D+03 0.871305479869328D+02 0.109769806792938D+03 -.145773146594091D+03
 0.610767132730805D+02 -.119359135858308D+02 -.590435824250508D+02 0.100873309418254D+02
 0.198693640614654D+03 -.103114119845229D+03 -.875116597274638D+02 0.145562187813298D+03
 0.102691090135034D+03 0.279194854441269D+02 0.367854353595768D+02 -.987637216103252D+01
 0.000000000000000D+00 -.000000000000000D+00 0.000000000000000D+00 0.000000000000000D+00
 0.346689055557106D+03 0.000000000000000D+00 0.000000000000000D+00 0.346689055557106D+03
 0.343671045494269D+03 0.000000000000000D+00 0.000000000000000D+00 -.343671045494269D+03
 0.216710444430614D+03 0.112184218689817D+03 0.816155106579426D+02 -.145773146594091D+03
 0.683287317052764D+02 -.447135172564328D+01 -.674319534395031D+02 0.100873309418254D+02
 0.201153683474938D+03 -.800495178433855D+02 -.113430721357061D+03 0.145562187813298D+03
 0.102689416502467D+03 0.397665564613371D+02 0.234721788030255D+02 -.987637216103252D+01
 0.101477824938080D+03 -.674299055821256D+02 0.757749853355962D+02 0.301801006283651D+01
0.171301330546D-04 0.000000000000D+00 0.000000000000D+00 0.602123111871D-06 0.000000000000D+00  7 -2 1 -24 -13 13 23 21 0 0.23342766D-01 0.85297815D-01 0.52733920D+05 0.52733920D+05 0.52733920D+05 0.11452673D+01  1  2  2  2  7  2        1 0.111209711932D-02 0.100000000000D+01
-.888579465048D-06 0.000000000000D+00 -.657842213974D-07 0.602123111871D-06 0.000000000000D+00  7 -2 1 -24 -13 13 23 21 2 0.23342766D-01 0.85297815D-01 0.52733920D+05 0.52733920D+05 0.52733920D+05 0.11452673D+01  1  2  3  2  7  2        1 -.756644658486D-04 0.100000000000D+01
0.111282849545D-05 0.000000000000D+00 0.000000000000D+00 0.602123111871D-06 0.000000000000D+00  7 -2 1 -24 -13 13 23 21 2 0.23342766D-01 0.85297815D-01 0.52733920D+05 0.52733920D+05 0.52733920D+05 0.11452673D+01  1  2 15  2  7  2        1 0.947597564440D-04 0.100000000000D+01
-.790994101869D-05 0.000000000000D+00 0.000000000000D+00 0.602123111871D-06 0.000000000000D+00  7 -2 1 -24 -13 13 23 21 2 0.23342766D-01 0.85297815D-01 0.52733920D+05 0.52733920D+05 0.52733920D+05 0.11452673D+01  1  2  4  2  7  2        1 -.673548608329D-03 0.100000000000D+01
  </mgrwgt>
  </event>
  <event>
  8     66 0.26562228E-05 0.17709142E+03 0.75467711E-02 0.10077754E+00
       -2 -1    0    0    0  501 0.00000000E+00 0.00000000E+00 0.53303690E+02 0.53304650E+02 0.32000000E+00 0.0000E+00 0.9000E+01
        1 -1    0    0  501    0 0.00000000E+00 0.00000000E+00 -.20204185E+04 0.20204185E+04 0.32000000E+00 0.0000E+00 0.9000E+01
       25  2    1    2    0    0 -.12177733E+03 -.61556205E+02 -.50452013E+03 0.60257760E+03 0.29990052E+03 0.0000E+00 0.0000E+00
       23  2    3    3    0    0 -.12671699E+02 -.37944541E+02 -.23024620E+02 0.99969675E+02 0.88676054E+02 0.0000E+00 0.0000E+00
      -24  1    1    2    0    0 0.12177733E+03 0.61556205E+02 -.14625947E+04 0.14711456E+04 0.80419002E+02 0.0000E+00 0.9000E+01
      -13  1    4    4    0    0 0.99150054E+01 -.35982978E+01 0.30619906E+02 0.32385875E+02 0.10565837E+00 0.0000E+00 0.9000E+01
       13  1    4    4    0    0 -.22586704E+02 -.34346244E+02 -.53644526E+02 0.67583800E+02 0.10565837E+00 0.0000E+00 0.9000E+01
       23  1    3    3    0    0 -.10910563E+03 -.23611664E+02 -.48149551E+03 0.50260793E+03 0.91188000E+02 0.0000E+00 0.9000E+01
#aMCatNLO 1  0  0  2  2 0.19565035D+03 0.00000000D+00  -5  7  0 0.00000000D+00 0.00000000D+00 0.00000000D+00 0.00000000D+00 0.00000000D+00
  <mgrwgt>
 0.1610077565D-02    5    2    0
 0.328171880576237D+03 0.000000000000000D+00 0.000000000000000D+00 0.328171880576237D+03
 0.328171880576237D+03 0.000000000000000D+00 0.000000000000000D+00 -.328171880576237D+03
 0.264582411003621D+03 0.121777332458656D+03 0.615562051521814D+02 -.211938083327738D+03
 0.194093935204814D+03 0.991505143459004D+01 -.359825434568603D+01 0.193807120622551D+03
 0.527543955980856D+02 -.225867499416303D+02 -.343462870445119D+02 0.330635380479701D+02
 0.144913019345953D+03 -.109105633951615D+03 -.236116637619835D+02 -.149325753427824D+02
 0.000000000000000D+00 0.000000000000000D+00 -.000000000000000D+00 -.000000000000000D+00
 0.356391590159102D+03 0.000000000000000D+00 0.000000000000000D+00 0.356391590159102D+03
 0.102846855600532D+04 0.000000000000000D+00 0.000000000000000D+00 -.102846855600532D+04
 0.252212964563031D+03 0.547525723877585D+02 0.960654370290910D+02 -.211938083327738D+03
 0.199415133228080D+03 -.411203334477100D+02 0.226784817286793D+02 0.193807120622551D+03
 0.563477180055678D+02 -.367365340404037D+02 -.270609468216410D+02 0.330635380479701D+02
 0.176908255158470D+03 -.150843611358473D+03 -.212191073813242D+01 -.149325753427824D+02
 0.699976075209272D+03 0.173947906458828D+03 -.895610611979968D+02 -.672076965846217D+03
0.532898246985D-04 0.000000000000D+00 0.000000000000D+00 0.132440655105D-05 0.000000000000D+00  7 -2 1 -24 -13 13 23 21 0 0.82006435D-02 0.31083369D+00 0.31361370D+05 0.31361370D+05 0.31361370D+05 0.11655519D+01  1  2  2  2  7  2        1 0.154253638591D-02 0.100000000000D+01
-.159079178703D-05 0.000000000000D+00 -.204646958375D-06 0.132440655105D-05 0.000000000000D+00  7 -2 1 -24 -13 13 23 21 2 0.82006435D-02 0.31083369D+00 0.31361370D+05 0.31361370D+05 0.31361370D+05 0.11655519D+01  1  2  3  2  7  2        1 -.625558147105D-04 0.100000000000D+01
0.330847430569D-05 0.000000000000D+00 0.000000000000D+00 0.132440655105D-05 0.000000000000D+00  7 -2 1 -24 -13 13 23 21 2 0.82006435D-02 0.31083369D+00 0.31361370D+05 0.31361370D+05 0.31361370D+05 0.11655519D+01  1  2 15  2  7  2        1 0.130101442143D-03 0.100000000000D+01
-.832957938103D-04 0.000000000000D+00 -.132253493382D-04 0.132440655105D-05 0.000000000000D+00  7 -2 1 -24 -13 13 23 21 2 0.82006435D-02 0.97470063D+00 0.31361370D+05 0.31361370D+05 0.31361370D+05 0.11655519D+01  1  2  5  2  7  2        1 -.444197250917D-08 0.100000000000D+01
-.103203624128D-04 0.000000000000D+00 -.173416214385D-05 0.132440655105D-05 0.000000000000D+00  7 -2 21 -24 -13 13 23 -1 2 0.82006435D-02 0.97470063D+00 0.31361370D+05 0.31361370D+05 0.31361370D+05 0.11655519D+01  1  2  5  4  7  2        1 -.633618862879D-11 0.100000000000D+01
  </mgrwgt>
  </event>
  <event>
  8     66 0.26562228E-05 0.10962401E+03 0.75467711E-02 0.10248831E+00
       -2 -1    0    0    0  501 0.00000000E+00 0.00000000E+00 0.16396759E+03 0.16396790E+03 0.32000000E+00 0.0000E+00 0.9000E+01
        1 -1    0    0  501    0 0.00000000E+00 0.00000000E+00 -.30230186E+03 0.30230203E+03 0.32000000E+00 0.0000E+00 0.9000E+01
       25  2    1    2    0    0 -.17870351E+02 0.47675368E+02 -.34846088E+01 0.30121256E+03 0.29685783E+03 0.0000E+00 0.0000E+00
       23  2    3    3    0    0 0.26004972E+02 0.11223835E+03 0.69044622E+02 0.16096577E+03 0.88708027E+02 0.0000E+00 0.0000E+00
      -24  1    1    2    0    0 0.17870351E+02 -.47675368E+02 -.13484966E+03 0.16505738E+03 0.80419002E+02 0.0000E+00 0.9000E+01
      -11  1    4    4    0    0 0.14175539E+02 0.11843955E+03 0.34874916E+02 0.12427845E+03 0.51099893E-03 0.0000E+00 0.9000E+01
       11  1    4    4    0    0 0.11829433E+02 -.62012080E+01 0.34169705E+02 0.36687317E+02 0.51099893E-03 0.0000E+00 0.9000E+01
       23  1    3    3    0    0 -.43875323E+02 -.64562977E+02 -.72529231E+02 0.14024679E+03 0.91188000E+02 0.0000E+00 0.9000E+01
#aMCatNLO 1  0  0  2  1 0.14285833D+03 0.00000000D+00  -5  7  0 0.00000000D+00 0.00000000D+00 0.00000000D+00 0.00000000D+00 0.00000000D+00
  <mgrwgt>
 0.1311682168D-02    8    2    0
 0.222638318101560D+03 0.000000000000000D+00 0.000000000000000D+00 0.222638318101560D+03
 0.222638318101560D+03 0.000000000000000D+00 0.000000000000000D+00 -.222638318101560D+03
 0.130945479392151D+03 0.178703509730775D+02 -.476753682490626D+02 -.899289299240514D+02
 0.140972367438217D+03 0.141755386916910D+02 0.118439553107122D+03 0.751287877163023D+02
 0.490325170483510D+02 0.118294330438183D+02 -.620120797489162D+01 0.471783558595548D+02
 0.124326272324401D+03 -.438753227085867D+02 -.645629768831680D+02 -.323782136518057D+02
 0.000000000000000D+00 -.000000000000000D+00 0.000000000000000D+00 -.000000000000000D+00
 0.272952232002992D+03 0.000000000000000D+00 0.000000000000000D+00 0.272952232002992D+03
 0.364184572420608D+03 0.000000000000000D+00 0.000000000000000D+00 -.364184572420608D+03
 0.148231768272066D+03 0.588097533919367D+02 -.629256834638095D+02 -.899289299240514D+02
 0.139047285971848D+03 0.552384740564395D+02 0.103143220699820D+03 0.751287877163023D+02
 0.557452346314867D+02 0.271943618711254D+02 -.119247895130687D+02 0.471783558595548D+02
 0.124607816368067D+03 -.737086929048261D+01 -.781612315834291D+02 -.323782136518057D+02
 0.169504699180133D+03 -.133871720029019D+03 0.498684838604875D+02 -.912323404176162D+02
0.654444267977D-05 0.000000000000D+00 0.000000000000D+00 0.875165072419D-08 0.000000000000D+00  7 -2 1 -24 -11 11 23 21 0 0.25225820D-01 0.46508016D-01 0.30251419D+05 0.30251419D+05 0.30251419D+05 0.11669998D+01  1  2  2  2  7  2        1 0.835190072116D-03 0.100000000000D+01
-.336632453207D-06 0.000000000000D+00 -.251323830817D-07 0.875165072419D-08 0.000000000000D+00  7 -2 1 -24 -11 11 23 21 2 0.25225820D-01 0.46508016D-01 0.30251419D+05 0.30251419D+05 0.30251419D+05 0.11669998D+01  1  2  3  2  7  2        1 -.585073173818D-04 0.100000000000D+01
0.407807040068D-06 0.000000000000D+00 0.000000000000D+00 0.875165072419D-08 0.000000000000D+00  7 -2 1 -24 -11 11 23 21 2 0.25225820D-01 0.46508016D-01 0.30251419D+05 0.30251419D+05 0.30251419D+05 0.11669998D+01  1  2 15  2  7  2        1 0.708775868056D-04 0.100000000000D+01
0.222983358247D-06 0.000000000000D+00 0.000000000000D+00 0.875165072419D-08 0.000000000000D+00  7 -2 1 -24 -11 11 23 21 2 0.25225820D-01 0.78601706D-01 0.69622111D+05 0.69622111D+05 0.69622111D+05 0.11348595D+01  1  2 12  2  7  2        1 0.182970529129D-04 0.100000000000D+01
-.268132278255D-05 0.000000000000D+00 -.225357549366D-05 0.875165072419D-08 0.000000000000D+00  7 -2 1 -24 -11 11 23 21 2 0.25225820D-01 0.89542588D-01 0.30251419D+05 0.30251419D+05 0.30251419D+05 0.11669998D+01  1  2  5  2  7  2        1 -.195027713988D-03 0.100000000000D+01
0.373668646541D-05 0.000000000000D+00 0.184363372296D-05 0.875165072419D-08 0.000000000000D+00  7 -2 1 -24 -11 11 23 21 2 0.25225820D-01 0.46508016D-01 0.30251419D+05 0.30251419D+05 0.30251419D+05 0.11669998D+01  1  2  6  2  7  2        1 0.649442734666D-03 0.100000000000D+01
0.130695493611D-07 0.000000000000D+00 0.000000000000D+00 0.875165072419D-08 0.000000000000D+00  7 -2 21 -24 -11 11 23 -1 2 0.25225820D-01 0.78601706D-01 0.69622111D+05 0.69622111D+05 0.69622111D+05 0.11348595D+01  1  2 12  4  7  2        1 0.320687287680D-05 0.100000000000D+01
-.600200108959D-07 0.000000000000D+00 -.160172740531D-06 0.875165072419D-08 0.000000000000D+00  7 -2 21 -24 -11 11 23 -1 2 0.25225820D-01 0.89542588D-01 0.30251419D+05 0.30251419D+05 0.30251419D+05 0.11669998D+01  1  2  5  4  7  2        1 -.117971201003D-04 0.100000000000D+01
  </mgrwgt>
  </event>
  <event>
  8     66 0.26562228E-05 0.21987238E+03 0.75467711E-02 0.92805278E-01
       -2 -1    0    0    0  501 0.00000000E+00 0.00000000E+00 0.24403715E+03 0.24403736E+03 0.32000000E+00 0.0000E+00 0.9000E+01
        1 -1    0    0  501    0 0.00000000E+00 0.00000000E+00 -.10695996E+04 0.10695996E+04 0.32000000E+00 0.0000E+00 0.9000E+01
       25  2    1    2    0    0 -.23318010E+02 0.46245153E+03 -.42857828E+03 0.69843882E+03 0.29955350E+03 0.0000E+00 0.0000E+00
       23  2    3    3    0    0 -.34550036E+02 0.33442485E+03 -.41332530E+03 0.54011985E+03 0.88645209E+02 0.0000E+00 0.0000E+00
      -24  1    1    2    0    0 0.23318010E+02 -.46245153E+03 -.39698413E+03 0.61519815E+03 0.80419002E+02 0.0000E+00 0.9000E+01
      -13  1    4    4    0    0 -.63727926E+02 0.26112467E+03 -.32140881E+03 0.41898804E+03 0.10565837E+00 0.0000E+00 0.9000E+01
       13  1    4    4    0    0 0.29177890E+02 0.73300173E+02 -.91916485E+02 0.12113181E+03 0.10565837E+00 0.0000E+00 0.9000E+01
       23  1    3    3    0    0 0.11232026E+02 0.12802669E+03 -.15252982E+02 0.15831897E+03 0.91188000E+02 0.0000E+00 0.9000E+01
#aMCatNLO 1  0  0  2  1 0.18713699D+03 0.00000000D+00  -5  7  0 0.00000000D+00 0.00000000D+00 0.00000000D+00 0.00000000D+00 0.00000000D+00
  <mgrwgt>
 0.1179547866D-02    9    2    0
 0.510903316951948D+03 0.000000000000000D+00 0.000000000000000D+00 0.510903316951948D+03
 0.510903316951948D+03 0.000000000000000D+00 0.000000000000000D+00 -.510903316951948D+03
 0.470159266876742D+03 0.233180098276575D+02 -.462451530229502D+03 -.133181410780298D+02
 0.278971993860101D+03 -.637280580678831D+02 0.261124938993204D+03 -.746851672621295D+02
 0.814636966124789D+02 0.291780220487389D+02 0.732999061834562D+02 -.203002622788435D+02
 0.191211676554574D+03 0.112320261914867D+02 0.128026685052842D+03 0.108303570619003D+03
 0.000000000000000D+00 -.000000000000000D+00 0.000000000000000D+00 -.000000000000000D+00
 0.548056992107032D+03 0.000000000000000D+00 0.000000000000000D+00 0.548056992107032D+03
 0.824922406154178D+03 0.000000000000000D+00 0.000000000000000D+00 -.824922406154178D+03
 0.510683978785256D+03 0.107129500317463D+03 -.492622378210253D+03 -.133181410780298D+02
 0.256432416488402D+03 -.179786053958228D+02 0.244655839425774D+03 -.746851672621295D+02
 0.832996050148662D+02 0.432567833069551D+02 0.682317685904302D+02 -.203002622788435D+02
 0.188385736742907D+03 0.436680195423551D+02 0.116350226147572D+03 0.108303570619003D+03
 0.334177661229779D+03 -.176075697770951D+03 0.633845440464768D+02 -.276865414047146D+03
0.107420927752D-03 0.000000000000D+00 0.000000000000D+00 0.128555800104D-05 0.000000000000D+00  7 -2 1 -24 -13 13 23 21 0 0.37544197D-01 0.16455380D+00 0.23777124D+06 0.23777124D+06 0.23777124D+06 0.10921015D+01  1  2  2  2  7  2        1 0.104801053478D-02 0.100000000000D+01
-.595203983788D-05 0.000000000000D+00 -.412524647149D-06 0.128555800104D-05 0.000000000000D+00  7 -2 1 -24 -13 13 23 21 2 0.37544197D-01 0.16455380D+00 0.23777124D+06 0.23777124D+06 0.23777124D+06 0.10921015D+01  1  2  3  2  7  2        1 -.692577771231D-04 0.100000000000D+01
0.679731569852D-05 0.000000000000D+00 0.000000000000D+00 0.128555800104D-05 0.000000000000D+00  7 -2 1 -24 -13 13 23 21 2 0.37544197D-01 0.16455380D+00 0.23777124D+06 0.23777124D+06 0.23777124D+06 0.10921015D+01  1  2 15  2  7  2        1 0.790933845382D-04 0.100000000000D+01
0.124327616717D-03 0.000000000000D+00 0.000000000000D+00 0.128555800104D-05 0.000000000000D+00  7 -2 1 -24 -13 13 23 21 2 0.37544197D-01 0.26859765D+00 0.34685750D+06 0.34685750D+06 0.34685750D+06 0.10799192D+01  1  2 12  2  7  2        1 0.477254253890D-03 0.100000000000D+01
-.140739150376D-03 0.000000000000D+00 0.000000000000D+00 0.128555800104D-05 0.000000000000D+00  7 -2 1 -24 -13 13 23 21 2 0.37544197D-01 0.16455380D+00 0.23777124D+06 0.23777124D+06 0.23777124D+06 0.10921015D+01  1  2  4  2  7  2        1 -.163763700760D-02 0.100000000000D+01
-.162880075455D-03 0.000000000000D+00 -.363204030123D-04 0.128555800104D-05 0.000000000000D+00  7 -2 1 -24 -13 13 23 21 2 0.37544197D-01 0.27270205D+00 0.23777124D+06 0.23777124D+06 0.23777124D+06 0.10921015D+01  1  2  5  2  7  2        1 -.625085329791D-03 0.100000000000D+01
0.164037203725D-03 0.000000000000D+00 0.321328360146D-04 0.128555800104D-05 0.000000000000D+00  7 -2 1 -24 -13 13 23 21 2 0.37544197D-01 0.16455380D+00 0.23777124D+06 0.23777124D+06 0.23777124D+06 0.10921015D+01  1  2  6  2  7  2        1 0.190873253623D-02 0.100000000000D+01
0.689885010893D-05 0.000000000000D+00 0.000000000000D+00 0.128555800104D-05 0.000000000000D+00  7 -2 21 -24 -13 13 23 -1 2 0.37544197D-01 0.26859765D+00 0.34685750D+06 0.34685750D+06 0.34685750D+06 0.10799192D+01  1  2 12  4  7  2        1 0.163749683390D-04 0.100000000000D+01
-.760143784365D-05 0.000000000000D+00 -.206455137445D-05 0.128555800104D-05 0.000000000000D+00  7 -2 21 -24 -13 13 23 -1 2 0.37544197D-01 0.27270205D+00 0.23777124D+06 0.23777124D+06 0.23777124D+06 0.10921015D+01  1  2  5  4  7  2        1 -.179376970327D-04 0.100000000000D+01
  </mgrwgt>
  </event>
  <event>
  8     66 0.26562228E-05 0.11323780E+03 0.75467711E-02 0.10896782E+00
       -2 -1    0    0    0  501 0.00000000E+00 0.00000000E+00 0.31092876E+02 0.31094522E+02 0.32000000E+00 0.0000E+00 0.9000E+01
        1 -1    0    0  501    0 0.00000000E+00 0.00000000E+00 -.13692765E+04 0.13692765E+04 0.32000000E+00 0.0000E+00 0.9000E+01
       25  2    1    2    0    0 -.63443003E+02 0.58098920E+01 -.10723949E+04 0.11154682E+04 0.30029942E+03 0.0000E+00 0.0000E+00
       23  2    3    3    0    0 -.34695006E+02 -.54931447E+02 -.15354244E+03 0.18965989E+03 0.90412312E+02 0.0000E+00 0.0000E+00
      -24  1    1    2    0    0 0.63443003E+02 -.58098920E+01 -.26578873E+03 0.28490285E+03 0.80419002E+02 0.0000E+00 0.9000E+01
      -13  1    4    4    0    0 0.18604447E+02 0.10567522E+02 -.11192275E+02 0.24146969E+02 0.10565837E+00 0.0000E+00 0.9000E+01
       13  1    4    4    0    0 -.53299453E+02 -.65498969E+02 -.14235017E+03 0.16551292E+03 0.10565837E+00 0.0000E+00 0.9000E+01
       23  1    3    3    0    0 -.28747997E+02 0.60741339E+02 -.91885241E+03 0.92580827E+03 0.91188000E+02 0.0000E+00 0.9000E+01
#aMCatNLO 1  0  0  2  1 0.13277583D+02 0.00000000D+00  -5  7  0 0.00000000D+00 0.00000000D+00 0.00000000D+00 0.00000000D+00 0.00000000D+00
  <mgrwgt>
 0.1618812749D-02    9    2    0
 0.206339336767337D+03 0.000000000000000D+00 0.000000000000000D+00 0.206339336767337D+03
 0.206339336767337D+03 0.000000000000000D+00 0.000000000000000D+00 -.206339336767337D+03
 0.104913575639672D+03 0.634430557410354D+02 -.580989688489056D+01 0.219286610525445D+02
 0.456465557156194D+02 0.186045350629221D+02 0.105676322541906D+02 0.403212657580567D+02
 0.100050896540060D+03 -.532995647833198D+02 -.654990625382800D+02 0.536582808053422D+02
 0.162067645639322D+03 -.287480260206377D+02 0.607413271689800D+02 -.115908207615944D+03
 0.000000000000000D+00 -.000000000000000D+00 0.000000000000000D+00 -.000000000000000D+00
 0.210651069313586D+03 0.000000000000000D+00 0.000000000000000D+00 0.210651069313586D+03
 0.216927428524838D+03 0.000000000000000D+00 0.000000000000000D+00 -.216927428524838D+03
 0.105498183986707D+03 0.640168329852889D+02 -.914493242724334D+01 0.219286610525445D+02
 0.454365867909959D+02 0.188529120291059D+02 0.912396048361971D+01 0.403212657580567D+02
 0.101888768324091D+03 -.527488903123826D+02 -.686998150101410D+02 0.536582808053422D+02
 0.160068676601460D+03 -.278695841903071D+02 0.556354524495086D+02 -.115908207615944D+03
 0.146862821351701D+02 -.225127051170511D+01 0.130853345042560D+02 -.627635921125226D+01
0.362535808042D-05 0.000000000000D+00 0.000000000000D+00 0.455656008575D-06 0.000000000000D+00  7 -2 1 -24 -13 13 23 21 0 0.47836489D-02 0.21065805D+00 0.25874750D+05 0.25874750D+05 0.25874750D+05 0.11733440D+01  1  2  2  2  7  2        1 0.613569953110D-03 0.100000000000D+01
-.186224449368D-06 0.000000000000D+00 -.139223296075D-07 0.455656008575D-06 0.000000000000D+00  7 -2 1 -24 -13 13 23 21 2 0.47836489D-02 0.21065805D+00 0.25874750D+05 0.25874750D+05 0.25874750D+05 0.11733440D+01  1  2  3  2  7  2        1 -.433910942657D-04 0.100000000000D+01
0.234727018957D-06 0.000000000000D+00 0.000000000000D+00 0.455656008575D-06 0.000000000000D+00  7 -2 1 -24 -13 13 23 21 2 0.47836489D-02 0.21065805D+00 0.25874750D+05 0.25874750D+05 0.25874750D+05 0.11733440D+01  1  2 15  2  7  2        1 0.546924007068D-04 0.100000000000D+01
0.111736802381D-04 0.000000000000D+00 0.000000000000D+00 0.455656008575D-06 0.000000000000D+00  7 -2 1 -24 -13 13 23 21 2 0.47836489D-02 0.22358729D+00 0.27960342D+05 0.27960342D+05 0.27960342D+05 0.11701837D+01  1  2 12  2  7  2        1 0.228177242042D-02 0.100000000000D+01
-.107609563448D-04 0.000000000000D+00 0.000000000000D+00 0.455656008575D-06 0.000000000000D+00  7 -2 1 -24 -13 13 23 21 2 0.47836489D-02 0.21065805D+00 0.25874750D+05 0.25874750D+05 0.25874750D+05 0.11733440D+01  1  2  4  2  7  2        1 -.250734891541D-02 0.100000000000D+01
-.419113182773D-04 0.000000000000D+00 -.686392782444D-05 0.455656008575D-06 0.000000000000D+00  7 -2 1 -24 -13 13 23 21 2 0.47836489D-02 0.22393991D+00 0.25874750D+05 0.25874750D+05 0.25874750D+05 0.11733440D+01  1  2  5  2  7  2        1 -.857433477306D-02 0.100000000000D+01
0.422647756268D-04 0.000000000000D+00 0.685111810159D-05 0.455656008575D-06 0.000000000000D+00  7 -2 1 -24 -13 13 23 21 2 0.47836489D-02 0.21065805D+00 0.25874750D+05 0.25874750D+05 0.25874750D+05 0.11733440D+01  1  2  6  2  7  2        1 0.984787373281D-02 0.100000000000D+01
0.139056788126D-06 0.000000000000D+00 0.000000000000D+00 0.455656008575D-06 0.000000000000D+00  7 -2 21 -24 -13 13 23 -1 2 0.47836489D-02 0.22358729D+00 0.27960342D+05 0.27960342D+05 0.27960342D+05 0.11701837D+01  1  2 12  4  7  2        1 0.256540535032D-04 0.100000000000D+01
-.430454570765D-06 0.000000000000D+00 -.719547880734D-07 0.455656008575D-06 0.000000000000D+00  7 -2 21 -24 -13 13 23 -1 2 0.47836489D-02 0.22393991D+00 0.25874750D+05 0.25874750D+05 0.25874750D+05 0.11733440D+01  1  2  5  4  7  2        1 -.796750292799D-04 0.100000000000D+01
  </mgrwgt>
  </event>
  <event>
  8     66 0.26562228E-05 0.28030460E+03 0.75467711E-02 0.82369977E-01
       -2 -1    0    0    0  501 0.00000000E+00 0.00000000E+00 0.11034008E+04 0.11034008E+04 0.32000000E+00 0.0000E+00 0.9000E+01
        1 -1    0    0  501    0 0.00000000E+00 0.00000000E+00 -.12121060E+03 0.12121102E+03 0.32000000E+00 0.0000E+00 0.9000E+01
       25  2    1    2    0    0 -.22153719E+03 0.49626322E+02 0.24638377E+03 0.45038979E+03 0.30100582E+03 0.0000E+00 0.0000E+00
       23  2    3    3    0    0 -.29986279E+02 0.66191480E+02 -.98658057E+01 0.11730534E+03 0.91557192E+02 0.0000E+00 0.0000E+00
      -24  1    1    2    0    0 0.22153719E+03 -.49626322E+02 0.73580639E+03 0.77422204E+03 0.80419002E+02 0.0000E+00 0.9000E+01
      -13  1    4    4    0    0 -.55730784E+02 0.32334942E+02 0.17453886E+02 0.66754162E+02 0.10565837E+00 0.0000E+00 0.9000E+01
       13  1    4    4    0    0 0.25744506E+02 0.33856537E+02 -.27319692E+02 0.50551176E+02 0.10565837E+00 0.0000E+00 0.9000E+01
       23  1    3    3    0    0 -.19155091E+03 -.16565158E+02 0.25624958E+03 0.33308446E+03 0.91188000E+02 0.0000E+00 0.9000E+01
#aMCatNLO 1  0  0  2  1 0.17005730D+04 0.00000000D+00  -5  7  0 0.00000000D+00 0.00000000D+00 0.00000000D+00 0.00000000D+00 0.00000000D+00
  <mgrwgt>
 0.1160164649D-02    3    2    0
 0.365710478424025D+03 0.000000000000000D+00 0.000000000000000D+00 0.365710478424025D+03
 0.365710478424025D+03 0.000000000000000D+00 0.000000000000000D+00 -.365710478424025D+03
 0.308194156339054D+03 0.221537193017096D+03 -.496263217253639D+02 0.192288643318546D+03
 0.883278886279718D+02 -.557308931353236D+02 0.323349399823697D+02 -.604180032453165D+02
 0.121323749580585D+03 0.257446135468453D+02 0.338565392927391D+02 -.113623949204097D+03
 0.213575162300440D+03 -.191550913428618D+03 -.165651575497450D+02 -.182466908691327D+02
 0.000000000000000D+00 0.000000000000000D+00 0.000000000000000D+00 0.000000000000000D+00
 0.188124183589535D+04 0.000000000000000D+00 0.000000000000000D+00 0.188124183589535D+04
 0.168214211643861D+04 0.000000000000000D+00 0.000000000000000D+00 -.168214211643861D+04
 0.486228724928257D+03 -.157576264932274D+03 -.410056039306453D+03 0.192288643318546D+03
 0.265662452799210D+03 -.224661705154546D+03 -.128270503032433D+03 -.604180032453165D+02
 0.209446573947312D+03 -.132105171620027D+03 -.116213979954112D+03 -.113623949204097D+03
 0.889857809350681D+03 -.718129766281731D+03 -.517192775056713D+03 -.182466908691327D+02
 0.171218839130850D+04 0.123247290798858D+04 0.117173329734971D+04 0.199099719456740D+03
0.165818811951D-03 0.000000000000D+00 0.000000000000D+00 0.152499075560D-05 0.000000000000D+00  7 -2 1 -24 -13 13 23 21 0 0.16975400D+00 0.18647820D-01 0.78570666D+05 0.78570666D+05 0.78570666D+05 0.11304198D+01  1  2  2  2  7  2        1 0.114201897589D-02 0.100000000000D+01
-.841985161042D-05 0.000000000000D+00 -.636787898989D-06 0.152499075560D-05 0.000000000000D+00  7 -2 1 -24 -13 13 23 21 2 0.16975400D+00 0.18647820D-01 0.78570666D+05 0.78570666D+05 0.78570666D+05 0.11304198D+01  1  2  3  2  7  2        1 -.741009019264D-04 0.100000000000D+01
0.104816872292D-04 0.000000000000D+00 0.000000000000D+00 0.152499075560D-05 0.000000000000D+00  7 -2 1 -24 -13 13 23 21 2 0.16975400D+00 0.18647820D-01 0.78570666D+05 0.78570666D+05 0.78570666D+05 0.11304198D+01  1  2 15  2  7  2        1 0.922465755133D-04 0.100000000000D+01
  </mgrwgt>
  </event>
  <event>
  8     66 0.26562228E-05 0.66757261E+03 0.75467711E-02 0.84653611E-01
       -2 -1    0    0    0  501 0.00000000E+00 0.00000000E+00 0.32586593E+03 0.32586608E+03 0.32000000E+00 0.0000E+00 0.9000E+01
        1 -1    0    0  501    0 0.00000000E+00 0.00000000E+00 -.14027023E+04 0.14027023E+04 0.32000000E+00 0.0000E+00 0.9000E+01
       25  2    1    2    0    0 0.61885802E+03 -.14538468E+03 -.66012471E+03 0.96421393E+03 0.29970304E+03 0.0000E+00 0.0000E+00
       23  2    3    3    0    0 0.56513255E+03 -.83424378E+02 -.51899445E+03 0.77724199E+03 0.91735716E+02 0.0000E+00 0.0000E+00
      -24  1    1    2    0    0 -.61885802E+03 0.14538468E+03 -.41671165E+03 0.76435447E+03 0.80419002E+02 0.0000E+00 0.9000E+01
      -13  1    4    4    0    0 0.29386133E+03 -.55146891E+02 -.21159722E+03 0.36629094E+03 0.10565837E+00 0.0000E+00 0.9000E+01
       13  1    4    4    0    0 0.27127122E+03 -.28277488E+02 -.30739724E+03 0.41095105E+03 0.10565837E+00 0.0000E+00 0.9000E+01
       23  1    3    3    0    0 0.53725467E+02 -.61960303E+02 -.14113026E+03 0.18697194E+03 0.91188000E+02 0.0000E+00 0.9000E+01
#aMCatNLO 1  0  0  1  1 0.10069447D+04 0.00000000D+00  -5  7  0 0.00000000D+00 0.00000000D+00 0.00000000D+00 0.00000000D+00 0.00000000D+00
  <mgrwgt>
 0.1015767281D-02    3    2    0
 0.676086566067638D+03 0.000000000000000D+00 0.000000000000000D+00 0.676086566067638D+03
 0.676086566067638D+03 0.000000000000000D+00 0.000000000000000D+00 -.676086566067638D+03
 0.645264071147973D+03 -.618858015992485D+03 0.145384681311701D+03 0.760036580818745D+02
 0.299742240825037D+03 0.293861358606897D+03 -.551469263160826D+02 0.212068236756905D+02
 0.280541324571114D+03 0.271271190857625D+03 -.282774520930637D+02 -.656944556711249D+02
 0.126625495591152D+03 0.537254665279627D+02 -.619603029025550D+02 -.315160260864401D+02
 0.000000000000000D+00 -.000000000000000D+00 0.000000000000000D+00 -.000000000000000D+00
 0.123928037562967D+04 0.000000000000000D+00 0.000000000000000D+00 0.123928037562967D+04
 0.148254824325967D+04 0.000000000000000D+00 0.000000000000000D+00 -.148254824325967D+04
 0.342554086631395D+03 -.291473619987674D+03 0.141924836173776D+03 0.760036580818745D+02
 0.592980566926285D+03 0.589729089842370D+03 -.582736988314375D+02 0.212068236756905D+02
 0.552007404092460D+03 0.547195925113194D+03 -.311934641629649D+02 -.656944556711249D+02
 0.198373045666925D+03 0.161437043091212D+03 -.630986142546486D+02 -.315160260864401D+02
 0.103591351557228D+04 -.100688843805910D+04 0.106409410752748D+02 -.243267867630002D+03
0.317381709329D-03 0.000000000000D+00 0.000000000000D+00 0.118758487118D-04 0.000000000000D+00  7 -2 1 -24 -13 13 23 21 0 0.50133234D-01 0.21580037D+00 0.44565319D+06 0.44565319D+06 0.44565319D+06 0.10720602D+01  1  2  2  1  7  1       -2 0.100782076114D-02 0.100000000000D+01
-.176288741068D-04 0.000000000000D+00 -.121882933235D-05 0.118758487118D-04 0.000000000000D+00  7 -2 1 -24 -13 13 23 21 2 0.50133234D-01 0.21580037D+00 0.44565319D+06 0.44565319D+06 0.44565319D+06 0.10720602D+01  1  2  3  1  7  1       -2 -.643375265818D-04 0.100000000000D+01
0.198062689942D-04 0.000000000000D+00 0.000000000000D+00 0.118758487118D-04 0.000000000000D+00  7 -2 1 -24 -13 13 23 21 2 0.50133234D-01 0.21580037D+00 0.44565319D+06 0.44565319D+06 0.44565319D+06 0.10720602D+01  1  2 15  1  7  1       -2 0.722840466262D-04 0.100000000000D+01
  </mgrwgt>
  </event>
  <event>
  7     66 -.26562228E-05 0.28050035E+03 0.75467711E-02 0.10109359E+00
       -2 -1    0    0    0  501 0.00000000E+00 0.00000000E+00 0.79276332E+02 0.79276978E+02 0.32000000E+00 0.0000E+00 0.9000E+01
        1 -1    0    0  501    0 0.00000000E+00 0.00000000E+00 -.10931280E+04 0.10931280E+04 0.32000000E+00 0.0000E+00 0.9000E+01
       25  2    1    2    0    0 0.20528369E+03 0.33435186E+02 -.62465902E+03 0.72385465E+03 0.30084440E+03 0.0000E+00 0.0000E+00
      -24  1    1    2    0    0 -.20528369E+03 -.33435186E+02 -.38919260E+03 0.44855033E+03 0.80419002E+02 0.0000E+00 0.9000E+01
      -11  1    3    3    0    0 0.24042606E+02 -.89582300E+02 -.91843725E+02 0.13053086E+03 0.51099893E-03 0.0000E+00 0.9000E+01
       11  1    3    3    0    0 0.54064995E+02 0.18815177E+02 -.22895408E+03 0.23600213E+03 0.51099893E-03 0.0000E+00 0.9000E+01
       23  1    3    3    0    0 0.12717608E+03 0.10420231E+03 -.30386122E+03 0.35732166E+03 0.91188000E+02 0.0000E+00 0.9000E+01
#aMCatNLO 1  0  0  2  1 0.25733685D+02 0.00000000D+00  -5  7  0 0.00000000D+00 0.00000000D+00 0.00000000D+00 0.00000000D+00 0.00000000D+00
  <mgrwgt>
 -.1025487947D-03    4    2    0
 0.294379993435737D+03 0.000000000000000D+00 0.000000000000000D+00 0.294379993435737D+03
 0.294379993435737D+03 0.000000000000000D+00 0.000000000000000D+00 -.294379993435737D+03
 0.223009536658585D+03 -.205283685581775D+03 -.334351855406261D+02 -.259505069953714D+01
 0.101771723153313D+03 0.240426043821211D+02 -.895823011405327D+02 0.418861329139658D+02
 0.756923049139849D+02 0.540649878111952D+02 0.188151676404413D+02 -.495206177549217D+02
 0.188286422145591D+03 0.127176093388458D+03 0.104202319040717D+03 0.102295355404930D+02
 0.000000000000000D+00 0.000000000000000D+00 -.000000000000000D+00 0.000000000000000D+00
 0.313733608383768D+03 0.000000000000000D+00 0.000000000000000D+00 0.313733608383768D+03
 0.303341360325223D+03 0.000000000000000D+00 0.000000000000000D+00 -.303341360325223D+03
 0.227119031587695D+03 -.210871400821360D+03 -.253447545355269D+02 -.259505069953714D+01
 0.980499241691090D+02 0.215620987161673D+02 -.859907867043666D+02 0.418861329139658D+02
 0.750983248457862D+02 0.521931335025961D+02 0.215254181607313D+02 -.495206177549217D+02
 0.189054825469894D+03 0.122491930710137D+03 0.110984499832097D+03 0.102295355404930D+02
 0.277528626365069D+02 0.146242378924592D+02 -.211743767529350D+02 0.103922480585458D+02
0.170896395305D-04 0.000000000000D+00 0.000000000000D+00 0.566485802763D-09 0.000000000000D+00  7 -2 1 -24 -11 11 23 21 0 0.12196412D-01 0.16817358D+00 0.78680446D+05 0.78680446D+05 0.78680446D+05 0.11303689D+01  1  2  2  2  7  2        1 0.109021318166D-02 0.100000000000D+01
-.946731814843D-06 0.000000000000D+00 -.656287156024D-07 0.566485802763D-09 0.000000000000D+00  7 -2 1 -24 -11 11 23 21 2 0.12196412D-01 0.16817358D+00 0.78680446D+05 0.78680446D+05 0.78680446D+05 0.11303689D+01  1  2  3  2  7  2        1 -.771695345511D-04 0.100000000000D+01
0.112131964431D-05 0.000000000000D+00 0.000000000000D+00 0.566485802763D-09 0.000000000000D+00  7 -2 1 -24 -11 11 23 21 2 0.12196412D-01 0.16817358D+00 0.78680446D+05 0.78680446D+05 0.78680446D+05 0.11303689D+01  1  2 15  2  7  2        1 0.914004511917D-04 0.100000000000D+01
-.148076385168D-04 0.000000000000D+00 0.000000000000D+00 0.566485802763D-09 0.000000000000D+00  7 -2 1 -24 -11 11 23 21 2 0.12196412D-01 0.16817358D+00 0.78680446D+05 0.78680446D+05 0.78680446D+05 0.11303689D+01  1  2  4  2  7  2        1 -.120699289305D-02 0.100000000000D+01
  </mgrwgt>
  </event>
  <event>
  8     66 0.26562228E-05 0.10713747E+03 0.75467711E-02 0.10067541E+00
       -2 -1    0    0    0  501 0.00000000E+00 0.00000000E+00 0.21947943E+03 0.21947966E+03 0.32000000E+00 0.0000E+00 0.9000E+01
        1 -1    0    0  501    0 0.00000000E+00 0.00000000E+00 -.30507799E+03 0.30507816E+03 0.32000000E+00 0.0000E+00 0.9000E+01
       25  2    1    2    0    0 -.13864777E+03 0.54897000E+02 -.11100780E+03 0.35324018E+03 0.30036479E+03 0.0000E+00 0.0000E+00
       23  2    3    3    0    0 -.12921220E+02 -.86416481E+02 -.33098711E+02 0.12927200E+03 0.89336221E+02 0.0000E+00 0.0000E+00
      -24  1    1    2    0    0 0.13864777E+03 -.54897000E+02 0.25409241E+02 0.17131763E+03 0.80419002E+02 0.0000E+00 0.9000E+01
      -11  1    4    4    0    0 0.21176422E+02 0.49764904E+01 0.83283883E+01 0.23293097E+02 0.51099893E-03 0.0000E+00 0.9000E+01
       11  1    4    4    0    0 -.34097642E+02 -.91392971E+02 -.41427099E+02 0.10597891E+03 0.51099893E-03 0.0000E+00 0.9000E+01
       23  1    3    3    0    0 -.12572655E+03 0.14131348E+03 -.77909094E+02 0.22396818E+03 0.91188000E+02 0.0000E+00 0.9000E+01
#aMCatNLO 1  0  0  1  2 0.98098633D+02 0.00000000D+00  -5  7  0 0.00000000D+00 0.00000000D+00 0.00000000D+00 0.00000000D+00 0.00000000D+00
  <mgrwgt>
 0.1043849998D-02    9    2    0
 0.258763302670893D+03 0.000000000000000D+00 0.000000000000000D+00 0.258763302670893D+03
 0.258763302670893D+03 0.000000000000000D+00 0.000000000000000D+00 -.258763302670893D+03
 0.177847857327933D+03 0.138647774549187D+03 -.548969997301097D+02 0.540902804111455D+02
 0.249870707685094D+02 0.211764217956590D+02 0.497649036208042D+01 0.122942022595593D+02
 0.100566741365307D+03 -.340976422101071D+02 -.913929712516478D+02 -.244610929915986D+02
 0.214124935880036D+03 -.125726554134739D+03 0.141313480619677D+03 -.419233896791061D+02
 0.000000000000000D+00 -.000000000000000D+00 -.000000000000000D+00 0.000000000000000D+00
 0.366155196155518D+03 0.000000000000000D+00 0.000000000000000D+00 0.366155196155518D+03
 0.286777663969883D+03 0.000000000000000D+00 0.000000000000000D+00 -.286777663969883D+03
 0.175558796609540D+03 0.144681766206690D+03 -.222509146997539D+02 0.540902804111455D+02
 0.270891638555042D+02 0.220655605874008D+02 0.978705395689349D+01 0.122942022595593D+02
 0.841475162786787D+02 -.309438694182601D+02 -.743299157200688D+02 -.244610929915986D+02
 0.239946518076494D+03 -.117973832632306D+03 0.183258517959989D+03 -.419233896791061D+02
 0.126190865305184D+03 -.178296247435251D+02 -.964647414970603D+02 0.793775321856355D+02
0.110873306070D-04 0.000000000000D+00 0.000000000000D+00 0.447321447199D-06 0.000000000000D+00  7 -2 1 -24 -11 11 23 21 0 0.33766096D-01 0.46935106D-01 0.62176279D+05 0.62176279D+05 0.62176279D+05 0.11390615D+01  1  2  2  1  7  1       -2 0.846032808655D-03 0.100000000000D+01
-.614934802658D-06 0.000000000000D+00 -.425782688920D-07 0.447321447199D-06 0.000000000000D+00  7 -2 1 -24 -11 11 23 21 2 0.33766096D-01 0.46935106D-01 0.62176279D+05 0.62176279D+05 0.62176279D+05 0.11390615D+01  1  2  3  1  7  1       -2 -.608812610500D-04 0.100000000000D+01
0.727329354783D-06 0.000000000000D+00 0.000000000000D+00 0.447321447199D-06 0.000000000000D+00  7 -2 1 -24 -11 11 23 21 2 0.33766096D-01 0.46935106D-01 0.62176279D+05 0.62176279D+05 0.62176279D+05 0.11390615D+01  1  2 15  1  7  1       -2 0.720088180511D-04 0.100000000000D+01
0.809181851786D-05 0.000000000000D+00 0.000000000000D+00 0.447321447199D-06 0.000000000000D+00  7 -2 1 -24 -11 11 23 21 2 0.49013510D-01 0.46935106D-01 0.91816604D+05 0.91816604D+05 0.91816604D+05 0.11247775D+01  1  2 12  1  7  1       -2 0.389372695262D-03 0.100000000000D+01
-.972617486812D-05 0.000000000000D+00 0.000000000000D+00 0.447321447199D-06 0.000000000000D+00  7 -2 1 -24 -11 11 23 21 2 0.33766096D-01 0.46935106D-01 0.62176279D+05 0.62176279D+05 0.62176279D+05 0.11390615D+01  1  2  4  1  7  1       -2 -.962934263282D-03 0.100000000000D+01
-.130051936978D-04 0.000000000000D+00 -.430103347283D-05 0.447321447199D-06 0.000000000000D+00  7 -2 1 -24 -11 11 23 21 2 0.52064684D-01 0.46935106D-01 0.62176279D+05 0.62176279D+05 0.62176279D+05 0.11390615D+01  1  2  5  1  7  1       -2 -.572563352683D-03 0.100000000000D+01
0.139163701471D-04 0.000000000000D+00 0.392705387679D-05 0.447321447199D-06 0.000000000000D+00  7 -2 1 -24 -11 11 23 21 2 0.33766096D-01 0.46935106D-01 0.62176279D+05 0.62176279D+05 0.62176279D+05 0.11390615D+01  1  2  6  1  7  1       -2 0.137778210004D-02 0.100000000000D+01
0.365767893559D-06 0.000000000000D+00 0.000000000000D+00 0.447321447199D-06 0.000000000000D+00  7 21 1 -24 -11 11 23 2 2 0.49013510D-01 0.46935106D-01 0.91816604D+05 0.91816604D+05 0.91816604D+05 0.11247775D+01  1  2 12  3  7  1       -2 0.190735816896D-03 0.100000000000D+01
-.493497413960D-06 0.000000000000D+00 -.217123450574D-06 0.447321447199D-06 0.000000000000D+00  7 21 1 -24 -11 11 23 2 2 0.52064684D-01 0.46935106D-01 0.62176279D+05 0.62176279D+05 0.62176279D+05 0.11390615D+01  1  2  5  3  7  1       -2 -.235703364053D-03 0.100000000000D+01
  </mgrwgt>
  </event>
  <event>
  8     66 0.26562228E-05 0.14211608E+03 0.75467711E-02 0.10275594E+00
       -2 -1    0    0    0  501 0.00000000E+00 0.00000000E+00 0.92453291E+02 0.92453844E+02 0.32000000E+00 0.0000E+00 0.9000E+01
        1 -1    0    0  501    0 0.00000000E+00 0.00000000E+00 -.14685686E+04 0.14685687E+04 0.32000000E+00 0.0000E+00 0.9000E+01
       25  2    1    2    0    0 -.64939053E+02 0.13516024E+03 -.13471631E+04 0.13884223E+04 0.30063739E+03 0.0000E+00 0.0000E+00
       23  2    3    3    0    0 -.14219819E+03 0.59239407E+02 -.97151334E+03 0.98697380E+03 0.80928826E+02 0.0000E+00 0.0000E+00
      -24  1    1    2    0    0 0.64939053E+02 -.13516024E+03 -.28952263E+02 0.17260018E+03 0.80419002E+02 0.0000E+00 0.9000E+01
      -13  1    4    4    0    0 -.55578927E+02 0.62789066E+02 -.38004398E+03 0.38918494E+03 0.10565837E+00 0.0000E+00 0.9000E+01
       13  1    4    4    0    0 -.86619267E+02 -.35496581E+01 -.59146937E+03 0.59778886E+03 0.10565837E+00 0.0000E+00 0.9000E+01
       23  1    3    3    0    0 0.77259141E+02 0.75920837E+02 -.37564975E+03 0.40144854E+03 0.91188000E+02 0.0000E+00 0.9000E+01
#aMCatNLO 1  0  0  2  1 0.35439223D+02 0.00000000D+00  -5  7  0 0.00000000D+00 0.00000000D+00 0.00000000D+00 0.00000000D+00 0.00000000D+00
  <mgrwgt>
 0.2043869677D-02    9    2    0
 0.368475864959583D+03 0.000000000000000D+00 0.000000000000000D+00 0.368475864959583D+03
 0.368475864959583D+03 0.000000000000000D+00 0.000000000000000D+00 -.368475864959583D+03
 0.311541590311082D+03 0.649390534506084D+02 -.135160244692218D+03 0.260970446853405D+03
 0.114718571633950D+03 -.555788745868144D+02 0.627891779078028D+02 -.782870264798659D+02
 0.161790591093572D+03 -.866193200049536D+02 -.354977049974264D+01 -.136604128406451D+03
 0.148900976880561D+03 0.772591411411596D+02 0.759208372841580D+02 -.460792919670887D+02
 0.000000000000000D+00 0.000000000000000D+00 -.000000000000000D+00 -.000000000000000D+00
 0.381749429434580D+03 0.000000000000000D+00 0.000000000000000D+00 0.381749429434580D+03
 0.393340554735286D+03 0.000000000000000D+00 0.000000000000000D+00 -.393340554735286D+03
 0.305349330788214D+03 0.535262127176163D+02 -.125699515829146D+03 0.260970446853405D+03
 0.118835812937218D+03 -.598997665021190D+02 0.663710019088303D+02 -.782870264798659D+02
 0.165075482052565D+03 -.926665324151926D+02 0.146309512496454D+01 -.136604128406451D+03
 0.148542729293420D+03 0.717562596276089D+02 0.804824772109130D+02 -.460792919670887D+02
 0.372866290984488D+02 0.272838265720864D+02 -.226170584155616D+02 -.115911253007064D+02
0.319757749113D-04 0.000000000000D+00 0.000000000000D+00 0.427177685103D-07 0.000000000000D+00  7 -2 1 -24 -13 13 23 21 0 0.14223628D-01 0.22593368D+00 0.58151462D+05 0.58151462D+05 0.58151462D+05 0.11415704D+01  1  2  2  2  7  2        1 0.890972140323D-03 0.100000000000D+01
-.138818812126D-05 0.000000000000D+00 -.122795395074D-06 0.427177685103D-07 0.000000000000D+00  7 -2 1 -24 -13 13 23 21 2 0.14223628D-01 0.22593368D+00 0.58151462D+05 0.58151462D+05 0.58151462D+05 0.11415704D+01  1  2  3  2  7  2        1 -.504076843566D-04 0.100000000000D+01
0.197985338323D-05 0.000000000000D+00 0.000000000000D+00 0.427177685103D-07 0.000000000000D+00  7 -2 1 -24 -13 13 23 21 2 0.14223628D-01 0.22593368D+00 0.58151462D+05 0.58151462D+05 0.58151462D+05 0.11415704D+01  1  2 15  2  7  2        1 0.718921469543D-04 0.100000000000D+01
0.731875228879D-04 0.000000000000D+00 0.000000000000D+00 0.427177685103D-07 0.000000000000D+00  7 -2 1 -24 -13 13 23 21 2 0.14223628D-01 0.24503497D+00 0.66891817D+05 0.66891817D+05 0.66891817D+05 0.11363403D+01  1  2 12  2  7  2        1 0.217608329394D-02 0.100000000000D+01
-.678869575164D-04 0.000000000000D+00 0.000000000000D+00 0.427177685103D-07 0.000000000000D+00  7 -2 1 -24 -13 13 23 21 2 0.14223628D-01 0.22593368D+00 0.58151462D+05 0.58151462D+05 0.58151462D+05 0.11415704D+01  1  2  4  2  7  2        1 -.246510128851D-02 0.100000000000D+01
-.209726068922D-03 0.000000000000D+00 -.435181435452D-04 0.427177685103D-07 0.000000000000D+00  7 -2 1 -24 -13 13 23 21 2 0.14223628D-01 0.24586060D+00 0.58151462D+05 0.58151462D+05 0.58151462D+05 0.11415704D+01  1  2  5  2  7  2        1 -.626441604497D-02 0.100000000000D+01
0.212798762368D-03 0.000000000000D+00 0.433631544515D-04 0.427177685103D-07 0.000000000000D+00  7 -2 1 -24 -13 13 23 21 2 0.14223628D-01 0.22593368D+00 0.58151462D+05 0.58151462D+05 0.58151462D+05 0.11415704D+01  1  2  6  2  7  2        1 0.772711758630D-02 0.100000000000D+01
0.992041269729D-06 0.000000000000D+00 0.000000000000D+00 0.427177685103D-07 0.000000000000D+00  7 -2 21 -24 -13 13 23 -1 2 0.14223628D-01 0.24503497D+00 0.66891817D+05 0.66891817D+05 0.66891817D+05 0.11363403D+01  1  2 12  4  7  2        1 0.224997124278D-04 0.100000000000D+01
-.283647247724D-05 0.000000000000D+00 -.610282060706D-06 0.427177685103D-07 0.000000000000D+00  7 -2 21 -24 -13 13 23 -1 2 0.14223628D-01 0.24586060D+00 0.58151462D+05 0.58151462D+05 0.58151462D+05 0.11415704D+01  1  2  5  4  7  2        1 -.647701848887D-04 0.100000000000D+01
  </mgrwgt>
  </event>
  <event>
  8     66 0.26562228E-05 0.16912189E+03 0.75467711E-02 0.88309349E-01
       -2 -1    0    0    0  501 0.00000000E+00 0.00000000E+00 0.18703219E+03 0.18703246E+03 0.32000000E+00 0.0000E+00 0.9000E+01
        1 -1    0    0  501    0 0.00000000E+00 0.00000000E+00 -.10294127E+04 0.10294127E+04 0.32000000E+00 0.0000E+00 0.9000E+01
       25  2    1    2    0    0 -.57146394E+02 0.16115042E+02 -.99112889E+03 0.10372282E+04 0.29996747E+03 0.0000E+00 0.0000E+00
       23  2    3    3    0    0 -.10065657E+03 -.53298325E+02 -.77498422E+03 0.78874256E+03 0.92421976E+02 0.0000E+00 0.0000E+00
      -24  1    1    2    0    0 0.57146394E+02 -.16115042E+02 0.14874843E+03 0.17921695E+03 0.80419002E+02 0.0000E+00 0.9000E+01
      -11  1    4    4    0    0 -.74445258E+02 -.49031346E+02 -.73713977E+03 0.74251007E+03 0.51099893E-03 0.0000E+00 0.9000E+01
       11  1    4    4    0    0 -.26211315E+02 -.42669787E+01 -.37844457E+02 0.46232489E+02 0.51099893E-03 0.0000E+00 0.9000E+01
       23  1    3    3    0    0 0.43510179E+02 0.69413366E+02 -.21614466E+03 0.24848565E+03 0.91188000E+02 0.0000E+00 0.9000E+01
#aMCatNLO 1  0  0  1  1 0.87195262D+03 0.00000000D+00  -5  7  0 0.00000000D+00 0.00000000D+00 0.00000000D+00 0.00000000D+00 0.00000000D+00
  <mgrwgt>
 0.1910303958D-02    3    2    0
 0.438786390545192D+03 0.000000000000000D+00 0.000000000000000D+00 0.438786390545192D+03
 0.438786390545192D+03 0.000000000000000D+00 0.000000000000000D+00 -.438786390545192D+03
 0.391204430458198D+03 0.571463937262106D+02 -.161150416606272D+02 0.378217246529184D+03
 0.321649270919195D+03 -.744452582890668D+02 -.490313458612180D+02 -.309050293842542D+03
 0.277582177311520D+02 -.262113145823360D+02 -.426697869240392D+01 -.807951312360054D+01
 0.136960861981839D+03 0.435101791451922D+02 0.694133662142491D+02 -.610874395630414D+02
 0.000000000000000D+00 0.000000000000000D+00 -.000000000000000D+00 -.000000000000000D+00
 0.817470813176823D+03 0.000000000000000D+00 0.000000000000000D+00 0.817470813176823D+03
 0.157410493102013D+04 0.000000000000000D+00 0.000000000000000D+00 -.157410493102013D+04
 0.492922028405257D+03 -.303161268488091D+03 0.393683864205286D+02 0.378217246529184D+03
 0.519118779693829D+03 -.417083087689940D+03 0.373112177162300D+01 -.309050293842542D+03
 0.642253512099802D+02 -.636973374866974D+02 0.150545768344438D+01 -.807951312360054D+01
 0.160841499190855D+03 -.778530845376612D+02 0.881019776938377D+02 -.610874395630414D+02
 0.115446808569703D+04 0.861794778202391D+03 -.132706943569434D+03 -.756634117843308D+03
0.983187311724D-04 0.000000000000D+00 0.000000000000D+00 0.915188577111D-05 0.000000000000D+00  7 -2 1 -24 -11 11 23 21 0 0.28774208D-01 0.15837120D+00 0.28602215D+05 0.28602215D+05 0.28602215D+05 0.11692634D+01  1  2  2  1  7  1       -2 0.175050417409D-02 0.100000000000D+01
0.574403446642D-06 0.000000000000D+00 -.377569815618D-06 0.915188577111D-05 0.000000000000D+00  7 -2 1 -24 -11 11 23 21 2 0.28774208D-01 0.15837120D+00 0.28602215D+05 0.28602215D+05 0.28602215D+05 0.11692634D+01  1  2  3  1  7  1       -2 0.139819784890D-04 0.100000000000D+01
0.599044333827D-05 0.000000000000D+00 0.000000000000D+00 0.915188577111D-05 0.000000000000D+00  7 -2 1 -24 -11 11 23 21 2 0.28774208D-01 0.15837120D+00 0.28602215D+05 0.28602215D+05 0.28602215D+05 0.11692634D+01  1  2 15  1  7  1       -2 0.145817805212D-03 0.100000000000D+01
  </mgrwgt>
  </event>
  <event>
  8     66 0.26562228E-05 0.30009472E+03 0.75467711E-02 0.90729921E-01
       -2 -1    0    0    0  501 0.00000000E+00 0.00000000E+00 0.73149906E+03 0.73149913E+03 0.32000000E+00 0.0000E+00 0.9000E+01
        1 -1    0    0  501    0 0.00000000E+00 0.00000000E+00 -.13864825E+03 0.13864862E+03 0.32000000E+00 0.0000E+00 0.9000E+01
       25  2    1    2    0    0 0.31928659E+02 -.23596350E+03 0.34499624E+03 0.51716430E+03 0.30288331E+03 0.0000E+00 0.0000E+00
       23  2    3    3    0    0 0.99542112E+02 -.64131994E+02 0.24798486E+03 0.28951522E+03 0.91109970E+02 0.0000E+00 0.0000E+00
      -24  1    1    2    0    0 -.31928659E+02 0.23596350E+03 0.24785458E+03 0.35298345E+03 0.80419002E+02 0.0000E+00 0.9000E+01
      -13  1    4    4    0    0 0.13875523E+01 -.42353723E+02 0.11668755E+03 0.12414411E+03 0.10565837E+00 0.0000E+00 0.9000E+01
       13  1    4    4    0    0 0.98154560E+02 -.21778271E+02 0.13129731E+03 0.16537111E+03 0.10565837E+00 0.0000E+00 0.9000E+01
       23  1    3    3    0    0 -.67613453E+02 -.17183151E+03 0.97011378E+02 0.22764908E+03 0.91188000E+02 0.0000E+00 0.9000E+01
#aMCatNLO 1  0  0  2  1 0.58648609D+03 0.00000000D+00  -5  7  0 0.00000000D+00 0.00000000D+00 0.00000000D+00 0.00000000D+00 0.00000000D+00
  <mgrwgt>
 0.9752070314D-03    5    2    0
 0.318467041866509D+03 0.000000000000000D+00 0.000000000000000D+00 0.318467041866509D+03
 0.318467041866509D+03 0.000000000000000D+00 0.000000000000000D+00 -.318467041866509D+03
 0.251528351871532D+03 -.319286610245136D+02 0.235963511187563D+03 0.100537472644247D+02
 0.609880528837002D+02 0.138741989084286D+01 -.423537559258368D+02 0.438608825671139D+02
 0.103711859634858D+03 0.981546824865346D+02 -.217782479845016D+02 0.254463366639208D+02
 0.220705819342929D+03 -.676134413528639D+02 -.171831507277225D+03 -.793609664954594D+02
 0.000000000000000D+00 -.000000000000000D+00 0.000000000000000D+00 -.000000000000000D+00
 0.571091278442117D+03 0.000000000000000D+00 0.000000000000000D+00 0.571091278442117D+03
 0.105522986438877D+04 0.000000000000000D+00 0.000000000000000D+00 -.105522986438877D+04
 0.203972168126583D+03 0.119996942352632D+03 0.143656135990951D+03 0.100537472644247D+02
 0.104247051590507D+03 0.564991965940475D+02 -.758387205191048D+02 0.438608825671139D+02
 0.228635639672704D+03 0.209004378911461D+03 -.891286108652419D+02 0.254463366639208D+02
 0.328969005918584D+03 0.115722638020719D+03 -.283223345714109D+03 -.793609664954594D+02
 0.760497277522507D+03 -.501223155878859D+03 0.304534541107504D+03 -.484138585946651D+03
0.518488924896D-04 0.000000000000D+00 0.000000000000D+00 0.118626664290D-06 0.000000000000D+00  7 -2 1 -24 -13 13 23 21 0 0.11253835D+00 0.21330534D-01 0.90056839D+05 0.90056839D+05 0.90056839D+05 0.11254737D+01  1  2  2  2  7  2        1 0.890784329801D-03 0.100000000000D+01
-.286812811717D-05 0.000000000000D+00 -.199113399287D-06 0.118626664290D-06 0.000000000000D+00  7 -2 1 -24 -13 13 23 21 2 0.11253835D+00 0.21330534D-01 0.90056839D+05 0.90056839D+05 0.90056839D+05 0.11254737D+01  1  2  3  2  7  2        1 -.624169190215D-04 0.100000000000D+01
0.329237480126D-05 0.000000000000D+00 0.000000000000D+00 0.118626664290D-06 0.000000000000D+00  7 -2 1 -24 -13 13 23 21 2 0.11253835D+00 0.21330534D-01 0.90056839D+05 0.90056839D+05 0.90056839D+05 0.11254737D+01  1  2 15  2  7  2        1 0.716494811122D-04 0.100000000000D+01
0.261631711012D-04 0.000000000000D+00 -.250257900193D-04 0.118626664290D-06 0.000000000000D+00  7 -2 1 -24 -13 13 23 21 2 0.11253835D+00 0.11736789D+00 0.90056839D+05 0.90056839D+05 0.90056839D+05 0.11254737D+01  1  2  5  2  7  2        1 0.571630854202D-04 0.100000000000D+01
0.428591144319D-05 0.000000000000D+00 -.522265814351D-05 0.118626664290D-06 0.000000000000D+00  7 -2 21 -24 -13 13 23 -1 2 0.11253835D+00 0.11736789D+00 0.90056839D+05 0.90056839D+05 0.90056839D+05 0.11254737D+01  1  2  5  4  7  2        1 0.180270541081D-04 0.100000000000D+01
  </mgrwgt>
  </event>
  <event>
  8     66 0.26562228E-05 0.20422219E+03 0.75467711E-02 0.98148502E-01
       -4 -1    0    0    0  501 0.00000000E+00 0.00000000E+00 0.10344192E+03 0.10345353E+03 0.15500000E+01 0.0000E+00 0.9000E+01
        3 -1    0    0  501    0 0.00000000E+00 0.00000000E+00 -.76872341E+03 0.76872357E+03 0.50000000E+00 0.0000E+00 0.9000E+01
       25  2    1    2    0    0 -.60056644E+02 -.71488662E+02 -.16047731E+03 0.35255041E+03 0.29970217E+03 0.0000E+00 0.0000E+00
       23  2    3    3    0    0 0.14538432E+02 0.80089092E+02 -.21690606E+02 0.11565963E+03 0.79253003E+02 0.0000E+00 0.0000E+00
      -24  1    1    2    0    0 0.60056644E+02 0.71488662E+02 -.50480418E+03 0.51962669E+03 0.80419002E+02 0.0000E+00 0.9000E+01
      -11  1    4    4    0    0 0.21218429E+02 0.83206215E+02 -.40879712E+02 0.95103349E+02 0.51099893E-03 0.0000E+00 0.9000E+01
       11  1    4    4    0    0 -.66799979E+01 -.31171236E+01 0.19189106E+02 0.20556279E+02 0.51099893E-03 0.0000E+00 0.9000E+01
       23  1    3    3    0    0 -.74595075E+02 -.15157775E+03 -.13878670E+03 0.23689078E+03 0.91188000E+02 0.0000E+00 0.9000E+01
#aMCatNLO 1  0  0  1  2 0.24983754D+03 0.00000000D+00  -5  7  0 0.00000000D+00 0.00000000D+00 0.00000000D+00 0.00000000D+00 0.00000000D+00
  <mgrwgt>
 0.2087321151D-03    3    2    0
 0.281998865822228D+03 0.000000000000000D+00 0.000000000000000D+00 0.281998865822228D+03
 0.281998865822228D+03 0.000000000000000D+00 0.000000000000000D+00 -.281998865822228D+03
 0.208103021365820D+03 0.600566438503506D+02 0.714886622781397D+02 -.167696816434679D+03
 0.988487080699467D+02 0.212184294801439D+02 0.832062153946772D+02 0.489649982864115D+02
 0.544237530623107D+02 -.667999790055005D+01 -.311712362458228D+01 0.539222223739442D+02
 0.202622249146379D+03 -.745950754299444D+02 -.151577754048235D+03 0.648095957743236D+02
 0.000000000000000D+00 0.000000000000000D+00 -.000000000000000D+00 -.000000000000000D+00
 0.373180478574312D+03 0.000000000000000D+00 0.000000000000000D+00 0.373180478574312D+03
 0.549419743567005D+03 0.000000000000000D+00 0.000000000000000D+00 -.549419743567005D+03
 0.232130995007966D+03 -.427806595507907D+01 0.138841848152405D+03 -.167696816434679D+03
 0.128273976178324D+03 -.119727175868204D+02 0.117954635097546D+03 0.489649982864115D+02
 0.605698465054031D+02 -.234848779927536D+02 0.144762130962650D+02 0.539222223739442D+02
 0.195881923372364D+03 -.132831489113794D+03 -.906089860634005D+02 0.648095957743236D+02
 0.305743481077261D+03 0.172567150648447D+03 -.180663710282815D+03 -.176239264992693D+03
0.296744970230D-04 0.000000000000D+00 0.000000000000D+00 0.316602473425D-07 0.000000000000D+00  7 -4 3 -24 -11 11 23 21 0 0.15915047D-01 0.11826605D+00 0.41706704D+05 0.41706704D+05 0.41706704D+05 0.11542886D+01  1  2  2  1  7  1       -4 0.204722823058D-03 0.100000000000D+01
-.143985772311D-05 0.000000000000D+00 -.113957882043D-06 0.316602473425D-07 0.000000000000D+00  7 -4 3 -24 -11 11 23 21 2 0.15915047D-01 0.11826605D+00 0.41706704D+05 0.41706704D+05 0.41706704D+05 0.11542886D+01  1  2  3  1  7  1       -4 -.132352229565D-04 0.100000000000D+01
0.187602793908D-05 0.000000000000D+00 0.000000000000D+00 0.316602473425D-07 0.000000000000D+00  7 -4 3 -24 -11 11 23 21 2 0.15915047D-01 0.11826605D+00 0.41706704D+05 0.41706704D+05 0.41706704D+05 0.11542886D+01  1  2 15  1  7  1       -4 0.172445149599D-04 0.100000000000D+01
  </mgrwgt>
  </event>
  <event>
  9     66 0.26562228E-05 0.20557244E+03 0.75467711E-02 0.10433332E+00
       -2 -1    0    0    0  501 0.00000000E+00 0.00000000E+00 0.49954901E+02 0.49955926E+02 0.32000000E+00 0.0000E+00 0.9000E+01
        1 -1    0    0  502    0 0.00000000E+00 0.00000000E+00 -.11698439E+04 0.11698440E+04 0.32000000E+00 0.0000E+00 0.9000E+01
       25  2    1    2    0    0 -.22490442E+02 -.10517792E+03 -.59123265E+03 0.66565030E+03 0.28629715E+03 0.0000E+00 0.0000E+00
       23  2    3    3    0    0 -.19460049E+02 0.62232726E+02 -.25064074E+03 0.27532530E+03 0.93443206E+02 0.0000E+00 0.0000E+00
      -24  1    1    2    0    0 -.11648692E+02 0.72524463E+02 -.44438010E+03 0.45753293E+03 0.80419002E+02 0.0000E+00 0.9000E+01
      -13  1    4    4    0    0 -.33944378E+02 -.13698624E+02 -.77211518E+02 0.85448832E+02 0.10565837E+00 0.0000E+00 0.9000E+01
       13  1    4    4    0    0 0.14484329E+02 0.75931351E+02 -.17342923E+03 0.18987647E+03 0.10565837E+00 0.0000E+00 0.9000E+01
       23  1    3    3    0    0 -.30303934E+01 -.16741064E+03 -.34059190E+03 0.39032500E+03 0.91188000E+02 0.0000E+00 0.9000E+01
       21  1    1    2  502  501 0.34139134E+02 0.32653454E+02 -.84276300E+02 0.96616695E+02 0.75000000E+00 0.0000E+00 0.9000E+01
#aMCatNLO 2  0  0  2  2 0.47241174D+02 0.00000000D+00  -5  7  0 0.00000000D+00 0.00000000D+00 0.00000000D+00 0.00000000D+00 0.00000000D+00
  <mgrwgt>
 0.7311466778D-02    1    2    0
 0.216110540386777D+03 0.000000000000000D+00 0.000000000000000D+00 0.216110540386777D+03
 0.216110540386777D+03 0.000000000000000D+00 0.000000000000000D+00 -.216110540386777D+03
 0.128772418827952D+03 -.171623156272578D+01 0.820247893122131D+02 -.581730898607000D+02
 0.333331588950122D+02 -.311817304034001D+02 -.110562923999000D+02 0.406909932758065D+01
 0.847585606285015D+02 0.208701291287673D+02 0.820392057695049D+02 0.424500019702842D+01
 0.185356942422089D+03 0.120278328373586D+02 -.153007702681818D+03 0.498589903360909D+02
 0.000000000000000D+00 0.000000000000000D+00 0.000000000000000D+00 0.000000000000000D+00
 0.248030158801100D+03 0.000000000000000D+00 0.000000000000000D+00 0.248030158801100D+03
 0.235611228352030D+03 0.000000000000000D+00 0.000000000000000D+00 -.235611228352030D+03
 0.123478050571730D+03 -.116487018320631D+02 0.725245639787714D+02 -.581730898607000D+02
 0.368298510780316D+02 -.339444289713076D+02 -.136987628238510D+02 0.406909932758065D+01
 0.774169931085311D+02 0.144843972419650D+02 0.759313705383390D+02 0.424500019702842D+01
 0.197070219318455D+03 -.303040044646737D+01 -.167410626168185D+03 0.498589903360909D+02
 0.488462730763809D+02 0.341391340078730D+02 0.326534544749254D+02 0.124189304490698D+02
0.487263228758D-04 0.000000000000D+00 0.000000000000D+00 0.461766457176D-09 0.146371871168D-11  7 -2 1 -24 -13 13 23 21 2 0.76853596D-02 0.17997392D+00 0.53065942D+05 0.53065942D+05 0.53065942D+05 0.11450289D+01  1  2  1  2  7  2        1 0.731146677758D-02 0.100000000000D+01
  </mgrwgt>
  </event>
  <event>
  8     66 0.26562228E-05 0.87777792E+02 0.75467711E-02 0.10008504E+00
       -2 -1    0    0    0  501 0.00000000E+00 0.00000000E+00 0.44066104E+03 0.44066116E+03 0.32000000E+00 0.0000E+00 0.9000E+01
        1 -1    0    0  501    0 0.00000000E+00 0.00000000E+00 -.18163301E+03 0.18163329E+03 0.32000000E+00 0.0000E+00 0.9000E+01
       25  2    1    2    0    0 0.16075331E+03 -.49309268E+02 0.26662346E+03 0.43575239E+03 0.30086383E+03 0.0000E+00 0.0000E+00
       23  2    3    3    0    0 0.11336706E+03 -.94452273E+02 0.27328349E+03 0.32331149E+03 0.89850627E+02 0.0000E+00 0.0000E+00
      -24  1    1    2    0    0 -.16075331E+03 0.49309268E+02 -.75954321E+01 0.18654206E+03 0.80419002E+02 0.0000E+00 0.9000E+01
      -11  1    4    4    0    0 0.28252527E+01 -.27479527E+02 0.11842298E+03 0.12160226E+03 0.51099893E-03 0.0000E+00 0.9000E+01
       11  1    4    4    0    0 0.11054180E+03 -.66972746E+02 0.15486051E+03 0.20170923E+03 0.51099893E-03 0.0000E+00 0.9000E+01
       23  1    3    3    0    0 0.47386258E+02 0.45143005E+02 -.66600247E+01 0.11244090E+03 0.91188000E+02 0.0000E+00 0.9000E+01
#aMCatNLO 1  0  0  2  1 0.15128850D+03 0.00000000D+00  -5  7  0 0.00000000D+00 0.00000000D+00 0.00000000D+00 0.00000000D+00 0.00000000D+00
  <mgrwgt>
 0.5143750748D-03    9    2    0
 0.282911142021752D+03 0.000000000000000D+00 0.000000000000000D+00 0.282911142021752D+03
 0.282911142021752D+03 0.000000000000000D+00 0.000000000000000D+00 -.282911142021752D+03
 0.208637090290158D+03 -.160753314028909D+03 0.493092682009593D+02 -.937506671367298D+02
 0.795259203978977D+02 0.282525269709313D+01 -.274795269424874D+02 0.745738932961625D+02
 0.150947261937267D+03 0.110541803267548D+03 -.669727463902737D+02 0.779758735613814D+02
 0.126712011418182D+03 0.473862580642680D+02 0.451430051318018D+02 -.587990997208141D+02
 0.000000000000000D+00 0.000000000000000D+00 0.000000000000000D+00 -.000000000000000D+00
 0.331512163303110D+03 0.000000000000000D+00 0.000000000000000D+00 0.331512163303110D+03
 0.440848424574979D+03 0.000000000000000D+00 0.000000000000000D+00 -.440848424574979D+03
 0.246113911501900D+03 -.212053180392940D+03 0.186842869024123D+02 -.937506671367298D+02
 0.854371255162457D+02 -.157840129824769D+02 -.385888816798346D+02 0.745738932961625D+02
 0.140050539516219D+03 0.777147214844128D+02 -.865698494033779D+02 0.779758735613814D+02
 0.114097209109455D+03 0.202208845222366D+02 0.289258272781755D+02 -.587990997208141D+02
 0.186661802234271D+03 0.129901587368768D+03 0.775486169026247D+02 -.109336261271869D+03
0.157896914138D-04 0.000000000000D+00 0.000000000000D+00 0.323919151795D-06 0.000000000000D+00  7 -2 1 -24 -11 11 23 21 0 0.67794037D-01 0.27943570D-01 0.51870615D+05 0.51870615D+05 0.51870615D+05 0.11458949D+01  1  2  2  2  7  2        1 0.612707367441D-03 0.100000000000D+01
-.827038135304D-06 0.000000000000D+00 -.606365725503D-07 0.323919151795D-06 0.000000000000D+00  7 -2 1 -24 -11 11 23 21 2 0.67794037D-01 0.27943570D-01 0.51870615D+05 0.51870615D+05 0.51870615D+05 0.11458949D+01  1  2  3  2  7  2        1 -.421400072658D-04 0.100000000000D+01
0.101272916180D-05 0.000000000000D+00 0.000000000000D+00 0.323919151795D-06 0.000000000000D+00  7 -2 1 -24 -11 11 23 21 2 0.67794037D-01 0.27943570D-01 0.51870615D+05 0.51870615D+05 0.51870615D+05 0.11458949D+01  1  2 15  2  7  2        1 0.516015071310D-04 0.100000000000D+01
0.295896590530D-05 0.000000000000D+00 0.000000000000D+00 0.323919151795D-06 0.000000000000D+00  7 -2 1 -24 -11 11 23 21 2 0.67794037D-01 0.44855822D-01 0.10069645D+06 0.10069645D+06 0.10069645D+06 0.11214748D+01  1  2 12  2  7  2        1 0.776049395740D-04 0.100000000000D+01
-.107262325079D-04 0.000000000000D+00 0.000000000000D+00 0.323919151795D-06 0.000000000000D+00  7 -2 1 -24 -11 11 23 21 2 0.67794037D-01 0.27943570D-01 0.51870615D+05 0.51870615D+05 0.51870615D+05 0.11458949D+01  1  2  4  2  7  2        1 -.546532858066D-03 0.100000000000D+01
-.999613173833D-05 0.000000000000D+00 -.580407459707D-05 0.323919151795D-06 0.000000000000D+00  7 -2 1 -24 -11 11 23 21 2 0.67794037D-01 0.49960307D-01 0.51870615D+05 0.51870615D+05 0.51870615D+05 0.11458949D+01  1  2  5  2  7  2        1 -.240486087714D-03 0.100000000000D+01
0.121225498812D-04 0.000000000000D+00 0.494549818784D-05 0.323919151795D-06 0.000000000000D+00  7 -2 1 -24 -11 11 23 21 2 0.67794037D-01 0.27943570D-01 0.51870615D+05 0.51870615D+05 0.51870615D+05 0.11458949D+01  1  2  6  2  7  2        1 0.617679304334D-03 0.100000000000D+01
0.159812507685D-06 0.000000000000D+00 0.000000000000D+00 0.323919151795D-06 0.000000000000D+00  7 -2 21 -24 -11 11 23 -1 2 0.67794037D-01 0.44855822D-01 0.10069645D+06 0.10069645D+06 0.10069645D+06 0.11214748D+01  1  2 12  4  7  2        1 0.203772565353D-04 0.100000000000D+01
-.332637132844D-06 0.000000000000D+00 -.370443274055D-06 0.323919151795D-06 0.000000000000D+00  7 -2 21 -24 -11 11 23 -1 2 0.67794037D-01 0.49960307D-01 0.51870615D+05 0.51870615D+05 0.51870615D+05 0.11458949D+01  1  2  5  4  7  2        1 -.364363471789D-04 0.100000000000D+01
  </mgrwgt>
  </event>
  <event>
  8     66 0.26562228E-05 0.18908638E+03 0.75467711E-02 0.97757573E-01
       -2 -1    0    0    0  501 0.00000000E+00 0.00000000E+00 0.14208976E+03 0.14209012E+03 0.32000000E+00 0.0000E+00 0.9000E+01
        1 -1    0    0  501    0 0.00000000E+00 0.00000000E+00 -.71975540E+03 0.71975547E+03 0.32000000E+00 0.0000E+00 0.9000E+01
       25  2    1    2    0    0 0.57499759E+02 0.23139971E+03 -.29937118E+03 0.48665621E+03 0.30059793E+03 0.0000E+00 0.0000E+00
       23  2    3    3    0    0 0.66842994E+00 0.25632000E+03 -.19536292E+03 0.33505216E+03 0.91612718E+02 0.0000E+00 0.0000E+00
      -24  1    1    2    0    0 -.57499759E+02 -.23139971E+03 -.27829446E+03 0.37518938E+03 0.80419002E+02 0.0000E+00 0.9000E+01
      -13  1    4    4    0    0 0.39635522E+02 0.18297660E+03 -.11640869E+03 0.22045953E+03 0.10565837E+00 0.0000E+00 0.9000E+01
       13  1    4    4    0    0 -.38967092E+02 0.73343396E+02 -.78954235E+02 0.11459263E+03 0.10565837E+00 0.0000E+00 0.9000E+01
       23  1    3    3    0    0 0.56831329E+02 -.24920284E+02 -.10400825E+03 0.15160405E+03 0.91188000E+02 0.0000E+00 0.9000E+01
#aMCatNLO 1  0  0  2  1 0.12167586D+03 0.00000000D+00  -5  7  0 0.00000000D+00 0.00000000D+00 0.00000000D+00 0.00000000D+00 0.00000000D+00
  <mgrwgt>
 0.1002588073D-02    9    2    0
 0.319796902840304D+03 0.000000000000000D+00 0.000000000000000D+00 0.319796902840304D+03
 0.319796902840304D+03 0.000000000000000D+00 0.000000000000000D+00 -.319796902840304D+03
 0.254214732235685D+03 -.574997595651296D+02 -.231399713091759D+03 -.361367480868751D+02
 0.191929419540822D+03 0.396356267948317D+02 0.182976745592914D+03 0.422543458839868D+02
 0.831026032573461D+02 -.389671965875739D+02 0.733432502356632D+02 -.289273281208619D+01
 0.110347050646755D+03 0.568313293578718D+02 -.249202827368183D+02 -.322486498502560D+01
 0.000000000000000D+00 -.000000000000000D+00 -.000000000000000D+00 -.000000000000000D+00
 0.353406734590259D+03 0.000000000000000D+00 0.000000000000000D+00 0.353406734590259D+03
 0.458315694393340D+03 0.000000000000000D+00 0.000000000000000D+00 -.458315694393340D+03
 0.247664564660872D+03 -.101858235383241D+02 -.231216143620727D+03 -.361367480868751D+02
 0.203046857964623D+03 0.768714371611041D+02 0.183121213768390D+03 0.422543458839868D+02
 0.772341191033506D+02 -.238516867997987D+02 0.734018956659345D+02 -.289273281208619D+01
 0.123119163638824D+03 0.788410149444943D+02 -.248348891576744D+02 -.322486498502560D+01
 0.160657723615929D+03 -.121674941767476D+03 -.472076655923303D+00 -.104908959803081D+03
0.163025938740D-04 0.000000000000D+00 0.000000000000D+00 0.132601916728D-05 0.000000000000D+00  7 -2 1 -24 -13 13 23 21 0 0.21859997D-01 0.11073163D+00 0.99921024D+05 0.99921024D+05 0.99921024D+05 0.11217502D+01  1  2  2  2  7  2        1 0.805016603909D-03 0.100000000000D+01
-.905551011460D-06 0.000000000000D+00 -.626062530477D-07 0.132601916728D-05 0.000000000000D+00  7 -2 1 -24 -13 13 23 21 2 0.21859997D-01 0.11073163D+00 0.99921024D+05 0.99921024D+05 0.99921024D+05 0.11217502D+01  1  2  3  2  7  2        1 -.562669483197D-04 0.100000000000D+01
0.106658851913D-05 0.000000000000D+00 0.000000000000D+00 0.132601916728D-05 0.000000000000D+00  7 -2 1 -24 -13 13 23 21 2 0.21859997D-01 0.11073163D+00 0.99921024D+05 0.99921024D+05 0.99921024D+05 0.11217502D+01  1  2 15  2  7  2        1 0.662731092174D-04 0.100000000000D+01
0.132873787997D-04 0.000000000000D+00 0.000000000000D+00 0.132601916728D-05 0.000000000000D+00  7 -2 1 -24 -13 13 23 21 2 0.21859997D-01 0.16253247D+00 0.14651606D+06 0.14651606D+06 0.14651606D+06 0.11083582D+01  1  2 12  2  7  2        1 0.427018448444D-03 0.100000000000D+01
-.156981537131D-04 0.000000000000D+00 0.000000000000D+00 0.132601916728D-05 0.000000000000D+00  7 -2 1 -24 -13 13 23 21 2 0.21859997D-01 0.11073163D+00 0.99921024D+05 0.99921024D+05 0.99921024D+05 0.11217502D+01  1  2  4  2  7  2        1 -.975414076632D-03 0.100000000000D+01
-.214727278741D-04 0.000000000000D+00 -.656421481428D-05 0.132601916728D-05 0.000000000000D+00  7 -2 1 -24 -13 13 23 21 2 0.21859997D-01 0.16811644D+00 0.99921024D+05 0.99921024D+05 0.99921024D+05 0.11217502D+01  1  2  5  2  7  2        1 -.670229236503D-03 0.100000000000D+01
0.227360714796D-04 0.000000000000D+00 0.603080923853D-05 0.132601916728D-05 0.000000000000D+00  7 -2 1 -24 -13 13 23 21 2 0.21859997D-01 0.11073163D+00 0.99921024D+05 0.99921024D+05 0.99921024D+05 0.11217502D+01  1  2  6  2  7  2        1 0.141271926456D-02 0.100000000000D+01
0.613607385487D-06 0.000000000000D+00 0.000000000000D+00 0.132601916728D-05 0.000000000000D+00  7 -2 21 -24 -13 13 23 -1 2 0.21859997D-01 0.16253247D+00 0.14651606D+06 0.14651606D+06 0.14651606D+06 0.11083582D+01  1  2 12  4  7  2        1 0.251187748145D-04 0.100000000000D+01
-.817682705670D-06 0.000000000000D+00 -.322506196657D-06 0.132601916728D-05 0.000000000000D+00  7 -2 21 -24 -13 13 23 -1 2 0.21859997D-01 0.16811644D+00 0.99921024D+05 0.99921024D+05 0.99921024D+05 0.11217502D+01  1  2  5  4  7  2        1 -.316478666416D-04 0.100000000000D+01
  </mgrwgt>
  </event>
  <event>
  7     66 0.26562228E-05 0.18818464E+03 0.75467711E-02 0.90790937E-01
       -4 -1    0    0    0  501 0.00000000E+00 0.00000000E+00 0.20722185E+03 0.20722765E+03 0.15500000E+01 0.0000E+00 0.9000E+01
        3 -1    0    0  501    0 0.00000000E+00 0.00000000E+00 -.19707976E+03 0.19708040E+03 0.50000000E+00 0.0000E+00 0.9000E+01
       25  2    1    2    0    0 0.26021133E+02 -.47451304E+02 0.28655543E+02 0.30562324E+03 0.29942562E+03 0.0000E+00 0.0000E+00
      -24  1    1    2    0    0 -.26021133E+02 0.47451304E+02 -.18513458E+02 0.98684800E+02 0.80419002E+02 0.0000E+00 0.9000E+01
      -13  1    3    3    0    0 0.58188667E+02 -.67058061E+02 0.31936586E+02 0.94353915E+02 0.10565837E+00 0.0000E+00 0.9000E+01
       13  1    3    3    0    0 0.15526530E+02 -.59093974E+02 0.41875778E+02 0.74072686E+02 0.10565837E+00 0.0000E+00 0.9000E+01
       23  1    3    3    0    0 -.47694064E+02 0.78700731E+02 -.45156822E+02 0.13719664E+03 0.91188000E+02 0.0000E+00 0.9000E+01
#aMCatNLO 1  0  0  2  1 0.66136675D+03 0.00000000D+00  -5  7  0 0.00000000D+00 0.00000000D+00 0.00000000D+00 0.00000000D+00 0.00000000D+00
  <mgrwgt>
 0.2444778482D-04    5    2    0
 0.202090407754296D+03 0.000000000000000D+00 0.000000000000000D+00 0.202090407754296D+03
 0.202090407754296D+03 0.000000000000000D+00 0.000000000000000D+00 -.202090407754296D+03
 0.991804603980108D+02 -.260211636837709D+02 0.474513595305351D+02 -.209956016736162D+02
 0.935823800445611D+02 0.581889516507408D+02 -.670581296465513D+02 0.295789622687942D+02
 0.730450694916187D+02 0.155262510767695D+02 -.590939174588899D+02 0.400303213064600D+02
 0.138372905574402D+03 -.476940390437393D+02 0.787006875749061D+02 -.486136819016380D+02
 0.000000000000000D+00 0.000000000000000D+00 0.000000000000000D+00 -.000000000000000D+00
 0.610056433084182D+03 0.000000000000000D+00 0.000000000000000D+00 0.610056433084182D+03
 0.878990853097289D+03 0.000000000000000D+00 0.000000000000000D+00 -.878990853097289D+03
 0.143221612807195D+03 -.923914149372712D+02 -.711914712376104D+02 -.209956016736162D+02
 0.228738805213003D+03 -.300633383029041D+02 -.224817084963439D+03 0.295789622687942D+02
 0.212063295425287D+03 -.625370821439434D+02 -.198639190492852D+03 0.400303213064600D+02
 0.191068606074210D+03 -.137895890918749D+03 -.825432861160287D+02 -.486136819016380D+02
 0.713954966661775D+03 0.322887726302868D+03 0.577191032809931D+03 -.268934420013107D+03
0.726656903513D-06 0.000000000000D+00 0.000000000000D+00 0.948294952352D-10 0.000000000000D+00  7 -4 3 -24 -13 13 23 21 0 0.31880779D-01 0.30320458D-01 0.35413459D+05 0.35413459D+05 0.35413459D+05 0.11607097D+01  1  2  2  2  7  2        3 0.235570947231D-04 0.100000000000D+01
-.401203602130D-07 0.000000000000D+00 -.279055384265D-08 0.948294952352D-10 0.000000000000D+00  7 -4 3 -24 -13 13 23 21 2 0.31880779D-01 0.30320458D-01 0.35413459D+05 0.35413459D+05 0.35413459D+05 0.11607097D+01  1  2  3  2  7  2        3 -.175228355481D-05 0.100000000000D+01
0.471154645942D-07 0.000000000000D+00 0.000000000000D+00 0.948294952352D-10 0.000000000000D+00  7 -4 3 -24 -13 13 23 21 2 0.31880779D-01 0.30320458D-01 0.35413459D+05 0.35413459D+05 0.35413459D+05 0.11607097D+01  1  2 15  2  7  2        3 0.205779941524D-05 0.100000000000D+01
0.132651620794D-05 0.000000000000D+00 -.547621924084D-06 0.948294952352D-10 0.000000000000D+00  7 -4 3 -24 -13 13 23 21 2 0.31880779D-01 0.29462989D+00 0.35413459D+05 0.35413459D+05 0.35413459D+05 0.11607097D+01  1  2  5  2  7  2        3 0.110008117435D-06 0.100000000000D+01
0.275337692987D-06 0.000000000000D+00 -.148635431628D-06 0.948294952352D-10 0.000000000000D+00  7 -4 21 -24 -13 13 23 -3 2 0.31880779D-01 0.29462989D+00 0.35413459D+05 0.35413459D+05 0.35413459D+05 0.11607097D+01  1  2  5  4  7  2        3 0.475166122158D-06 0.100000000000D+01
  </mgrwgt>
  </event>
  <event>
  8     66 0.26562228E-05 0.60057927E+02 0.75467711E-02 0.10319392E+00
       -2 -1    0    0    0  501 0.00000000E+00 0.00000000E+00 0.46746976E+03 0.46746987E+03 0.32000000E+00 0.0000E+00 0.9000E+01
        1 -1    0    0  501    0 0.00000000E+00 0.00000000E+00 -.19658962E+03 0.19658988E+03 0.32000000E+00 0.0000E+00 0.9000E+01
       25  2    1    2    0    0 -.15803046E+03 0.87555066E+02 0.27713777E+02 0.35063255E+03 0.29922503E+03 0.0000E+00 0.0000E+00
       23  2    3    3    0    0 -.12293111E+03 -.68783975E+01 0.11787655E+03 0.18755521E+03 0.78247716E+02 0.0000E+00 0.0000E+00
      -24  1    1    2    0    0 0.15803046E+03 -.87555066E+02 0.24316636E+03 0.31342720E+03 0.80419002E+02 0.0000E+00 0.9000E+01
      -11  1    4    4    0    0 -.76113517E+02 -.40291236E+02 0.86389674E+02 0.12198290E+03 0.51099893E-03 0.0000E+00 0.9000E+01
       11  1    4    4    0    0 -.46817597E+02 0.33412838E+02 0.31486875E+02 0.65572315E+02 0.51099893E-03 0.0000E+00 0.9000E+01
       23  1    3    3    0    0 -.35099345E+02 0.94433463E+02 -.90162772E+02 0.16307734E+03 0.91188000E+02 0.0000E+00 0.9000E+01
#aMCatNLO 1  0  0  1  2 0.23716339D+02 0.00000000D+00  -5  7  0 0.00000000D+00 0.00000000D+00 0.00000000D+00 0.00000000D+00 0.00000000D+00
  <mgrwgt>
 0.2341120457D-02    9    2    0
 0.303149842475190D+03 0.000000000000000D+00 0.000000000000000D+00 0.303149842475190D+03
 0.303149842475190D+03 0.000000000000000D+00 0.000000000000000D+00 -.303149842475190D+03
 0.234645433604158D+03 0.158030459579753D+03 -.875550656302155D+02 0.126300229154241D+03
 0.950069526895107D+02 -.761135174406699D+02 -.402912358188178D+02 0.401206909006833D+02
 0.577515825322463D+02 -.468175972800628D+02 0.334128383574550D+02 0.519038561181107D+01
 0.218895716124465D+03 -.350993448590201D+02 0.944334630915783D+02 -.171611305666735D+03
 0.000000000000000D+00 0.000000000000000D+00 0.000000000000000D+00 0.000000000000000D+00
 0.347491538839479D+03 0.000000000000000D+00 0.000000000000000D+00 0.347491538839479D+03
 0.306569541833676D+03 0.000000000000000D+00 0.000000000000000D+00 -.306569541833676D+03
 0.231790148273379D+03 0.150613856573288D+03 -.928610532243309D+02 0.126300229154241D+03
 0.984180609962200D+02 -.791890901323000D+02 -.424915626439646D+02 0.401206909006833D+02
 0.585246998572157D+02 -.486664592859994D+02 0.320901251344095D+02 0.519038561181107D+01
 0.218030448942459D+03 -.420467305974638D+02 0.894631630084294D+02 -.171611305666735D+03
 0.472977226038818D+02 0.192884234424756D+02 0.137993277254567D+02 0.409219970058031D+02
0.577460123644D-04 0.000000000000D+00 0.000000000000D+00 0.102089270962D-07 0.000000000000D+00  7 -2 1 -24 -11 11 23 21 0 0.71918453D-01 0.30244586D-01 0.56948492D+05 0.56948492D+05 0.56948492D+05 0.11423575D+01  1  2  2  1  7  1       -2 0.178350018557D-02 0.100000000000D+01
-.298479100361D-05 0.000000000000D+00 -.221759892353D-06 0.102089270962D-07 0.000000000000D+00  7 -2 1 -24 -11 11 23 21 2 0.71918453D-01 0.30244586D-01 0.56948492D+05 0.56948492D+05 0.56948492D+05 0.11423575D+01  1  2  3  1  7  1       -2 -.120300984898D-03 0.100000000000D+01
0.374477623330D-05 0.000000000000D+00 0.000000000000D+00 0.102089270962D-07 0.000000000000D+00  7 -2 1 -24 -11 11 23 21 2 0.71918453D-01 0.30244586D-01 0.56948492D+05 0.56948492D+05 0.56948492D+05 0.11423575D+01  1  2 15  1  7  1       -2 0.150931930759D-03 0.100000000000D+01
0.357806932973D-03 0.000000000000D+00 0.000000000000D+00 0.102089270962D-07 0.000000000000D+00  7 -2 1 -24 -11 11 23 21 2 0.82806154D-01 0.30244586D-01 0.62681256D+05 0.62681256D+05 0.62681256D+05 0.11387594D+01  1  2 12  1  7  1       -2 0.105089134435D-01 0.100000000000D+01
-.362316359784D-03 0.000000000000D+00 0.000000000000D+00 0.102089270962D-07 0.000000000000D+00  7 -2 1 -24 -11 11 23 21 2 0.71918453D-01 0.30244586D-01 0.56948492D+05 0.56948492D+05 0.56948492D+05 0.11423575D+01  1  2  4  1  7  1       -2 -.146030374904D-01 0.100000000000D+01
-.488305434092D-03 0.000000000000D+00 -.524304748905D-04 0.102089270962D-07 0.000000000000D+00  7 -2 1 -24 -11 11 23 21 2 0.82954297D-01 0.30244586D-01 0.56948492D+05 0.56948492D+05 0.56948492D+05 0.11423575D+01  1  2  5  1  7  1       -2 -.143934199962D-01 0.100000000000D+01
0.491305207525D-03 0.000000000000D+00 0.519007196091D-04 0.102089270962D-07 0.000000000000D+00  7 -2 1 -24 -11 11 23 21 2 0.71918453D-01 0.30244586D-01 0.56948492D+05 0.56948492D+05 0.56948492D+05 0.11423575D+01  1  2  6  1  7  1       -2 0.198018890700D-01 0.100000000000D+01
0.775963797155D-05 0.000000000000D+00 0.000000000000D+00 0.102089270962D-07 0.000000000000D+00  7 21 1 -24 -11 11 23 2 2 0.82806154D-01 0.30244586D-01 0.62681256D+05 0.62681256D+05 0.62681256D+05 0.11387594D+01  1  2 12  3  7  1       -2 0.228342768816D-02 0.100000000000D+01
-.103665184639D-04 0.000000000000D+00 -.114881593370D-05 0.102089270962D-07 0.000000000000D+00  7 21 1 -24 -11 11 23 2 2 0.82954297D-01 0.30244586D-01 0.56948492D+05 0.56948492D+05 0.56948492D+05 0.11423575D+01  1  2  5  3  7  1       -2 -.307078338948D-02 0.100000000000D+01
  </mgrwgt>
  </event>
  <event>
  8     66 0.26562228E-05 0.10159000E+03 0.75467711E-02 0.97927399E-01
       -2 -1    0    0    0  501 0.00000000E+00 0.00000000E+00 0.51520449E+02 0.51521442E+02 0.32000000E+00 0.0000E+00 0.9000E+01
        1 -1    0    0  501    0 0.00000000E+00 0.00000000E+00 -.28343646E+04 0.28343646E+04 0.32000000E+00 0.0000E+00 0.9000E+01
       25  2    1    2    0    0 -.19456077E+03 0.22386211E+03 -.11603366E+04 0.12345333E+04 0.29953828E+03 0.0000E+00 0.0000E+00
       23  2    3    3    0    0 -.52904624E+02 0.18796262E+03 -.39683281E+03 0.45184012E+03 0.92489863E+02 0.0000E+00 0.0000E+00
      -24  1    1    2    0    0 0.19456077E+03 -.22386211E+03 -.16225076E+04 0.16513528E+04 0.80419002E+02 0.0000E+00 0.9000E+01
      -11  1    4    4    0    0 -.10836293E+02 0.63205222E+02 -.51455485E+02 0.82219172E+02 0.51099893E-03 0.0000E+00 0.9000E+01
       11  1    4    4    0    0 -.42068331E+02 0.12475739E+03 -.34537732E+03 0.36962095E+03 0.51099893E-03 0.0000E+00 0.9000E+01
       23  1    3    3    0    0 -.14165615E+03 0.35899493E+02 -.76350379E+03 0.78269313E+03 0.91188000E+02 0.0000E+00 0.9000E+01
#aMCatNLO 1  0  0  1  2 0.76597332D+02 0.00000000D+00  -5  7  0 0.00000000D+00 0.00000000D+00 0.00000000D+00 0.00000000D+00 0.00000000D+00
  <mgrwgt>
 0.9851624715D-03    9    2    0
 0.382137667901786D+03 0.000000000000000D+00 0.000000000000000D+00 0.382137667901786D+03
 0.382137667901786D+03 0.000000000000000D+00 0.000000000000000D+00 -.382137667901786D+03
 0.327670410067294D+03 0.194560774968066D+03 -.223862108219214D+03 -.113721339364133D+03
 0.123100359420615D+03 -.108362931690731D+02 0.632052219520495D+02 0.105077938492486D+03
 0.138108193136433D+03 -.420683310367641D+02 0.124757393534263D+03 0.417099663597169D+02
 0.175396373179230D+03 -.141656150762229D+03 0.358994927329021D+02 -.330665654880700D+02
 0.000000000000000D+00 -.000000000000000D+00 0.000000000000000D+00 0.000000000000000D+00
 0.430363415154031D+03 0.000000000000000D+00 0.000000000000000D+00 0.430363415154031D+03
 0.415724375645836D+03 0.000000000000000D+00 0.000000000000000D+00 -.415724375645836D+03
 0.353463095520821D+03 0.227688558696451D+03 -.231720351183815D+03 -.113721339364133D+03
 0.121198289275008D+03 0.104547851405319D+01 0.603867463938456D+02 0.105077938492486D+03
 0.131811865704386D+03 -.289404298839482D+02 0.121643323552404D+03 0.417099663597169D+02
 0.161630870203251D+03 -.125264407384829D+03 0.320112066003584D+02 -.330665654880700D+02
 0.779836700964010D+02 -.745291999417267D+02 0.176790746372076D+02 0.146390395081944D+02
0.884400527946D-04 0.000000000000D+00 0.000000000000D+00 0.151226353772D-05 0.000000000000D+00  7 -2 1 -24 -11 11 23 21 0 0.79263007D-02 0.43605617D+00 0.11402145D+06 0.11402145D+06 0.11402145D+06 0.11170754D+01  1  2  2  1  7  1       -2 0.728402893685D-03 0.100000000000D+01
-.482191070221D-05 0.000000000000D+00 -.339633089532D-06 0.151226353772D-05 0.000000000000D+00  7 -2 1 -24 -11 11 23 21 2 0.79263007D-02 0.43605617D+00 0.11402145D+06 0.11402145D+06 0.11402145D+06 0.11170754D+01  1  2  3  1  7  1       -2 -.495572074802D-04 0.100000000000D+01
0.564302646069D-05 0.000000000000D+00 0.000000000000D+00 0.151226353772D-05 0.000000000000D+00  7 -2 1 -24 -11 11 23 21 2 0.79263007D-02 0.43605617D+00 0.11402145D+06 0.11402145D+06 0.11402145D+06 0.11170754D+01  1  2 15  1  7  1       -2 0.579962281343D-04 0.100000000000D+01
0.753020292674D-04 0.000000000000D+00 0.000000000000D+00 0.151226353772D-05 0.000000000000D+00  7 -2 1 -24 -11 11 23 21 2 0.92377863D-02 0.43605617D+00 0.14247358D+06 0.14247358D+06 0.14247358D+06 0.11093205D+01  1  2 12  1  7  1       -2 0.598091363938D-03 0.100000000000D+01
-.682526680837D-04 0.000000000000D+00 0.000000000000D+00 0.151226353772D-05 0.000000000000D+00  7 -2 1 -24 -11 11 23 21 2 0.79263007D-02 0.43605617D+00 0.11402145D+06 0.11402145D+06 0.11402145D+06 0.11170754D+01  1  2  4  1  7  1       -2 -.701467082696D-03 0.100000000000D+01
-.167663368164D-03 0.000000000000D+00 -.544010778426D-04 0.151226353772D-05 0.000000000000D+00  7 -2 1 -24 -11 11 23 21 2 0.10082156D-01 0.43605617D+00 0.11402145D+06 0.11402145D+06 0.11402145D+06 0.11170754D+01  1  2  5  1  7  1       -2 -.119162828372D-02 0.100000000000D+01
0.177137417955D-03 0.000000000000D+00 0.528638297544D-04 0.151226353772D-05 0.000000000000D+00  7 -2 1 -24 -11 11 23 21 2 0.79263007D-02 0.43605617D+00 0.11402145D+06 0.11402145D+06 0.11402145D+06 0.11170754D+01  1  2  6  1  7  1       -2 0.182053055651D-02 0.100000000000D+01
0.174648522837D-05 0.000000000000D+00 0.000000000000D+00 0.151226353772D-05 0.000000000000D+00  7 21 1 -24 -11 11 23 2 2 0.92377863D-02 0.43605617D+00 0.14247358D+06 0.14247358D+06 0.14247358D+06 0.11093205D+01  1  2 12  3  7  1       -2 0.203631269943D-03 0.100000000000D+01
-.465946112657D-05 0.000000000000D+00 -.178952730382D-05 0.151226353772D-05 0.000000000000D+00  7 21 1 -24 -11 11 23 2 2 0.10082156D-01 0.43605617D+00 0.11402145D+06 0.11402145D+06 0.11402145D+06 0.11170754D+01  1  2  5  3  7  1       -2 -.480837266826D-03 0.100000000000D+01
  </mgrwgt>
  </event>
  <event>
  8     66 0.26562228E-05 0.14945928E+03 0.75467711E-02 0.10182828E+00
       -2 -1    0    0    0  501 0.00000000E+00 0.00000000E+00 0.28493469E+03 0.28493487E+03 0.32000000E+00 0.0000E+00 0.9000E+01
        1 -1    0    0  501    0 0.00000000E+00 0.00000000E+00 -.24352932E+03 0.24352953E+03 0.32000000E+00 0.0000E+00 0.9000E+01
       25  2    1    2    0    0 -.15723098E+03 -.28770021E+02 -.18289144E+02 0.33983793E+03 0.29934266E+03 0.0000E+00 0.0000E+00
       23  2    3    3    0    0 -.17890423E+03 -.90623963E+02 0.19658298E+02 0.22130144E+03 0.91479255E+02 0.0000E+00 0.0000E+00
      -24  1    1    2    0    0 0.15723098E+03 0.28770021E+02 0.59694509E+02 0.18862648E+03 0.80419002E+02 0.0000E+00 0.9000E+01
      -11  1    4    4    0    0 -.62538303E+02 -.13862782E+02 0.46734769E+02 0.79292841E+02 0.51099893E-03 0.0000E+00 0.9000E+01
       11  1    4    4    0    0 -.11636592E+03 -.76761181E+02 -.27076471E+02 0.14200860E+03 0.51099893E-03 0.0000E+00 0.9000E+01
       23  1    3    3    0    0 0.21673241E+02 0.61853942E+02 -.37947441E+02 0.11853649E+03 0.91188000E+02 0.0000E+00 0.9000E+01
#aMCatNLO 1  0  0  1  2 0.57113650D+02 0.00000000D+00  -5  7  0 0.00000000D+00 0.00000000D+00 0.00000000D+00 0.00000000D+00 0.00000000D+00
  <mgrwgt>
 0.8186707628D-03    9    2    0
 0.263419922160204D+03 0.000000000000000D+00 0.000000000000000D+00 0.263419922160204D+03
 0.263419922160204D+03 0.000000000000000D+00 0.000000000000000D+00 -.263419922160204D+03
 0.184516615002858D+03 0.157230984917433D+03 0.287700211966226D+02 0.450540621917971D+02
 0.758643720847332D+02 -.625383032027869D+02 -.138627821998742D+02 0.406471014219464D+02
 0.144574487507165D+03 -.116365922322191D+03 -.767611807340195D+02 -.383206953536139D+02
 0.121884369725652D+03 0.216732406075446D+02 0.618539417372712D+02 -.473804682601295D+02
 0.000000000000000D+00 -.000000000000000D+00 -.000000000000000D+00 0.000000000000000D+00
 0.436930875805766D+03 0.000000000000000D+00 0.000000000000000D+00 0.436930875805766D+03
 0.269705422680713D+03 0.000000000000000D+00 0.000000000000000D+00 -.269705422680713D+03
 0.194905600106302D+03 0.164952875597859D+03 0.477666966666346D+02 0.450540621917971D+02
 0.723636674012135D+02 -.595216092109630D+02 -.644139291495710D+01 0.406471014219464D+02
 0.132962200986319D+03 -.110717576276513D+03 -.628656464390239D+02 -.383206953536139D+02
 0.129695121276217D+03 0.267933133117606D+02 0.744498672133225D+02 -.473804682601295D+02
 0.176709708716426D+03 -.215070034221432D+02 -.529095245259761D+02 0.167225453125053D+03
0.112369928290D-04 0.000000000000D+00 0.000000000000D+00 0.723532130944D-06 0.000000000000D+00  7 -2 1 -24 -11 11 23 21 0 0.43836136D-01 0.37466080D-01 0.61179439D+05 0.61179439D+05 0.61179439D+05 0.11396659D+01  1  2  2  1  7  1       -2 0.711710139609D-03 0.100000000000D+01
-.621268020348D-06 0.000000000000D+00 -.431530112314D-07 0.723532130944D-06 0.000000000000D+00  7 -2 1 -24 -11 11 23 21 2 0.43836136D-01 0.37466080D-01 0.61179439D+05 0.61179439D+05 0.61179439D+05 0.11396659D+01  1  2  3  1  7  1       -2 -.511077939527D-04 0.100000000000D+01
0.728344972221D-06 0.000000000000D+00 0.000000000000D+00 0.723532130944D-06 0.000000000000D+00  7 -2 1 -24 -11 11 23 21 2 0.43836136D-01 0.37466080D-01 0.61179439D+05 0.61179439D+05 0.61179439D+05 0.11396659D+01  1  2 15  1  7  1       -2 0.599163381143D-04 0.100000000000D+01
0.446357570637D-04 0.000000000000D+00 0.000000000000D+00 0.723532130944D-06 0.000000000000D+00  7 -2 1 -24 -11 11 23 21 2 0.72935499D-01 0.37466080D-01 0.76912122D+05 0.76912122D+05 0.76912122D+05 0.11311993D+01  1  2 12  1  7  1       -2 0.129307854278D-02 0.100000000000D+01
-.414602029353D-04 0.000000000000D+00 0.000000000000D+00 0.723532130944D-06 0.000000000000D+00  7 -2 1 -24 -11 11 23 21 2 0.43836136D-01 0.37466080D-01 0.61179439D+05 0.61179439D+05 0.61179439D+05 0.11396659D+01  1  2  4  1  7  1       -2 -.341066888920D-02 0.100000000000D+01
-.469329582962D-04 0.000000000000D+00 -.389550918291D-05 0.723532130944D-06 0.000000000000D+00  7 -2 1 -24 -11 11 23 21 2 0.73550737D-01 0.37466080D-01 0.61179439D+05 0.61179439D+05 0.61179439D+05 0.11396659D+01  1  2  5  1  7  1       -2 -.135979294845D-02 0.100000000000D+01
0.434663721848D-04 0.000000000000D+00 0.342634809401D-05 0.723532130944D-06 0.000000000000D+00  7 -2 1 -24 -11 11 23 21 2 0.43836136D-01 0.37466080D-01 0.61179439D+05 0.61179439D+05 0.61179439D+05 0.11396659D+01  1  2  6  1  7  1       -2 0.357570375544D-02 0.100000000000D+01
0.255313739090D-05 0.000000000000D+00 0.000000000000D+00 0.723532130944D-06 0.000000000000D+00  7 21 1 -24 -11 11 23 2 2 0.72935499D-01 0.37466080D-01 0.76912122D+05 0.76912122D+05 0.76912122D+05 0.11311993D+01  1  2 12  3  7  1       -2 0.751774975027D-03 0.100000000000D+01
-.253751700966D-05 0.000000000000D+00 -.225767661194D-06 0.723532130944D-06 0.000000000000D+00  7 21 1 -24 -11 11 23 2 2 0.73550737D-01 0.37466080D-01 0.61179439D+05 0.61179439D+05 0.61179439D+05 0.11396659D+01  1  2  5  3  7  1       -2 -.751943356548D-03 0.100000000000D+01
  </mgrwgt>
  </event>
  <event>
  8     66 0.26562228E-05 0.75101124E+02 0.75467711E-02 0.10091329E+00
       -2 -1    0    0    0  501 0.00000000E+00 0.00000000E+00 0.70074660E+03 0.70074667E+03 0.32000000E+00 0.0000E+00 0.9000E+01
        1 -1    0    0  501    0 0.00000000E+00 0.00000000E+00 -.15666035E+03 0.15666067E+03 0.32000000E+00 0.0000E+00 0.9000E+01
       25  2    1    2    0    0 0.10858022E+03 0.19469556E+03 0.14196084E+03 0.39064393E+03 0.28766956E+03 0.0000E+00 0.0000E+00
       23  2    3    3    0    0 0.14221139E+03 0.17581085E+03 0.48654398E+02 0.25459603E+03 0.10638775E+03 0.0000E+00 0.0000E+00
      -24  1    1    2    0    0 -.10858022E+03 -.19469556E+03 0.40212541E+03 0.46676341E+03 0.80419002E+02 0.0000E+00 0.9000E+01
      -13  1    4    4    0    0 0.11964980E+03 0.89399019E+02 -.67247861E+01 0.14951085E+03 0.10565837E+00 0.0000E+00 0.9000E+01
       13  1    4    4    0    0 0.22561587E+02 0.86411835E+02 0.55379184E+02 0.10508518E+03 0.10565837E+00 0.0000E+00 0.9000E+01
       23  1    3    3    0    0 -.33631169E+02 0.18884709E+02 0.93306442E+02 0.13604790E+03 0.91188000E+02 0.0000E+00 0.9000E+01
#aMCatNLO 1  0  0  1  2 0.19321070D+02 0.00000000D+00  -5  7  0 0.00000000D+00 0.00000000D+00 0.00000000D+00 0.00000000D+00 0.00000000D+00
  <mgrwgt>
 0.1021062821D-01    9    2    0
 0.331329710373106D+03 0.000000000000000D+00 0.000000000000000D+00 0.331329710373106D+03
 0.331329710373106D+03 0.000000000000000D+00 0.000000000000000D+00 -.331329710373106D+03
 0.273768803042893D+03 -.108580217760484D+03 -.194695564495213D+03 0.137062449424137D+03
 0.198971951689843D+03 0.119649892737729D+03 0.893990840274641D+02 -.131459288383003D+03
 0.904984753984807D+02 0.225615344142974D+02 0.864117854975799D+02 -.146271850142854D+02
 0.994201906149958D+02 -.336312093915425D+02 0.188846949701688D+02 0.902402397315154D+01
 0.000000000000000D+00 -.000000000000000D+00 0.000000000000000D+00 0.000000000000000D+00
 0.342916699197276D+03 0.000000000000000D+00 0.000000000000000D+00 0.342916699197276D+03
 0.339623970864993D+03 0.000000000000000D+00 0.000000000000000D+00 -.339623970864993D+03
 0.271053044249538D+03 -.100652560207936D+03 -.195155025361928D+03 0.137062449424137D+03
 0.202388463567762D+03 0.125490054880865D+03 0.890606075049530D+02 -.131459288383003D+03
 0.910478790957641D+02 0.252032003744572D+02 0.862586832572797D+02 -.146271850142854D+02
 0.984516449014401D+02 -.307519927098621D+02 0.187178250740793D+02 0.902402397315154D+01
 0.195996382477653D+02 -.192887023375235D+02 0.111790952561640D+01 0.329272833228246D+01
0.268105541851D-03 0.000000000000D+00 0.000000000000D+00 0.561643186875D-10 0.000000000000D+00  7 -2 1 -24 -13 13 23 21 0 0.10780720D+00 0.24101623D-01 0.82560204D+05 0.82560204D+05 0.82560204D+05 0.11286166D+01  1  2  2  1  7  1       -2 0.437415620762D-02 0.100000000000D+01
-.145271513853D-04 0.000000000000D+00 -.102959587452D-05 0.561643186875D-10 0.000000000000D+00  7 -2 1 -24 -13 13 23 21 2 0.10780720D+00 0.24101623D-01 0.82560204D+05 0.82560204D+05 0.82560204D+05 0.11286166D+01  1  2  3  1  7  1       -2 -.301899122490D-03 0.100000000000D+01
0.168654942874D-04 0.000000000000D+00 0.000000000000D+00 0.561643186875D-10 0.000000000000D+00  7 -2 1 -24 -13 13 23 21 2 0.10780720D+00 0.24101623D-01 0.82560204D+05 0.82560204D+05 0.82560204D+05 0.11286166D+01  1  2 15  1  7  1       -2 0.350493898679D-03 0.100000000000D+01
0.568744843633D-03 0.000000000000D+00 0.000000000000D+00 0.561643186875D-10 0.000000000000D+00  7 -2 1 -24 -13 13 23 21 2 0.11288631D+00 0.24101623D-01 0.88491507D+05 0.88491507D+05 0.88491507D+05 0.11261056D+01  1  2 12  1  7  1       -2 0.104940737767D-01 0.100000000000D+01
-.487249979183D-03 0.000000000000D+00 0.000000000000D+00 0.561643186875D-10 0.000000000000D+00  7 -2 1 -24 -13 13 23 21 2 0.10780720D+00 0.24101623D-01 0.82560204D+05 0.82560204D+05 0.82560204D+05 0.11286166D+01  1  2  4  1  7  1       -2 -.101258902896D-01 0.100000000000D+01
-.360269319486D-02 0.000000000000D+00 -.593129532403D-03 0.561643186875D-10 0.000000000000D+00  7 -2 1 -24 -13 13 23 21 2 0.11372446D+00 0.24101623D-01 0.82560204D+05 0.82560204D+05 0.82560204D+05 0.11286166D+01  1  2  5  1  7  1       -2 -.656369770602D-01 0.100000000000D+01
0.363004875973D-02 0.000000000000D+00 0.592283788024D-03 0.561643186875D-10 0.000000000000D+00  7 -2 1 -24 -13 13 23 21 2 0.10780720D+00 0.24101623D-01 0.82560204D+05 0.82560204D+05 0.82560204D+05 0.11286166D+01  1  2  6  1  7  1       -2 0.754386394200D-01 0.100000000000D+01
0.711713588439D-05 0.000000000000D+00 0.000000000000D+00 0.561643186875D-10 0.000000000000D+00  7 21 1 -24 -13 13 23 2 2 0.11288631D+00 0.24101623D-01 0.88491507D+05 0.88491507D+05 0.88491507D+05 0.11261056D+01  1  2 12  3  7  1       -2 0.123331545729D-02 0.100000000000D+01
-.327780295104D-04 0.000000000000D+00 -.549411813272D-05 0.561643186875D-10 0.000000000000D+00  7 21 1 -24 -13 13 23 2 2 0.11372446D+00 0.24101623D-01 0.82560204D+05 0.82560204D+05 0.82560204D+05 0.11286166D+01  1  2  5  3  7  1       -2 -.561528407977D-02 0.100000000000D+01
  </mgrwgt>
  </event>
  <event>
  8     66 0.26562228E-05 0.38948927E+03 0.75467711E-02 0.95915746E-01
       -2 -1    0    0    0  501 0.00000000E+00 0.00000000E+00 0.26390234E+03 0.26390253E+03 0.32000000E+00 0.0000E+00 0.9000E+01
        1 -1    0    0  501    0 0.00000000E+00 0.00000000E+00 -.86264427E+03 0.86264433E+03 0.32000000E+00 0.0000E+00 0.9000E+01
       25  2    1    2    0    0 -.32529239E+03 -.17007300E+03 -.73731154E+02 0.48091267E+03 0.30182901E+03 0.0000E+00 0.0000E+00
       23  2    3    3    0    0 -.16440174E+03 -.76529499E+02 0.85367668E+02 0.21963911E+03 0.89827626E+02 0.0000E+00 0.0000E+00
      -24  1    1    2    0    0 0.32529239E+03 0.17007300E+03 -.52501078E+03 0.64563419E+03 0.80419002E+02 0.0000E+00 0.9000E+01
      -11  1    4    4    0    0 -.50149206E+02 -.63571415E+02 0.86968985E+01 0.81436501E+02 0.51099893E-03 0.0000E+00 0.9000E+01
       11  1    4    4    0    0 -.11425254E+03 -.12958084E+02 0.76670770E+02 0.13820261E+03 0.51099893E-03 0.0000E+00 0.9000E+01
       23  1    3    3    0    0 -.16089065E+03 -.93543505E+02 -.15909882E+03 0.26127356E+03 0.91188000E+02 0.0000E+00 0.9000E+01
#aMCatNLO 1  0  0  2  1 0.10332070D+03 0.00000000D+00  -5  7  0 0.00000000D+00 0.00000000D+00 0.00000000D+00 0.00000000D+00 0.00000000D+00
  <mgrwgt>
 0.1130214049D-02    4    2    0
 0.477130989194401D+03 0.000000000000000D+00 0.000000000000000D+00 0.477130989194401D+03
 0.477130989194401D+03 0.000000000000000D+00 0.000000000000000D+00 -.477130989194401D+03
 0.432785969269489D+03 0.325292391875787D+03 0.170073004069196D+03 -.214700983502100D+03
 0.101596034318584D+03 -.501492061950842D+02 -.635714150132428D+02 0.613635600375322D+02
 0.211260349102982D+03 -.114252535125533D+03 -.129580838139991D+02 0.177226920597216D+03
 0.208619625697747D+03 -.160890650555170D+03 -.935435052419540D+02 -.238894971326477D+02
 0.000000000000000D+00 0.000000000000000D+00 -.000000000000000D+00 0.000000000000000D+00
 0.626776229833475D+03 0.000000000000000D+00 0.000000000000000D+00 0.626776229833475D+03
 0.498092312635304D+03 0.000000000000000D+00 0.000000000000000D+00 -.498092312635304D+03
 0.404106121407178D+03 0.280896630486206D+03 0.178423967193616D+03 -.214700983502100D+03
 0.106253613216944D+03 -.611752912300554D+02 -.614973785139978D+02 0.613635600375322D+02
 0.224392928410864D+03 -.137363231441775D+03 -.861089915772024D+01 0.177226920597216D+03
 0.225086433340498D+03 -.183898050104985D+03 -.892157509875944D+02 -.238894971326477D+02
 0.165029446093296D+03 0.101539942290609D+03 -.190999385343034D+02 0.128683917198171D+03
0.107022741157D-03 0.000000000000D+00 0.000000000000D+00 0.436369369051D-06 0.000000000000D+00  7 -2 1 -24 -11 11 23 21 0 0.40600379D-01 0.13271452D+00 0.15170189D+06 0.15170189D+06 0.15170189D+06 0.11071654D+01  1  2  2  2  7  2        1 0.132420956984D-02 0.100000000000D+01
-.564793606418D-05 0.000000000000D+00 -.410995505777D-06 0.436369369051D-06 0.000000000000D+00  7 -2 1 -24 -11 11 23 21 2 0.40600379D-01 0.13271452D+00 0.15170189D+06 0.15170189D+06 0.15170189D+06 0.11071654D+01  1  2  3  2  7  2        1 -.856634322513D-04 0.100000000000D+01
0.665198256812D-05 0.000000000000D+00 0.000000000000D+00 0.436369369051D-06 0.000000000000D+00  7 -2 1 -24 -11 11 23 21 2 0.40600379D-01 0.13271452D+00 0.15170189D+06 0.15170189D+06 0.15170189D+06 0.11071654D+01  1  2 15  2  7  2        1 0.100892016409D-03 0.100000000000D+01
-.137945017507D-04 0.000000000000D+00 0.000000000000D+00 0.436369369051D-06 0.000000000000D+00  7 -2 1 -24 -11 11 23 21 2 0.40600379D-01 0.13271452D+00 0.15170189D+06 0.15170189D+06 0.15170189D+06 0.11071654D+01  1  2  4  2  7  2        1 -.209224104653D-03 0.100000000000D+01
  </mgrwgt>
  </event>
  <event>
  8     66 0.26562228E-05 0.21940158E+03 0.75467711E-02 0.96205837E-01
       -2 -1    0    0    0  501 0.00000000E+00 0.00000000E+00 0.97687453E+02 0.97687977E+02 0.32000000E+00 0.0000E+00 0.9000E+01
        1 -1    0    0  501    0 0.00000000E+00 0.00000000E+00 -.17034547E+04 0.17034548E+04 0.32000000E+00 0.0000E+00 0.9000E+01
       25  2    1    2    0    0 0.27518660E+02 -.12144985E+03 -.16196334E+04 0.16522575E+04 0.30205143E+03 0.0000E+00 0.0000E+00
       23  2    3    3    0    0 -.90892003E+02 -.24312565E+02 -.44172372E+03 0.46093753E+03 0.92147204E+02 0.0000E+00 0.0000E+00
      -24  1    1    2    0    0 -.27518660E+02 0.12144985E+03 0.13866104E+02 0.14888528E+03 0.80419002E+02 0.0000E+00 0.9000E+01
      -11  1    4    4    0    0 -.82332440E+02 0.43078129E+01 -.40638767E+03 0.41466628E+03 0.51099893E-03 0.0000E+00 0.9000E+01
       11  1    4    4    0    0 -.85595629E+01 -.28620378E+02 -.35336052E+02 0.46271252E+02 0.51099893E-03 0.0000E+00 0.9000E+01
       23  1    3    3    0    0 0.11841066E+03 -.97137284E+02 -.11779097E+04 0.11913199E+04 0.91188000E+02 0.0000E+00 0.9000E+01
#aMCatNLO 1  0  0  2  2 0.35900646D+03 0.00000000D+00  -5  7  0 0.00000000D+00 0.00000000D+00 0.00000000D+00 0.00000000D+00 0.00000000D+00
  <mgrwgt>
 0.1660083432D-02    3    2    0
 0.407929717286056D+03 0.000000000000000D+00 0.000000000000000D+00 0.407929717286056D+03
 0.407929717286056D+03 0.000000000000000D+00 0.000000000000000D+00 -.407929717286056D+03
 0.355979683020955D+03 -.275186595981703D+02 0.121449849312051D+03 0.323646375300773D+03
 0.115594840806029D+03 -.823324398423259D+02 0.430781287658736D+01 -.810245599728947D+02
 0.326032304027119D+02 -.855956291311784D+01 -.286203782962801D+02 0.130605689618222D+02
 0.311681680342417D+03 0.118410662353614D+03 -.971372838923586D+02 -.255682384289700D+03
 0.000000000000000D+00 -.000000000000000D+00 0.000000000000000D+00 0.000000000000000D+00
 0.775641108209485D+03 0.000000000000000D+00 0.000000000000000D+00 0.775641108209485D+03
 0.543328363683478D+03 0.000000000000000D+00 0.000000000000000D+00 -.543328363683478D+03
 0.334770524515739D+03 -.175119789952719D+02 -.234615105334890D+02 0.323646375300773D+03
 0.121904393871047D+03 -.788918632649819D+02 -.455167643494744D+02 -.810245599728947D+02
 0.479247037349306D+02 -.739298010541912D+01 -.455142023069200D+02 0.130605689618222D+02
 0.386754546266320D+03 0.128528687892963D+03 -.243661081147799D+03 -.255682384289700D+03
 0.427615303504926D+03 -.247318655272906D+02 0.358153558337682D+03 0.232312744526007D+03
0.883579291799D-04 0.000000000000D+00 0.000000000000D+00 0.458035599515D-06 0.000000000000D+00  7 -2 1 -24 -11 11 23 21 0 0.15028882D-01 0.26207000D+00 0.48137054D+05 0.48137054D+05 0.48137054D+05 0.11487487D+01  1  2  2  2  7  2        1 0.159360361536D-02 0.100000000000D+01
-.261312399703D-05 0.000000000000D+00 -.339317713228D-06 0.458035599515D-06 0.000000000000D+00  7 -2 1 -24 -11 11 23 21 2 0.15028882D-01 0.26207000D+00 0.48137054D+05 0.48137054D+05 0.48137054D+05 0.11487487D+01  1  2  3  2  7  2        1 -.621934820589D-04 0.100000000000D+01
0.540634280276D-05 0.000000000000D+00 0.000000000000D+00 0.458035599515D-06 0.000000000000D+00  7 -2 1 -24 -11 11 23 21 2 0.15028882D-01 0.26207000D+00 0.48137054D+05 0.48137054D+05 0.48137054D+05 0.11487487D+01  1  2 15  2  7  2        1 0.128673298508D-03 0.100000000000D+01
  </mgrwgt>
  </event>
  <event>
  8     66 0.26562228E-05 0.29192682E+03 0.75467711E-02 0.97178984E-01
       -2 -1    0    0    0  501 0.00000000E+00 0.00000000E+00 0.54186924E+03 0.54186934E+03 0.32000000E+00 0.0000E+00 0.9000E+01
        1 -1    0    0  501    0 0.00000000E+00 0.00000000E+00 -.16772363E+04 0.16772363E+04 0.32000000E+00 0.0000E+00 0.9000E+01
       25  2    1    2    0    0 0.13806863E+03 -.20904640E+03 0.45918588E+03 0.60299007E+03 0.29997000E+03 0.0000E+00 0.0000E+00
       23  2    3    3    0    0 0.41619792E+02 -.18010009E+03 0.39832595E+03 0.45412956E+03 0.11576635E+03 0.0000E+00 0.0000E+00
      -24  1    1    2    0    0 -.13806863E+03 0.20904640E+03 -.15945529E+04 0.16161156E+04 0.80419002E+02 0.0000E+00 0.9000E+01
      -13  1    4    4    0    0 0.32384733E+02 -.13273266E+03 0.37769186E+03 0.40164398E+03 0.10565837E+00 0.0000E+00 0.9000E+01
       13  1    4    4    0    0 0.92350594E+01 -.47367435E+02 0.20634087E+02 0.52485588E+02 0.10565837E+00 0.0000E+00 0.9000E+01
       23  1    3    3    0    0 0.96448834E+02 -.28946310E+02 0.60859930E+02 0.14886050E+03 0.91188000E+02 0.0000E+00 0.9000E+01
#aMCatNLO 1  0  0  2  2 0.21468216D+03 0.00000000D+00  -5  7  0 0.00000000D+00 0.00000000D+00 0.00000000D+00 0.00000000D+00 0.00000000D+00
  <mgrwgt>
 0.9699428298D-03    4    2    0
 0.953332511482230D+03 0.000000000000000D+00 0.000000000000000D+00 0.953332511482230D+03
 0.953332511482230D+03 0.000000000000000D+00 0.000000000000000D+00 -.953332511482230D+03
 0.931431761733492D+03 -.138068626581006D+03 0.209046402309544D+03 -.893495700519625D+03
 0.692366124235971D+03 0.323847502285283D+02 -.132732730736341D+03 0.678751869340667D+03
 0.733727949940847D+02 0.923503930007868D+01 -.473673619023677D+02 0.552685635852798D+02
 0.209494342000913D+03 0.964488370523990D+02 -.289463096708357D+02 0.159475267593679D+03
 0.000000000000000D+00 -.000000000000000D+00 0.000000000000000D+00 0.000000000000000D+00
 0.108902174623242D+04 0.000000000000000D+00 0.000000000000000D+00 0.108902174623242D+04
 0.104821698965720D+04 0.000000000000000D+00 0.000000000000000D+00 -.104821698965720D+04
 0.910730697655815D+03 -.555417144971892D+02 0.146777855284554D+03 -.893495700519625D+03
 0.708653486287374D+03 0.951489335045750D+02 -.180089821885472D+03 0.678751869340667D+03
 0.778788148279676D+02 0.160109499928079D+02 -.524799500624436D+02 0.552685635852798D+02
 0.221450095395676D+03 0.115754687910867D+03 -.435130401068057D+02 0.159475267593679D+03
 0.218525641722789D+03 -.171372856911061D+03 0.129304956770167D+03 0.408047565752222D+02
0.261900442933D-02 0.000000000000D+00 0.000000000000D+00 0.276103916583D-06 0.000000000000D+00  7 -2 1 -24 -13 13 23 21 0 0.83364508D-01 0.25803636D+00 0.85221268D+05 0.85221268D+05 0.85221268D+05 0.11274663D+01  1  2  2  2  7  2        1 0.203790004301D-02 0.100000000000D+01
0.102272102761D-03 0.000000000000D+00 -.100576666083D-04 0.276103916583D-06 0.000000000000D+00  7 -2 1 -24 -13 13 23 21 2 0.83364508D-01 0.25803636D+00 0.85221268D+05 0.85221268D+05 0.85221268D+05 0.11274663D+01  1  2  3  2  7  2        1 0.101160506661D-03 0.100000000000D+01
0.158324201880D-03 0.000000000000D+00 0.000000000000D+00 0.276103916583D-06 0.000000000000D+00  7 -2 1 -24 -13 13 23 21 2 0.83364508D-01 0.25803636D+00 0.85221268D+05 0.85221268D+05 0.85221268D+05 0.11274663D+01  1  2 15  2  7  2        1 0.156603375178D-03 0.100000000000D+01
-.134028870104D-02 0.000000000000D+00 0.000000000000D+00 0.276103916583D-06 0.000000000000D+00  7 -2 1 -24 -13 13 23 21 2 0.83364508D-01 0.25803636D+00 0.85221268D+05 0.85221268D+05 0.85221268D+05 0.11274663D+01  1  2  4  2  7  2        1 -.132572109509D-02 0.100000000000D+01
  </mgrwgt>
  </event>
  <event>
  8     66 -.26562228E-05 0.20462878E+03 0.75467711E-02 0.10556580E+00
       -2 -1    0    0    0  502 0.00000000E+00 0.00000000E+00 0.26731533E+02 0.26733449E+02 0.32000000E+00 0.0000E+00 0.9000E+01
        1 -1    0    0  501    0 0.00000000E+00 0.00000000E+00 -.28573859E+04 0.28573859E+04 0.32000000E+00 0.0000E+00 0.9000E+01
       23  2    1    2    0    0 -.74379084E+02 -.77953583E+02 -.18614454E+04 0.18665859E+04 0.86917780E+02 0.0000E+00 0.0000E+00
      -24  1    1    2    0    0 0.14591637E+03 0.36797092E+02 -.64973492E+03 0.67176506E+03 0.80419002E+02 0.0000E+00 0.9000E+01
      -11  1    3    3    0    0 -.27924984E+02 0.15071808E+01 -.14487248E+03 0.14754698E+03 0.51099893E-03 0.0000E+00 0.9000E+01
       11  1    3    3    0    0 -.46454101E+02 -.79460764E+02 -.17165730E+04 0.17190389E+04 0.51099893E-03 0.0000E+00 0.9000E+01
       23  1    1    2    0    0 -.72183201E+02 0.30008354E+02 -.27855490E+03 0.30334633E+03 0.91188000E+02 0.0000E+00 0.9000E+01
       21  1    1    2  501  502 0.64591258E+00 0.11148137E+02 -.40919078E+02 0.42422065E+02 0.75000000E+00 0.0000E+00 0.9000E+01
#aMCatNLO 2  0  0  1  2 0.11166833D+02 0.00000000D+00  -5  7  0 0.00000000D+00 0.00000000D+00 0.00000000D+00 0.00000000D+00 0.00000000D+00
  <mgrwgt>
 -.4947451328D-03    3    2    0
 0.270414437244518D+03 0.000000000000000D+00 0.000000000000000D+00 0.270414437244518D+03
 0.270414437244518D+03 0.000000000000000D+00 0.000000000000000D+00 -.270414437244518D+03
 0.179112106015601D+03 0.146129697252213D+03 0.404787468360725D+02 0.512007148634765D+02
 0.279695796812618D+02 -.278915884649763D+02 0.208361955308893D+01 -.123328848371855D+00
 0.176189148304000D+03 -.462427166145854D+02 -.758122899160716D+02 -.152173334845083D+03
 0.157558040488173D+03 -.719953921726517D+02 0.332499235269102D+02 0.101095948829978D+03
 0.000000000000000D+00 0.000000000000000D+00 0.000000000000000D+00 0.000000000000000D+00
 0.278283391798186D+03 0.000000000000000D+00 0.000000000000000D+00 0.278283391798186D+03
 0.274463017793664D+03 0.000000000000000D+00 0.000000000000000D+00 -.274463017793664D+03
 0.178141368271494D+03 0.145916385857659D+03 0.367970959584720D+02 0.512007148634765D+02
 0.279659022922031D+02 -.279249868124343D+02 0.150718032682932D+01 -.123328848371855D+00
 0.177844652011952D+03 -.464541055837629D+02 -.794607606670824D+02 -.152173334845083D+03
 0.156992223928891D+03 -.721832060370068D+02 0.300083476140336D+02 0.101095948829978D+03
 0.118022630873101D+02 0.645912575544632D+00 0.111481367677475D+02 0.382037400452249D+01
-.499704361455D-04 0.000000000000D+00 0.000000000000D+00 0.126044972032D-09 0.000000000000D+00  7 -2 1 -24 -11 11 23 21 2 0.41417652D-02 0.43309481D+00 0.44501954D+05 0.44501954D+05 0.44501954D+05 0.11517721D+01  1  2 13  1  7  1       -2 -.153425166097D-02 0.100000000000D+01
-.838140712661D-04 0.000000000000D+00 0.000000000000D+00 0.126044972032D-09 0.000000000000D+00  7 -2 1 -24 -11 11 23 21 2 0.39962262D-02 0.43309481D+00 0.41872936D+05 0.41872936D+05 0.41872936D+05 0.11541338D+01  1  2  8  1  7  1       -2 -.272860664525D-02 0.100000000000D+01
0.130091181514D-03 0.000000000000D+00 0.000000000000D+00 0.126044972032D-09 0.715547565164D-11  7 -2 1 -24 -11 11 23 21 2 0.41125148D-02 0.43957900D+00 0.44501954D+05 0.44501954D+05 0.44501954D+05 0.11517721D+01  1  2  1  1  7  1       -2 0.376811317346D-02 0.100000000000D+01
  </mgrwgt>
  </event>
  <event>
  8     66 0.26562228E-05 0.48659774E+03 0.75467711E-02 0.92493303E-01
       -2 -1    0    0    0  501 0.00000000E+00 0.00000000E+00 0.11956568E+03 0.11956611E+03 0.32000000E+00 0.0000E+00 0.9000E+01
        1 -1    0    0  501    0 0.00000000E+00 0.00000000E+00 -.21872257E+04 0.21872257E+04 0.32000000E+00 0.0000E+00 0.9000E+01
       25  2    1    2    0    0 0.16472807E+02 -.45956985E+03 -.98398741E+03 0.11268387E+04 0.30009741E+03 0.0000E+00 0.0000E+00
       23  2    3    3    0    0 0.29439379E+01 -.37228877E+03 -.88984421E+03 0.96879058E+03 0.90138097E+02 0.0000E+00 0.0000E+00
      -24  1    1    2    0    0 -.16472807E+02 0.45956985E+03 -.10836726E+04 0.11799531E+04 0.80419002E+02 0.0000E+00 0.9000E+01
      -11  1    4    4    0    0 -.31919724E+02 -.10210316E+03 -.31479175E+03 0.33247221E+03 0.51099893E-03 0.0000E+00 0.9000E+01
       11  1    4    4    0    0 0.34863662E+02 -.27018561E+03 -.57505246E+03 0.63631837E+03 0.51099893E-03 0.0000E+00 0.9000E+01
       23  1    3    3    0    0 0.13528870E+02 -.87281084E+02 -.94143200E+02 0.15804813E+03 0.91188000E+02 0.0000E+00 0.9000E+01
#aMCatNLO 1  0  0  1  2 0.21563516D+03 0.00000000D+00  -5  7  0 0.00000000D+00 0.00000000D+00 0.00000000D+00 0.00000000D+00 0.00000000D+00
  <mgrwgt>
 0.9650819386D-03    4    2    0
 0.511387953052532D+03 0.000000000000000D+00 0.000000000000000D+00 0.511387953052532D+03
 0.511387953052532D+03 0.000000000000000D+00 0.000000000000000D+00 -.511387953052532D+03
 0.470523069041312D+03 -.164728074250942D+02 0.459569854572214D+03 -.587276589836085D+02
 0.113477310045841D+03 -.319197236858751D+02 -.102103161515862D+03 -.378573050219263D+02
 0.272631603722937D+03 0.348636615489375D+02 -.270185609316584D+03 -.105949502201769D+02
 0.166143923294973D+03 0.135288695620318D+02 -.872810837397685D+02 0.107179914225712D+03
 0.000000000000000D+00 0.000000000000000D+00 0.000000000000000D+00 -.000000000000000D+00
 0.565805902169614D+03 0.000000000000000D+00 0.000000000000000D+00 0.565805902169614D+03
 0.791869919036065D+03 0.000000000000000D+00 0.000000000000000D+00 -.791869919036065D+03
 0.483868128803935D+03 -.115986472653927D+03 0.459085341030897D+03 -.587276589836085D+02
 0.122806427335607D+03 -.565568544493206D+02 -.102223115126721D+03 -.378573050219263D+02
 0.271552064240840D+03 -.218779675430004D+02 -.270461873763162D+03 -.105949502201769D+02
 0.167033671341267D+03 -.212113121257655D+02 -.874502272279198D+02 0.107179914225712D+03
 0.312415529484030D+03 0.215632606772013D+03 0.104987508690537D+01 -.226064016866451D+03
0.177415137032D-03 0.000000000000D+00 0.000000000000D+00 0.570124340918D-05 0.000000000000D+00  7 -2 1 -24 -11 11 23 21 0 0.18394754D-01 0.33649629D+00 0.23677736D+06 0.23677736D+06 0.23677736D+06 0.10922390D+01  1  2  2  1  7  1       -2 0.104845177117D-02 0.100000000000D+01
-.982680614691D-05 0.000000000000D+00 -.681320840682D-06 0.570124340918D-05 0.000000000000D+00  7 -2 1 -24 -11 11 23 21 2 0.18394754D-01 0.33649629D+00 0.23677736D+06 0.23677736D+06 0.23677736D+06 0.10922390D+01  1  2  3  1  7  1       -2 -.692796219007D-04 0.100000000000D+01
0.111948575905D-04 0.000000000000D+00 0.000000000000D+00 0.570124340918D-05 0.000000000000D+00  7 -2 1 -24 -11 11 23 21 2 0.18394754D-01 0.33649629D+00 0.23677736D+06 0.23677736D+06 0.23677736D+06 0.10922390D+01  1  2 15  1  7  1       -2 0.789244734767D-04 0.100000000000D+01
-.131934506127D-04 0.000000000000D+00 0.000000000000D+00 0.570124340918D-05 0.000000000000D+00  7 -2 1 -24 -11 11 23 21 2 0.18394754D-01 0.33649629D+00 0.23677736D+06 0.23677736D+06 0.23677736D+06 0.10922390D+01  1  2  4  1  7  1       -2 -.930146841555D-04 0.100000000000D+01
  </mgrwgt>
  </event>
  <event>
  8     66 0.26562228E-05 0.23858958E+03 0.75467711E-02 0.95481446E-01
       -2 -1    0    0    0  501 0.00000000E+00 0.00000000E+00 0.72116092E+03 0.72116099E+03 0.32000000E+00 0.0000E+00 0.9000E+01
        1 -1    0    0  501    0 0.00000000E+00 0.00000000E+00 -.89424014E+02 0.89424586E+02 0.32000000E+00 0.0000E+00 0.9000E+01
       25  2    1    2    0    0 0.12301655E+03 0.43094754E+02 0.28817020E+03 0.43442666E+03 0.29781577E+03 0.0000E+00 0.0000E+00
       23  2    3    3    0    0 0.17442580E+03 0.83752684E+02 0.20474296E+03 0.29452908E+03 0.85958277E+02 0.0000E+00 0.0000E+00
      -24  1    1    2    0    0 -.12301655E+03 -.43094754E+02 0.34356671E+03 0.37615892E+03 0.80419002E+02 0.0000E+00 0.9000E+01
      -11  1    4    4    0    0 0.12372388E+03 0.12616690E+02 0.12119415E+03 0.17365138E+03 0.51099893E-03 0.0000E+00 0.9000E+01
       11  1    4    4    0    0 0.50701923E+02 0.71135994E+02 0.83548819E+02 0.12087771E+03 0.51099893E-03 0.0000E+00 0.9000E+01
       23  1    3    3    0    0 -.51409249E+02 -.40657930E+02 0.83427231E+02 0.13989758E+03 0.91188000E+02 0.0000E+00 0.9000E+01
#aMCatNLO 1  0  0  2  2 0.34354475D+03 0.00000000D+00  -5  7  0 0.00000000D+00 0.00000000D+00 0.00000000D+00 0.00000000D+00 0.00000000D+00
  <mgrwgt>
 0.1453719439D-02    5    2    0
 0.253947563438403D+03 0.000000000000000D+00 0.000000000000000D+00 0.253947563438403D+03
 0.253947563438403D+03 0.000000000000000D+00 0.000000000000000D+00 -.253947563438403D+03
 0.172998750922795D+03 -.123016554183104D+03 -.430947539546269D+02 0.804432809188081D+02
 0.126397129557412D+03 0.123723880063564D+03 0.126166901847691D+02 -.225711096570687D+02
 0.889964292308108D+02 0.507019232681199D+02 0.711359938109371D+02 -.170102844561374D+02
 0.119502817165789D+03 -.514092491485802D+02 -.406579300410793D+02 -.408618868056020D+02
 0.000000000000000D+00 0.000000000000000D+00 -.000000000000000D+00 -.000000000000000D+00
 0.420956471999336D+03 0.000000000000000D+00 0.000000000000000D+00 0.420956471999336D+03
 0.564570700701465D+03 0.000000000000000D+00 0.000000000000000D+00 -.564570700701465D+03
 0.180835329444605D+03 -.124481409541144D+03 0.653257809339941D+02 0.804432809188081D+02
 0.159999599473312D+03 0.122538211960000D+03 0.100373320409932D+03 -.225711096570687D+02
 0.155093059944087D+03 0.496914050170579D+02 0.145928995518273D+03 -.170102844561374D+02
 0.117244460781886D+03 -.523893710131639D+02 0.318852983609432D+02 -.408618868056020D+02
 0.372354723056911D+03 0.464116357724981D+01 -.343513395223143D+03 -.143614228702128D+03
0.409718567486D-04 0.000000000000D+00 0.000000000000D+00 0.515012930031D-08 0.000000000000D+00  7 -2 1 -24 -11 11 23 21 0 0.11094788D+00 0.13757590D-01 0.56924987D+05 0.56924987D+05 0.56924987D+05 0.11423731D+01  1  2  2  2  7  2        1 0.129913820573D-02 0.100000000000D+01
-.226544398927D-05 0.000000000000D+00 -.157342718052D-06 0.515012930031D-08 0.000000000000D+00  7 -2 1 -24 -11 11 23 21 2 0.11094788D+00 0.13757590D-01 0.56924987D+05 0.56924987D+05 0.56924987D+05 0.11423731D+01  1  2  3  2  7  2        1 -.937430258622D-04 0.100000000000D+01
0.266314995560D-05 0.000000000000D+00 0.000000000000D+00 0.515012930031D-08 0.000000000000D+00  7 -2 1 -24 -11 11 23 21 2 0.11094788D+00 0.13757590D-01 0.56924987D+05 0.56924987D+05 0.56924987D+05 0.11423731D+01  1  2 15  2  7  2        1 0.110199915048D-03 0.100000000000D+01
0.934991062796D-05 0.000000000000D+00 -.154497425377D-04 0.515012930031D-08 0.000000000000D+00  7 -2 1 -24 -11 11 23 21 2 0.11094788D+00 0.49839965D-01 0.56924987D+05 0.56924987D+05 0.56924987D+05 0.11423731D+01  1  2  5  2  7  2        1 0.729929717044D-04 0.100000000000D+01
0.183419858888D-05 0.000000000000D+00 -.233970881800D-05 0.515012930031D-08 0.000000000000D+00  7 -2 21 -24 -11 11 23 -1 2 0.11094788D+00 0.49839965D-01 0.56924987D+05 0.56924987D+05 0.56924987D+05 0.11423731D+01  1  2  5  4  7  2        1 0.651313727630D-04 0.100000000000D+01
  </mgrwgt>
  </event>
  <event>
  8     66 0.26562228E-05 0.19649299E+03 0.75467711E-02 0.10577673E+00
       -2 -1    0    0    0  501 0.00000000E+00 0.00000000E+00 0.12540573E+03 0.12540614E+03 0.32000000E+00 0.0000E+00 0.9000E+01
        1 -1    0    0  501    0 0.00000000E+00 0.00000000E+00 -.82062346E+03 0.82062353E+03 0.32000000E+00 0.0000E+00 0.9000E+01
       25  2    1    2    0    0 -.87884468E+02 -.82857240E+02 -.10451645E+03 0.33776638E+03 0.29761290E+03 0.0000E+00 0.0000E+00
       23  2    3    3    0    0 0.47351540E+02 -.53803499E+02 0.35796081E+02 0.12065867E+03 0.90222898E+02 0.0000E+00 0.0000E+00
      -24  1    1    2    0    0 0.87884468E+02 0.82857240E+02 -.59070128E+03 0.60826328E+03 0.80419002E+02 0.0000E+00 0.9000E+01
      -11  1    4    4    0    0 0.66961670E+02 -.28963484E+02 0.10514843E+00 0.72957246E+02 0.51099893E-03 0.0000E+00 0.9000E+01
       11  1    4    4    0    0 -.19610131E+02 -.24840015E+02 0.35690932E+02 0.47701428E+02 0.51099893E-03 0.0000E+00 0.9000E+01
       23  1    3    3    0    0 -.13523601E+03 -.29053741E+02 -.14031254E+03 0.21710771E+03 0.91188000E+02 0.0000E+00 0.9000E+01
#aMCatNLO 1  0  0  2  2 0.32654602D+00 0.00000000D+00  -5  7  0 0.00000000D+00 0.00000000D+00 0.00000000D+00 0.00000000D+00 0.00000000D+00
  <mgrwgt>
 0.1048652477D-02    9    2    0
 0.320797609259480D+03 0.000000000000000D+00 0.000000000000000D+00 0.320797609259480D+03
 0.320797609259480D+03 0.000000000000000D+00 0.000000000000000D+00 -.320797609259480D+03
 0.256811611221667D+03 0.878844680907964D+02 0.828572400054125D+02 -.211886728586246D+03
 0.107689112386583D+03 0.669616700898574D+02 -.289634835762156D+02 0.792098244191805D+02
 0.109009439018965D+03 -.196101305154513D+02 -.248400154634425D+02 0.104314304906721D+03
 0.168085055891744D+03 -.135236007665203D+03 -.290537409657544D+02 0.283625992603447D+02
 0.000000000000000D+00 0.000000000000000D+00 -.000000000000000D+00 -.000000000000000D+00
 0.320887963584558D+03 0.000000000000000D+00 0.000000000000000D+00 0.320887963584558D+03
 0.321092825841745D+03 0.000000000000000D+00 0.000000000000000D+00 -.321092825841745D+03
 0.256800241950190D+03 0.877787226894011D+02 0.829340605742973D+02 -.211886728586246D+03
 0.107652889318081D+03 0.669173342236447D+02 -.289312750222783D+02 0.792098244191805D+02
 0.109010097426004D+03 -.196550176481197D+02 -.248074064324900D+02 0.104314304906721D+03
 0.168132072924039D+03 -.135305230006983D+03 -.290034532028359D+02 0.283625992603447D+02
 0.385487807987497D+00 0.264190742056730D+00 -.191925916693133D+00 -.204862257187653D+00
0.603822051477D-05 0.000000000000D+00 0.000000000000D+00 0.154676176510D-06 0.000000000000D+00  7 -2 1 -24 -11 11 23 21 0 0.19293225D-01 0.12624980D+00 0.43136676D+05 0.43136676D+05 0.43136676D+05 0.11529787D+01  1  2  2  2  7  2        1 0.301869402874D-03 0.100000000000D+01
-.258368275070D-06 0.000000000000D+00 -.231883566767D-07 0.154676176510D-06 0.000000000000D+00  7 -2 1 -24 -11 11 23 21 2 0.19293225D-01 0.12624980D+00 0.43136676D+05 0.43136676D+05 0.43136676D+05 0.11529787D+01  1  2  3  2  7  2        1 -.171708540536D-04 0.100000000000D+01
0.380946078086D-06 0.000000000000D+00 0.000000000000D+00 0.154676176510D-06 0.000000000000D+00  7 -2 1 -24 -11 11 23 21 2 0.19293225D-01 0.12624980D+00 0.43136676D+05 0.43136676D+05 0.43136676D+05 0.11529787D+01  1  2 15  2  7  2        1 0.253172317978D-04 0.100000000000D+01
-.162322136583D-02 0.000000000000D+00 0.000000000000D+00 0.154676176510D-06 0.000000000000D+00  7 -2 1 -24 -11 11 23 21 2 0.19293225D-01 0.12624980D+00 0.43136676D+05 0.43136676D+05 0.43136676D+05 0.11529787D+01  1  2  4  2  7  2        1 -.107877397726D+00 0.100000000000D+01
-.967078405050D-02 0.000000000000D+00 -.681281905561D-03 0.154676176510D-06 0.000000000000D+00  7 -2 1 -24 -11 11 23 21 2 0.19293225D-01 0.12638878D+00 0.43136676D+05 0.43136676D+05 0.43136676D+05 0.11529787D+01  1  2  5  2  7  2        1 -.641602151532D+00 0.100000000000D+01
0.967152817226D-02 0.000000000000D+00 0.681281493217D-03 0.154676176510D-06 0.000000000000D+00  7 -2 1 -24 -11 11 23 21 2 0.19293225D-01 0.12624980D+00 0.43136676D+05 0.43136676D+05 0.43136676D+05 0.11529787D+01  1  2  6  2  7  2        1 0.642758475966D+00 0.100000000000D+01
0.162322199851D-02 0.000000000000D+00 0.000000000000D+00 0.154676176510D-06 0.102833238279D-04  7 -2 1 -24 -11 11 23 21 2 0.19298659D-01 0.12636598D+00 0.43199612D+05 0.43199612D+05 0.43199612D+05 0.11529222D+01  1  2 11  2  7  2        1 0.107660722882D+00 0.100000000000D+01
-.199140913650D-05 0.000000000000D+00 -.140311416979D-06 0.154676176510D-06 0.000000000000D+00  7 -2 21 -24 -11 11 23 -1 2 0.19293225D-01 0.12638878D+00 0.43136676D+05 0.43136676D+05 0.43136676D+05 0.11529787D+01  1  2  5  4  7  2        1 -.240493108521D-03 0.100000000000D+01
0.326962004417D-06 0.000000000000D+00 0.000000000000D+00 0.154676176510D-06 0.177128652194D-08  7 -2 21 -24 -11 11 23 -1 2 0.19298659D-01 0.12636598D+00 0.43199612D+05 0.43199612D+05 0.43199612D+05 0.11529222D+01  1  2 11  4  7  2        1 0.394802155519D-04 0.100000000000D+01
  </mgrwgt>
  </event>
  <event>
  8     66 0.26562228E-05 0.24973807E+03 0.75467711E-02 0.93097298E-01
       -2 -1    0    0    0  501 0.00000000E+00 0.00000000E+00 0.15314749E+03 0.15314782E+03 0.32000000E+00 0.0000E+00 0.9000E+01
        1 -1    0    0  501    0 0.00000000E+00 0.00000000E+00 -.45956548E+03 0.45956559E+03 0.32000000E+00 0.0000E+00 0.9000E+01
       25  2    1    2    0    0 -.16082642E+03 0.16826296E+01 -.14066777E+03 0.36815601E+03 0.29980570E+03 0.0000E+00 0.0000E+00
       23  2    3    3    0    0 -.19159516E+03 -.57797747E+02 -.13085704E+03 0.25459487E+03 0.87439689E+02 0.0000E+00 0.0000E+00
      -24  1    1    2    0    0 0.16082642E+03 -.16826296E+01 -.16575022E+03 0.24455740E+03 0.80419002E+02 0.0000E+00 0.9000E+01
      -13  1    4    4    0    0 -.15740221E+02 -.22011643E+02 0.74001294E+01 0.28054234E+02 0.10565837E+00 0.0000E+00 0.9000E+01
       13  1    4    4    0    0 -.17585494E+03 -.35786104E+02 -.13825716E+03 0.22654064E+03 0.10565837E+00 0.0000E+00 0.9000E+01
       23  1    3    3    0    0 0.30768736E+02 0.59480376E+02 -.98107347E+01 0.11356114E+03 0.91188000E+02 0.0000E+00 0.9000E+01
#aMCatNLO 1  0  0  2  1 0.46595554D+03 0.00000000D+00  -5  7  0 0.00000000D+00 0.00000000D+00 0.00000000D+00 0.00000000D+00 0.00000000D+00
  <mgrwgt>
 0.1717690880D-02    3    2    0
 0.265294993991001D+03 0.000000000000000D+00 0.000000000000000D+00 0.265294993991001D+03
 0.265294993991001D+03 0.000000000000000D+00 0.000000000000000D+00 -.265294993991001D+03
 0.186687933213990D+03 0.160826424784570D+03 -.168262964369299D+01 -.501716882498086D+02
 0.366697940927968D+02 -.157399876930358D+02 -.220116226526434D+02 0.247470211223257D+02
 0.181760148260789D+03 -.175855173237962D+03 -.357861243402712D+02 -.288281606408196D+02
 0.125472112414426D+03 0.307687361464283D+02 0.594803766366076D+02 0.542528277683026D+02
 0.000000000000000D+00 0.000000000000000D+00 -.000000000000000D+00 0.000000000000000D+00
 0.122892731283559D+04 0.000000000000000D+00 0.000000000000000D+00 0.122892731283559D+04
 0.415044513851701D+03 0.000000000000000D+00 0.000000000000000D+00 -.415044513851701D+03
 0.162048407709235D+03 0.815369743206830D+02 0.103087312524482D+03 -.501716882498086D+02
 0.417302622829164D+02 -.335651944664721D+02 0.154190019134784D+01 0.247470211223257D+02
 0.310033733058246D+03 -.287670496206763D+03 0.111962218628668D+03 -.288281606408196D+02
 0.192332268687969D+03 -.414879568782084D+02 0.154957511427732D+03 0.542528277683026D+02
 0.937827154948925D+03 0.281186673230761D+03 -.371548942772229D+03 0.813882798983890D+03
0.205136025701D-04 0.000000000000D+00 0.000000000000D+00 0.213957134341D-06 0.000000000000D+00  7 -2 1 -24 -13 13 23 21 0 0.23561186D-01 0.70702415D-01 0.62369106D+05 0.62369106D+05 0.62369106D+05 0.11389458D+01  1  2  2  2  7  2        1 0.169564861723D-02 0.100000000000D+01
-.113458456753D-05 0.000000000000D+00 -.787776352247D-07 0.213957134341D-06 0.000000000000D+00  7 -2 1 -24 -13 13 23 21 2 0.23561186D-01 0.70702415D-01 0.62369106D+05 0.62369106D+05 0.62369106D+05 0.11389458D+01  1  2  3  2  7  2        1 -.121656955249D-03 0.100000000000D+01
0.134015284410D-05 0.000000000000D+00 0.000000000000D+00 0.213957134341D-06 0.000000000000D+00  7 -2 1 -24 -13 13 23 21 2 0.23561186D-01 0.70702415D-01 0.62369106D+05 0.62369106D+05 0.62369106D+05 0.11389458D+01  1  2 15  2  7  2        1 0.143699217534D-03 0.100000000000D+01
  </mgrwgt>
  </event>
  <event>
  8     66 0.26562228E-05 0.21209084E+03 0.75467711E-02 0.93542349E-01
       -2 -1    0    0    0  501 0.00000000E+00 0.00000000E+00 0.32645546E+03 0.32645562E+03 0.32000000E+00 0.0000E+00 0.9000E+01
        1 -1    0    0  501    0 0.00000000E+00 0.00000000E+00 -.87404484E+03 0.87404490E+03 0.32000000E+00 0.0000E+00 0.9000E+01
       25  2    1    2    0    0 0.32797806E+03 0.36115976E+03 -.26649734E+03 0.63174229E+03 0.30011916E+03 0.0000E+00 0.0000E+00
       23  2    3    3    0    0 0.16782527E+03 0.17231884E+03 -.26243161E+03 0.36784536E+03 0.92632367E+02 0.0000E+00 0.0000E+00
      -24  1    1    2    0    0 -.32797806E+03 -.36115976E+03 -.28109204E+03 0.56875823E+03 0.80419002E+02 0.0000E+00 0.9000E+01
      -13  1    4    4    0    0 0.86762555E+02 0.84775515E+02 -.66207381E+02 0.13819572E+03 0.10565837E+00 0.0000E+00 0.9000E+01
       13  1    4    4    0    0 0.81062714E+02 0.87543325E+02 -.19622423E+03 0.22964964E+03 0.10565837E+00 0.0000E+00 0.9000E+01
       23  1    3    3    0    0 0.16015279E+03 0.18884092E+03 -.40657323E+01 0.26389693E+03 0.91188000E+02 0.0000E+00 0.9000E+01
#aMCatNLO 1  0  0  1  2 0.93007842D+02 0.00000000D+00  -5  7  0 0.00000000D+00 0.00000000D+00 0.00000000D+00 0.00000000D+00 0.00000000D+00
  <mgrwgt>
 0.1097860170D-02    6    2    0
 0.534169301111505D+03 0.000000000000000D+00 0.000000000000000D+00 0.534169301111505D+03
 0.534169301111505D+03 0.000000000000000D+00 0.000000000000000D+00 -.534169301111505D+03
 0.495041119488673D+03 -.327978055482301D+03 -.361159758475222D+03 -.243416928416313D+02
 0.121356212038515D+03 0.867625623549801D+02 0.847755111064875D+02 -.356380282410510D+01
 0.157482147013326D+03 0.810627066855966D+02 0.875433283782919D+02 -.102789249774391D+03
 0.294459123682496D+03 0.160152786441724D+03 0.188840918990443D+03 0.130694745440127D+03
 0.000000000000000D+00 -.000000000000000D+00 -.000000000000000D+00 -.000000000000000D+00
 0.580915783978435D+03 0.000000000000000D+00 0.000000000000000D+00 0.580915783978435D+03
 0.584542247651235D+03 0.000000000000000D+00 0.000000000000000D+00 -.584542247651235D+03
 0.454781630926991D+03 -.304316425479184D+03 -.327350135248818D+03 -.243416928416313D+02
 0.132192906216912D+03 0.930788833960914D+02 0.938007741398816D+02 -.356380282410510D+01
 0.168368380069019D+03 0.891801734495472D+02 0.991422120057458D+02 -.102789249774391D+03
 0.317036599429089D+03 0.175386139762039D+03 0.210607548599928D+03 0.130694745440127D+03
 0.930785149876595D+02 -.533287711284942D+02 -.762003994967383D+02 -.362646367280024D+01
0.117978452555D-03 0.000000000000D+00 0.000000000000D+00 0.575108462167D-05 0.000000000000D+00  7 -2 1 -24 -13 13 23 21 0 0.50223934D-01 0.13446845D+00 0.24946144D+06 0.24946144D+06 0.24946144D+06 0.10905296D+01  1  2  2  1  7  1       -2 0.934058847675D-03 0.100000000000D+01
-.651838927396D-05 0.000000000000D+00 -.453068322252D-06 0.575108462167D-05 0.000000000000D+00  7 -2 1 -24 -13 13 23 21 2 0.50223934D-01 0.13446845D+00 0.24946144D+06 0.24946144D+06 0.24946144D+06 0.10905296D+01  1  2  3  1  7  1       -2 -.613743253183D-04 0.100000000000D+01
0.751759104469D-05 0.000000000000D+00 0.000000000000D+00 0.575108462167D-05 0.000000000000D+00  7 -2 1 -24 -13 13 23 21 2 0.50223934D-01 0.13446845D+00 0.24946144D+06 0.24946144D+06 0.24946144D+06 0.10905296D+01  1  2 15  1  7  1       -2 0.707823756753D-04 0.100000000000D+01
0.114187218933D-03 0.000000000000D+00 0.000000000000D+00 0.575108462167D-05 0.000000000000D+00  7 -2 1 -24 -13 13 23 21 2 0.56782246D-01 0.13446845D+00 0.30331293D+06 0.30331293D+06 0.30331293D+06 0.10841992D+01  1  2 12  1  7  1       -2 0.824524796634D-03 0.100000000000D+01
-.884234203217D-04 0.000000000000D+00 0.000000000000D+00 0.575108462167D-05 0.000000000000D+00  7 -2 1 -24 -13 13 23 21 2 0.50223934D-01 0.13446845D+00 0.24946144D+06 0.24946144D+06 0.24946144D+06 0.10905296D+01  1  2  4  1  7  1       -2 -.832556562135D-03 0.100000000000D+01
0.220788599225D-05 0.000000000000D+00 0.000000000000D+00 0.575108462167D-05 0.000000000000D+00  7 21 1 -24 -13 13 23 2 2 0.56782246D-01 0.13446845D+00 0.30331293D+06 0.30331293D+06 0.30331293D+06 0.10841992D+01  1  2 12  3  7  1       -2 0.162425037296D-03 0.100000000000D+01
  </mgrwgt>
  </event>
  <event>
  8     66 0.26562228E-05 0.27898530E+03 0.75467711E-02 0.94213601E-01
       -2 -1    0    0    0  501 0.00000000E+00 0.00000000E+00 0.28145205E+03 0.28145223E+03 0.32000000E+00 0.0000E+00 0.9000E+01
        1 -1    0    0  501    0 0.00000000E+00 0.00000000E+00 -.86418207E+03 0.86418213E+03 0.32000000E+00 0.0000E+00 0.9000E+01
       25  2    1    2    0    0 0.30879324E+03 0.26756327E+03 -.11666426E+03 0.52063206E+03 0.30083852E+03 0.0000E+00 0.0000E+00
       23  2    3    3    0    0 0.50358377E+01 0.53138516E+02 0.28322651E+02 0.11126304E+03 0.93424992E+02 0.0000E+00 0.0000E+00
      -24  1    1    2    0    0 -.30879324E+03 -.26756327E+03 -.46606576E+03 0.62500231E+03 0.80419002E+02 0.0000E+00 0.9000E+01
      -11  1    4    4    0    0 0.20899542E+02 -.21121717E+02 0.17704394E+02 0.34588486E+02 0.51099893E-03 0.0000E+00 0.9000E+01
       11  1    4    4    0    0 -.15863704E+02 0.74260233E+02 0.10618257E+02 0.76674550E+02 0.51099893E-03 0.0000E+00 0.9000E+01
       23  1    3    3    0    0 0.30375741E+03 0.21442476E+03 -.14498691E+03 0.40936902E+03 0.91188000E+02 0.0000E+00 0.9000E+01
#aMCatNLO 1  0  0  2  1 0.12340021D+03 0.00000000D+00  -5  7  0 0.00000000D+00 0.00000000D+00 0.00000000D+00 0.00000000D+00 0.00000000D+00
  <mgrwgt>
 0.1043133005D-02    9    2    0
 0.493179433702913D+03 0.000000000000000D+00 0.000000000000000D+00 0.493179433702913D+03
 0.493179433702913D+03 0.000000000000000D+00 0.000000000000000D+00 -.493179433702913D+03
 0.450580030251844D+03 -.308793244959256D+03 -.267563272936634D+03 -.172080721030428D+03
 0.506333355564943D+02 0.208995419754646D+02 -.211217168397330D+02 0.409977669213152D+02
 0.953289715904962D+02 -.158637042815916D+02 0.742602327180563D+02 0.576313590645575D+02
 0.389816530006992D+03 0.303757407265383D+03 0.214424757058310D+03 0.734515950445550D+02
 0.000000000000000D+00 -.000000000000000D+00 0.000000000000000D+00 -.000000000000000D+00
 0.507206825610310D+03 0.000000000000000D+00 0.000000000000000D+00 0.507206825610310D+03
 0.870879270691548D+03 0.000000000000000D+00 0.000000000000000D+00 -.870879270691548D+03
 0.469586707460309D+03 -.286147620414057D+03 -.320237762685889D+03 -.172080721030428D+03
 0.544883759034747D+02 0.234866239810476D+02 -.271393572148782D+02 0.409977669213152D+02
 0.867531208318644D+02 -.113826004420278D+02 0.638370334023853D+02 0.576313590645575D+02
 0.383219796205595D+03 0.322782101036356D+03 0.170172674938793D+03 0.734515950445550D+02
 0.384038095900615D+03 -.487385041613186D+02 0.113367411559588D+03 -.363672445081238D+03
0.920767021471D-04 0.000000000000D+00 0.000000000000D+00 0.719759517872D-06 0.000000000000D+00  7 -2 1 -24 -11 11 23 21 0 0.43300334D-01 0.13295111D+00 0.20471533D+06 0.20471533D+06 0.20471533D+06 0.10970490D+01  1  2  2  2  7  2        1 0.997101933854D-03 0.100000000000D+01
-.506917418277D-05 0.000000000000D+00 -.353598780597D-06 0.719759517872D-06 0.000000000000D+00  7 -2 1 -24 -11 11 23 21 2 0.43300334D-01 0.13295111D+00 0.20471533D+06 0.20471533D+06 0.20471533D+06 0.10970490D+01  1  2  3  2  7  2        1 -.660661555553D-04 0.100000000000D+01
0.591583797042D-05 0.000000000000D+00 0.000000000000D+00 0.719759517872D-06 0.000000000000D+00  7 -2 1 -24 -11 11 23 21 2 0.43300334D-01 0.13295111D+00 0.20471533D+06 0.20471533D+06 0.20471533D+06 0.10970490D+01  1  2 15  2  7  2        1 0.771006592991D-04 0.100000000000D+01
0.323403084078D-03 0.000000000000D+00 0.000000000000D+00 0.719759517872D-06 0.000000000000D+00  7 -2 1 -24 -11 11 23 21 2 0.43300334D-01 0.23535427D+00 0.26893081D+06 0.26893081D+06 0.26893081D+06 0.10880823D+01  1  2 12  2  7  2        1 0.135823457020D-02 0.100000000000D+01
-.299658160224D-03 0.000000000000D+00 0.000000000000D+00 0.719759517872D-06 0.000000000000D+00  7 -2 1 -24 -11 11 23 21 2 0.43300334D-01 0.13295111D+00 0.20471533D+06 0.20471533D+06 0.20471533D+06 0.10970490D+01  1  2  4  2  7  2        1 -.390542165508D-02 0.100000000000D+01
-.340514275884D-03 0.000000000000D+00 -.302689857936D-04 0.719759517872D-06 0.000000000000D+00  7 -2 1 -24 -11 11 23 21 2 0.43300334D-01 0.23687749D+00 0.20471533D+06 0.20471533D+06 0.20471533D+06 0.10970490D+01  1  2  5  2  7  2        1 -.144979101629D-02 0.100000000000D+01
0.309376246994D-03 0.000000000000D+00 0.258383099977D-04 0.719759517872D-06 0.000000000000D+00  7 -2 1 -24 -11 11 23 21 2 0.43300334D-01 0.13295111D+00 0.20471533D+06 0.20471533D+06 0.20471533D+06 0.10970490D+01  1  2  6  2  7  2        1 0.403207672928D-02 0.100000000000D+01
0.203381490407D-04 0.000000000000D+00 0.000000000000D+00 0.719759517872D-06 0.000000000000D+00  7 -2 21 -24 -11 11 23 -1 2 0.43300334D-01 0.23535427D+00 0.26893081D+06 0.26893081D+06 0.26893081D+06 0.10880823D+01  1  2 12  4  7  2        1 0.646861505781D-04 0.100000000000D+01
-.200373804749D-04 0.000000000000D+00 -.192194584625D-05 0.719759517872D-06 0.000000000000D+00  7 -2 21 -24 -11 11 23 -1 2 0.43300334D-01 0.23687749D+00 0.20471533D+06 0.20471533D+06 0.20471533D+06 0.10970490D+01  1  2  5  4  7  2        1 -.647882117300D-04 0.100000000000D+01
  </mgrwgt>
  </event>
  <event>
  8     66 0.26562228E-05 0.30972382E+03 0.75467711E-02 0.94572917E-01
       -2 -1    0    0    0  501 0.00000000E+00 0.00000000E+00 0.22119328E+03 0.22119352E+03 0.32000000E+00 0.0000E+00 0.9000E+01
        1 -1    0    0  501    0 0.00000000E+00 0.00000000E+00 -.10138479E+04 0.10138479E+04 0.32000000E+00 0.0000E+00 0.9000E+01
       25  2    1    2    0    0 -.38266978E+03 0.84420026E+02 -.23003192E+03 0.54469777E+03 0.30036325E+03 0.0000E+00 0.0000E+00
       23  2    3    3    0    0 -.37067506E+03 0.93050640E+02 -.22856757E+03 0.45230862E+03 0.79256081E+02 0.0000E+00 0.0000E+00
      -24  1    1    2    0    0 0.38266978E+03 -.84420026E+02 -.56262270E+03 0.69034369E+03 0.80419002E+02 0.0000E+00 0.9000E+01
      -13  1    4    4    0    0 -.24700338E+03 0.99902621E+02 -.15702466E+03 0.30927004E+03 0.10565837E+00 0.0000E+00 0.9000E+01
       13  1    4    4    0    0 -.12367168E+03 -.68519814E+01 -.71542908E+02 0.14303857E+03 0.10565837E+00 0.0000E+00 0.9000E+01
       23  1    3    3    0    0 -.11994715E+02 -.86306144E+01 -.14643469E+01 0.92389157E+02 0.91188000E+02 0.0000E+00 0.9000E+01
#aMCatNLO 1  0  0  2  1 0.11572429D+03 0.00000000D+00  -5  7  0 0.00000000D+00 0.00000000D+00 0.00000000D+00 0.00000000D+00 0.00000000D+00
  <mgrwgt>
 0.2696784369D-02    9    2    0
 0.473557304133458D+03 0.000000000000000D+00 0.000000000000000D+00 0.473557304133458D+03
 0.473557304133458D+03 0.000000000000000D+00 0.000000000000000D+00 -.473557304133458D+03
 0.429343612809695D+03 0.382669776114674D+03 -.844200255530434D+02 -.155903250896444D+03
 0.271873378612013D+03 -.247003600375425D+03 0.999028108495507D+02 0.540720240405992D+02
 0.126647298420907D+03 -.123671460963044D+03 -.685217084761369D+01 0.264188511342882D+02
 0.119250318424301D+03 -.119947147762051D+02 -.863061444889363D+01 0.754123757215564D+02
 0.000000000000000D+00 0.000000000000000D+00 -.000000000000000D+00 -.000000000000000D+00
 0.516465879641556D+03 0.000000000000000D+00 0.000000000000000D+00 0.516465879641556D+03
 0.562083214996856D+03 0.000000000000000D+00 0.000000000000000D+00 -.562083214996856D+03
 0.411719838024601D+03 0.370867344922489D+03 -.346063274372952D+02 -.155903250896444D+03
 0.292731277295347D+03 -.254926555053249D+03 0.133342673033808D+03 0.540720240405992D+02
 0.130258305306597D+03 -.127276552478877D+03 0.836358745888678D+01 0.264188511342882D+02
 0.119448948095204D+03 -.153443213557407D+02 0.550683640699403D+01 0.754123757215564D+02
 0.124390725916662D+03 0.266800839653772D+02 -.112606769462394D+03 -.456173353553000D+02
0.127882804867D-03 0.000000000000D+00 0.000000000000D+00 0.666770491486D-07 0.000000000000D+00  7 -2 1 -24 -13 13 23 21 0 0.34029758D-01 0.15597662D+00 0.19479792D+06 0.19479792D+06 0.19479792D+06 0.10987055D+01  1  2  2  2  7  2        1 0.165412545693D-02 0.100000000000D+01
-.706177124189D-05 0.000000000000D+00 -.491103643007D-06 0.666770491486D-07 0.000000000000D+00  7 -2 1 -24 -13 13 23 21 2 0.34029758D-01 0.15597662D+00 0.19479792D+06 0.19479792D+06 0.19479792D+06 0.10987055D+01  1  2  3  2  7  2        1 -.110263697852D-03 0.100000000000D+01
0.830119725944D-05 0.000000000000D+00 0.000000000000D+00 0.666770491486D-07 0.000000000000D+00  7 -2 1 -24 -13 13 23 21 2 0.34029758D-01 0.15597662D+00 0.19479792D+06 0.19479792D+06 0.19479792D+06 0.10987055D+01  1  2 15  2  7  2        1 0.129616306599D-03 0.100000000000D+01
0.126574127856D-03 0.000000000000D+00 0.000000000000D+00 0.666770491486D-07 0.000000000000D+00  7 -2 1 -24 -13 13 23 21 2 0.34029758D-01 0.19116885D+00 0.25233745D+06 0.25233745D+06 0.25233745D+06 0.10901552D+01  1  2 12  2  7  2        1 0.131695756557D-02 0.100000000000D+01
-.125898063592D-03 0.000000000000D+00 0.000000000000D+00 0.666770491486D-07 0.000000000000D+00  7 -2 1 -24 -13 13 23 21 2 0.34029758D-01 0.15597662D+00 0.19479792D+06 0.19479792D+06 0.19479792D+06 0.10987055D+01  1  2  4  2  7  2        1 -.196579378863D-02 0.100000000000D+01
-.282545189803D-03 0.000000000000D+00 -.781360295661D-04 0.666770491486D-07 0.000000000000D+00  7 -2 1 -24 -13 13 23 21 2 0.34029758D-01 0.19524300D+00 0.19479792D+06 0.19479792D+06 0.19479792D+06 0.10987055D+01  1  2  5  2  7  2        1 -.288735758103D-02 0.100000000000D+01
0.294562112006D-03 0.000000000000D+00 0.762068586288D-04 0.666770491486D-07 0.000000000000D+00  7 -2 1 -24 -13 13 23 21 2 0.34029758D-01 0.15597662D+00 0.19479792D+06 0.19479792D+06 0.19479792D+06 0.10987055D+01  1  2  6  2  7  2        1 0.459934294164D-02 0.100000000000D+01
0.366991038291D-05 0.000000000000D+00 0.000000000000D+00 0.666770491486D-07 0.000000000000D+00  7 -2 21 -24 -13 13 23 -1 2 0.34029758D-01 0.19116885D+00 0.25233745D+06 0.25233745D+06 0.25233745D+06 0.10901552D+01  1  2 12  4  7  2        1 0.385447764058D-04 0.100000000000D+01
-.773209470211D-05 0.000000000000D+00 -.244124543328D-05 0.666770491486D-07 0.000000000000D+00  7 -2 21 -24 -13 13 23 -1 2 0.34029758D-01 0.19524300D+00 0.19479792D+06 0.19479792D+06 0.19479792D+06 0.10987055D+01  1  2  5  4  7  2        1 -.783876110883D-04 0.100000000000D+01
  </mgrwgt>
  </event>
  <event>
  8     66 0.26562228E-05 0.42303999E+03 0.75467711E-02 0.87197320E-01
       -2 -1    0    0    0  501 0.00000000E+00 0.00000000E+00 0.10412119E+03 0.10412169E+03 0.32000000E+00 0.0000E+00 0.9000E+01
        1 -1    0    0  501    0 0.00000000E+00 0.00000000E+00 -.21052762E+04 0.21052763E+04 0.32000000E+00 0.0000E+00 0.9000E+01
       25  2    1    2    0    0 0.21979938E+02 -.39067422E+03 -.75752165E+03 0.90318178E+03 0.29797450E+03 0.0000E+00 0.0000E+00
       23  2    3    3    0    0 -.47064090E+02 -.20329422E+03 -.57246545E+03 0.61605917E+03 0.90932051E+02 0.0000E+00 0.0000E+00
      -24  1    1    2    0    0 -.21979938E+02 0.39067422E+03 -.12436334E+04 0.13062162E+04 0.80419002E+02 0.0000E+00 0.9000E+01
      -13  1    4    4    0    0 0.24502634E+02 -.88273229E+02 -.25209634E+03 0.26822587E+03 0.10565837E+00 0.0000E+00 0.9000E+01
       13  1    4    4    0    0 -.71566724E+02 -.11502099E+03 -.32036911E+03 0.34783329E+03 0.10565837E+00 0.0000E+00 0.9000E+01
       23  1    3    3    0    0 0.69044027E+02 -.18738000E+03 -.18505621E+03 0.28712261E+03 0.91188000E+02 0.0000E+00 0.9000E+01
#aMCatNLO 1  0  0  2  2 0.84982201D+03 0.00000000D+00  -5  7  0 0.00000000D+00 0.00000000D+00 0.00000000D+00 0.00000000D+00 0.00000000D+00
  <mgrwgt>
 0.1325056372D-02    3    2    0
 0.468192747024802D+03 0.000000000000000D+00 0.000000000000000D+00 0.468192747024802D+03
 0.468192747024802D+03 0.000000000000000D+00 0.000000000000000D+00 -.468192747024802D+03
 0.424235645764189D+03 -.219799376944720D+02 0.390674223077438D+03 -.142825771289272D+03
 0.941212512314549D+02 0.245027637383752D+02 -.882731931216980D+02 -.215932368730449D+02
 0.136048631081930D+03 -.715668533318751D+02 -.115021026998785D+03 -.125530423239015D+02
 0.281979965972030D+03 0.690440272879720D+02 -.187380002956954D+03 0.176972050486219D+03
 0.000000000000000D+00 -.000000000000000D+00 0.000000000000000D+00 0.000000000000000D+00
 0.111596814812856D+04 0.000000000000000D+00 0.000000000000000D+00 0.111596814812856D+04
 0.100552249692777D+04 0.000000000000000D+00 0.000000000000000D+00 -.100552249692777D+04
 0.242703376689657D+03 0.860931824242707D+02 0.156928251433185D+03 -.142825771289272D+03
 0.209153093468271D+03 0.736463939357440D+02 -.194563504514472D+03 -.215932368730449D+02
 0.251216851820579D+03 -.881300681442661D+01 -.250748197756127D+03 -.125530423239015D+02
 0.561448423889576D+03 0.205716098677196D+03 -.482981222653455D+03 0.176972050486219D+03
 0.856968899188244D+03 -.356642668222784D+03 0.771364673490870D+03 0.110445651200794D+03
0.154316762178D-03 0.000000000000D+00 0.000000000000D+00 0.578448428693D-06 0.000000000000D+00  7 -2 1 -24 -13 13 23 21 0 0.16018685D-01 0.32388869D+00 0.17896283D+06 0.17896283D+06 0.17896283D+06 0.11015518D+01  1  2  2  2  7  2        1 0.131220906249D-02 0.100000000000D+01
-.846594912284D-05 0.000000000000D+00 -.592616999299D-06 0.578448428693D-06 0.000000000000D+00  7 -2 1 -24 -13 13 23 21 2 0.16018685D-01 0.32388869D+00 0.17896283D+06 0.17896283D+06 0.17896283D+06 0.11015518D+01  1  2  3  2  7  2        1 -.873525154757D-04 0.100000000000D+01
0.971107260004D-05 0.000000000000D+00 0.000000000000D+00 0.578448428693D-06 0.000000000000D+00  7 -2 1 -24 -13 13 23 21 2 0.16018685D-01 0.32388869D+00 0.17896283D+06 0.17896283D+06 0.17896283D+06 0.11015518D+01  1  2 15  2  7  2        1 0.100199824883D-03 0.100000000000D+01
  </mgrwgt>
  </event>
  <event>
  8     66 0.26562228E-05 0.39259009E+03 0.75467711E-02 0.87849658E-01
       -2 -1    0    0    0  501 0.00000000E+00 0.00000000E+00 0.37100923E+03 0.37100937E+03 0.32000000E+00 0.0000E+00 0.9000E+01
        1 -1    0    0  501    0 0.00000000E+00 0.00000000E+00 -.47024532E+03 0.47024543E+03 0.32000000E+00 0.0000E+00 0.9000E+01
       25  2    1    2    0    0 -.30904476E+03 0.18159051E+03 -.76078272E+02 0.47316883E+03 0.29936109E+03 0.0000E+00 0.0000E+00
       23  2    3    3    0    0 -.39566717E+02 0.31677403E+02 0.64687315E+02 0.12213812E+03 0.90356457E+02 0.0000E+00 0.0000E+00
      -24  1    1    2    0    0 0.30904476E+03 -.18159051E+03 -.23157812E+02 0.36808597E+03 0.80419002E+02 0.0000E+00 0.9000E+01
      -13  1    4    4    0    0 -.31003856E+02 0.59526620E+02 0.22342828E+02 0.70738043E+02 0.10565837E+00 0.0000E+00 0.9000E+01
       13  1    4    4    0    0 -.85628617E+01 -.27849217E+02 0.42344487E+02 0.51400080E+02 0.10565837E+00 0.0000E+00 0.9000E+01
       23  1    3    3    0    0 -.26947805E+03 0.14991311E+03 -.14076559E+03 0.35103071E+03 0.91188000E+02 0.0000E+00 0.9000E+01
#aMCatNLO 1  0  0  2  1 0.78815235D+03 0.00000000D+00  -5  7  0 0.00000000D+00 0.00000000D+00 0.00000000D+00 0.00000000D+00 0.00000000D+00
  <mgrwgt>
 0.1292877700D-02    3    2    0
 0.417690626970895D+03 0.000000000000000D+00 0.000000000000000D+00 0.417690626970895D+03
 0.417690626970895D+03 0.000000000000000D+00 0.000000000000000D+00 -.417690626970895D+03
 0.367923024208772D+03 0.309044763690709D+03 -.181590511515151D+03 0.204048021695185D+02
 0.738895587606415D+02 -.310038861359048D+02 0.595267396658862D+02 0.309029643086866D+02
 0.567916090461506D+02 -.856283100611513D+01 -.278493363696059D+02 0.487481204456549D+02
 0.336777061926226D+03 -.269478046548690D+03 0.149913108218871D+03 -.100055886923860D+03
 0.000000000000000D+00 0.000000000000000D+00 -.000000000000000D+00 0.000000000000000D+00
 0.104661460939700D+04 0.000000000000000D+00 0.000000000000000D+00 0.104661460939700D+04
 0.903010738017726D+03 0.000000000000000D+00 0.000000000000000D+00 -.903010738017726D+03
 0.171818709602989D+03 0.143463022980031D+03 -.453481874072120D+02 0.204048021695185D+02
 0.159856036068695D+03 -.102712260809769D+03 0.118529112642752D+03 0.309029643086866D+02
 0.676221290292852D+02 -.467304249280588D+02 0.355534435916913D+01 0.487481204456549D+02
 0.749200391397513D+03 -.602633750155273D+03 0.424036976915762D+03 -.100055886923860D+03
 0.801128081316245D+03 0.608613412913070D+03 -.500773246510471D+03 0.143603871379277D+03
0.819048171669D-04 0.000000000000D+00 0.000000000000D+00 0.189276619110D-05 0.000000000000D+00  7 -2 1 -24 -13 13 23 21 0 0.57078363D-01 0.72345453D-01 0.15412698D+06 0.15412698D+06 0.15412698D+06 0.11066229D+01  1  2  2  2  7  2        1 0.127855609608D-02 0.100000000000D+01
-.452901799692D-05 0.000000000000D+00 -.314536063954D-06 0.189276619110D-05 0.000000000000D+00  7 -2 1 -24 -13 13 23 21 2 0.57078363D-01 0.72345453D-01 0.15412698D+06 0.15412698D+06 0.15412698D+06 0.11066229D+01  1  2  3  2  7  2        1 -.865792257276D-04 0.100000000000D+01
0.527819078598D-05 0.000000000000D+00 0.000000000000D+00 0.189276619110D-05 0.000000000000D+00  7 -2 1 -24 -13 13 23 21 2 0.57078363D-01 0.72345453D-01 0.15412698D+06 0.15412698D+06 0.15412698D+06 0.11066229D+01  1  2 15  2  7  2        1 0.100900829231D-03 0.100000000000D+01
  </mgrwgt>
  </event>
  <event>
  8     66 0.26562228E-05 0.25415963E+03 0.75467711E-02 0.90168924E-01
       -2 -1    0    0    0  501 0.00000000E+00 0.00000000E+00 0.17099529E+03 0.17099559E+03 0.32000000E+00 0.0000E+00 0.9000E+01
        1 -1    0    0  501    0 0.00000000E+00 0.00000000E+00 -.94691910E+03 0.94691916E+03 0.32000000E+00 0.0000E+00 0.9000E+01
       25  2    1    2    0    0 -.95896394E+01 0.18406525E+03 -.38224873E+02 0.35329790E+03 0.29897540E+03 0.0000E+00 0.0000E+00
       23  2    3    3    0    0 -.31003327E+02 0.19067273E+03 0.55650569E+02 0.22051968E+03 0.90634700E+02 0.0000E+00 0.0000E+00
      -24  1    1    2    0    0 0.95896394E+01 -.18406525E+03 -.73769894E+03 0.76461685E+03 0.80419002E+02 0.0000E+00 0.9000E+01
      -13  1    4    4    0    0 0.24222683E+02 0.12587207E+03 0.30892705E+02 0.13185176E+03 0.10565837E+00 0.0000E+00 0.9000E+01
       13  1    4    4    0    0 -.55226010E+02 0.64800662E+02 0.24757864E+02 0.88667925E+02 0.10565837E+00 0.0000E+00 0.9000E+01
       23  1    3    3    0    0 0.21413688E+02 -.66074821E+01 -.93875442E+02 0.13277822E+03 0.91188000E+02 0.0000E+00 0.9000E+01
#aMCatNLO 1  0  0  2  2 0.68442294D+03 0.00000000D+00  -5  7  0 0.00000000D+00 0.00000000D+00 0.00000000D+00 0.00000000D+00 0.00000000D+00
  <mgrwgt>
 0.1037969237D-02    5    2    0
 0.402391480773812D+03 0.000000000000000D+00 0.000000000000000D+00 0.402391480773812D+03
 0.402391480773812D+03 0.000000000000000D+00 0.000000000000000D+00 -.402391480773812D+03
 0.350875061456519D+03 0.958963937475832D+01 -.184065248259673D+03 -.287531069621201D+03
 0.212938757564390D+03 0.242227907381634D+02 0.125872151473061D+03 0.170036385416370D+03
 0.147037562339859D+03 -.552261176826032D+02 0.648005787905482D+02 0.119879129346877D+03
 0.939315801868557D+02 0.214136875696815D+02 -.660748200393571D+01 -.238444514204508D+01
 0.000000000000000D+00 0.000000000000000D+00 -.000000000000000D+00 -.000000000000000D+00
 0.694178782880319D+03 0.000000000000000D+00 0.000000000000000D+00 0.694178782880319D+03
 0.123392503859776D+04 0.000000000000000D+00 0.000000000000000D+00 -.123392503859776D+04
 0.343128312334117D+03 -.169092470910706D+03 -.185554700520240D+01 -.287531069621201D+03
 0.341537333417639D+03 -.118535820791862D+03 0.271449142459074D+03 0.170036385416370D+03
 0.265251806015625D+03 -.161376515747157D+03 0.173046626973464D+03 0.119879129346877D+03
 0.106543796753893D+03 -.302018589317587D+02 0.460270726982018D+02 -.238444514204508D+01
 0.871642572956805D+03 0.479206666381484D+03 -.488667295125537D+03 -.539746255717440D+03
0.426882945660D-04 0.000000000000D+00 0.000000000000D+00 0.161578011666D-05 0.000000000000D+00  7 -2 1 -24 -13 13 23 21 0 0.26306995D-01 0.14567989D+00 0.64597118D+05 0.64597118D+05 0.64597118D+05 0.11376372D+01  1  2  2  2  7  2        1 0.100335013436D-02 0.100000000000D+01
-.176285030602D-05 0.000000000000D+00 -.163934291220D-06 0.161578011666D-05 0.000000000000D+00  7 -2 1 -24 -13 13 23 21 2 0.26306995D-01 0.14567989D+00 0.64597118D+05 0.64597118D+05 0.64597118D+05 0.11376372D+01  1  2  3  2  7  2        1 -.536249241204D-04 0.100000000000D+01
0.262814093561D-05 0.000000000000D+00 0.000000000000D+00 0.161578011666D-05 0.000000000000D+00  7 -2 1 -24 -13 13 23 21 2 0.26306995D-01 0.14567989D+00 0.64597118D+05 0.64597118D+05 0.64597118D+05 0.11376372D+01  1  2 15  2  7  2        1 0.799465829679D-04 0.100000000000D+01
0.149307601205D-04 0.000000000000D+00 -.140099593494D-04 0.161578011666D-05 0.000000000000D+00  7 -2 1 -24 -13 13 23 21 2 0.26306995D-01 0.53297712D+00 0.64597118D+05 0.64597118D+05 0.64597118D+05 0.11376372D+01  1  2  5  2  7  2        1 0.808464884560D-05 0.100000000000D+01
0.264100653401D-05 0.000000000000D+00 -.214118559557D-05 0.161578011666D-05 0.000000000000D+00  7 -2 21 -24 -13 13 23 -1 2 0.26306995D-01 0.53297712D+00 0.64597118D+05 0.64597118D+05 0.64597118D+05 0.11376372D+01  1  2  5  4  7  2        1 0.212794656202D-06 0.100000000000D+01
  </mgrwgt>
  </event>
  <event>
  8     66 0.26562228E-05 0.25544109E+03 0.75467711E-02 0.95268652E-01
       -2 -1    0    0    0  501 0.00000000E+00 0.00000000E+00 0.11682089E+03 0.11682133E+03 0.32000000E+00 0.0000E+00 0.9000E+01
        1 -1    0    0  501    0 0.00000000E+00 0.00000000E+00 -.76560046E+03 0.76560053E+03 0.32000000E+00 0.0000E+00 0.9000E+01
       25  2    1    2    0    0 0.26800407E+02 -.20659003E+03 -.32396111E+03 0.48824937E+03 0.30006491E+03 0.0000E+00 0.0000E+00
       23  2    3    3    0    0 0.56286549E+02 -.13035316E+03 -.32485659E+03 0.36578491E+03 0.90037049E+02 0.0000E+00 0.0000E+00
      -24  1    1    2    0    0 -.26800407E+02 0.20659003E+03 -.32481846E+03 0.39417249E+03 0.80419002E+02 0.0000E+00 0.9000E+01
      -11  1    4    4    0    0 0.78770181E+02 -.10430571E+03 -.28204168E+03 0.31085677E+03 0.51099893E-03 0.0000E+00 0.9000E+01
       11  1    4    4    0    0 -.22483632E+02 -.26047453E+02 -.42814915E+02 0.54928139E+02 0.51099893E-03 0.0000E+00 0.9000E+01
       23  1    3    3    0    0 -.29486142E+02 -.76236868E+02 0.89548360E+00 0.12246447E+03 0.91188000E+02 0.0000E+00 0.9000E+01
#aMCatNLO 1  0  0  2  1 0.33591867D+03 0.00000000D+00  -5  7  0 0.00000000D+00 0.00000000D+00 0.00000000D+00 0.00000000D+00 0.00000000D+00
  <mgrwgt>
 0.1145341663D-02    5    2    0
 0.299062457191019D+03 0.000000000000000D+00 0.000000000000000D+00 0.299062457191019D+03
 0.299062457191019D+03 0.000000000000000D+00 0.000000000000000D+00 -.299062457191019D+03
 0.229201019035146D+03 -.268004067750687D+02 0.206590029120780D+03 -.516545180690441D+02
 0.152683707900914D+03 0.787701808231352D+02 -.104305708808840D+03 -.789169967836302D+02
 0.345953631053700D+02 -.224836323225471D+02 -.260474525592077D+02 -.358547641921319D+01
 0.181644824340608D+03 -.294861417255194D+02 -.762368677527317D+02 0.134156991271887D+03
 0.000000000000000D+00 0.000000000000000D+00 -.000000000000000D+00 -.000000000000000D+00
 0.462443963975127D+03 0.000000000000000D+00 0.000000000000000D+00 0.462443963975127D+03
 0.579179181748866D+03 0.000000000000000D+00 0.000000000000000D+00 -.579179181748866D+03
 0.282020594369601D+03 -.160449038736453D+03 0.211320411758580D+03 -.516545180690441D+02
 0.128832114119839D+03 0.517351843247454D+01 -.101700815897752D+03 -.789169967836302D+02
 0.517798767786894D+02 -.450647054680232D+02 -.252482141773205D+02 -.358547641921319D+01
 0.223366514171268D+03 -.135368228674973D+03 -.724892589788203D+02 0.134156991271887D+03
 0.355624046284595D+03 0.335708454446974D+03 -.118821227046866D+02 -.116735217773739D+03
0.181828051826D-04 0.000000000000D+00 0.000000000000D+00 0.196512961047D-05 0.000000000000D+00  7 -2 1 -24 -11 11 23 21 0 0.17972484D-01 0.11778473D+00 0.65250152D+05 0.65250152D+05 0.65250152D+05 0.11372630D+01  1  2  2  2  7  2        1 0.113230960233D-02 0.100000000000D+01
-.979626583437D-06 0.000000000000D+00 -.698267595436D-07 0.196512961047D-05 0.000000000000D+00  7 -2 1 -24 -11 11 23 21 2 0.17972484D-01 0.11778473D+00 0.65250152D+05 0.65250152D+05 0.65250152D+05 0.11372630D+01  1  2  3  2  7  2        1 -.789017584156D-04 0.100000000000D+01
0.117643621416D-05 0.000000000000D+00 0.000000000000D+00 0.196512961047D-05 0.000000000000D+00  7 -2 1 -24 -11 11 23 21 2 0.17972484D-01 0.11778473D+00 0.65250152D+05 0.65250152D+05 0.65250152D+05 0.11372630D+01  1  2 15  2  7  2        1 0.947533351286D-04 0.100000000000D+01
-.397991168696D-06 0.000000000000D+00 -.550500442603D-05 0.196512961047D-05 0.000000000000D+00  7 -2 1 -24 -11 11 23 21 2 0.17972484D-01 0.29484095D+00 0.65250152D+05 0.65250152D+05 0.65250152D+05 0.11372630D+01  1  2  5  2  7  2        1 -.502219911268D-05 0.100000000000D+01
0.299776401928D-06 0.000000000000D+00 -.556139736450D-06 0.196512961047D-05 0.000000000000D+00  7 -2 21 -24 -11 11 23 -1 2 0.17972484D-01 0.29484095D+00 0.65250152D+05 0.65250152D+05 0.65250152D+05 0.11372630D+01  1  2  5  4  7  2        1 0.220268288322D-05 0.100000000000D+01
  </mgrwgt>
  </event>
  <event>
  8     66 0.26562228E-05 0.10562898E+03 0.75467711E-02 0.10593864E+00
       -2 -1    0    0    0  501 0.00000000E+00 0.00000000E+00 0.16393916E+03 0.16393947E+03 0.32000000E+00 0.0000E+00 0.9000E+01
        1 -1    0    0  501    0 0.00000000E+00 0.00000000E+00 -.56773773E+03 0.56773782E+03 0.32000000E+00 0.0000E+00 0.9000E+01
       25  2    1    2    0    0 0.48799373E+02 0.11010331E+02 -.50756349E+03 0.59118892E+03 0.29896662E+03 0.0000E+00 0.0000E+00
       23  2    3    3    0    0 -.70395456E+02 0.77124013E+02 -.21055222E+03 0.25191120E+03 0.90682862E+02 0.0000E+00 0.0000E+00
      -24  1    1    2    0    0 -.48799373E+02 -.11010331E+02 0.10376492E+03 0.14048836E+03 0.80419002E+02 0.0000E+00 0.9000E+01
      -13  1    4    4    0    0 -.75873271E+02 0.92617499E+02 -.16801584E+03 0.20631066E+03 0.10565837E+00 0.0000E+00 0.9000E+01
       13  1    4    4    0    0 0.54778150E+01 -.15493485E+02 -.42536378E+02 0.45600539E+02 0.10565837E+00 0.0000E+00 0.9000E+01
       23  1    3    3    0    0 0.11919483E+03 -.66113683E+02 -.29701127E+03 0.33927772E+03 0.91188000E+02 0.0000E+00 0.9000E+01
#aMCatNLO 1  0  0  1  2 0.16167138D+02 0.00000000D+00  -5  7  0 0.00000000D+00 0.00000000D+00 0.00000000D+00 0.00000000D+00 0.00000000D+00
  <mgrwgt>
 0.8781989429D-03    9    2    0
 0.305081284947876D+03 0.000000000000000D+00 0.000000000000000D+00 0.305081284947876D+03
 0.305081284947876D+03 0.000000000000000D+00 0.000000000000000D+00 -.305081284947876D+03
 0.237137244159291D+03 -.487993729220867D+02 -.110103306517256D+02 0.217403427835081D+03
 0.136206909750190D+03 -.758733813630380D+02 0.926176451981862D+02 -.649424673243810D+02
 0.265317142264298D+02 0.547792533706463D+01 -.154936318463061D+02 -.208295839134058D+02
 0.210286701759842D+03 0.119194828948060D+03 -.661136827001545D+02 -.131631376597295D+03
 0.000000000000000D+00 -.000000000000000D+00 0.000000000000000D+00 0.000000000000000D+00
 0.319866880408327D+03 0.000000000000000D+00 0.000000000000000D+00 0.319866880408327D+03
 0.309640039763031D+03 0.000000000000000D+00 0.000000000000000D+00 -.309640039763031D+03
 0.236457505142889D+03 -.441480364192282D+02 -.152196001889669D+02 0.217403427835081D+03
 0.133117451334750D+03 -.732282544192337D+02 0.902239133622184D+02 -.649424673243810D+02
 0.269241065648599D+02 0.600293329144577D+01 -.159687425994902D+02 -.208295839134058D+02
 0.213877655109105D+03 0.123360692609393D+03 -.698836191464153D+02 -.131631376597295D+03
 0.191302020197548D+02 -.119873350623769D+02 0.108480485726540D+02 0.102268406452960D+02
0.132923657846D-04 0.000000000000D+00 0.000000000000D+00 0.136239208299D-05 0.000000000000D+00  7 -2 1 -24 -13 13 23 21 0 0.25221439D-01 0.87344296D-01 0.38979314D+05 0.38979314D+05 0.38979314D+05 0.11569302D+01  1  2  2  1  7  1       -2 0.734114420670D-03 0.100000000000D+01
-.568421581125D-06 0.000000000000D+00 -.510461845732D-07 0.136239208299D-05 0.000000000000D+00  7 -2 1 -24 -13 13 23 21 2 0.25221439D-01 0.87344296D-01 0.38979314D+05 0.38979314D+05 0.38979314D+05 0.11569302D+01  1  2  3  1  7  1       -2 -.420190610137D-04 0.100000000000D+01
0.817937127947D-06 0.000000000000D+00 0.000000000000D+00 0.136239208299D-05 0.000000000000D+00  7 -2 1 -24 -13 13 23 21 2 0.25221439D-01 0.87344296D-01 0.38979314D+05 0.38979314D+05 0.38979314D+05 0.11569302D+01  1  2 15  1  7  1       -2 0.604638374506D-04 0.100000000000D+01
0.467038964380D-04 0.000000000000D+00 0.000000000000D+00 0.136239208299D-05 0.000000000000D+00  7 -2 1 -24 -13 13 23 21 2 0.26626048D-01 0.87344296D-01 0.42229262D+05 0.42229262D+05 0.42229262D+05 0.11538042D+01  1  2 12  1  7  1       -2 0.313074425206D-02 0.100000000000D+01
-.462731233182D-04 0.000000000000D+00 0.000000000000D+00 0.136239208299D-05 0.000000000000D+00  7 -2 1 -24 -13 13 23 21 2 0.25221439D-01 0.87344296D-01 0.38979314D+05 0.38979314D+05 0.38979314D+05 0.11569302D+01  1  2  4  1  7  1       -2 -.342061817595D-02 0.100000000000D+01
-.174206353650D-03 0.000000000000D+00 -.283995675448D-04 0.136239208299D-05 0.000000000000D+00  7 -2 1 -24 -13 13 23 21 2 0.26799619D-01 0.87344296D-01 0.38979314D+05 0.38979314D+05 0.38979314D+05 0.11569302D+01  1  2  5  1  7  1       -2 -.116186497756D-01 0.100000000000D+01
0.175658609807D-03 0.000000000000D+00 0.283473403393D-04 0.136239208299D-05 0.000000000000D+00  7 -2 1 -24 -13 13 23 21 2 0.25221439D-01 0.87344296D-01 0.38979314D+05 0.38979314D+05 0.38979314D+05 0.11569302D+01  1  2  6  1  7  1       -2 0.129850978361D-01 0.100000000000D+01
0.628820936353D-06 0.000000000000D+00 0.000000000000D+00 0.136239208299D-05 0.000000000000D+00  7 21 1 -24 -13 13 23 2 2 0.26626048D-01 0.87344296D-01 0.42229262D+05 0.42229262D+05 0.42229262D+05 0.11538042D+01  1  2 12  3  7  1       -2 0.523810262097D-03 0.100000000000D+01
-.177765828613D-05 0.000000000000D+00 -.295719386429D-06 0.136239208299D-05 0.000000000000D+00  7 21 1 -24 -13 13 23 2 2 0.26799619D-01 0.87344296D-01 0.38979314D+05 0.38979314D+05 0.38979314D+05 0.11569302D+01  1  2  5  3  7  1       -2 -.147474465296D-02 0.100000000000D+01
  </mgrwgt>
  </event>
  <event>
  8     66 0.26562228E-05 0.10590864E+03 0.75467711E-02 0.10316563E+00
       -2 -1    0    0    0  501 0.00000000E+00 0.00000000E+00 0.14060371E+03 0.14060408E+03 0.32000000E+00 0.0000E+00 0.9000E+01
        1 -1    0    0  501    0 0.00000000E+00 0.00000000E+00 -.33488150E+03 0.33488165E+03 0.32000000E+00 0.0000E+00 0.9000E+01
       25  2    1    2    0    0 0.85768619E+02 0.29343372E+01 -.10600624E+03 0.32843489E+03 0.29877632E+03 0.0000E+00 0.0000E+00
       23  2    3    3    0    0 0.15710115E+03 0.30519061E+02 -.97347440E+02 0.20910563E+03 0.92932517E+02 0.0000E+00 0.0000E+00
      -24  1    1    2    0    0 -.85768619E+02 -.29343372E+01 -.88271546E+02 0.14705083E+03 0.80419002E+02 0.0000E+00 0.9000E+01
      -11  1    4    4    0    0 0.45023974E+02 -.15527100E+02 -.70369416E+02 0.84971194E+02 0.51099893E-03 0.0000E+00 0.9000E+01
       11  1    4    4    0    0 0.11207718E+03 0.46046161E+02 -.26978024E+02 0.12413443E+03 0.51099893E-03 0.0000E+00 0.9000E+01
       23  1    3    3    0    0 -.71332536E+02 -.27584724E+02 -.86587984E+01 0.11932927E+03 0.91188000E+02 0.0000E+00 0.9000E+01
#aMCatNLO 1  0  0  1  2 0.87317417D+02 0.00000000D+00  -5  7  0 0.00000000D+00 0.00000000D+00 0.00000000D+00 0.00000000D+00 0.00000000D+00
  <mgrwgt>
 0.1380495929D-02    9    2    0
 0.216992406790086D+03 0.000000000000000D+00 0.000000000000000D+00 0.216992406790086D+03
 0.216992406790086D+03 0.000000000000000D+00 0.000000000000000D+00 -.216992406790086D+03
 0.121597279482685D+03 -.857686186484049D+02 -.293433722332223D+01 -.308839139913340D+02
 0.615951869652480D+02 0.450239741861047D+02 -.155271001891152D+02 -.390604399039490D+02
 0.123928114008485D+03 0.112077180020581D+03 0.460461609621045D+02 0.260121936980781D+02
 0.126864233123753D+03 -.713325355582809D+02 -.275847235496671D+02 0.439321601972048D+02
 0.000000000000000D+00 0.000000000000000D+00 0.000000000000000D+00 0.000000000000000D+00
 0.268610468009708D+03 0.000000000000000D+00 0.000000000000000D+00 0.268610468009708D+03
 0.261664549946083D+03 0.000000000000000D+00 0.000000000000000D+00 -.261664549946083D+03
 0.134600920116279D+03 -.100685796370543D+03 -.236378088575034D+02 -.308839139913340D+02
 0.600685970342709D+02 0.379400825307005D+02 -.253587957470232D+02 -.390604399039490D+02
 0.105712828059196D+03 0.987063025106489D+02 0.274887911695491D+02 0.260121936980781D+02
 0.142299425014271D+03 -.870046290041789D+02 -.493359387023731D+02 0.439321601972048D+02
 0.875932477317741D+02 0.510440403333728D+02 0.708437521373506D+02 0.694591806362496D+01
0.691520500556D-05 0.000000000000D+00 0.000000000000D+00 0.540401562255D-07 0.000000000000D+00  7 -2 1 -24 -11 11 23 21 0 0.21631380D-01 0.51520270D-01 0.41090965D+05 0.41090965D+05 0.41090965D+05 0.11548679D+01  1  2  2  1  7  1       -2 0.100093184291D-02 0.100000000000D+01
-.382012406200D-06 0.000000000000D+00 -.265562080366D-07 0.540401562255D-07 0.000000000000D+00  7 -2 1 -24 -11 11 23 21 2 0.21631380D-01 0.51520270D-01 0.41090965D+05 0.41090965D+05 0.41090965D+05 0.11548679D+01  1  2  3  1  7  1       -2 -.737465239471D-04 0.100000000000D+01
0.456976314162D-06 0.000000000000D+00 0.000000000000D+00 0.540401562255D-07 0.000000000000D+00  7 -2 1 -24 -11 11 23 21 2 0.21631380D-01 0.51520270D-01 0.41090965D+05 0.41090965D+05 0.41090965D+05 0.11548679D+01  1  2 15  1  7  1       -2 0.882181158221D-04 0.100000000000D+01
0.260037074792D-05 0.000000000000D+00 0.000000000000D+00 0.540401562255D-07 0.000000000000D+00  7 -2 1 -24 -11 11 23 21 2 0.28539464D-01 0.51520270D-01 0.62943906D+05 0.62943906D+05 0.62943906D+05 0.11386034D+01  1  2 12  1  7  1       -2 0.306038201250D-03 0.100000000000D+01
-.297302733506D-05 0.000000000000D+00 0.000000000000D+00 0.540401562255D-07 0.000000000000D+00  7 -2 1 -24 -11 11 23 21 2 0.21631380D-01 0.51520270D-01 0.41090965D+05 0.41090965D+05 0.41090965D+05 0.11548679D+01  1  2  4  1  7  1       -2 -.573935369643D-03 0.100000000000D+01
-.590299319428D-05 0.000000000000D+00 -.290138838303D-05 0.540401562255D-07 0.000000000000D+00  7 -2 1 -24 -11 11 23 21 2 0.31984668D-01 0.51520270D-01 0.41090965D+05 0.41090965D+05 0.41090965D+05 0.11548679D+01  1  2  5  1  7  1       -2 -.585806639506D-03 0.100000000000D+01
0.672537925283D-05 0.000000000000D+00 0.269279354646D-05 0.540401562255D-07 0.000000000000D+00  7 -2 1 -24 -11 11 23 21 2 0.21631380D-01 0.51520270D-01 0.41090965D+05 0.41090965D+05 0.41090965D+05 0.11548679D+01  1  2  6  1  7  1       -2 0.129831736895D-02 0.100000000000D+01
0.949060604171D-07 0.000000000000D+00 0.000000000000D+00 0.540401562255D-07 0.000000000000D+00  7 21 1 -24 -11 11 23 2 2 0.28539464D-01 0.51520270D-01 0.62943906D+05 0.62943906D+05 0.62943906D+05 0.11386034D+01  1  2 12  3  7  1       -2 0.135496520931D-03 0.100000000000D+01
-.180356568933D-06 0.000000000000D+00 -.135851199652D-06 0.540401562255D-07 0.000000000000D+00  7 21 1 -24 -11 11 23 2 2 0.31984668D-01 0.51520270D-01 0.41090965D+05 0.41090965D+05 0.41090965D+05 0.11548679D+01  1  2  5  3  7  1       -2 -.215017587436D-03 0.100000000000D+01
  </mgrwgt>
  </event>
  <event>
  8     66 0.26562228E-05 0.21814238E+03 0.75467711E-02 0.10007873E+00
       -2 -1    0    0    0  501 0.00000000E+00 0.00000000E+00 0.17356859E+03 0.17356889E+03 0.32000000E+00 0.0000E+00 0.9000E+01
        1 -1    0    0  501    0 0.00000000E+00 0.00000000E+00 -.98920118E+03 0.98920123E+03 0.32000000E+00 0.0000E+00 0.9000E+01
       25  2    1    2    0    0 -.13221471E+03 -.15955221E+03 -.86162552E+03 0.93578950E+03 0.30060906E+03 0.0000E+00 0.0000E+00
       23  2    3    3    0    0 0.51669564E+02 -.77398677E+02 -.45204765E+03 0.47035217E+03 0.90685057E+02 0.0000E+00 0.0000E+00
      -24  1    1    2    0    0 0.13221471E+03 0.15955221E+03 0.45992928E+02 0.22698062E+03 0.80419002E+02 0.0000E+00 0.9000E+01
      -13  1    4    4    0    0 -.83810070E+00 -.77250026E+02 -.25699490E+03 0.26835547E+03 0.10565837E+00 0.0000E+00 0.9000E+01
       13  1    4    4    0    0 0.52507664E+02 -.14865142E+00 -.19505276E+03 0.20199670E+03 0.10565837E+00 0.0000E+00 0.9000E+01
       23  1    3    3    0    0 -.18388427E+03 -.82153538E+02 -.40957787E+03 0.46543733E+03 0.91188000E+02 0.0000E+00 0.9000E+01
#aMCatNLO 1  0  0  2  1 0.61623651D+02 0.00000000D+00  -5  7  0 0.00000000D+00 0.00000000D+00 0.00000000D+00 0.00000000D+00 0.00000000D+00
  <mgrwgt>
 0.1305361085D-02    9    2    0
 0.414360297509171D+03 0.000000000000000D+00 0.000000000000000D+00 0.414360297509171D+03
 0.414360297509171D+03 0.000000000000000D+00 0.000000000000000D+00 -.414360297509171D+03
 0.363740950793301D+03 0.132214706562279D+03 0.159552214966515D+03 0.287928160132998D+03
 0.123590920261224D+03 -.838173147216583D+00 -.772501302126624D+02 -.964698420176901D+02
 0.914473513725523D+02 0.525077364546025D+02 -.148546803220285D+00 -.748701116555619D+02
 0.249941372591266D+03 -.183884269869665D+03 -.821535379506322D+02 -.116588206459746D+03
 0.000000000000000D+00 -.000000000000000D+00 0.000000000000000D+00 -.000000000000000D+00
 0.429080122290335D+03 0.000000000000000D+00 0.000000000000000D+00 0.429080122290335D+03
 0.485435146216314D+03 0.000000000000000D+00 0.000000000000000D+00 -.485435146216314D+03
 0.354072741728648D+03 0.135237988601576D+03 0.133072730197805D+03 0.287928160132998D+03
 0.129632311051448D+03 0.228350457913600D+00 -.865913015590454D+02 -.964698420176901D+02
 0.921537162266276D+02 0.532810259806328D+02 -.692142077269072D+01 -.748701116555619D+02
 0.255149834436072D+03 -.181756930714226D+03 -.100785886514923D+03 -.116588206459746D+03
 0.835066650638534D+02 -.699043432589679D+01 0.612258786488542D+02 -.563550239259793D+02
0.416375508061D-04 0.000000000000D+00 0.000000000000D+00 0.377889553091D-05 0.000000000000D+00  7 -2 1 -24 -13 13 23 21 0 0.26702887D-01 0.15218482D+00 0.82116082D+05 0.82116082D+05 0.82116082D+05 0.11288126D+01  1  2  2  2  7  2        1 0.881224468787D-03 0.100000000000D+01
-.193067606523D-05 0.000000000000D+00 -.159899158514D-06 0.377889553091D-05 0.000000000000D+00  7 -2 1 -24 -13 13 23 21 2 0.26702887D-01 0.15218482D+00 0.82116082D+05 0.82116082D+05 0.82116082D+05 0.11288126D+01  1  2  3  2  7  2        1 -.520660298104D-04 0.100000000000D+01
0.259974331198D-05 0.000000000000D+00 0.000000000000D+00 0.377889553091D-05 0.000000000000D+00  7 -2 1 -24 -13 13 23 21 2 0.26702887D-01 0.15218482D+00 0.82116082D+05 0.82116082D+05 0.82116082D+05 0.11288126D+01  1  2 15  2  7  2        1 0.701092820379D-04 0.100000000000D+01
0.922812615784D-04 0.000000000000D+00 0.000000000000D+00 0.377889553091D-05 0.000000000000D+00  7 -2 1 -24 -13 13 23 21 2 0.26702887D-01 0.18067227D+00 0.10079646D+06 0.10079646D+06 0.10079646D+06 0.11214394D+01  1  2 12  2  7  2        1 0.179213413780D-02 0.100000000000D+01
-.951651473427D-04 0.000000000000D+00 0.000000000000D+00 0.377889553091D-05 0.000000000000D+00  7 -2 1 -24 -13 13 23 21 2 0.26702887D-01 0.15218482D+00 0.82116082D+05 0.82116082D+05 0.82116082D+05 0.11288126D+01  1  2  4  2  7  2        1 -.256639189126D-02 0.100000000000D+01
-.151027593196D-03 0.000000000000D+00 -.314783791379D-04 0.377889553091D-05 0.000000000000D+00  7 -2 1 -24 -13 13 23 21 2 0.26702887D-01 0.18154460D+00 0.82116082D+05 0.82116082D+05 0.82116082D+05 0.11288126D+01  1  2  5  2  7  2        1 -.296107102235D-02 0.100000000000D+01
0.154651529237D-03 0.000000000000D+00 0.309948634797D-04 0.377889553091D-05 0.000000000000D+00  7 -2 1 -24 -13 13 23 21 2 0.26702887D-01 0.15218482D+00 0.82116082D+05 0.82116082D+05 0.82116082D+05 0.11288126D+01  1  2  6  2  7  2        1 0.417060700989D-02 0.100000000000D+01
0.234396734464D-05 0.000000000000D+00 0.000000000000D+00 0.377889553091D-05 0.000000000000D+00  7 -2 21 -24 -13 13 23 -1 2 0.26702887D-01 0.18067227D+00 0.10079646D+06 0.10079646D+06 0.10079646D+06 0.11214394D+01  1  2 12  4  7  2        1 0.514313791269D-04 0.100000000000D+01
-.362925400708D-05 0.000000000000D+00 -.817182043313D-06 0.377889553091D-05 0.000000000000D+00  7 -2 21 -24 -13 13 23 -1 2 0.26702887D-01 0.18154460D+00 0.82116082D+05 0.82116082D+05 0.82116082D+05 0.11288126D+01  1  2  5  4  7  2        1 -.806162494313D-04 0.100000000000D+01
  </mgrwgt>
  </event>
  <event>
  8     66 0.26562228E-05 0.27833115E+03 0.75467711E-02 0.95925042E-01
       -4 -1    0    0    0  501 0.00000000E+00 0.00000000E+00 0.47823934E+03 0.47824185E+03 0.15500000E+01 0.0000E+00 0.9000E+01
        3 -1    0    0  501    0 0.00000000E+00 0.00000000E+00 -.24684085E+03 0.24684136E+03 0.50000000E+00 0.0000E+00 0.9000E+01
       25  2    1    2    0    0 -.12482696E+03 0.16699990E+03 -.57714919E+02 0.35967314E+03 0.28733781E+03 0.0000E+00 0.0000E+00
       23  2    3    3    0    0 0.52556673E+02 0.10344908E+03 -.31207686E+02 0.14867185E+03 0.87552744E+02 0.0000E+00 0.0000E+00
      -24  1    1    2    0    0 0.12482696E+03 -.16699990E+03 0.28911340E+03 0.36541006E+03 0.80419002E+02 0.0000E+00 0.9000E+01
      -11  1    4    4    0    0 -.50718440E+01 -.41016455E+00 -.29446163E+02 0.29882576E+02 0.51099893E-03 0.0000E+00 0.9000E+01
       11  1    4    4    0    0 0.57628517E+02 0.10385924E+03 -.17615238E+01 0.11878927E+03 0.51099893E-03 0.0000E+00 0.9000E+01
       23  1    3    3    0    0 -.17738364E+03 0.63550828E+02 -.26507233E+02 0.21100130E+03 0.91188000E+02 0.0000E+00 0.9000E+01
#aMCatNLO 1  0  0  2  1 0.27901057D+03 0.00000000D+00  -5  7  0 0.00000000D+00 0.00000000D+00 0.00000000D+00 0.00000000D+00 0.00000000D+00
  <mgrwgt>
 0.1256555310D-02    5    2    0
 0.343584194688479D+03 0.000000000000000D+00 0.000000000000000D+00 0.343584194688479D+03
 0.343584194688479D+03 0.000000000000000D+00 0.000000000000000D+00 -.343584194688479D+03
 0.288215086346534D+03 0.124826963009563D+03 -.166999903236009D+03 0.182016432412962D+03
 0.414471206174425D+02 -.507184401135412D+01 -.410164552855314D+00 -.411335868949074D+02
 0.125936698920127D+03 0.576285165706992D+02 0.103859240189090D+03 -.418600578129607D+02
 0.231569483492855D+03 -.177383635568908D+03 0.635508275997752D+02 -.990227877050937D+02
 0.000000000000000D+00 -.000000000000000D+00 -.000000000000000D+00 -.000000000000000D+00
 0.406530609705970D+03 0.000000000000000D+00 0.000000000000000D+00 0.406530609705970D+03
 0.915899806282246D+03 0.000000000000000D+00 0.000000000000000D+00 -.915899806282246D+03
 0.260366892394005D+03 0.155130301331771D+03 -.642519310286649D+02 0.182016432412962D+03
 0.439910467174580D+02 -.352291071749730D+00 0.155921811000718D+02 -.411335868949074D+02
 0.182988397062575D+03 0.746933529353148D+02 0.161720104027627D+03 -.418600578129607D+02
 0.254305397767330D+03 -.150544199569036D+03 0.154553924184507D+03 -.990227877050937D+02
 0.580778682046849D+03 -.789271636263002D+02 -.267614278283541D+03 -.509369196576277D+03
0.457267155767D-03 0.000000000000D+00 0.000000000000D+00 0.108568317595D-08 0.000000000000D+00  7 -4 3 -24 -11 11 23 21 0 0.73575515D-01 0.37975748D-01 0.77468230D+05 0.77468230D+05 0.77468230D+05 0.11309359D+01  1  2  2  2  7  2        3 0.155981449142D-02 0.100000000000D+01
-.240335412784D-04 0.000000000000D+00 -.175602627935D-05 0.108568317595D-08 0.000000000000D+00  7 -4 3 -24 -11 11 23 21 2 0.73575515D-01 0.37975748D-01 0.77468230D+05 0.77468230D+05 0.77468230D+05 0.11309359D+01  1  2  3  2  7  2        3 -.104856822766D-03 0.100000000000D+01
0.294904884352D-04 0.000000000000D+00 0.000000000000D+00 0.108568317595D-08 0.000000000000D+00  7 -4 3 -24 -11 11 23 21 2 0.73575515D-01 0.37975748D-01 0.77468230D+05 0.77468230D+05 0.77468230D+05 0.11309359D+01  1  2 15  2  7  2        3 0.128665138579D-03 0.100000000000D+01
-.328824624845D-03 0.000000000000D+00 -.155674882057D-03 0.108568317595D-08 0.000000000000D+00  7 -4 3 -24 -11 11 23 21 2 0.73575515D-01 0.11272917D+00 0.77468230D+05 0.77468230D+05 0.77468230D+05 0.11309359D+01  1  2  5  2  7  2        3 -.139199487481D-03 0.100000000000D+01
-.326885031608D-04 0.000000000000D+00 -.192334438834D-04 0.108568317595D-08 0.000000000000D+00  7 -4 21 -24 -11 11 23 -3 2 0.73575515D-01 0.11272917D+00 0.77468230D+05 0.77468230D+05 0.77468230D+05 0.11309359D+01  1  2  5  4  7  2        3 -.187868010011D-03 0.100000000000D+01
  </mgrwgt>
  </event>
  <event>
  7     66 0.26562228E-05 0.75875749E+03 0.75467711E-02 0.84102354E-01
       -2 -1    0    0    0  501 0.00000000E+00 0.00000000E+00 0.83373213E+03 0.83373220E+03 0.32000000E+00 0.0000E+00 0.9000E+01
        1 -1    0    0  501    0 0.00000000E+00 0.00000000E+00 -.88699701E+03 0.88699707E+03 0.32000000E+00 0.0000E+00 0.9000E+01
       23  2    1    2    0    0 -.23211963E+02 0.42719752E+02 -.68778619E+02 0.12806745E+03 0.96472803E+02 0.0000E+00 0.0000E+00
      -24  1    1    2    0    0 0.71657040E+03 -.14003977E+03 0.34731950E+03 0.81251605E+03 0.80419002E+02 0.0000E+00 0.9000E+01
      -13  1    3    3    0    0 -.10406378E+02 -.14735653E+02 0.16498321E+02 0.24446634E+02 0.10565837E+00 0.0000E+00 0.9000E+01
       13  1    3    3    0    0 -.12805585E+02 0.57455405E+02 -.85276940E+02 0.10362082E+03 0.10565837E+00 0.0000E+00 0.9000E+01
       23  1    1    2    0    0 -.69335844E+03 0.97320014E+02 -.33180576E+03 0.78014577E+03 0.91188000E+02 0.0000E+00 0.9000E+01
#aMCatNLO 1  0  0  2  1 0.10457984D+04 0.00000000D+00  -5  7  0 0.00000000D+00 0.00000000D+00 0.00000000D+00 0.00000000D+00 0.00000000D+00
  <mgrwgt>
 0.2527741647D-02    3    2    0
 0.859952334374613D+03 0.000000000000000D+00 0.000000000000000D+00 0.859952334374613D+03
 0.859952334374613D+03 0.000000000000000D+00 0.000000000000000D+00 -.859952334374613D+03
 0.823662024117336D+03 0.716570446105541D+03 -.140039774868394D+03 0.372649394527366D+03
 0.249692252110016D+02 -.104064219659146D+02 -.147357413280227D+02 0.172634445293705D+02
 0.101029615275983D+03 -.128056838214636D+02 0.574554863197453D+02 -.821088589400640D+02
 0.770243804144907D+03 -.693358340318162D+03 0.973200298766716D+02 -.307803980116672D+03
 0.000000000000000D+00 0.000000000000000D+00 0.000000000000000D+00 0.000000000000000D+00
 0.157828260663941D+04 0.000000000000000D+00 0.000000000000000D+00 0.157828260663941D+04
 0.148460312238049D+04 0.000000000000000D+00 0.000000000000000D+00 -.148460312238049D+04
 0.581667142996689D+03 0.345424076304576D+03 -.271448126821827D+03 0.372649394527366D+03
 0.381782479886890D+02 -.270836218622911D+02 -.206404827774839D+02 0.172634445293705D+02
 0.113920416467509D+03 -.695738245795685D+02 0.373561173713610D+02 -.821088589400640D+02
 0.127913416723762D+04 -.123459751205662D+04 -.943115024725017D+02 -.307803980116672D+03
 0.104998575432940D+04 0.985830882193903D+03 0.349043994700452D+03 0.936794842589191D+02
0.283092014239D-02 0.000000000000D+00 0.000000000000D+00 0.272078911171D-09 0.000000000000D+00  7 -2 1 -24 -13 13 23 21 0 0.12826649D+00 0.13646109D+00 0.57571292D+06 0.57571292D+06 0.57571292D+06 0.10642093D+01  1  2  2  2  7  2        1 0.250054744070D-02 0.100000000000D+01
-.154276188543D-03 0.000000000000D+00 -.108714787452D-04 0.272078911171D-09 0.000000000000D+00  7 -2 1 -24 -13 13 23 21 2 0.12826649D+00 0.13646109D+00 0.57571292D+06 0.57571292D+06 0.57571292D+06 0.10642093D+01  1  2  3  2  7  2        1 -.154333595894D-03 0.100000000000D+01
0.181460279549D-03 0.000000000000D+00 0.000000000000D+00 0.272078911171D-09 0.000000000000D+00  7 -2 1 -24 -13 13 23 21 2 0.12826649D+00 0.13646109D+00 0.57571292D+06 0.57571292D+06 0.57571292D+06 0.10642093D+01  1  2 15  2  7  2        1 0.181527802309D-03 0.100000000000D+01
  </mgrwgt>
  </event>
  <event>
  9     66 0.26562228E-05 0.34554256E+03 0.75467711E-02 0.96741188E-01
       21 -1    0    0  502  501 0.00000000E+00 0.00000000E+00 0.15428360E+03 0.15428542E+03 0.75000000E+00 0.0000E+00 0.9000E+01
        1 -1    0    0  501    0 0.00000000E+00 0.00000000E+00 -.16187836E+04 0.16187836E+04 0.32000000E+00 0.0000E+00 0.9000E+01
       25  2    1    2    0    0 0.35831663E+03 0.81857017E+02 -.10501965E+04 0.11529936E+04 0.30230817E+03 0.0000E+00 0.0000E+00
       23  2    3    3    0    0 0.11499035E+03 0.11001656E+03 -.64631635E+03 0.67191664E+03 0.91764490E+02 0.0000E+00 0.0000E+00
      -24  1    1    2    0    0 -.22314108E+03 -.89190248E+02 -.90445497E+02 0.26906216E+03 0.80419002E+02 0.0000E+00 0.9000E+01
      -13  1    4    4    0    0 0.12146861E+03 0.65242821E+02 -.46252354E+03 0.48263784E+03 0.10565837E+00 0.0000E+00 0.9000E+01
       13  1    4    4    0    0 -.64782589E+01 0.44773742E+02 -.18379281E+03 0.18927880E+03 0.10565837E+00 0.0000E+00 0.9000E+01
       23  1    3    3    0    0 0.24332628E+03 -.28159546E+02 -.40388017E+03 0.48107700E+03 0.91188000E+02 0.0000E+00 0.9000E+01
        2  1    1    2  502    0 -.13517555E+03 0.73332317E+01 -.32385798E+03 0.35101324E+03 0.32000000E+00 0.0000E+00 0.9000E+01
#aMCatNLO 2  0  0  1  2 0.13537432D+03 0.00000000D+00  -5  7  0 0.00000000D+00 0.00000000D+00 0.00000000D+00 0.00000000D+00 0.00000000D+00
  <mgrwgt>
 0.1690301922D-03    1    2    0
 0.419181432912734D+03 0.000000000000000D+00 0.000000000000000D+00 0.419181432912734D+03
 0.419181432912734D+03 0.000000000000000D+00 0.000000000000000D+00 -.419181432912734D+03
 0.368533308808737D+03 -.279019277788769D+03 -.861588741305088D+02 0.209939216865126D+03
 0.170359550795836D+03 0.928480801903983D+02 0.667955113602196D+02 -.126253594857505D+03
 0.724353925004373D+02 -.178948132357182D+02 0.453930497348717D+02 -.535362753814518D+02
 0.227034613720458D+03 0.204066010834089D+03 -.260296869645825D+02 -.301493466261695D+02
 0.000000000000000D+00 -.000000000000000D+00 0.000000000000000D+00 -.000000000000000D+00
 0.465584204101146D+03 0.000000000000000D+00 0.000000000000000D+00 0.465584204101146D+03
 0.536429778370788D+03 0.000000000000000D+00 0.000000000000000D+00 -.536429778370788D+03
 0.329072232342645D+03 -.223141082884911D+03 -.891902488818564D+02 0.209939216865126D+03
 0.186952568846010D+03 0.121468776393447D+03 0.652428474635925D+02 -.126253594857505D+03
 0.700912855685821D+02 -.647842814939083D+01 0.447737143830068D+02 -.535362753814518D+02
 0.263106204668437D+03 0.243326284104091D+03 -.281595446188331D+02 -.301493466261695D+02
 0.152791691046260D+03 -.135175549463236D+03 0.733323165409028D+01 -.708455742696424D+02
0.122211290499D-05 0.000000000000D+00 0.000000000000D+00 0.345684792137D-06 0.239137365577D-11  7 21 1 -24 -13 13 23 2 2 0.23736073D-01 0.24904369D+00 0.17358629D+06 0.17358629D+06 0.17358629D+06 0.11025813D+01  1  2  1  3  7  1       -2 0.169030192159D-03 0.100000000000D+01
  </mgrwgt>
  </event>
  <event>
  8     66 0.26562228E-05 0.18572406E+03 0.75467711E-02 0.90757697E-01
       -2 -1    0    0    0  501 0.00000000E+00 0.00000000E+00 0.42610965E+02 0.42612167E+02 0.32000000E+00 0.0000E+00 0.9000E+01
        1 -1    0    0  501    0 0.00000000E+00 0.00000000E+00 -.10578558E+04 0.10578558E+04 0.32000000E+00 0.0000E+00 0.9000E+01
       25  2    1    2    0    0 -.56956678E+02 0.29982194E+02 -.62035428E+03 0.69236415E+03 0.30064213E+03 0.0000E+00 0.0000E+00
       23  2    3    3    0    0 -.10389774E+02 -.92275750E+02 -.39887270E+03 0.41944508E+03 0.90619972E+02 0.0000E+00 0.0000E+00
      -24  1    1    2    0    0 0.56956678E+02 -.29982194E+02 -.39489054E+03 0.40810385E+03 0.80419002E+02 0.0000E+00 0.9000E+01
      -13  1    4    4    0    0 -.28128820E+02 -.85457214E+02 -.38634684E+03 0.39668383E+03 0.10565837E+00 0.0000E+00 0.9000E+01
       13  1    4    4    0    0 0.17739046E+02 -.68185353E+01 -.12525862E+02 0.22761251E+02 0.10565837E+00 0.0000E+00 0.9000E+01
       23  1    3    3    0    0 -.46566904E+02 0.12225794E+03 -.22148158E+03 0.27291908E+03 0.91188000E+02 0.0000E+00 0.9000E+01
#aMCatNLO 1  0  0  1  2 0.68383818D+03 0.00000000D+00  -5  7  0 0.00000000D+00 0.00000000D+00 0.00000000D+00 0.00000000D+00 0.00000000D+00
  <mgrwgt>
 0.1268418347D-02    5    2    0
 0.212313314980589D+03 0.000000000000000D+00 0.000000000000000D+00 0.212313314980589D+03
 0.212313314980589D+03 0.000000000000000D+00 0.000000000000000D+00 -.212313314980589D+03
 0.113498925477915D+03 0.569567197759142D+02 -.299822156819738D+02 -.476632871866636D+02
 0.104329909689950D+03 -.281288958133494D+02 -.854572894574409D+02 -.528256278223183D+02
 0.290400253133204D+02 0.177390998306207D+02 -.681841996280771D+01 0.219580635896781D+02
 0.177757769479991D+03 -.465669237931855D+02 0.122257925102222D+03 0.785308514193039D+02
 0.000000000000000D+00 -.000000000000000D+00 -.000000000000000D+00 0.000000000000000D+00
 0.100907683445043D+04 0.000000000000000D+00 0.000000000000000D+00 0.100907683445043D+04
 0.595201339330592D+03 0.000000000000000D+00 0.000000000000000D+00 -.595201339330592D+03
 0.207511688592640D+03 0.128242260415971D+03 0.133701229037589D+03 -.476632871866636D+02
 0.535089712993042D+02 0.692175196014641D+01 -.497517883998950D+01 -.528256278223183D+02
 0.563894296823545D+02 0.367100765492086D+02 0.367420944291979D+02 0.219580635896781D+02
 0.487538625209562D+03 0.101172780448811D+03 0.461492831579046D+03 0.785308514193039D+02
 0.799329458997159D+03 -.273046869374137D+03 -.626960976205844D+03 0.413875495119836D+03
0.644341212876D-05 0.000000000000D+00 0.000000000000D+00 0.430811229526D-06 0.000000000000D+00  7 -2 1 -24 -13 13 23 21 0 0.65556292D-02 0.16274714D+00 0.34493427D+05 0.34493427D+05 0.34493427D+05 0.11617534D+01  1  2  2  1  7  1       -2 0.112145067174D-02 0.100000000000D+01
-.350175429388D-06 0.000000000000D+00 -.247443991638D-07 0.430811229526D-06 0.000000000000D+00  7 -2 1 -24 -13 13 23 21 2 0.65556292D-02 0.16274714D+00 0.34493427D+05 0.34493427D+05 0.34493427D+05 0.11617534D+01  1  2  3  1  7  1       -2 -.822579396810D-04 0.100000000000D+01
0.419366184407D-06 0.000000000000D+00 0.000000000000D+00 0.430811229526D-06 0.000000000000D+00  7 -2 1 -24 -13 13 23 21 2 0.65556292D-02 0.16274714D+00 0.34493427D+05 0.34493427D+05 0.34493427D+05 0.11617534D+01  1  2 15  1  7  1       -2 0.985111901240D-04 0.100000000000D+01
0.194160422885D-04 0.000000000000D+00 -.657545050965D-05 0.430811229526D-06 0.000000000000D+00  7 -2 1 -24 -13 13 23 21 2 0.97033426D-01 0.16274714D+00 0.34493427D+05 0.34493427D+05 0.34493427D+05 0.11617534D+01  1  2  5  1  7  1       -2 0.397046547757D-04 0.100000000000D+01
0.446381218797D-05 0.000000000000D+00 -.200039124663D-05 0.430811229526D-06 0.000000000000D+00  7 21 1 -24 -13 13 23 2 2 0.97033426D-01 0.16274714D+00 0.34493427D+05 0.34493427D+05 0.34493427D+05 0.11617534D+01  1  2  5  3  7  1       -2 0.910097696494D-04 0.100000000000D+01
  </mgrwgt>
  </event>
  <event>
  8     66 0.26562228E-05 0.11932742E+03 0.75467711E-02 0.10480569E+00
       -2 -1    0    0    0  501 0.00000000E+00 0.00000000E+00 0.15280869E+03 0.15280902E+03 0.32000000E+00 0.0000E+00 0.9000E+01
        1 -1    0    0  501    0 0.00000000E+00 0.00000000E+00 -.41357649E+03 0.41357661E+03 0.32000000E+00 0.0000E+00 0.9000E+01
       25  2    1    2    0    0 -.79678555E+02 -.12002860E+02 -.31311980E+03 0.44108325E+03 0.30002947E+03 0.0000E+00 0.0000E+00
       23  2    3    3    0    0 -.22512331E+01 -.11194243E+03 -.98727984E+02 0.17601343E+03 0.93259512E+02 0.0000E+00 0.0000E+00
      -24  1    1    2    0    0 0.79678555E+02 0.12002860E+02 0.52351998E+02 0.12530239E+03 0.80419002E+02 0.0000E+00 0.9000E+01
      -13  1    4    4    0    0 -.36743111E+02 -.33262866E+02 -.69310875E+02 0.85208468E+02 0.10565837E+00 0.0000E+00 0.9000E+01
       13  1    4    4    0    0 0.34491878E+02 -.78679564E+02 -.29417109E+02 0.90804961E+02 0.10565837E+00 0.0000E+00 0.9000E+01
       23  1    3    3    0    0 -.77427321E+02 0.99939570E+02 -.21439182E+03 0.26506982E+03 0.91188000E+02 0.0000E+00 0.9000E+01
#aMCatNLO 1  0  0  1  2 0.38653300D+02 0.00000000D+00  -5  7  0 0.00000000D+00 0.00000000D+00 0.00000000D+00 0.00000000D+00 0.00000000D+00
  <mgrwgt>
 0.9715671786D-03    6    2    0
 0.251392543432642D+03 0.000000000000000D+00 0.000000000000000D+00 0.251392543432642D+03
 0.251392543432642D+03 0.000000000000000D+00 0.000000000000000D+00 -.251392543432642D+03
 0.168304890158777D+03 0.796785552350053D+02 0.120028599664489D+02 0.123962007426774D+03
 0.600391475637865D+02 -.367431967329185D+02 -.332628096952004D+02 -.338854279183996D+02
 0.870344183904950D+02 0.344919653790176D+02 -.786796232100138D+02 0.139574782964062D+02
 0.187406630752225D+03 -.774273238811045D+02 0.999395729387652D+02 -.104034057804781D+03
 0.000000000000000D+00 0.000000000000000D+00 -.000000000000000D+00 -.000000000000000D+00
 0.268258398848936D+03 0.000000000000000D+00 0.000000000000000D+00 0.268258398848936D+03
 0.275299709403100D+03 0.000000000000000D+00 0.000000000000000D+00 -.275299709403100D+03
 0.164316896801052D+03 0.692271723122830D+02 0.193350962843966D+02 0.123962007426774D+03
 0.610601106819119D+02 -.405482833784793D+02 -.305933261730856D+02 -.338854279183996D+02
 0.816465731788187D+02 0.291918025400502D+02 -.749612591670675D+02 0.139574782964062D+02
 0.197245118713552D+03 -.895135517927097D+02 0.108418745493796D+03 -.104034057804781D+03
 0.392894088767016D+02 0.316428603188559D+02 -.221992564380395D+02 -.704131055416386D+01
0.708908296159D-05 0.000000000000D+00 0.000000000000D+00 0.702907115830D-06 0.000000000000D+00  7 -2 1 -24 -13 13 23 21 0 0.23509064D-01 0.63627188D-01 0.41044998D+05 0.41044998D+05 0.41044998D+05 0.11549116D+01  1  2  2  1  7  1       -2 0.677202774049D-03 0.100000000000D+01
-.371537367779D-06 0.000000000000D+00 -.272239451709D-07 0.702907115830D-06 0.000000000000D+00  7 -2 1 -24 -13 13 23 21 2 0.23509064D-01 0.63627188D-01 0.41044998D+05 0.41044998D+05 0.41044998D+05 0.11549116D+01  1  2  3  1  7  1       -2 -.473400408975D-04 0.100000000000D+01
0.441673330209D-06 0.000000000000D+00 0.000000000000D+00 0.702907115830D-06 0.000000000000D+00  7 -2 1 -24 -13 13 23 21 2 0.23509064D-01 0.63627188D-01 0.41044998D+05 0.41044998D+05 0.41044998D+05 0.11549116D+01  1  2 15  1  7  1       -2 0.562765291696D-04 0.100000000000D+01
0.710626659178D-05 0.000000000000D+00 0.000000000000D+00 0.702907115830D-06 0.000000000000D+00  7 -2 1 -24 -13 13 23 21 2 0.26119322D-01 0.63627188D-01 0.49579674D+05 0.49579674D+05 0.49579674D+05 0.11476180D+01  1  2 12  1  7  1       -2 0.748766590837D-03 0.100000000000D+01
-.487535560890D-05 0.000000000000D+00 0.000000000000D+00 0.702907115830D-06 0.000000000000D+00  7 -2 1 -24 -13 13 23 21 2 0.23509064D-01 0.63627188D-01 0.41044998D+05 0.41044998D+05 0.41044998D+05 0.11549116D+01  1  2  4  1  7  1       -2 -.621201402418D-03 0.100000000000D+01
0.120657997474D-06 0.000000000000D+00 0.000000000000D+00 0.702907115830D-06 0.000000000000D+00  7 21 1 -24 -13 13 23 2 2 0.26119322D-01 0.63627188D-01 0.49579674D+05 0.49579674D+05 0.49579674D+05 0.11476180D+01  1  2 12  3  7  1       -2 0.157862727879D-03 0.100000000000D+01
  </mgrwgt>
  </event>
  <event>
  7     66 0.26562228E-05 0.27802113E+03 0.75467711E-02 0.90078309E-01
       -2 -1    0    0    0  501 0.00000000E+00 0.00000000E+00 0.26564213E+03 0.26564233E+03 0.32000000E+00 0.0000E+00 0.9000E+01
        1 -1    0    0  501    0 0.00000000E+00 0.00000000E+00 -.39851031E+03 0.39851044E+03 0.32000000E+00 0.0000E+00 0.9000E+01
       23  2    1    2    0    0 -.70777239E+02 -.17225886E+02 0.19993992E+02 0.11855720E+03 0.91377789E+02 0.0000E+00 0.0000E+00
      -24  1    1    2    0    0 0.11192938E+03 0.21855482E+03 0.24076847E+02 0.25950204E+03 0.80419002E+02 0.0000E+00 0.9000E+01
      -11  1    3    3    0    0 -.37318961E+01 -.84214332E+00 0.44989813E+02 0.45152182E+02 0.51099893E-03 0.0000E+00 0.9000E+01
       11  1    3    3    0    0 -.67045343E+02 -.16383743E+02 -.24995821E+02 0.73405014E+02 0.51099893E-03 0.0000E+00 0.9000E+01
       23  1    1    2    0    0 -.41152144E+02 -.20132894E+03 -.17693902E+03 0.28609353E+03 0.91188000E+02 0.0000E+00 0.9000E+01
#aMCatNLO 1  0  0  2  2 0.67436228D+03 0.00000000D+00  -5  7  0 0.00000000D+00 0.00000000D+00 0.00000000D+00 0.00000000D+00 0.00000000D+00
  <mgrwgt>
 0.7658766731D-02    5    2    0
 0.325363235926961D+03 0.000000000000000D+00 0.000000000000000D+00 0.325363235926961D+03
 0.325363235926961D+03 0.000000000000000D+00 0.000000000000000D+00 -.325363235926961D+03
 0.269772402221191D+03 0.111929383427511D+03 0.218554823934932D+03 0.775598807769180D+02
 0.552700133051707D+02 -.373189612648812D+01 -.842143322973804D+00 0.551374474987592D+02
 0.698158073361179D+02 -.670453430756852D+02 -.163837430614878D+02 -.105233972248873D+02
 0.255868248991443D+03 -.411521442253373D+02 -.201328937550470D+03 -.122173931050790D+03
 0.000000000000000D+00 -.000000000000000D+00 -.000000000000000D+00 -.000000000000000D+00
 0.591989245757838D+03 0.000000000000000D+00 0.000000000000000D+00 0.591989245757838D+03
 0.138969867419414D+04 0.000000000000000D+00 0.000000000000000D+00 -.138969867419414D+04
 0.626994200543898D+03 0.156399414008787D+03 0.596806668656517D+03 0.775598807769180D+02
 0.782774612207421D+02 0.289063002235345D+01 0.554875398315715D+02 0.551374474987592D+02
 0.755681151730260D+02 -.598358557240457D+02 0.449384969866833D+02 -.105233972248873D+02
 0.156288512447295D+03 -.207135777923923D+02 -.274831956952559D+02 -.122173931050790D+03
 0.104455963056701D+04 -.787406105147029D+02 -.669749509779516D+03 -.797709428436300D+03
0.195428097917D-03 0.000000000000D+00 0.000000000000D+00 0.236834110694D-08 0.000000000000D+00  7 -2 1 -24 -11 11 23 21 0 0.40868045D-01 0.61309303D-01 0.77295748D+05 0.77295748D+05 0.77295748D+05 0.11310174D+01  1  2  2  2  7  2        1 0.739742748538D-02 0.100000000000D+01
-.105307165115D-04 0.000000000000D+00 -.750495353403D-06 0.236834110694D-08 0.000000000000D+00  7 -2 1 -24 -11 11 23 21 2 0.40868045D-01 0.61309303D-01 0.77295748D+05 0.77295748D+05 0.77295748D+05 0.11310174D+01  1  2  3  2  7  2        1 -.509906076958D-03 0.100000000000D+01
0.126445891485D-04 0.000000000000D+00 0.000000000000D+00 0.236834110694D-08 0.000000000000D+00  7 -2 1 -24 -11 11 23 21 2 0.40868045D-01 0.61309303D-01 0.77295748D+05 0.77295748D+05 0.77295748D+05 0.11310174D+01  1  2 15  2  7  2        1 0.612261553180D-03 0.100000000000D+01
0.903239393720D-04 0.000000000000D+00 -.939469455146D-04 0.236834110694D-08 0.000000000000D+00  7 -2 1 -24 -11 11 23 21 2 0.40868045D-01 0.35536387D+00 0.77295748D+05 0.77295748D+05 0.77295748D+05 0.11310174D+01  1  2  5  2  7  2        1 0.149129601130D-03 0.100000000000D+01
0.140803271143D-04 0.000000000000D+00 -.202264672807D-04 0.236834110694D-08 0.000000000000D+00  7 -2 21 -24 -11 11 23 -1 2 0.40868045D-01 0.35536387D+00 0.77295748D+05 0.77295748D+05 0.77295748D+05 0.11310174D+01  1  2  5  4  7  2        1 0.985416838681D-05 0.100000000000D+01
  </mgrwgt>
  </event>
  <event>
  8     66 0.26562228E-05 0.43064717E+03 0.75467711E-02 0.89581593E-01
       -2 -1    0    0    0  501 0.00000000E+00 0.00000000E+00 0.12096944E+03 0.12096986E+03 0.32000000E+00 0.0000E+00 0.9000E+01
        1 -1    0    0  501    0 0.00000000E+00 0.00000000E+00 -.28480057E+04 0.28480057E+04 0.32000000E+00 0.0000E+00 0.9000E+01
       25  2    1    2    0    0 -.41735058E+03 0.26064188E+03 -.20423499E+04 0.21219937E+04 0.29924628E+03 0.0000E+00 0.0000E+00
       23  2    3    3    0    0 -.21850907E+03 -.78220709E+01 -.81349970E+03 0.84527957E+03 0.70059889E+02 0.0000E+00 0.0000E+00
      -24  1    1    2    0    0 0.41735058E+03 -.26064188E+03 -.68468628E+03 0.84698183E+03 0.80419002E+02 0.0000E+00 0.9000E+01
      -13  1    4    4    0    0 -.22258262E+03 -.12761684E+02 -.78343825E+03 0.81454367E+03 0.10565837E+00 0.0000E+00 0.9000E+01
       13  1    4    4    0    0 0.40735529E+01 0.49396133E+01 -.30061453E+02 0.30735903E+02 0.10565837E+00 0.0000E+00 0.9000E+01
       23  1    3    3    0    0 -.19884152E+03 0.26846395E+03 -.12288502E+04 0.12767141E+04 0.91188000E+02 0.0000E+00 0.9000E+01
#aMCatNLO 1  0  0  2  1 0.44392603D+03 0.00000000D+00  -5  7  0 0.00000000D+00 0.00000000D+00 0.00000000D+00 0.00000000D+00 0.00000000D+00
  <mgrwgt>
 0.4251186405D-02    8    2    0
 0.586960220621637D+03 0.000000000000000D+00 0.000000000000000D+00 0.586960220621637D+03
 0.586960220621637D+03 0.000000000000000D+00 0.000000000000000D+00 -.586960220621637D+03
 0.551574041272969D+03 0.417350582009367D+03 -.260641881128446D+03 0.235904659873629D+03
 0.240132421651622D+03 -.222583134003499D+03 -.127617245386552D+02 -.892046342532272D+02
 0.790075072986593D+01 0.407406838858230D+01 0.493965350646454D+01 -.462856911979328D+01
 0.374313227588816D+03 -.198841516394450D+03 0.268463952160637D+03 -.142071456500608D+03
 0.000000000000000D+00 -.000000000000000D+00 0.000000000000000D+00 -.000000000000000D+00
 0.751362605285244D+03 0.000000000000000D+00 0.000000000000000D+00 0.751362605285244D+03
 0.102537278264765D+04 0.000000000000000D+00 0.000000000000000D+00 -.102537278264765D+04
 0.763753039683887D+03 0.563066284413643D+03 -.451837183594410D+03 0.235904659873629D+03
 0.209545964462118D+03 -.172766474073623D+03 -.781267552524442D+02 -.892046342532272D+02
 0.789498627518681D+01 0.582396538835370D+01 0.264359288543871D+01 -.462856911979328D+01
 0.273859602278487D+03 -.127035073304437D+03 0.174245865989594D+03 -.142071456500608D+03
 0.521681795233211D+03 -.269088702423937D+03 0.353074479971822D+03 -.274010177362403D+03
0.139886089880D-02 0.000000000000D+00 0.000000000000D+00 0.223208536839D-07 0.000000000000D+00  7 -2 1 -24 -13 13 23 21 0 0.18610717D-01 0.43815475D+00 0.28849576D+06 0.28849576D+06 0.28849576D+06 0.10858105D+01  1  2  2  2  7  2        1 0.278826638923D-02 0.100000000000D+01
-.769704229383D-04 0.000000000000D+00 -.537199417991D-05 0.223208536839D-07 0.000000000000D+00  7 -2 1 -24 -13 13 23 21 2 0.18610717D-01 0.43815475D+00 0.28849576D+06 0.28849576D+06 0.28849576D+06 0.10858105D+01  1  2  3  2  7  2        1 -.180880469105D-03 0.100000000000D+01
0.890469799496D-04 0.000000000000D+00 0.000000000000D+00 0.223208536839D-07 0.000000000000D+00  7 -2 1 -24 -13 13 23 21 2 0.18610717D-01 0.43815475D+00 0.28849576D+06 0.28849576D+06 0.28849576D+06 0.10858105D+01  1  2 15  2  7  2        1 0.209260374191D-03 0.100000000000D+01
0.277078739033D-04 0.000000000000D+00 0.000000000000D+00 0.223208536839D-07 0.000000000000D+00  7 -2 1 -24 -13 13 23 21 2 0.18610717D-01 0.78919001D+00 0.64037214D+06 0.64037214D+06 0.64037214D+06 0.10609974D+01  1  2 12  2  7  2        1 0.315283895025D-06 0.100000000000D+01
-.503538366634D-03 0.000000000000D+00 -.296280442651D-03 0.223208536839D-07 0.000000000000D+00  7 -2 1 -24 -13 13 23 21 2 0.18610717D-01 0.78669764D+00 0.28849576D+06 0.28849576D+06 0.28849576D+06 0.10858105D+01  1  2  5  2  7  2        1 -.693698483477D-05 0.100000000000D+01
0.613263409722D-03 0.000000000000D+00 0.251892734108D-03 0.223208536839D-07 0.000000000000D+00  7 -2 1 -24 -13 13 23 21 2 0.18610717D-01 0.43815475D+00 0.28849576D+06 0.28849576D+06 0.28849576D+06 0.10858105D+01  1  2  6  2  7  2        1 0.144116881526D-02 0.100000000000D+01
0.178791113395D-05 0.000000000000D+00 0.000000000000D+00 0.223208536839D-07 0.000000000000D+00  7 -2 21 -24 -13 13 23 -1 2 0.18610717D-01 0.78919001D+00 0.64037214D+06 0.64037214D+06 0.64037214D+06 0.10609974D+01  1  2 12  4  7  2        1 0.658743154040D-09 0.100000000000D+01
-.166496988812D-04 0.000000000000D+00 -.190289334515D-04 0.223208536839D-07 0.000000000000D+00  7 -2 21 -24 -13 13 23 -1 2 0.18610717D-01 0.78669764D+00 0.28849576D+06 0.28849576D+06 0.28849576D+06 0.10858105D+01  1  2  5  4  7  2        1 -.766198047663D-08 0.100000000000D+01
  </mgrwgt>
  </event>
  <event>
  8     66 0.26562228E-05 0.20822629E+03 0.75467711E-02 0.99666385E-01
       -2 -1    0    0    0  501 0.00000000E+00 0.00000000E+00 0.49092580E+02 0.49093623E+02 0.32000000E+00 0.0000E+00 0.9000E+01
        1 -1    0    0  501    0 0.00000000E+00 0.00000000E+00 -.12160938E+04 0.12160938E+04 0.32000000E+00 0.0000E+00 0.9000E+01
       25  2    1    2    0    0 0.57967257E+02 0.68748816E+02 -.10562136E+04 0.11013958E+04 0.29899648E+03 0.0000E+00 0.0000E+00
       23  2    3    3    0    0 0.26053358E+01 0.15089870E+03 -.54827936E+03 0.57591886E+03 0.91077296E+02 0.0000E+00 0.0000E+00
      -24  1    1    2    0    0 -.57967257E+02 -.68748816E+02 -.11078761E+03 0.16379168E+03 0.80419002E+02 0.0000E+00 0.9000E+01
      -13  1    4    4    0    0 0.12017179E+02 0.15127400E+03 -.40772727E+03 0.43505146E+03 0.10565837E+00 0.0000E+00 0.9000E+01
       13  1    4    4    0    0 -.94118434E+01 -.37529950E+00 -.14055209E+03 0.14086740E+03 0.10565837E+00 0.0000E+00 0.9000E+01
       23  1    3    3    0    0 0.55361921E+02 -.82149889E+02 -.50793426E+03 0.52547693E+03 0.91188000E+02 0.0000E+00 0.9000E+01
#aMCatNLO 1  0  0  2  1 0.19398067D+03 0.00000000D+00  -5  7  0 0.00000000D+00 0.00000000D+00 0.00000000D+00 0.00000000D+00 0.00000000D+00
  <mgrwgt>
 0.1514994347D-02    3    2    0
 0.244339659158799D+03 0.000000000000000D+00 0.000000000000000D+00 0.244339659158799D+03
 0.244339659158799D+03 0.000000000000000D+00 0.000000000000000D+00 -.244339659158799D+03
 0.159486799227103D+03 -.579672582416925D+02 -.687488167788793D+02 0.104317881193882D+03
 0.152663542895308D+03 0.120172084047114D+02 0.151274206565382D+03 -.166690869431828D+02
 0.290561270555339D+02 -.941187178945395D+01 -.375503086033163D+00 -.274869821246092D+02
 0.147472849139652D+03 0.553619216264350D+02 -.821498867004700D+02 -.601618121260901D+02
 0.000000000000000D+00 0.000000000000000D+00 -.000000000000000D+00 0.000000000000000D+00
 0.518867690043522D+03 0.000000000000000D+00 0.000000000000000D+00 0.518867690043522D+03
 0.299635093292722D+03 0.000000000000000D+00 0.000000000000000D+00 -.299635093292722D+03
 0.178302690755562D+03 -.114294436537224D+03 -.371375149432554D+02 0.104317881193882D+03
 0.189479226342671D+03 -.450358892697710D+02 0.183292900663334D+03 -.166690869431828D+02
 0.344466700274515D+02 -.200011099973741D+02 0.556726939661466D+01 -.274869821246092D+02
 0.123543205301352D+03 0.101693680622807D+02 -.567874330028309D+02 -.601618121260901D+02
 0.292730990909207D+03 0.169162067742089D+03 -.949352221138622D+02 0.219232596750800D+03
0.137026147588D-04 0.000000000000D+00 0.000000000000D+00 0.595190210113D-06 0.000000000000D+00  7 -2 1 -24 -13 13 23 21 0 0.75527881D-02 0.18709144D+00 0.43358186D+05 0.43358186D+05 0.43358186D+05 0.11527801D+01  1  2  2  2  7  2        1 0.149576578976D-02 0.100000000000D+01
-.737581182887D-06 0.000000000000D+00 -.526216486551D-07 0.595190210113D-06 0.000000000000D+00  7 -2 1 -24 -13 13 23 21 2 0.75527881D-02 0.18709144D+00 0.43358186D+05 0.43358186D+05 0.43358186D+05 0.11527801D+01  1  2  3  2  7  2        1 -.106994863225D-03 0.100000000000D+01
0.870135418733D-06 0.000000000000D+00 0.000000000000D+00 0.595190210113D-06 0.000000000000D+00  7 -2 1 -24 -13 13 23 21 2 0.75527881D-02 0.18709144D+00 0.43358186D+05 0.43358186D+05 0.43358186D+05 0.11527801D+01  1  2 15  2  7  2        1 0.126223420926D-03 0.100000000000D+01
  </mgrwgt>
  </event>
  <event>
  9     66 0.26562228E-05 0.22621760E+03 0.75467711E-02 0.10153258E+00
       -2 -1    0    0    0  502 0.00000000E+00 0.00000000E+00 0.14184689E+04 0.14184690E+04 0.32000000E+00 0.0000E+00 0.9000E+01
        1 -1    0    0  501    0 0.00000000E+00 0.00000000E+00 -.83211642E+02 0.83212258E+02 0.32000000E+00 0.0000E+00 0.9000E+01
       25  2    1    2    0    0 0.18607721E+03 0.13320229E+02 0.10804704E+04 0.11367605E+04 0.30001023E+03 0.0000E+00 0.0000E+00
       23  2    3    3    0    0 0.54692921E+02 -.73252653E+02 0.19822431E+03 0.23596641E+03 0.89610283E+02 0.0000E+00 0.0000E+00
      -24  1    1    2    0    0 -.10619050E+03 -.79176401E+02 0.17811073E+03 0.23608468E+03 0.80419002E+02 0.0000E+00 0.9000E+01
      -13  1    4    4    0    0 0.77923186E+02 -.43652388E+02 0.12488466E+03 0.15353744E+03 0.10565837E+00 0.0000E+00 0.9000E+01
       13  1    4    4    0    0 -.23230264E+02 -.29600265E+02 0.73339649E+02 0.82428977E+02 0.10565837E+00 0.0000E+00 0.9000E+01
       23  1    3    3    0    0 0.13138429E+03 0.86572882E+02 0.88224604E+03 0.90079411E+03 0.91188000E+02 0.0000E+00 0.9000E+01
       21  1    1    2  501  502 -.79886705E+02 0.65856172E+02 0.76676211E+02 0.12883604E+03 0.75000000E+00 0.0000E+00 0.9000E+01
#aMCatNLO 2  0  0  1  1 0.10353222D+03 0.00000000D+00  -5  7  0 0.00000000D+00 0.00000000D+00 0.00000000D+00 0.00000000D+00 0.00000000D+00
  <mgrwgt>
 0.6067288972D-04    1    2    0
 0.269239047742358D+03 0.000000000000000D+00 0.000000000000000D+00 0.269239047742358D+03
 0.269239047742358D+03 0.000000000000000D+00 0.000000000000000D+00 -.269239047742358D+03
 0.191669578722797D+03 -.133676271609821D+03 -.565179697115280D+02 -.959499086064591D+02
 0.826512403635852D+02 0.646621953860808D+02 -.327203344616268D+02 -.397417630989206D+02
 0.385618748406905D+02 -.288609508800502D+02 -.249585938245310D+02 -.557963258920276D+01
 0.225595401557643D+03 0.978750271037907D+02 0.114196897997686D+03 0.141271304294582D+03
 0.000000000000000D+00 -.000000000000000D+00 0.000000000000000D+00 -.000000000000000D+00
 0.295581946287420D+03 0.000000000000000D+00 0.000000000000000D+00 0.295581946287420D+03
 0.399323748769262D+03 0.000000000000000D+00 0.000000000000000D+00 -.399323748769262D+03
 0.182260600816946D+03 -.106190504394717D+03 -.791764009701833D+02 -.959499086064591D+02
 0.977598335240388D+02 0.779233255414637D+02 -.436524071844396D+02 -.397417630989206D+02
 0.380389078048096D+02 -.232304043355575D+02 -.296002452955853D+02 -.557963258920276D+01
 0.230281409828265D+03 0.131384287928739D+03 0.865728816481184D+02 0.141271304294582D+03
 0.146564943082623D+03 -.798867047399289D+02 0.658561718020898D+02 -.103741802481842D+03
0.904769374816D-05 0.000000000000D+00 0.000000000000D+00 0.863866999356D-06 0.600844138147D-09  7 -2 1 -24 -13 13 23 21 2 0.21822537D+00 0.12801802D-01 0.80455541D+05 0.80455541D+05 0.80455541D+05 0.11295557D+01  1  2  1  1  7  1       -2 0.606728897223D-04 0.100000000000D+01
  </mgrwgt>
  </event>
  <event>
  8     66 0.26562228E-05 0.53967237E+02 0.75467711E-02 0.10093747E+00
       -2 -1    0    0    0  501 0.00000000E+00 0.00000000E+00 0.74933019E+03 0.74933026E+03 0.32000000E+00 0.0000E+00 0.9000E+01
        1 -1    0    0  501    0 0.00000000E+00 0.00000000E+00 -.10249686E+03 0.10249736E+03 0.32000000E+00 0.0000E+00 0.9000E+01
       25  2    1    2    0    0 0.30783487E+01 0.18089406E+03 0.36799500E+03 0.50984784E+03 0.30297255E+03 0.0000E+00 0.0000E+00
       23  2    3    3    0    0 -.54598000E+02 -.21194442E+02 0.19538891E+03 0.22301264E+03 0.90153549E+02 0.0000E+00 0.0000E+00
      -24  1    1    2    0    0 -.30783487E+01 -.18089406E+03 0.27883833E+03 0.34197978E+03 0.80419002E+02 0.0000E+00 0.9000E+01
      -13  1    4    4    0    0 0.22422760E+02 0.98076534E+01 0.43421638E+02 0.49843957E+02 0.10565837E+00 0.0000E+00 0.9000E+01
       13  1    4    4    0    0 -.77020760E+02 -.31002095E+02 0.15196728E+03 0.17316868E+03 0.10565837E+00 0.0000E+00 0.9000E+01
       23  1    3    3    0    0 0.57676349E+02 0.20208850E+03 0.17260608E+03 0.28683521E+03 0.91188000E+02 0.0000E+00 0.9000E+01
#aMCatNLO 1  0  0  1  2 0.56177485D+02 0.00000000D+00  -5  7  0 0.00000000D+00 0.00000000D+00 0.00000000D+00 0.00000000D+00 0.00000000D+00
  <mgrwgt>
 0.1287083222D-02    9    2    0
 0.277135770734532D+03 0.000000000000000D+00 0.000000000000000D+00 0.277135770734532D+03
 0.277135770734532D+03 0.000000000000000D+00 0.000000000000000D+00 -.277135770734532D+03
 0.200165269315785D+03 -.307834925671149D+01 -.180894095471857D+03 0.294409421581997D+02
 0.259292611216509D+02 0.224228987130365D+02 0.980772084921305D+01 0.856439182683597D+01
 0.887875260239277D+02 -.770208825242397D+02 -.310021255724842D+02 0.314623051066642D+02
 0.239389485007701D+03 0.576763330679147D+02 0.202088500195128D+03 -.694676390916999D+02
 0.000000000000000D+00 -.000000000000000D+00 -.000000000000000D+00 0.000000000000000D+00
 0.307575824504777D+03 0.000000000000000D+00 0.000000000000000D+00 0.307575824504777D+03
 0.305742726360325D+03 0.000000000000000D+00 0.000000000000000D+00 -.305742726360325D+03
 0.188220301344538D+03 0.110331763409418D+02 -.167245824547357D+03 0.294409421581997D+02
 0.283867660027358D+02 0.243964066521329D+02 0.117164422583936D+02 0.856439182683597D+01
 0.814466637863837D+02 -.708356266636275D+02 -.250199199534809D+02 0.314623051066642D+02
 0.259057435082527D+03 0.757868062761905D+02 0.219604440849948D+03 -.694676390916999D+02
 0.562073846489177D+02 -.403807626056377D+02 -.390551386075037D+02 0.183309814445132D+01
0.281424674740D-04 0.000000000000D+00 0.000000000000D+00 0.552750636441D-07 0.000000000000D+00  7 -2 1 -24 -13 13 23 21 0 0.11528161D+00 0.15768792D-01 0.71443163D+05 0.71443163D+05 0.71443163D+05 0.11339070D+01  1  2  2  1  7  1       -2 0.677638594495D-03 0.100000000000D+01
-.156098225037D-05 0.000000000000D+00 -.108074485182D-06 0.552750636441D-07 0.000000000000D+00  7 -2 1 -24 -13 13 23 21 2 0.11528161D+00 0.15768792D-01 0.71443163D+05 0.71443163D+05 0.71443163D+05 0.11339070D+01  1  2  3  1  7  1       -2 -.483268825248D-04 0.100000000000D+01
0.181407965947D-05 0.000000000000D+00 0.000000000000D+00 0.552750636441D-07 0.000000000000D+00  7 -2 1 -24 -13 13 23 21 2 0.11528161D+00 0.15768792D-01 0.71443163D+05 0.71443163D+05 0.71443163D+05 0.11339070D+01  1  2 15  1  7  1       -2 0.561625954258D-04 0.100000000000D+01
0.247071294507D-04 0.000000000000D+00 0.000000000000D+00 0.552750636441D-07 0.000000000000D+00  7 -2 1 -24 -13 13 23 21 2 0.13328526D+00 0.15768792D-01 0.88161207D+05 0.88161207D+05 0.88161207D+05 0.11262405D+01  1  2 12  1  7  1       -2 0.519447663288D-03 0.100000000000D+01
-.203890129001D-04 0.000000000000D+00 0.000000000000D+00 0.552750636441D-07 0.000000000000D+00  7 -2 1 -24 -13 13 23 21 2 0.11528161D+00 0.15768792D-01 0.71443163D+05 0.71443163D+05 0.71443163D+05 0.11339070D+01  1  2  4  1  7  1       -2 -.631229106538D-03 0.100000000000D+01
-.729307143016D-04 0.000000000000D+00 -.198203238240D-04 0.552750636441D-07 0.000000000000D+00  7 -2 1 -24 -13 13 23 21 2 0.13797265D+00 0.15768792D-01 0.71443163D+05 0.71443163D+05 0.71443163D+05 0.11339070D+01  1  2  5  1  7  1       -2 -.142344031214D-02 0.100000000000D+01
0.755843048813D-04 0.000000000000D+00 0.195046318686D-04 0.552750636441D-07 0.000000000000D+00  7 -2 1 -24 -13 13 23 21 2 0.11528161D+00 0.15768792D-01 0.71443163D+05 0.71443163D+05 0.71443163D+05 0.11339070D+01  1  2  6  1  7  1       -2 0.234003546284D-02 0.100000000000D+01
0.548640963008D-06 0.000000000000D+00 0.000000000000D+00 0.552750636441D-07 0.000000000000D+00  7 21 1 -24 -13 13 23 2 2 0.13328526D+00 0.15768792D-01 0.88161207D+05 0.88161207D+05 0.88161207D+05 0.11262405D+01  1  2 12  3  7  1       -2 0.105138274745D-03 0.100000000000D+01
-.173125338912D-05 0.000000000000D+00 -.522005874467D-06 0.552750636441D-07 0.000000000000D+00  7 21 1 -24 -13 13 23 2 2 0.13797265D+00 0.15768792D-01 0.71443163D+05 0.71443163D+05 0.71443163D+05 0.11339070D+01  1  2  5  3  7  1       -2 -.308343068050D-03 0.100000000000D+01
  </mgrwgt>
  </event>
  <event>
  8     66 0.26562228E-05 0.26144329E+03 0.75467711E-02 0.98863753E-01
       -2 -1    0    0    0  501 0.00000000E+00 0.00000000E+00 0.13289034E+03 0.13289072E+03 0.32000000E+00 0.0000E+00 0.9000E+01
        1 -1    0    0  501    0 0.00000000E+00 0.00000000E+00 -.11458968E+04 0.11458969E+04 0.32000000E+00 0.0000E+00 0.9000E+01
       25  2    1    2    0    0 0.13171664E+03 -.10283010E+03 -.10359067E+04 0.10919322E+04 0.30214204E+03 0.0000E+00 0.0000E+00
       23  2    3    3    0    0 -.36861273E+02 -.10510590E+03 -.34183075E+03 0.37187633E+03 0.95067044E+02 0.0000E+00 0.0000E+00
      -24  1    1    2    0    0 -.13171664E+03 0.10283010E+03 0.22900265E+02 0.18685540E+03 0.80419002E+02 0.0000E+00 0.9000E+01
      -13  1    4    4    0    0 -.35241520E+02 -.12292288E+03 -.28695703E+03 0.31415975E+03 0.10565837E+00 0.0000E+00 0.9000E+01
       13  1    4    4    0    0 -.16197538E+01 0.17816976E+02 -.54873712E+02 0.57716581E+02 0.10565837E+00 0.0000E+00 0.9000E+01
       23  1    3    3    0    0 0.16857791E+03 0.22758042E+01 -.69407599E+03 0.72005584E+03 0.91188000E+02 0.0000E+00 0.9000E+01
#aMCatNLO 1  0  0  2  2 0.15634607D+03 0.00000000D+00  -5  7  0 0.00000000D+00 0.00000000D+00 0.00000000D+00 0.00000000D+00 0.00000000D+00
  <mgrwgt>
 0.1477364630D-02    3    2    0
 0.390229276598679D+03 0.000000000000000D+00 0.000000000000000D+00 0.390229276598679D+03
 0.390229276598679D+03 0.000000000000000D+00 0.000000000000000D+00 -.390229276598679D+03
 0.335887764577280D+03 -.131716638551977D+03 0.102830098133494D+03 0.280053695717045D+03
 0.142293740228154D+03 -.352415607575091D+02 -.122923048828259D+03 -.624136601254713D+02
 0.233448719842138D+02 -.161971249089146D+01 0.178171481682189D+02 -.149969600438861D+02
 0.278932176407710D+03 0.168577911800378D+03 0.227580252654612D+01 -.202643075547688D+03
 0.000000000000000D+00 0.000000000000000D+00 0.000000000000000D+00 0.000000000000000D+00
 0.233469884925023D+04 0.000000000000000D+00 0.000000000000000D+00 0.233469884925023D+04
 0.401137653509017D+03 0.000000000000000D+00 0.000000000000000D+00 -.401137653509017D+03
 0.362994218951969D+03 -.198851706013451D+03 0.855892140923382D+02 0.280053695717045D+03
 0.158083811285185D+03 -.640960278349487D+02 -.130333133300684D+03 -.624136601254713D+02
 0.232351539534119D+02 -.609422071599700D+01 0.166680545519130D+02 -.149969600438861D+02
 0.251651417681685D+03 0.117609699394525D+03 -.108132889587431D+02 -.202643075547688D+03
 0.193987190088699D+04 0.151432255169872D+03 0.388891536151754D+02 0.193356119574121D+04
0.564641829064D-04 0.000000000000D+00 0.000000000000D+00 0.687709833008D-07 0.000000000000D+00  7 -2 1 -24 -13 13 23 21 0 0.20444700D-01 0.17629185D+00 0.68352596D+05 0.68352596D+05 0.68352596D+05 0.11355399D+01  1  2  2  2  7  2        1 0.144559736445D-02 0.100000000000D+01
-.252507851722D-05 0.000000000000D+00 -.216837329721D-06 0.687709833008D-07 0.000000000000D+00  7 -2 1 -24 -13 13 23 21 2 0.20444700D-01 0.17629185D+00 0.68352596D+05 0.68352596D+05 0.68352596D+05 0.11355399D+01  1  2  3  2  7  2        1 -.833592902378D-04 0.100000000000D+01
0.348735686044D-05 0.000000000000D+00 0.000000000000D+00 0.687709833008D-07 0.000000000000D+00  7 -2 1 -24 -13 13 23 21 2 0.20444700D-01 0.17629185D+00 0.68352596D+05 0.68352596D+05 0.68352596D+05 0.11355399D+01  1  2 15  2  7  2        1 0.115126555752D-03 0.100000000000D+01
  </mgrwgt>
  </event>
  <event>
  8     66 0.26562228E-05 0.88542308E+02 0.75467711E-02 0.10025292E+00
       -2 -1    0    0    0  501 0.00000000E+00 0.00000000E+00 0.42806329E+03 0.42806341E+03 0.32000000E+00 0.0000E+00 0.9000E+01
        1 -1    0    0  501    0 0.00000000E+00 0.00000000E+00 -.15410887E+03 0.15410920E+03 0.32000000E+00 0.0000E+00 0.9000E+01
       25  2    1    2    0    0 0.10206365E+02 -.15384289E+03 0.20544365E+03 0.39526958E+03 0.30043160E+03 0.0000E+00 0.0000E+00
       23  2    3    3    0    0 -.75856263E+02 -.16750570E+03 0.91092655E+02 0.22502020E+03 0.92324899E+02 0.0000E+00 0.0000E+00
      -24  1    1    2    0    0 -.10206365E+02 0.15384289E+03 0.68510769E+02 0.18690304E+03 0.80419002E+02 0.0000E+00 0.9000E+01
      -11  1    4    4    0    0 -.32420032E+02 -.11696228E+03 0.10067457E+03 0.15769148E+03 0.51099893E-03 0.0000E+00 0.9000E+01
       11  1    4    4    0    0 -.43436231E+02 -.50543424E+02 -.95819183E+01 0.67328723E+02 0.51099893E-03 0.0000E+00 0.9000E+01
       23  1    3    3    0    0 0.86062627E+02 0.13662817E+02 0.11435100E+03 0.17024938E+03 0.91188000E+02 0.0000E+00 0.9000E+01
#aMCatNLO 1  0  0  1  2 0.12307213D+03 0.00000000D+00  -5  7  0 0.00000000D+00 0.00000000D+00 0.00000000D+00 0.00000000D+00 0.00000000D+00
  <mgrwgt>
 0.8338231618D-03    9    2    0
 0.256843303534692D+03 0.000000000000000D+00 0.000000000000000D+00 0.256843303534692D+03
 0.256843303534692D+03 0.000000000000000D+00 0.000000000000000D+00 -.256843303534692D+03
 0.175283918579588D+03 -.102063647566467D+02 0.153842885980878D+03 -.220325375246243D+02
 0.125024511294157D+03 -.324200321826275D+02 -.116962278918765D+03 0.299982540783483D+02
 0.814152974089286D+02 -.434362305265867D+02 -.505434237931551D+02 -.467665141002730D+02
 0.131962879786711D+03 0.860626274658609D+02 0.136628167310422D+02 0.388007975465490D+02
 0.000000000000000D+00 0.000000000000000D+00 -.000000000000000D+00 0.000000000000000D+00
 0.351768298183454D+03 0.000000000000000D+00 0.000000000000000D+00 0.351768298183454D+03
 0.307311319940144D+03 0.000000000000000D+00 0.000000000000000D+00 -.307311319940144D+03
 0.198564958185716D+03 -.499179410622433D+02 0.173157711682896D+03 -.220325375246243D+02
 0.123291066645685D+03 -.587970086404620D+02 -.104133105407526D+03 0.299982540783483D+02
 0.877813229868979D+02 -.614089059018187D+02 -.418019150300633D+02 -.467665141002730D+02
 0.118586732586584D+03 0.594483438114900D+02 0.266074111740435D+02 0.388007975465490D+02
 0.130855537718715D+03 0.110675511793034D+03 -.538301024193505D+02 0.444569782433100D+02
0.128793312614D-04 0.000000000000D+00 0.000000000000D+00 0.540643705064D-06 0.000000000000D+00  7 -2 1 -24 -11 11 23 21 0 0.65855926D-01 0.23709092D-01 0.59545540D+05 0.59545540D+05 0.59545540D+05 0.11406803D+01  1  2  2  1  7  1       -2 0.655985815754D-03 0.100000000000D+01
-.713236249144D-06 0.000000000000D+00 -.494600232495D-07 0.540643705064D-06 0.000000000000D+00  7 -2 1 -24 -11 11 23 21 2 0.65855926D-01 0.23709092D-01 0.59545540D+05 0.59545540D+05 0.59545540D+05 0.11406803D+01  1  2  3  1  7  1       -2 -.472674773991D-04 0.100000000000D+01
0.826639679167D-06 0.000000000000D+00 0.000000000000D+00 0.540643705064D-06 0.000000000000D+00  7 -2 1 -24 -11 11 23 21 2 0.65855926D-01 0.23709092D-01 0.59545540D+05 0.59545540D+05 0.59545540D+05 0.11406803D+01  1  2 15  1  7  1       -2 0.547829311804D-04 0.100000000000D+01
0.413455000897D-05 0.000000000000D+00 0.000000000000D+00 0.540643705064D-06 0.000000000000D+00  7 -2 1 -24 -11 11 23 21 2 0.94735694D-01 0.23709092D-01 0.98076255D+05 0.98076255D+05 0.98076255D+05 0.11224150D+01  1  2 12  1  7  1       -2 0.118058951128D-03 0.100000000000D+01
-.643469538359D-05 0.000000000000D+00 0.000000000000D+00 0.540643705064D-06 0.000000000000D+00  7 -2 1 -24 -11 11 23 21 2 0.65855926D-01 0.23709092D-01 0.59545540D+05 0.59545540D+05 0.59545540D+05 0.11406803D+01  1  2  4  1  7  1       -2 -.426439092206D-03 0.100000000000D+01
-.954867561399D-05 0.000000000000D+00 -.467393068011D-05 0.540643705064D-06 0.000000000000D+00  7 -2 1 -24 -11 11 23 21 2 0.10401911D+00 0.23709092D-01 0.59545540D+05 0.59545540D+05 0.59545540D+05 0.11406803D+01  1  2  5  1  7  1       -2 -.226985839822D-03 0.100000000000D+01
0.109682923689D-04 0.000000000000D+00 0.422481435265D-05 0.540643705064D-06 0.000000000000D+00  7 -2 1 -24 -11 11 23 21 2 0.65855926D-01 0.23709092D-01 0.59545540D+05 0.59545540D+05 0.59545540D+05 0.11406803D+01  1  2  6  1  7  1       -2 0.726888898700D-03 0.100000000000D+01
0.183602772532D-06 0.000000000000D+00 0.000000000000D+00 0.540643705064D-06 0.000000000000D+00  7 21 1 -24 -11 11 23 2 2 0.94735694D-01 0.23709092D-01 0.98076255D+05 0.98076255D+05 0.98076255D+05 0.11224150D+01  1  2 12  3  7  1       -2 0.505654623724D-04 0.100000000000D+01
-.312506799694D-06 0.000000000000D+00 -.245792292386D-06 0.540643705064D-06 0.000000000000D+00  7 21 1 -24 -11 11 23 2 2 0.10401911D+00 0.23709092D-01 0.59545540D+05 0.59545540D+05 0.59545540D+05 0.11406803D+01  1  2  5  3  7  1       -2 -.717664879005D-04 0.100000000000D+01
  </mgrwgt>
  </event>
  <event>
  8     66 0.26562228E-05 0.19336787E+03 0.75467711E-02 0.93446462E-01
       -2 -1    0    0    0  501 0.00000000E+00 0.00000000E+00 0.74043929E+03 0.74043936E+03 0.32000000E+00 0.0000E+00 0.9000E+01
        1 -1    0    0  501    0 0.00000000E+00 0.00000000E+00 -.45667061E+03 0.45667073E+03 0.32000000E+00 0.0000E+00 0.9000E+01
       25  2    1    2    0    0 -.32166755E+03 0.50981247E+02 -.29228778E+03 0.53049373E+03 0.29987056E+03 0.0000E+00 0.0000E+00
       23  2    3    3    0    0 -.11945772E+03 0.18694014E+02 0.12244707E+02 0.15235808E+03 0.91888191E+02 0.0000E+00 0.0000E+00
      -24  1    1    2    0    0 0.32166755E+03 -.50981247E+02 0.57605646E+03 0.66661635E+03 0.80419002E+02 0.0000E+00 0.9000E+01
      -11  1    4    4    0    0 -.65797579E+02 -.32227053E+02 -.12559978E+02 0.74334765E+02 0.51099893E-03 0.0000E+00 0.9000E+01
       11  1    4    4    0    0 -.53660142E+02 0.50921067E+02 0.24804685E+02 0.78023319E+02 0.51099893E-03 0.0000E+00 0.9000E+01
       23  1    3    3    0    0 -.20220983E+03 0.32287233E+02 -.30453249E+03 0.37813565E+03 0.91188000E+02 0.0000E+00 0.9000E+01
#aMCatNLO 1  0  0  1  2 0.34590099D+03 0.00000000D+00  -5  7  0 0.00000000D+00 0.00000000D+00 0.00000000D+00 0.00000000D+00 0.00000000D+00
  <mgrwgt>
 0.8993873077D-03    7    2    0
 0.581495461848395D+03 0.000000000000000D+00 0.000000000000000D+00 0.581495461848395D+03
 0.581495461848395D+03 0.000000000000000D+00 0.000000000000000D+00 -.581495461848395D+03
 0.545615931166846D+03 0.321667547930906D+03 -.509812470731755D+02 0.430302718378209D+03
 0.795801786307702D+02 -.657975790072800D+02 -.322270525292024D+02 -.310660669053241D+02
 0.742600025105265D+02 -.536601419325339D+02 0.509210667346318D+02 0.649477507315625D+01
 0.463534811388648D+03 -.202209826991092D+03 0.322872328677461D+02 -.405731426546041D+03
 0.000000000000000D+00 -.000000000000000D+00 -.000000000000000D+00 0.000000000000000D+00
 0.114941520775453D+04 0.000000000000000D+00 0.000000000000000D+00 0.114941520775453D+04
 0.661782506130010D+03 0.000000000000000D+00 0.000000000000000D+00 -.661782506130010D+03
 0.643021215680420D+03 0.469381690763794D+03 0.391083979830537D+02 0.430302718378209D+03
 0.613270125760272D+02 -.482867810120223D+02 -.215473603494982D+02 -.310660669053241D+02
 0.717353158703743D+02 -.355170329362774D+02 0.619864002114566D+02 0.649477507315625D+01
 0.437257043152722D+03 -.902667525067109D+02 0.100560396516065D+03 -.405731426546041D+03
 0.597857126605000D+03 -.295311124308783D+03 -.180107834361077D+03 0.487632701624524D+03
0.284593259975D-03 0.000000000000D+00 0.000000000000D+00 0.165147783481D-04 0.000000000000D+00  7 -2 1 -24 -11 11 23 21 0 0.11391375D+00 0.70257031D-01 0.12491387D+06 0.12491387D+06 0.12491387D+06 0.11138792D+01  1  2  2  1  7  1       -2 0.983232929391D-03 0.100000000000D+01
-.110448792403D-04 0.000000000000D+00 -.109291305343D-05 0.165147783481D-04 0.000000000000D+00  7 -2 1 -24 -11 11 23 21 2 0.11391375D+00 0.70257031D-01 0.12491387D+06 0.12491387D+06 0.12491387D+06 0.11138792D+01  1  2  3  1  7  1       -2 -.473444376527D-04 0.100000000000D+01
0.175381565145D-04 0.000000000000D+00 0.000000000000D+00 0.165147783481D-04 0.000000000000D+00  7 -2 1 -24 -11 11 23 21 2 0.11391375D+00 0.70257031D-01 0.12491387D+06 0.12491387D+06 0.12491387D+06 0.11138792D+01  1  2 15  1  7  1       -2 0.751782015519D-04 0.100000000000D+01
0.155409099971D-06 0.000000000000D+00 0.000000000000D+00 0.165147783481D-04 0.000000000000D+00  7 -2 1 -24 -11 11 23 21 2 0.22601360D+00 0.70257031D-01 0.30861508D+06 0.30861508D+06 0.30861508D+06 0.10836433D+01  1  2 12  1  7  1       -2 0.851127261079D-07 0.100000000000D+01
-.159139156876D-03 0.000000000000D+00 -.799993164979D-04 0.165147783481D-04 0.000000000000D+00  7 -2 1 -24 -11 11 23 21 2 0.23809932D+00 0.70257031D-01 0.12491387D+06 0.12491387D+06 0.12491387D+06 0.11138792D+01  1  2  5  1  7  1       -2 -.810478278935D-04 0.100000000000D+01
0.115257342757D-07 0.000000000000D+00 0.000000000000D+00 0.165147783481D-04 0.000000000000D+00  7 21 1 -24 -11 11 23 2 2 0.22601360D+00 0.70257031D-01 0.30861508D+06 0.30861508D+06 0.30861508D+06 0.10836433D+01  1  2 12  3  7  1       -2 0.481801560785D-07 0.100000000000D+01
-.774520520211D-05 0.000000000000D+00 -.637812970765D-05 0.165147783481D-04 0.000000000000D+00  7 21 1 -24 -11 11 23 2 2 0.23809932D+00 0.70257031D-01 0.12491387D+06 0.12491387D+06 0.12491387D+06 0.11138792D+01  1  2  5  3  7  1       -2 -.307648505744D-04 0.100000000000D+01
  </mgrwgt>
  </event>
  <event>
  8     66 0.26562228E-05 0.16012139E+03 0.75467711E-02 0.10247480E+00
       -2 -1    0    0    0  501 0.00000000E+00 0.00000000E+00 0.15612542E+03 0.15612574E+03 0.32000000E+00 0.0000E+00 0.9000E+01
        1 -1    0    0  501    0 0.00000000E+00 0.00000000E+00 -.78598274E+03 0.78598281E+03 0.32000000E+00 0.0000E+00 0.9000E+01
       25  2    1    2    0    0 -.13813758E+03 0.90681318E+02 -.65108158E+02 0.34821131E+03 0.29951119E+03 0.0000E+00 0.0000E+00
       23  2    3    3    0    0 -.75562742E+02 0.15787144E+03 -.86382814E+02 0.21707022E+03 0.94996701E+02 0.0000E+00 0.0000E+00
      -24  1    1    2    0    0 0.13813758E+03 -.90681318E+02 -.56474917E+03 0.59389724E+03 0.80419002E+02 0.0000E+00 0.9000E+01
      -13  1    4    4    0    0 -.89795192E+02 0.97125056E+02 -.36580046E+02 0.13723908E+03 0.10565837E+00 0.0000E+00 0.9000E+01
       13  1    4    4    0    0 0.14232450E+02 0.60746380E+02 -.49802769E+02 0.79831148E+02 0.10565837E+00 0.0000E+00 0.9000E+01
       23  1    3    3    0    0 -.62574840E+02 -.67190117E+02 0.21274656E+02 0.13114109E+03 0.91188000E+02 0.0000E+00 0.9000E+01
#aMCatNLO 1  0  0  1  2 0.22481517D+02 0.00000000D+00  -5  7  0 0.00000000D+00 0.00000000D+00 0.00000000D+00 0.00000000D+00 0.00000000D+00
  <mgrwgt>
 0.8406324675D-03    9    2    0
 0.350302823104727D+03 0.000000000000000D+00 0.000000000000000D+00 0.350302823104727D+03
 0.350302823104727D+03 0.000000000000000D+00 0.000000000000000D+00 -.350302823104727D+03
 0.290897267199340D+03 0.138137582070628D+03 -.906813185019833D+02 -.225497031031665D+03
 0.151660171206020D+03 -.897953166124865D+02 0.971251028099290D+02 0.741911251354449D+02
 0.625757037015397D+02 0.142325753933658D+02 0.607463352612018D+02 0.479950453158606D+01
 0.195472504102554D+03 -.625748408515077D+02 -.671901195691476D+02 0.146506401364634D+03
 0.000000000000000D+00 0.000000000000000D+00 -.000000000000000D+00 0.000000000000000D+00
 0.362250821356828D+03 0.000000000000000D+00 0.000000000000000D+00 0.362250821356828D+03
 0.361220545270939D+03 0.000000000000000D+00 0.000000000000000D+00 -.361220545270939D+03
 0.285847319558477D+03 0.131548341477445D+03 -.841878672662121D+02 -.225497031031665D+03
 0.155978149332311D+03 -.933100490542863D+02 0.100588740750425D+03 0.741911251354449D+02
 0.636508307959474D+02 0.127904517494779D+02 0.621674944107440D+02 0.479950453158606D+01
 0.195489954920993D+03 -.670415419954072D+02 -.627883519219505D+02 0.146506401364634D+03
 0.225051120200376D+02 0.160127978227709D+02 -.157800159730068D+02 0.103027608588896D+01
0.140911949767D-04 0.000000000000D+00 0.000000000000D+00 0.321791465097D-06 0.000000000000D+00  7 -2 1 -24 -13 13 23 21 0 0.24019325D-01 0.12092045D+00 0.64475876D+05 0.64475876D+05 0.64475876D+05 0.11377071D+01  1  2  2  1  7  1       -2 0.521748344317D-03 0.100000000000D+01
-.684293214060D-06 0.000000000000D+00 -.541138990074D-07 0.321791465097D-06 0.000000000000D+00  7 -2 1 -24 -13 13 23 21 2 0.24019325D-01 0.12092045D+00 0.64475876D+05 0.64475876D+05 0.64475876D+05 0.11377071D+01  1  2  3  1  7  1       -2 -.327956636264D-04 0.100000000000D+01
0.887558064669D-06 0.000000000000D+00 0.000000000000D+00 0.321791465097D-06 0.000000000000D+00  7 -2 1 -24 -13 13 23 21 2 0.24019325D-01 0.12092045D+00 0.64475876D+05 0.64475876D+05 0.64475876D+05 0.11377071D+01  1  2 15  1  7  1       -2 0.425374023003D-04 0.100000000000D+01
0.283781052082D-04 0.000000000000D+00 0.000000000000D+00 0.321791465097D-06 0.000000000000D+00  7 -2 1 -24 -13 13 23 21 2 0.25200798D-01 0.12092045D+00 0.69763244D+05 0.69763244D+05 0.69763244D+05 0.11347847D+01  1  2 12  1  7  1       -2 0.124608065177D-02 0.100000000000D+01
-.224729836727D-04 0.000000000000D+00 0.000000000000D+00 0.321791465097D-06 0.000000000000D+00  7 -2 1 -24 -13 13 23 21 2 0.24019325D-01 0.12092045D+00 0.64475876D+05 0.64475876D+05 0.64475876D+05 0.11377071D+01  1  2  4  1  7  1       -2 -.107704767206D-02 0.100000000000D+01
-.150599262726D-03 0.000000000000D+00 -.288488832240D-04 0.321791465097D-06 0.000000000000D+00  7 -2 1 -24 -13 13 23 21 2 0.25594443D-01 0.12092045D+00 0.64475876D+05 0.64475876D+05 0.64475876D+05 0.11377071D+01  1  2  5  1  7  1       -2 -.648142360056D-02 0.100000000000D+01
0.152182657315D-03 0.000000000000D+00 0.287907876199D-04 0.321791465097D-06 0.000000000000D+00  7 -2 1 -24 -13 13 23 21 2 0.24019325D-01 0.12092045D+00 0.64475876D+05 0.64475876D+05 0.64475876D+05 0.11377071D+01  1  2  6  1  7  1       -2 0.729355652887D-02 0.100000000000D+01
0.325905677573D-06 0.000000000000D+00 0.000000000000D+00 0.321791465097D-06 0.000000000000D+00  7 21 1 -24 -13 13 23 2 2 0.25200798D-01 0.12092045D+00 0.69763244D+05 0.69763244D+05 0.69763244D+05 0.11347847D+01  1  2 12  3  7  1       -2 0.177293307092D-03 0.100000000000D+01
-.159427750547D-05 0.000000000000D+00 -.313112906255D-06 0.321791465097D-06 0.000000000000D+00  7 21 1 -24 -13 13 23 2 2 0.25594443D-01 0.12092045D+00 0.64475876D+05 0.64475876D+05 0.64475876D+05 0.11377071D+01  1  2  5  3  7  1       -2 -.849316830621D-03 0.100000000000D+01
  </mgrwgt>
  </event>
  <event>
  8     66 0.26562228E-05 0.18635903E+03 0.75467711E-02 0.98893057E-01
       -2 -1    0    0    0  501 0.00000000E+00 0.00000000E+00 0.59507515E+02 0.59508376E+02 0.32000000E+00 0.0000E+00 0.9000E+01
        1 -1    0    0  501    0 0.00000000E+00 0.00000000E+00 -.19019138E+04 0.19019138E+04 0.32000000E+00 0.0000E+00 0.9000E+01
       25  2    1    2    0    0 -.17988638E+03 0.13947804E+03 -.14718097E+04 0.15191301E+04 0.29953183E+03 0.0000E+00 0.0000E+00
       23  2    3    3    0    0 -.97047312E+02 0.18359592E+03 -.11468567E+04 0.11688183E+04 0.87921575E+02 0.0000E+00 0.0000E+00
      -24  1    1    2    0    0 0.17988638E+03 -.13947804E+03 -.37059659E+03 0.44229208E+03 0.80419002E+02 0.0000E+00 0.9000E+01
      -11  1    4    4    0    0 -.14799300E+02 0.79441309E+02 -.63143915E+03 0.63658884E+03 0.51099893E-03 0.0000E+00 0.9000E+01
       11  1    4    4    0    0 -.82248013E+02 0.10415461E+03 -.51541756E+03 0.53222944E+03 0.51099893E-03 0.0000E+00 0.9000E+01
       23  1    3    3    0    0 -.82839069E+02 -.44117873E+02 -.32495300E+03 0.35031187E+03 0.91188000E+02 0.0000E+00 0.9000E+01
#aMCatNLO 1  0  0  2  1 0.10881511D+03 0.00000000D+00  -5  7  0 0.00000000D+00 0.00000000D+00 0.00000000D+00 0.00000000D+00 0.00000000D+00
  <mgrwgt>
 0.1663299643D-02    9    2    0
 0.336420920668645D+03 0.000000000000000D+00 0.000000000000000D+00 0.336420920668645D+03
 0.336420920668645D+03 0.000000000000000D+00 0.000000000000000D+00 -.336420920668645D+03
 0.274554894774512D+03 0.179886381675459D+03 -.139478044723273D+03 0.130766735136107D+03
 0.126704384389266D+03 -.147992995757828D+02 0.794413093650543D+02 -.975912912195284D+02
 0.140178698132223D+03 -.822480126340601D+02 0.104154608455437D+03 -.451347910739283D+02
 0.131403864041288D+03 -.828390694656158D+02 -.441178730972183D+02 0.119593471573493D+02
 0.000000000000000D+00 -.000000000000000D+00 0.000000000000000D+00 -.000000000000000D+00
 0.393220707461098D+03 0.000000000000000D+00 0.000000000000000D+00 0.393220707461098D+03
 0.397253190481785D+03 0.000000000000000D+00 0.000000000000000D+00 -.397253190481785D+03
 0.302194264086570D+03 0.182350271651128D+03 -.185748746168194D+03 0.130766735136107D+03
 0.115393947494092D+03 -.137650481271434D+02 0.600185508524817D+02 -.975912912195284D+02
 0.124472208146492D+03 -.811174159006040D+02 0.829225305522255D+02 -.451347910739283D+02
 0.139523670948108D+03 -.816816587831081D+02 -.658535044234221D+02 0.119593471573493D+02
 0.108889807267622D+03 -.578614884027204D+01 0.108661169186908D+03 -.403248302068781D+01
0.332183250368D-04 0.000000000000D+00 0.000000000000D+00 0.289892862482D-06 0.000000000000D+00  7 -2 1 -24 -11 11 23 21 0 0.91550706D-02 0.29260219D+00 0.85788557D+05 0.85788557D+05 0.85788557D+05 0.11272262D+01  1  2  2  2  7  2        1 0.948833644128D-03 0.100000000000D+01
-.180239459318D-05 0.000000000000D+00 -.127567114727D-06 0.289892862482D-06 0.000000000000D+00  7 -2 1 -24 -11 11 23 21 2 0.91550706D-02 0.29260219D+00 0.85788557D+05 0.85788557D+05 0.85788557D+05 0.11272262D+01  1  2  3  2  7  2        1 -.654160598955D-04 0.100000000000D+01
0.213408079511D-05 0.000000000000D+00 0.000000000000D+00 0.289892862482D-06 0.000000000000D+00  7 -2 1 -24 -11 11 23 21 2 0.91550706D-02 0.29260219D+00 0.85788557D+05 0.85788557D+05 0.85788557D+05 0.11272262D+01  1  2 15  2  7  2        1 0.774542698045D-04 0.100000000000D+01
0.166197048802D-04 0.000000000000D+00 0.000000000000D+00 0.289892862482D-06 0.000000000000D+00  7 -2 1 -24 -11 11 23 21 2 0.91550706D-02 0.36615810D+00 0.12174481D+06 0.12174481D+06 0.12174481D+06 0.11147766D+01  1  2 12  2  7  2        1 0.281670150081D-03 0.100000000000D+01
-.163397377817D-04 0.000000000000D+00 0.000000000000D+00 0.289892862482D-06 0.000000000000D+00  7 -2 1 -24 -11 11 23 21 2 0.91550706D-02 0.29260219D+00 0.85788557D+05 0.85788557D+05 0.85788557D+05 0.11272262D+01  1  2  4  2  7  2        1 -.593033994581D-03 0.100000000000D+01
-.460916816818D-04 0.000000000000D+00 -.160319273038D-04 0.289892862482D-06 0.000000000000D+00  7 -2 1 -24 -11 11 23 21 2 0.91550706D-02 0.37236376D+00 0.85788557D+05 0.85788557D+05 0.85788557D+05 0.11272262D+01  1  2  5  2  7  2        1 -.759306952718D-03 0.100000000000D+01
0.489810579162D-04 0.000000000000D+00 0.155771484081D-04 0.289892862482D-06 0.000000000000D+00  7 -2 1 -24 -11 11 23 21 2 0.91550706D-02 0.29260219D+00 0.85788557D+05 0.85788557D+05 0.85788557D+05 0.11272262D+01  1  2  6  2  7  2        1 0.177771717165D-02 0.100000000000D+01
0.518758795639D-06 0.000000000000D+00 0.000000000000D+00 0.289892862482D-06 0.000000000000D+00  7 -2 21 -24 -11 11 23 -1 2 0.91550706D-02 0.36615810D+00 0.12174481D+06 0.12174481D+06 0.12174481D+06 0.11147766D+01  1  2 12  4  7  2        1 0.344006529924D-05 0.100000000000D+01
-.126537615211D-05 0.000000000000D+00 -.528146291232D-06 0.289892862482D-06 0.000000000000D+00  7 -2 21 -24 -11 11 23 -1 2 0.91550706D-02 0.37236376D+00 0.85788557D+05 0.85788557D+05 0.85788557D+05 0.11272262D+01  1  2  5  4  7  2        1 -.805865075847D-05 0.100000000000D+01
  </mgrwgt>
  </event>
  <event>
  8     66 0.26562228E-05 0.19057970E+03 0.75467711E-02 0.10035726E+00
       -2 -1    0    0    0  501 0.00000000E+00 0.00000000E+00 0.29850772E+03 0.29850789E+03 0.32000000E+00 0.0000E+00 0.9000E+01
        1 -1    0    0  501    0 0.00000000E+00 0.00000000E+00 -.48957964E+03 0.48957974E+03 0.32000000E+00 0.0000E+00 0.9000E+01
       25  2    1    2    0    0 0.19973133E+03 -.11933044E+03 0.11513604E+03 0.39519721E+03 0.29798015E+03 0.0000E+00 0.0000E+00
       23  2    3    3    0    0 0.44225862E+02 0.46426803E+02 -.26531401E+02 0.11227968E+03 0.88269113E+02 0.0000E+00 0.0000E+00
      -24  1    1    2    0    0 -.19973133E+03 0.11933044E+03 -.30620795E+03 0.39289042E+03 0.80419002E+02 0.0000E+00 0.9000E+01
      -13  1    4    4    0    0 0.61968853E+02 0.28667540E+01 -.13792427E+02 0.63549974E+02 0.10565837E+00 0.0000E+00 0.9000E+01
       13  1    4    4    0    0 -.17742991E+02 0.43560049E+02 -.12738974E+02 0.48729705E+02 0.10565837E+00 0.0000E+00 0.9000E+01
       23  1    3    3    0    0 0.15550547E+03 -.16575724E+03 0.14166744E+03 0.28291753E+03 0.91188000E+02 0.0000E+00 0.9000E+01
#aMCatNLO 1  0  0  2  1 0.21125374D+02 0.00000000D+00  -5  7  0 0.00000000D+00 0.00000000D+00 0.00000000D+00 0.00000000D+00 0.00000000D+00
  <mgrwgt>
 0.1579877254D-02    9    2    0
 0.382287079568072D+03 0.000000000000000D+00 0.000000000000000D+00 0.382287079568072D+03
 0.382287079568072D+03 0.000000000000000D+00 0.000000000000000D+00 -.382287079568072D+03
 0.328449952275639D+03 -.199731333945565D+03 0.119330440203979D+03 -.217439176498967D+03
 0.620575767550674D+02 0.619689666893595D+02 0.286669577406196D+01 0.166494909925672D+01
 0.470447519061173D+02 -.177431046760869D+02 0.435601070355973D+02 -.952886881461327D+00
 0.327021878199321D+03 0.155505471932292D+03 -.165757243013638D+03 0.216727114281172D+03
 0.000000000000000D+00 -.000000000000000D+00 0.000000000000000D+00 -.000000000000000D+00
 0.392412874262036D+03 0.000000000000000D+00 0.000000000000000D+00 0.392412874262036D+03
 0.393612485548621D+03 0.000000000000000D+00 0.000000000000000D+00 -.393612485548621D+03
 0.322409579928208D+03 -.191024409697095D+03 0.117092274290152D+03 -.217439176498967D+03
 0.637198466682708D+02 0.636515639991146D+02 0.243417427302187D+01 0.166494909925672D+01
 0.462882512153276D+02 -.164945351340400D+02 0.432391549163064D+02 -.952886881461327D+00
 0.332448275308727D+03 0.164327585440070D+03 -.168025019001753D+03 0.216727114281172D+03
 0.211594066901237D+02 -.204602046080489D+02 0.525941552227288D+01 -.119961128658485D+01
0.276922730848D-04 0.000000000000D+00 0.000000000000D+00 0.721607138084D-07 0.000000000000D+00  7 -2 1 -24 -13 13 23 21 0 0.45924286D-01 0.75319965D-01 0.90040002D+05 0.90040002D+05 0.90040002D+05 0.11254804D+01  1  2  2  2  7  2        1 0.635170681752D-03 0.100000000000D+01
-.142876174520D-05 0.000000000000D+00 -.106345620188D-06 0.721607138084D-07 0.000000000000D+00  7 -2 1 -24 -13 13 23 21 2 0.45924286D-01 0.75319965D-01 0.90040002D+05 0.90040002D+05 0.90040002D+05 0.11254804D+01  1  2  3  2  7  2        1 -.415114155966D-04 0.100000000000D+01
0.173235981498D-05 0.000000000000D+00 0.000000000000D+00 0.721607138084D-07 0.000000000000D+00  7 -2 1 -24 -13 13 23 21 2 0.45924286D-01 0.75319965D-01 0.90040002D+05 0.90040002D+05 0.90040002D+05 0.11254804D+01  1  2 15  2  7  2        1 0.503321904328D-04 0.100000000000D+01
0.570325810281D-04 0.000000000000D+00 0.000000000000D+00 0.721607138084D-07 0.000000000000D+00  7 -2 1 -24 -13 13 23 21 2 0.45924286D-01 0.78521149D-01 0.96486735D+05 0.96486735D+05 0.96486735D+05 0.11229989D+01  1  2 12  2  7  2        1 0.155571093150D-02 0.100000000000D+01
-.454184487024D-04 0.000000000000D+00 0.000000000000D+00 0.721607138084D-07 0.000000000000D+00  7 -2 1 -24 -13 13 23 21 2 0.45924286D-01 0.75319965D-01 0.90040002D+05 0.90040002D+05 0.90040002D+05 0.11254804D+01  1  2  4  2  7  2        1 -.131959307153D-02 0.100000000000D+01
-.422666259281D-03 0.000000000000D+00 -.726754810251D-04 0.721607138084D-07 0.000000000000D+00  7 -2 1 -24 -13 13 23 21 2 0.45924286D-01 0.79292237D-01 0.90040002D+05 0.90040002D+05 0.90040002D+05 0.11254804D+01  1  2  5  2  7  2        1 -.114391755938D-01 0.100000000000D+01
0.425934628064D-03 0.000000000000D+00 0.725796024209D-04 0.721607138084D-07 0.000000000000D+00  7 -2 1 -24 -13 13 23 21 2 0.45924286D-01 0.75319965D-01 0.90040002D+05 0.90040002D+05 0.90040002D+05 0.11254804D+01  1  2  6  2  7  2        1 0.123751559152D-01 0.100000000000D+01
0.726399164704D-06 0.000000000000D+00 0.000000000000D+00 0.721607138084D-07 0.000000000000D+00  7 -2 21 -24 -13 13 23 -1 2 0.45924286D-01 0.78521149D-01 0.96486735D+05 0.96486735D+05 0.96486735D+05 0.11229989D+01  1  2 12  4  7  2        1 0.586153974668D-04 0.100000000000D+01
-.370931109656D-05 0.000000000000D+00 -.649396328665D-06 0.721607138084D-07 0.000000000000D+00  7 -2 21 -24 -13 13 23 -1 2 0.45924286D-01 0.79292237D-01 0.90040002D+05 0.90040002D+05 0.90040002D+05 0.11254804D+01  1  2  5  4  7  2        1 -.294827781114D-03 0.100000000000D+01
  </mgrwgt>
  </event>
  <event>
  7     66 0.26562228E-05 0.28982772E+03 0.75467711E-02 0.93453031E-01
       -2 -1    0    0    0  501 0.00000000E+00 0.00000000E+00 0.38139906E+03 0.38139919E+03 0.32000000E+00 0.0000E+00 0.9000E+01
        1 -1    0    0  501    0 0.00000000E+00 0.00000000E+00 -.31322783E+03 0.31322800E+03 0.32000000E+00 0.0000E+00 0.9000E+01
       23  2    1    2    0    0 0.62807848E+02 -.50009203E+01 0.54838815E+02 0.12085470E+03 0.87342595E+02 0.0000E+00 0.0000E+00
      -24  1    1    2    0    0 0.75907318E+01 0.21814530E+03 0.16745294E+03 0.28662291E+03 0.80419002E+02 0.0000E+00 0.9000E+01
      -11  1    3    3    0    0 -.19438458E+02 0.88292954E+01 0.58070111E+00 0.21357606E+02 0.51099893E-03 0.0000E+00 0.9000E+01
       11  1    3    3    0    0 0.82246306E+02 -.13830216E+02 0.54258113E+02 0.99497098E+02 0.51099893E-03 0.0000E+00 0.9000E+01
       23  1    1    2    0    0 -.70398579E+02 -.21314438E+03 -.15412053E+03 0.28714957E+03 0.91188000E+02 0.0000E+00 0.9000E+01
#aMCatNLO 1  0  0  1  1 0.41738476D+03 0.00000000D+00  -5  7  0 0.00000000D+00 0.00000000D+00 0.00000000D+00 0.00000000D+00 0.00000000D+00
  <mgrwgt>
 0.1188221570D-02    5    2    0
 0.345636953120547D+03 0.000000000000000D+00 0.000000000000000D+00 0.345636953120547D+03
 0.345636953120547D+03 0.000000000000000D+00 0.000000000000000D+00 -.345636953120547D+03
 0.271499613805190D+03 0.759073190348403D+01 0.218145302281259D+03 0.139999400797946D+03
 0.214039419663273D+02 -.194384586011506D+02 0.882929429923700D+01 -.152270190343416D+01
 0.946289813264154D+02 0.822463038030092D+02 -.138302180861190D+02 0.447092237162374D+02
 0.303741369143162D+03 -.703985771053426D+02 -.213144378494377D+03 -.183185922610750D+03
 0.000000000000000D+00 -.000000000000000D+00 -.000000000000000D+00 0.000000000000000D+00
 0.789953735773744D+03 0.000000000000000D+00 0.000000000000000D+00 0.789953735773744D+03
 0.516526173444490D+03 0.000000000000000D+00 0.000000000000000D+00 -.516526173444490D+03
 0.396979005713612D+03 0.159547758689801D+03 0.325683581864782D+03 0.139999400797946D+03
 0.185020851468005D+02 -.103671120331329D+02 0.152489842870011D+02 -.152270190343416D+01
 0.146252281914887D+03 0.137002880156983D+03 0.249203954361536D+02 0.447092237162374D+02
 0.245774924869305D+03 0.545162066597374D+02 -.124743590293025D+03 -.183185922610750D+03
 0.498971611573629D+03 -.340699733473389D+03 -.241109371294912D+03 0.273427562329255D+03
0.448084011200D-04 0.000000000000D+00 0.000000000000D+00 0.223944733602D-09 0.000000000000D+00  7 -2 1 -24 -11 11 23 21 0 0.58676801D-01 0.48188920D-01 0.84000110D+05 0.84000110D+05 0.84000110D+05 0.11279892D+01  1  2  2  1  7  1       -2 0.115177629448D-02 0.100000000000D+01
-.239549177634D-05 0.000000000000D+00 -.172076058624D-06 0.223944733602D-09 0.000000000000D+00  7 -2 1 -24 -11 11 23 21 2 0.58676801D-01 0.48188920D-01 0.84000110D+05 0.84000110D+05 0.84000110D+05 0.11279892D+01  1  2  3  1  7  1       -2 -.783453595427D-04 0.100000000000D+01
0.284678859700D-05 0.000000000000D+00 0.000000000000D+00 0.223944733602D-09 0.000000000000D+00  7 -2 1 -24 -11 11 23 21 2 0.58676801D-01 0.48188920D-01 0.84000110D+05 0.84000110D+05 0.84000110D+05 0.11279892D+01  1  2 15  1  7  1       -2 0.931051729656D-04 0.100000000000D+01
0.196917244952D-05 0.000000000000D+00 -.136377310504D-04 0.223944733602D-09 0.000000000000D+00  7 -2 1 -24 -11 11 23 21 2 0.17825245D+00 0.48188920D-01 0.84000110D+05 0.84000110D+05 0.84000110D+05 0.11279892D+01  1  2  5  1  7  1       -2 0.435728418108D-05 0.100000000000D+01
0.914853326006D-06 0.000000000000D+00 -.172828348927D-05 0.223944733602D-09 0.000000000000D+00  7 21 1 -24 -11 11 23 2 2 0.17825245D+00 0.48188920D-01 0.84000110D+05 0.84000110D+05 0.84000110D+05 0.11279892D+01  1  2  5  3  7  1       -2 0.173281780725D-04 0.100000000000D+01
  </mgrwgt>
  </event>
  <event>
  8     66 0.26562228E-05 0.26492543E+03 0.75467711E-02 0.91547876E-01
       -2 -1    0    0    0  501 0.00000000E+00 0.00000000E+00 0.14600568E+03 0.14600603E+03 0.32000000E+00 0.0000E+00 0.9000E+01
        1 -1    0    0  501    0 0.00000000E+00 0.00000000E+00 -.57240060E+03 0.57240069E+03 0.32000000E+00 0.0000E+00 0.9000E+01
       25  2    1    2    0    0 -.17145174E+03 0.64087352E+02 -.36964804E+03 0.51058394E+03 0.30092091E+03 0.0000E+00 0.0000E+00
       23  2    3    3    0    0 -.76155851E+02 0.14749519E+03 -.25014440E+03 0.31402721E+03 0.92121247E+02 0.0000E+00 0.0000E+00
      -24  1    1    2    0    0 0.17145174E+03 -.64087352E+02 -.56746878E+02 0.20782279E+03 0.80419002E+02 0.0000E+00 0.9000E+01
      -13  1    4    4    0    0 -.51068146E+02 0.44099185E+02 -.39884040E+02 0.78380109E+02 0.10565837E+00 0.0000E+00 0.9000E+01
       13  1    4    4    0    0 -.25087704E+02 0.10339601E+03 -.21026036E+03 0.23564711E+03 0.10565837E+00 0.0000E+00 0.9000E+01
       23  1    3    3    0    0 -.95295885E+02 -.83407839E+02 -.11950364E+03 0.19655672E+03 0.91188000E+02 0.0000E+00 0.9000E+01
#aMCatNLO 1  0  0  2  1 0.55135733D+03 0.00000000D+00  -5  7  0 0.00000000D+00 0.00000000D+00 0.00000000D+00 0.00000000D+00 0.00000000D+00
  <mgrwgt>
 0.7981985699D-03    5    2    0
 0.289091503795151D+03 0.000000000000000D+00 0.000000000000000D+00 0.289091503795151D+03
 0.289091503795151D+03 0.000000000000000D+00 0.000000000000000D+00 -.289091503795151D+03
 0.216375621929486D+03 0.171451738239379D+03 -.640873530924100D+02 0.827544949794622D+02
 0.679756952817718D+02 -.510681804682339D+02 0.440991067884777D+02 0.824650672482724D+01
 0.137735915906664D+03 -.250876714006836D+02 0.103396082658865D+03 -.874702313083723D+02
 0.156095774472379D+03 -.952958863704612D+02 -.834078363549325D+02 -.353077039591712D+01
 0.000000000000000D+00 -.000000000000000D+00 -.000000000000000D+00 -.000000000000000D+00
 0.504589579657662D+03 0.000000000000000D+00 0.000000000000000D+00 0.504589579657662D+03
 0.112240796937003D+04 0.000000000000000D+00 0.000000000000000D+00 -.112240796937003D+04
 0.304169762153814D+03 0.250187744749626D+03 0.128879068091477D+03 0.827544949794622D+02
 0.114467117712746D+03 -.234724722919312D+02 0.111730744241706D+03 0.824650672482724D+01
 0.272576551977729D+03 0.369748617240196D+02 0.255499109437621D+03 -.874702313083723D+02
 0.107717412795001D+03 -.553923592903910D+02 0.143878374992315D+02 -.353077039591712D+01
 0.828066704388400D+03 -.208297774891323D+03 -.510496759270035D+03 -.617818389712366D+03
0.118452832963D-04 0.000000000000D+00 0.000000000000D+00 0.492869094598D-06 0.000000000000D+00  7 -2 1 -24 -13 13 23 21 0 0.22462446D-01 0.88061665D-01 0.70185484D+05 0.70185484D+05 0.70185484D+05 0.11345619D+01  1  2  2  2  7  2        1 0.783124368652D-03 0.100000000000D+01
-.651974074010D-06 0.000000000000D+00 -.454890067926D-07 0.492869094598D-06 0.000000000000D+00  7 -2 1 -24 -13 13 23 21 2 0.22462446D-01 0.88061665D-01 0.70185484D+05 0.70185484D+05 0.70185484D+05 0.11345619D+01  1  2  3  2  7  2        1 -.554845451336D-04 0.100000000000D+01
0.754715515399D-06 0.000000000000D+00 0.000000000000D+00 0.492869094598D-06 0.000000000000D+00  7 -2 1 -24 -13 13 23 21 2 0.22462446D-01 0.88061665D-01 0.70185484D+05 0.70185484D+05 0.70185484D+05 0.11345619D+01  1  2 15  2  7  2        1 0.642280862791D-04 0.100000000000D+01
0.273574952085D-05 0.000000000000D+00 -.490867121751D-05 0.492869094598D-06 0.000000000000D+00  7 -2 1 -24 -13 13 23 21 2 0.22462446D-01 0.43024676D+00 0.70185484D+05 0.70185484D+05 0.70185484D+05 0.11345619D+01  1  2  5  2  7  2        1 0.606848531817D-05 0.100000000000D+01
0.410295509282D-06 0.000000000000D+00 -.947661745153D-06 0.492869094598D-06 0.000000000000D+00  7 -2 21 -24 -13 13 23 -1 2 0.22462446D-01 0.43024676D+00 0.70185484D+05 0.70185484D+05 0.70185484D+05 0.11345619D+01  1  2  5  4  7  2        1 0.262174796891D-06 0.100000000000D+01
  </mgrwgt>
  </event>
  <event>
  8     66 0.26562228E-05 0.23997275E+03 0.75467711E-02 0.97837005E-01
       -2 -1    0    0    0  501 0.00000000E+00 0.00000000E+00 0.35874904E+03 0.35874918E+03 0.32000000E+00 0.0000E+00 0.9000E+01
        1 -1    0    0  501    0 0.00000000E+00 0.00000000E+00 -.21831633E+03 0.21831656E+03 0.32000000E+00 0.0000E+00 0.9000E+01
       25  2    1    2    0    0 0.15052734E+03 -.75963010E+02 0.18011334E+03 0.38609290E+03 0.29698158E+03 0.0000E+00 0.0000E+00
       23  2    3    3    0    0 0.26039536E+02 0.46039469E+02 -.17922908E+02 0.10695956E+03 0.91221855E+02 0.0000E+00 0.0000E+00
      -24  1    1    2    0    0 -.15052734E+03 0.75963010E+02 -.39680629E+02 0.19097284E+03 0.80419002E+02 0.0000E+00 0.9000E+01
      -11  1    4    4    0    0 -.22121020E+01 0.63286270E+02 0.94261727E+01 0.64022638E+02 0.51099893E-03 0.0000E+00 0.9000E+01
       11  1    4    4    0    0 0.28251638E+02 -.17246801E+02 -.27349081E+02 0.42936923E+02 0.51099893E-03 0.0000E+00 0.9000E+01
       23  1    3    3    0    0 0.12448780E+03 -.12200248E+03 0.19803625E+03 0.27913334E+03 0.91188000E+02 0.0000E+00 0.9000E+01
#aMCatNLO 1  0  0  1  1 0.23619304D+03 0.00000000D+00  -5  7  0 0.00000000D+00 0.00000000D+00 0.00000000D+00 0.00000000D+00 0.00000000D+00
  <mgrwgt>
 0.1038288060D-02    3    2    0
 0.279858683227383D+03 0.000000000000000D+00 0.000000000000000D+00 0.279858683227383D+03
 0.279858683227383D+03 0.000000000000000D+00 0.000000000000000D+00 -.279858683227383D+03
 0.206847868001504D+03 -.150527336968732D+03 0.759630103191080D+02 -.888254830032359D+02
 0.636419919724646D+02 -.221210196137082D+01 0.632862701091199D+02 -.634490053596221D+01
 0.511296143229441D+02 0.282516375347787D+02 -.172468007731507D+02 -.389696073948371D+02
 0.238097892157852D+03 0.124487801395324D+03 -.122002479655077D+03 0.134139990934035D+03
 0.000000000000000D+00 0.000000000000000D+00 0.000000000000000D+00 -.000000000000000D+00
 0.390485881660442D+03 0.000000000000000D+00 0.000000000000000D+00 0.390485881660442D+03
 0.464563019769678D+03 0.000000000000000D+00 0.000000000000000D+00 -.464563019769678D+03
 0.279970648086511D+03 -.246880579881419D+03 0.554649500339320D+02 -.888254830032359D+02
 0.644324263431627D+02 -.275611491546283D+02 0.578935476450715D+02 -.634490053596221D+01
 0.453491470644465D+02 0.915614049704133D+01 -.213091513243370D+02 -.389696073948371D+02
 0.217759658832156D+03 0.342624876642798D+02 -.141196892465695D+03 0.134139990934035D+03
 0.247537021103843D+03 0.231023100874726D+03 0.491475461110288D+02 -.740771381092360D+02
0.219553976265D-04 0.000000000000D+00 0.000000000000D+00 0.782085161196D-07 0.000000000000D+00  7 -2 1 -24 -11 11 23 21 0 0.55192189D-01 0.33587157D-01 0.57586919D+05 0.57586919D+05 0.57586919D+05 0.11419375D+01  1  2  2  1  7  1       -2 0.102421310105D-02 0.100000000000D+01
-.118468255033D-05 0.000000000000D+00 -.843145078747D-07 0.782085161196D-07 0.000000000000D+00  7 -2 1 -24 -11 11 23 21 2 0.55192189D-01 0.33587157D-01 0.57586919D+05 0.57586919D+05 0.57586919D+05 0.11419375D+01  1  2  3  1  7  1       -2 -.720668762257D-04 0.100000000000D+01
0.141605595437D-05 0.000000000000D+00 0.000000000000D+00 0.782085161196D-07 0.000000000000D+00  7 -2 1 -24 -11 11 23 21 2 0.55192189D-01 0.33587157D-01 0.57586919D+05 0.57586919D+05 0.57586919D+05 0.11419375D+01  1  2 15  1  7  1       -2 0.861418353492D-04 0.100000000000D+01
  </mgrwgt>
  </event>
  <event>
  9     66 0.26562228E-05 0.17743615E+03 0.75467711E-02 0.10369619E+00
       -2 -1    0    0    0  501 0.00000000E+00 0.00000000E+00 0.12418231E+03 0.12418272E+03 0.32000000E+00 0.0000E+00 0.9000E+01
        1 -1    0    0  502    0 0.00000000E+00 0.00000000E+00 -.13792678E+04 0.13792679E+04 0.32000000E+00 0.0000E+00 0.9000E+01
       25  2    1    2    0    0 -.40476009E+02 -.58463860E+02 -.16069548E+03 0.34034559E+03 0.29147170E+03 0.0000E+00 0.0000E+00
       23  2    3    3    0    0 0.81779567E+02 -.21021754E+02 -.13337041E+03 0.18093967E+03 0.88440293E+02 0.0000E+00 0.0000E+00
      -24  1    1    2    0    0 -.56338207E+02 0.69854367E+02 -.10484245E+04 0.10553268E+04 0.80419002E+02 0.0000E+00 0.9000E+01
      -13  1    4    4    0    0 0.93072428E+02 -.13692603E+02 -.13772682E+03 0.16678924E+03 0.10565837E+00 0.0000E+00 0.9000E+01
       13  1    4    4    0    0 -.11292862E+02 -.73291509E+01 0.43564036E+01 0.14150427E+02 0.10565837E+00 0.0000E+00 0.9000E+01
       23  1    3    3    0    0 -.12225558E+03 -.37442106E+02 -.27325065E+02 0.15940592E+03 0.91188000E+02 0.0000E+00 0.9000E+01
       21  1    1    2  502  501 0.96814216E+02 -.11390508E+02 -.45965569E+02 0.10777816E+03 0.75000000E+00 0.0000E+00 0.9000E+01
#aMCatNLO 2  0  0  2  2 0.97481978D+02 0.00000000D+00  -5  7  0 0.00000000D+00 0.00000000D+00 0.00000000D+00 0.00000000D+00 0.00000000D+00
  <mgrwgt>
 0.2432121775D-02    1    2    0
 0.345118717582550D+03 0.000000000000000D+00 0.000000000000000D+00 0.345118717582550D+03
 0.345118717582550D+03 0.000000000000000D+00 0.000000000000000D+00 -.345118717582550D+03
 0.288262530864564D+03 -.156774831350100D+02 0.650705009555974D+02 -.268604015558242D+03
 0.109269177657608D+03 0.107330639239883D+03 -.153701192700527D+02 0.135516235172124D+02
 0.347806054388819D+02 -.636144813539185D+01 -.790935625537637D+01 0.332665684425286D+02
 0.257925121204046D+03 -.852917079694810D+02 -.417910254301683D+02 0.221785823598501D+03
 0.000000000000000D+00 0.000000000000000D+00 -.000000000000000D+00 0.000000000000000D+00
 0.464029287839462D+03 0.000000000000000D+00 0.000000000000000D+00 0.464029287839462D+03
 0.369114794694974D+03 0.000000000000000D+00 0.000000000000000D+00 -.369114794694974D+03
 0.294395922876580D+03 -.563382074253325D+02 0.698543675232314D+02 -.268604015558242D+03
 0.950454552272589D+02 0.930725762136477D+02 -.136926117435412D+02 0.135516235172124D+02
 0.358875045692422D+02 -.112930105605293D+02 -.732914188331143D+01 0.332665684425286D+02
 0.271758237374103D+03 -.122255573963411D+03 -.374421062747623D+02 0.221785823598501D+03
 0.136056962487252D+03 0.968142157356252D+02 -.113905076216165D+02 0.949144931444884D+02
0.938558644584D-04 0.000000000000D+00 0.000000000000D+00 0.652658868389D-08 0.496474734826D-11  7 -2 1 -24 -13 13 23 21 2 0.19104953D-01 0.21219452D+00 0.58218002D+05 0.58218002D+05 0.58218002D+05 0.11415274D+01  1  2  1  2  7  2        1 0.243212177460D-02 0.100000000000D+01
  </mgrwgt>
  </event>
  <event>
  8     66 0.26562228E-05 0.13016947E+03 0.75467711E-02 0.10317317E+00
       -2 -1    0    0    0  501 0.00000000E+00 0.00000000E+00 0.26301559E+03 0.26301579E+03 0.32000000E+00 0.0000E+00 0.9000E+01
        1 -1    0    0  501    0 0.00000000E+00 0.00000000E+00 -.33281889E+03 0.33281904E+03 0.32000000E+00 0.0000E+00 0.9000E+01
       25  2    1    2    0    0 -.33481971E+02 0.14293606E+03 0.10913283E+03 0.35081011E+03 0.29934262E+03 0.0000E+00 0.0000E+00
       23  2    3    3    0    0 -.26550639E+02 0.17386855E+03 0.14784022E+03 0.24679869E+03 0.90098041E+02 0.0000E+00 0.0000E+00
      -24  1    1    2    0    0 0.33481971E+02 -.14293606E+03 -.17893612E+03 0.24502471E+03 0.80419002E+02 0.0000E+00 0.9000E+01
      -13  1    4    4    0    0 -.26959683E+02 0.18468514E+03 0.14183470E+03 0.23441954E+03 0.10565837E+00 0.0000E+00 0.9000E+01
       13  1    4    4    0    0 0.40904465E+00 -.10816596E+02 0.60055196E+01 0.12379156E+02 0.10565837E+00 0.0000E+00 0.9000E+01
       23  1    3    3    0    0 -.69313319E+01 -.30932488E+02 -.38707393E+02 0.10401142E+03 0.91188000E+02 0.0000E+00 0.9000E+01
#aMCatNLO 1  0  0  1  2 0.38403886D+02 0.00000000D+00  -5  7  0 0.00000000D+00 0.00000000D+00 0.00000000D+00 0.00000000D+00 0.00000000D+00
  <mgrwgt>
 0.1450613248D-02    9    2    0
 0.295865950134845D+03 0.000000000000000D+00 0.000000000000000D+00 0.295865950134845D+03
 0.295865950134845D+03 0.000000000000000D+00 0.000000000000000D+00 -.295865950134845D+03
 0.225615565548838D+03 0.334819705989749D+02 -.142936058131258D+03 -.151272629362547D+03
 0.252776719430509D+03 -.269597209077840D+02 0.184685410666094D+03 0.170471529651497D+03
 0.131730979228995D+02 0.409082272883293D+00 -.108168650368245D+02 0.750723593311388D+01
 0.100166517367443D+03 -.693133196407424D+01 -.309324874980111D+02 -.267061362220640D+02
 0.000000000000000D+00 0.000000000000000D+00 -.000000000000000D+00 0.000000000000000D+00
 0.317820060892201D+03 0.000000000000000D+00 0.000000000000000D+00 0.317820060892201D+03
 0.313773264293061D+03 0.000000000000000D+00 0.000000000000000D+00 -.313773264293061D+03
 0.218654767881634D+03 0.221509395518556D+02 -.134047077721643D+03 -.151272629362547D+03
 0.262083336110896D+03 -.400911295013182D+02 0.194986753346489D+03 0.170471529651497D+03
 0.127466190510102D+02 -.251995219048496D+00 -.102982621973668D+02 0.750723593311388D+01
 0.994920895541284D+02 -.120235870700681D+02 -.269377092920642D+02 -.267061362220640D+02
 0.386165125875933D+02 0.302157722385792D+02 -.237037041354140D+02 0.404679659914012D+01
0.177538836022D-04 0.000000000000D+00 0.000000000000D+00 0.121746263392D-05 0.000000000000D+00  7 -2 1 -24 -13 13 23 21 0 0.40463964D-01 0.51202932D-01 0.53221753D+05 0.53221753D+05 0.53221753D+05 0.11449176D+01  1  2  2  1  7  1       -2 0.871096846717D-03 0.100000000000D+01
-.912095667135D-06 0.000000000000D+00 -.681795877373D-07 0.121746263392D-05 0.000000000000D+00  7 -2 1 -24 -13 13 23 21 2 0.40463964D-01 0.51202932D-01 0.53221753D+05 0.53221753D+05 0.53221753D+05 0.11449176D+01  1  2  3  1  7  1       -2 -.586626851589D-04 0.100000000000D+01
0.115249093559D-05 0.000000000000D+00 0.000000000000D+00 0.121746263392D-05 0.000000000000D+00  7 -2 1 -24 -13 13 23 21 2 0.40463964D-01 0.51202932D-01 0.53221753D+05 0.53221753D+05 0.53221753D+05 0.11449176D+01  1  2 15  1  7  1       -2 0.741240369173D-04 0.100000000000D+01
0.257326876574D-04 0.000000000000D+00 0.000000000000D+00 0.121746263392D-05 0.000000000000D+00  7 -2 1 -24 -13 13 23 21 2 0.44609799D-01 0.51202932D-01 0.62873797D+05 0.62873797D+05 0.62873797D+05 0.11386449D+01  1  2 12  1  7  1       -2 0.136170180945D-02 0.100000000000D+01
-.216333208780D-04 0.000000000000D+00 0.000000000000D+00 0.121746263392D-05 0.000000000000D+00  7 -2 1 -24 -13 13 23 21 2 0.40463964D-01 0.51202932D-01 0.53221753D+05 0.53221753D+05 0.53221753D+05 0.11449176D+01  1  2  4  1  7  1       -2 -.139137673529D-02 0.100000000000D+01
-.765724516408D-04 0.000000000000D+00 -.188227089505D-04 0.121746263392D-05 0.000000000000D+00  7 -2 1 -24 -13 13 23 21 2 0.45852240D-01 0.51202932D-01 0.53221753D+05 0.53221753D+05 0.53221753D+05 0.11449176D+01  1  2  5  1  7  1       -2 -.389429315142D-02 0.100000000000D+01
0.784577798830D-04 0.000000000000D+00 0.186765794331D-04 0.121746263392D-05 0.000000000000D+00  7 -2 1 -24 -13 13 23 21 2 0.40463964D-01 0.51202932D-01 0.53221753D+05 0.53221753D+05 0.53221753D+05 0.11449176D+01  1  2  6  1  7  1       -2 0.504611983741D-02 0.100000000000D+01
0.409052265783D-06 0.000000000000D+00 0.000000000000D+00 0.121746263392D-05 0.000000000000D+00  7 21 1 -24 -13 13 23 2 2 0.44609799D-01 0.51202932D-01 0.62873797D+05 0.62873797D+05 0.62873797D+05 0.11386449D+01  1  2 12  3  7  1       -2 0.241353895845D-03 0.100000000000D+01
-.140970761513D-05 0.000000000000D+00 -.369597684916D-06 0.121746263392D-05 0.000000000000D+00  7 21 1 -24 -13 13 23 2 2 0.45852240D-01 0.51202932D-01 0.53221753D+05 0.53221753D+05 0.53221753D+05 0.11449176D+01  1  2  5  3  7  1       -2 -.799450606774D-03 0.100000000000D+01
  </mgrwgt>
  </event>
  <event>
  8     66 0.26562228E-05 0.17924714E+03 0.75467711E-02 0.10672495E+00
       -2 -1    0    0    0  501 0.00000000E+00 0.00000000E+00 0.45417345E+03 0.45417356E+03 0.32000000E+00 0.0000E+00 0.9000E+01
        1 -1    0    0  501    0 0.00000000E+00 0.00000000E+00 -.89722512E+02 0.89723083E+02 0.32000000E+00 0.0000E+00 0.9000E+01
       25  2    1    2    0    0 -.15718450E+02 -.12090793E+02 0.20455347E+03 0.36381979E+03 0.30021569E+03 0.0000E+00 0.0000E+00
       23  2    3    3    0    0 -.10155925E+03 -.77134074E+02 0.12250829E+03 0.20058397E+03 0.94666259E+02 0.0000E+00 0.0000E+00
      -24  1    1    2    0    0 0.15718450E+02 0.12090793E+02 0.15989747E+03 0.18007686E+03 0.80419002E+02 0.0000E+00 0.9000E+01
      -13  1    4    4    0    0 -.80279907E+02 -.35475701E+02 0.12613310E+03 0.15366509E+03 0.10565837E+00 0.0000E+00 0.9000E+01
       13  1    4    4    0    0 -.21279341E+02 -.41658373E+02 -.36248178E+01 0.46918875E+02 0.10565837E+00 0.0000E+00 0.9000E+01
       23  1    3    3    0    0 0.85840799E+02 0.65043281E+02 0.82045180E+02 0.16323582E+03 0.91188000E+02 0.0000E+00 0.9000E+01
#aMCatNLO 1  0  0  2  2 0.29231183D+02 0.00000000D+00  -5  7  0 0.00000000D+00 0.00000000D+00 0.00000000D+00 0.00000000D+00 0.00000000D+00
  <mgrwgt>
 0.1252296183D-02    4    2    0
 0.201865719223850D+03 0.000000000000000D+00 0.000000000000000D+00 0.201865719223850D+03
 0.201865719223850D+03 0.000000000000000D+00 0.000000000000000D+00 -.201865719223850D+03
 0.982545191030186D+02 0.157184780948774D+02 0.120908150034074D+02 0.528533462396578D+02
 0.931525051247693D+02 -.802799534401541D+02 -.354757010696904D+02 0.312088596440311D+02
 0.664800112059321D+02 -.212793012688702D+02 -.416583776135045D+02 -.472373030777602D+02
 0.145844403013980D+03 0.858407766141469D+02 0.650432636797875D+02 -.368249028059287D+02
 0.000000000000000D+00 0.000000000000000D+00 -.000000000000000D+00 0.000000000000000D+00
 0.244486240616967D+03 0.000000000000000D+00 0.000000000000000D+00 0.244486240616967D+03
 0.207469084364767D+03 0.000000000000000D+00 0.000000000000000D+00 -.207469084364767D+03
 0.976862441830069D+02 0.895632083097941D+01 0.142019173584032D+02 0.528533462396578D+02
 0.981792731238972D+02 -.868830489492293D+02 -.334142567797308D+02 0.312088596440311D+02
 0.672258588163572D+02 -.258936556535023D+02 -.402178056143602D+02 -.472373030777602D+02
 0.141696885114929D+03 0.759173723281632D+02 0.681412871862150D+02 -.368249028059287D+02
 0.471670637435437D+02 0.279030114435890D+02 -.871114215052724D+01 0.370171562521997D+02
0.175638402382D-04 0.000000000000D+00 0.000000000000D+00 0.861839495082D-07 0.000000000000D+00  7 -2 1 -24 -13 13 23 21 0 0.69872891D-01 0.13803516D-01 0.32129539D+05 0.32129539D+05 0.32129539D+05 0.11645826D+01  1  2  2  2  7  2        1 0.158948842689D-02 0.100000000000D+01
-.959014338928D-06 0.000000000000D+00 -.674497711801D-07 0.861839495082D-07 0.000000000000D+00  7 -2 1 -24 -13 13 23 21 2 0.69872891D-01 0.13803516D-01 0.32129539D+05 0.32129539D+05 0.32129539D+05 0.11645826D+01  1  2  3  2  7  2        1 -.117707356898D-03 0.100000000000D+01
0.108633092893D-05 0.000000000000D+00 0.000000000000D+00 0.861839495082D-07 0.000000000000D+00  7 -2 1 -24 -13 13 23 21 2 0.69872891D-01 0.13803516D-01 0.32129539D+05 0.32129539D+05 0.32129539D+05 0.11645826D+01  1  2 15  2  7  2        1 0.133333921268D-03 0.100000000000D+01
-.287457220363D-05 0.000000000000D+00 0.000000000000D+00 0.861839495082D-07 0.000000000000D+00  7 -2 1 -24 -13 13 23 21 2 0.69872891D-01 0.13803516D-01 0.32129539D+05 0.32129539D+05 0.32129539D+05 0.11645826D+01  1  2  4  2  7  2        1 -.352818808403D-03 0.100000000000D+01
  </mgrwgt>
  </event>
  <event>
  9     66 0.26562228E-05 0.17869999E+03 0.75467711E-02 0.10456965E+00
       21 -1    0    0  502  501 0.00000000E+00 0.00000000E+00 0.19308287E+03 0.19308432E+03 0.75000000E+00 0.0000E+00 0.9000E+01
        1 -1    0    0  501    0 0.00000000E+00 0.00000000E+00 -.34312262E+03 0.34312277E+03 0.32000000E+00 0.0000E+00 0.9000E+01
       25  2    1    2    0    0 0.49884222E+01 -.13803365E+02 -.30973711E+02 0.30098088E+03 0.29902291E+03 0.0000E+00 0.0000E+00
       23  2    3    3    0    0 0.88818494E+02 -.11846540E+02 0.65644403E+02 0.14387702E+03 0.91445857E+02 0.0000E+00 0.0000E+00
      -24  1    1    2    0    0 -.55411838E+02 -.58088759E+02 -.53266983E+02 0.12549647E+03 0.80419002E+02 0.0000E+00 0.9000E+01
      -13  1    4    4    0    0 0.58972259E+02 0.37541018E+02 0.41706628E+02 0.81403374E+02 0.10565837E+00 0.0000E+00 0.9000E+01
       13  1    4    4    0    0 0.29846235E+02 -.49387558E+02 0.23937775E+02 0.62473649E+02 0.10565837E+00 0.0000E+00 0.9000E+01
       23  1    3    3    0    0 -.83830072E+02 -.19568254E+01 -.96618114E+02 0.15710386E+03 0.91188000E+02 0.0000E+00 0.9000E+01
        2  1    1    2  502    0 0.50423415E+02 0.71892124E+02 -.65799062E+02 0.10972975E+03 0.32000000E+00 0.0000E+00 0.9000E+01
#aMCatNLO 2  0  0  1  1 0.87812290D+02 0.00000000D+00  -5  7  0 0.00000000D+00 0.00000000D+00 0.00000000D+00 0.00000000D+00 0.00000000D+00
  <mgrwgt>
 0.6619152913D-03    1    2    0
 0.204374309548340D+03 0.000000000000000D+00 0.000000000000000D+00 0.204374309548340D+03
 0.204374309548340D+03 0.000000000000000D+00 0.000000000000000D+00 -.204374309548340D+03
 0.102909189629251D+03 -.419834049719545D+02 -.389429014165239D+02 -.290504645746387D+02
 0.107407342446048D+03 0.710991072270251D+02 0.548311623962808D+02 0.589474154913954D+02
 0.651120868114476D+02 0.379976707481632D+02 -.377655401526818D+02 0.370070918018675D+02
 0.133320000209934D+03 -.671133730032338D+02 0.218772791729249D+02 -.669040427186242D+02
 0.000000000000000D+00 0.000000000000000D+00 0.000000000000000D+00 -.000000000000000D+00
 0.235869847889554D+03 0.000000000000000D+00 0.000000000000000D+00 0.235869847889554D+03
 0.280881135905432D+03 0.000000000000000D+00 0.000000000000000D+00 -.280881135905432D+03
 0.117285681468492D+03 -.554118818501487D+02 -.580888025438716D+02 -.290504645746387D+02
 0.914432471242881D+02 0.589723009533439D+02 0.375411423878745D+02 0.589474154913954D+02
 0.685526155542654D+02 0.298461940302885D+02 -.493876599729673D+02 0.370070918018675D+02
 0.140793128536212D+03 -.838300285412419D+02 -.195680394862064D+01 -.669040427186242D+02
 0.986763111117283D+02 0.504234154077582D+02 0.718921240775850D+02 -.450112880158786D+02
0.507253550091D-06 0.000000000000D+00 0.000000000000D+00 0.173746393734D-06 0.481970946942D-11  7 21 1 -24 -13 13 23 2 2 0.29705149D-01 0.52788164D-01 0.51288133D+05 0.51288133D+05 0.51288133D+05 0.11463250D+01  1  2  1  3  7  1       -2 0.661915291278D-03 0.100000000000D+01
  </mgrwgt>
  </event>
  <event>
  8     66 0.26562228E-05 0.97513474E+02 0.75467711E-02 0.10499845E+00
       -2 -1    0    0    0  501 0.00000000E+00 0.00000000E+00 0.16506861E+03 0.16506892E+03 0.32000000E+00 0.0000E+00 0.9000E+01
        1 -1    0    0  501    0 0.00000000E+00 0.00000000E+00 -.68625936E+03 0.68625943E+03 0.32000000E+00 0.0000E+00 0.9000E+01
       25  2    1    2    0    0 -.83965291E+02 -.12700218E+01 0.24820524E+01 0.31490297E+03 0.30348959E+03 0.0000E+00 0.0000E+00
       23  2    3    3    0    0 -.12406950E+03 -.90148628E+02 0.23202307E+02 0.17980176E+03 0.90941246E+02 0.0000E+00 0.0000E+00
      -24  1    1    2    0    0 0.83965291E+02 0.12700218E+01 -.52367280E+03 0.53642539E+03 0.80419002E+02 0.0000E+00 0.9000E+01
      -11  1    4    4    0    0 0.60718945E+01 -.65272333E+01 0.23474735E+02 0.25110473E+02 0.51099893E-03 0.0000E+00 0.9000E+01
       11  1    4    4    0    0 -.13014140E+03 -.83621395E+02 -.27242777E+00 0.15469129E+03 0.51099893E-03 0.0000E+00 0.9000E+01
       23  1    3    3    0    0 0.40104213E+02 0.88878606E+02 -.20720255E+02 0.13510120E+03 0.91188000E+02 0.0000E+00 0.9000E+01
#aMCatNLO 1  0  0  2  1 0.23674129D+02 0.00000000D+00  -5  7  0 0.00000000D+00 0.00000000D+00 0.00000000D+00 0.00000000D+00 0.00000000D+00
  <mgrwgt>
 0.2043387873D-02    9    2    0
 0.336571008094978D+03 0.000000000000000D+00 0.000000000000000D+00 0.336571008094978D+03
 0.336571008094978D+03 0.000000000000000D+00 0.000000000000000D+00 -.336571008094978D+03
 0.272959826391018D+03 0.839652908244448D+02 0.127002183073031D+01 -.246957623592308D+03
 0.499331069167955D+02 0.607189453277240D+01 -.652723326182645D+01 0.491308710394262D+02
 0.195428441149316D+03 -.130141398200582D+03 -.836213945546693D+02 0.119427611787147D+03
 0.154820641732827D+03 0.401042128433653D+02 0.888786059857655D+02 0.783991407657348D+02
 0.000000000000000D+00 -.000000000000000D+00 0.000000000000000D+00 -.000000000000000D+00
 0.348214650556783D+03 0.000000000000000D+00 0.000000000000000D+00 0.348214650556783D+03
 0.349031768471200D+03 0.000000000000000D+00 0.000000000000000D+00 -.349031768471200D+03
 0.273244825364423D+03 0.844882678887407D+02 -.831765428856837D+01 -.246957623592308D+03
 0.502048288441928D+02 0.616777405979696D+01 -.828498119064007D+01 0.491308710394262D+02
 0.198236540171971D+03 -.129764473991706D+03 -.905315011022573D+02 0.119427611787147D+03
 0.151871997883318D+03 0.403978632467298D+02 0.834951481785827D+02 0.783991407657348D+02
 0.236882267640787D+02 -.128943120356132D+01 0.236389884028830D+02 -.817117914416791D+00
0.190751440874D-04 0.000000000000D+00 0.000000000000D+00 0.199464977621D-06 0.000000000000D+00  7 -2 1 -24 -11 11 23 21 0 0.25395201D-01 0.10557839D+00 0.42720726D+05 0.42720726D+05 0.42720726D+05 0.11533547D+01  1  2  2  2  7  2        1 0.793061022757D-03 0.100000000000D+01
-.753403178429D-06 0.000000000000D+00 -.732535758962D-07 0.199464977621D-06 0.000000000000D+00  7 -2 1 -24 -11 11 23 21 2 0.25395201D-01 0.10557839D+00 0.42720726D+05 0.42720726D+05 0.42720726D+05 0.11533547D+01  1  2  3  2  7  2        1 -.416669801577D-04 0.100000000000D+01
0.117504296253D-05 0.000000000000D+00 0.000000000000D+00 0.199464977621D-06 0.000000000000D+00  7 -2 1 -24 -11 11 23 21 2 0.25395201D-01 0.10557839D+00 0.42720726D+05 0.42720726D+05 0.42720726D+05 0.11533547D+01  1  2 15  2  7  2        1 0.649857781411D-04 0.100000000000D+01
0.430378631969D-04 0.000000000000D+00 0.000000000000D+00 0.199464977621D-06 0.000000000000D+00  7 -2 1 -24 -11 11 23 21 2 0.25395201D-01 0.11124895D+00 0.48232329D+05 0.48232329D+05 0.48232329D+05 0.11486729D+01  1  2 12  2  7  2        1 0.218128736794D-02 0.100000000000D+01
-.338662211382D-04 0.000000000000D+00 0.000000000000D+00 0.199464977621D-06 0.000000000000D+00  7 -2 1 -24 -11 11 23 21 2 0.25395201D-01 0.10557839D+00 0.42720726D+05 0.42720726D+05 0.42720726D+05 0.11533547D+01  1  2  4  2  7  2        1 -.187297214106D-02 0.100000000000D+01
-.192530030268D-03 0.000000000000D+00 -.394691731279D-04 0.199464977621D-06 0.000000000000D+00  7 -2 1 -24 -11 11 23 21 2 0.25395201D-01 0.11249736D+00 0.42720726D+05 0.42720726D+05 0.42720726D+05 0.11533547D+01  1  2  5  2  7  2        1 -.968828544583D-02 0.100000000000D+01
0.194722338966D-03 0.000000000000D+00 0.393897916109D-04 0.199464977621D-06 0.000000000000D+00  7 -2 1 -24 -11 11 23 21 2 0.25395201D-01 0.10557839D+00 0.42720726D+05 0.42720726D+05 0.42720726D+05 0.11533547D+01  1  2  6  2  7  2        1 0.107691234471D-01 0.100000000000D+01
0.477960193056D-06 0.000000000000D+00 0.000000000000D+00 0.199464977621D-06 0.000000000000D+00  7 -2 21 -24 -11 11 23 -1 2 0.25395201D-01 0.11124895D+00 0.48232329D+05 0.48232329D+05 0.48232329D+05 0.11486729D+01  1  2 12  4  7  2        1 0.507894027680D-04 0.100000000000D+01
-.203340966419D-05 0.000000000000D+00 -.428132333375D-06 0.199464977621D-06 0.000000000000D+00  7 -2 21 -24 -11 11 23 -1 2 0.25395201D-01 0.11249736D+00 0.42720726D+05 0.42720726D+05 0.42720726D+05 0.11533547D+01  1  2  5  4  7  2        1 -.212934578238D-03 0.100000000000D+01
  </mgrwgt>
  </event>
  <event>
  8     66 0.26562228E-05 0.23425952E+03 0.75467711E-02 0.96947192E-01
       -2 -1    0    0    0  501 0.00000000E+00 0.00000000E+00 0.36745316E+03 0.36745330E+03 0.32000000E+00 0.0000E+00 0.9000E+01
        1 -1    0    0  501    0 0.00000000E+00 0.00000000E+00 -.34540294E+03 0.34540309E+03 0.32000000E+00 0.0000E+00 0.9000E+01
       25  2    1    2    0    0 -.25840947E+03 0.10815761E+03 -.13334279E+02 0.41927027E+03 0.31166686E+03 0.0000E+00 0.0000E+00
       23  2    3    3    0    0 -.83599460E+02 -.67609538E+02 0.43541625E+02 0.14908006E+03 0.93643321E+02 0.0000E+00 0.0000E+00
      -24  1    1    2    0    0 0.25840947E+03 -.10815761E+03 0.35384496E+02 0.29358611E+03 0.80419002E+02 0.0000E+00 0.9000E+01
      -11  1    4    4    0    0 -.91833276E+02 -.25550487E+02 0.12446947E+02 0.96130663E+02 0.51099893E-03 0.0000E+00 0.9000E+01
       11  1    4    4    0    0 0.82338156E+01 -.42059052E+02 0.31094679E+02 0.52949396E+02 0.51099893E-03 0.0000E+00 0.9000E+01
       23  1    3    3    0    0 -.17481001E+03 0.17576715E+03 -.56875904E+02 0.27019021E+03 0.91188000E+02 0.0000E+00 0.9000E+01
#aMCatNLO 1  0  0  2  1 0.11643002D+03 0.00000000D+00  -5  7  0 0.00000000D+00 0.00000000D+00 0.00000000D+00 0.00000000D+00 0.00000000D+00
  <mgrwgt>
 0.8786573236D-03    9    2    0
 0.356257635567382D+03 0.000000000000000D+00 0.000000000000000D+00 0.356257635567382D+03
 0.356257635567382D+03 0.000000000000000D+00 0.000000000000000D+00 -.356257635567382D+03
 0.292631618432614D+03 0.258409474172417D+03 -.108157612931300D+03 0.263158236629358D+02
 0.957914897108357D+02 -.918332763195457D+02 -.255504862180055D+02 0.947794890588859D+01
 0.520124579090883D+02 0.823381556759745D+01 -.420590512417019D+02 0.294709393740912D+02
 0.272079705082226D+03 -.174810013420469D+03 0.175767150391007D+03 -.652647119429156D+02
 0.000000000000000D+00 -.000000000000000D+00 -.000000000000000D+00 -.000000000000000D+00
 0.398108540619293D+03 0.000000000000000D+00 0.000000000000000D+00 0.398108540619293D+03
 0.452266387078080D+03 0.000000000000000D+00 0.000000000000000D+00 -.452266387078080D+03
 0.307969687817020D+03 0.287886648143257D+03 -.693315794247036D+02 0.263158236629358D+02
 0.846625983710434D+02 -.829766912725462D+02 -.138849830008726D+02 0.947794890588859D+01
 0.480419813808144D+02 0.131444311170706D+02 -.355910050154774D+02 0.294709393740912D+02
 0.281291077910168D+03 -.147650886940202D+03 0.211539953977125D+03 -.652647119429156D+02
 0.128409582218327D+03 -.704035010475787D+02 -.927323865360713D+02 -.541578464587868D+02
0.263914546932D-04 0.000000000000D+00 0.000000000000D+00 0.199030843005D-08 0.000000000000D+00  7 -2 1 -24 -11 11 23 21 0 0.56531277D-01 0.53138936D-01 0.12032606D+06 0.12032606D+06 0.12032606D+06 0.11151867D+01  1  2  2  2  7  2        1 0.639643081039D-03 0.100000000000D+01
-.146492355745D-05 0.000000000000D+00 -.101350135052D-06 0.199030843005D-08 0.000000000000D+00  7 -2 1 -24 -11 11 23 21 2 0.56531277D-01 0.53138936D-01 0.12032606D+06 0.12032606D+06 0.12032606D+06 0.11151867D+01  1  2  3  2  7  2        1 -.441554653993D-04 0.100000000000D+01
0.170534202139D-05 0.000000000000D+00 0.000000000000D+00 0.199030843005D-08 0.000000000000D+00  7 -2 1 -24 -11 11 23 21 2 0.56531277D-01 0.53138936D-01 0.12032606D+06 0.12032606D+06 0.12032606D+06 0.11151867D+01  1  2 15  2  7  2        1 0.514021159919D-04 0.100000000000D+01
0.205663756385D-04 0.000000000000D+00 0.000000000000D+00 0.199030843005D-08 0.000000000000D+00  7 -2 1 -24 -11 11 23 21 2 0.56531277D-01 0.69923238D-01 0.16767364D+06 0.16767364D+06 0.16767364D+06 0.11037547D+01  1  2 12  2  7  2        1 0.417179654515D-03 0.100000000000D+01
-.222197098683D-04 0.000000000000D+00 0.000000000000D+00 0.199030843005D-08 0.000000000000D+00  7 -2 1 -24 -11 11 23 21 2 0.56531277D-01 0.53138936D-01 0.12032606D+06 0.12032606D+06 0.12032606D+06 0.11151867D+01  1  2  4  2  7  2        1 -.669742544097D-03 0.100000000000D+01
-.398358608562D-04 0.000000000000D+00 -.133162128722D-04 0.199030843005D-08 0.000000000000D+00  7 -2 1 -24 -11 11 23 21 2 0.56531277D-01 0.73918189D-01 0.12032606D+06 0.12032606D+06 0.12032606D+06 0.11151867D+01  1  2  5  2  7  2        1 -.769846982774D-03 0.100000000000D+01
0.425840996878D-04 0.000000000000D+00 0.126224525641D-04 0.199030843005D-08 0.000000000000D+00  7 -2 1 -24 -11 11 23 21 2 0.56531277D-01 0.53138936D-01 0.12032606D+06 0.12032606D+06 0.12032606D+06 0.11151867D+01  1  2  6  2  7  2        1 0.128356236116D-02 0.100000000000D+01
0.745371828619D-06 0.000000000000D+00 0.000000000000D+00 0.199030843005D-08 0.000000000000D+00  7 -2 21 -24 -11 11 23 -1 2 0.56531277D-01 0.69923238D-01 0.16767364D+06 0.16767364D+06 0.16767364D+06 0.11037547D+01  1  2 12  4  7  2        1 0.491484182161D-04 0.100000000000D+01
-.130425769568D-05 0.000000000000D+00 -.551417249490D-06 0.199030843005D-08 0.000000000000D+00  7 -2 21 -24 -11 11 23 -1 2 0.56531277D-01 0.73918189D-01 0.12032606D+06 0.12032606D+06 0.12032606D+06 0.11151867D+01  1  2  5  4  7  2        1 -.785333150775D-04 0.100000000000D+01
  </mgrwgt>
  </event>
  <event>
  8     66 0.26562228E-05 0.37644207E+03 0.75467711E-02 0.93116300E-01
       -2 -1    0    0    0  501 0.00000000E+00 0.00000000E+00 0.15620561E+03 0.15620594E+03 0.32000000E+00 0.0000E+00 0.9000E+01
        1 -1    0    0  501    0 0.00000000E+00 0.00000000E+00 -.11645382E+04 0.11645382E+04 0.32000000E+00 0.0000E+00 0.9000E+01
       25  2    1    2    0    0 0.32687509E+03 -.38775800E+02 -.81946429E+03 0.93281462E+03 0.30045050E+03 0.0000E+00 0.0000E+00
       23  2    3    3    0    0 0.23639782E+03 -.97338751E+02 -.68660040E+03 0.73894915E+03 0.96265111E+02 0.0000E+00 0.0000E+00
      -24  1    1    2    0    0 -.32687509E+03 0.38775800E+02 -.18886826E+03 0.38792954E+03 0.80419002E+02 0.0000E+00 0.9000E+01
      -13  1    4    4    0    0 0.24546123E+03 -.90949145E+02 -.66504710E+03 0.71471017E+03 0.10565837E+00 0.0000E+00 0.9000E+01
       13  1    4    4    0    0 -.90634082E+01 -.63896058E+01 -.21553299E+02 0.24238983E+02 0.10565837E+00 0.0000E+00 0.9000E+01
       23  1    3    3    0    0 0.90477268E+02 0.58562951E+02 -.13286389E+03 0.19386547E+03 0.91188000E+02 0.0000E+00 0.9000E+01
#aMCatNLO 1  0  0  2  1 0.32946089D+03 0.00000000D+00  -5  7  0 0.00000000D+00 0.00000000D+00 0.00000000D+00 0.00000000D+00 0.00000000D+00
  <mgrwgt>
 0.1633954759D-02    3    2    0
 0.426506325708426D+03 0.000000000000000D+00 0.000000000000000D+00 0.426506325708426D+03
 0.426506325708426D+03 0.000000000000000D+00 0.000000000000000D+00 -.426506325708426D+03
 0.377384379035481D+03 -.326875092229504D+03 0.387757999375354D+02 0.166135080596433D+03
 0.320465292668323D+03 0.245461536808799D+03 -.909492483473968D+02 -.184864469213258D+03
 0.120517374373860D+02 -.906371367433898D+01 -.638950399321538D+01 -.471886728039432D+01
 0.143111242275663D+03 0.904772690950431D+02 0.585629524030767D+02 0.234482558972198D+02
 0.000000000000000D+00 0.000000000000000D+00 -.000000000000000D+00 0.000000000000000D+00
 0.816105100797892D+03 0.000000000000000D+00 0.000000000000000D+00 0.816105100797892D+03
 0.532823848959305D+03 0.000000000000000D+00 0.000000000000000D+00 -.532823848959305D+03
 0.424291573077705D+03 -.332522702377080D+03 0.188106114811410D+03 0.166135080596433D+03
 0.304852130887366D+03 0.241056329171698D+03 0.255302936789644D+02 -.184864469213258D+03
 0.105856450106509D+02 -.922318847271744D+01 -.217277846967317D+01 -.471886728039432D+01
 0.174696732461361D+03 0.882383899838830D+02 0.117761890342789D+03 0.234482558972198D+02
 0.434502868320114D+03 0.124511716942166D+02 -.329225520363490D+03 0.283281251838587D+03
0.866527519166D-04 0.000000000000D+00 0.000000000000D+00 0.377602005657D-06 0.000000000000D+00  7 -2 1 -24 -13 13 23 21 0 0.24031662D-01 0.17915975D+00 0.14170863D+06 0.14170863D+06 0.14170863D+06 0.11095060D+01  1  2  2  2  7  2        1 0.161415543157D-02 0.100000000000D+01
-.472278626613D-05 0.000000000000D+00 -.332769383553D-06 0.377602005657D-06 0.000000000000D+00  7 -2 1 -24 -13 13 23 21 2 0.24031662D-01 0.17915975D+00 0.14170863D+06 0.14170863D+06 0.14170863D+06 0.11095060D+01  1  2  3  2  7  2        1 -.108298032827D-03 0.100000000000D+01
0.558621833006D-05 0.000000000000D+00 0.000000000000D+00 0.377602005657D-06 0.000000000000D+00  7 -2 1 -24 -13 13 23 21 2 0.24031662D-01 0.17915975D+00 0.14170863D+06 0.14170863D+06 0.14170863D+06 0.11095060D+01  1  2 15  2  7  2        1 0.128097360752D-03 0.100000000000D+01
  </mgrwgt>
  </event>
  <event>
  8     66 0.26562228E-05 0.38585399E+03 0.75467711E-02 0.87027553E-01
       -2 -1    0    0    0  501 0.00000000E+00 0.00000000E+00 0.45913253E+03 0.45913264E+03 0.32000000E+00 0.0000E+00 0.9000E+01
        1 -1    0    0  501    0 0.00000000E+00 0.00000000E+00 -.16172100E+04 0.16172100E+04 0.32000000E+00 0.0000E+00 0.9000E+01
       25  2    1    2    0    0 0.52730115E+03 0.64414493E+03 -.64641163E+03 0.10959150E+04 0.30035402E+03 0.0000E+00 0.0000E+00
       23  2    3    3    0    0 0.41476598E+03 0.34460441E+03 -.34293278E+03 0.64557809E+03 0.91570489E+02 0.0000E+00 0.0000E+00
      -24  1    1    2    0    0 -.52730115E+03 -.64414493E+03 -.51166582E+03 0.98042762E+03 0.80419002E+02 0.0000E+00 0.9000E+01
      -13  1    4    4    0    0 0.68069469E+02 0.20898801E+02 -.29644501E+02 0.77129891E+02 0.10565837E+00 0.0000E+00 0.9000E+01
       13  1    4    4    0    0 0.34669651E+03 0.32370561E+03 -.31328828E+03 0.56844820E+03 0.10565837E+00 0.0000E+00 0.9000E+01
       23  1    3    3    0    0 0.11253517E+03 0.29954052E+03 -.30347885E+03 0.45033693E+03 0.91188000E+02 0.0000E+00 0.9000E+01
#aMCatNLO 1  0  0  2  1 0.32824188D+03 0.00000000D+00  -5  7  0 0.00000000D+00 0.00000000D+00 0.00000000D+00 0.00000000D+00 0.00000000D+00
  <mgrwgt>
 0.1337581323D-02    9    2    0
 0.861692431379633D+03 0.000000000000000D+00 0.000000000000000D+00 0.861692431379633D+03
 0.861692431379633D+03 0.000000000000000D+00 0.000000000000000D+00 -.861692431379633D+03
 0.837395676476306D+03 -.527301149064545D+03 -.644144933462385D+03 0.423686902888040D+02
 0.730054758570647D+02 0.680690977104381D+02 0.208983976808249D+02 0.161137958401303D+02
 0.474346782333831D+03 0.346696885831159D+03 0.323706016932449D+03 0.453363729958780D+01
 0.338636928092066D+03 0.112535165522948D+03 0.299540518849112D+03 -.630161234285221D+02
 0.000000000000000D+00 0.000000000000000D+00 -.000000000000000D+00 -.000000000000000D+00
 0.102291046395578D+04 0.000000000000000D+00 0.000000000000000D+00 0.102291046395578D+04
 0.106201838661088D+04 0.000000000000000D+00 0.000000000000000D+00 -.106201838661088D+04
 0.825010191743149D+03 -.629680311112036D+03 -.525244895650361D+03 0.423686902888040D+02
 0.688747412476344D+02 0.593314133603143D+02 0.310460779200647D+02 0.161137958401303D+02
 0.486508451376020D+03 0.287522675996636D+03 0.392429140330917D+03 0.453363729958780D+01
 0.373972062087242D+03 0.686491851635268D+02 0.350508358591075D+03 -.630161234285221D+02
 0.330563404112619D+03 0.214177036591559D+03 -.248738681191695D+03 -.391079226550972D+02
0.782895687916D-03 0.000000000000D+00 0.000000000000D+00 0.213483471480D-04 0.000000000000D+00  7 -2 1 -24 -13 13 23 21 0 0.70635784D-01 0.24880154D+00 0.73494206D+06 0.73494206D+06 0.73494206D+06 0.10568848D+01  1  2  2  2  7  2        1 0.847308743671D-03 0.100000000000D+01
-.434928159277D-04 0.000000000000D+00 -.300652558277D-05 0.213483471480D-04 0.000000000000D+00  7 -2 1 -24 -13 13 23 21 2 0.70635784D-01 0.24880154D+00 0.73494206D+06 0.73494206D+06 0.73494206D+06 0.10568848D+01  1  2  3  2  7  2        1 -.525787930082D-04 0.100000000000D+01
0.511370711598D-04 0.000000000000D+00 0.000000000000D+00 0.213483471480D-04 0.000000000000D+00  7 -2 1 -24 -13 13 23 21 2 0.70635784D-01 0.24880154D+00 0.73494206D+06 0.73494206D+06 0.73494206D+06 0.10568848D+01  1  2 15  2  7  2        1 0.618199907780D-04 0.100000000000D+01
0.359451477858D-03 0.000000000000D+00 0.000000000000D+00 0.213483471480D-04 0.000000000000D+00  7 -2 1 -24 -13 13 23 21 2 0.70635784D-01 0.32524267D+00 0.10756164D+07 0.10756164D+07 0.10756164D+07 0.10457631D+01  1  2 12  2  7  2        1 0.192031865592D-03 0.100000000000D+01
-.377649307312D-03 0.000000000000D+00 0.000000000000D+00 0.213483471480D-04 0.000000000000D+00  7 -2 1 -24 -13 13 23 21 2 0.70635784D-01 0.24880154D+00 0.73494206D+06 0.73494206D+06 0.73494206D+06 0.10568848D+01  1  2  4  2  7  2        1 -.456543094195D-03 0.100000000000D+01
-.947596678704D-03 0.000000000000D+00 -.339809469031D-03 0.213483471480D-04 0.000000000000D+00  7 -2 1 -24 -13 13 23 21 2 0.70635784D-01 0.33469785D+00 0.73494206D+06 0.73494206D+06 0.73494206D+06 0.10568848D+01  1  2  5  2  7  2        1 -.481574696641D-03 0.100000000000D+01
0.101770484616D-02 0.000000000000D+00 0.325394199310D-03 0.213483471480D-04 0.000000000000D+00  7 -2 1 -24 -13 13 23 21 2 0.70635784D-01 0.24880154D+00 0.73494206D+06 0.73494206D+06 0.73494206D+06 0.10568848D+01  1  2  6  2  7  2        1 0.123031105962D-02 0.100000000000D+01
0.127990288543D-04 0.000000000000D+00 0.000000000000D+00 0.213483471480D-04 0.000000000000D+00  7 -2 21 -24 -13 13 23 -1 2 0.70635784D-01 0.32524267D+00 0.10756164D+07 0.10756164D+07 0.10756164D+07 0.10457631D+01  1  2 12  4  7  2        1 0.296932232415D-05 0.100000000000D+01
-.288424170158D-04 0.000000000000D+00 -.130267754255D-04 0.213483471480D-04 0.000000000000D+00  7 -2 21 -24 -13 13 23 -1 2 0.70635784D-01 0.33469785D+00 0.73494206D+06 0.73494206D+06 0.73494206D+06 0.10568848D+01  1  2  5  4  7  2        1 -.616307488777D-05 0.100000000000D+01
  </mgrwgt>
  </event>
  <event>
  8     66 0.26562228E-05 0.47902357E+03 0.75467711E-02 0.93296812E-01
       -2 -1    0    0    0  501 0.00000000E+00 0.00000000E+00 0.12015049E+03 0.12015092E+03 0.32000000E+00 0.0000E+00 0.9000E+01
        1 -1    0    0  501    0 0.00000000E+00 0.00000000E+00 -.23118666E+04 0.23118666E+04 0.32000000E+00 0.0000E+00 0.9000E+01
       25  2    1    2    0    0 -.29099416E+03 0.31509640E+03 -.68041042E+03 0.85897099E+03 0.30151199E+03 0.0000E+00 0.0000E+00
       23  2    3    3    0    0 0.20434049E+02 0.10969124E+03 -.20064359E+03 0.24442215E+03 0.83872649E+02 0.0000E+00 0.0000E+00
      -24  1    1    2    0    0 0.29099416E+03 -.31509640E+03 -.15113056E+04 0.15730465E+04 0.80419002E+02 0.0000E+00 0.9000E+01
      -11  1    4    4    0    0 -.27839755E+02 0.15726856E+02 -.65514960E+02 0.72901275E+02 0.51099893E-03 0.0000E+00 0.9000E+01
       11  1    4    4    0    0 0.48273803E+02 0.93964383E+02 -.13512863E+03 0.17152088E+03 0.51099893E-03 0.0000E+00 0.9000E+01
       23  1    3    3    0    0 -.31142821E+03 0.20540516E+03 -.47976683E+03 0.61454883E+03 0.91188000E+02 0.0000E+00 0.9000E+01
#aMCatNLO 1  0  0  2  1 0.15600741D+03 0.00000000D+00  -5  7  0 0.00000000D+00 0.00000000D+00 0.00000000D+00 0.00000000D+00 0.00000000D+00
  <mgrwgt>
 0.2914572522D-02    4    2    0
 0.527041220410294D+03 0.000000000000000D+00 0.000000000000000D+00 0.527041220410294D+03
 0.527041220410294D+03 0.000000000000000D+00 0.000000000000000D+00 -.527041220410294D+03
 0.486986353684973D+03 0.290994157239112D+03 -.315096401647602D+03 -.216160012126310D+03
 0.319775617657291D+02 -.278397547868067D+02 0.157268556878978D+02 0.422516347059082D+00
 0.114771089902772D+03 0.482738033407102D+02 0.939643828227334D+02 0.448635458834393D+02
 0.420347435467113D+03 -.311428205793016D+03 0.205405163136971D+03 0.170873949895812D+03
 0.000000000000000D+00 -.000000000000000D+00 -.000000000000000D+00 0.000000000000000D+00
 0.988297544225909D+03 0.000000000000000D+00 0.000000000000000D+00 0.988297544225909D+03
 0.546139919055098D+03 0.000000000000000D+00 0.000000000000000D+00 -.546139919055098D+03
 0.482770222155971D+03 0.335573314909887D+03 -.259355491409181D+03 -.216160012126310D+03
 0.315701848274131D+02 -.249185010561562D+02 0.193795344393985D+02 0.422516347059082D+00
 0.131344560970710D+03 0.595875996880256D+02 0.108110933354461D+03 0.448635458834393D+02
 0.419879720579252D+03 -.272803441803995D+03 0.253700815522159D+03 0.170873949895812D+03
 0.468872774747661D+03 -.974389717377622D+02 -.121835791906838D+03 0.442157625170812D+03
0.622987221867D-03 0.000000000000D+00 0.000000000000D+00 0.573762835517D-07 0.000000000000D+00  7 -2 1 -24 -11 11 23 21 0 0.18484726D-01 0.35567181D+00 0.22946358D+06 0.22946358D+06 0.22946358D+06 0.10932707D+01  1  2  2  2  7  2        1 0.301386234617D-02 0.100000000000D+01
-.342263773333D-04 0.000000000000D+00 -.239243496827D-05 0.573762835517D-07 0.000000000000D+00  7 -2 1 -24 -11 11 23 21 2 0.18484726D-01 0.35567181D+00 0.22946358D+06 0.22946358D+06 0.22946358D+06 0.10932707D+01  1  2  3  2  7  2        1 -.197906767192D-03 0.100000000000D+01
0.398763214717D-04 0.000000000000D+00 0.000000000000D+00 0.573762835517D-07 0.000000000000D+00  7 -2 1 -24 -11 11 23 21 2 0.18484726D-01 0.35567181D+00 0.22946358D+06 0.22946358D+06 0.22946358D+06 0.10932707D+01  1  2 15  2  7  2        1 0.230576370766D-03 0.100000000000D+01
-.228213175418D-04 0.000000000000D+00 0.000000000000D+00 0.573762835517D-07 0.000000000000D+00  7 -2 1 -24 -11 11 23 21 2 0.18484726D-01 0.35567181D+00 0.22946358D+06 0.22946358D+06 0.22946358D+06 0.10932707D+01  1  2  4  2  7  2        1 -.131959428068D-03 0.100000000000D+01
  </mgrwgt>
  </event>
  <event>
  8     66 0.26562228E-05 0.31549802E+03 0.75467711E-02 0.76763126E-01
       -2 -1    0    0    0  501 0.00000000E+00 0.00000000E+00 0.37246310E+03 0.37246324E+03 0.32000000E+00 0.0000E+00 0.9000E+01
        1 -1    0    0  501    0 0.00000000E+00 0.00000000E+00 -.27817306E+03 0.27817325E+03 0.32000000E+00 0.0000E+00 0.9000E+01
       25  2    1    2    0    0 -.28762260E+01 -.23642046E+03 -.41146706E+01 0.38220845E+03 0.30027232E+03 0.0000E+00 0.0000E+00
       23  2    3    3    0    0 0.11462225E+03 -.14924295E+03 -.13169397E+02 0.20957286E+03 0.91299680E+02 0.0000E+00 0.0000E+00
      -24  1    1    2    0    0 0.28762260E+01 0.23642046E+03 0.98404708E+02 0.26842803E+03 0.80419002E+02 0.0000E+00 0.9000E+01
      -13  1    4    4    0    0 0.11319304E+03 -.77687371E+02 -.33181477E+01 0.13732812E+03 0.10565837E+00 0.0000E+00 0.9000E+01
       13  1    4    4    0    0 0.14292080E+01 -.71555578E+02 -.98512492E+01 0.72244735E+02 0.10565837E+00 0.0000E+00 0.9000E+01
       23  1    3    3    0    0 -.11749847E+03 -.87177508E+02 0.90547263E+01 0.17263559E+03 0.91188000E+02 0.0000E+00 0.9000E+01
#aMCatNLO 1  0  0  2  2 0.34825788D+04 0.00000000D+00  -5  7  0 0.00000000D+00 0.00000000D+00 0.00000000D+00 0.00000000D+00 0.00000000D+00
  <mgrwgt>
 0.1331629419D-02    3    2    0
 0.321883992980616D+03 0.000000000000000D+00 0.000000000000000D+00 0.321883992980616D+03
 0.321883992980616D+03 0.000000000000000D+00 0.000000000000000D+00 -.321883992980616D+03
 0.256879015167752D+03 0.287622595659543D+01 0.236420457763619D+03 0.601390634635338D+02
 0.139279385616369D+03 0.113193188063758D+03 -.776873791105219D+02 -.234674361738543D+02
 0.744583137663430D+02 0.142905851110702D+01 -.715555699713674D+02 -.205377381123572D+02
 0.173151271410769D+03 -.117498472531461D+03 -.871775086817299D+02 -.161338891773223D+02
 0.000000000000000D+00 0.000000000000000D+00 0.000000000000000D+00 0.000000000000000D+00
 0.550387165591923D+04 0.000000000000000D+00 0.000000000000000D+00 0.550387165591923D+04
 0.258301166673623D+04 0.000000000000000D+00 0.000000000000000D+00 -.258301166673623D+04
 0.677984707113373D+03 -.639061315444576D+03 -.202928497932675D+03 0.601390634635338D+02
 0.498264870599621D+03 -.324585690948792D+03 -.377307951074952D+03 -.234674361738543D+02
 0.621868749759748D+03 -.476713875605892D+03 -.398801735259251D+03 -.205377381123572D+02
 0.174346213883059D+04 -.143356847403364D+04 -.987909968604737D+03 -.161338891773223D+02
 0.454530285635213D+04 0.287392935603290D+04 0.196694815287161D+04 0.292085998918300D+04
0.418789238391D-04 0.000000000000D+00 0.000000000000D+00 0.338121903764D-05 0.000000000000D+00  7 -2 1 -24 -13 13 23 21 0 0.57302040D-01 0.42795880D-01 0.99538998D+05 0.99538998D+05 0.99538998D+05 0.11218868D+01  1  2  2  2  7  2        1 0.131645522280D-02 0.100000000000D+01
-.232547095777D-05 0.000000000000D+00 -.160826094516D-06 0.338121903764D-05 0.000000000000D+00  7 -2 1 -24 -13 13 23 21 2 0.57302040D-01 0.42795880D-01 0.99538998D+05 0.99538998D+05 0.99538998D+05 0.11218868D+01  1  2  3  2  7  2        1 -.920067185804D-04 0.100000000000D+01
0.270899894712D-05 0.000000000000D+00 0.000000000000D+00 0.338121903764D-05 0.000000000000D+00  7 -2 1 -24 -13 13 23 21 2 0.57302040D-01 0.42795880D-01 0.99538998D+05 0.99538998D+05 0.99538998D+05 0.11218868D+01  1  2 15  2  7  2        1 0.107180914442D-03 0.100000000000D+01
  </mgrwgt>
  </event>
  <event>
  8     66 0.26562228E-05 0.87804762E+02 0.75467711E-02 0.10406664E+00
       -2 -1    0    0    0  501 0.00000000E+00 0.00000000E+00 0.51349237E+02 0.51350234E+02 0.32000000E+00 0.0000E+00 0.9000E+01
        1 -1    0    0  501    0 0.00000000E+00 0.00000000E+00 -.70526145E+03 0.70526152E+03 0.32000000E+00 0.0000E+00 0.9000E+01
       25  2    1    2    0    0 0.45129923E+01 -.23120312E+02 -.55665923E+03 0.62823624E+03 0.29026945E+03 0.0000E+00 0.0000E+00
       23  2    3    3    0    0 -.32538426E+02 -.98688969E+02 -.42618361E+03 0.44817356E+03 0.91808526E+02 0.0000E+00 0.0000E+00
      -24  1    1    2    0    0 -.45129923E+01 0.23120312E+02 -.97252978E+02 0.12837552E+03 0.80419002E+02 0.0000E+00 0.9000E+01
      -11  1    4    4    0    0 0.19163572E+02 0.70324950E+01 -.49847497E+02 0.53865308E+02 0.51099893E-03 0.0000E+00 0.9000E+01
       11  1    4    4    0    0 -.51701998E+02 -.10572146E+03 -.37633612E+03 0.39430825E+03 0.51099893E-03 0.0000E+00 0.9000E+01
       23  1    3    3    0    0 0.37051418E+02 0.75568657E+02 -.13047562E+03 0.18006268E+03 0.91188000E+02 0.0000E+00 0.9000E+01
#aMCatNLO 1  0  0  2  1 0.10836778D+03 0.00000000D+00  -5  7  0 0.00000000D+00 0.00000000D+00 0.00000000D+00 0.00000000D+00 0.00000000D+00
  <mgrwgt>
 0.1074977559D-01    9    2    0
 0.190302501903587D+03 0.000000000000000D+00 0.000000000000000D+00 0.190302501903587D+03
 0.190302501903587D+03 0.000000000000000D+00 0.000000000000000D+00 -.190302501903587D+03
 0.881171268977177D+02 -.451484817137017D+01 0.231298202522527D+02 0.272404049056895D+02
 0.214382889828556D+02 0.191642353691290D+02 0.703206277879501D+01 -.654846625586022D+01
 0.137275866083539D+03 -.517000699796720D+02 -.105722266145837D+03 -.706722619849663D+02
 0.133773721843060D+03 0.370506827819132D+02 0.755603831147890D+02 0.499803233351370D+02
 0.000000000000000D+00 0.000000000000000D+00 -.000000000000000D+00 -.000000000000000D+00
 0.225008836291753D+03 0.000000000000000D+00 0.000000000000000D+00 0.225008836291753D+03
 0.306030364219194D+03 0.000000000000000D+00 0.000000000000000D+00 -.306030364219194D+03
 0.972561933576444D+02 -.224560033035945D+02 0.417760631013983D+02 0.272404049056895D+02
 0.199498316749750D+02 0.151585311376331D+02 0.111951912580850D+02 -.654846625586022D+01
 0.131246812401313D+03 -.776887452894772D+02 -.787122354324942D+02 -.706722619849663D+02
 0.147279071820856D+03 0.984929390608585D+01 0.103830787058944D+03 0.499803233351370D+02
 0.135307291256159D+03 0.751369235493529D+02 -.780898059859328D+02 -.810215279274409D+02
0.431227908933D-04 0.000000000000D+00 0.000000000000D+00 0.214381542639D-08 0.000000000000D+00  7 -2 1 -24 -11 11 23 21 0 0.78999650D-02 0.10850184D+00 0.29926776D+05 0.29926776D+05 0.29926776D+05 0.11674344D+01  1  2  2  2  7  2        1 0.108581994142D-01 0.100000000000D+01
-.236922238379D-05 0.000000000000D+00 -.165602871522D-06 0.214381542639D-08 0.000000000000D+00  7 -2 1 -24 -11 11 23 21 2 0.78999650D-02 0.10850184D+00 0.29926776D+05 0.29926776D+05 0.29926776D+05 0.11674344D+01  1  2  3  2  7  2        1 -.813058424366D-03 0.100000000000D+01
0.269107637697D-05 0.000000000000D+00 0.000000000000D+00 0.214381542639D-08 0.000000000000D+00  7 -2 1 -24 -11 11 23 21 2 0.78999650D-02 0.10850184D+00 0.29926776D+05 0.29926776D+05 0.29926776D+05 0.11674344D+01  1  2 15  2  7  2        1 0.923510740858D-03 0.100000000000D+01
0.978592788201D-05 0.000000000000D+00 0.000000000000D+00 0.214381542639D-08 0.000000000000D+00  7 -2 1 -24 -11 11 23 21 2 0.78999650D-02 0.17945141D+00 0.55156717D+05 0.55156717D+05 0.55156717D+05 0.11435646D+01  1  2 12  2  7  2        1 0.141278252981D-02 0.100000000000D+01
-.274779022033D-04 0.000000000000D+00 0.000000000000D+00 0.214381542639D-08 0.000000000000D+00  7 -2 1 -24 -11 11 23 21 2 0.78999650D-02 0.10850184D+00 0.29926776D+05 0.29926776D+05 0.29926776D+05 0.11674344D+01  1  2  4  2  7  2        1 -.942973526807D-02 0.100000000000D+01
-.295369202952D-04 0.000000000000D+00 -.146190453854D-04 0.214381542639D-08 0.000000000000D+00  7 -2 1 -24 -11 11 23 21 2 0.78999650D-02 0.19256946D+00 0.29926776D+05 0.29926776D+05 0.29926776D+05 0.11674344D+01  1  2  5  2  7  2        1 -.388847984881D-02 0.100000000000D+01
0.342465902463D-04 0.000000000000D+00 0.125042824659D-04 0.214381542639D-08 0.000000000000D+00  7 -2 1 -24 -11 11 23 21 2 0.78999650D-02 0.10850184D+00 0.29926776D+05 0.29926776D+05 0.29926776D+05 0.11674344D+01  1  2  6  2  7  2        1 0.117525813094D-01 0.100000000000D+01
0.554501641315D-06 0.000000000000D+00 0.000000000000D+00 0.214381542639D-08 0.000000000000D+00  7 -2 21 -24 -11 11 23 -1 2 0.78999650D-02 0.17945141D+00 0.55156717D+05 0.55156717D+05 0.55156717D+05 0.11435646D+01  1  2 12  4  7  2        1 0.937103619970D-04 0.100000000000D+01
-.110452497620D-05 0.000000000000D+00 -.922907227894D-06 0.214381542639D-08 0.000000000000D+00  7 -2 21 -24 -11 11 23 -1 2 0.78999650D-02 0.19256946D+00 0.29926776D+05 0.29926776D+05 0.29926776D+05 0.11674344D+01  1  2  5  4  7  2        1 -.159735229853D-03 0.100000000000D+01
  </mgrwgt>
  </event>
  <event>
  8     66 0.26562228E-05 0.27432310E+03 0.75467711E-02 0.87258985E-01
       -2 -1    0    0    0  501 0.00000000E+00 0.00000000E+00 0.43875082E+03 0.43875093E+03 0.32000000E+00 0.0000E+00 0.9000E+01
        1 -1    0    0  501    0 0.00000000E+00 0.00000000E+00 -.31147965E+04 0.31147965E+04 0.32000000E+00 0.0000E+00 0.9000E+01
       25  2    1    2    0    0 -.14127665E+03 -.18969160E+03 -.30665230E+04 0.30899941E+04 0.29758830E+03 0.0000E+00 0.0000E+00
       23  2    3    3    0    0 -.13219560E+03 -.96483707E+02 -.88736096E+03 0.90691549E+03 0.91112277E+02 0.0000E+00 0.0000E+00
      -24  1    1    2    0    0 0.14127665E+03 0.18969160E+03 0.39047724E+03 0.46355333E+03 0.80419002E+02 0.0000E+00 0.9000E+01
      -13  1    4    4    0    0 -.31740188E+02 -.47788564E+01 -.38912354E+03 0.39044515E+03 0.10565837E+00 0.0000E+00 0.9000E+01
       13  1    4    4    0    0 -.10045541E+03 -.91704850E+02 -.49823742E+03 0.51647034E+03 0.10565837E+00 0.0000E+00 0.9000E+01
       23  1    3    3    0    0 -.90810508E+01 -.93207897E+02 -.21791620E+04 0.21830787E+04 0.91188000E+02 0.0000E+00 0.9000E+01
#aMCatNLO 1  0  0  1  2 0.99683044D+03 0.00000000D+00  -5  7  0 0.00000000D+00 0.00000000D+00 0.00000000D+00 0.00000000D+00 0.00000000D+00
  <mgrwgt>
 0.2555674337D-02    3    2    0
 0.116902512906125D+04 0.000000000000000D+00 0.000000000000000D+00 0.116902512906125D+04
 0.116902512906125D+04 0.000000000000000D+00 0.000000000000000D+00 -.116902512906125D+04
 0.115146956568136D+04 0.141276648557825D+03 0.189691603516689D+03 0.112404312589134D+04
 0.148051905811641D+03 -.317400958078390D+02 -.477873945413707D+01 -.144530608459931D+03
 0.214707084569339D+03 -.100455501936007D+03 -.917049672300763D+02 -.166126527924895D+03
 0.823821702060169D+03 -.908105081397906D+01 -.932078968324758D+02 -.813385989506516D+03
 0.000000000000000D+00 0.000000000000000D+00 0.000000000000000D+00 -.000000000000000D+00
 0.168904618455069D+04 0.000000000000000D+00 0.000000000000000D+00 0.168904618455069D+04
 0.186485081106958D+04 0.000000000000000D+00 0.000000000000000D+00 -.186485081106958D+04
 0.115114278122091D+04 -.113758780416460D+03 -.205544345135625D+03 0.112404312589134D+04
 0.169995617229920D+03 -.669667750108042D+02 -.593705662785527D+02 -.144530608459931D+03
 0.289481430681298D+03 -.156299002664144D+03 -.178247292251816D+03 -.166126527924895D+03
 0.931062670465327D+03 -.203450584769363D+03 -.394428113376234D+03 -.813385989506516D+03
 0.101221449602281D+04 0.540475142860770D+03 0.837590317042228D+03 -.175804626518889D+03
0.164938107790D-01 0.000000000000D+00 0.000000000000D+00 0.724474492012D-05 0.000000000000D+00  7 -2 1 -24 -13 13 23 21 0 0.67500136D-01 0.47919948D+00 0.75253163D+05 0.75253163D+05 0.75253163D+05 0.11319977D+01  1  2  2  1  7  1       -2 0.214642301379D-02 0.100000000000D+01
0.142487255066D-02 0.000000000000D+00 -.633405763114D-04 0.724474492012D-05 0.000000000000D+00  7 -2 1 -24 -13 13 23 21 2 0.67500136D-01 0.47919948D+00 0.75253163D+05 0.75253163D+05 0.75253163D+05 0.11319977D+01  1  2  3  1  7  1       -2 0.237608188302D-03 0.100000000000D+01
0.102929782756D-02 0.000000000000D+00 0.000000000000D+00 0.724474492012D-05 0.000000000000D+00  7 -2 1 -24 -13 13 23 21 2 0.67500136D-01 0.47919948D+00 0.75253163D+05 0.75253163D+05 0.75253163D+05 0.11319977D+01  1  2 15  1  7  1       -2 0.171643135322D-03 0.100000000000D+01
  </mgrwgt>
  </event>
  <event>
  8     66 0.26562228E-05 0.17068316E+03 0.75467711E-02 0.10786112E+00
       -4 -1    0    0    0  501 0.00000000E+00 0.00000000E+00 0.85442830E+02 0.85456888E+02 0.15500000E+01 0.0000E+00 0.9000E+01
        3 -1    0    0  501    0 0.00000000E+00 0.00000000E+00 -.21996434E+04 0.21996435E+04 0.50000000E+00 0.0000E+00 0.9000E+01
       25  2    1    2    0    0 -.76741702E+02 0.12250628E+02 -.20412348E+03 0.37175222E+03 0.30082212E+03 0.0000E+00 0.0000E+00
       23  2    3    3    0    0 -.12046790E+01 -.75994355E+02 -.12754493E+01 0.12084268E+03 0.93940052E+02 0.0000E+00 0.0000E+00
      -24  1    1    2    0    0 0.76741702E+02 -.12250628E+02 -.19100771E+04 0.19133482E+04 0.80419002E+02 0.0000E+00 0.9000E+01
      -11  1    4    4    0    0 0.69986538E+01 -.18210519E+01 -.37287506E+02 0.37982305E+02 0.51099893E-03 0.0000E+00 0.9000E+01
       11  1    4    4    0    0 -.82033328E+01 -.74173303E+02 0.36012057E+02 0.82860375E+02 0.51099893E-03 0.0000E+00 0.9000E+01
       23  1    3    3    0    0 -.75537023E+02 0.88244983E+02 -.20284803E+03 0.25090954E+03 0.91188000E+02 0.0000E+00 0.9000E+01
#aMCatNLO 1  0  0  1  1 0.24545414D+02 0.00000000D+00  -5  7  0 0.00000000D+00 0.00000000D+00 0.00000000D+00 0.00000000D+00 0.00000000D+00
  <mgrwgt>
 0.1534023830D-04    4    2    0
 0.433543406711731D+03 0.000000000000000D+00 0.000000000000000D+00 0.433543406711731D+03
 0.433543406711731D+03 0.000000000000000D+00 0.000000000000000D+00 -.433543406711731D+03
 0.385089936125537D+03 0.767417023613449D+02 -.122506279891653D+02 -.368493793955004D+03
 0.918029379912295D+01 0.699865379303247D+01 -.182105188042758D+01 -.565512240117562D+01
 0.306175785145742D+03 -.820333280290526D+01 -.741733029546744D+02 0.296942145660279D+03
 0.166640798353061D+03 -.755370233514721D+02 0.882449828242673D+02 0.772067706959014D+02
 0.000000000000000D+00 -.000000000000000D+00 -.000000000000000D+00 -.000000000000000D+00
 0.436718217220905D+03 0.000000000000000D+00 0.000000000000000D+00 0.436718217220905D+03
 0.483904486664081D+03 0.000000000000000D+00 0.000000000000000D+00 -.483904486664081D+03
 0.385172446080550D+03 0.781079860759017D+02 -.143652118584130D+01 -.368493793955004D+03
 0.915766098162552D+01 0.703118147392928D+01 -.156359597172077D+01 -.565512240117562D+01
 0.304186196976808D+03 -.712067881976481D+01 -.656041194973992D+02 0.296942145660279D+03
 0.168917854469955D+03 -.749418127671026D+02 0.929560620541974D+02 0.772067706959014D+02
 0.531885453760481D+02 -.307667596296358D+01 -.243518253992362D+02 -.471862694431756D+02
0.130945846503D-03 0.000000000000D+00 0.000000000000D+00 0.959148359159D-06 0.000000000000D+00  7 -4 3 -24 -11 11 23 21 0 0.13146136D-01 0.33840777D+00 0.29132741D+05 0.29132741D+05 0.29132741D+05 0.11685198D+01  1  2  2  1  7  1       -4 0.164515461610D-04 0.100000000000D+01
0.411277852007D-06 0.000000000000D+00 -.502866529403D-06 0.959148359159D-06 0.000000000000D+00  7 -4 3 -24 -11 11 23 21 2 0.13146136D-01 0.33840777D+00 0.29132741D+05 0.29132741D+05 0.29132741D+05 0.11685198D+01  1  2  3  1  7  1       -4 0.705541335815D-07 0.100000000000D+01
0.824748997438D-05 0.000000000000D+00 0.000000000000D+00 0.959148359159D-06 0.000000000000D+00  7 -4 3 -24 -11 11 23 21 2 0.13146136D-01 0.33840777D+00 0.29132741D+05 0.29132741D+05 0.29132741D+05 0.11685198D+01  1  2 15  1  7  1       -4 0.141484523546D-05 0.100000000000D+01
-.151368618406D-04 0.000000000000D+00 0.000000000000D+00 0.959148359159D-06 0.000000000000D+00  7 -4 3 -24 -11 11 23 21 2 0.13146136D-01 0.33840777D+00 0.29132741D+05 0.29132741D+05 0.29132741D+05 0.11685198D+01  1  2  4  1  7  1       -4 -.259670723112D-05 0.100000000000D+01
  </mgrwgt>
  </event>
  <event>
  9     66 -.26562228E-05 0.58805747E+03 0.75467711E-02 0.92482692E-01
       -4 -1    0    0    0  502 0.00000000E+00 0.00000000E+00 0.61039668E+03 0.61039865E+03 0.15500000E+01 0.0000E+00 0.9000E+01
        3 -1    0    0  501    0 0.00000000E+00 0.00000000E+00 -.72403379E+03 0.72403396E+03 0.50000000E+00 0.0000E+00 0.9000E+01
       25  2    1    2    0    0 0.19115822E+03 -.54992582E+03 -.27558288E+03 0.71027146E+03 0.29929878E+03 0.0000E+00 0.0000E+00
       23  2    3    3    0    0 0.99436551E+02 -.91206125E+02 -.14710327E+03 0.21665331E+03 0.84220534E+02 0.0000E+00 0.0000E+00
      -24  1    1    2    0    0 -.21006794E+03 0.51824670E+03 0.16014777E+03 0.58721606E+03 0.80419002E+02 0.0000E+00 0.9000E+01
      -11  1    4    4    0    0 0.48611764E+02 -.45882304E+02 -.13040216E+03 0.14653673E+03 0.51099893E-03 0.0000E+00 0.9000E+01
       11  1    4    4    0    0 0.50824787E+02 -.45323822E+02 -.16701114E+02 0.70116582E+02 0.51099893E-03 0.0000E+00 0.9000E+01
       23  1    3    3    0    0 0.91721669E+02 -.45871970E+03 -.12847961E+03 0.49361816E+03 0.91188000E+02 0.0000E+00 0.9000E+01
       21  1    1    2  501  502 0.18909718E+02 0.31679122E+02 0.17979971E+01 0.36945088E+02 0.75000000E+00 0.0000E+00 0.9000E+01
#aMCatNLO 2  0  0  1  2 0.36893688D+02 0.00000000D+00  -5  7  0 0.00000000D+00 0.00000000D+00 0.00000000D+00 0.00000000D+00 0.00000000D+00
  <mgrwgt>
 -.4338853633D-04    3    2    0
 0.645907786812573D+03 0.000000000000000D+00 0.000000000000000D+00 0.645907786812573D+03
 0.645907786812573D+03 0.000000000000000D+00 0.000000000000000D+00 -.645907786812573D+03
 0.613738898774888D+03 -.201158099331774D+03 0.533173195333787D+03 0.213236916986316D+03
 0.135113955587185D+03 0.505917934094613D+02 -.425651938350323D+02 -.117832320302268D+03
 0.685645540069968D+02 0.518307206492009D+02 -.436385987597848D+02 -.105046257165775D+02
 0.474398165256077D+03 0.987355852731121D+02 -.446969402738970D+03 -.848999709674707D+02
 0.000000000000000D+00 0.000000000000000D+00 0.000000000000000D+00 0.000000000000000D+00
 0.667346337363539D+03 0.000000000000000D+00 0.000000000000000D+00 0.667346337363539D+03
 0.662241187267930D+03 0.000000000000000D+00 0.000000000000000D+00 -.662241187267930D+03
 0.603858739811943D+03 -.210067937317729D+03 0.518246698627346D+03 0.213236916986316D+03
 0.135472303570290D+03 0.486117635096688D+02 -.458823035091360D+02 -.117832320302268D+03
 0.689039545744443D+02 0.508247872432747D+02 -.453238215095281D+02 -.105046257165775D+02
 0.484107302077742D+03 0.917216685637237D+02 -.458719695485816D+03 -.848999709674707D+02
 0.372452245970498D+02 0.189097180010617D+02 0.316791218771340D+02 0.510515009560891D+01
-.767374584368D-03 0.000000000000D+00 0.000000000000D+00 0.240613863320D-06 0.000000000000D+00  7 -4 3 -24 -11 11 23 21 2 0.95022542D-01 0.10864206D+00 0.36808373D+06 0.36808373D+06 0.36808373D+06 0.10780407D+01  1  2 13  1  7  1       -4 -.161778287281D-03 0.100000000000D+01
-.398369720893D-03 0.000000000000D+00 0.000000000000D+00 0.240613863320D-06 0.000000000000D+00  7 -4 3 -24 -11 11 23 21 2 0.90890050D-01 0.10864206D+00 0.34581159D+06 0.34581159D+06 0.34581159D+06 0.10800150D+01  1  2  8  1  7  1       -4 -.952436835853D-04 0.100000000000D+01
0.104460679142D-02 0.000000000000D+00 0.000000000000D+00 0.240613863320D-06 0.109686434720D-08  7 -4 3 -24 -11 11 23 21 2 0.93906813D-01 0.11138935D+00 0.36808373D+06 0.36808373D+06 0.36808373D+06 0.10780407D+01  1  2  1  1  7  1       -4 0.213633434539D-03 0.100000000000D+01
  </mgrwgt>
  </event>
  <event>
  8     66 0.26562228E-05 0.80207532E+02 0.75467711E-02 0.10751850E+00
       -2 -1    0    0    0  501 0.00000000E+00 0.00000000E+00 0.67436114E+02 0.67436873E+02 0.32000000E+00 0.0000E+00 0.9000E+01
        1 -1    0    0  501    0 0.00000000E+00 0.00000000E+00 -.78187213E+03 0.78187220E+03 0.32000000E+00 0.0000E+00 0.9000E+01
       25  2    1    2    0    0 -.32942243E+02 -.15561310E+02 -.30085454E+03 0.42640932E+03 0.29997351E+03 0.0000E+00 0.0000E+00
       23  2    3    3    0    0 -.89851902E+02 0.38276742E+02 -.47464299E+02 0.14594700E+03 0.97515099E+02 0.0000E+00 0.0000E+00
      -24  1    1    2    0    0 0.32942243E+02 0.15561310E+02 -.41358148E+03 0.42289975E+03 0.80419002E+02 0.0000E+00 0.9000E+01
      -11  1    4    4    0    0 -.10842128E+03 0.20472555E+02 -.47733897E+02 0.12021990E+03 0.51099893E-03 0.0000E+00 0.9000E+01
       11  1    4    4    0    0 0.18569381E+02 0.17804187E+02 0.26959775E+00 0.25727100E+02 0.51099893E-03 0.0000E+00 0.9000E+01
       23  1    3    3    0    0 0.56909659E+02 -.53838052E+02 -.25339024E+03 0.28046231E+03 0.91188000E+02 0.0000E+00 0.9000E+01
#aMCatNLO 1  0  0  2  1 0.24592404D+02 0.00000000D+00  -5  7  0 0.00000000D+00 0.00000000D+00 0.00000000D+00 0.00000000D+00 0.00000000D+00
  <mgrwgt>
 0.1053924033D-02    9    2    0
 0.229623100692945D+03 0.000000000000000D+00 0.000000000000000D+00 0.229623100692945D+03
 0.229623100692945D+03 0.000000000000000D+00 0.000000000000000D+00 -.229623100692945D+03
 0.138694868297027D+03 0.329422426805784D+02 0.155613102218560D+02 -.106965904889886D+03
 0.148070986903662D+03 -.108421282569045D+03 0.204725548577035D+02 0.987457196353644D+02
 0.479979353588964D+02 0.185693803348295D+02 0.178041872626040D+02 0.405214860119341D+02
 0.124482410826306D+03 0.569096595536371D+02 -.538380523421634D+02 -.323013007574124D+02
 0.000000000000000D+00 0.000000000000000D+00 0.000000000000000D+00 -.000000000000000D+00
 0.232052256879428D+03 0.000000000000000D+00 0.000000000000000D+00 0.232052256879428D+03
 0.301944839485028D+03 0.000000000000000D+00 0.000000000000000D+00 -.301944839485028D+03
 0.137378933375968D+03 0.297455698508712D+02 0.890233938258932D+01 -.106965904889886D+03
 0.149807451259652D+03 -.111870432412536D+03 0.132876505989309D+02 0.987457196353644D+02
 0.467768662132131D+02 0.174719780051245D+02 0.155181947629843D+02 0.405214860119341D+02
 0.125940934636223D+03 0.540099946831810D+02 -.598783276047970D+02 -.323013007574124D+02
 0.740929108794002D+02 0.106428898733590D+02 0.221701428602925D+02 -.698925826055992D+02
0.590668350720D-05 0.000000000000D+00 0.000000000000D+00 0.767683893884D-07 0.000000000000D+00  7 -2 1 -24 -11 11 23 21 0 0.10374850D-01 0.12028808D+00 0.29681820D+05 0.29681820D+05 0.29681820D+05 0.11677658D+01  1  2  2  2  7  2        1 0.844297078391D-03 0.100000000000D+01
-.295217954052D-06 0.000000000000D+00 -.226832199331D-07 0.767683893884D-07 0.000000000000D+00  7 -2 1 -24 -11 11 23 21 2 0.10374850D-01 0.12028808D+00 0.29681820D+05 0.29681820D+05 0.29681820D+05 0.11677658D+01  1  2  3  2  7  2        1 -.575447704245D-04 0.100000000000D+01
0.374999081265D-06 0.000000000000D+00 0.000000000000D+00 0.767683893884D-07 0.000000000000D+00  7 -2 1 -24 -11 11 23 21 2 0.10374850D-01 0.12028808D+00 0.29681820D+05 0.29681820D+05 0.29681820D+05 0.11677658D+01  1  2 15  2  7  2        1 0.730959473997D-04 0.100000000000D+01
0.436566670378D-04 0.000000000000D+00 0.000000000000D+00 0.767683893884D-07 0.000000000000D+00  7 -2 1 -24 -11 11 23 21 2 0.10374850D-01 0.15866759D+00 0.33957388D+05 0.33957388D+05 0.33957388D+05 0.11623757D+01  1  2 12  2  7  2        1 0.538237720610D-02 0.100000000000D+01
-.428230227393D-04 0.000000000000D+00 0.000000000000D+00 0.767683893884D-07 0.000000000000D+00  7 -2 1 -24 -11 11 23 21 2 0.10374850D-01 0.12028808D+00 0.29681820D+05 0.29681820D+05 0.29681820D+05 0.11677658D+01  1  2  4  2  7  2        1 -.834719223067D-02 0.100000000000D+01
-.471216577692D-04 0.000000000000D+00 -.315810376325D-05 0.767683893884D-07 0.000000000000D+00  7 -2 1 -24 -11 11 23 21 2 0.10374850D-01 0.15884200D+00 0.29681820D+05 0.29681820D+05 0.29681820D+05 0.11677658D+01  1  2  5  2  7  2        1 -.585397652379D-02 0.100000000000D+01
0.463163385625D-04 0.000000000000D+00 0.303986146602D-05 0.767683893884D-07 0.000000000000D+00  7 -2 1 -24 -11 11 23 21 2 0.10374850D-01 0.12028808D+00 0.29681820D+05 0.29681820D+05 0.29681820D+05 0.11677658D+01  1  2  6  2  7  2        1 0.902811984470D-02 0.100000000000D+01
0.159241841383D-05 0.000000000000D+00 0.000000000000D+00 0.767683893884D-07 0.000000000000D+00  7 -2 21 -24 -11 11 23 -1 2 0.10374850D-01 0.15866759D+00 0.33957388D+05 0.33957388D+05 0.33957388D+05 0.11623757D+01  1  2 12  4  7  2        1 0.274489264348D-03 0.100000000000D+01
-.166093449209D-05 0.000000000000D+00 -.115527176853D-06 0.767683893884D-07 0.000000000000D+00  7 -2 21 -24 -11 11 23 -1 2 0.10374850D-01 0.15884200D+00 0.29681820D+05 0.29681820D+05 0.29681820D+05 0.11677658D+01  1  2  5  4  7  2        1 -.289741783323D-03 0.100000000000D+01
  </mgrwgt>
  </event>
  <event>
  8     66 0.26562228E-05 0.79512564E+03 0.75467711E-02 0.86095687E-01
       -2 -1    0    0    0  501 0.00000000E+00 0.00000000E+00 0.39812211E+03 0.39812224E+03 0.32000000E+00 0.0000E+00 0.9000E+01
        1 -1    0    0  501    0 0.00000000E+00 0.00000000E+00 -.19501286E+04 0.19501287E+04 0.32000000E+00 0.0000E+00 0.9000E+01
       25  2    1    2    0    0 0.76120516E+03 -.19174971E+03 -.34921124E+03 0.90971521E+03 0.29905189E+03 0.0000E+00 0.0000E+00
       23  2    3    3    0    0 0.17628384E+03 -.97155024E+02 -.59558475E+01 0.21890365E+03 0.85838471E+02 0.0000E+00 0.0000E+00
      -24  1    1    2    0    0 -.76120516E+03 0.19174971E+03 -.12027953E+04 0.14385357E+04 0.80419002E+02 0.0000E+00 0.9000E+01
      -11  1    4    4    0    0 0.14535145E+03 -.74590922E+02 -.39409942E+02 0.16805949E+03 0.51099893E-03 0.0000E+00 0.9000E+01
       11  1    4    4    0    0 0.30932390E+02 -.22564102E+02 0.33454094E+02 0.50844153E+02 0.51099893E-03 0.0000E+00 0.9000E+01
       23  1    3    3    0    0 0.58492131E+03 -.94594690E+02 -.34325539E+03 0.69081156E+03 0.91188000E+02 0.0000E+00 0.9000E+01
#aMCatNLO 1  0  0  1  1 0.58613285D+03 0.00000000D+00  -5  7  0 0.00000000D+00 0.00000000D+00 0.00000000D+00 0.00000000D+00 0.00000000D+00
  <mgrwgt>
 0.1244571687D-02    4    2    0
 0.881129683237265D+03 0.000000000000000D+00 0.000000000000000D+00 0.881129683237265D+03
 0.881129683237265D+03 0.000000000000000D+00 0.000000000000000D+00 -.881129683237265D+03
 0.857590351876139D+03 -.761205155795603D+03 0.191749713824981D+03 -.335846324551720D+03
 0.189235126683533D+03 0.145351452026727D+03 -.745909218115916D+02 0.954938895843709D+02
 0.972137266258773D+02 0.309323900214671D+02 -.225641020536141D+02 0.893563494697759D+02
 0.618220161288979D+03 0.584921313747409D+03 -.945946899597755D+02 0.150996085497573D+03
 0.000000000000000D+00 -.000000000000000D+00 0.000000000000000D+00 -.000000000000000D+00
 0.116534173944717D+04 0.000000000000000D+00 0.000000000000000D+00 0.116534173944717D+04
 0.129136369360368D+04 0.000000000000000D+00 0.000000000000000D+00 -.129136369360368D+04
 0.833405767915303D+03 -.754043554712382D+03 -.819970848380703D+02 -.335846324551720D+03
 0.225492686242450D+03 0.147107881340508D+03 -.141729107272963D+03 0.954938895843709D+02
 0.110221221749959D+03 0.318109055506272D+02 -.561446953998153D+02 0.893563494697759D+02
 0.688058234764182D+03 0.590453582371016D+03 -.306061484529571D+03 0.150996085497573D+03
 0.599527522378948D+03 -.153288145497703D+02 0.585932372040420D+03 -.126021954156510D+03
0.174877194127D-02 0.000000000000D+00 0.000000000000D+00 0.468932842910D-06 0.000000000000D+00  7 -2 1 -24 -11 11 23 21 0 0.61249568D-01 0.30001980D+00 0.63222478D+06 0.63222478D+06 0.63222478D+06 0.10613822D+01  1  2  2  1  7  1       -2 0.154838442687D-02 0.100000000000D+01
-.959079836542D-04 0.000000000000D+00 -.671574471671D-05 0.468932842910D-06 0.000000000000D+00  7 -2 1 -24 -11 11 23 21 2 0.61249568D-01 0.30001980D+00 0.63222478D+06 0.63222478D+06 0.63222478D+06 0.10613822D+01  1  2  3  1  7  1       -2 -.956629983740D-04 0.100000000000D+01
0.112879482160D-03 0.000000000000D+00 0.000000000000D+00 0.468932842910D-06 0.000000000000D+00  7 -2 1 -24 -11 11 23 21 2 0.61249568D-01 0.30001980D+00 0.63222478D+06 0.63222478D+06 0.63222478D+06 0.10613822D+01  1  2 15  1  7  1       -2 0.112591145251D-03 0.100000000000D+01
-.321562278436D-03 0.000000000000D+00 0.000000000000D+00 0.468932842910D-06 0.000000000000D+00  7 -2 1 -24 -11 11 23 21 2 0.61249568D-01 0.30001980D+00 0.63222478D+06 0.63222478D+06 0.63222478D+06 0.10613822D+01  1  2  4  1  7  1       -2 -.320740886703D-03 0.100000000000D+01
  </mgrwgt>
  </event>
  <event>
  8     66 0.26562228E-05 0.10881138E+03 0.75467711E-02 0.10129336E+00
       -2 -1    0    0    0  501 0.00000000E+00 0.00000000E+00 0.10928789E+03 0.10928836E+03 0.32000000E+00 0.0000E+00 0.9000E+01
        1 -1    0    0  501    0 0.00000000E+00 0.00000000E+00 -.87018530E+03 0.87018536E+03 0.32000000E+00 0.0000E+00 0.9000E+01
       25  2    1    2    0    0 -.37676229E+02 0.12575715E+03 -.75814729E+03 0.82549601E+03 0.29903509E+03 0.0000E+00 0.0000E+00
       23  2    3    3    0    0 -.98476783E+00 0.82689035E+02 -.99527109E+02 0.15819029E+03 0.90994919E+02 0.0000E+00 0.0000E+00
      -24  1    1    2    0    0 0.37676229E+02 -.12575715E+03 -.27501199E+01 0.15397772E+03 0.80419002E+02 0.0000E+00 0.9000E+01
      -11  1    4    4    0    0 -.19457328E+02 -.70704396E+01 0.27267700E+01 0.20880949E+02 0.51099893E-03 0.0000E+00 0.9000E+01
       11  1    4    4    0    0 0.18472560E+02 0.89759475E+02 -.10225388E+03 0.13730934E+03 0.51099893E-03 0.0000E+00 0.9000E+01
       23  1    3    3    0    0 -.36691461E+02 0.43068111E+02 -.65862018E+03 0.66730572E+03 0.91188000E+02 0.0000E+00 0.9000E+01
#aMCatNLO 1  0  0  1  2 0.16786140D+03 0.00000000D+00  -5  7  0 0.00000000D+00 0.00000000D+00 0.00000000D+00 0.00000000D+00 0.00000000D+00
  <mgrwgt>
 0.7018766434D-03    9    2    0
 0.308384460371641D+03 0.000000000000000D+00 0.000000000000000D+00 0.308384460371641D+03
 0.308384460371641D+03 0.000000000000000D+00 0.000000000000000D+00 -.308384460371641D+03
 0.241134990192214D+03 0.376762292500417D+02 -.125757145697473D+03 0.185592320951465D+03
 0.365244291572582D+02 -.194573282999452D+02 -.707043964999392D+01 0.300907823734697D+02
 0.919082908573054D+02 0.184725604676545D+02 0.897594745331357D+02 0.700964832322212D+01
 0.247201210536505D+03 -.366914614177511D+02 0.430681108143310D+02 -.222692751648157D+03
 0.000000000000000D+00 0.000000000000000D+00 -.000000000000000D+00 0.000000000000000D+00
 0.431998069377310D+03 0.000000000000000D+00 0.000000000000000D+00 0.431998069377310D+03
 0.382276214316072D+03 0.000000000000000D+00 0.000000000000000D+00 -.382276214316072D+03
 0.222975751212606D+03 -.147907269470099D+02 -.926698142583810D+02 0.185592320951465D+03
 0.413057763603911D+02 -.282559050606157D+02 -.152177728087869D+01 0.300907823734697D+02
 0.104029889388570D+03 -.367792863581436D+01 0.103728277521285D+03 0.700964832322212D+01
 0.270892269471232D+03 -.952610774522006D+02 0.800039736593930D+02 -.222692751648157D+03
 0.175070597260583D+03 0.141985638095641D+03 -.895406596414182D+02 0.497218550612373D+02
0.135485673224D-04 0.000000000000D+00 0.000000000000D+00 0.988331815203D-06 0.000000000000D+00  7 -2 1 -24 -11 11 23 21 0 0.16813562D-01 0.13387470D+00 0.34896160D+05 0.34896160D+05 0.34896160D+05 0.11612928D+01  1  2  2  1  7  1       -2 0.771970925355D-03 0.100000000000D+01
-.522731334791D-06 0.000000000000D+00 -.520300659378D-07 0.988331815203D-06 0.000000000000D+00  7 -2 1 -24 -11 11 23 21 2 0.16813562D-01 0.13387470D+00 0.34896160D+05 0.34896160D+05 0.34896160D+05 0.11612928D+01  1  2  3  1  7  1       -2 -.401670154285D-04 0.100000000000D+01
0.834987430184D-06 0.000000000000D+00 0.000000000000D+00 0.988331815203D-06 0.000000000000D+00  7 -2 1 -24 -11 11 23 21 2 0.16813562D-01 0.13387470D+00 0.34896160D+05 0.34896160D+05 0.34896160D+05 0.11612928D+01  1  2 15  1  7  1       -2 0.641609766980D-04 0.100000000000D+01
0.985630894099D-07 0.000000000000D+00 0.000000000000D+00 0.988331815203D-06 0.000000000000D+00  7 -2 1 -24 -11 11 23 21 2 0.24910087D-01 0.13387470D+00 0.83457526D+05 0.83457526D+05 0.83457526D+05 0.11282242D+01  1  2 12  1  7  1       -2 0.370224805058D-05 0.100000000000D+01
-.571830317882D-05 0.000000000000D+00 0.000000000000D+00 0.988331815203D-06 0.000000000000D+00  7 -2 1 -24 -11 11 23 21 2 0.16813562D-01 0.13387470D+00 0.34896160D+05 0.34896160D+05 0.34896160D+05 0.11612928D+01  1  2  4  1  7  1       -2 -.439398131930D-03 0.100000000000D+01
-.301832551413D-05 0.000000000000D+00 -.469458020372D-05 0.988331815203D-06 0.000000000000D+00  7 -2 1 -24 -11 11 23 21 2 0.29079776D-01 0.13387470D+00 0.34896160D+05 0.34896160D+05 0.34896160D+05 0.11612928D+01  1  2  5  1  7  1       -2 -.936328026334D-04 0.100000000000D+01
0.538736753138D-05 0.000000000000D+00 0.406856920666D-05 0.988331815203D-06 0.000000000000D+00  7 -2 1 -24 -11 11 23 21 2 0.16813562D-01 0.13387470D+00 0.34896160D+05 0.34896160D+05 0.34896160D+05 0.11612928D+01  1  2  6  1  7  1       -2 0.413968821744D-03 0.100000000000D+01
0.463203332400D-08 0.000000000000D+00 0.000000000000D+00 0.988331815203D-06 0.000000000000D+00  7 21 1 -24 -11 11 23 2 2 0.24910087D-01 0.13387470D+00 0.83457526D+05 0.83457526D+05 0.83457526D+05 0.11282242D+01  1  2 12  3  7  1       -2 0.215037094890D-05 0.100000000000D+01
0.501657492659D-07 0.000000000000D+00 -.285072852016D-06 0.988331815203D-06 0.000000000000D+00  7 21 1 -24 -11 11 23 2 2 0.29079776D-01 0.13387470D+00 0.34896160D+05 0.34896160D+05 0.34896160D+05 0.11612928D+01  1  2  5  3  7  1       -2 0.191212505564D-04 0.100000000000D+01
  </mgrwgt>
  </event>
  <event>
  9     66 0.26562228E-05 0.24363746E+03 0.75467711E-02 0.97882647E-01
       -2 -1    0    0    0  501 0.00000000E+00 0.00000000E+00 0.11769234E+04 0.11769235E+04 0.32000000E+00 0.0000E+00 0.9000E+01
        1 -1    0    0  502    0 0.00000000E+00 0.00000000E+00 -.26941264E+03 0.26941283E+03 0.32000000E+00 0.0000E+00 0.9000E+01
       25  2    1    2    0    0 0.20634268E+03 0.21497033E+03 0.98590399E+03 0.10726830E+04 0.29975437E+03 0.0000E+00 0.0000E+00
       23  2    3    3    0    0 0.56598746E+02 -.12004306E+02 0.12594020E+03 0.16615466E+03 0.91645601E+02 0.0000E+00 0.0000E+00
      -24  1    1    2    0    0 -.10831268E+03 -.99554669E+01 -.69846589E+01 0.13545017E+03 0.80419002E+02 0.0000E+00 0.9000E+01
      -11  1    4    4    0    0 -.11177595E+02 0.27670953E+02 0.34162172E+02 0.45361595E+02 0.51099893E-03 0.0000E+00 0.9000E+01
       11  1    4    4    0    0 0.67776341E+02 -.39675260E+02 0.91778032E+02 0.12079307E+03 0.51099893E-03 0.0000E+00 0.9000E+01
       23  1    3    3    0    0 0.14974393E+03 0.22697464E+03 0.85996378E+03 0.90652837E+03 0.91188000E+02 0.0000E+00 0.9000E+01
       21  1    1    2  502  501 -.98030000E+02 -.20501487E+03 -.71408527E+02 0.23820310E+03 0.75000000E+00 0.0000E+00 0.9000E+01
#aMCatNLO 2  0  0  2  1 0.22724651D+03 0.00000000D+00  -5  7  0 0.00000000D+00 0.00000000D+00 0.00000000D+00 0.00000000D+00 0.00000000D+00
  <mgrwgt>
 0.5719922866D-03    2    2    0
 0.335284142653044D+03 0.000000000000000D+00 0.000000000000000D+00 0.335284142653044D+03
 0.335284142653044D+03 0.000000000000000D+00 0.000000000000000D+00 -.335284142653044D+03
 0.273108917933680D+03 -.144854639479762D+03 -.863774332637379D+02 -.199191710531568D+03
 0.250289519911894D+02 -.151026798202156D+02 0.194622339796623D+02 -.442481056613655D+01
 0.858685604035507D+02 0.560370349484520D+02 -.642262357962856D+02 -.104043748204364D+02
 0.286561854977668D+03 0.103920284351525D+03 0.131141435080361D+03 0.214020895918141D+03
 0.000000000000000D+00 -.000000000000000D+00 -.000000000000000D+00 -.000000000000000D+00
 0.381012134299394D+03 0.000000000000000D+00 0.000000000000000D+00 0.381012134299394D+03
 0.832198643337066D+03 0.000000000000000D+00 0.000000000000000D+00 -.832198643337066D+03
 0.240780607796960D+03 -.108312678253946D+03 -.995546692367778D+01 -.199191710531568D+03
 0.301695083510709D+02 -.111775949594495D+02 0.276709532998347D+02 -.442481056613655D+01
 0.792212697751352D+02 0.677763405211602D+02 -.396752597337479D+02 -.104043748204364D+02
 0.357856016224098D+03 0.149743932594204D+03 0.226974641238621D+03 0.214020895918141D+03
 0.505183375489195D+03 -.980299999019689D+02 -.205014867881030D+03 -.451186509037672D+03
-.129662869376D-05 0.000000000000D+00 0.000000000000D+00 0.483571654895D-05 0.000000000000D+00  7 -2 1 -24 -11 11 23 21 2 0.15933413D+00 0.40858522D-01 0.14352651D+06 0.14352651D+06 0.14352651D+06 0.11090670D+01  1  2 13  2  7  2        1 -.464714598575D-05 0.100000000000D+01
0.236824610916D-03 0.000000000000D+00 0.000000000000D+00 0.483571654895D-05 0.973654842387D-09  7 -2 1 -24 -11 11 23 21 2 0.18106504D+00 0.41448088D-01 0.14352651D+06 0.14352651D+06 0.14352651D+06 0.11090670D+01  1  2  1  2  7  2        1 0.576639432599D-03 0.100000000000D+01
  </mgrwgt>
  </event>
  <event>
  8     66 0.26562228E-05 0.21295515E+03 0.75467711E-02 0.98620610E-01
       -2 -1    0    0    0  501 0.00000000E+00 0.00000000E+00 0.99503596E+02 0.99504110E+02 0.32000000E+00 0.0000E+00 0.9000E+01
        1 -1    0    0  501    0 0.00000000E+00 0.00000000E+00 -.13855981E+04 0.13855981E+04 0.32000000E+00 0.0000E+00 0.9000E+01
       25  2    1    2    0    0 0.27080137E+03 -.36714768E+02 -.47482395E+03 0.62527175E+03 0.30137289E+03 0.0000E+00 0.0000E+00
       23  2    3    3    0    0 0.16559158E+03 0.82250891E+02 -.16118960E+03 0.26208628E+03 0.92311157E+02 0.0000E+00 0.0000E+00
      -24  1    1    2    0    0 -.27080137E+03 0.36714768E+02 -.81127053E+03 0.85983048E+03 0.80419002E+02 0.0000E+00 0.9000E+01
      -11  1    4    4    0    0 0.13287189E+03 0.66912996E+02 -.16896244E+03 0.22512351E+03 0.51099893E-03 0.0000E+00 0.9000E+01
       11  1    4    4    0    0 0.32719688E+02 0.15337895E+02 0.77728433E+01 0.36962766E+02 0.51099893E-03 0.0000E+00 0.9000E+01
       23  1    3    3    0    0 0.10520979E+03 -.11896566E+03 -.31363436E+03 0.36318548E+03 0.91188000E+02 0.0000E+00 0.9000E+01
#aMCatNLO 1  0  0  2  1 0.55570813D+02 0.00000000D+00  -5  7  0 0.00000000D+00 0.00000000D+00 0.00000000D+00 0.00000000D+00 0.00000000D+00
  <mgrwgt>
 0.1084751630D-02    9    2    0
 0.371311730148904D+03 0.000000000000000D+00 0.000000000000000D+00 0.371311730148904D+03
 0.371311730148904D+03 0.000000000000000D+00 0.000000000000000D+00 -.371311730148904D+03
 0.314514168401238D+03 -.270801371192891D+03 0.367147676676544D+02 -.133306374063328D+03
 0.157589642896549D+03 0.132871893395743D+03 0.669129960314668D+02 0.519827515218760D+02
 0.873795406616884D+02 0.327196875081355D+02 0.153378946832541D+02 0.795572445620324D+02
 0.183140108338333D+03 0.105209790289013D+03 -.118965658382375D+03 0.176637797941930D+01
 0.000000000000000D+00 -.000000000000000D+00 -.000000000000000D+00 -.000000000000000D+00
 0.381145475993340D+03 0.000000000000000D+00 0.000000000000000D+00 0.381145475993340D+03
 0.460124304948057D+03 0.000000000000000D+00 0.000000000000000D+00 -.460124304948057D+03
 0.302091265186597D+03 -.253600279226949D+03 0.520406145022311D+02 -.133306374063328D+03
 0.168784833380245D+03 0.141976577000471D+03 0.750250965120423D+02 0.519827515218760D+02
 0.902154395282446D+02 0.376739539166580D+02 0.197520521277374D+02 0.795572445620324D+02
 0.183608212848482D+03 0.115440760140157D+03 -.109850058208952D+03 0.176637797941930D+01
 0.965700299978276D+02 -.414910118303366D+02 -.369677049330591D+02 -.789788289547171D+02
0.255617776957D-04 0.000000000000D+00 0.000000000000D+00 0.403370614342D-06 0.000000000000D+00  7 -2 1 -24 -11 11 23 21 0 0.15308288D-01 0.21316898D+00 0.10657057D+06 0.10657057D+06 0.10657057D+06 0.11194611D+01  1  2  2  2  7  2        1 0.710202032541D-03 0.100000000000D+01
-.139147241037D-05 0.000000000000D+00 -.981639569222D-07 0.403370614342D-06 0.000000000000D+00  7 -2 1 -24 -11 11 23 21 2 0.15308288D-01 0.21316898D+00 0.10657057D+06 0.10657057D+06 0.10657057D+06 0.11194611D+01  1  2  3  2  7  2        1 -.484488511001D-04 0.100000000000D+01
0.164773568649D-05 0.000000000000D+00 0.000000000000D+00 0.403370614342D-06 0.000000000000D+00  7 -2 1 -24 -11 11 23 21 2 0.15308288D-01 0.21316898D+00 0.10657057D+06 0.10657057D+06 0.10657057D+06 0.11194611D+01  1  2 15  2  7  2        1 0.573715298502D-04 0.100000000000D+01
0.699224942124D-04 0.000000000000D+00 0.000000000000D+00 0.403370614342D-06 0.000000000000D+00  7 -2 1 -24 -11 11 23 21 2 0.15308288D-01 0.26651188D+00 0.12722656D+06 0.12722656D+06 0.12722656D+06 0.11132399D+01  1  2 12  2  7  2        1 0.141274630451D-02 0.100000000000D+01
-.707981067606D-04 0.000000000000D+00 0.000000000000D+00 0.403370614342D-06 0.000000000000D+00  7 -2 1 -24 -11 11 23 21 2 0.15308288D-01 0.21316898D+00 0.10657057D+06 0.10657057D+06 0.10657057D+06 0.11194611D+01  1  2  4  2  7  2        1 -.246507721393D-02 0.100000000000D+01
-.967343903138D-04 0.000000000000D+00 -.145644088520D-04 0.403370614342D-06 0.000000000000D+00  7 -2 1 -24 -11 11 23 21 2 0.15308288D-01 0.26681105D+00 0.10657057D+06 0.10657057D+06 0.10657057D+06 0.11194611D+01  1  2  5  2  7  2        1 -.198103976388D-02 0.100000000000D+01
0.978866370459D-04 0.000000000000D+00 0.142050760539D-04 0.403370614342D-06 0.000000000000D+00  7 -2 1 -24 -11 11 23 21 2 0.15308288D-01 0.21316898D+00 0.10657057D+06 0.10657057D+06 0.10657057D+06 0.11194611D+01  1  2  6  2  7  2        1 0.340825665503D-02 0.100000000000D+01
0.217581113531D-05 0.000000000000D+00 0.000000000000D+00 0.403370614342D-06 0.000000000000D+00  7 -2 21 -24 -11 11 23 -1 2 0.15308288D-01 0.26651188D+00 0.12722656D+06 0.12722656D+06 0.12722656D+06 0.11132399D+01  1  2 12  4  7  2        1 0.288061867075D-04 0.100000000000D+01
-.281738936427D-05 0.000000000000D+00 -.454916898242D-06 0.403370614342D-06 0.000000000000D+00  7 -2 21 -24 -11 11 23 -1 2 0.15308288D-01 0.26681105D+00 0.10657057D+06 0.10657057D+06 0.10657057D+06 0.11194611D+01  1  2  5  4  7  2        1 -.380652493454D-04 0.100000000000D+01
  </mgrwgt>
  </event>
  <event>
  9     66 0.26562228E-05 0.22901721E+03 0.75467711E-02 0.10112091E+00
       -2 -1    0    0    0  502 0.00000000E+00 0.00000000E+00 0.68368172E+03 0.68368179E+03 0.32000000E+00 0.0000E+00 0.9000E+01
        1 -1    0    0  501    0 0.00000000E+00 0.00000000E+00 -.13857539E+04 0.13857539E+04 0.32000000E+00 0.0000E+00 0.9000E+01
       25  2    1    2    0    0 0.85784241E+02 0.19791299E+03 0.16923210E+03 0.40612133E+03 0.29961066E+03 0.0000E+00 0.0000E+00
       23  2    3    3    0    0 0.11005976E+03 0.15019052E+03 0.20161552E+03 0.29552896E+03 0.10962757E+03 0.0000E+00 0.0000E+00
      -24  1    1    2    0    0 0.81904605E+01 -.12446097E+03 -.12538512E+04 0.12626036E+04 0.80419002E+02 0.0000E+00 0.9000E+01
      -13  1    4    4    0    0 0.48049559E+02 -.16216646E+01 0.71646893E+02 0.86282550E+02 0.10565837E+00 0.0000E+00 0.9000E+01
       13  1    4    4    0    0 0.62010204E+02 0.15181219E+03 0.12996863E+03 0.20924641E+03 0.10565837E+00 0.0000E+00 0.9000E+01
       23  1    3    3    0    0 -.24275522E+02 0.47722472E+02 -.32383424E+02 0.11059237E+03 0.91188000E+02 0.0000E+00 0.9000E+01
       21  1    1    2  501  502 -.93974701E+02 -.73452027E+02 0.38254695E+03 0.40071084E+03 0.75000000E+00 0.0000E+00 0.9000E+01
#aMCatNLO 2  0  0  1  2 0.11927466D+03 0.00000000D+00  -5  7  0 0.00000000D+00 0.00000000D+00 0.00000000D+00 0.00000000D+00 0.00000000D+00
  <mgrwgt>
 0.1165217771D-02    2    2    0
 0.631272060598407D+03 0.000000000000000D+00 0.000000000000000D+00 0.631272060598407D+03
 0.631272060598407D+03 0.000000000000000D+00 0.000000000000000D+00 -.631272060598407D+03
 0.598283380059284D+03 -.358988985324639D+02 -.158921866323568D+03 -.570027101451484D+03
 0.172108730074648D+03 0.351670656537712D+02 -.116909362812057D+02 0.168071456440646D+03
 0.374769550250644D+03 0.337415761521737D+02 0.129717123769450D+03 0.349981698999845D+03
 0.117382460812238D+03 -.330097432734811D+02 0.408956788353229D+02 0.519739460109930D+02
 0.000000000000000D+00 -.000000000000000D+00 -.000000000000000D+00 0.000000000000000D+00
 0.148435708680996D+04 0.000000000000000D+00 0.000000000000000D+00 0.148435708680996D+04
 0.638265721205919D+03 0.000000000000000D+00 0.000000000000000D+00 -.638265721205919D+03
 0.589029479835348D+03 0.819046046865844D+01 -.124460966286063D+03 -.570027101451484D+03
 0.174812480985838D+03 0.480495453574841D+02 -.162179816346787D+01 0.168071456440646D+03
 0.386496361106852D+03 0.620102214224151D+02 0.151812318186513D+03 0.349981698999845D+03
 0.117827322904670D+03 -.242755259116044D+02 0.477224732871498D+02 0.519739460109930D+02
 0.854457163183168D+03 -.939747013369533D+02 -.734520270241312D+02 0.846091365604036D+03
-.178306695488D-02 0.000000000000D+00 0.000000000000D+00 0.965852227349D-07 0.000000000000D+00  7 -2 1 -24 -13 13 23 21 2 0.10506286D+00 0.21085685D+00 0.85700424D+05 0.85700424D+05 0.85700424D+05 0.11272634D+01  1  2 13  1  7  1       -2 -.163628384761D-02 0.100000000000D+01
0.313390281752D-02 0.000000000000D+00 0.000000000000D+00 0.965852227349D-07 0.628433251676D-10  7 -2 1 -24 -13 13 23 21 2 0.10518178D+00 0.21319286D+00 0.85700424D+05 0.85700424D+05 0.85700424D+05 0.11272634D+01  1  2  1  1  7  1       -2 0.280150161825D-02 0.100000000000D+01
  </mgrwgt>
  </event>
  <event>
  8     66 0.26562228E-05 0.25779072E+03 0.75467711E-02 0.90839930E-01
       -2 -1    0    0    0  501 0.00000000E+00 0.00000000E+00 0.21790510E+03 0.21790534E+03 0.32000000E+00 0.0000E+00 0.9000E+01
        1 -1    0    0  501    0 0.00000000E+00 0.00000000E+00 -.40802552E+03 0.40802564E+03 0.32000000E+00 0.0000E+00 0.9000E+01
       25  2    1    2    0    0 0.18470932E+02 0.18560824E+03 -.84375156E+01 0.35341037E+03 0.30006017E+03 0.0000E+00 0.0000E+00
       23  2    3    3    0    0 -.85087073E+02 0.13802615E+02 0.33069964E+02 0.12917934E+03 0.90351295E+02 0.0000E+00 0.0000E+00
      -24  1    1    2    0    0 -.18470932E+02 -.18560824E+03 -.18168290E+03 0.27252062E+03 0.80419002E+02 0.0000E+00 0.9000E+01
      -13  1    4    4    0    0 -.10727377E+02 -.93415780E+01 0.47842359E+02 0.49912365E+02 0.10565837E+00 0.0000E+00 0.9000E+01
       13  1    4    4    0    0 -.74359696E+02 0.23144193E+02 -.14772395E+02 0.79266973E+02 0.10565837E+00 0.0000E+00 0.9000E+01
       23  1    3    3    0    0 0.10355801E+03 0.17180562E+03 -.41507479E+02 0.22423103E+03 0.91188000E+02 0.0000E+00 0.9000E+01
#aMCatNLO 1  0  0  1  1 0.60552595D+03 0.00000000D+00  -5  7  0 0.00000000D+00 0.00000000D+00 0.00000000D+00 0.00000000D+00 0.00000000D+00
  <mgrwgt>
 0.8242151927D-03    3    2    0
 0.298179402729831D+03 0.000000000000000D+00 0.000000000000000D+00 0.298179402729831D+03
 0.298179402729831D+03 0.000000000000000D+00 0.000000000000000D+00 -.298179402729831D+03
 0.228113457688750D+03 -.184709322877934D+02 -.185608240484211D+03 -.103812038555853D+03
 0.676396412958952D+02 -.107272900431395D+02 -.934162228785356D+01 0.661270021700577D+02
 0.784881997027294D+02 -.743597831313815D+02 0.231442377563041D+02 0.976546997891661D+01
 0.222117506772287D+03 0.103558005462314D+03 0.171805625015760D+03 0.279195664068787D+02
 0.000000000000000D+00 0.000000000000000D+00 0.000000000000000D+00 -.000000000000000D+00
 0.715809051740551D+03 0.000000000000000D+00 0.000000000000000D+00 0.715809051740551D+03
 0.740089069551725D+03 0.000000000000000D+00 0.000000000000000D+00 -.740089069551725D+03
 0.382169953889302D+03 -.268537125333189D+03 -.238112432833831D+03 -.103812038555853D+03
 0.109003706954770D+03 -.831076444585019D+02 -.245386867301791D+02 0.661270021700577D+02
 0.180918346924050D+03 -.180652705952724D+03 0.826850518749644D+00 0.976546997891661D+01
 0.177793574531472D+03 -.603072410134348D+02 0.137400284911195D+03 0.279195664068787D+02
 0.606012538992681D+03 0.592604716757849D+03 0.124423984134066D+03 -.242800178111740D+02
0.154333407141D-04 0.000000000000D+00 0.000000000000D+00 0.203940131473D-05 0.000000000000D+00  7 -2 1 -24 -13 13 23 21 0 0.33523890D-01 0.62773184D-01 0.66456054D+05 0.66456054D+05 0.66456054D+05 0.11365827D+01  1  2  2  1  7  1       -2 0.813129729523D-03 0.100000000000D+01
-.835323858642D-06 0.000000000000D+00 -.592680920342D-07 0.203940131473D-05 0.000000000000D+00  7 -2 1 -24 -13 13 23 21 2 0.33523890D-01 0.62773184D-01 0.66456054D+05 0.66456054D+05 0.66456054D+05 0.11365827D+01  1  2  3  1  7  1       -2 -.568534601316D-04 0.100000000000D+01
0.998197882989D-06 0.000000000000D+00 0.000000000000D+00 0.203940131473D-05 0.000000000000D+00  7 -2 1 -24 -13 13 23 21 2 0.33523890D-01 0.62773184D-01 0.66456054D+05 0.66456054D+05 0.66456054D+05 0.11365827D+01  1  2 15  1  7  1       -2 0.679389232773D-04 0.100000000000D+01
  </mgrwgt>
  </event>
  <event>
  8     66 0.26562228E-05 0.13492988E+03 0.75467711E-02 0.10380589E+00
       -2 -1    0    0    0  501 0.00000000E+00 0.00000000E+00 0.26319745E+03 0.26319764E+03 0.32000000E+00 0.0000E+00 0.9000E+01
        1 -1    0    0  501    0 0.00000000E+00 0.00000000E+00 -.30794242E+03 0.30794259E+03 0.32000000E+00 0.0000E+00 0.9000E+01
       25  2    1    2    0    0 0.11100500E+03 0.36264577E+01 0.14357473E+03 0.33818790E+03 0.28534556E+03 0.0000E+00 0.0000E+00
       23  2    3    3    0    0 0.61506732E+02 -.86418461E+02 0.14419734E+03 0.20080593E+03 0.90988583E+02 0.0000E+00 0.0000E+00
      -24  1    1    2    0    0 -.11100500E+03 -.36264577E+01 -.18831970E+03 0.23295233E+03 0.80419002E+02 0.0000E+00 0.9000E+01
      -13  1    4    4    0    0 0.65220184E+02 -.87686538E+02 0.77452806E+02 0.13394607E+03 0.10565837E+00 0.0000E+00 0.9000E+01
       13  1    4    4    0    0 -.37134517E+01 0.12680769E+01 0.66744530E+02 0.66859863E+02 0.10565837E+00 0.0000E+00 0.9000E+01
       23  1    3    3    0    0 0.49498271E+02 0.90044919E+02 -.62260430E+00 0.13738197E+03 0.91188000E+02 0.0000E+00 0.9000E+01
#aMCatNLO 1  0  0  1  2 0.81607834D+02 0.00000000D+00  -5  7  0 0.00000000D+00 0.00000000D+00 0.00000000D+00 0.00000000D+00 0.00000000D+00
  <mgrwgt>
 0.8134801116D-02    9    2    0
 0.284692401263403D+03 0.000000000000000D+00 0.000000000000000D+00 0.284692401263403D+03
 0.284692401263403D+03 0.000000000000000D+00 0.000000000000000D+00 -.284692401263403D+03
 0.218871476757611D+03 -.111005006593299D+03 -.362645779169806D+01 -.170593800294131D+03
 0.140445729462446D+03 0.652202774811450D+02 -.876866539422283D+02 0.882177365949548D+02
 0.723110050923207D+02 -.371354335971118D+01 0.126819853054185D+01 0.722044508715654D+02
 0.137756591214428D+03 0.494982724718653D+02 0.900449132033846D+02 0.101716128276103D+02
 0.000000000000000D+00 -.000000000000000D+00 0.000000000000000D+00 0.000000000000000D+00
 0.407161118833207D+03 0.000000000000000D+00 0.000000000000000D+00 0.407161118833207D+03
 0.301527463335864D+03 0.000000000000000D+00 0.000000000000000D+00 -.301527463335864D+03
 0.212676558256706D+03 -.938640823942946D+02 -.291786191419475D+02 -.170593800294131D+03
 0.157525459372962D+03 0.770555800359245D+02 -.105329667644273D+03 0.882177365949548D+02
 0.726024945777814D+02 0.204236585946829D+01 -.731219768254001D+01 0.722044508715654D+02
 0.132398836050436D+03 0.602287435318091D+02 0.740488837766989D+02 0.101716128276103D+02
 0.133485233911186D+03 -.454626070329073D+02 0.677716006920614D+02 0.105633655497343D+03
0.160271802160D-03 0.000000000000D+00 0.000000000000D+00 0.444283038009D-08 0.000000000000D+00  7 -2 1 -24 -13 13 23 21 0 0.40491943D-01 0.47375785D-01 0.37579599D+05 0.37579599D+05 0.37579599D+05 0.11583664D+01  1  2  2  1  7  1       -2 0.870509813960D-02 0.100000000000D+01
-.730513376445D-05 0.000000000000D+00 -.615485920827D-06 0.444283038009D-08 0.000000000000D+00  7 -2 1 -24 -13 13 23 21 2 0.40491943D-01 0.47375785D-01 0.37579599D+05 0.37579599D+05 0.37579599D+05 0.11583664D+01  1  2  3  1  7  1       -2 -.532398243969D-03 0.100000000000D+01
0.100839830938D-04 0.000000000000D+00 0.000000000000D+00 0.444283038009D-08 0.000000000000D+00  7 -2 1 -24 -13 13 23 21 2 0.40491943D-01 0.47375785D-01 0.37579599D+05 0.37579599D+05 0.37579599D+05 0.11583664D+01  1  2 15  1  7  1       -2 0.734920819309D-03 0.100000000000D+01
0.189252158264D-03 0.000000000000D+00 0.000000000000D+00 0.444283038009D-08 0.000000000000D+00  7 -2 1 -24 -13 13 23 21 2 0.58707919D-01 0.47375785D-01 0.57291787D+05 0.57291787D+05 0.57291787D+05 0.11421310D+01  1  2 12  1  7  1       -2 0.651663330483D-02 0.100000000000D+01
-.241122636353D-03 0.000000000000D+00 0.000000000000D+00 0.444283038009D-08 0.000000000000D+00  7 -2 1 -24 -13 13 23 21 2 0.40491943D-01 0.47375785D-01 0.37579599D+05 0.37579599D+05 0.37579599D+05 0.11583664D+01  1  2  4  1  7  1       -2 -.175730208802D-01 0.100000000000D+01
-.257814017970D-03 0.000000000000D+00 -.650287819009D-04 0.444283038009D-08 0.000000000000D+00  7 -2 1 -24 -13 13 23 21 2 0.60372798D-01 0.47375785D-01 0.37579599D+05 0.37579599D+05 0.37579599D+05 0.11583664D+01  1  2  5  1  7  1       -2 -.867717229830D-02 0.100000000000D+01
0.267063042396D-03 0.000000000000D+00 0.601649998735D-04 0.444283038009D-08 0.000000000000D+00  7 -2 1 -24 -13 13 23 21 2 0.40491943D-01 0.47375785D-01 0.37579599D+05 0.37579599D+05 0.37579599D+05 0.11583664D+01  1  2  6  1  7  1       -2 0.194635580107D-01 0.100000000000D+01
0.853516561045D-05 0.000000000000D+00 0.000000000000D+00 0.444283038009D-08 0.000000000000D+00  7 21 1 -24 -13 13 23 2 2 0.58707919D-01 0.47375785D-01 0.57291787D+05 0.57291787D+05 0.57291787D+05 0.11421310D+01  1  2 12  3  7  1       -2 0.313016844976D-02 0.100000000000D+01
-.100438573185D-04 0.000000000000D+00 -.309214984742D-05 0.444283038009D-08 0.000000000000D+00  7 21 1 -24 -13 13 23 2 2 0.60372798D-01 0.47375785D-01 0.37579599D+05 0.37579599D+05 0.37579599D+05 0.11583664D+01  1  2  5  3  7  1       -2 -.363298618569D-02 0.100000000000D+01
  </mgrwgt>
  </event>
  <event>
  9     66 0.26562228E-05 0.26677404E+03 0.75467711E-02 0.92676728E-01
       -2 -1    0    0    0  501 0.00000000E+00 0.00000000E+00 0.37495317E+03 0.37495330E+03 0.32000000E+00 0.0000E+00 0.9000E+01
        1 -1    0    0  502    0 0.00000000E+00 0.00000000E+00 -.13063627E+04 0.13063628E+04 0.32000000E+00 0.0000E+00 0.9000E+01
       25  2    1    2    0    0 0.16737586E+03 -.15962803E+02 -.81430421E+02 0.35232681E+03 0.29872023E+03 0.0000E+00 0.0000E+00
       23  2    3    3    0    0 0.24424507E+02 0.59811596E+02 -.12006438E+03 0.16263051E+03 0.88652384E+02 0.0000E+00 0.0000E+00
      -24  1    1    2    0    0 0.63047800E+02 -.41663027E+03 -.11249097E+03 0.44348308E+03 0.80419002E+02 0.0000E+00 0.9000E+01
      -13  1    4    4    0    0 0.37750855E+01 -.11869082E+02 -.73819909E+02 0.74863319E+02 0.10565837E+00 0.0000E+00 0.9000E+01
       13  1    4    4    0    0 0.20649421E+02 0.71680679E+02 -.46244472E+02 0.87767196E+02 0.10565837E+00 0.0000E+00 0.9000E+01
       23  1    3    3    0    0 0.14295136E+03 -.75774400E+02 0.38633961E+02 0.18969629E+03 0.91188000E+02 0.0000E+00 0.9000E+01
       21  1    1    2  502  501 -.23042366E+03 0.43259307E+03 -.73748816E+03 0.88550617E+03 0.75000000E+00 0.0000E+00 0.9000E+01
#aMCatNLO 2  0  0  2  2 0.49013450D+03 0.00000000D+00  -5  7  0 0.00000000D+00 0.00000000D+00 0.00000000D+00 0.00000000D+00 0.00000000D+00
  <mgrwgt>
 0.5820363421D-04    1    2    0
 0.298109058159046D+03 0.000000000000000D+00 0.000000000000000D+00 0.298109058159046D+03
 0.298109058159046D+03 0.000000000000000D+00 0.000000000000000D+00 -.298109058159046D+03
 0.228699426037147D+03 -.477313826538170D+02 -.208655506572320D+03 -.456138162766845D+01
 0.658438397168624D+02 -.171926467538859D+02 0.274951827144730D+02 -.573047908446904D+02
 0.146135660150090D+03 -.172500751917765D+02 0.142832647139276D+03 -.256300796832102D+02
 0.155539190413993D+03 0.821741045994794D+02 0.383276767185709D+02 0.874962521555690D+02
 0.000000000000000D+00 -.000000000000000D+00 0.000000000000000D+00 -.000000000000000D+00
 0.480814550717648D+03 0.000000000000000D+00 0.000000000000000D+00 0.480814550717648D+03
 0.101873922801577D+04 0.000000000000000D+00 0.000000000000000D+00 -.101873922801577D+04
 0.429003299432972D+03 0.630478005152572D+02 -.416630272085264D+03 -.456138162766845D+01
 0.586427153428842D+02 0.377506152981226D+01 -.118692004566002D+02 -.573047908446904D+02
 0.788760880176573D+02 0.206494449107914D+02 0.716807972980051D+02 -.256300796832102D+02
 0.205299038909197D+03 0.142951356620178D+03 -.757743989235129D+02 0.874962521555690D+02
 0.727732637030712D+03 -.230423663576039D+03 0.432593074167372D+03 -.537924677298126D+03
0.177558133766D-04 0.000000000000D+00 0.000000000000D+00 0.689785201905D-07 0.455665058573D-11  7 -2 1 -24 -13 13 23 21 2 0.57685096D-01 0.20097882D+00 0.35514743D+06 0.35514743D+06 0.35514743D+06 0.10791710D+01  1  2  1  2  7  2        1 0.582036342118D-04 0.100000000000D+01
  </mgrwgt>
  </event>
  <event>
  8     66 0.26562228E-05 0.34691527E+03 0.75467711E-02 0.88403628E-01
       -2 -1    0    0    0  501 0.00000000E+00 0.00000000E+00 0.93838740E+03 0.93838746E+03 0.32000000E+00 0.0000E+00 0.9000E+01
        1 -1    0    0  501    0 0.00000000E+00 0.00000000E+00 -.16911748E+03 0.16911778E+03 0.32000000E+00 0.0000E+00 0.9000E+01
       25  2    1    2    0    0 -.20694838E+02 0.28139783E+03 0.18157236E+03 0.45064251E+03 0.30082741E+03 0.0000E+00 0.0000E+00
       23  2    3    3    0    0 0.73875104E+02 0.26664543E+02 0.88562164E+02 0.14931433E+03 0.91010902E+02 0.0000E+00 0.0000E+00
      -24  1    1    2    0    0 0.20694838E+02 -.28139783E+03 0.58769756E+03 0.65686274E+03 0.80419002E+02 0.0000E+00 0.9000E+01
      -13  1    4    4    0    0 0.82271056E+02 -.36638635E+01 0.40264208E+02 0.91668795E+02 0.10565837E+00 0.0000E+00 0.9000E+01
       13  1    4    4    0    0 -.83959513E+01 0.30328406E+02 0.48297956E+02 0.57645537E+02 0.10565837E+00 0.0000E+00 0.9000E+01
       23  1    3    3    0    0 -.94569942E+02 0.25473328E+03 0.93010197E+02 0.30132817E+03 0.91188000E+02 0.0000E+00 0.9000E+01
#aMCatNLO 1  0  0  2  1 0.77036689D+03 0.00000000D+00  -5  7  0 0.00000000D+00 0.00000000D+00 0.00000000D+00 0.00000000D+00 0.00000000D+00
  <mgrwgt>
 0.1194340021D-02    5    2    0
 0.398369064716138D+03 0.000000000000000D+00 0.000000000000000D+00 0.398369064716138D+03
 0.398369064716138D+03 0.000000000000000D+00 0.000000000000000D+00 -.398369064716138D+03
 0.345635353833554D+03 0.206948375950955D+02 -.281397827037871D+03 0.182711708712258D+03
 0.885481488371394D+02 0.822711774498537D+02 -.366390916462976D+01 -.325392654055408D+02
 0.334972176086812D+02 -.839607353995135D+01 0.303284520934263D+02 0.114784376224214D+02
 0.329057409152901D+03 -.945699415049978D+02 0.254733284109074D+03 -.161650880929139D+03
 0.000000000000000D+00 -.000000000000000D+00 0.000000000000000D+00 -.000000000000000D+00
 0.882207020334434D+03 0.000000000000000D+00 0.000000000000000D+00 0.882207020334434D+03
 0.100636892623548D+04 0.000000000000000D+00 0.000000000000000D+00 -.100636892623548D+04
 0.535959277152823D+03 0.374183964114459D+03 -.327700966295253D+03 0.182711708712258D+03
 0.202505411484517D+03 0.198973644992493D+03 -.189506328596822D+02 -.325392654055408D+02
 0.347367576393754D+02 0.189634037771832D+02 0.267446652293201D+02 0.114784376224214D+02
 0.335066024136538D+03 0.171720714180895D+03 0.219852173522811D+03 -.161650880929139D+03
 0.780308476156661D+03 -.763841727065030D+03 0.100054760402803D+03 -.124161905901046D+03
0.151019567239D-03 0.000000000000D+00 0.000000000000D+00 0.281165509888D-05 0.000000000000D+00  7 -2 1 -24 -13 13 23 21 0 0.14436732D+00 0.26018101D-01 0.12035021D+06 0.12035021D+06 0.12035021D+06 0.11151796D+01  1  2  2  2  7  2        1 0.104556747588D-02 0.100000000000D+01
-.819486761108D-05 0.000000000000D+00 -.579954902563D-06 0.281165509888D-05 0.000000000000D+00  7 -2 1 -24 -13 13 23 21 2 0.14436732D+00 0.26018101D-01 0.12035021D+06 0.12035021D+06 0.12035021D+06 0.11151796D+01  1  2  3  2  7  2        1 -.705586789583D-04 0.100000000000D+01
0.967123019474D-05 0.000000000000D+00 0.000000000000D+00 0.281165509888D-05 0.000000000000D+00  7 -2 1 -24 -13 13 23 21 2 0.14436732D+00 0.26018101D-01 0.12035021D+06 0.12035021D+06 0.12035021D+06 0.11151796D+01  1  2 15  2  7  2        1 0.832703173289D-04 0.100000000000D+01
0.126783617581D-03 0.000000000000D+00 -.713649723929D-04 0.281165509888D-05 0.000000000000D+00  7 -2 1 -24 -13 13 23 21 2 0.14436732D+00 0.13989359D+00 0.12035021D+06 0.12035021D+06 0.12035021D+06 0.11151796D+01  1  2  5  2  7  2        1 0.106194693126D-03 0.100000000000D+01
0.230540444455D-04 0.000000000000D+00 -.146806246679D-04 0.281165509888D-05 0.000000000000D+00  7 -2 21 -24 -13 13 23 -1 2 0.14436732D+00 0.13989359D+00 0.12035021D+06 0.12035021D+06 0.12035021D+06 0.11151796D+01  1  2  5  4  7  2        1 0.298662138972D-04 0.100000000000D+01
  </mgrwgt>
  </event>
  <event>
  9     66 0.26562228E-05 0.24777985E+03 0.75467711E-02 0.10233304E+00
       -2 -1    0    0    0  502 0.00000000E+00 0.00000000E+00 0.70468573E+03 0.70468581E+03 0.32000000E+00 0.0000E+00 0.9000E+01
        1 -1    0    0  501    0 0.00000000E+00 0.00000000E+00 -.21462926E+03 0.21462950E+03 0.32000000E+00 0.0000E+00 0.9000E+01
       25  2    1    2    0    0 -.58237731E+02 -.16298872E+03 0.57046200E+03 0.66776697E+03 0.30088017E+03 0.0000E+00 0.0000E+00
       23  2    3    3    0    0 -.97514124E+01 0.26995334E+02 0.32996460E+03 0.34434910E+03 0.94211626E+02 0.0000E+00 0.0000E+00
      -24  1    1    2    0    0 0.36511749E+02 0.18587811E+03 -.61650142E+02 0.21482955E+03 0.80419002E+02 0.0000E+00 0.9000E+01
      -11  1    4    4    0    0 -.42656510E+02 0.17051854E+02 0.27974415E+03 0.28349098E+03 0.51099893E-03 0.0000E+00 0.9000E+01
       11  1    4    4    0    0 0.32905098E+02 0.99434805E+01 0.50220449E+02 0.60858128E+02 0.51099893E-03 0.0000E+00 0.9000E+01
       23  1    3    3    0    0 -.48486319E+02 -.18998406E+03 0.24049740E+03 0.32341787E+03 0.91188000E+02 0.0000E+00 0.9000E+01
       21  1    1    2  501  502 0.21725982E+02 -.22889384E+02 -.18755384E+02 0.36718784E+02 0.75000000E+00 0.0000E+00 0.9000E+01
#aMCatNLO 2  0  0  1  2 0.31558552D+02 0.00000000D+00  -5  7  0 0.00000000D+00 0.00000000D+00 0.00000000D+00 0.00000000D+00 0.00000000D+00
  <mgrwgt>
 0.1521601454D-03    1    2    0
 0.360239907367892D+03 0.000000000000000D+00 0.000000000000000D+00 0.360239907367892D+03
 0.360239907367892D+03 0.000000000000000D+00 0.000000000000000D+00 -.360239907367892D+03
 0.301902631332429D+03 0.456791979997670D+02 0.176219751528260D+03 -.227019807269080D+03
 0.147893034189418D+03 -.381735633927569D+02 0.123288499393003D+02 0.142348614601006D+03
 0.397619849333813D+02 0.340927843458076D+02 0.869219487925590D+01 0.185241261487211D+02
 0.230922164280556D+03 -.415984189528177D+02 -.197240796346816D+03 0.661470665193529D+02
 0.000000000000000D+00 0.000000000000000D+00 -.000000000000000D+00 -.000000000000000D+00
 0.365238171763732D+03 0.000000000000000D+00 0.000000000000000D+00 0.365238171763732D+03
 0.414097839597166D+03 0.000000000000000D+00 0.000000000000000D+00 -.414097839597166D+03
 0.306413098948537D+03 0.365117492647801D+02 0.185878106634458D+03 -.227019807269080D+03
 0.149577644294626D+03 -.426565104207825D+02 0.170518536419229D+02 0.142348614601006D+03
 0.390481949389798D+02 0.329050980049640D+02 0.994348046221960D+01 0.185241261487211D+02
 0.226131711267220D+03 -.484863190425886D+02 -.189984057102763D+03 0.661470665193529D+02
 0.581653619115349D+02 0.217259821936269D+02 -.228893836358371D+02 -.488596678334341D+02
0.110193444577D-04 0.000000000000D+00 0.000000000000D+00 0.279922138443D-06 0.194235726885D-08  7 -2 1 -24 -11 11 23 21 2 0.10841250D+00 0.33019693D-01 0.71263944D+05 0.71263944D+05 0.71263944D+05 0.11339995D+01  1  2  1  1  7  1       -2 0.152160145419D-03 0.100000000000D+01
  </mgrwgt>
  </event>
  <event>
  9     66 0.26562228E-05 0.41447932E+03 0.75467711E-02 0.94133933E-01
       -2 -1    0    0    0  501 0.00000000E+00 0.00000000E+00 0.60375455E+03 0.60375463E+03 0.32000000E+00 0.0000E+00 0.9000E+01
       21 -1    0    0  501  502 0.00000000E+00 0.00000000E+00 -.60551715E+03 0.60551761E+03 0.75000000E+00 0.0000E+00 0.9000E+01
       25  2    1    2    0    0 -.46010220E+03 0.56468351E+02 0.20539397E+03 0.58947870E+03 0.30069211E+03 0.0000E+00 0.0000E+00
       23  2    3    3    0    0 -.25540756E+03 -.87612460E+02 0.10224595E+03 0.30379716E+03 0.94496112E+02 0.0000E+00 0.0000E+00
      -24  1    1    2    0    0 0.28647958E+03 0.28997489E+02 0.44582996E+02 0.30226853E+03 0.80419002E+02 0.0000E+00 0.9000E+01
      -11  1    4    4    0    0 -.21445653E+03 -.32351167E+02 0.84511504E+02 0.23276683E+03 0.51099893E-03 0.0000E+00 0.9000E+01
       11  1    4    4    0    0 -.40951025E+02 -.55261293E+02 0.17734441E+02 0.71030327E+02 0.51099893E-03 0.0000E+00 0.9000E+01
       23  1    3    3    0    0 -.20469464E+03 0.14408081E+03 0.10314803E+03 0.28568154E+03 0.91188000E+02 0.0000E+00 0.9000E+01
       -1  1    1    2    0  502 0.17362261E+03 -.85465841E+02 -.25173957E+03 0.31752502E+03 0.32000000E+00 0.0000E+00 0.9000E+01
#aMCatNLO 2  0  0  2  1 0.19351801D+03 0.00000000D+00  -5  7  0 0.00000000D+00 0.00000000D+00 0.00000000D+00 0.00000000D+00 0.00000000D+00
  <mgrwgt>
 0.4667866106D-04    2    2    0
 0.416915882198235D+03 0.000000000000000D+00 0.000000000000000D+00 0.416915882198235D+03
 0.416915882198235D+03 0.000000000000000D+00 0.000000000000000D+00 -.416915882198235D+03
 0.366576874115128D+03 0.355160204823478D+03 -.481059030255971D+01 -.418267356165178D+02
 0.182259380592258D+03 -.173351121919826D+03 -.525853312218998D+02 0.200662224470465D+02
 0.677844462978163D+02 -.269156653778125D+02 -.621702078855835D+02 -.226789960855908D+01
 0.217211063391266D+03 -.154893417525840D+03 0.119566129410043D+03 0.240284127780303D+02
 0.000000000000000D+00 0.000000000000000D+00 -.000000000000000D+00 -.000000000000000D+00
 0.452657524814358D+03 0.000000000000000D+00 0.000000000000000D+00 0.452657524814358D+03
 0.807639210222909D+03 0.000000000000000D+00 0.000000000000000D+00 -.807639210222909D+03
 0.301874307290863D+03 0.286479582620057D+03 0.289974891580546D+02 -.418267356165178D+02
 0.217809218464658D+03 -.214456532564005D+03 -.323511669884493D+02 0.200662224470465D+02
 0.688181687331225D+02 -.409510248115495D+02 -.552612933799949D+02 -.226789960855908D+01
 0.267491665925334D+03 -.204694638556133D+03 0.144080811773301D+03 0.240284127780303D+02
 0.404303374623290D+03 0.173622613311630D+03 -.854658405629111D+02 -.354981685408551D+03
-.434465213305D-05 0.000000000000D+00 0.000000000000D+00 0.284164873409D-06 0.000000000000D+00  7 -2 21 -24 -11 11 23 -1 2 0.85551158D-01 0.93420908D-01 0.27277356D+06 0.27277356D+06 0.27277356D+06 0.10876221D+01  1  2 13  4  7  2        1 -.546086398181D-04 0.100000000000D+01
0.968685077424D-05 0.000000000000D+00 0.000000000000D+00 0.284164873409D-06 0.586048972693D-11  7 -2 21 -24 -11 11 23 -1 2 0.92885345D-01 0.93156514D-01 0.27277356D+06 0.27277356D+06 0.27277356D+06 0.10876221D+01  1  2  1  4  7  2        1 0.101287300879D-03 0.100000000000D+01
  </mgrwgt>
  </event>
  <event>
  9     66 -.26562228E-05 0.25239699E+03 0.75467711E-02 0.10260758E+00
       -2 -1    0    0    0  501 0.00000000E+00 0.00000000E+00 0.51098133E+02 0.51099135E+02 0.32000000E+00 0.0000E+00 0.9000E+01
        1 -1    0    0  502    0 0.00000000E+00 0.00000000E+00 -.16461831E+04 0.16461831E+04 0.32000000E+00 0.0000E+00 0.9000E+01
       25  2    1    2    0    0 -.11069122E+03 -.13670878E+03 -.11006779E+04 0.11543297E+04 0.30007226E+03 0.0000E+00 0.0000E+00
       23  2    3    3    0    0 0.38506151E+02 -.11382812E+03 -.30934913E+03 0.34358938E+03 0.88978725E+02 0.0000E+00 0.0000E+00
      -24  1    1    2    0    0 0.12867857E+03 0.13948872E+03 -.45016807E+03 0.49510987E+03 0.80419002E+02 0.0000E+00 0.9000E+01
      -13  1    4    4    0    0 0.11170277E+01 -.36074448E+02 -.20518442E+03 0.20833452E+03 0.10565837E+00 0.0000E+00 0.9000E+01
       13  1    4    4    0    0 0.37389123E+02 -.77753674E+02 -.10416471E+03 0.13525487E+03 0.10565837E+00 0.0000E+00 0.9000E+01
       23  1    3    3    0    0 -.14919737E+03 -.22880662E+02 -.79132874E+03 0.81074028E+03 0.91188000E+02 0.0000E+00 0.9000E+01
       21  1    1    2  502  501 -.17987353E+02 -.27799350E+01 -.44239005E+02 0.47842711E+02 0.75000000E+00 0.0000E+00 0.9000E+01
#aMCatNLO 2  0  0  2  1 0.18200904D+02 0.00000000D+00  -5  7  0 0.00000000D+00 0.00000000D+00 0.00000000D+00 0.00000000D+00 0.00000000D+00
  <mgrwgt>
 -.5614866829D-03    3    2    0
 0.280711762032655D+03 0.000000000000000D+00 0.000000000000000D+00 0.280711762032655D+03
 0.280711762032655D+03 0.000000000000000D+00 0.000000000000000D+00 -.280711762032655D+03
 0.206279412579965D+03 0.121996042614238D+03 0.138455938357953D+03 0.450654947809163D+02
 0.454307746285432D+02 -.335521505481791D+00 -.362988718140720D+02 -.273172951386921D+02
 0.108821537224458D+03 0.338914781472782D+02 -.782942995820186D+02 0.675536625642737D+02
 0.200891799632344D+03 -.155551999256034D+03 -.238627669618624D+02 -.853018622064978D+02
 0.000000000000000D+00 -.000000000000000D+00 -.000000000000000D+00 0.000000000000000D+00
 0.291117255433905D+03 0.000000000000000D+00 0.000000000000000D+00 0.291117255433905D+03
 0.288932749656943D+03 0.000000000000000D+00 0.000000000000000D+00 -.288932749656943D+03
 0.210981970888917D+03 0.128678570423375D+03 0.139488719184559D+03 0.450654947809163D+02
 0.452641557581330D+02 0.111697666105874D+01 -.360743890584547D+02 -.273172951386921D+02
 0.109576870781179D+03 0.373891740587374D+02 -.777537326920887D+02 0.675536625642737D+02
 0.195895478560970D+03 -.149197368499660D+03 -.228806624360311D+02 -.853018622064978D+02
 0.183315291016496D+02 -.179873526435111D+02 -.277993499798492D+01 0.218450577696151D+01
-.232904605909D-04 0.000000000000D+00 0.000000000000D+00 0.663247544839D-06 0.000000000000D+00  7 -2 1 -24 -13 13 23 21 2 0.75801402D-02 0.25766499D+00 0.68390016D+05 0.68390016D+05 0.68390016D+05 0.11355197D+01  1  2 13  2  7  2        1 -.161275470645D-02 0.100000000000D+01
-.546750124713D-05 0.000000000000D+00 0.000000000000D+00 0.663247544839D-06 0.000000000000D+00  7 -2 1 -24 -13 13 23 21 2 0.75801402D-02 0.24604654D+00 0.63704239D+05 0.63704239D+05 0.63704239D+05 0.11381556D+01  1  2  8  2  7  2        1 -.426425557314D-03 0.100000000000D+01
0.215949968978D-04 0.000000000000D+00 0.000000000000D+00 0.663247544839D-06 0.137875106554D-07  7 -2 1 -24 -13 13 23 21 2 0.78611228D-02 0.25325232D+00 0.68390016D+05 0.68390016D+05 0.68390016D+05 0.11355197D+01  1  2  1  2  7  2        1 0.147769358083D-02 0.100000000000D+01
  </mgrwgt>
  </event>
  <event>
  8     66 0.26562228E-05 0.16734559E+03 0.75467711E-02 0.10461033E+00
       -4 -1    0    0    0  501 0.00000000E+00 0.00000000E+00 0.56193018E+03 0.56193232E+03 0.15500000E+01 0.0000E+00 0.9000E+01
        3 -1    0    0  501    0 0.00000000E+00 0.00000000E+00 -.15052053E+03 0.15052136E+03 0.50000000E+00 0.0000E+00 0.9000E+01
       25  2    1    2    0    0 -.86210162E+02 0.15265538E+03 0.38391998E+03 0.51762361E+03 0.29967281E+03 0.0000E+00 0.0000E+00
       23  2    3    3    0    0 -.66846480E+02 0.80192109E+02 0.37431889E+03 0.39916133E+03 0.91191640E+02 0.0000E+00 0.0000E+00
      -24  1    1    2    0    0 0.86210162E+02 -.15265538E+03 0.27489673E+02 0.19483007E+03 0.80419002E+02 0.0000E+00 0.9000E+01
      -13  1    4    4    0    0 -.80697561E+02 0.47887977E+02 0.32711917E+03 0.34031209E+03 0.10565837E+00 0.0000E+00 0.9000E+01
       13  1    4    4    0    0 0.13851080E+02 0.32304132E+02 0.47199718E+02 0.58849247E+02 0.10565837E+00 0.0000E+00 0.9000E+01
       23  1    3    3    0    0 -.19363681E+02 0.72463275E+02 0.96010929E+01 0.11846228E+03 0.91188000E+02 0.0000E+00 0.9000E+01
#aMCatNLO 1  0  0  1  2 0.12757878D+02 0.00000000D+00  -5  7  0 0.00000000D+00 0.00000000D+00 0.00000000D+00 0.00000000D+00 0.00000000D+00
  <mgrwgt>
 0.2459721584D-03    6    2    0
 0.290831713769220D+03 0.000000000000000D+00 0.000000000000000D+00 0.290831713769220D+03
 0.290831713769220D+03 0.000000000000000D+00 0.000000000000000D+00 -.290831713769220D+03
 0.219195290022222D+03 0.862101618164455D+02 -.152655384153520D+03 -.104132131938606D+03
 0.185462458290277D+03 -.806976874132043D+02 0.478879983490897D+02 0.159971704671017D+03
 0.386973415614394D+02 0.138512069741315D+02 0.323041104906830D+02 0.161886613000648D+02
 0.138308337664500D+03 -.193636813773727D+02 0.724632753137469D+02 -.720282340324760D+02
 0.000000000000000D+00 -.000000000000000D+00 0.000000000000000D+00 -.000000000000000D+00
 0.295901509062545D+03 0.000000000000000D+00 0.000000000000000D+00 0.295901509062545D+03
 0.299040082127426D+03 0.000000000000000D+00 0.000000000000000D+00 -.299040082127426D+03
 0.222938967220963D+03 0.873145351414148D+02 -.157376104292038D+03 -.104132131938606D+03
 0.184081143328744D+03 -.797746327316110D+02 0.439423372888026D+02 0.159971704671017D+03
 0.380859400500453D+02 0.140429980571027D+02 0.314842862452944D+02 0.161886613000648D+02
 0.136697272175076D+03 -.186767659105246D+02 0.695270076545299D+02 -.720282340324760D+02
 0.131382684151436D+02 -.290613455638189D+01 0.124224731034108D+02 -.313857306488131D+01
0.211562231832D-04 0.000000000000D+00 0.000000000000D+00 0.288822589268D-05 0.000000000000D+00  7 -4 3 -24 -13 13 23 21 0 0.86451025D-01 0.23157233D-01 0.48386567D+05 0.48386567D+05 0.48386567D+05 0.11485505D+01  1  2  2  1  7  1       -4 0.117844867216D-03 0.100000000000D+01
-.106390286536D-05 0.000000000000D+00 -.812454675850D-07 0.288822589268D-05 0.000000000000D+00  7 -4 3 -24 -13 13 23 21 2 0.86451025D-01 0.23157233D-01 0.48386567D+05 0.48386567D+05 0.48386567D+05 0.11485505D+01  1  2  3  1  7  1       -4 -.781762258730D-05 0.100000000000D+01
0.134510882877D-05 0.000000000000D+00 0.000000000000D+00 0.288822589268D-05 0.000000000000D+00  7 -4 3 -24 -13 13 23 21 2 0.86451025D-01 0.23157233D-01 0.48386567D+05 0.48386567D+05 0.48386567D+05 0.11485505D+01  1  2 15  1  7  1       -4 0.988394101050D-05 0.100000000000D+01
0.271329421971D-04 0.000000000000D+00 0.000000000000D+00 0.288822589268D-05 0.000000000000D+00  7 -4 3 -24 -13 13 23 21 2 0.89150814D-01 0.23157233D-01 0.50988969D+05 0.50988969D+05 0.50988969D+05 0.11465479D+01  1  2 12  1  7  1       -4 0.183532292423D-03 0.100000000000D+01
-.164080012144D-04 0.000000000000D+00 0.000000000000D+00 0.288822589268D-05 0.000000000000D+00  7 -4 3 -24 -13 13 23 21 2 0.86451025D-01 0.23157233D-01 0.48386567D+05 0.48386567D+05 0.48386567D+05 0.11485505D+01  1  2  4  1  7  1       -4 -.120566985091D-03 0.100000000000D+01
0.389403570947D-06 0.000000000000D+00 0.000000000000D+00 0.288822589268D-05 0.000000000000D+00  7 21 3 -24 -13 13 23 4 2 0.89150814D-01 0.23157233D-01 0.50988969D+05 0.50988969D+05 0.50988969D+05 0.11465479D+01  1  2 12  3  7  1       -4 0.630956653884D-04 0.100000000000D+01
  </mgrwgt>
  </event>
  <event>
  9     66 0.26562228E-05 0.30211747E+03 0.75467711E-02 0.10012947E+00
       21 -1    0    0  502  501 0.00000000E+00 0.00000000E+00 0.10943914E+03 0.10944171E+03 0.75000000E+00 0.0000E+00 0.9000E+01
        1 -1    0    0  501    0 0.00000000E+00 0.00000000E+00 -.19547643E+04 0.19547643E+04 0.32000000E+00 0.0000E+00 0.9000E+01
       25  2    1    2    0    0 0.26750600E+03 -.48474056E+02 -.33220800E+03 0.52330027E+03 0.29928553E+03 0.0000E+00 0.0000E+00
       23  2    3    3    0    0 0.19405707E+03 0.41831140E+02 -.30008106E+03 0.37198218E+03 0.94414574E+02 0.0000E+00 0.0000E+00
      -24  1    1    2    0    0 -.23859711E+03 0.48617409E+02 -.14322578E+04 0.14550333E+04 0.80419002E+02 0.0000E+00 0.9000E+01
      -13  1    4    4    0    0 0.10822900E+03 0.14758045E+02 -.24024002E+03 0.26390641E+03 0.10565837E+00 0.0000E+00 0.9000E+01
       13  1    4    4    0    0 0.85828078E+02 0.27073095E+02 -.59841033E+02 0.10807577E+03 0.10565837E+00 0.0000E+00 0.9000E+01
       23  1    3    3    0    0 0.73448926E+02 -.90305196E+02 -.32126946E+02 0.15131809E+03 0.91188000E+02 0.0000E+00 0.9000E+01
        2  1    1    2  502    0 -.28908893E+02 -.14335264E+00 -.80859318E+02 0.85872442E+02 0.32000000E+00 0.0000E+00 0.9000E+01
#aMCatNLO 2  0  0  1  2 0.28909249D+02 0.00000000D+00  -5  7  0 0.00000000D+00 0.00000000D+00 0.00000000D+00 0.00000000D+00 0.00000000D+00
  <mgrwgt>
 0.1660543831D-03    1    2    0
 0.447109706152518D+03 0.000000000000000D+00 0.000000000000000D+00 0.447109706152518D+03
 0.447109706152518D+03 0.000000000000000D+00 0.000000000000000D+00 -.447109706152518D+03
 0.400642021424163D+03 -.251418093138393D+03 0.485538323115090D+02 -.297452989877374D+03
 0.106314735920886D+03 0.104737257521529D+03 0.147407149194972D+02 -.107536637690976D+02
 0.118245477098251D+03 0.819624450101662D+02 0.270539421840297D+02 0.808222412115103D+02
 0.269017177861736D+03 0.647183906066976D+02 -.903484894150360D+02 0.227384412434962D+03
 0.000000000000000D+00 -.000000000000000D+00 -.000000000000000D+00 -.000000000000000D+00
 0.457828322506734D+03 0.000000000000000D+00 0.000000000000000D+00 0.457828322506734D+03
 0.467270398627735D+03 0.000000000000000D+00 0.000000000000000D+00 -.467270398627735D+03
 0.392731115377373D+03 -.238597106893763D+03 0.486174086734526D+02 -.297452989877374D+03
 0.109758655391043D+03 0.108229024319947D+03 0.147580297988336D+02 -.107536637690976D+02
 0.120961325075814D+03 0.858280499544671D+02 0.270731108419146D+02 0.808222412115103D+02
 0.271235498445042D+03 0.734489258495190D+02 -.903051966715630D+02 0.227384412434962D+03
 0.304121268451963D+02 -.289088932301702D+02 -.143352642637726D+00 -.944207612100107D+01
0.987528933715D-06 0.000000000000D+00 0.000000000000D+00 0.564613394828D-06 0.203633668517D-10  7 21 1 -24 -13 13 23 2 2 0.16836960D-01 0.30073261D+00 0.99995361D+05 0.99995361D+05 0.99995361D+05 0.11217237D+01  1  2  1  3  7  1       -2 0.166054383074D-03 0.100000000000D+01
  </mgrwgt>
  </event>
  <event>
  8     66 0.26562228E-05 0.12771040E+03 0.75467711E-02 0.10611892E+00
       -2 -1    0    0    0  501 0.00000000E+00 0.00000000E+00 0.21999868E+03 0.21999891E+03 0.32000000E+00 0.0000E+00 0.9000E+01
        1 -1    0    0  501    0 0.00000000E+00 0.00000000E+00 -.26374147E+03 0.26374166E+03 0.32000000E+00 0.0000E+00 0.9000E+01
       25  2    1    2    0    0 -.37644253E+02 -.96569787E+02 -.11144072E+03 0.33611592E+03 0.29968660E+03 0.0000E+00 0.0000E+00
       23  2    3    3    0    0 0.92108261E+02 -.47135422E+02 -.10089013E+03 0.16966461E+03 0.88890841E+02 0.0000E+00 0.0000E+00
      -24  1    1    2    0    0 0.37644253E+02 0.96569787E+02 0.67697934E+02 0.14762466E+03 0.80419002E+02 0.0000E+00 0.9000E+01
      -11  1    4    4    0    0 0.36955026E+02 -.11609009E+02 0.10728362E+02 0.40193790E+02 0.51099893E-03 0.0000E+00 0.9000E+01
       11  1    4    4    0    0 0.55153235E+02 -.35526412E+02 -.11161849E+03 0.12947082E+03 0.51099893E-03 0.0000E+00 0.9000E+01
       23  1    3    3    0    0 -.12975251E+03 -.49434366E+02 -.10550591E+02 0.16645131E+03 0.91188000E+02 0.0000E+00 0.9000E+01
#aMCatNLO 1  0  0  1  2 0.41042312D+01 0.00000000D+00  -5  7  0 0.00000000D+00 0.00000000D+00 0.00000000D+00 0.00000000D+00 0.00000000D+00
  <mgrwgt>
 0.3675153916D-03   11    2    0
 0.240879384770426D+03 0.000000000000000D+00 0.000000000000000D+00 0.240879384770426D+03
 0.240879384770426D+03 0.000000000000000D+00 0.000000000000000D+00 -.240879384770426D+03
 0.154378784785236D+03 0.376442525680231D+02 0.965697874417606D+02 0.813804622710134D+02
 0.413332500273054D+02 0.369550258570111D+02 -.116090093748229D+02 0.144220152219672D+02
 0.119868672742104D+03 0.551532351891469D+02 -.355264121636512D+02 -.100321948704671D+03
 0.166178061986207D+03 -.129752513614181D+03 -.494343659032866D+02 0.451947121169064D+01
 0.000000000000000D+00 0.000000000000000D+00 0.000000000000000D+00 0.000000000000000D+00
 0.243051683972327D+03 0.000000000000000D+00 0.000000000000000D+00 0.243051683972327D+03
 0.242834539296821D+03 0.000000000000000D+00 0.000000000000000D+00 -.242834539296821D+03
 0.153541190736832D+03 0.375521337718045D+02 0.952614240301624D+02 0.813804622710134D+02
 0.414112942724105D+02 0.369302716077890D+02 -.119605940165388D+02 0.144220152219672D+02
 0.120141933734377D+03 0.550814324809568D+02 -.365462261441405D+02 -.100321948704671D+03
 0.166681832999501D+03 -.129852093554663D+03 -.508486999589105D+02 0.451947121169064D+01
 0.410997152602716D+01 0.288255694112315D+00 0.409409608942748D+01 0.217144675505745D+00
0.478582221004D-05 0.000000000000D+00 0.000000000000D+00 0.286816194997D-06 0.000000000000D+00  7 -2 1 -24 -11 11 23 21 0 0.33845984D-01 0.40575643D-01 0.40329489D+05 0.40329489D+05 0.40329489D+05 0.11555978D+01  1  2  2  1  7  1       -2 0.438976138089D-03 0.100000000000D+01
-.255185455068D-06 0.000000000000D+00 -.183788174225D-07 0.286816194997D-06 0.000000000000D+00  7 -2 1 -24 -11 11 23 21 2 0.33845984D-01 0.40575643D-01 0.40329489D+05 0.40329489D+05 0.40329489D+05 0.11555978D+01  1  2  3  1  7  1       -2 -.312574609194D-04 0.100000000000D+01
0.306467229685D-06 0.000000000000D+00 0.000000000000D+00 0.286816194997D-06 0.000000000000D+00  7 -2 1 -24 -11 11 23 21 2 0.33845984D-01 0.40575643D-01 0.40329489D+05 0.40329489D+05 0.40329489D+05 0.11555978D+01  1  2 15  1  7  1       -2 0.375389242009D-04 0.100000000000D+01
0.244257481894D-06 0.000000000000D+00 0.000000000000D+00 0.286816194997D-06 0.000000000000D+00  7 -2 1 -24 -11 11 23 21 2 0.34287400D-01 0.40575643D-01 0.41177902D+05 0.41177902D+05 0.41177902D+05 0.11547855D+01  1  2 12  1  7  1       -2 0.291980333718D-04 0.100000000000D+01
-.347265042245D-04 0.000000000000D+00 0.000000000000D+00 0.286816194997D-06 0.000000000000D+00  7 -2 1 -24 -11 11 23 21 2 0.33845984D-01 0.40575643D-01 0.40329489D+05 0.40329489D+05 0.40329489D+05 0.11555978D+01  1  2  4  1  7  1       -2 -.425362154115D-02 0.100000000000D+01
-.298701519959D-03 0.000000000000D+00 -.363981295162D-04 0.286816194997D-06 0.000000000000D+00  7 -2 1 -24 -11 11 23 21 2 0.34409219D-01 0.40575643D-01 0.40329489D+05 0.40329489D+05 0.40329489D+05 0.11555978D+01  1  2  5  1  7  1       -2 -.355295137027D-01 0.100000000000D+01
0.299266438527D-03 0.000000000000D+00 0.363931728754D-04 0.286816194997D-06 0.000000000000D+00  7 -2 1 -24 -11 11 23 21 2 0.33845984D-01 0.40575643D-01 0.40329489D+05 0.40329489D+05 0.40329489D+05 0.11555978D+01  1  2  6  1  7  1       -2 0.366569050899D-01 0.100000000000D+01
0.345373591074D-04 0.000000000000D+00 0.000000000000D+00 0.286816194997D-06 0.121109289885D-06  7 -2 1 -24 -11 11 23 21 2 0.34151214D-01 0.40904985D-01 0.41177902D+05 0.41177902D+05 0.41177902D+05 0.11547855D+01  1  2 11  1  7  1       -2 0.411479799269D-02 0.100000000000D+01
0.146214763012D-07 0.000000000000D+00 0.000000000000D+00 0.286816194997D-06 0.000000000000D+00  7 21 1 -24 -11 11 23 2 2 0.34287400D-01 0.40575643D-01 0.41177902D+05 0.41177902D+05 0.41177902D+05 0.11547855D+01  1  2 12  3  7  1       -2 0.207226587791D-04 0.100000000000D+01
-.898234820326D-06 0.000000000000D+00 -.109897723674D-06 0.286816194997D-06 0.000000000000D+00  7 21 1 -24 -11 11 23 2 2 0.34409219D-01 0.40575643D-01 0.40329489D+05 0.40329489D+05 0.40329489D+05 0.11555978D+01  1  2  5  3  7  1       -2 -.126667305330D-02 0.100000000000D+01
0.106423398295D-06 0.000000000000D+00 0.000000000000D+00 0.286816194997D-06 0.201239135717D-09  7 21 1 -24 -11 11 23 2 2 0.34151214D-01 0.40904985D-01 0.41177902D+05 0.41177902D+05 0.41177902D+05 0.11547855D+01  1  2 11  3  7  1       -2 0.150442312584D-03 0.100000000000D+01
  </mgrwgt>
  </event>
  <event>
  8     66 0.26562228E-05 0.20539343E+03 0.75467711E-02 0.97015948E-01
       -4 -1    0    0    0  501 0.00000000E+00 0.00000000E+00 0.27810889E+03 0.27811321E+03 0.15500000E+01 0.0000E+00 0.9000E+01
        3 -1    0    0  501    0 0.00000000E+00 0.00000000E+00 -.81649940E+03 0.81649955E+03 0.50000000E+00 0.0000E+00 0.9000E+01
       25  2    1    2    0    0 0.84502557E+02 0.30155130E+02 -.77135538E+03 0.83233455E+03 0.29956912E+03 0.0000E+00 0.0000E+00
       23  2    3    3    0    0 0.11781680E+03 -.58240659E+02 -.26960864E+03 0.31369334E+03 0.91879930E+02 0.0000E+00 0.0000E+00
      -24  1    1    2    0    0 -.84502557E+02 -.30155130E+02 0.23296488E+03 0.26227822E+03 0.80419002E+02 0.0000E+00 0.9000E+01
      -13  1    4    4    0    0 -.35261962E+01 0.16243750E+02 -.42607843E+02 0.45735467E+02 0.10565837E+00 0.0000E+00 0.9000E+01
       13  1    4    4    0    0 0.12134299E+03 -.74484409E+02 -.22700079E+03 0.26795787E+03 0.10565837E+00 0.0000E+00 0.9000E+01
       23  1    3    3    0    0 -.33314241E+02 0.88395789E+02 -.50174675E+03 0.51864121E+03 0.91188000E+02 0.0000E+00 0.9000E+01
#aMCatNLO 1  0  0  1  2 0.33613665D+03 0.00000000D+00  -5  7  0 0.00000000D+00 0.00000000D+00 0.00000000D+00 0.00000000D+00 0.00000000D+00
  <mgrwgt>
 0.1203618750D-03    5    2    0
 0.476527220905217D+03 0.000000000000000D+00 0.000000000000000D+00 0.476527220905217D+03
 0.476527220905217D+03 0.000000000000000D+00 0.000000000000000D+00 -.476527220905217D+03
 0.432839033750403D+03 -.845025574026477D+02 -.301551302627873D+02 0.415731162044486D+03
 0.284587911163963D+02 -.352636125838345D+01 0.162438703944363D+02 -.230998753825817D+02
 0.179523033728230D+03 0.121343159652645D+03 -.744845294174845D+02 -.109345379975360D+03
 0.312233583215404D+03 -.333142409916142D+02 0.883957892858354D+02 -.283285906686545D+03
 0.000000000000000D+00 -.000000000000000D+00 0.000000000000000D+00 0.000000000000000D+00
 0.951167761689724D+04 0.000000000000000D+00 0.000000000000000D+00 0.951167761689724D+04
 0.508433422689237D+03 0.000000000000000D+00 0.000000000000000D+00 -.508433422689237D+03
 0.434232710335714D+03 0.558882136128516D+02 -.783258530463339D+02 0.415731162044486D+03
 0.271411986113331D+02 0.547603730848128D+01 0.131549775661210D+02 -.230998753825817D+02
 0.239367874776142D+03 0.189167325319922D+03 -.977562805358186D+02 -.109345379975360D+03
 0.309852406009116D+03 0.674099865718386D+02 0.538354060893482D+02 -.283285906686545D+03
 0.900951684985417D+04 -.317941562813094D+03 0.109091749926683D+03 0.900324419420801D+04
0.127893415634D-03 0.000000000000D+00 0.000000000000D+00 0.120271562236D-04 0.000000000000D+00  7 -4 3 -24 -13 13 23 21 0 0.42786328D-01 0.12561564D+00 0.42186462D+05 0.42186462D+05 0.42186462D+05 0.11538437D+01  1  2  2  1  7  1       -4 0.112352827109D-03 0.100000000000D+01
-.986392179998D-06 0.000000000000D+00 -.491144391146D-06 0.120271562236D-04 0.000000000000D+00  7 -4 3 -24 -13 13 23 21 2 0.42786328D-01 0.12561564D+00 0.42186462D+05 0.42186462D+05 0.42186462D+05 0.11538437D+01  1  2  3  1  7  1       -4 -.115366408487D-05 0.100000000000D+01
0.783874053775D-05 0.000000000000D+00 0.000000000000D+00 0.120271562236D-04 0.000000000000D+00  7 -4 3 -24 -13 13 23 21 2 0.42786328D-01 0.12561564D+00 0.42186462D+05 0.42186462D+05 0.42186462D+05 0.11538437D+01  1  2 15  1  7  1       -4 0.916803033559D-05 0.100000000000D+01
-.118172916173D-01 0.000000000000D+00 -.166250494953D-03 0.120271562236D-04 0.000000000000D+00  7 -4 3 -24 -13 13 23 21 2 0.85470922D+00 0.12561564D+00 0.42186462D+05 0.42186462D+05 0.42186462D+05 0.11538437D+01  1  2  5  1  7  1       -4 -.587816119049D-09 0.100000000000D+01
-.384225650333D-02 0.000000000000D+00 -.534565373951D-04 0.120271562236D-04 0.000000000000D+00  7 21 3 -24 -13 13 23 4 2 0.85470922D+00 0.12561564D+00 0.42186462D+05 0.42186462D+05 0.42186462D+05 0.11538437D+01  1  2  5  3  7  1       -4 -.473054588207D-08 0.100000000000D+01
  </mgrwgt>
  </event>
  <event>
  8     66 0.26562228E-05 0.16853171E+03 0.75467711E-02 0.99083559E-01
       -2 -1    0    0    0  501 0.00000000E+00 0.00000000E+00 0.22836218E+03 0.22836240E+03 0.32000000E+00 0.0000E+00 0.9000E+01
        1 -1    0    0  501    0 0.00000000E+00 0.00000000E+00 -.66539448E+03 0.66539456E+03 0.32000000E+00 0.0000E+00 0.9000E+01
       25  2    1    2    0    0 -.18042754E+03 -.21390101E+03 -.44069810E+03 0.60257249E+03 0.30095023E+03 0.0000E+00 0.0000E+00
       23  2    3    3    0    0 -.20368958E+03 -.16021517E+03 -.40281990E+03 0.48779749E+03 0.92326420E+02 0.0000E+00 0.0000E+00
      -24  1    1    2    0    0 0.18042754E+03 0.21390101E+03 0.36658047E+01 0.29118447E+03 0.80419002E+02 0.0000E+00 0.9000E+01
      -11  1    4    4    0    0 -.18796946E+03 -.13689419E+03 -.29100761E+03 0.37250230E+03 0.51099893E-03 0.0000E+00 0.9000E+01
       11  1    4    4    0    0 -.15720117E+02 -.23320984E+02 -.11181229E+03 0.11529518E+03 0.51099893E-03 0.0000E+00 0.9000E+01
       23  1    3    3    0    0 0.23262034E+02 -.53685843E+02 -.37878201E+02 0.11477500E+03 0.91188000E+02 0.0000E+00 0.9000E+01
#aMCatNLO 1  0  0  1  2 0.25814715D+02 0.00000000D+00  -5  7  0 0.00000000D+00 0.00000000D+00 0.00000000D+00 0.00000000D+00 0.00000000D+00
  <mgrwgt>
 0.7847489576D-03    9    2    0
 0.389809016275878D+03 0.000000000000000D+00 0.000000000000000D+00 0.389809016275878D+03
 0.389809016275878D+03 0.000000000000000D+00 0.000000000000000D+00 -.389809016275878D+03
 0.335869892056466D+03 0.180427544595386D+03 0.213901014231507D+03 0.167432451148707D+03
 0.263907187941798D+03 -.187969461230609D+03 -.136894188026813D+03 -.124797703410365D+03
 0.694959407876486D+02 -.157201173798150D+02 -.233209836309071D+02 -.635507310580465D+02
 0.110345011765844D+03 0.232620340150374D+02 -.536858425737867D+02 0.209159833197049D+02
 0.000000000000000D+00 0.000000000000000D+00 0.000000000000000D+00 0.000000000000000D+00
 0.422085765440210D+03 0.000000000000000D+00 0.000000000000000D+00 0.422085765440210D+03
 0.395218650254414D+03 0.000000000000000D+00 0.000000000000000D+00 -.395218650254414D+03
 0.327620756527477D+03 0.177461092394358D+03 0.203327516932173D+03 0.167432451148707D+03
 0.270097430861680D+03 -.190356984220103D+03 -.145404174424966D+03 -.124797703410365D+03
 0.704181331427342D+02 -.163456701490236D+02 -.255506775776103D+02 -.635507310580465D+02
 0.111908983415059D+03 0.222683412559926D+02 -.572277191968064D+02 0.209159833197049D+02
 0.372591117476729D+02 0.697322071877692D+01 0.248550542672102D+02 0.268671151857961D+02
0.289434241414D-04 0.000000000000D+00 0.000000000000D+00 0.102105431224D-05 0.000000000000D+00  7 -2 1 -24 -11 11 23 21 0 0.35132666D-01 0.10236840D+00 0.10895463D+06 0.10895463D+06 0.10895463D+06 0.11186784D+01  1  2  2  1  7  1       -2 0.704357707330D-03 0.100000000000D+01
-.155389084781D-05 0.000000000000D+00 -.111150369682D-06 0.102105431224D-05 0.000000000000D+00  7 -2 1 -24 -11 11 23 21 2 0.35132666D-01 0.10236840D+00 0.10895463D+06 0.10895463D+06 0.10895463D+06 0.11186784D+01  1  2  3  1  7  1       -2 -.473232262318D-04 0.100000000000D+01
0.184135072195D-05 0.000000000000D+00 0.000000000000D+00 0.102105431224D-05 0.000000000000D+00  7 -2 1 -24 -11 11 23 21 2 0.35132666D-01 0.10236840D+00 0.10895463D+06 0.10895463D+06 0.10895463D+06 0.11186784D+01  1  2 15  1  7  1       -2 0.560777205876D-04 0.100000000000D+01
0.149294233499D-03 0.000000000000D+00 0.000000000000D+00 0.102105431224D-05 0.000000000000D+00  7 -2 1 -24 -11 11 23 21 2 0.38272736D-01 0.10236840D+00 0.11807007D+06 0.11807007D+06 0.11807007D+06 0.11158498D+01  1  2 12  1  7  1       -2 0.386277301877D-02 0.100000000000D+01
-.151851606586D-03 0.000000000000D+00 0.000000000000D+00 0.102105431224D-05 0.000000000000D+00  7 -2 1 -24 -11 11 23 21 2 0.35132666D-01 0.10236840D+00 0.10895463D+06 0.10895463D+06 0.10895463D+06 0.11186784D+01  1  2  4  1  7  1       -2 -.462458990750D-02 0.100000000000D+01
-.298865188871D-03 0.000000000000D+00 -.417289523464D-04 0.102105431224D-05 0.000000000000D+00  7 -2 1 -24 -11 11 23 21 2 0.38462543D-01 0.10236840D+00 0.10895463D+06 0.10895463D+06 0.10895463D+06 0.11186784D+01  1  2  5  1  7  1       -2 -.771408432631D-02 0.100000000000D+01
0.301577094492D-03 0.000000000000D+00 0.415584476147D-04 0.102105431224D-05 0.000000000000D+00  7 -2 1 -24 -11 11 23 21 2 0.35132666D-01 0.10236840D+00 0.10895463D+06 0.10895463D+06 0.10895463D+06 0.11186784D+01  1  2  6  1  7  1       -2 0.918442958147D-02 0.100000000000D+01
0.214891447169D-05 0.000000000000D+00 0.000000000000D+00 0.102105431224D-05 0.000000000000D+00  7 21 1 -24 -11 11 23 2 2 0.38272736D-01 0.10236840D+00 0.11807007D+06 0.11807007D+06 0.11807007D+06 0.11158498D+01  1  2 12  3  7  1       -2 0.626429452532D-03 0.100000000000D+01
-.433866054040D-05 0.000000000000D+00 -.621738536651D-06 0.102105431224D-05 0.000000000000D+00  7 21 1 -24 -11 11 23 2 2 0.38462543D-01 0.10236840D+00 0.10895463D+06 0.10895463D+06 0.10895463D+06 0.11186784D+01  1  2  5  3  7  1       -2 -.126332106308D-02 0.100000000000D+01
  </mgrwgt>
  </event>
  <event>
  8     66 0.26562228E-05 0.36116707E+03 0.75467711E-02 0.95993233E-01
       21 -1    0    0  502  501 0.00000000E+00 0.00000000E+00 0.96056072E+03 0.96056101E+03 0.75000000E+00 0.0000E+00 0.9000E+01
        3 -1    0    0  501    0 0.00000000E+00 0.00000000E+00 -.21525088E+03 0.21525146E+03 0.50000000E+00 0.0000E+00 0.9000E+01
       23  2    1    2    0    0 -.30022772E+02 -.32567755E+03 0.39481950E+03 0.52311619E+03 0.10392730E+03 0.0000E+00 0.0000E+00
      -24  1    1    2    0    0 0.44390886E+02 0.25111234E+03 0.12737000E+03 0.29617273E+03 0.80419002E+02 0.0000E+00 0.9000E+01
      -13  1    3    3    0    0 0.38271165E+02 -.91256079E+02 0.10983386E+03 0.14783721E+03 0.10565837E+00 0.0000E+00 0.9000E+01
       13  1    3    3    0    0 -.68293937E+02 -.23442147E+03 0.28498564E+03 0.37527898E+03 0.10565837E+00 0.0000E+00 0.9000E+01
       23  1    1    2    0    0 0.73161025E+02 -.48374757E+02 0.11373954E+03 0.17013109E+03 0.91188000E+02 0.0000E+00 0.9000E+01
        4  1    1    2  502    0 -.87529138E+02 0.12293997E+03 0.10938081E+03 0.18639246E+03 0.15500000E+01 0.0000E+00 0.9000E+01
#aMCatNLO 2  0  0  1  2 0.15091582D+03 0.00000000D+00  -5  7  0 0.00000000D+00 0.00000000D+00 0.00000000D+00 0.00000000D+00 0.00000000D+00
  <mgrwgt>
 0.4496239834D-03    1    2    0
 0.371406326177572D+03 0.000000000000000D+00 0.000000000000000D+00 0.371406326177572D+03
 0.371406326177572D+03 0.000000000000000D+00 0.000000000000000D+00 -.371406326177572D+03
 0.321786652190086D+03 0.930877768260900D+01 0.300387279016590D+03 -.822208175366653D+02
 0.832748015039942D+02 0.275340651103282D+02 -.761749173613635D+02 0.193377813882381D+02
 0.225138793094888D+03 -.960495921345700D+02 -.195437264311607D+03 0.571509205997637D+02
 0.112612405566176D+03 0.592067493416328D+02 -.287750973436197D+02 0.573211554866349D+01
 0.000000000000000D+00 -.000000000000000D+00 0.000000000000000D+00 -.000000000000000D+00
 0.447957771670145D+03 0.000000000000000D+00 0.000000000000000D+00 0.447957771670145D+03
 0.461557886869665D+03 0.000000000000000D+00 0.000000000000000D+00 -.461557886869665D+03
 0.279741729272035D+03 0.443908860155947D+02 0.251112336503189D+03 -.822208175366653D+02
 0.100827978007822D+03 0.382712370448232D+02 -.912559246032029D+02 0.193377813882381D+02
 0.250766431049389D+03 -.682940295639704D+02 -.234421630277078D+03 0.571509205997637D+02
 0.126652134631421D+03 0.731610443975889D+02 -.483747485439089D+02 0.573211554866349D+01
 0.151527385579143D+03 -.875291378940364D+02 0.122939966921001D+03 -.136001151995199D+02
0.240629322106D-04 0.000000000000D+00 0.000000000000D+00 0.516618470152D-10 0.592423394724D-15  7 21 3 -24 -13 13 23 4 2 0.14777735D+00 0.33115298D-01 0.19711260D+06 0.19711260D+06 0.19711260D+06 0.10983108D+01  1  2  1  3  7  1       -4 0.449623983440D-03 0.100000000000D+01
  </mgrwgt>
  </event>
  <event>
  8     66 0.26562228E-05 0.17867583E+03 0.75467711E-02 0.98571211E-01
       -2 -1    0    0    0  501 0.00000000E+00 0.00000000E+00 0.35136465E+02 0.35137922E+02 0.32000000E+00 0.0000E+00 0.9000E+01
        1 -1    0    0  501    0 0.00000000E+00 0.00000000E+00 -.19712976E+04 0.19712977E+04 0.32000000E+00 0.0000E+00 0.9000E+01
       25  2    1    2    0    0 0.59215124E+02 -.82981150E+02 -.76699377E+03 0.83008022E+03 0.30060179E+03 0.0000E+00 0.0000E+00
       23  2    3    3    0    0 0.19152883E+02 -.87410816E+02 -.69515486E+03 0.70719538E+03 0.94220679E+02 0.0000E+00 0.0000E+00
      -24  1    1    2    0    0 -.59215124E+02 0.82981150E+02 -.11691674E+04 0.11763554E+04 0.80419002E+02 0.0000E+00 0.9000E+01
      -11  1    4    4    0    0 0.21851996E+02 -.10640397E+03 -.53659686E+03 0.54748106E+03 0.51099893E-03 0.0000E+00 0.9000E+01
       11  1    4    4    0    0 -.26991132E+01 0.18993154E+02 -.15855800E+03 0.15971432E+03 0.51099893E-03 0.0000E+00 0.9000E+01
       23  1    3    3    0    0 0.40062241E+02 0.44296655E+01 -.71838903E+02 0.12288484E+03 0.91188000E+02 0.0000E+00 0.9000E+01
#aMCatNLO 1  0  0  2  1 0.27923488D+03 0.00000000D+00  -5  7  0 0.00000000D+00 0.00000000D+00 0.00000000D+00 0.00000000D+00 0.00000000D+00
  <mgrwgt>
 0.1207388244D-02    5    2    0
 0.263184189545422D+03 0.000000000000000D+00 0.000000000000000D+00 0.263184189545422D+03
 0.263184189545422D+03 0.000000000000000D+00 0.000000000000000D+00 -.263184189545422D+03
 0.183492645204685D+03 -.592151241160027D+02 0.829811500797679D+02 -.129653510161535D+03
 0.113128877108329D+03 0.218519959997897D+02 -.106403969755920D+03 -.316042453920021D+02
 0.255764886201901D+02 -.269911318614478D+01 0.189931542167350D+02 -.169154264222459D+02
 0.204170368157640D+03 0.400622413023578D+02 0.442966545941707D+01 0.178173181975783D+03
 0.000000000000000D+00 0.000000000000000D+00 0.000000000000000D+00 -.000000000000000D+00
 0.338070664342728D+03 0.000000000000000D+00 0.000000000000000D+00 0.338070664342728D+03
 0.783474639982102D+03 0.000000000000000D+00 0.000000000000000D+00 -.783474639982102D+03
 0.175651744480316D+03 -.870200902931503D+02 -.194693933458291D+01 -.129653510161535D+03
 0.178099714482407D+03 -.694927665371811D+00 -.175271780522299D+03 -.316042453920021D+02
 0.198224784047050D+02 -.621390216478315D+01 0.825750682379878D+01 -.169154264222459D+02
 0.222274858704628D+03 0.704684290030796D+01 -.964132807134221D+02 0.178173181975783D+03
 0.525696508252773D+03 0.868820772229973D+02 0.265374493746506D+03 -.445403975639375D+03
0.204552545455D-04 0.000000000000D+00 0.000000000000D+00 0.190943026494D-06 0.000000000000D+00  7 -2 1 -24 -11 11 23 21 0 0.54057240D-02 0.30327667D+00 0.31925053D+05 0.31925053D+05 0.31925053D+05 0.11648381D+01  1  2  2  2  7  2        1 0.118186079782D-02 0.100000000000D+01
-.929166574480D-06 0.000000000000D+00 -.785535634471D-07 0.190943026494D-06 0.000000000000D+00  7 -2 1 -24 -11 11 23 21 2 0.54057240D-02 0.30327667D+00 0.31925053D+05 0.31925053D+05 0.31925053D+05 0.11648381D+01  1  2  3  2  7  2        1 -.728427218594D-04 0.100000000000D+01
0.125500164766D-05 0.000000000000D+00 0.000000000000D+00 0.190943026494D-06 0.000000000000D+00  7 -2 1 -24 -11 11 23 21 2 0.54057240D-02 0.30327667D+00 0.31925053D+05 0.31925053D+05 0.31925053D+05 0.11648381D+01  1  2 15  2  7  2        1 0.983868107877D-04 0.100000000000D+01
-.481793996038D-05 0.000000000000D+00 -.506032900366D-05 0.190943026494D-06 0.000000000000D+00  7 -2 1 -24 -11 11 23 21 2 0.54057240D-02 0.91053271D+00 0.31925053D+05 0.31925053D+05 0.31925053D+05 0.11648381D+01  1  2  5  2  7  2        1 -.166259050060D-07 0.100000000000D+01
-.350109153790D-06 0.000000000000D+00 -.633078362738D-06 0.190943026494D-06 0.000000000000D+00  7 -2 21 -24 -11 11 23 -1 2 0.54057240D-02 0.91053271D+00 0.31925053D+05 0.31925053D+05 0.31925053D+05 0.11648381D+01  1  2  5  4  7  2        1 -.167460779311D-10 0.100000000000D+01
  </mgrwgt>
  </event>
  <event>
  8     66 0.26562228E-05 0.16256487E+03 0.75467711E-02 0.99613584E-01
       -2 -1    0    0    0  501 0.00000000E+00 0.00000000E+00 0.14177005E+03 0.14177041E+03 0.32000000E+00 0.0000E+00 0.9000E+01
        1 -1    0    0  501    0 0.00000000E+00 0.00000000E+00 -.57741459E+03 0.57741468E+03 0.32000000E+00 0.0000E+00 0.9000E+01
       25  2    1    2    0    0 0.86766383E+02 -.17187826E+03 -.21095419E+03 0.41255256E+03 0.29770355E+03 0.0000E+00 0.0000E+00
       23  2    3    3    0    0 0.13420806E+03 -.17969709E+03 -.10228393E+03 0.26276497E+03 0.90997684E+02 0.0000E+00 0.0000E+00
      -24  1    1    2    0    0 -.86766383E+02 0.17187826E+03 -.22469035E+03 0.30663253E+03 0.80419002E+02 0.0000E+00 0.9000E+01
      -13  1    4    4    0    0 0.48894368E+02 -.88065135E+02 0.57799440E+00 0.10072970E+03 0.10565837E+00 0.0000E+00 0.9000E+01
       13  1    4    4    0    0 0.85313692E+02 -.91631952E+02 -.10286193E+03 0.16203527E+03 0.10565837E+00 0.0000E+00 0.9000E+01
       23  1    3    3    0    0 -.47441676E+02 0.78188281E+01 -.10867026E+03 0.14978760E+03 0.91188000E+02 0.0000E+00 0.9000E+01
#aMCatNLO 1  0  0  2  1 0.11302105D+03 0.00000000D+00  -5  7  0 0.00000000D+00 0.00000000D+00 0.00000000D+00 0.00000000D+00 0.00000000D+00
  <mgrwgt>
 0.7189350480D-03    7    2    0
 0.286112317162021D+03 0.000000000000000D+00 0.000000000000000D+00 0.286112317162021D+03
 0.286112317162021D+03 0.000000000000000D+00 0.000000000000000D+00 -.286112317162021D+03
 0.214322165577179D+03 -.867663839574589D+02 0.171878259462588D+03 -.489513354504183D+02
 0.127039444164939D+03 0.488943186051101D+02 -.880651297645166D+02 0.774138159596693D+02
 0.125339081990881D+03 0.853137407196179D+02 -.916319567796557D+02 -.591908907467923D+01
 0.105523942591041D+03 -.474416753672691D+02 0.781882708158415D+01 -.225433914345718D+02
 0.000000000000000D+00 0.000000000000000D+00 -.000000000000000D+00 -.000000000000000D+00
 0.301321977263476D+03 0.000000000000000D+00 0.000000000000000D+00 0.301321977263476D+03
 0.621461845491829D+03 0.000000000000000D+00 0.000000000000000D+00 -.621461845491829D+03
 0.246978630369846D+03 -.128661938133962D+03 0.188629531988572D+03 -.489513354504183D+02
 0.114069079920684D+03 0.269967296089575D+02 -.793097262820568D+02 0.774138159596693D+02
 0.105395163846032D+03 0.643583485291714D+02 -.832532757388899D+02 -.591908907467923D+01
 0.116836467076141D+03 -.676365518378285D+02 0.158934279798496D+02 -.225433914345718D+02
 0.339504481542601D+03 0.104943411833662D+03 -.419599579474751D+02 -.320139868228353D+03
0.122980188318D-04 0.000000000000D+00 0.000000000000D+00 0.114667561058D-06 0.000000000000D+00  7 -2 1 -24 -13 13 23 21 0 0.21810812D-01 0.88833049D-01 0.72272808D+05 0.72272808D+05 0.72272808D+05 0.11334818D+01  1  2  2  2  7  2        1 0.843413890702D-03 0.100000000000D+01
-.680000857880D-06 0.000000000000D+00 -.472276304566D-07 0.114667561058D-06 0.000000000000D+00  7 -2 1 -24 -13 13 23 21 2 0.21810812D-01 0.88833049D-01 0.72272808D+05 0.72272808D+05 0.72272808D+05 0.11334818D+01  1  2  3  2  7  2        1 -.599161891340D-04 0.100000000000D+01
0.792689162404D-06 0.000000000000D+00 0.000000000000D+00 0.114667561058D-06 0.000000000000D+00  7 -2 1 -24 -13 13 23 21 2 0.21810812D-01 0.88833049D-01 0.72272808D+05 0.72272808D+05 0.72272808D+05 0.11334818D+01  1  2 15  2  7  2        1 0.698453733237D-04 0.100000000000D+01
0.258868922440D-04 0.000000000000D+00 0.000000000000D+00 0.114667561058D-06 0.000000000000D+00  7 -2 1 -24 -13 13 23 21 2 0.21810812D-01 0.19250685D+00 0.10848737D+06 0.10848737D+06 0.10848737D+06 0.11188303D+01  1  2 12  2  7  2        1 0.622335563171D-03 0.100000000000D+01
-.313404140232D-04 0.000000000000D+00 -.386838691686D-05 0.114667561058D-06 0.000000000000D+00  7 -2 1 -24 -13 13 23 21 2 0.21810812D-01 0.19643196D+00 0.72272808D+05 0.72272808D+05 0.72272808D+05 0.11334818D+01  1  2  5  2  7  2        1 -.750420940594D-03 0.100000000000D+01
0.216789501059D-05 0.000000000000D+00 0.000000000000D+00 0.114667561058D-06 0.000000000000D+00  7 -2 21 -24 -13 13 23 -1 2 0.21810812D-01 0.19250685D+00 0.10848737D+06 0.10848737D+06 0.10848737D+06 0.11188303D+01  1  2 12  4  7  2        1 0.540225097620D-04 0.100000000000D+01
-.245279429320D-05 0.000000000000D+00 -.332859099433D-06 0.114667561058D-06 0.000000000000D+00  7 -2 21 -24 -13 13 23 -1 2 0.21810812D-01 0.19643196D+00 0.72272808D+05 0.72272808D+05 0.72272808D+05 0.11334818D+01  1  2  5  4  7  2        1 -.603451592097D-04 0.100000000000D+01
  </mgrwgt>
  </event>
  <event>
  8     66 0.26562228E-05 0.19405425E+03 0.75467711E-02 0.89063814E-01
       -2 -1    0    0    0  501 0.00000000E+00 0.00000000E+00 0.31001711E+03 0.31001727E+03 0.32000000E+00 0.0000E+00 0.9000E+01
        1 -1    0    0  501    0 0.00000000E+00 0.00000000E+00 -.24483803E+03 0.24483824E+03 0.32000000E+00 0.0000E+00 0.9000E+01
       25  2    1    2    0    0 -.37653274E+01 -.60684740E+02 0.21501090E+03 0.37426313E+03 0.30024388E+03 0.0000E+00 0.0000E+00
       23  2    3    3    0    0 -.10987022E+03 -.39263700E+02 0.16821981E+03 0.22519346E+03 0.93814117E+02 0.0000E+00 0.0000E+00
      -24  1    1    2    0    0 0.37653274E+01 0.60684740E+02 -.14983183E+03 0.18059238E+03 0.80419002E+02 0.0000E+00 0.9000E+01
      -11  1    4    4    0    0 0.75013393E+01 -.26676839E+02 0.14192528E+02 0.31134413E+02 0.51099893E-03 0.0000E+00 0.9000E+01
       11  1    4    4    0    0 -.11737156E+03 -.12586861E+02 0.15402728E+03 0.19405905E+03 0.51099893E-03 0.0000E+00 0.9000E+01
       23  1    3    3    0    0 0.10610489E+03 -.21421040E+02 0.46791098E+02 0.14906967E+03 0.91188000E+02 0.0000E+00 0.9000E+01
#aMCatNLO 1  0  0  1  1 0.79744386D+03 0.00000000D+00  -5  7  0 0.00000000D+00 0.00000000D+00 0.00000000D+00 0.00000000D+00 0.00000000D+00
  <mgrwgt>
 0.1418668799D-02    3    2    0
 0.275506954977425D+03 0.000000000000000D+00 0.000000000000000D+00 0.275506954977425D+03
 0.275506954977425D+03 0.000000000000000D+00 0.000000000000000D+00 -.275506954977425D+03
 0.199574960076899D+03 0.376532744446292D+01 0.606847399869368D+02 -.172238594331465D+03
 0.296726534811142D+02 0.750133925864279D+01 -.266768387766883D+02 0.106086072045112D+02
 0.177192217939213D+03 -.117371556248825D+03 -.125868610525214D+02 0.132146020790605D+03
 0.144574078457624D+03 0.106104889545719D+03 -.214210401577271D+02 0.294839663363487D+02
 0.000000000000000D+00 0.000000000000000D+00 0.000000000000000D+00 -.000000000000000D+00
 0.763239201214393D+03 0.000000000000000D+00 0.000000000000000D+00 0.763239201214393D+03
 0.105530065728040D+04 0.000000000000000D+00 0.000000000000000D+00 -.105530065728040D+04
 0.283294925538302D+03 -.169523772874400D+03 -.124033688708074D+03 -.172238594331465D+03
 0.729267369107766D+02 -.293188406364499D+02 -.659255033607516D+02 0.106086072045112D+02
 0.441204076973451D+03 -.339297463782703D+03 -.249149950427105D+03 0.132146020790605D+03
 0.171869389114432D+03 -.745821602562715D+01 -.142474230348370D+03 0.294839663363487D+02
 0.849244729957833D+03 0.545598293319180D+03 0.581583372844300D+03 -.292061456066009D+03
0.259038164900D-04 0.000000000000D+00 0.000000000000D+00 0.764075286497D-06 0.000000000000D+00  7 -2 1 -24 -11 11 23 21 0 0.47694968D-01 0.37667418D-01 0.37657054D+05 0.37657054D+05 0.37657054D+05 0.11582854D+01  1  2  2  1  7  1       -2 0.138996331952D-02 0.100000000000D+01
-.122417585362D-05 0.000000000000D+00 -.994774759532D-07 0.764075286497D-06 0.000000000000D+00  7 -2 1 -24 -11 11 23 21 2 0.47694968D-01 0.37667418D-01 0.37657054D+05 0.37657054D+05 0.37657054D+05 0.11582854D+01  1  2  3  1  7  1       -2 -.881281270054D-04 0.100000000000D+01
0.162291978057D-05 0.000000000000D+00 0.000000000000D+00 0.764075286497D-06 0.000000000000D+00  7 -2 1 -24 -11 11 23 21 2 0.47694968D-01 0.37667418D-01 0.37657054D+05 0.37657054D+05 0.37657054D+05 0.11582854D+01  1  2 15  1  7  1       -2 0.116833606968D-03 0.100000000000D+01
  </mgrwgt>
  </event>
  <event>
  8     66 0.26562228E-05 0.31963715E+03 0.75467711E-02 0.92833872E-01
       -2 -1    0    0    0  501 0.00000000E+00 0.00000000E+00 0.93304346E+03 0.93304352E+03 0.32000000E+00 0.0000E+00 0.9000E+01
        1 -1    0    0  501    0 0.00000000E+00 0.00000000E+00 -.18905233E+03 0.18905261E+03 0.32000000E+00 0.0000E+00 0.9000E+01
       25  2    1    2    0    0 -.15418017E+03 0.23587478E+03 0.11354162E+03 0.42686794E+03 0.29986013E+03 0.0000E+00 0.0000E+00
       23  2    3    3    0    0 -.76995308E+02 0.18439840E+03 -.42494581E+02 0.22371807E+03 0.91175317E+02 0.0000E+00 0.0000E+00
      -24  1    1    2    0    0 0.15418017E+03 -.23587478E+03 0.63044951E+03 0.69522819E+03 0.80419002E+02 0.0000E+00 0.9000E+01
      -13  1    4    4    0    0 0.17716651E+02 0.35464756E+02 0.73437290E+01 0.40318360E+02 0.10565837E+00 0.0000E+00 0.9000E+01
       13  1    4    4    0    0 -.94711959E+02 0.14893364E+03 -.49838310E+02 0.18339971E+03 0.10565837E+00 0.0000E+00 0.9000E+01
       23  1    3    3    0    0 -.77184861E+02 0.51476380E+02 0.15603620E+03 0.20314987E+03 0.91188000E+02 0.0000E+00 0.9000E+01
#aMCatNLO 1  0  0  1  2 0.46265546D+03 0.00000000D+00  -5  7  0 0.00000000D+00 0.00000000D+00 0.00000000D+00 0.00000000D+00 0.00000000D+00
  <mgrwgt>
 0.1289778064D-02    3    2    0
 0.419993128069801D+03 0.000000000000000D+00 0.000000000000000D+00 0.419993128069801D+03
 0.419993128069801D+03 0.000000000000000D+00 0.000000000000000D+00 -.419993128069801D+03
 0.370320361189245D+03 0.154180168766223D+03 -.235874778526383D+03 0.226410066850640D+03
 0.473545055856276D+02 0.177168022996855D+02 0.354646037207435D+02 -.259003088488096D+02
 0.289137630279088D+03 -.947121099952978D+02 0.148933794701027D+03 -.229017270657908D+03
 0.133173759085641D+03 -.771848610706110D+02 0.514763801046120D+02 0.285075126560780D+02
 0.000000000000000D+00 -.000000000000000D+00 0.000000000000000D+00 -.000000000000000D+00
 0.596753499141018D+03 0.000000000000000D+00 0.000000000000000D+00 0.596753499141018D+03
 0.935814249064810D+03 0.000000000000000D+00 0.000000000000000D+00 -.935814249064810D+03
 0.576492531938630D+03 0.257913266113742D+03 -.456175023667312D+03 0.226410066850640D+03
 0.405470579891635D+02 0.273473233007039D+02 0.150120558685228D+02 -.259003088488096D+02
 0.233656039311506D+03 -.374346827296518D+02 0.272924710510555D+02 -.229017270657908D+03
 0.108276208921312D+03 -.507315319940730D+02 -.470313279310414D+01 0.285075126560780D+02
 0.573595910045217D+03 -.197094374690721D+03 0.418573629540837D+03 -.339060749923792D+03
0.207666459229D-03 0.000000000000D+00 0.000000000000D+00 0.102091947300D-04 0.000000000000D+00  7 -2 1 -24 -13 13 23 21 0 0.14354517D+00 0.29085000D-01 0.10216790D+06 0.10216790D+06 0.10216790D+06 0.11209585D+01  1  2  2  1  7  1       -2 0.126850824038D-02 0.100000000000D+01
-.104911841559D-04 0.000000000000D+00 -.797493883273D-06 0.102091947300D-04 0.000000000000D+00  7 -2 1 -24 -13 13 23 21 2 0.14354517D+00 0.29085000D-01 0.10216790D+06 0.10216790D+06 0.10216790D+06 0.11209585D+01  1  2  3  1  7  1       -2 -.805249569594D-04 0.100000000000D+01
0.132623205236D-04 0.000000000000D+00 0.000000000000D+00 0.102091947300D-04 0.000000000000D+00  7 -2 1 -24 -13 13 23 21 2 0.14354517D+00 0.29085000D-01 0.10216790D+06 0.10216790D+06 0.10216790D+06 0.11209585D+01  1  2 15  1  7  1       -2 0.101794780596D-03 0.100000000000D+01
  </mgrwgt>
  </event>
  <event>
  8     66 0.26562228E-05 0.18691690E+03 0.75467711E-02 0.10601225E+00
       -4 -1    0    0    0  501 0.00000000E+00 0.00000000E+00 0.27938370E+03 0.27938800E+03 0.15500000E+01 0.0000E+00 0.9000E+01
        3 -1    0    0  501    0 0.00000000E+00 0.00000000E+00 -.20209001E+03 0.20209062E+03 0.50000000E+00 0.0000E+00 0.9000E+01
       25  2    1    2    0    0 0.31457097E+02 0.44023025E+02 0.16852535E+03 0.34836961E+03 0.30005503E+03 0.0000E+00 0.0000E+00
       23  2    3    3    0    0 -.10531487E+03 0.38687246E+02 0.58729048E+02 0.15061846E+03 0.81540744E+02 0.0000E+00 0.0000E+00
      -24  1    1    2    0    0 -.31457097E+02 -.44023025E+02 -.91231660E+02 0.13310901E+03 0.80419002E+02 0.0000E+00 0.9000E+01
      -13  1    4    4    0    0 -.92160028E+02 0.31183162E+02 0.78991314E+02 0.12532158E+03 0.10565837E+00 0.0000E+00 0.9000E+01
       13  1    4    4    0    0 -.13154843E+02 0.75040840E+01 -.20262266E+02 0.25296873E+02 0.10565837E+00 0.0000E+00 0.9000E+01
       23  1    3    3    0    0 0.13677197E+03 0.53357786E+01 0.10979630E+03 0.19775116E+03 0.91188000E+02 0.0000E+00 0.9000E+01
#aMCatNLO 1  0  0  1  2 0.32692728D+02 0.00000000D+00  -5  7  0 0.00000000D+00 0.00000000D+00 0.00000000D+00 0.00000000D+00 0.00000000D+00
  <mgrwgt>
 0.3438626664D-03    4    2    0
 0.237616995960680D+03 0.000000000000000D+00 0.000000000000000D+00 0.237616995960680D+03
 0.237616995960680D+03 0.000000000000000D+00 0.000000000000000D+00 -.237616995960680D+03
 0.149696305713963D+03 -.314570974636500D+02 -.440230256006716D+02 -.114079762561827D+03
 0.114121044541300D+03 -.921601602618282D+02 0.311832018763151D+02 0.596466729034608D+02
 0.289246552437292D+02 -.131547121409755D+02 0.750404435033162D+01 -.246430222952648D+02
 0.182491986422367D+03 0.136771969866454D+03 0.533577937402496D+01 0.790761119536310D+02
 0.000000000000000D+00 0.000000000000000D+00 0.000000000000000D+00 -.000000000000000D+00
 0.239763756451927D+03 0.000000000000000D+00 0.000000000000000D+00 0.239763756451927D+03
 0.406743538041911D+03 0.000000000000000D+00 0.000000000000000D+00 -.406743538041911D+03
 0.153294628246088D+03 -.325816174539317D+02 -.543716201033098D+02 -.114079762561827D+03
 0.112943027993457D+03 -.930028854394527D+02 0.234278740779935D+02 0.596466729034608D+02
 0.285775730417014D+02 -.133681258043732D+02 0.554006729086452D+01 -.246430222952648D+02
 0.181541949282100D+03 0.135420894992726D+03 -.709772659451232D+01 0.790761119536310D+02
 0.170150115930491D+03 0.353173370503115D+01 0.325014053289641D+02 -.166979781589984D+03
0.207995437079D-04 0.000000000000D+00 0.000000000000D+00 0.318889711944D-07 0.000000000000D+00  7 -4 3 -24 -13 13 23 21 0 0.42982485D-01 0.31091148D-01 0.34937928D+05 0.34937928D+05 0.34937928D+05 0.11612454D+01  1  2  2  1  7  1       -4 0.347774525139D-03 0.100000000000D+01
-.107460743582D-05 0.000000000000D+00 -.798757244841D-07 0.318889711944D-07 0.000000000000D+00  7 -4 3 -24 -13 13 23 21 2 0.42982485D-01 0.31091148D-01 0.34937928D+05 0.34937928D+05 0.34937928D+05 0.11612454D+01  1  2  3  1  7  1       -4 -.242293509649D-04 0.100000000000D+01
0.130515058784D-05 0.000000000000D+00 0.000000000000D+00 0.318889711944D-07 0.000000000000D+00  7 -4 3 -24 -13 13 23 21 2 0.42982485D-01 0.31091148D-01 0.34937928D+05 0.34937928D+05 0.34937928D+05 0.11612454D+01  1  2 15  1  7  1       -4 0.294274454100D-04 0.100000000000D+01
-.404039852738D-06 0.000000000000D+00 0.000000000000D+00 0.318889711944D-07 0.000000000000D+00  7 -4 3 -24 -13 13 23 21 2 0.42982485D-01 0.31091148D-01 0.34937928D+05 0.34937928D+05 0.34937928D+05 0.11612454D+01  1  2  4  1  7  1       -4 -.910995315079D-05 0.100000000000D+01
  </mgrwgt>
  </event>
  <event>
  8     66 0.26562228E-05 0.19802442E+03 0.75467711E-02 0.10095828E+00
       -2 -1    0    0    0  501 0.00000000E+00 0.00000000E+00 0.49334597E+02 0.49335635E+02 0.32000000E+00 0.0000E+00 0.9000E+01
        1 -1    0    0  501    0 0.00000000E+00 0.00000000E+00 -.10312075E+04 0.10312076E+04 0.32000000E+00 0.0000E+00 0.9000E+01
       25  2    1    2    0    0 -.82378980E+01 -.54330672E+02 -.90943580E+03 0.95915937E+03 0.29982251E+03 0.0000E+00 0.0000E+00
       23  2    3    3    0    0 0.10994086E+03 -.39112686E+02 -.54486240E+03 0.56491728E+03 0.92950042E+02 0.0000E+00 0.0000E+00
      -24  1    1    2    0    0 0.82378980E+01 0.54330672E+02 -.72437141E+02 0.12138386E+03 0.80419002E+02 0.0000E+00 0.9000E+01
      -11  1    4    4    0    0 0.54257960E+02 0.28278670E+02 -.24923795E+03 0.25663820E+03 0.51099893E-03 0.0000E+00 0.9000E+01
       11  1    4    4    0    0 0.55682896E+02 -.67391356E+02 -.29562444E+03 0.30827908E+03 0.51099893E-03 0.0000E+00 0.9000E+01
       23  1    3    3    0    0 -.11817875E+03 -.15217986E+02 -.36457341E+03 0.39424209E+03 0.91188000E+02 0.0000E+00 0.9000E+01
#aMCatNLO 1  0  0  1  1 0.16047346D+03 0.00000000D+00  -5  7  0 0.00000000D+00 0.00000000D+00 0.00000000D+00 0.00000000D+00 0.00000000D+00
  <mgrwgt>
 0.7538767684D-03    3    2    0
 0.225554419868709D+03 0.000000000000000D+00 0.000000000000000D+00 0.225554419868709D+03
 0.225554419868709D+03 0.000000000000000D+00 0.000000000000000D+00 -.225554419868709D+03
 0.133086359508530D+03 0.823789799094689D+01 0.543306721873425D+02 0.906922170267410D+02
 0.722412528547545D+02 0.542579600148652D+02 0.282786694919651D+02 -.384081923658751D+02
 0.949731538389848D+02 0.556828956242656D+02 -.673913558268819D+02 -.371176540858282D+02
 0.150808073535148D+03 -.118178753630078D+03 -.152179858524258D+02 -.151663705750377D+02
 0.000000000000000D+00 -.000000000000000D+00 -.000000000000000D+00 -.000000000000000D+00
 0.268976321024896D+03 0.000000000000000D+00 0.000000000000000D+00 0.268976321024896D+03
 0.457078316290577D+03 0.000000000000000D+00 0.000000000000000D+00 -.457078316290577D+03
 0.160788252570522D+03 0.178649407523688D+02 0.104122100790372D+03 0.906922170267410D+02
 0.902166784151850D+02 0.595799217869394D+02 0.558040566922963D+02 -.384081923658751D+02
 0.810262947930045D+02 0.614484641637863D+02 -.375716176782361D+02 -.371176540858282D+02
 0.146770317039280D+03 -.108430378734173D+03 0.352009771306892D+02 -.151663705750377D+02
 0.247253094497482D+03 -.304629479689214D+02 -.157555516935121D+03 -.188101995265681D+03
0.508841877891D-05 0.000000000000D+00 0.000000000000D+00 0.424487159319D-06 0.000000000000D+00  7 -2 1 -24 -11 11 23 21 0 0.75900217D-02 0.15864740D+00 0.39213671D+05 0.39213671D+05 0.39213671D+05 0.11566953D+01  1  2  2  1  7  1       -2 0.744825042777D-03 0.100000000000D+01
-.276865937124D-06 0.000000000000D+00 -.195408679224D-07 0.424487159319D-06 0.000000000000D+00  7 -2 1 -24 -11 11 23 21 2 0.75900217D-02 0.15864740D+00 0.39213671D+05 0.39213671D+05 0.39213671D+05 0.11566953D+01  1  2  3  1  7  1       -2 -.542224202619D-04 0.100000000000D+01
0.323085092930D-06 0.000000000000D+00 0.000000000000D+00 0.424487159319D-06 0.000000000000D+00  7 -2 1 -24 -11 11 23 21 2 0.75900217D-02 0.15864740D+00 0.39213671D+05 0.39213671D+05 0.39213671D+05 0.11566953D+01  1  2 15  1  7  1       -2 0.632741458599D-04 0.100000000000D+01
  </mgrwgt>
  </event>
  <event>
  9     66 -.26562228E-05 0.20431844E+03 0.75467711E-02 0.10389326E+00
       -2 -1    0    0    0  501 0.00000000E+00 0.00000000E+00 0.10486281E+03 0.10486330E+03 0.32000000E+00 0.0000E+00 0.9000E+01
        1 -1    0    0  502    0 0.00000000E+00 0.00000000E+00 -.61774585E+03 0.61774593E+03 0.32000000E+00 0.0000E+00 0.9000E+01
       25  2    1    2    0    0 0.74900022E+02 0.29338800E+02 -.38723113E+03 0.49714128E+03 0.30121542E+03 0.0000E+00 0.0000E+00
       23  2    3    3    0    0 0.13308812E+03 -.38200594E+02 -.29665728E+03 0.34072421E+03 0.94423071E+02 0.0000E+00 0.0000E+00
      -24  1    1    2    0    0 -.45640606E+02 -.82775937E+02 -.67647253E+02 0.14134457E+03 0.80419002E+02 0.0000E+00 0.9000E+01
      -13  1    4    4    0    0 -.12135427E+02 0.23038509E+01 -.70490095E+01 0.14222378E+02 0.10565837E+00 0.0000E+00 0.9000E+01
       13  1    4    4    0    0 0.14522355E+03 -.40504445E+02 -.28960827E+03 0.32650184E+03 0.10565837E+00 0.0000E+00 0.9000E+01
       23  1    3    3    0    0 -.58188101E+02 0.67539394E+02 -.90573848E+02 0.15641706E+03 0.91188000E+02 0.0000E+00 0.9000E+01
       21  1    1    2  502  501 -.29259416E+02 0.53437137E+02 -.58004657E+02 0.84123384E+02 0.75000000E+00 0.0000E+00 0.9000E+01
#aMCatNLO 2  0  0  2  1 0.60923238D+02 0.00000000D+00  -5  7  0 0.00000000D+00 0.00000000D+00 0.00000000D+00 0.00000000D+00 0.00000000D+00
  <mgrwgt>
 -.1679277830D-03    2    2    0
 0.221944925427275D+03 0.000000000000000D+00 0.000000000000000D+00 0.221944925427275D+03
 0.221944925427275D+03 0.000000000000000D+00 0.000000000000000D+00 -.221944925427275D+03
 0.127030089010813D+03 -.541622617666861D+02 -.672127608954092D+02 0.470990629721879D+02
 0.143108609269823D+02 -.130351539445689D+02 0.394676431810213D+01 0.439414992122204D+01
 0.158410326621914D+03 0.134409367384456D+03 -.207539522300410D+02 -.812233156587744D+02
 0.144138574294840D+03 -.672119516732010D+02 0.840199488073481D+02 0.297301027653645D+02
 0.000000000000000D+00 -.000000000000000D+00 0.000000000000000D+00 0.000000000000000D+00
 0.255891587565889D+03 0.000000000000000D+00 0.000000000000000D+00 0.255891587565889D+03
 0.253144703213611D+03 0.000000000000000D+00 0.000000000000000D+00 -.253144703213611D+03
 0.132742120117701D+03 -.456406409513331D+02 -.827759908407324D+02 0.470990629721879D+02
 0.131106693112840D+02 -.121356124437625D+02 0.230391121236578D+01 0.439414992122204D+01
 0.171253525093448D+03 0.145223727974727D+03 -.405044649816529D+02 -.812233156587744D+02
 0.130944844020771D+03 -.581880588120634D+02 0.675394079990994D+02 0.297301027653645D+02
 0.609851322362946D+02 -.292594157675681D+02 0.534371366109201D+02 0.274688435227809D+01
-.424972170331D-05 0.000000000000D+00 0.000000000000D+00 0.370260946574D-07 0.000000000000D+00  7 -2 1 -24 -13 13 23 21 2 0.13992477D-01 0.10054333D+00 0.56566131D+05 0.56566131D+05 0.56566131D+05 0.11426116D+01  1  2 13  2  7  2        1 -.653542718489D-03 0.100000000000D+01
0.364921737045D-05 0.000000000000D+00 0.000000000000D+00 0.370260946574D-07 0.706961932657D-10  7 -2 1 -24 -13 13 23 21 2 0.16132638D-01 0.95037006D-01 0.56566131D+05 0.56566131D+05 0.56566131D+05 0.11426116D+01  1  2  1  2  7  2        1 0.485614935487D-03 0.100000000000D+01
  </mgrwgt>
  </event>
  <event>
  8     66 0.26562228E-05 0.20707150E+03 0.75467711E-02 0.87297354E-01
       -4 -1    0    0    0  501 0.00000000E+00 0.00000000E+00 0.40488933E+02 0.40518591E+02 0.15500000E+01 0.0000E+00 0.9000E+01
        3 -1    0    0  501    0 0.00000000E+00 0.00000000E+00 -.12564202E+04 0.12564203E+04 0.50000000E+00 0.0000E+00 0.9000E+01
       25  2    1    2    0    0 -.83875063E+02 0.65485536E+02 -.84057993E+03 0.89859328E+03 0.29928562E+03 0.0000E+00 0.0000E+00
       23  2    3    3    0    0 0.62374910E+02 0.73929539E+02 -.25786110E+03 0.29086238E+03 0.93554117E+02 0.0000E+00 0.0000E+00
      -24  1    1    2    0    0 0.83875063E+02 -.65485536E+02 -.37535129E+03 0.39834556E+03 0.80419002E+02 0.0000E+00 0.9000E+01
      -13  1    4    4    0    0 0.70117528E+02 0.60072071E+02 -.25898197E+03 0.27494871E+03 0.10565837E+00 0.0000E+00 0.9000E+01
       13  1    4    4    0    0 -.77426174E+01 0.13857468E+02 0.11208675E+01 0.15913675E+02 0.10565837E+00 0.0000E+00 0.9000E+01
       23  1    3    3    0    0 -.14624997E+03 -.84440028E+01 -.58271883E+03 0.60773090E+03 0.91188000E+02 0.0000E+00 0.9000E+01
#aMCatNLO 1  0  0  1  2 0.96751096D+03 0.00000000D+00  -5  7  0 0.00000000D+00 0.00000000D+00 0.00000000D+00 0.00000000D+00 0.00000000D+00
  <mgrwgt>
 0.5988325804D-04    5    2    0
 0.225589024124352D+03 0.000000000000000D+00 0.000000000000000D+00 0.225589024124352D+03
 0.225589024124352D+03 0.000000000000000D+00 0.000000000000000D+00 -.225589024124352D+03
 0.133491612463984D+03 0.838750674850665D+02 -.654855392414459D+02 -.542326917057828D+01
 0.923968322713748D+02 0.701176225726387D+02 0.600721277994762D+02 -.346887304307221D+01
 0.487655199605407D+02 -.774270641216854D+01 0.138574126587222D+02 0.461096361820687D+02
 0.176524083552804D+03 -.146249983645537D+03 -.844400121675248D+01 -.372174939684182D+02
 0.000000000000000D+00 -.000000000000000D+00 -.000000000000000D+00 0.000000000000000D+00
 0.116503441923368D+04 0.000000000000000D+00 0.000000000000000D+00 0.116503441923368D+04
 0.904484321682357D+03 0.000000000000000D+00 0.000000000000000D+00 -.904484321682357D+03
 0.494483844941699D+03 0.483916653391589D+03 -.619864313841692D+02 -.542326917057828D+01
 0.370103397131993D+03 0.364745896768278D+03 0.626492001477863D+02 -.346887304307221D+01
 0.990417959815370D+02 0.864155483106060D+02 0.146810017567939D+02 0.461096361820687D+02
 0.103909759620601D+03 0.323958504264097D+02 -.688141106689499D+01 -.372174939684182D+02
 0.100197994324021D+04 -.967473948896882D+03 -.846235945351609D+01 0.260550097551324D+03
0.726649492379D-05 0.000000000000D+00 0.000000000000D+00 0.930429284534D-07 0.000000000000D+00  7 -4 3 -24 -13 13 23 21 0 0.62313556D-02 0.19329770D+00 0.42878606D+05 0.42878606D+05 0.42878606D+05 0.11532115D+01  1  2  2  1  7  1       -4 0.573067522163D-04 0.100000000000D+01
-.400093386944D-06 0.000000000000D+00 -.279052538194D-07 0.930429284534D-07 0.000000000000D+00  7 -4 3 -24 -13 13 23 21 2 0.62313556D-02 0.19329770D+00 0.42878606D+05 0.42878606D+05 0.42878606D+05 0.11532115D+01  1  2  3  1  7  1       -4 -.419623836105D-05 0.100000000000D+01
0.471852075977D-06 0.000000000000D+00 0.000000000000D+00 0.930429284534D-07 0.000000000000D+00  7 -4 3 -24 -13 13 23 21 2 0.62313556D-02 0.19329770D+00 0.42878606D+05 0.42878606D+05 0.42878606D+05 0.11532115D+01  1  2 15  1  7  1       -4 0.494885405900D-05 0.100000000000D+01
0.771157295155D-04 0.000000000000D+00 -.181998275484D-04 0.930429284534D-07 0.000000000000D+00  7 -4 3 -24 -13 13 23 21 2 0.23723466D+00 0.19329770D+00 0.42878606D+05 0.42878606D+05 0.42878606D+05 0.11532115D+01  1  2  5  1  7  1       -4 0.182876211771D-06 0.100000000000D+01
0.210691158304D-04 0.000000000000D+00 -.630137129151D-05 0.930429284534D-07 0.000000000000D+00  7 21 3 -24 -13 13 23 4 2 0.23723466D+00 0.19329770D+00 0.42878606D+05 0.42878606D+05 0.42878606D+05 0.11532115D+01  1  2  5  3  7  1       -4 0.164101391804D-05 0.100000000000D+01
  </mgrwgt>
  </event>
  <event>
  8     66 0.26562228E-05 0.33839318E+03 0.75467711E-02 0.92478139E-01
       -2 -1    0    0    0  501 0.00000000E+00 0.00000000E+00 0.13975154E+03 0.13975191E+03 0.32000000E+00 0.0000E+00 0.9000E+01
        1 -1    0    0  501    0 0.00000000E+00 0.00000000E+00 -.14613219E+04 0.14613219E+04 0.32000000E+00 0.0000E+00 0.9000E+01
       25  2    1    2    0    0 0.17290942E+03 -.20333197E+03 -.20777924E+03 0.45292776E+03 0.30121385E+03 0.0000E+00 0.0000E+00
       23  2    3    3    0    0 -.13441345E+01 0.30400801E+02 -.70017480E+02 0.11783245E+03 0.89755357E+02 0.0000E+00 0.0000E+00
      -24  1    1    2    0    0 -.17290942E+03 0.20333197E+03 -.11137911E+04 0.11481460E+04 0.80419002E+02 0.0000E+00 0.9000E+01
      -11  1    4    4    0    0 0.63570522E+00 -.31058235E+02 -.12031812E+02 0.33313399E+02 0.51099893E-03 0.0000E+00 0.9000E+01
       11  1    4    4    0    0 -.19798398E+01 0.61459035E+02 -.57985669E+02 0.84519054E+02 0.51099893E-03 0.0000E+00 0.9000E+01
       23  1    3    3    0    0 0.17425356E+03 -.23373277E+03 -.13776176E+03 0.33509530E+03 0.91188000E+02 0.0000E+00 0.9000E+01
#aMCatNLO 1  0  0  2  2 0.45714237D+03 0.00000000D+00  -5  7  0 0.00000000D+00 0.00000000D+00 0.00000000D+00 0.00000000D+00 0.00000000D+00
  <mgrwgt>
 0.2186987010D-02    3    2    0
 0.451909619696180D+03 0.000000000000000D+00 0.000000000000000D+00 0.451909619696180D+03
 0.451909619696180D+03 0.000000000000000D+00 0.000000000000000D+00 -.451909619696180D+03
 0.405294896146409D+03 -.172909421730844D+03 0.203331969663335D+03 -.294202615347810D+03
 0.414201461019517D+02 0.635705215836658D+00 -.310582346124613D+02 0.273972707535421D+02
 0.649345605939626D+02 -.197983975388922D+01 0.614590352640728D+02 0.208653870917694D+02
 0.392169636550037D+03 0.174253556268897D+03 -.233732770314946D+03 0.245939957502499D+03
 0.000000000000000D+00 -.000000000000000D+00 0.000000000000000D+00 0.000000000000000D+00
 0.116494758869852D+04 0.000000000000000D+00 0.000000000000000D+00 0.116494758869852D+04
 0.585762259040006D+03 0.000000000000000D+00 0.000000000000000D+00 -.585762259040006D+03
 0.322759075767453D+03 -.331650340475958D+02 0.100255207720199D+03 -.294202615347810D+03
 0.560004367880425D+02 0.193348404845034D+02 -.448508909515459D+02 0.273972707535421D+02
 0.535098460377517D+02 0.207546575743018D+02 0.446898582842683D+02 0.208653870917694D+02
 0.580582241845817D+03 0.360965834284243D+03 -.371453485628907D+03 0.245939957502499D+03
 0.737858247299460D+03 -.367890298295452D+03 0.271359310575985D+03 0.579185329658513D+03
0.152000420768D-03 0.000000000000D+00 0.000000000000D+00 0.116932689135D-05 0.000000000000D+00  7 -2 1 -24 -11 11 23 21 0 0.21500268D-01 0.22481878D+00 0.11450995D+06 0.11450995D+06 0.11450995D+06 0.11169250D+01  1  2  2  2  7  2        1 0.215175403383D-02 0.100000000000D+01
-.758531236613D-05 0.000000000000D+00 -.583721638380D-06 0.116932689135D-05 0.000000000000D+00  7 -2 1 -24 -11 11 23 21 2 0.21500268D-01 0.22481878D+00 0.11450995D+06 0.11450995D+06 0.11450995D+06 0.11169250D+01  1  2  3  2  7  2        1 -.133958214500D-03 0.100000000000D+01
0.958036084265D-05 0.000000000000D+00 0.000000000000D+00 0.116932689135D-05 0.000000000000D+00  7 -2 1 -24 -11 11 23 21 2 0.21500268D-01 0.22481878D+00 0.11450995D+06 0.11450995D+06 0.11450995D+06 0.11169250D+01  1  2 15  2  7  2        1 0.169191190923D-03 0.100000000000D+01
  </mgrwgt>
  </event>
  <event>
  9     66 0.26562228E-05 0.32055080E+03 0.75467711E-02 0.99629705E-01
       -2 -1    0    0    0  501 0.00000000E+00 0.00000000E+00 0.10920468E+03 0.10920515E+03 0.32000000E+00 0.0000E+00 0.9000E+01
        1 -1    0    0  502    0 0.00000000E+00 0.00000000E+00 -.10913798E+04 0.10913798E+04 0.32000000E+00 0.0000E+00 0.9000E+01
       25  2    1    2    0    0 -.24561285E+03 0.63959148E+02 -.68214709E+03 0.78723008E+03 0.29998350E+03 0.0000E+00 0.0000E+00
       23  2    3    3    0    0 -.21873451E+03 -.50893878E+02 -.38491346E+03 0.45469926E+03 0.90322062E+02 0.0000E+00 0.0000E+00
      -24  1    1    2    0    0 0.24161604E+03 -.79822019E+02 -.29022783E+03 0.39427056E+03 0.80419002E+02 0.0000E+00 0.9000E+01
      -13  1    4    4    0    0 -.73243275E+01 -.59897067E+01 -.82241155E+02 0.82783701E+02 0.10565837E+00 0.0000E+00 0.9000E+01
       13  1    4    4    0    0 -.21141018E+03 -.44904172E+02 -.30267231E+03 0.37191556E+03 0.10565837E+00 0.0000E+00 0.9000E+01
       23  1    3    3    0    0 -.26878346E+02 0.11485303E+03 -.29723363E+03 0.33253082E+03 0.91188000E+02 0.0000E+00 0.9000E+01
       21  1    1    2  502  501 0.39968168E+01 0.15862871E+02 -.98001577E+01 0.19084308E+02 0.75000000E+00 0.0000E+00 0.9000E+01
#aMCatNLO 2  0  0  2  2 0.16358644D+02 0.00000000D+00  -5  7  0 0.00000000D+00 0.00000000D+00 0.00000000D+00 0.00000000D+00 0.00000000D+00
  <mgrwgt>
 0.6431716895D-03    2    2    0
 0.335471000869226D+03 0.000000000000000D+00 0.000000000000000D+00 0.335471000869226D+03
 0.335471000869226D+03 0.000000000000000D+00 0.000000000000000D+00 -.335471000869226D+03
 0.273228002529146D+03 0.243244512925026D+03 -.733588017017617D+02 0.603068698942736D+02
 0.264036213190054D+02 -.716625658686382D+01 -.536339751999499D+01 -.248400876071559D+02
 0.213953530363423D+03 -.210129402398329D+03 -.398198662133746D+02 0.601046233181925D+01
 0.157356847526877D+03 -.259488539398326D+02 0.118542065435131D+03 -.414772446189370D+02
 0.000000000000000D+00 0.000000000000000D+00 0.000000000000000D+00 0.000000000000000D+00
 0.350460960893197D+03 0.000000000000000D+00 0.000000000000000D+00 0.350460960893197D+03
 0.340063655342520D+03 0.000000000000000D+00 0.000000000000000D+00 -.340063655342520D+03
 0.273594588403663D+03 0.241616037599117D+03 -.798220186906861D+02 0.603068698942736D+02
 0.265809628137121D+02 -.732404832653294D+01 -.598965340260857D+01 -.248400876071559D+02
 0.216210308833656D+03 -.211410459929320D+03 -.449042249791248D+02 0.601046233181925D+01
 0.154755537061141D+03 -.268783461108584D+02 0.114853026064827D+03 -.414772446189370D+02
 0.193832191235453D+02 0.399681676759471D+01 0.158628710075925D+02 0.103973055506764D+02
-.907241337909D-05 0.000000000000D+00 0.000000000000D+00 0.352219255338D-05 0.000000000000D+00  7 -2 1 -24 -13 13 23 21 2 0.16081814D-01 0.16563351D+00 0.10275281D+06 0.10275281D+06 0.10275281D+06 0.11207555D+01  1  2  8  2  7  2        1 -.480309645165D-03 0.100000000000D+01
0.234383209001D-04 0.000000000000D+00 0.000000000000D+00 0.352219255338D-05 0.879740586487D-07  7 -2 1 -24 -13 13 23 21 2 0.16800403D-01 0.16790106D+00 0.10820998D+06 0.10820998D+06 0.10820998D+06 0.11189208D+01  1  2  1  2  7  2        1 0.112348133466D-02 0.100000000000D+01
  </mgrwgt>
  </event>
  <event>
  8     66 0.26562228E-05 0.28100468E+03 0.75467711E-02 0.10155194E+00
       -2 -1    0    0    0  501 0.00000000E+00 0.00000000E+00 0.73716312E+02 0.73717006E+02 0.32000000E+00 0.0000E+00 0.9000E+01
        1 -1    0    0  501    0 0.00000000E+00 0.00000000E+00 -.14041362E+04 0.14041363E+04 0.32000000E+00 0.0000E+00 0.9000E+01
       25  2    1    2    0    0 0.15686849E+03 0.18389207E+03 -.87370066E+03 0.95489657E+03 0.30008432E+03 0.0000E+00 0.0000E+00
       23  2    3    3    0    0 0.27401723E+02 0.17848567E+02 -.54665641E+03 0.55539027E+03 0.92497029E+02 0.0000E+00 0.0000E+00
      -24  1    1    2    0    0 -.15686849E+03 -.18389207E+03 -.45671926E+03 0.52295671E+03 0.80419002E+02 0.0000E+00 0.9000E+01
      -13  1    4    4    0    0 0.44414882E+02 0.32767082E+02 -.18578968E+03 0.19381480E+03 0.10565837E+00 0.0000E+00 0.9000E+01
       13  1    4    4    0    0 -.17013160E+02 -.14918515E+02 -.36086673E+03 0.36157547E+03 0.10565837E+00 0.0000E+00 0.9000E+01
       23  1    3    3    0    0 0.12946676E+03 0.16604350E+03 -.32704425E+03 0.39950630E+03 0.91188000E+02 0.0000E+00 0.9000E+01
#aMCatNLO 1  0  0  1  2 0.47699475D+01 0.00000000D+00  -5  7  0 0.00000000D+00 0.00000000D+00 0.00000000D+00 0.00000000D+00 0.00000000D+00
  <mgrwgt>
 0.8171579324D-03    6    2    0
 0.321727034045231D+03 0.000000000000000D+00 0.000000000000000D+00 0.321727034045231D+03
 0.321727034045231D+03 0.000000000000000D+00 0.000000000000000D+00 -.321727034045231D+03
 0.256778042519685D+03 -.156868487646682D+03 -.183892070044019D+03 0.323068309222508D+02
 0.610013034281720D+02 0.444149615877168D+02 0.327671430460773D+02 -.259766153240844D+02
 0.843124988852564D+02 -.170132395432555D+02 -.149185771352891D+02 -.812193524030979D+02
 0.241362223257349D+03 0.129466765602221D+03 0.166043504133231D+03 0.748891368049315D+02
 0.000000000000000D+00 -.000000000000000D+00 -.000000000000000D+00 -.000000000000000D+00
 0.323105222163773D+03 0.000000000000000D+00 0.000000000000000D+00 0.323105222163773D+03
 0.325889747520348D+03 0.000000000000000D+00 0.000000000000000D+00 -.325889747520348D+03
 0.254996366531141D+03 -.155724094160117D+03 -.182379292035816D+03 0.323068309222508D+02
 0.613953359219862D+02 0.446886562359301D+02 0.331289410199743D+02 -.259766153240844D+02
 0.841505285778206D+02 -.166365345186466D+02 -.144206093615309D+02 -.812193524030979D+02
 0.242929516710422D+03 0.130549704301411D+03 0.167475044829328D+03 0.748891368049315D+02
 0.552322194275176D+01 -.287773185857693D+01 -.380408445195618D+01 -.278452535657537D+01
0.178012574006D-04 0.000000000000D+00 0.000000000000D+00 0.198047651462D-05 0.000000000000D+00  7 -2 1 -24 -13 13 23 21 0 0.11341027D-01 0.21602102D+00 0.78963630D+05 0.78963630D+05 0.78963630D+05 0.11302378D+01  1  2  2  1  7  1       -2 0.776052836289D-03 0.100000000000D+01
-.966936499526D-06 0.000000000000D+00 -.683615155971D-07 0.198047651462D-05 0.000000000000D+00  7 -2 1 -24 -13 13 23 21 2 0.11341027D-01 0.21602102D+00 0.78963630D+05 0.78963630D+05 0.78963630D+05 0.11302378D+01  1  2  3  1  7  1       -2 -.538490714541D-04 0.100000000000D+01
0.113972780064D-05 0.000000000000D+00 0.000000000000D+00 0.198047651462D-05 0.000000000000D+00  7 -2 1 -24 -13 13 23 21 2 0.11341027D-01 0.21602102D+00 0.78963630D+05 0.78963630D+05 0.78963630D+05 0.11302378D+01  1  2 15  1  7  1       -2 0.634718865252D-04 0.100000000000D+01
-.364039328912D-04 0.000000000000D+00 0.000000000000D+00 0.198047651462D-05 0.000000000000D+00  7 -2 1 -24 -13 13 23 21 2 0.11341027D-01 0.21602102D+00 0.78963630D+05 0.78963630D+05 0.78963630D+05 0.11302378D+01  1  2  4  1  7  1       -2 -.202734924623D-02 0.100000000000D+01
0.357698807421D-04 0.000000000000D+00 0.000000000000D+00 0.198047651462D-05 0.592505285969D-06  7 -2 1 -24 -13 13 23 21 2 0.11389609D-01 0.21881604D+00 0.80217916D+05 0.80217916D+05 0.80217916D+05 0.11296634D+01  1  2 11  1  7  1       -2 0.192194634860D-02 0.100000000000D+01
0.177987277770D-06 0.000000000000D+00 0.000000000000D+00 0.198047651462D-05 0.474316598096D-09  7 21 1 -24 -13 13 23 2 2 0.11389609D-01 0.21881604D+00 0.80217916D+05 0.80217916D+05 0.80217916D+05 0.11296634D+01  1  2 11  3  7  1       -2 0.136885178682D-03 0.100000000000D+01
  </mgrwgt>
  </event>
  <event>
  8     66 0.26562228E-05 0.43606449E+03 0.75467711E-02 0.89843021E-01
       -2 -1    0    0    0  501 0.00000000E+00 0.00000000E+00 0.13447139E+04 0.13447140E+04 0.32000000E+00 0.0000E+00 0.9000E+01
        1 -1    0    0  501    0 0.00000000E+00 0.00000000E+00 -.28047271E+03 0.28047289E+03 0.32000000E+00 0.0000E+00 0.9000E+01
       25  2    1    2    0    0 -.20827851E+03 0.34290590E+03 0.11057667E+04 0.12139011E+04 0.29978579E+03 0.0000E+00 0.0000E+00
       23  2    3    3    0    0 -.16580647E+03 0.10475349E+03 0.70195117E+03 0.73441943E+03 0.90395714E+02 0.0000E+00 0.0000E+00
      -24  1    1    2    0    0 0.20827851E+03 -.34290590E+03 -.41525463E+02 0.41128576E+03 0.80419002E+02 0.0000E+00 0.9000E+01
      -11  1    4    4    0    0 0.40064377E+01 -.12970402E+01 -.26585349E+00 0.42195420E+01 0.51099893E-03 0.0000E+00 0.9000E+01
       11  1    4    4    0    0 -.16981291E+03 0.10605053E+03 0.70221702E+03 0.73019989E+03 0.51099893E-03 0.0000E+00 0.9000E+01
       23  1    3    3    0    0 -.42472041E+02 0.23815241E+03 0.40381553E+03 0.47948168E+03 0.91188000E+02 0.0000E+00 0.9000E+01
#aMCatNLO 1  0  0  2  2 0.57899645D+03 0.00000000D+00  -5  7  0 0.00000000D+00 0.00000000D+00 0.00000000D+00 0.00000000D+00 0.00000000D+00
  <mgrwgt>
 0.1656602161D-02    3    2    0
 0.614130065888423D+03 0.000000000000000D+00 0.000000000000000D+00 0.614130065888423D+03
 0.614130065888423D+03 0.000000000000000D+00 0.000000000000000D+00 -.614130065888423D+03
 0.580177849974329D+03 0.208278511261629D+03 -.342905899594169D+03 -.411308555000523D+03
 0.581348878109025D+01 0.400643773154260D+01 -.129704015659184D+01 -.400784173132152D+01
 0.357727939459543D+03 -.169812908296431D+03 0.106050531126310D+03 0.296455965859528D+03
 0.284540853561884D+03 -.424720406967407D+02 0.238152408624451D+03 0.118860430872316D+03
 0.000000000000000D+00 0.000000000000000D+00 -.000000000000000D+00 0.000000000000000D+00
 0.135420659706595D+04 0.000000000000000D+00 0.000000000000000D+00 0.135420659706595D+04
 0.803057531283622D+03 0.000000000000000D+00 0.000000000000000D+00 -.803057531283622D+03
 0.462952989713112D+03 0.159976993281401D+03 -.114415422622838D+03 -.411308555000523D+03
 0.543822240524007D+01 0.348543431615350D+01 0.116756807652166D+01 -.400784173132152D+01
 0.460948622410298D+03 -.207721211999728D+03 0.285375876509578D+03 0.296455965859528D+03
 0.428548173034377D+03 -.754911799352688D+02 0.394349546711963D+03 0.118860430872316D+03
 0.799376120786541D+03 0.119749964337442D+03 -.566477568675224D+03 0.551149065782323D+03
0.131821495205D-02 0.000000000000D+00 0.000000000000D+00 0.201182224114D-04 0.000000000000D+00  7 -2 1 -24 -11 11 23 21 0 0.20687909D+00 0.43149664D-01 0.19015224D+06 0.19015224D+06 0.19015224D+06 0.10995135D+01  1  2  2  2  7  2        1 0.162506016743D-02 0.100000000000D+01
-.627940598790D-04 0.000000000000D+00 -.506229250983D-05 0.201182224114D-04 0.000000000000D+00  7 -2 1 -24 -11 11 23 21 2 0.20687909D+00 0.43149664D-01 0.19015224D+06 0.19015224D+06 0.19015224D+06 0.10995135D+01  1  2  3  2  7  2        1 -.935842865025D-04 0.100000000000D+01
0.839584020760D-04 0.000000000000D+00 0.000000000000D+00 0.201182224114D-04 0.000000000000D+00  7 -2 1 -24 -11 11 23 21 2 0.20687909D+00 0.43149664D-01 0.19015224D+06 0.19015224D+06 0.19015224D+06 0.10995135D+01  1  2 15  2  7  2        1 0.125126280564D-03 0.100000000000D+01
  </mgrwgt>
  </event>
  <event>
  8     66 0.26562228E-05 0.23278422E+03 0.75467711E-02 0.99760255E-01
       -2 -1    0    0    0  501 0.00000000E+00 0.00000000E+00 0.10361042E+03 0.10361091E+03 0.32000000E+00 0.0000E+00 0.9000E+01
        1 -1    0    0  501    0 0.00000000E+00 0.00000000E+00 -.72349268E+03 0.72349275E+03 0.32000000E+00 0.0000E+00 0.9000E+01
       25  2    1    2    0    0 -.13852881E+02 0.17037665E+03 -.31141364E+03 0.46538524E+03 0.30064076E+03 0.0000E+00 0.0000E+00
       23  2    3    3    0    0 -.61176835E+02 0.14115976E+03 -.48647678E+02 0.18174042E+03 0.83631947E+02 0.0000E+00 0.0000E+00
      -24  1    1    2    0    0 0.13852881E+02 -.17037665E+03 -.30846862E+03 0.36171841E+03 0.80419002E+02 0.0000E+00 0.9000E+01
      -11  1    4    4    0    0 -.14804690E+02 0.11628717E+03 -.12480348E+02 0.11788827E+03 0.51099893E-03 0.0000E+00 0.9000E+01
       11  1    4    4    0    0 -.46372146E+02 0.24872581E+02 -.36167330E+02 0.63852149E+02 0.51099893E-03 0.0000E+00 0.9000E+01
       23  1    3    3    0    0 0.47323954E+02 0.29216895E+02 -.26276596E+03 0.28364482E+03 0.91188000E+02 0.0000E+00 0.9000E+01
#aMCatNLO 1  0  0  2  2 0.16384419D+03 0.00000000D+00  -5  7  0 0.00000000D+00 0.00000000D+00 0.00000000D+00 0.00000000D+00 0.00000000D+00
  <mgrwgt>
 0.2984561386D-02    3    2    0
 0.273791182452224D+03 0.000000000000000D+00 0.000000000000000D+00 0.273791182452224D+03
 0.273791182452224D+03 0.000000000000000D+00 0.000000000000000D+00 -.273791182452224D+03
 0.197165587184687D+03 0.138528811266628D+02 -.170376651182401D+03 -.564530533441094D+02
 0.163937849732992D+03 -.148046896880181D+02 0.116287174604106D+03 0.114602498929616D+03
 0.555037227989747D+02 -.463721455714022D+02 0.248725810968059D+02 0.176533869054332D+02
 0.130975205187795D+03 0.473239541327575D+02 0.292168954814888D+02 -.758028324909402D+02
 0.000000000000000D+00 -.000000000000000D+00 0.000000000000000D+00 0.000000000000000D+00
 0.414263201922978D+04 0.000000000000000D+00 0.000000000000000D+00 0.414263201922978D+04
 0.287524688219938D+03 0.000000000000000D+00 0.000000000000000D+00 -.287524688219938D+03
 0.231712254653729D+03 0.703879472224972D+02 -.197691534103699D+03 -.564530533441094D+02
 0.151993621909442D+03 0.268416834482015D+02 0.961657546629989D+02 0.114602498929616D+03
 0.422040337293696D+02 -.334922204866112D+02 0.186496530979284D+02 0.176533869054332D+02
 0.145659302687464D+03 0.837901658635300D+02 0.115982673840024D+02 -.758028324909402D+02
 0.385858749446971D+04 -.147527576047617D+03 0.712778589587691D+02 0.385510733100984D+04
0.357373879150D-04 0.000000000000D+00 0.000000000000D+00 0.239413876996D-07 0.000000000000D+00  7 -2 1 -24 -11 11 23 21 0 0.15940108D-01 0.11130661D+00 0.54188493D+05 0.54188493D+05 0.54188493D+05 0.11442350D+01  1  2  2  2  7  2        1 0.294464012925D-02 0.100000000000D+01
-.192185957494D-05 0.000000000000D+00 -.137240979464D-06 0.239413876996D-07 0.000000000000D+00  7 -2 1 -24 -11 11 23 21 2 0.15940108D-01 0.11130661D+00 0.54188493D+05 0.54188493D+05 0.54188493D+05 0.11442350D+01  1  2  3  2  7  2        1 -.207329690367D-03 0.100000000000D+01
0.229191294294D-05 0.000000000000D+00 0.000000000000D+00 0.239413876996D-07 0.000000000000D+00  7 -2 1 -24 -11 11 23 21 2 0.15940108D-01 0.11130661D+00 0.54188493D+05 0.54188493D+05 0.54188493D+05 0.11442350D+01  1  2 15  2  7  2        1 0.247250947470D-03 0.100000000000D+01
  </mgrwgt>
  </event>
  <event>
  8     66 0.26562228E-05 0.19086963E+03 0.75467711E-02 0.10683925E+00
       -2 -1    0    0    0  501 0.00000000E+00 0.00000000E+00 0.83224877E+03 0.83224883E+03 0.32000000E+00 0.0000E+00 0.9000E+01
        1 -1    0    0  501    0 0.00000000E+00 0.00000000E+00 -.48565154E+02 0.48566208E+02 0.32000000E+00 0.0000E+00 0.9000E+01
       25  2    1    2    0    0 -.86048677E+01 -.38065173E+02 0.50512506E+03 0.58826575E+03 0.29896867E+03 0.0000E+00 0.0000E+00
       23  2    3    3    0    0 -.63642873E+01 -.13826151E+03 0.28572448E+03 0.33039719E+03 0.91471728E+02 0.0000E+00 0.0000E+00
      -24  1    1    2    0    0 0.86048677E+01 0.38065173E+02 0.27855856E+03 0.29254929E+03 0.80419002E+02 0.0000E+00 0.9000E+01
      -11  1    4    4    0    0 0.31112799E+02 -.93134271E+02 0.22731263E+03 0.24761468E+03 0.51099893E-03 0.0000E+00 0.9000E+01
       11  1    4    4    0    0 -.37477086E+02 -.45127242E+02 0.58411844E+02 0.82782507E+02 0.51099893E-03 0.0000E+00 0.9000E+01
       23  1    3    3    0    0 -.22405804E+01 0.10019634E+03 0.21940058E+03 0.25786856E+03 0.91188000E+02 0.0000E+00 0.9000E+01
#aMCatNLO 1  0  0  1  1 0.43736725D+01 0.00000000D+00  -5  7  0 0.00000000D+00 0.00000000D+00 0.00000000D+00 0.00000000D+00 0.00000000D+00
  <mgrwgt>
 0.1454923615D-02    6    2    0
 0.201044226402088D+03 0.000000000000000D+00 0.000000000000000D+00 0.201044226402088D+03
 0.201044226402088D+03 0.000000000000000D+00 0.000000000000000D+00 -.201044226402088D+03
 0.979387412191348D+02 0.860486775865311D+01 0.380651729242844D+02 0.400222430445689D+02
 0.993849764430542D+02 0.311127988006694D+02 -.931342705537380D+02 0.153419340957598D+02
 0.674967713737745D+02 -.374770861588219D+02 -.451272424619628D+02 -.333888326646357D+02
 0.137267963768212D+03 -.224058040050057D+01 0.100196340091416D+03 -.219753444756930D+02
 0.000000000000000D+00 -.000000000000000D+00 -.000000000000000D+00 -.000000000000000D+00
 0.202550913109131D+03 0.000000000000000D+00 0.000000000000000D+00 0.202550913109131D+03
 0.204255392680104D+03 0.000000000000000D+00 0.000000000000000D+00 -.204255392680104D+03
 0.982519164907047D+02 0.949300148939817D+01 0.386565146402208D+02 0.400222430445689D+02
 0.991111007007807D+02 0.320113689139963D+02 -.925359800324916D+02 0.153419340957598D+02
 0.668893991971744D+02 -.368687346072091D+02 -.447221867389677D+02 -.333888326646357D+02
 0.137859822780065D+03 -.995106888402251D+00 0.101025607597313D+03 -.219753444756930D+02
 0.469406662050965D+01 -.364052890778311D+01 -.242395546607467D+01 -.170447957097324D+01
0.297105541756D-04 0.000000000000D+00 0.000000000000D+00 0.161180200706D-06 0.000000000000D+00  7 -2 1 -24 -11 11 23 21 0 0.12803836D+00 0.74716479D-02 0.36431214D+05 0.36431214D+05 0.36431214D+05 0.11595895D+01  1  2  2  1  7  1       -2 0.147329178759D-02 0.100000000000D+01
-.164517346240D-05 0.000000000000D+00 -.114096351003D-06 0.161180200706D-06 0.000000000000D+00  7 -2 1 -24 -11 11 23 21 2 0.12803836D+00 0.74716479D-02 0.36431214D+05 0.36431214D+05 0.36431214D+05 0.11595895D+01  1  2  3  1  7  1       -2 -.109697893719D-03 0.100000000000D+01
0.190996928503D-05 0.000000000000D+00 0.000000000000D+00 0.161180200706D-06 0.000000000000D+00  7 -2 1 -24 -11 11 23 21 2 0.12803836D+00 0.74716479D-02 0.36431214D+05 0.36431214D+05 0.36431214D+05 0.11595895D+01  1  2 15  1  7  1       -2 0.127354113366D-03 0.100000000000D+01
-.769311522911D-04 0.000000000000D+00 0.000000000000D+00 0.161180200706D-06 0.000000000000D+00  7 -2 1 -24 -11 11 23 21 2 0.12803836D+00 0.74716479D-02 0.36431214D+05 0.36431214D+05 0.36431214D+05 0.11595895D+01  1  2  4  1  7  1       -2 -.512966295691D-02 0.100000000000D+01
0.755467937431D-04 0.000000000000D+00 0.000000000000D+00 0.161180200706D-06 0.603431743688D-07  7 -2 1 -24 -11 11 23 21 2 0.12899792D+00 0.75909884D-02 0.37264132D+05 0.37264132D+05 0.37264132D+05 0.11586982D+01  1  2 11  1  7  1       -2 0.483170661036D-02 0.100000000000D+01
0.432220753952D-06 0.000000000000D+00 0.000000000000D+00 0.161180200706D-06 0.843678643795D-10  7 21 1 -24 -11 11 23 2 2 0.12899792D+00 0.75909884D-02 0.37264132D+05 0.37264132D+05 0.37264132D+05 0.11586982D+01  1  2 11  3  7  1       -2 0.261931954806D-03 0.100000000000D+01
  </mgrwgt>
  </event>
  <event>
  8     66 0.26562228E-05 0.24461755E+03 0.75467711E-02 0.86975200E-01
       -2 -1    0    0    0  501 0.00000000E+00 0.00000000E+00 0.56206696E+03 0.56206705E+03 0.32000000E+00 0.0000E+00 0.9000E+01
        1 -1    0    0  501    0 0.00000000E+00 0.00000000E+00 -.12816359E+04 0.12816359E+04 0.32000000E+00 0.0000E+00 0.9000E+01
       25  2    1    2    0    0 -.66791498E+03 -.33032378E+03 -.74117209E+03 0.10939309E+04 0.30352039E+03 0.0000E+00 0.0000E+00
       23  2    3    3    0    0 -.17912806E+03 0.13296307E+02 -.18773985E+03 0.27442505E+03 0.88313093E+02 0.0000E+00 0.0000E+00
      -24  1    1    2    0    0 0.66791498E+03 0.33032378E+03 0.21603150E+02 0.74977205E+03 0.80419002E+02 0.0000E+00 0.9000E+01
      -13  1    4    4    0    0 -.55572115E+02 0.33534249E+02 -.10794661E+03 0.12595748E+03 0.10565837E+00 0.0000E+00 0.9000E+01
       13  1    4    4    0    0 -.12355595E+03 -.20237942E+02 -.79793244E+02 0.14846757E+03 0.10565837E+00 0.0000E+00 0.9000E+01
       23  1    3    3    0    0 -.48878692E+03 -.34362009E+03 -.55343224E+03 0.81950589E+03 0.91188000E+02 0.0000E+00 0.9000E+01
#aMCatNLO 1  0  0  1  2 0.47758963D+03 0.00000000D+00  -5  7  0 0.00000000D+00 0.00000000D+00 0.00000000D+00 0.00000000D+00 0.00000000D+00
  <mgrwgt>
 0.1067409449D-02    7    2    0
 0.848743376575636D+03 0.000000000000000D+00 0.000000000000000D+00 0.848743376575636D+03
 0.848743376575636D+03 0.000000000000000D+00 0.000000000000000D+00 -.848743376575636D+03
 0.823512720748861D+03 0.667914977153200D+03 0.330323783896073D+03 0.341294251882216D+03
 0.910481752870259D+02 -.555720180102595D+02 0.335343256851978D+02 -.638511553396138D+02
 0.127431598804972D+03 -.123556043732652D+03 -.202380194266673D+02 -.237305499475297D+02
 0.655494258310413D+03 -.488786915410288D+03 -.343620090154603D+03 -.253712546595073D+03
 0.000000000000000D+00 -.000000000000000D+00 0.000000000000000D+00 0.000000000000000D+00
 0.182142798818582D+04 0.000000000000000D+00 0.000000000000000D+00 0.182142798818582D+04
 0.942376296420305D+03 0.000000000000000D+00 0.000000000000000D+00 -.942376296420305D+03
 0.101953357968628D+04 0.916510517101416D+03 0.276601174668878D+03 0.341294251882216D+03
 0.773077808648088D+02 -.328636683539421D+02 0.286269496516818D+02 -.638511553396138D+02
 0.996036650092698D+02 -.929328553830912D+02 -.268558275391417D+02 -.237305499475297D+02
 0.566947479876133D+03 -.323900355648892D+03 -.379252813970659D+03 -.253712546595073D+03
 0.100041177916964D+04 -.466813637715491D+03 0.100880517189241D+03 0.879051691765520D+03
0.101081312814D-02 0.000000000000D+00 0.000000000000D+00 0.137657121292D-06 0.000000000000D+00  7 -2 1 -24 -13 13 23 21 0 0.86471851D-01 0.19717476D+00 0.59596247D+06 0.59596247D+06 0.59596247D+06 0.10631629D+01  1  2  2  1  7  1       -2 0.119261152553D-02 0.100000000000D+01
-.555427935392D-04 0.000000000000D+00 -.388178856528D-05 0.137657121292D-06 0.000000000000D+00  7 -2 1 -24 -13 13 23 21 2 0.86471851D-01 0.19717476D+00 0.59596247D+06 0.59596247D+06 0.59596247D+06 0.10631629D+01  1  2  3  1  7  1       -2 -.740722391568D-04 0.100000000000D+01
0.638687608648D-04 0.000000000000D+00 0.000000000000D+00 0.137657121292D-06 0.000000000000D+00  7 -2 1 -24 -13 13 23 21 2 0.86471851D-01 0.19717476D+00 0.59596247D+06 0.59596247D+06 0.59596247D+06 0.10631629D+01  1  2 15  1  7  1       -2 0.851758045999D-04 0.100000000000D+01
0.449348641107D-03 0.000000000000D+00 0.000000000000D+00 0.137657121292D-06 0.000000000000D+00  7 -2 1 -24 -13 13 23 21 2 0.18503952D+00 0.19717476D+00 0.10874637D+07 0.10874637D+07 0.10874637D+07 0.10454485D+01  1  2 12  1  7  1       -2 0.747242461024D-04 0.100000000000D+01
-.107799869221D-02 0.000000000000D+00 -.288559238139D-03 0.137657121292D-06 0.000000000000D+00  7 -2 1 -24 -13 13 23 21 2 0.19422664D+00 0.19717476D+00 0.59596247D+06 0.59596247D+06 0.59596247D+06 0.10631629D+01  1  2  5  1  7  1       -2 -.166635870933D-03 0.100000000000D+01
0.369932427118D-04 0.000000000000D+00 0.000000000000D+00 0.137657121292D-06 0.000000000000D+00  7 21 1 -24 -13 13 23 2 2 0.18503952D+00 0.19717476D+00 0.10874637D+07 0.10874637D+07 0.10874637D+07 0.10454485D+01  1  2 12  3  7  1       -2 0.475486523777D-04 0.100000000000D+01
-.764720670952D-04 0.000000000000D+00 -.253520859683D-04 0.137657121292D-06 0.000000000000D+00  7 21 1 -24 -13 13 23 2 2 0.19422664D+00 0.19717476D+00 0.59596247D+06 0.59596247D+06 0.59596247D+06 0.10631629D+01  1  2  5  3  7  1       -2 -.919426693462D-04 0.100000000000D+01
  </mgrwgt>
  </event>
  <event>
  8     66 0.26562228E-05 0.10126093E+03 0.75467711E-02 0.10068179E+00
       -2 -1    0    0    0  501 0.00000000E+00 0.00000000E+00 0.49826595E+02 0.49827622E+02 0.32000000E+00 0.0000E+00 0.9000E+01
        1 -1    0    0  501    0 0.00000000E+00 0.00000000E+00 -.13781158E+04 0.13781159E+04 0.32000000E+00 0.0000E+00 0.9000E+01
       25  2    1    2    0    0 -.11641590E+03 -.10989313E+03 -.95800972E+03 0.10166002E+04 0.30010697E+03 0.0000E+00 0.0000E+00
       23  2    3    3    0    0 -.28704447E+02 -.17343910E+03 -.51797377E+03 0.55434673E+03 0.89991125E+02 0.0000E+00 0.0000E+00
      -24  1    1    2    0    0 0.11641590E+03 0.10989313E+03 -.37027951E+03 0.41134327E+03 0.80419002E+02 0.0000E+00 0.9000E+01
      -13  1    4    4    0    0 -.32528960E+02 -.96480285E+02 -.40496687E+03 0.41757007E+03 0.10565837E+00 0.0000E+00 0.9000E+01
       13  1    4    4    0    0 0.38245133E+01 -.76958816E+02 -.11300690E+03 0.13677667E+03 0.10565837E+00 0.0000E+00 0.9000E+01
       23  1    3    3    0    0 -.87711449E+02 0.63545972E+02 -.44003595E+03 0.46225348E+03 0.91188000E+02 0.0000E+00 0.9000E+01
#aMCatNLO 1  0  0  1  2 0.98534948D+02 0.00000000D+00  -5  7  0 0.00000000D+00 0.00000000D+00 0.00000000D+00 0.00000000D+00 0.00000000D+00
  <mgrwgt>
 0.9418584418D-03    9    2    0
 0.262044994213691D+03 0.000000000000000D+00 0.000000000000000D+00 0.262044994213691D+03
 0.262044994213691D+03 0.000000000000000D+00 0.000000000000000D+00 -.262044994213691D+03
 0.182290581221594D+03 0.116415896060707D+03 0.109893130313550D+03 0.336671813790153D+02
 0.111342202887137D+03 -.325290101172228D+02 -.964803119432118D+02 -.450610591519381D+02
 0.862513817512402D+02 0.382456295956780D+01 -.769587893505255D+02 0.387558810229869D+02
 0.144205822567412D+03 -.877114489030524D+02 0.635459709801871D+02 -.273620032500640D+02
 0.000000000000000D+00 -.000000000000000D+00 -.000000000000000D+00 0.000000000000000D+00
 0.342917419960554D+03 0.000000000000000D+00 0.000000000000000D+00 0.342917419960554D+03
 0.298456403791939D+03 0.000000000000000D+00 0.000000000000000D+00 -.298456403791939D+03
 0.214734117253580D+03 0.148552067942520D+03 0.128227645873646D+03 0.336671813790153D+02
 0.989919605320071D+02 -.155040369752117D+02 -.867671253156819D+02 -.450610591519381D+02
 0.812169792643058D+02 0.173798708661805D+02 -.692251362990760D+02 0.387558810229869D+02
 0.138329342347201D+03 -.648423461564884D+02 0.765933843962702D+02 -.273620032500640D+02
 0.108101424355398D+03 -.855855556770005D+02 -.488287686551587D+02 0.444610161686149D+02
0.908995916912D-05 0.000000000000D+00 0.000000000000D+00 0.860142320370D-06 0.000000000000D+00  7 -2 1 -24 -13 13 23 21 0 0.76657119D-02 0.21201790D+00 0.62402782D+05 0.62402782D+05 0.62402782D+05 0.11389257D+01  1  2  2  1  7  1       -2 0.752845246923D-03 0.100000000000D+01
-.503592855494D-06 0.000000000000D+00 -.349078366507D-07 0.860142320370D-06 0.000000000000D+00  7 -2 1 -24 -13 13 23 21 2 0.76657119D-02 0.21201790D+00 0.62402782D+05 0.62402782D+05 0.62402782D+05 0.11389257D+01  1  2  3  1  7  1       -2 -.541020987512D-04 0.100000000000D+01
0.582818609221D-06 0.000000000000D+00 0.000000000000D+00 0.860142320370D-06 0.000000000000D+00  7 -2 1 -24 -13 13 23 21 2 0.76657119D-02 0.21201790D+00 0.62402782D+05 0.62402782D+05 0.62402782D+05 0.11389257D+01  1  2 15  1  7  1       -2 0.626134974040D-04 0.100000000000D+01
0.505400620857D-05 0.000000000000D+00 0.000000000000D+00 0.860142320370D-06 0.000000000000D+00  7 -2 1 -24 -13 13 23 21 2 0.10434248D-01 0.21201790D+00 0.91725546D+05 0.91725546D+05 0.91725546D+05 0.11248132D+01  1  2 12  1  7  1       -2 0.329481935049D-03 0.100000000000D+01
-.596420700546D-05 0.000000000000D+00 0.000000000000D+00 0.860142320370D-06 0.000000000000D+00  7 -2 1 -24 -13 13 23 21 2 0.76657119D-02 0.21201790D+00 0.62402782D+05 0.62402782D+05 0.62402782D+05 0.11389257D+01  1  2  4  1  7  1       -2 -.640748002801D-03 0.100000000000D+01
-.929127578870D-05 0.000000000000D+00 -.377088229993D-05 0.860142320370D-06 0.000000000000D+00  7 -2 1 -24 -13 13 23 21 2 0.11509943D-01 0.21201790D+00 0.62402782D+05 0.62402782D+05 0.62402782D+05 0.11389257D+01  1  2  5  1  7  1       -2 -.536400699567D-03 0.100000000000D+01
0.102564252883D-04 0.000000000000D+00 0.347948946607D-05 0.860142320370D-06 0.000000000000D+00  7 -2 1 -24 -13 13 23 21 2 0.76657119D-02 0.21201790D+00 0.62402782D+05 0.62402782D+05 0.62402782D+05 0.11389257D+01  1  2  6  1  7  1       -2 0.110187054429D-02 0.100000000000D+01
0.199268078851D-06 0.000000000000D+00 0.000000000000D+00 0.860142320370D-06 0.000000000000D+00  7 21 1 -24 -13 13 23 2 2 0.10434248D-01 0.21201790D+00 0.91725546D+05 0.91725546D+05 0.91725546D+05 0.11248132D+01  1  2 12  3  7  1       -2 0.188313832497D-03 0.100000000000D+01
-.315979735976D-06 0.000000000000D+00 -.181617827456D-06 0.860142320370D-06 0.000000000000D+00  7 21 1 -24 -13 13 23 2 2 0.11509943D-01 0.21201790D+00 0.62402782D+05 0.62402782D+05 0.62402782D+05 0.11389257D+01  1  2  5  3  7  1       -2 -.262015813252D-03 0.100000000000D+01
  </mgrwgt>
  </event>
  <event>
  8     66 0.26562228E-05 0.19261442E+03 0.75467711E-02 0.10041633E+00
       -2 -1    0    0    0  501 0.00000000E+00 0.00000000E+00 0.54774353E+02 0.54775288E+02 0.32000000E+00 0.0000E+00 0.9000E+01
        1 -1    0    0  501    0 0.00000000E+00 0.00000000E+00 -.83692197E+03 0.83692204E+03 0.32000000E+00 0.0000E+00 0.9000E+01
       25  2    1    2    0    0 0.40310179E+02 0.22289677E+02 -.43676941E+03 0.53410109E+03 0.30393209E+03 0.0000E+00 0.0000E+00
       23  2    3    3    0    0 0.11325358E+03 0.76607600E+02 -.16109031E+03 0.22982261E+03 0.90406009E+02 0.0000E+00 0.0000E+00
      -24  1    1    2    0    0 -.40310179E+02 -.22289677E+02 -.34537821E+03 0.35759623E+03 0.80419002E+02 0.0000E+00 0.9000E+01
      -13  1    4    4    0    0 0.11072306E+02 0.59058094E+02 -.54390448E+02 0.81048050E+02 0.10565837E+00 0.0000E+00 0.9000E+01
       13  1    4    4    0    0 0.10218128E+03 0.17549505E+02 -.10669986E+03 0.14877456E+03 0.10565837E+00 0.0000E+00 0.9000E+01
       23  1    3    3    0    0 -.72943401E+02 -.54317922E+02 -.27567910E+03 0.30427848E+03 0.91188000E+02 0.0000E+00 0.9000E+01
#aMCatNLO 1  0  0  2  1 0.19306668D+03 0.00000000D+00  -5  7  0 0.00000000D+00 0.00000000D+00 0.00000000D+00 0.00000000D+00 0.00000000D+00
  <mgrwgt>
 0.5951614291D-03    5    2    0
 0.214108158914110D+03 0.000000000000000D+00 0.000000000000000D+00 0.214108158914110D+03
 0.214108158914110D+03 0.000000000000000D+00 0.000000000000000D+00 -.214108158914110D+03
 0.113800607370194D+03 -.403108745230237D+02 -.222900614622749D+02 -.660420232779980D+02
 0.694250377702107D+02 0.110720913071694D+02 0.590580586391257D+02 0.347762903895524D+02
 0.114911153053639D+03 0.102181254026666D+03 0.175493118643531D+02 0.495538704315057D+02
 0.130079519634175D+03 -.729424708108120D+02 -.543173090412038D+02 -.182881375430601D+02
 0.000000000000000D+00 0.000000000000000D+00 0.000000000000000D+00 -.000000000000000D+00
 0.323490325372649D+03 0.000000000000000D+00 0.000000000000000D+00 0.323490325372649D+03
 0.340009291246020D+03 0.000000000000000D+00 0.000000000000000D+00 -.340009291246020D+03
 0.140123649975782D+03 -.576120475843149D+02 -.740724271416564D+02 -.660420232779980D+02
 0.493184243149818D+02 0.298148504172064D+01 0.348428952671863D+02 0.347762903895524D+02
 0.103946903311866D+03 0.872693226160401D+02 -.270820598094286D+02 0.495538704315057D+02
 0.176338558225169D+03 -.938203193848829D+02 -.116804655166890D+03 -.182881375430601D+02
 0.193772080790870D+03 0.611815593114370D+02 0.183116246850788D+03 -.165189658733715D+02
0.350972127267D-05 0.000000000000D+00 0.000000000000D+00 0.144357537744D-07 0.000000000000D+00  7 -2 1 -24 -13 13 23 21 0 0.84269002D-02 0.12875730D+00 0.37100315D+05 0.37100315D+05 0.37100315D+05 0.11588718D+01  1  2  2  2  7  2        1 0.619532045082D-03 0.100000000000D+01
-.192331263082D-06 0.000000000000D+00 -.134782538179D-07 0.144357537744D-07 0.000000000000D+00  7 -2 1 -24 -13 13 23 21 2 0.84269002D-02 0.12875730D+00 0.37100315D+05 0.37100315D+05 0.37100315D+05 0.11588718D+01  1  2  3  2  7  2        1 -.455944317925D-04 0.100000000000D+01
0.221713776032D-06 0.000000000000D+00 0.000000000000D+00 0.144357537744D-07 0.000000000000D+00  7 -2 1 -24 -13 13 23 21 2 0.84269002D-02 0.12875730D+00 0.37100315D+05 0.37100315D+05 0.37100315D+05 0.11588718D+01  1  2 15  2  7  2        1 0.525599087571D-04 0.100000000000D+01
-.567224822247D-06 0.000000000000D+00 -.107168623102D-05 0.144357537744D-07 0.000000000000D+00  7 -2 1 -24 -13 13 23 21 2 0.84269002D-02 0.26700165D+00 0.37100315D+05 0.37100315D+05 0.37100315D+05 0.11588718D+01  1  2  5  2  7  2        1 -.321717737487D-04 0.100000000000D+01
0.211879952559D-07 0.000000000000D+00 -.845173468697D-07 0.144357537744D-07 0.000000000000D+00  7 -2 21 -24 -13 13 23 -1 2 0.84269002D-02 0.26700165D+00 0.37100315D+05 0.37100315D+05 0.37100315D+05 0.11588718D+01  1  2  5  4  7  2        1 0.835680816489D-06 0.100000000000D+01
  </mgrwgt>
  </event>
  <event>
  8     66 0.26562228E-05 0.24592111E+03 0.75467711E-02 0.10108453E+00
       -2 -1    0    0    0  501 0.00000000E+00 0.00000000E+00 0.21091676E+03 0.21091701E+03 0.32000000E+00 0.0000E+00 0.9000E+01
        1 -1    0    0  501    0 0.00000000E+00 0.00000000E+00 -.37916899E+03 0.37916913E+03 0.32000000E+00 0.0000E+00 0.9000E+01
       25  2    1    2    0    0 -.25313739E+02 -.13934696E+03 0.29811758E+02 0.33365892E+03 0.30063461E+03 0.0000E+00 0.0000E+00
       23  2    3    3    0    0 -.83984997E+02 -.17495120E+03 -.36745162E-01 0.21569213E+03 0.94136554E+02 0.0000E+00 0.0000E+00
      -24  1    1    2    0    0 0.25313739E+02 0.13934696E+03 -.19806399E+03 0.25642722E+03 0.80419002E+02 0.0000E+00 0.9000E+01
      -11  1    4    4    0    0 -.10212196E+03 -.16530294E+03 0.56164229E+01 0.19438493E+03 0.51099893E-03 0.0000E+00 0.9000E+01
       11  1    4    4    0    0 0.18136965E+02 -.96482631E+01 -.56531681E+01 0.21307200E+02 0.51099893E-03 0.0000E+00 0.9000E+01
       23  1    3    3    0    0 0.58671258E+02 0.35604242E+02 0.29848503E+02 0.11796679E+03 0.91188000E+02 0.0000E+00 0.9000E+01
#aMCatNLO 1  0  0  1  1 0.83959510D+02 0.00000000D+00  -5  7  0 0.00000000D+00 0.00000000D+00 0.00000000D+00 0.00000000D+00 0.00000000D+00
  <mgrwgt>
 0.1426686037D-02    3    2    0
 0.282795348068675D+03 0.000000000000000D+00 0.000000000000000D+00 0.282795348068675D+03
 0.282795348068675D+03 0.000000000000000D+00 0.000000000000000D+00 -.282795348068675D+03
 0.208612766995984D+03 0.253137390412108D+02 0.139346958572141D+03 -.130359926172876D+03
 0.204474415460633D+03 -.102121961821065D+03 -.165302937244387D+03 0.636854020177503D+02
 0.205482965353869D+02 0.181369647855398D+02 -.964826314836543D+01 0.440473715646297D+00
 0.131955217145346D+03 0.586712579943143D+02 0.356042418206117D+02 0.662340504394797D+02
 0.000000000000000D+00 -.000000000000000D+00 -.000000000000000D+00 -.000000000000000D+00
 0.292561683421089D+03 0.000000000000000D+00 0.000000000000000D+00 0.292561683421089D+03
 0.550207864081982D+03 0.000000000000000D+00 0.000000000000000D+00 -.550207864081982D+03
 0.229932952666294D+03 0.440780827747417D+02 0.165726760164358D+03 -.130359926172876D+03
 0.177932184168466D+03 -.857596794872252D+02 -.142300067136480D+03 0.636854020177503D+02
 0.211669436191690D+02 0.199218621636049D+02 -.713897002495674D+01 0.440473715646297D+00
 0.142756372392967D+03 0.704255231998924D+02 0.521289435841680D+02 0.662340504394797D+02
 0.270981094656176D+03 -.486657886510138D+02 -.684166665870890D+02 -.257646180660892D+03
0.228717882614D-04 0.000000000000D+00 0.000000000000D+00 0.284502784671D-06 0.000000000000D+00  7 -2 1 -24 -11 11 23 21 0 0.32448762D-01 0.58333720D-01 0.60477193D+05 0.60477193D+05 0.60477193D+05 0.11400982D+01  1  2  2  1  7  1       -2 0.140817637411D-02 0.100000000000D+01
-.124049841131D-05 0.000000000000D+00 -.878336892039D-07 0.284502784671D-06 0.000000000000D+00  7 -2 1 -24 -11 11 23 21 2 0.32448762D-01 0.58333720D-01 0.60477193D+05 0.60477193D+05 0.60477193D+05 0.11400982D+01  1  2  3  1  7  1       -2 -.992744848342D-04 0.100000000000D+01
0.147178853347D-05 0.000000000000D+00 0.000000000000D+00 0.284502784671D-06 0.000000000000D+00  7 -2 1 -24 -11 11 23 21 2 0.32448762D-01 0.58333720D-01 0.60477193D+05 0.60477193D+05 0.60477193D+05 0.11400982D+01  1  2 15  1  7  1       -2 0.117784147978D-03 0.100000000000D+01
  </mgrwgt>
  </event>
  <event>
  8     66 0.26562228E-05 0.11118063E+03 0.75467711E-02 0.10895122E+00
       -4 -1    0    0    0  501 0.00000000E+00 0.00000000E+00 0.80838009E+02 0.80852867E+02 0.15500000E+01 0.0000E+00 0.9000E+01
        3 -1    0    0  501    0 0.00000000E+00 0.00000000E+00 -.47336462E+03 0.47336489E+03 0.50000000E+00 0.0000E+00 0.9000E+01
       25  2    1    2    0    0 -.19586924E+02 0.24181279E+02 -.34325640E+03 0.45490435E+03 0.29689161E+03 0.0000E+00 0.0000E+00
       23  2    3    3    0    0 -.67317271E+02 0.14545622E+01 -.32934170E+03 0.34858615E+03 0.92263851E+02 0.0000E+00 0.0000E+00
      -24  1    1    2    0    0 0.19586924E+02 -.24181279E+02 -.49270212E+02 0.99313401E+02 0.80419002E+02 0.0000E+00 0.9000E+01
      -13  1    4    4    0    0 -.79230365E+02 0.20828614E+02 -.30253704E+03 0.31343254E+03 0.10565837E+00 0.0000E+00 0.9000E+01
       13  1    4    4    0    0 0.11913094E+02 -.19374052E+02 -.26804656E+02 0.35153612E+02 0.10565837E+00 0.0000E+00 0.9000E+01
       23  1    3    3    0    0 0.47730347E+02 0.22726717E+02 -.13914701E+02 0.10631820E+03 0.91188000E+02 0.0000E+00 0.9000E+01
#aMCatNLO 1  0  0  1  2 0.38168230D+02 0.00000000D+00  -5  7  0 0.00000000D+00 0.00000000D+00 0.00000000D+00 0.00000000D+00 0.00000000D+00
  <mgrwgt>
 0.2699520998D-03    9    2    0
 0.195627308854833D+03 0.000000000000000D+00 0.000000000000000D+00 0.195627308854833D+03
 0.195627308854833D+03 0.000000000000000D+00 0.000000000000000D+00 -.195627308854833D+03
 0.912491619343928D+02 0.195876011863540D+02 -.241821151193205D+02 0.298453478364514D+02
 0.140461397568048D+03 -.792305776186256D+02 0.208290362780897D+02 -.114096761674967D+03
 0.229035190598199D+02 0.119132223238785D+02 -.193739628792882D+02 -.270108895398521D+01
 0.136640539147406D+03 0.477297541083932D+02 0.227270417205190D+02 0.869525027925008D+02
 0.000000000000000D+00 -.000000000000000D+00 0.000000000000000D+00 0.000000000000000D+00
 0.221227790192564D+03 0.000000000000000D+00 0.000000000000000D+00 0.221227790192564D+03
 0.211317882575278D+03 0.000000000000000D+00 0.000000000000000D+00 -.211317882575278D+03
 0.941419711987289D+02 0.200790646939511D+02 -.331900762329513D+02 0.298453478364514D+02
 0.138678180570752D+03 -.784905912241158D+02 0.726593634631431D+01 -.114096761674967D+03
 0.249627462398139D+02 0.120401136279132D+02 -.216997346095048D+02 -.270108895398521D+01
 0.135329032187805D+03 0.484507331392086D+02 0.951232491462281D+01 0.869525027925008D+02
 0.394337425707419D+02 -.207932023695705D+01 0.381115495815190D+02 0.990990761728585D+01
0.750791940457D-05 0.000000000000D+00 0.000000000000D+00 0.156756594020D-07 0.000000000000D+00  7 -4 3 -24 -13 13 23 21 0 0.12437780D-01 0.72826490D-01 0.21948455D+05 0.21948455D+05 0.21948455D+05 0.11801414D+01  1  2  2  1  7  1       -4 0.237064135589D-03 0.100000000000D+01
-.377916892655D-06 0.000000000000D+00 -.288323873941D-07 0.156756594020D-07 0.000000000000D+00  7 -4 3 -24 -13 13 23 21 2 0.12437780D-01 0.72826490D-01 0.21948455D+05 0.21948455D+05 0.21948455D+05 0.11801414D+01  1  2  3  1  7  1       -4 -.166192203572D-04 0.100000000000D+01
0.489112919121D-06 0.000000000000D+00 0.000000000000D+00 0.156756594020D-07 0.000000000000D+00  7 -4 3 -24 -13 13 23 21 2 0.12437780D-01 0.72826490D-01 0.21948455D+05 0.21948455D+05 0.21948455D+05 0.11801414D+01  1  2 15  1  7  1       -4 0.215091612478D-04 0.100000000000D+01
0.790396440865D-05 0.000000000000D+00 0.000000000000D+00 0.156756594020D-07 0.000000000000D+00  7 -4 3 -24 -13 13 23 21 2 0.14510939D-01 0.72826490D-01 0.28021779D+05 0.28021779D+05 0.28021779D+05 0.11700946D+01  1  2 12  1  7  1       -4 0.265024536963D-03 0.100000000000D+01
-.750290255491D-05 0.000000000000D+00 0.000000000000D+00 0.156756594020D-07 0.000000000000D+00  7 -4 3 -24 -13 13 23 21 2 0.12437780D-01 0.72826490D-01 0.21948455D+05 0.21948455D+05 0.21948455D+05 0.11801414D+01  1  2  4  1  7  1       -4 -.329946592232D-03 0.100000000000D+01
-.176922536420D-04 0.000000000000D+00 -.541979405949D-05 0.156756594020D-07 0.000000000000D+00  7 -4 3 -24 -13 13 23 21 2 0.15162880D-01 0.72826490D-01 0.21948455D+05 0.21948455D+05 0.21948455D+05 0.11801414D+01  1  2  5  1  7  1       -4 -.553273959134D-03 0.100000000000D+01
0.185062663125D-04 0.000000000000D+00 0.531514737137D-05 0.156756594020D-07 0.000000000000D+00  7 -4 3 -24 -13 13 23 21 2 0.12437780D-01 0.72826490D-01 0.21948455D+05 0.21948455D+05 0.21948455D+05 0.11801414D+01  1  2  6  1  7  1       -4 0.813828976195D-03 0.100000000000D+01
0.184328130314D-06 0.000000000000D+00 0.000000000000D+00 0.156756594020D-07 0.000000000000D+00  7 21 3 -24 -13 13 23 4 2 0.14510939D-01 0.72826490D-01 0.28021779D+05 0.28021779D+05 0.28021779D+05 0.11700946D+01  1  2 12  3  7  1       -4 0.133690331454D-03 0.100000000000D+01
-.441215769726D-06 0.000000000000D+00 -.153971897420D-06 0.156756594020D-07 0.000000000000D+00  7 21 3 -24 -13 13 23 4 2 0.15162880D-01 0.72826490D-01 0.21948455D+05 0.21948455D+05 0.21948455D+05 0.11801414D+01  1  2  5  3  7  1       -4 -.301325269931D-03 0.100000000000D+01
  </mgrwgt>
  </event>
  <event>
  8     66 0.26562228E-05 0.18942643E+03 0.75467711E-02 0.93644437E-01
       -2 -1    0    0    0  501 0.00000000E+00 0.00000000E+00 0.10339844E+03 0.10339894E+03 0.32000000E+00 0.0000E+00 0.9000E+01
        1 -1    0    0  501    0 0.00000000E+00 0.00000000E+00 -.20651031E+04 0.20651032E+04 0.32000000E+00 0.0000E+00 0.9000E+01
       25  2    1    2    0    0 0.55667028E+02 -.38670104E+03 -.79156328E+03 0.93224377E+03 0.29978243E+03 0.0000E+00 0.0000E+00
       23  2    3    3    0    0 0.12927837E+03 -.15978004E+03 -.47461524E+03 0.52520191E+03 0.91295416E+02 0.0000E+00 0.0000E+00
      -24  1    1    2    0    0 -.55667028E+02 0.38670104E+03 -.11701414E+04 0.12362583E+04 0.80419002E+02 0.0000E+00 0.9000E+01
      -11  1    4    4    0    0 0.12087249E+03 -.81834706E+02 -.29129753E+03 0.32582407E+03 0.51099893E-03 0.0000E+00 0.9000E+01
       11  1    4    4    0    0 0.84058805E+01 -.77945338E+02 -.18331772E+03 0.19937783E+03 0.51099893E-03 0.0000E+00 0.9000E+01
       23  1    3    3    0    0 -.73611344E+02 -.22692100E+03 -.31694804E+03 0.40704186E+03 0.91188000E+02 0.0000E+00 0.9000E+01
#aMCatNLO 1  0  0  2  1 0.19056115D+03 0.00000000D+00  -5  7  0 0.00000000D+00 0.00000000D+00 0.00000000D+00 0.00000000D+00 0.00000000D+00
  <mgrwgt>
 0.1656992750D-02    9    2    0
 0.462091997994246D+03 0.000000000000000D+00 0.000000000000000D+00 0.462091997994246D+03
 0.462091997994246D+03 0.000000000000000D+00 0.000000000000000D+00 -.462091997994246D+03
 0.416969873736489D+03 -.556670278213919D+02 0.386701043678090D+03 -.121491335004853D+03
 0.146194334554394D+03 0.120872491621189D+03 -.818347056931171D+02 0.810587251372337D+01
 0.787029666101080D+02 0.840588045603284D+01 -.779453384475415D+02 -.692981538634793D+01
 0.282316821087501D+03 -.736113442558294D+02 -.226920999537432D+03 0.120315277877478D+03
 0.000000000000000D+00 0.000000000000000D+00 -.000000000000000D+00 -.000000000000000D+00
 0.556683746840361D+03 0.000000000000000D+00 0.000000000000000D+00 0.556683746840361D+03
 0.578779977471447D+03 0.000000000000000D+00 0.000000000000000D+00 -.578779977471447D+03
 0.446057188564405D+03 -.143165004581531D+03 0.396539325285046D+03 -.121491335004853D+03
 0.122617261489558D+03 0.936190347935402D+02 -.787703241729770D+02 0.810587251372337D+01
 0.768404244083456D+02 -.736388228610099D+01 -.761721846847145D+02 -.692981538634793D+01
 0.298110905198766D+03 -.132457994522087D+03 -.220304276061270D+03 0.120315277877478D+03
 0.191837944650732D+03 0.189367846596178D+03 -.212925403660851D+02 -.220962306310865D+02
0.114587053370D-03 0.000000000000D+00 0.000000000000D+00 0.947925989847D-05 0.000000000000D+00  7 -2 1 -24 -11 11 23 21 0 0.15907493D-01 0.31770822D+00 0.19300234D+06 0.19300234D+06 0.19300234D+06 0.10990153D+01  1  2  2  2  7  2        1 0.104484253489D-02 0.100000000000D+01
-.634618078207D-05 0.000000000000D+00 -.440044456405D-06 0.947925989847D-05 0.000000000000D+00  7 -2 1 -24 -11 11 23 21 2 0.15907493D-01 0.31770822D+00 0.19300234D+06 0.19300234D+06 0.19300234D+06 0.10990153D+01  1  2  3  2  7  2        1 -.698932458019D-04 0.100000000000D+01
0.735338598222D-05 0.000000000000D+00 0.000000000000D+00 0.947925989847D-05 0.000000000000D+00  7 -2 1 -24 -11 11 23 21 2 0.15907493D-01 0.31770822D+00 0.19300234D+06 0.19300234D+06 0.19300234D+06 0.10990153D+01  1  2 15  2  7  2        1 0.809860342118D-04 0.100000000000D+01
0.419469076000D-04 0.000000000000D+00 0.000000000000D+00 0.947925989847D-05 0.000000000000D+00  7 -2 1 -24 -11 11 23 21 2 0.15907493D-01 0.42337760D+00 0.29777979D+06 0.29777979D+06 0.29777979D+06 0.10847906D+01  1  2 12  2  7  2        1 0.149092716436D-03 0.100000000000D+01
-.491297714563D-04 0.000000000000D+00 0.000000000000D+00 0.947925989847D-05 0.000000000000D+00  7 -2 1 -24 -11 11 23 21 2 0.15907493D-01 0.31770822D+00 0.19300234D+06 0.19300234D+06 0.19300234D+06 0.10990153D+01  1  2  4  2  7  2        1 -.541087515548D-03 0.100000000000D+01
-.118196083245D-03 0.000000000000D+00 -.445322510461D-04 0.947925989847D-05 0.000000000000D+00  7 -2 1 -24 -11 11 23 21 2 0.15907493D-01 0.42977313D+00 0.19300234D+06 0.19300234D+06 0.19300234D+06 0.10990153D+01  1  2  5  2  7  2        1 -.411876455278D-03 0.100000000000D+01
0.127734049822D-03 0.000000000000D+00 0.425743547819D-04 0.947925989847D-05 0.000000000000D+00  7 -2 1 -24 -11 11 23 21 2 0.15907493D-01 0.31770822D+00 0.19300234D+06 0.19300234D+06 0.19300234D+06 0.10990153D+01  1  2  6  2  7  2        1 0.140679057973D-02 0.100000000000D+01
0.157082404203D-05 0.000000000000D+00 0.000000000000D+00 0.947925989847D-05 0.000000000000D+00  7 -2 21 -24 -11 11 23 -1 2 0.15907493D-01 0.42337760D+00 0.29777979D+06 0.29777979D+06 0.29777979D+06 0.10847906D+01  1  2 12  4  7  2        1 0.154010317716D-05 0.100000000000D+01
-.358278912317D-05 0.000000000000D+00 -.173020128708D-05 0.947925989847D-05 0.000000000000D+00  7 -2 21 -24 -11 11 23 -1 2 0.15907493D-01 0.42977313D+00 0.19300234D+06 0.19300234D+06 0.19300234D+06 0.10990153D+01  1  2  5  4  7  2        1 -.340200169165D-05 0.100000000000D+01
  </mgrwgt>
  </event>
  <event>
  8     66 0.26562228E-05 0.85019685E+02 0.75467711E-02 0.99578880E-01
       -2 -1    0    0    0  501 0.00000000E+00 0.00000000E+00 0.25550460E+03 0.25550480E+03 0.32000000E+00 0.0000E+00 0.9000E+01
        1 -1    0    0  501    0 0.00000000E+00 0.00000000E+00 -.40880472E+03 0.40880484E+03 0.32000000E+00 0.0000E+00 0.9000E+01
       25  2    1    2    0    0 -.10980600E+03 0.18452717E+03 -.21490241E+03 0.42688662E+03 0.29990249E+03 0.0000E+00 0.0000E+00
       23  2    3    3    0    0 0.20849732E+02 -.32288744E+02 -.73293620E+02 0.12283340E+03 0.90767915E+02 0.0000E+00 0.0000E+00
      -24  1    1    2    0    0 0.10980600E+03 -.18452717E+03 0.61602292E+02 0.23742302E+03 0.80419002E+02 0.0000E+00 0.9000E+01
      -11  1    4    4    0    0 0.46107043E+02 0.49069430E+01 -.14027077E+02 0.48442712E+02 0.51099893E-03 0.0000E+00 0.9000E+01
       11  1    4    4    0    0 -.25257311E+02 -.37195687E+02 -.59266543E+02 0.74390684E+02 0.51099893E-03 0.0000E+00 0.9000E+01
       23  1    3    3    0    0 -.13065573E+03 0.21681591E+03 -.14160879E+03 0.30405322E+03 0.91188000E+02 0.0000E+00 0.9000E+01
#aMCatNLO 1  0  0  2  1 0.70184657D+02 0.00000000D+00  -5  7  0 0.00000000D+00 0.00000000D+00 0.00000000D+00 0.00000000D+00 0.00000000D+00
  <mgrwgt>
 0.4143354992D-03    7    2    0
 0.323189715183749D+03 0.000000000000000D+00 0.000000000000000D+00 0.323189715183749D+03
 0.323189715183749D+03 0.000000000000000D+00 0.000000000000000D+00 -.323189715183749D+03
 0.258619058955129D+03 0.109805995013530D+03 -.184527168656851D+03 0.119620103607381D+03
 0.464597210083172D+02 0.461070426887851D+02 0.490694297743141D+01 -.292714900226309D+01
 0.623981496931894D+02 -.252573105496131D+02 -.371956869378573D+02 -.432675192512233D+02
 0.278902500710863D+03 -.130655727152702D+03 0.216815912617277D+03 -.734254353538951D+02
 0.000000000000000D+00 -.000000000000000D+00 -.000000000000000D+00 -.000000000000000D+00
 0.325920561410515D+03 0.000000000000000D+00 0.000000000000000D+00 0.325920561410515D+03
 0.180656733954097D+04 0.000000000000000D+00 0.000000000000000D+00 -.180656733954097D+04
 0.245033194712399D+03 0.118619641556795D+03 -.158727634665456D+03 0.119620103607381D+03
 0.488554282135807D+02 0.477750071014192D+02 0.978945152244141D+01 -.292714900226309D+01
 0.580564389505119D+02 -.231494193189291D+02 -.310254132390839D+02 -.432675192512233D+02
 0.298233570527780D+03 -.120556152888463D+03 0.246379647474325D+03 -.734254353538951D+02
 0.148230926854721D+04 -.226890764508220D+02 -.664160510922267D+02 -.148064677813045D+04
0.116550371503D-04 0.000000000000D+00 0.000000000000D+00 0.328954740812D-05 0.000000000000D+00  7 -2 1 -24 -11 11 23 21 0 0.39308424D-01 0.62893058D-01 0.86931744D+05 0.86931744D+05 0.86931744D+05 0.11267476D+01  1  2  2  2  7  2        1 0.457758795029D-03 0.100000000000D+01
-.640867532251D-06 0.000000000000D+00 -.447584114990D-07 0.328954740812D-05 0.000000000000D+00  7 -2 1 -24 -11 11 23 21 2 0.39308424D-01 0.62893058D-01 0.86931744D+05 0.86931744D+05 0.86931744D+05 0.11267476D+01  1  2  3  2  7  2        1 -.319554239366D-04 0.100000000000D+01
0.754100813930D-06 0.000000000000D+00 0.000000000000D+00 0.328954740812D-05 0.000000000000D+00  7 -2 1 -24 -11 11 23 21 2 0.39308424D-01 0.62893058D-01 0.86931744D+05 0.86931744D+05 0.86931744D+05 0.11267476D+01  1  2 15  2  7  2        1 0.376015478822D-04 0.100000000000D+01
0.847039378445D-03 0.000000000000D+00 0.000000000000D+00 0.328954740812D-05 0.000000000000D+00  7 -2 1 -24 -11 11 23 21 2 0.39308424D-01 0.34995715D+00 0.10908722D+06 0.10908722D+06 0.10908722D+06 0.11186354D+01  1  2 12  2  7  2        1 0.151954917042D-02 0.100000000000D+01
-.863532245330D-03 0.000000000000D+00 -.545133561646D-05 0.328954740812D-05 0.000000000000D+00  7 -2 1 -24 -11 11 23 21 2 0.39308424D-01 0.35187114D+00 0.86931744D+05 0.86931744D+05 0.86931744D+05 0.11267476D+01  1  2  5  2  7  2        1 -.156357472600D-02 0.100000000000D+01
0.177984981594D-03 0.000000000000D+00 0.000000000000D+00 0.328954740812D-05 0.000000000000D+00  7 -2 21 -24 -11 11 23 -1 2 0.39308424D-01 0.34995715D+00 0.10908722D+06 0.10908722D+06 0.10908722D+06 0.11186354D+01  1  2 12  4  7  2        1 0.136462046406D-03 0.100000000000D+01
-.182325257090D-03 0.000000000000D+00 -.114926237851D-05 0.328954740812D-05 0.000000000000D+00  7 -2 21 -24 -11 11 23 -1 2 0.39308424D-01 0.35187114D+00 0.86931744D+05 0.86931744D+05 0.86931744D+05 0.11267476D+01  1  2  5  4  7  2        1 -.141505910603D-03 0.100000000000D+01
  </mgrwgt>
  </event>
  <event>
  8     66 0.26562228E-05 0.30266380E+03 0.75467711E-02 0.93429764E-01
       -2 -1    0    0    0  501 0.00000000E+00 0.00000000E+00 0.31576730E+03 0.31576746E+03 0.32000000E+00 0.0000E+00 0.9000E+01
        1 -1    0    0  501    0 0.00000000E+00 0.00000000E+00 -.30665968E+03 0.30665985E+03 0.32000000E+00 0.0000E+00 0.9000E+01
       25  2    1    2    0    0 0.21578872E+02 -.22805329E+03 -.17573307E+02 0.37818760E+03 0.30040488E+03 0.0000E+00 0.0000E+00
       23  2    3    3    0    0 0.98293399E+02 -.10889805E+03 -.61827552E+02 0.20395563E+03 0.12749461E+03 0.0000E+00 0.0000E+00
      -24  1    1    2    0    0 -.21578872E+02 0.22805329E+03 0.26680924E+02 0.24423971E+03 0.80419002E+02 0.0000E+00 0.9000E+01
      -11  1    4    4    0    0 0.12222128E+03 -.52981926E+02 -.36920445E+02 0.13823258E+03 0.51099893E-03 0.0000E+00 0.9000E+01
       11  1    4    4    0    0 -.23927881E+02 -.55916121E+02 -.24907107E+02 0.65723055E+02 0.51099893E-03 0.0000E+00 0.9000E+01
       23  1    3    3    0    0 -.76714527E+02 -.11915524E+03 0.44254245E+02 0.17423197E+03 0.91188000E+02 0.0000E+00 0.9000E+01
#aMCatNLO 1  0  0  1  2 0.39388660D+03 0.00000000D+00  -5  7  0 0.00000000D+00 0.00000000D+00 0.00000000D+00 0.00000000D+00 0.00000000D+00
  <mgrwgt>
 0.1402618184D-02    3    2    0
 0.311180336972378D+03 0.000000000000000D+00 0.000000000000000D+00 0.311180336972378D+03
 0.311180336972378D+03 0.000000000000000D+00 0.000000000000000D+00 -.311180336972378D+03
 0.243875413255250D+03 -.215788717695025D+02 0.228053285054355D+03 0.231095803752679D+02
 0.138787669598059D+03 0.122221279214459D+03 -.529819260941831D+02 -.389472931921024D+02
 0.660945794705345D+02 -.239278773344396D+02 -.559161182978870D+02 -.258715642385906D+02
 0.173603011620912D+03 -.767145301105171D+02 -.119155240662285D+03 0.417092770554251D+02
 0.000000000000000D+00 0.000000000000000D+00 -.000000000000000D+00 -.000000000000000D+00
 0.489067458340037D+03 0.000000000000000D+00 0.000000000000000D+00 0.489067458340037D+03
 0.689343864589792D+03 0.000000000000000D+00 0.000000000000000D+00 -.689343864589792D+03
 0.313656376391893D+03 -.182676827326931D+03 0.240848978718133D+03 0.231095803752679D+02
 0.844831916801253D+02 0.577075062684791D+02 -.478577240342940D+02 -.389472931921024D+02
 0.905137159461754D+02 -.691796041120880D+02 -.523218626687561D+02 -.258715642385906D+02
 0.247878766295977D+03 -.198501043432196D+03 -.109481977513466D+03 0.417092770554251D+02
 0.441879272615657D+03 0.392649968602736D+03 -.311874145016172D+02 -.200276406249755D+03
0.361485731948D-04 0.000000000000D+00 0.000000000000D+00 0.328648089341D-08 0.000000000000D+00  7 -2 1 -24 -11 11 23 21 0 0.48579610D-01 0.47178438D-01 0.91605378D+05 0.91605378D+05 0.91605378D+05 0.11248603D+01  1  2  2  1  7  1       -2 0.138949947198D-02 0.100000000000D+01
-.200637377382D-05 0.000000000000D+00 -.138820039206D-06 0.328648089341D-08 0.000000000000D+00  7 -2 1 -24 -11 11 23 21 2 0.48579610D-01 0.47178438D-01 0.91605378D+05 0.91605378D+05 0.91605378D+05 0.11248603D+01  1  2  3  1  7  1       -2 -.975834722272D-04 0.100000000000D+01
0.227610222646D-05 0.000000000000D+00 0.000000000000D+00 0.328648089341D-08 0.000000000000D+00  7 -2 1 -24 -11 11 23 21 2 0.48579610D-01 0.47178438D-01 0.91605378D+05 0.91605378D+05 0.91605378D+05 0.11248603D+01  1  2 15  1  7  1       -2 0.110702183860D-03 0.100000000000D+01
  </mgrwgt>
  </event>
  <event>
  8     66 0.26562228E-05 0.17933484E+03 0.75467711E-02 0.95895606E-01
       -4 -1    0    0    0  501 0.00000000E+00 0.00000000E+00 0.72391004E+03 0.72391170E+03 0.15500000E+01 0.0000E+00 0.9000E+01
        3 -1    0    0  501    0 0.00000000E+00 0.00000000E+00 -.20424654E+03 0.20424716E+03 0.50000000E+00 0.0000E+00 0.9000E+01
       25  2    1    2    0    0 0.18141278E+02 0.39513135E+02 -.86507552E+02 0.31513280E+03 0.29989120E+03 0.0000E+00 0.0000E+00
       23  2    3    3    0    0 0.63041476E+02 0.11422991E+03 0.53345917E+01 0.15909160E+03 0.90878930E+02 0.0000E+00 0.0000E+00
      -24  1    1    2    0    0 -.18141278E+02 -.39513135E+02 0.60617105E+03 0.61302606E+03 0.80419002E+02 0.0000E+00 0.9000E+01
      -11  1    4    4    0    0 0.39852416E+02 0.21035424E+02 -.32825813E+02 0.55751575E+02 0.51099893E-03 0.0000E+00 0.9000E+01
       11  1    4    4    0    0 0.23189059E+02 0.93194485E+02 0.38160404E+02 0.10334003E+03 0.51099893E-03 0.0000E+00 0.9000E+01
       23  1    3    3    0    0 -.44900197E+02 -.74716774E+02 -.91842143E+02 0.15604120E+03 0.91188000E+02 0.0000E+00 0.9000E+01
#aMCatNLO 1  0  0  2  1 0.37107028D+03 0.00000000D+00  -5  7  0 0.00000000D+00 0.00000000D+00 0.00000000D+00 0.00000000D+00 0.00000000D+00
  <mgrwgt>
 0.1195746140D-03    5    2    0
 0.384522012082210D+03 0.000000000000000D+00 0.000000000000000D+00 0.384522012082210D+03
 0.384522012082210D+03 0.000000000000000D+00 0.000000000000000D+00 -.384522012082210D+03
 0.330254954357253D+03 -.181412784764510D+02 -.395131351971932D+02 0.317349531408617D+03
 0.894678231490681D+02 0.398524161918011D+02 0.210354239288463D+02 -.772902790966763D+02
 0.989350265239301D+02 0.231890594832004D+02 0.931944848332997D+02 -.237738299445254D+02
 0.250386220134169D+03 -.449001971985504D+02 -.747167735649529D+02 -.216285422367416D+03
 0.000000000000000D+00 0.000000000000000D+00 0.000000000000000D+00 -.000000000000000D+00
 0.463565549838551D+03 0.000000000000000D+00 0.000000000000000D+00 0.463565549838551D+03
 0.136689530335843D+04 0.000000000000000D+00 0.000000000000000D+00 -.136689530335843D+04
 0.382863826811553D+03 -.164959068597372D+03 -.110432216896316D+03 0.317349531408617D+03
 0.776084665734828D+02 0.545453986821973D+01 0.441982305882084D+01 -.772902790966763D+02
 0.802159258797058D+02 -.136947635551580D+02 0.753780685987347D+02 -.237738299445254D+02
 0.313198111364953D+03 -.160931647053032D+03 -.130764776093259D+03 -.216285422367416D+03
 0.976574522567290D+03 0.334130939337342D+03 0.161399101332020D+03 -.903329753519883D+03
0.796467191617D-04 0.000000000000D+00 0.000000000000D+00 0.100208594119D-04 0.000000000000D+00  7 -4 3 -24 -11 11 23 21 0 0.11137095D+00 0.31422720D-01 0.32160983D+05 0.32160983D+05 0.32160983D+05 0.11645435D+01  1  2  2  2  7  2        3 0.126709395018D-03 0.100000000000D+01
-.129486911191D-05 0.000000000000D+00 -.305864373044D-06 0.100208594119D-04 0.000000000000D+00  7 -4 3 -24 -11 11 23 21 2 0.11137095D+00 0.31422720D-01 0.32160983D+05 0.32160983D+05 0.32160983D+05 0.11645435D+01  1  2  3  2  7  2        3 -.279369010161D-05 0.100000000000D+01
0.485411063675D-05 0.000000000000D+00 0.000000000000D+00 0.100208594119D-04 0.000000000000D+00  7 -4 3 -24 -11 11 23 21 2 0.11137095D+00 0.31422720D-01 0.32160983D+05 0.32160983D+05 0.32160983D+05 0.11645435D+01  1  2 15  2  7  2        3 0.104727811585D-04 0.100000000000D+01
-.403762455670D-04 0.000000000000D+00 -.309407570766D-04 0.100208594119D-04 0.000000000000D+00  7 -4 3 -24 -11 11 23 21 2 0.11137095D+00 0.12498318D+00 0.32160983D+05 0.32160983D+05 0.32160983D+05 0.11645435D+01  1  2  5  2  7  2        3 -.469879100394D-05 0.100000000000D+01
-.625777515705D-05 0.000000000000D+00 -.509427107236D-05 0.100208594119D-04 0.000000000000D+00  7 -4 21 -24 -11 11 23 -3 2 0.11137095D+00 0.12498318D+00 0.32160983D+05 0.32160983D+05 0.32160983D+05 0.11645435D+01  1  2  5  4  7  2        3 -.101150810730D-04 0.100000000000D+01
  </mgrwgt>
  </event>
  <event>
  9     66 0.26562228E-05 0.24663400E+03 0.75467711E-02 0.10313099E+00
       -2 -1    0    0    0  501 0.00000000E+00 0.00000000E+00 0.33845205E+03 0.33845221E+03 0.32000000E+00 0.0000E+00 0.9000E+01
        1 -1    0    0  502    0 0.00000000E+00 0.00000000E+00 -.20268165E+03 0.20268191E+03 0.32000000E+00 0.0000E+00 0.9000E+01
       25  2    1    2    0    0 -.14950177E+03 -.36932633E+02 0.10510137E+03 0.35410438E+03 0.30104621E+03 0.0000E+00 0.0000E+00
       23  2    3    3    0    0 -.16105079E+03 0.53573814E+02 0.10475898E+02 0.19412305E+03 0.93629598E+02 0.0000E+00 0.0000E+00
      -24  1    1    2    0    0 0.14660732E+03 0.46313933E+02 0.24059257E+02 0.17517063E+03 0.80419002E+02 0.0000E+00 0.9000E+01
      -13  1    4    4    0    0 -.16269340E+03 0.67915199E+02 0.22065171E-01 0.17629982E+03 0.10565837E+00 0.0000E+00 0.9000E+01
       13  1    4    4    0    0 0.16426066E+01 -.14341385E+02 0.10453833E+02 0.17823223E+02 0.10565837E+00 0.0000E+00 0.9000E+01
       23  1    3    3    0    0 0.11549024E+02 -.90506447E+02 0.94625472E+02 0.15998134E+03 0.91188000E+02 0.0000E+00 0.9000E+01
       21  1    1    2  502  501 0.28944522E+01 -.93813000E+01 0.66097735E+01 0.11859100E+02 0.75000000E+00 0.0000E+00 0.9000E+01
#aMCatNLO 2  0  0  2  1 0.98176699D+01 0.00000000D+00  -5  7  0 0.00000000D+00 0.00000000D+00 0.00000000D+00 0.00000000D+00 0.00000000D+00
  <mgrwgt>
 0.4302543881D-03    2    2    0
 0.256589742661224D+03 0.000000000000000D+00 0.000000000000000D+00 0.256589742661224D+03
 0.256589742661224D+03 0.000000000000000D+00 0.000000000000000D+00 -.256589742661224D+03
 0.174589588231898D+03 0.147591925985493D+03 0.431227120179028D+02 -.192707928411569D+02
 0.179664830178760D+03 -.161674352272530D+03 0.646117637416650D+02 -.443415719907592D+02
 0.160223663428628D+02 0.173240118015721D+01 -.146318544756478D+02 0.629474733244793D+01
 0.142902700568929D+03 0.123500251068796D+02 -.931026212839200D+02 0.573176174994683D+02
 0.000000000000000D+00 0.000000000000000D+00 -.000000000000000D+00 0.000000000000000D+00
 0.263821797383138D+03 0.000000000000000D+00 0.000000000000000D+00 0.263821797383138D+03
 0.259990391124399D+03 0.000000000000000D+00 0.000000000000000D+00 -.259990391124399D+03
 0.174577397086265D+03 0.146607324393072D+03 0.463139352314503D+02 -.192707928411569D+02
 0.181790737489556D+03 -.162693605931897D+03 0.679152988601357D+02 -.443415719907592D+02
 0.157480458954972D+02 0.164281310397276D+01 -.143414877419583D+02 0.629474733244793D+01
 0.141157207499122D+03 0.115490162784760D+02 -.905064463567890D+02 0.573176174994683D+02
 0.105388005370963D+02 0.289445215637706D+01 -.938129999283869D+01 0.383140625873968D+01
-.154460821677D-04 0.000000000000D+00 0.000000000000D+00 0.113888241420D-06 0.000000000000D+00  7 -2 1 -24 -13 13 23 21 2 0.50639629D-01 0.30772399D-01 0.60828328D+05 0.60828328D+05 0.60828328D+05 0.11398813D+01  1  2  8  2  7  2        1 -.124203632219D-02 0.100000000000D+01
0.223985412112D-04 0.000000000000D+00 0.000000000000D+00 0.113888241420D-06 0.817077562837D-08  7 -2 1 -24 -13 13 23 21 2 0.52066921D-01 0.31180233D-01 0.63267291D+05 0.63267291D+05 0.63267291D+05 0.11384122D+01  1  2  1  2  7  2        1 0.167229071028D-02 0.100000000000D+01
  </mgrwgt>
  </event>
  <event>
  8     66 0.26562228E-05 0.67006080E+03 0.75467711E-02 0.84684954E-01
       -2 -1    0    0    0  501 0.00000000E+00 0.00000000E+00 0.40068645E+03 0.40068658E+03 0.32000000E+00 0.0000E+00 0.9000E+01
        1 -1    0    0  501    0 0.00000000E+00 0.00000000E+00 -.12659429E+04 0.12659429E+04 0.32000000E+00 0.0000E+00 0.9000E+01
       25  2    1    2    0    0 0.97043674E+02 0.62914396E+03 -.17773361E+03 0.72620703E+03 0.30091164E+03 0.0000E+00 0.0000E+00
       23  2    3    3    0    0 0.10962026E+03 0.58576993E+03 -.15438448E+03 0.62180439E+03 0.87539273E+02 0.0000E+00 0.0000E+00
      -24  1    1    2    0    0 -.97043674E+02 -.62914396E+03 -.68752282E+03 0.94042248E+03 0.80419002E+02 0.0000E+00 0.9000E+01
      -13  1    4    4    0    0 0.17545758E+02 0.16854331E+03 -.82734909E+02 0.18857300E+03 0.10565837E+00 0.0000E+00 0.9000E+01
       13  1    4    4    0    0 0.92074498E+02 0.41722662E+03 -.71649571E+02 0.43323139E+03 0.10565837E+00 0.0000E+00 0.9000E+01
       23  1    3    3    0    0 -.12576582E+02 0.43374028E+02 -.23349129E+02 0.10440263E+03 0.91188000E+02 0.0000E+00 0.9000E+01
#aMCatNLO 1  0  0  2  2 0.10012478D+04 0.00000000D+00  -5  7  0 0.00000000D+00 0.00000000D+00 0.00000000D+00 0.00000000D+00 0.00000000D+00
  <mgrwgt>
 0.1612039900D-02    3    2    0
 0.712212260807230D+03 0.000000000000000D+00 0.000000000000000D+00 0.712212260807230D+03
 0.712212260807230D+03 0.000000000000000D+00 0.000000000000000D+00 -.712212260807230D+03
 0.682698376950440D+03 -.970436741056237D+02 -.629143958017868D+03 -.233174319645380D+03
 0.170380251682163D+03 0.175456495910201D+02 0.168542946761946D+03 0.177441663795780D+02
 0.463374201441554D+03 0.920746068136251D+02 0.417226983521715D+03 0.179330871751308D+03
 0.107971691540304D+03 -.125765822990215D+02 0.433740277342070D+02 0.360992815144944D+02
 0.000000000000000D+00 -.000000000000000D+00 -.000000000000000D+00 0.000000000000000D+00
 0.267600631929767D+04 0.000000000000000D+00 0.000000000000000D+00 0.267600631929767D+04
 0.100937316013018D+04 0.000000000000000D+00 0.000000000000000D+00 -.100937316013018D+04
 0.609710371895496D+03 0.283595330388532D+03 -.480086395227262D+03 -.233174319645380D+03
 0.262943590828796D+03 0.145167778568589D+03 0.218519547370244D+03 0.177441663795780D+02
 0.733598879542445D+03 0.444605988513800D+03 0.555277650802293D+03 0.179330871751308D+03
 0.134862436304281D+03 0.589426957641354D+02 0.713808508783693D+02 0.360992815144944D+02
 0.194426420085683D+04 -.932311793235056D+03 -.365091653823644D+03 0.166663315916749D+04
0.617691829846D-03 0.000000000000D+00 0.000000000000D+00 0.644641395780D-06 0.000000000000D+00  7 -2 1 -24 -13 13 23 21 0 0.61644083D-01 0.19476046D+00 0.44898148D+06 0.44898148D+06 0.44898148D+06 0.10718296D+01  1  2  2  2  7  2        1 0.159897115357D-02 0.100000000000D+01
-.341609212511D-04 0.000000000000D+00 -.237209926860D-05 0.644641395780D-06 0.000000000000D+00  7 -2 1 -24 -13 13 23 21 2 0.61644083D-01 0.19476046D+00 0.44898148D+06 0.44898148D+06 0.44898148D+06 0.10718296D+01  1  2  3  2  7  2        1 -.101589737732D-03 0.100000000000D+01
0.385554635963D-04 0.000000000000D+00 0.000000000000D+00 0.644641395780D-06 0.000000000000D+00  7 -2 1 -24 -13 13 23 21 2 0.61644083D-01 0.19476046D+00 0.44898148D+06 0.44898148D+06 0.44898148D+06 0.10718296D+01  1  2 15  2  7  2        1 0.114658483772D-03 0.100000000000D+01
  </mgrwgt>
  </event>
  <event>
  8     66 0.26562228E-05 0.19866972E+03 0.75467711E-02 0.98742902E-01
       -2 -1    0    0    0  501 0.00000000E+00 0.00000000E+00 0.29745206E+03 0.29745223E+03 0.32000000E+00 0.0000E+00 0.9000E+01
        1 -1    0    0  501    0 0.00000000E+00 0.00000000E+00 -.40084219E+03 0.40084231E+03 0.32000000E+00 0.0000E+00 0.9000E+01
       25  2    1    2    0    0 -.11258194E+03 0.15421505E+03 0.13720552E+03 0.38078792E+03 0.29952815E+03 0.0000E+00 0.0000E+00
       23  2    3    3    0    0 -.14174868E+03 0.18227772E+03 0.12999958E+03 0.28076098E+03 0.92784621E+02 0.0000E+00 0.0000E+00
      -24  1    1    2    0    0 0.11258194E+03 -.15421505E+03 -.24059565E+03 0.31750662E+03 0.80419002E+02 0.0000E+00 0.9000E+01
      -13  1    4    4    0    0 -.59727587E+02 0.14249175E+02 0.39693991E+02 0.73116672E+02 0.10565837E+00 0.0000E+00 0.9000E+01
       13  1    4    4    0    0 -.82021089E+02 0.16802854E+03 0.90305588E+02 0.20764431E+03 0.10565837E+00 0.0000E+00 0.9000E+01
       23  1    3    3    0    0 0.29166735E+02 -.28062666E+02 0.72059390E+01 0.10002694E+03 0.91188000E+02 0.0000E+00 0.9000E+01
#aMCatNLO 1  0  0  2  1 0.13412343D+03 0.00000000D+00  -5  7  0 0.00000000D+00 0.00000000D+00 0.00000000D+00 0.00000000D+00 0.00000000D+00
  <mgrwgt>
 0.7433621332D-03    9    2    0
 0.345299055601749D+03 0.000000000000000D+00 0.000000000000000D+00 0.345299055601749D+03
 0.345299055601749D+03 0.000000000000000D+00 0.000000000000000D+00 -.345299055601749D+03
 0.285025291056923D+03 0.112581940673936D+03 -.154215049296591D+03 -.195742754124523D+03
 0.798739673516529D+02 -.597275572932476D+02 0.142489768353833D+02 0.510826410771746D+02
 0.223478346097757D+03 -.820211186420673D+02 0.168028738654979D+03 0.122398734704691D+03
 0.102220506697166D+03 0.291667352613788D+02 -.280626661937707D+02 0.222613783426569D+02
 0.000000000000000D+00 -.000000000000000D+00 0.000000000000000D+00 -.000000000000000D+00
 0.386179776878178D+03 0.000000000000000D+00 0.000000000000000D+00 0.386179776878178D+03
 0.482376044582015D+03 0.000000000000000D+00 0.000000000000000D+00 -.482376044582015D+03
 0.321744932729809D+03 0.116627743318145D+03 -.212450769542505D+03 -.195742754124523D+03
 0.778017731101103D+02 -.586762121502599D+02 -.884198708059213D+00 0.510826410771746D+02
 0.193995025880707D+03 -.792375033524172D+02 0.127961079518823D+03 0.122398734704691D+03
 0.109960112418524D+03 0.305815062508165D+02 -.484270326244628D+02 0.222613783426569D+02
 0.165053977321042D+03 -.929553406628395D+01 0.133800921356205D+03 -.961962677038370D+02
0.233564699203D-04 0.000000000000D+00 0.000000000000D+00 0.134641150533D-05 0.000000000000D+00  7 -2 1 -24 -13 13 23 21 0 0.45761878D-01 0.61668052D-01 0.77098190D+05 0.77098190D+05 0.77098190D+05 0.11311109D+01  1  2  2  2  7  2        1 0.708586890847D-03 0.100000000000D+01
-.122260905724D-05 0.000000000000D+00 -.896949943937D-07 0.134641150533D-05 0.000000000000D+00  7 -2 1 -24 -13 13 23 21 2 0.45761878D-01 0.61668052D-01 0.77098190D+05 0.77098190D+05 0.77098190D+05 0.11311109D+01  1  2  3  2  7  2        1 -.474552125982D-04 0.100000000000D+01
0.150909864756D-05 0.000000000000D+00 0.000000000000D+00 0.134641150533D-05 0.000000000000D+00  7 -2 1 -24 -13 13 23 21 2 0.45761878D-01 0.61668052D-01 0.77098190D+05 0.77098190D+05 0.77098190D+05 0.11311109D+01  1  2 15  2  7  2        1 0.585752221675D-04 0.100000000000D+01
0.136491448155D-04 0.000000000000D+00 0.000000000000D+00 0.134641150533D-05 0.000000000000D+00  7 -2 1 -24 -13 13 23 21 2 0.45761878D-01 0.88665328D-01 0.12473229D+06 0.12473229D+06 0.12473229D+06 0.11139299D+01  1  2 12  2  7  2        1 0.309348429235D-03 0.100000000000D+01
-.205623203357D-04 0.000000000000D+00 0.000000000000D+00 0.134641150533D-05 0.000000000000D+00  7 -2 1 -24 -13 13 23 21 2 0.45761878D-01 0.61668052D-01 0.77098190D+05 0.77098190D+05 0.77098190D+05 0.11311109D+01  1  2  4  2  7  2        1 -.798120443543D-03 0.100000000000D+01
-.251775106914D-04 0.000000000000D+00 -.991776241165D-05 0.134641150533D-05 0.000000000000D+00  7 -2 1 -24 -13 13 23 21 2 0.45761878D-01 0.93660682D-01 0.77098190D+05 0.77098190D+05 0.77098190D+05 0.11311109D+01  1  2  5  2  7  2        1 -.549664555051D-03 0.100000000000D+01
0.276771911025D-04 0.000000000000D+00 0.911053443450D-05 0.134641150533D-05 0.000000000000D+00  7 -2 1 -24 -13 13 23 21 2 0.45761878D-01 0.61668052D-01 0.77098190D+05 0.77098190D+05 0.77098190D+05 0.11311109D+01  1  2  6  2  7  2        1 0.107428206925D-02 0.100000000000D+01
0.605491430912D-06 0.000000000000D+00 0.000000000000D+00 0.134641150533D-05 0.000000000000D+00  7 -2 21 -24 -13 13 23 -1 2 0.45761878D-01 0.88665328D-01 0.12473229D+06 0.12473229D+06 0.12473229D+06 0.11139299D+01  1  2 12  4  7  2        1 0.355175829737D-04 0.100000000000D+01
-.878861739941D-06 0.000000000000D+00 -.487585130207D-06 0.134641150533D-05 0.000000000000D+00  7 -2 21 -24 -13 13 23 -1 2 0.45761878D-01 0.93660682D-01 0.77098190D+05 0.77098190D+05 0.77098190D+05 0.11311109D+01  1  2  5  4  7  2        1 -.477078500516D-04 0.100000000000D+01
  </mgrwgt>
  </event>
  <event>
  8     66 0.26562228E-05 0.28990803E+03 0.75467711E-02 0.10073306E+00
       -2 -1    0    0    0  501 0.00000000E+00 0.00000000E+00 0.18087882E+03 0.18087910E+03 0.32000000E+00 0.0000E+00 0.9000E+01
        1 -1    0    0  501    0 0.00000000E+00 0.00000000E+00 -.10773522E+04 0.10773523E+04 0.32000000E+00 0.0000E+00 0.9000E+01
       25  2    1    2    0    0 -.49614735E+02 0.21542992E+03 -.94714901E+03 0.10175928E+04 0.29921940E+03 0.0000E+00 0.0000E+00
       23  2    3    3    0    0 0.76475768E+02 0.10096104E+03 -.60451569E+03 0.62425483E+03 0.90626704E+02 0.0000E+00 0.0000E+00
      -24  1    1    2    0    0 0.49614735E+02 -.21542992E+03 0.50675609E+02 0.24063853E+03 0.80419002E+02 0.0000E+00 0.9000E+01
      -11  1    4    4    0    0 0.82282724E+02 0.11196909E+03 -.49824293E+03 0.51725578E+03 0.51099893E-03 0.0000E+00 0.9000E+01
       11  1    4    4    0    0 -.58069559E+01 -.11008043E+02 -.10627276E+03 0.10699906E+03 0.51099893E-03 0.0000E+00 0.9000E+01
       23  1    3    3    0    0 -.12609050E+03 0.11446887E+03 -.34263331E+03 0.39333799E+03 0.91188000E+02 0.0000E+00 0.9000E+01
#aMCatNLO 1  0  0  1  1 0.24438843D+02 0.00000000D+00  -5  7  0 0.00000000D+00 0.00000000D+00 0.00000000D+00 0.00000000D+00 0.00000000D+00
  <mgrwgt>
 0.7080871252D-03    4    2    0
 0.441441277581985D+03 0.000000000000000D+00 0.000000000000000D+00 0.441441277581985D+03
 0.441441277581985D+03 0.000000000000000D+00 0.000000000000000D+00 -.441441277581985D+03
 0.394399327383029D+03 0.496147351704164D+02 -.215429916678000D+03 0.316562699223858D+03
 0.231249227931140D+03 0.822827236947987D+02 0.111969086285996D+03 -.184847727917854D+03
 0.445799534259752D+02 -.580695591328931D+01 -.110080432110390D+02 -.428074116847437D+02
 0.212654046423826D+03 -.126090502951926D+03 0.114468873603043D+03 -.889075596212600D+02
 0.000000000000000D+00 0.000000000000000D+00 0.000000000000000D+00 -.000000000000000D+00
 0.445864254371901D+03 0.000000000000000D+00 0.000000000000000D+00 0.445864254371901D+03
 0.476711023253448D+03 0.000000000000000D+00 0.000000000000000D+00 -.476711023253448D+03
 0.393782130016186D+03 0.387631121002375D+02 -.216523967648211D+03 0.316562699223858D+03
 0.228760745234969D+03 0.759493409560147D+02 0.111330560280690D+03 -.184847727917854D+03
 0.447875250659647D+02 -.703736064080837D+01 -.111320915194985D+02 -.428074116847437D+02
 0.215890332706749D+03 -.131990669756806D+03 0.113874024042240D+03 -.889075596212600D+02
 0.393545446014806D+02 0.243155773413621D+02 0.245147484477922D+01 -.308467688815470D+02
0.635974613144D-04 0.000000000000D+00 0.000000000000D+00 0.382397496702D-05 0.000000000000D+00  7 -2 1 -24 -11 11 23 21 0 0.27827536D-01 0.16574652D+00 0.84046668D+05 0.84046668D+05 0.84046668D+05 0.11279691D+01  1  2  2  1  7  1       -2 0.107805938601D-02 0.100000000000D+01
-.277366732710D-05 0.000000000000D+00 -.244230997043D-06 0.382397496702D-05 0.000000000000D+00  7 -2 1 -24 -11 11 23 21 2 0.27827536D-01 0.16574652D+00 0.84046668D+05 0.84046668D+05 0.84046668D+05 0.11279691D+01  1  2  3  1  7  1       -2 -.598207304746D-04 0.100000000000D+01
0.401088444057D-05 0.000000000000D+00 0.000000000000D+00 0.382397496702D-05 0.000000000000D+00  7 -2 1 -24 -11 11 23 21 2 0.27827536D-01 0.16574652D+00 0.84046668D+05 0.84046668D+05 0.84046668D+05 0.11279691D+01  1  2 15  1  7  1       -2 0.865042590870D-04 0.100000000000D+01
-.183914705555D-04 0.000000000000D+00 0.000000000000D+00 0.382397496702D-05 0.000000000000D+00  7 -2 1 -24 -11 11 23 21 2 0.27827536D-01 0.16574652D+00 0.84046668D+05 0.84046668D+05 0.84046668D+05 0.11279691D+01  1  2  4  1  7  1       -2 -.396655789388D-03 0.100000000000D+01
  </mgrwgt>
  </event>
  <event>
  9     66 -.26562228E-05 0.33950957E+03 0.75467711E-02 0.97347926E-01
       -2 -1    0    0    0  502 0.00000000E+00 0.00000000E+00 0.94687280E+03 0.94687285E+03 0.32000000E+00 0.0000E+00 0.9000E+01
        1 -1    0    0  501    0 0.00000000E+00 0.00000000E+00 -.79026682E+03 0.79026689E+03 0.32000000E+00 0.0000E+00 0.9000E+01
       25  2    1    2    0    0 -.20236332E+03 -.25242012E+03 0.79162044E+03 0.90634355E+03 0.30021473E+03 0.0000E+00 0.0000E+00
       23  2    3    3    0    0 0.35584578E+01 -.17098322E+03 0.27270502E+03 0.33483308E+03 0.92180495E+02 0.0000E+00 0.0000E+00
      -24  1    1    2    0    0 0.20244851E+03 0.13746400E+03 -.66402412E+03 0.71223381E+03 0.80419002E+02 0.0000E+00 0.9000E+01
      -11  1    4    4    0    0 0.26083310E+02 -.13511742E+03 0.25325600E+03 0.28822848E+03 0.51099893E-03 0.0000E+00 0.9000E+01
       11  1    4    4    0    0 -.22524852E+02 -.35865805E+02 0.19449018E+02 0.46604605E+02 0.51099893E-03 0.0000E+00 0.9000E+01
       23  1    3    3    0    0 -.20592178E+03 -.81436895E+02 0.51891542E+03 0.57151046E+03 0.91188000E+02 0.0000E+00 0.9000E+01
       21  1    1    2  501  502 -.85188105E-01 0.11495611E+03 0.29009656E+02 0.11856238E+03 0.75000000E+00 0.0000E+00 0.9000E+01
#aMCatNLO 2  0  0  1  2 0.11495615D+03 0.00000000D+00  -5  7  0 0.00000000D+00 0.00000000D+00 0.00000000D+00 0.00000000D+00 0.00000000D+00
  <mgrwgt>
 -.3816415515D-04    2    2    0
 0.804719969852190D+03 0.000000000000000D+00 0.000000000000000D+00 0.804719969852190D+03
 0.804719969852190D+03 0.000000000000000D+00 0.000000000000000D+00 -.804719969852190D+03
 0.778729043767930D+03 0.202407654423875D+03 0.192595354975737D+03 -.722419461480475D+03
 0.260134442940438D+03 0.260693216105089D+02 -.116240829605780D+03 0.231253947873890D+03
 0.427667158566915D+02 -.225271777329222D+02 -.327278074117102D+02 0.158243126415759D+02
 0.527809737139320D+03 -.205949798301462D+03 -.436267179582470D+02 0.475341200965009D+03
 0.000000000000000D+00 -.000000000000000D+00 0.000000000000000D+00 0.000000000000000D+00
 0.874950335151841D+03 0.000000000000000D+00 0.000000000000000D+00 0.874950335151841D+03
 0.855225877855451D+03 0.000000000000000D+00 0.000000000000000D+00 -.855225877855451D+03
 0.766967304169422D+03 0.202448509452171D+03 0.137464004035222D+03 -.722419461480475D+03
 0.269101178556561D+03 0.260833100865253D+02 -.135117418670578D+03 0.231253947873890D+03
 0.452120977722042D+02 -.225248523234554D+02 -.358658046360533D+02 0.158243126415759D+02
 0.532259575521956D+03 -.205921779110097D+03 -.814368954718239D+02 0.475341200965009D+03
 0.116636056987150D+03 -.851881051442411D-01 0.114956114743233D+03 0.197244572963898D+02
-.985600169902D-03 0.000000000000D+00 0.000000000000D+00 0.306317268273D-04 0.000000000000D+00  7 -2 1 -24 -11 11 23 21 2 0.14956322D+00 0.11439940D+00 0.15680972D+06 0.15680972D+06 0.15680972D+06 0.11060335D+01  1  2 13  1  7  1       -2 -.100242279808D-02 0.100000000000D+01
0.970098259378D-03 0.000000000000D+00 0.000000000000D+00 0.306317268273D-04 0.151651705800D-07  7 -2 1 -24 -11 11 23 21 2 0.14567254D+00 0.12157935D+00 0.15680972D+06 0.15680972D+06 0.15680972D+06 0.11060335D+01  1  2  1  1  7  1       -2 0.964258642930D-03 0.100000000000D+01
  </mgrwgt>
  </event>
  <event>
  8     66 0.26562228E-05 0.13973064E+03 0.75467711E-02 0.11136034E+00
       -2 -1    0    0    0  501 0.00000000E+00 0.00000000E+00 0.16978017E+03 0.16978048E+03 0.32000000E+00 0.0000E+00 0.9000E+01
        1 -1    0    0  501    0 0.00000000E+00 0.00000000E+00 -.70694255E+03 0.70694262E+03 0.32000000E+00 0.0000E+00 0.9000E+01
       25  2    1    2    0    0 0.45698139E+02 -.19535650E+02 0.25836036E+02 0.30584273E+03 0.30066978E+03 0.0000E+00 0.0000E+00
       23  2    3    3    0    0 0.19294240E+02 -.44352291E+02 -.10192189E+03 0.14475155E+03 0.90694792E+02 0.0000E+00 0.0000E+00
      -24  1    1    2    0    0 -.45698139E+02 0.19535650E+02 -.56299841E+03 0.57088036E+03 0.80419002E+02 0.0000E+00 0.9000E+01
      -11  1    4    4    0    0 0.44988444E+02 -.14179382E+02 -.15458691E+02 0.49638555E+02 0.51099893E-03 0.0000E+00 0.9000E+01
       11  1    4    4    0    0 -.25694204E+02 -.30172909E+02 -.86463199E+02 0.95112993E+02 0.51099893E-03 0.0000E+00 0.9000E+01
       23  1    3    3    0    0 0.26403899E+02 0.24816642E+02 0.12775793E+03 0.16109119E+03 0.91188000E+02 0.0000E+00 0.9000E+01
#aMCatNLO 1  0  0  2  2 0.75278185D+01 0.00000000D+00  -5  7  0 0.00000000D+00 0.00000000D+00 0.00000000D+00 0.00000000D+00 0.00000000D+00
  <mgrwgt>
 0.6538491865D-03    6    2    0
 0.346446233894222D+03 0.000000000000000D+00 0.000000000000000D+00 0.346446233894222D+03
 0.346446233894222D+03 0.000000000000000D+00 0.000000000000000D+00 -.346446233894222D+03
 0.285877600425787D+03 -.456981387458475D+02 0.195356496485866D+02 -.269794041777813D+03
 0.508238173875515D+02 0.449884440029078D+02 -.141793822950305D+02 0.189220886207572D+02
 0.533170466563539D+02 -.256942039116132D+02 -.301729091727191D+02 -.356666637290216D+02
 0.302874003318751D+03 0.264038986545529D+02 0.248166418191630D+02 0.286538616886078D+03
 0.000000000000000D+00 0.000000000000000D+00 0.000000000000000D+00 0.000000000000000D+00
 0.353388523666806D+03 0.000000000000000D+00 0.000000000000000D+00 0.353388523666806D+03
 0.348513390237421D+03 0.000000000000000D+00 0.000000000000000D+00 -.348513390237421D+03
 0.285894827610492D+03 -.469208834610326D+02 0.166805940089144D+02 -.269794041777813D+03
 0.507760032427432D+02 0.447711711201175D+02 -.146867050106018D+02 0.189220886207572D+02
 0.537314276062992D+02 -.259231288295614D+02 -.307074388827500D+02 -.356666637290216D+02
 0.302531100507735D+03 0.251092299105698D+02 0.217936467057008D+02 0.286538616886078D+03
 0.896855493695848D+01 0.296361125990669D+01 0.691990317873672D+01 0.487513342938489D+01
0.222887017448D-04 0.000000000000D+00 0.000000000000D+00 0.276351670159D-05 0.000000000000D+00  7 -2 1 -24 -11 11 23 21 0 0.26120056D-01 0.10876042D+00 0.19524651D+05 0.19524651D+05 0.19524651D+05 0.11850493D+01  1  2  2  2  7  2        1 0.853095791972D-03 0.100000000000D+01
0.303680958755D-08 0.000000000000D+00 -.855944834499D-07 0.276351670159D-05 0.000000000000D+00  7 -2 1 -24 -11 11 23 21 2 0.26120056D-01 0.10876042D+00 0.19524651D+05 0.19524651D+05 0.19524651D+05 0.11850493D+01  1  2  3  2  7  2        1 0.163231291307D-06 0.100000000000D+01
0.137526116276D-05 0.000000000000D+00 0.000000000000D+00 0.276351670159D-05 0.000000000000D+00  7 -2 1 -24 -11 11 23 21 2 0.26120056D-01 0.10876042D+00 0.19524651D+05 0.19524651D+05 0.19524651D+05 0.11850493D+01  1  2 15  2  7  2        1 0.739215446373D-04 0.100000000000D+01
-.580636570071D-05 0.000000000000D+00 0.000000000000D+00 0.276351670159D-05 0.000000000000D+00  7 -2 1 -24 -11 11 23 21 2 0.26120056D-01 0.10876042D+00 0.19524651D+05 0.19524651D+05 0.19524651D+05 0.11850493D+01  1  2  4  2  7  2        1 -.312097464067D-03 0.100000000000D+01
0.742350246371D-06 0.000000000000D+00 0.000000000000D+00 0.276351670159D-05 0.364026200991D-06  7 -2 1 -24 -11 11 23 21 2 0.26643464D-01 0.10940937D+00 0.20517959D+05 0.20517959D+05 0.20517959D+05 0.11829604D+01  1  2 11  2  7  2        1 0.380996096244D-04 0.100000000000D+01
0.587958977362D-08 0.000000000000D+00 0.000000000000D+00 0.276351670159D-05 0.406588199242D-09  7 -2 21 -24 -11 11 23 -1 2 0.26643464D-01 0.10940937D+00 0.20517959D+05 0.20517959D+05 0.20517959D+05 0.11829604D+01  1  2 11  4  7  2        1 0.666473008553D-06 0.100000000000D+01
  </mgrwgt>
  </event>
  <event>
  8     66 0.26562228E-05 0.41393049E+03 0.75467711E-02 0.92571646E-01
       -2 -1    0    0    0  501 0.00000000E+00 0.00000000E+00 0.33240893E+03 0.33240908E+03 0.32000000E+00 0.0000E+00 0.9000E+01
        1 -1    0    0  501    0 0.00000000E+00 0.00000000E+00 -.10933922E+04 0.10933922E+04 0.32000000E+00 0.0000E+00 0.9000E+01
       25  2    1    2    0    0 0.31946089E+03 -.23587840E+03 0.66508392E+02 0.50444171E+03 0.30388188E+03 0.0000E+00 0.0000E+00
       23  2    3    3    0    0 0.16521005E+03 -.14282920E+03 0.15613789E+03 0.28353410E+03 0.91203107E+02 0.0000E+00 0.0000E+00
      -24  1    1    2    0    0 -.31946089E+03 0.23587840E+03 -.82749163E+03 0.92135959E+03 0.80419002E+02 0.0000E+00 0.9000E+01
      -13  1    4    4    0    0 0.34933162E+02 -.14205058E+02 0.73631671E+02 0.82726922E+02 0.10565837E+00 0.0000E+00 0.9000E+01
       13  1    4    4    0    0 0.13027689E+03 -.12862414E+03 0.82506220E+02 0.20080718E+03 0.10565837E+00 0.0000E+00 0.9000E+01
       23  1    3    3    0    0 0.15425083E+03 -.93049199E+02 -.89629498E+02 0.22090761E+03 0.91188000E+02 0.0000E+00 0.9000E+01
#aMCatNLO 1  0  0  1  2 0.32940001D+03 0.00000000D+00  -5  7  0 0.00000000D+00 0.00000000D+00 0.00000000D+00 0.00000000D+00 0.00000000D+00
  <mgrwgt>
 0.1560908047D-02    3    2    0
 0.602871019387728D+03 0.000000000000000D+00 0.000000000000000D+00 0.602871019387728D+03
 0.602871019387728D+03 0.000000000000000D+00 0.000000000000000D+00 -.602871019387728D+03
 0.567259346465390D+03 -.319460886587759D+03 0.235878396631332D+03 -.397016465831287D+03
 0.144296522895928D+03 0.349330340396798D+02 -.142049046106721D+02 0.139281694194318D+03
 0.289528951467998D+03 0.130277017931853D+03 -.128624293145654D+03 0.224300476035436D+03
 0.204657217946139D+03 0.154250834616226D+03 -.930491988750055D+02 0.334342956015340D+02
 0.000000000000000D+00 -.000000000000000D+00 0.000000000000000D+00 -.000000000000000D+00
 0.643450242591998D+03 0.000000000000000D+00 0.000000000000000D+00 0.643450242591998D+03
 0.209230184346843D+04 0.000000000000000D+00 0.000000000000000D+00 -.209230184346843D+04
 0.479560783344485D+03 -.206231692197517D+03 0.152832404809285D+03 -.397016465831287D+03
 0.159574985442371D+03 0.678012652739632D+02 -.383115396263730D+02 0.139281694194318D+03
 0.349620022904666D+03 0.199410502665960D+03 -.179329050331076D+03 0.224300476035436D+03
 0.261171497761912D+03 0.204637150948377D+03 -.130004170042967D+03 0.334342956015340D+02
 0.148582479660700D+04 -.265617226690784D+03 0.194812355191130D+03 -.144885160087643D+04
0.291703007528D-03 0.000000000000D+00 0.000000000000D+00 0.404621697117D-06 0.000000000000D+00  7 -2 1 -24 -13 13 23 21 0 0.51139851D-01 0.16821420D+00 0.17133845D+06 0.17133845D+06 0.17133845D+06 0.11030222D+01  1  2  2  1  7  1       -2 0.153020688361D-02 0.100000000000D+01
-.134200016338D-04 0.000000000000D+00 -.112021635607D-05 0.404621697117D-06 0.000000000000D+00  7 -2 1 -24 -13 13 23 21 2 0.51139851D-01 0.16821420D+00 0.17133845D+06 0.17133845D+06 0.17133845D+06 0.11030222D+01  1  2  3  1  7  1       -2 -.856505793174D-04 0.100000000000D+01
0.182303562924D-04 0.000000000000D+00 0.000000000000D+00 0.404621697117D-06 0.000000000000D+00  7 -2 1 -24 -13 13 23 21 2 0.51139851D-01 0.16821420D+00 0.17133845D+06 0.17133845D+06 0.17133845D+06 0.11030222D+01  1  2 15  1  7  1       -2 0.116351742735D-03 0.100000000000D+01
  </mgrwgt>
  </event>
  <event>
  9     66 0.26562228E-05 0.23713427E+03 0.75467711E-02 0.97912952E-01
       21 -1    0    0  502  501 0.00000000E+00 0.00000000E+00 0.75996932E+02 0.76000633E+02 0.75000000E+00 0.0000E+00 0.9000E+01
        1 -1    0    0  501    0 0.00000000E+00 0.00000000E+00 -.21793452E+04 0.21793452E+04 0.32000000E+00 0.0000E+00 0.9000E+01
       25  2    1    2    0    0 -.29844173E+03 0.15730418E+02 -.13836478E+04 0.14469571E+04 0.29981434E+03 0.0000E+00 0.0000E+00
       23  2    3    3    0    0 -.98481537E+02 0.11451655E+03 -.46771702E+03 0.49986299E+03 0.91055692E+02 0.0000E+00 0.0000E+00
      -24  1    1    2    0    0 0.62549742E+02 -.13964373E+02 -.92581945E+02 0.13836946E+03 0.80419002E+02 0.0000E+00 0.9000E+01
      -11  1    4    4    0    0 -.13767283E+02 0.85469008E+02 -.24282959E+03 0.25779973E+03 0.51099893E-03 0.0000E+00 0.9000E+01
       11  1    4    4    0    0 -.84714254E+02 0.29047542E+02 -.22488743E+03 0.24206326E+03 0.51099893E-03 0.0000E+00 0.9000E+01
       23  1    3    3    0    0 -.19996019E+03 -.98786132E+02 -.91593079E+03 0.94709410E+03 0.91188000E+02 0.0000E+00 0.9000E+01
        2  1    1    2  502    0 0.23589198E+03 -.17660449E+01 -.62711851E+03 0.67001931E+03 0.32000000E+00 0.0000E+00 0.9000E+01
#aMCatNLO 2  0  0  1  2 0.23589860D+03 0.00000000D+00  -5  7  0 0.00000000D+00 0.00000000D+00 0.00000000D+00 0.00000000D+00 0.00000000D+00
  <mgrwgt>
 0.1058153504D-03    1    2    0
 0.263798129997197D+03 0.000000000000000D+00 0.000000000000000D+00 0.263798129997197D+03
 0.263798129997197D+03 0.000000000000000D+00 0.000000000000000D+00 -.263798129997197D+03
 0.184740115794988D+03 0.132497546172015D+03 -.144880494526786D+02 0.994796014820460D+02
 0.887533771077256D+02 0.237135165002330D+02 0.851884012806337D+02 -.760048488381192D+01
 0.601389387838876D+02 -.527707362845097D+02 0.288083918874218D+02 0.142053050078116D+01
 0.193963828307793D+03 -.103440326387738D+03 -.995087437153769D+02 -.932996470990152D+02
 0.000000000000000D+00 0.000000000000000D+00 -.000000000000000D+00 -.000000000000000D+00
 0.402598105607652D+03 0.000000000000000D+00 0.000000000000000D+00 0.402598105607652D+03
 0.411397018238720D+03 0.000000000000000D+00 0.000000000000000D+00 -.411397018238720D+03
 0.143076486434789D+03 0.625497416313641D+02 -.139643734903019D+02 0.994796014820460D+02
 0.869037209091972D+02 -.137672830526017D+02 0.854690075684990D+02 -.760048488381192D+01
 0.895671950493014D+02 -.847142538387564D+02 0.290475423855221D+02 0.142053050078116D+01
 0.258385085639545D+03 -.199960189023572D+03 -.987861315864298D+02 -.932996470990152D+02
 0.236062635813540D+03 0.235891984283566D+03 -.176604487728942D+01 -.879891263106854D+01
0.483152968898D-06 0.000000000000D+00 0.000000000000D+00 0.227660053107D-05 0.273788568685D-10  7 21 1 -24 -11 11 23 2 2 0.11692119D-01 0.33528407D+00 0.14281253D+06 0.14281253D+06 0.14281253D+06 0.11092387D+01  1  2  1  3  7  1       -2 0.105815350441D-03 0.100000000000D+01
  </mgrwgt>
  </event>
  <event>
  8     66 0.26562228E-05 0.29916079E+03 0.75467711E-02 0.96277422E-01
       -2 -1    0    0    0  501 0.00000000E+00 0.00000000E+00 0.48268846E+03 0.48268857E+03 0.32000000E+00 0.0000E+00 0.9000E+01
        1 -1    0    0  501    0 0.00000000E+00 0.00000000E+00 -.41204190E+03 0.41204202E+03 0.32000000E+00 0.0000E+00 0.9000E+01
       25  2    1    2    0    0 0.25923938E+03 0.63373138E+02 0.32541784E+03 0.51711064E+03 0.30047534E+03 0.0000E+00 0.0000E+00
       23  2    3    3    0    0 0.18860573E+03 0.74971579E+02 0.65045345E+02 0.23209709E+03 0.91898320E+02 0.0000E+00 0.0000E+00
      -24  1    1    2    0    0 -.25923938E+03 -.63373138E+02 -.25477128E+03 0.37761995E+03 0.80419002E+02 0.0000E+00 0.9000E+01
      -13  1    4    4    0    0 0.11920269E+03 0.38496637E+02 -.72152419E+01 0.12547248E+03 0.10565837E+00 0.0000E+00 0.9000E+01
       13  1    4    4    0    0 0.69403048E+02 0.36474942E+02 0.72260587E+02 0.10662461E+03 0.10565837E+00 0.0000E+00 0.9000E+01
       23  1    3    3    0    0 0.70633647E+02 -.11598441E+02 0.26037249E+03 0.28501355E+03 0.91188000E+02 0.0000E+00 0.9000E+01
#aMCatNLO 1  0  0  1  2 0.23065147D+03 0.00000000D+00  -5  7  0 0.00000000D+00 0.00000000D+00 0.00000000D+00 0.00000000D+00 0.00000000D+00
  <mgrwgt>
 0.1692536533D-02    3    2    0
 0.445968579863214D+03 0.000000000000000D+00 0.000000000000000D+00 0.445968579863214D+03
 0.445968579863214D+03 0.000000000000000D+00 0.000000000000000D+00 -.445968579863214D+03
 0.398981965538200D+03 -.259239381292520D+03 -.633731378542627D+02 -.285478863413618D+03
 0.126436962232342D+03 0.119202752097290D+03 0.384966394748754D+02 -.171760897795810D+02
 0.101235058867478D+03 0.694029819177672D+02 0.364749396876652D+02 0.640417209294454D+02
 0.265283173088409D+03 0.706336472774626D+02 -.115984413082780D+02 0.238613232263754D+03
 0.000000000000000D+00 0.000000000000000D+00 -.000000000000000D+00 -.000000000000000D+00
 0.491536890639857D+03 0.000000000000000D+00 0.000000000000000D+00 0.491536890639857D+03
 0.891085253243969D+03 0.000000000000000D+00 0.000000000000000D+00 -.891085253243969D+03
 0.439782589825580D+03 -.324013765523730D+03 0.214104800162296D+02 -.285478863413618D+03
 0.119792795678362D+03 0.100187426704637D+03 0.633859240417355D+02 -.171760897795810D+02
 0.101164618935453D+03 0.537724758187174D+02 0.569338120019728D+02 0.640417209294454D+02
 0.260537369450685D+03 0.300266597250153D+02 0.415523119776120D+02 0.238613232263754D+03
 0.461344769993745D+03 0.140027203275361D+03 -.183282528037550D+03 -.399548362604112D+03
0.151989924641D-03 0.000000000000D+00 0.000000000000D+00 0.574219091763D-05 0.000000000000D+00  7 -2 1 -24 -13 13 23 21 0 0.74259781D-01 0.63391079D-01 0.89497176D+05 0.89497176D+05 0.89497176D+05 0.11256982D+01  1  2  2  1  7  1       -2 0.165307606495D-02 0.100000000000D+01
-.680725157942D-05 0.000000000000D+00 -.583681330488D-06 0.574219091763D-05 0.000000000000D+00  7 -2 1 -24 -13 13 23 21 2 0.74259781D-01 0.63391079D-01 0.89497176D+05 0.89497176D+05 0.89497176D+05 0.11256982D+01  1  2  3  1  7  1       -2 -.938196489491D-04 0.100000000000D+01
0.967037608972D-05 0.000000000000D+00 0.000000000000D+00 0.574219091763D-05 0.000000000000D+00  7 -2 1 -24 -13 13 23 21 2 0.74259781D-01 0.63391079D-01 0.89497176D+05 0.89497176D+05 0.89497176D+05 0.11256982D+01  1  2 15  1  7  1       -2 0.133280117439D-03 0.100000000000D+01
  </mgrwgt>
  </event>
  <event>
  8     66 0.26562228E-05 0.20767892E+03 0.75467711E-02 0.10455760E+00
       -2 -1    0    0    0  501 0.00000000E+00 0.00000000E+00 0.73531162E+03 0.73531169E+03 0.32000000E+00 0.0000E+00 0.9000E+01
        1 -1    0    0  501    0 0.00000000E+00 0.00000000E+00 -.78329363E+02 0.78330017E+02 0.32000000E+00 0.0000E+00 0.9000E+01
       25  2    1    2    0    0 -.10839163E+03 0.41899413E+02 0.53519456E+03 0.62708404E+03 0.30544536E+03 0.0000E+00 0.0000E+00
       23  2    3    3    0    0 -.14267530E+03 0.54256913E+02 0.48571453E+03 0.51712222E+03 0.90535753E+02 0.0000E+00 0.0000E+00
      -24  1    1    2    0    0 0.10839163E+03 -.41899413E+02 0.12178769E+03 0.18655767E+03 0.80419002E+02 0.0000E+00 0.9000E+01
      -13  1    4    4    0    0 -.13507640E+03 0.15064204E+02 0.34353382E+03 0.36944290E+03 0.10565837E+00 0.0000E+00 0.9000E+01
       13  1    4    4    0    0 -.75989014E+01 0.39192709E+02 0.14218072E+03 0.14767931E+03 0.10565837E+00 0.0000E+00 0.9000E+01
       23  1    3    3    0    0 0.34283675E+02 -.12357499E+02 0.49480030E+02 0.10996182E+03 0.91188000E+02 0.0000E+00 0.9000E+01
#aMCatNLO 1  0  0  2  2 0.35476087D+02 0.00000000D+00  -5  7  0 0.00000000D+00 0.00000000D+00 0.00000000D+00 0.00000000D+00 0.00000000D+00
  <mgrwgt>
 0.8821218947D-03    4    2    0
 0.239993302990681D+03 0.000000000000000D+00 0.000000000000000D+00 0.239993302990681D+03
 0.239993302990681D+03 0.000000000000000D+00 0.000000000000000D+00 -.239993302990681D+03
 0.149543612085734D+03 0.108392018226905D+03 -.418995650517759D+02 -.489047318206335D+02
 0.156043064551068D+03 -.135076586465263D+03 0.150641791503994D+02 0.766604480152960D+02
 0.557260425680251D+02 -.759872447355382D+01 0.391927403594103D+02 0.388790471821033D+02
 0.118673886776534D+03 0.342832927119114D+02 -.123573544580338D+02 -.666347633767658D+02
 0.000000000000000D+00 0.000000000000000D+00 -.000000000000000D+00 0.000000000000000D+00
 0.326944169174824D+03 0.000000000000000D+00 0.000000000000000D+00 0.326944169174824D+03
 0.244293948923391D+03 0.000000000000000D+00 0.000000000000000D+00 -.244293948923391D+03
 0.141984571706609D+03 0.100533100868699D+03 -.345517797459773D+02 -.489047318206335D+02
 0.164521729562108D+03 -.143718262862082D+03 0.231438140354400D+02 0.766604480152960D+02
 0.582666424495037D+02 -.106717004010920D+02 0.420658545984676D+02 0.388790471821033D+02
 0.116522905736757D+03 0.279429377889933D+02 -.642936659243824D+01 -.666347633767658D+02
 0.899422686432374D+02 0.259139246054822D+02 -.242285222954920D+02 0.826502202514338D+02
0.262304804039D-04 0.000000000000D+00 0.000000000000D+00 0.121729716419D-07 0.000000000000D+00  7 -2 1 -24 -13 13 23 21 0 0.11312492D+00 0.12050727D-01 0.43130535D+05 0.43130535D+05 0.43130535D+05 0.11529842D+01  1  2  2  2  7  2        1 0.944521880894D-03 0.100000000000D+01
-.142019290852D-05 0.000000000000D+00 -.100731951395D-06 0.121729716419D-07 0.000000000000D+00  7 -2 1 -24 -13 13 23 21 2 0.11312492D+00 0.12050727D-01 0.43130535D+05 0.43130535D+05 0.43130535D+05 0.11529842D+01  1  2  3  2  7  2        1 -.679829275874D-04 0.100000000000D+01
0.171073906297D-05 0.000000000000D+00 0.000000000000D+00 0.121729716419D-07 0.000000000000D+00  7 -2 1 -24 -13 13 23 21 2 0.11312492D+00 0.12050727D-01 0.43130535D+05 0.43130535D+05 0.43130535D+05 0.11529842D+01  1  2 15  2  7  2        1 0.818910227907D-04 0.100000000000D+01
-.159410898962D-05 0.000000000000D+00 0.000000000000D+00 0.121729716419D-07 0.000000000000D+00  7 -2 1 -24 -13 13 23 21 2 0.11312492D+00 0.12050727D-01 0.43130535D+05 0.43130535D+05 0.43130535D+05 0.11529842D+01  1  2  4  2  7  2        1 -.763080813580D-04 0.100000000000D+01
  </mgrwgt>
  </event>
  <event>
  8     66 0.26562228E-05 0.62006419E+02 0.75467711E-02 0.10414253E+00
       -2 -1    0    0    0  501 0.00000000E+00 0.00000000E+00 0.24445039E+03 0.24445060E+03 0.32000000E+00 0.0000E+00 0.9000E+01
        1 -1    0    0  501    0 0.00000000E+00 0.00000000E+00 -.33014987E+03 0.33015003E+03 0.32000000E+00 0.0000E+00 0.9000E+01
       25  2    1    2    0    0 -.40927084E+02 -.95862176E+01 -.24448168E+03 0.39171835E+03 0.30315846E+03 0.0000E+00 0.0000E+00
       23  2    3    3    0    0 0.33167042E+02 0.10552710E+03 -.97010105E+02 0.17080178E+03 0.86754062E+02 0.0000E+00 0.0000E+00
      -24  1    1    2    0    0 0.40927084E+02 0.95862176E+01 0.15878221E+03 0.18288228E+03 0.80419002E+02 0.0000E+00 0.9000E+01
      -11  1    4    4    0    0 0.52225760E+02 0.56905892E+02 -.23700403E+02 0.80793067E+02 0.51099893E-03 0.0000E+00 0.9000E+01
       11  1    4    4    0    0 -.19058718E+02 0.48621205E+02 -.73309703E+02 0.90008715E+02 0.51099893E-03 0.0000E+00 0.9000E+01
       23  1    3    3    0    0 -.74094126E+02 -.11511331E+03 -.14747158E+03 0.22091657E+03 0.91188000E+02 0.0000E+00 0.9000E+01
#aMCatNLO 1  0  0  2  1 0.78119062D+02 0.00000000D+00  -5  7  0 0.00000000D+00 0.00000000D+00 0.00000000D+00 0.00000000D+00 0.00000000D+00
  <mgrwgt>
 0.7694741063D-03    9    2    0
 0.284086907414483D+03 0.000000000000000D+00 0.000000000000000D+00 0.284086907414483D+03
 0.284086907414483D+03 0.000000000000000D+00 0.000000000000000D+00 -.284086907414483D+03
 0.208900550950388D+03 0.409270841865967D+02 0.958621760614846D+01 0.188162967783239D+03
 0.781321377730297D+02 0.522257595759381D+02 0.569058918978018D+02 -.117822093435698D+02
 0.799692982920859D+02 -.190587180150898D+02 0.486212046142249D+02 -.605626320333882D+02
 0.201171827813462D+03 -.740941257474450D+02 -.115113314118175D+03 -.115818126406281D+03
 0.000000000000000D+00 0.000000000000000D+00 0.000000000000000D+00 -.000000000000000D+00
 0.305149272629582D+03 0.000000000000000D+00 0.000000000000000D+00 0.305149272629582D+03
 0.369721277683490D+03 0.000000000000000D+00 0.000000000000000D+00 -.369721277683490D+03
 0.206746804296274D+03 0.257413926135410D+02 -.144604077975303D+02 0.188162967783239D+03
 0.684177167742894D+02 0.468715551929676D+02 0.484274800643578D+02 -.117822093435698D+02
 0.764685283190770D+02 -.247741798249370D+02 0.395707396756188D+02 -.605626320333882D+02
 0.221885975363611D+03 -.895505583110757D+02 -.139588659356605D+03 -.115818126406281D+03
 0.101351525559820D+03 0.417117903295040D+02 0.660508474141585D+02 -.645720050539081D+02
0.129159044329D-04 0.000000000000D+00 0.000000000000D+00 0.776524448160D-08 0.000000000000D+00  7 -2 1 -24 -11 11 23 21 0 0.37607781D-01 0.50792316D-01 0.36996953D+05 0.36996953D+05 0.36996953D+05 0.11589817D+01  1  2  2  2  7  2        1 0.733588646521D-03 0.100000000000D+01
-.584863007002D-06 0.000000000000D+00 -.496004738580D-07 0.776524448160D-08 0.000000000000D+00  7 -2 1 -24 -11 11 23 21 2 0.37607781D-01 0.50792316D-01 0.36996953D+05 0.36996953D+05 0.36996953D+05 0.11589817D+01  1  2  3  2  7  2        1 -.446205691948D-04 0.100000000000D+01
0.800397385729D-06 0.000000000000D+00 0.000000000000D+00 0.776524448160D-08 0.000000000000D+00  7 -2 1 -24 -11 11 23 21 2 0.37607781D-01 0.50792316D-01 0.36996953D+05 0.36996953D+05 0.36996953D+05 0.11589817D+01  1  2 15  2  7  2        1 0.610641919659D-04 0.100000000000D+01
0.133716255424D-04 0.000000000000D+00 0.000000000000D+00 0.776524448160D-08 0.000000000000D+00  7 -2 1 -24 -11 11 23 21 2 0.37607781D-01 0.67560773D-01 0.54552374D+05 0.54552374D+05 0.54552374D+05 0.11439815D+01  1  2 12  2  7  2        1 0.680490335927D-03 0.100000000000D+01
-.167866424731D-04 0.000000000000D+00 0.000000000000D+00 0.776524448160D-08 0.000000000000D+00  7 -2 1 -24 -11 11 23 21 2 0.37607781D-01 0.50792316D-01 0.36996953D+05 0.36996953D+05 0.36996953D+05 0.11589817D+01  1  2  4  2  7  2        1 -.128069228700D-02 0.100000000000D+01
-.209329240716D-04 0.000000000000D+00 -.670931969245D-05 0.776524448160D-08 0.000000000000D+00  7 -2 1 -24 -11 11 23 21 2 0.37607781D-01 0.69840174D-01 0.36996953D+05 0.36996953D+05 0.36996953D+05 0.11589817D+01  1  2  5  2  7  2        1 -.104995944357D-02 0.100000000000D+01
0.222577656421D-04 0.000000000000D+00 0.638289952524D-05 0.776524448160D-08 0.000000000000D+00  7 -2 1 -24 -11 11 23 21 2 0.37607781D-01 0.50792316D-01 0.36996953D+05 0.36996953D+05 0.36996953D+05 0.11589817D+01  1  2  6  2  7  2        1 0.169809709294D-02 0.100000000000D+01
0.498399091263D-06 0.000000000000D+00 0.000000000000D+00 0.776524448160D-08 0.000000000000D+00  7 -2 21 -24 -11 11 23 -1 2 0.37607781D-01 0.67560773D-01 0.54552374D+05 0.54552374D+05 0.54552374D+05 0.11439815D+01  1  2 12  4  7  2        1 0.885467433072D-04 0.100000000000D+01
-.679922820953D-06 0.000000000000D+00 -.270769574990D-06 0.776524448160D-08 0.000000000000D+00  7 -2 21 -24 -11 11 23 -1 2 0.37607781D-01 0.69840174D-01 0.36996953D+05 0.36996953D+05 0.36996953D+05 0.11589817D+01  1  2  5  4  7  2        1 -.117040604609D-03 0.100000000000D+01
  </mgrwgt>
  </event>
  <event>
  8     66 0.26562228E-05 0.34302330E+03 0.75467711E-02 0.85105661E-01
       -2 -1    0    0    0  501 0.00000000E+00 0.00000000E+00 0.13829487E+04 0.13829487E+04 0.32000000E+00 0.0000E+00 0.9000E+01
        1 -1    0    0  501    0 0.00000000E+00 0.00000000E+00 -.38756423E+03 0.38756436E+03 0.32000000E+00 0.0000E+00 0.9000E+01
       25  2    1    2    0    0 0.24759322E+03 0.12102370E+03 0.12938001E+04 0.13564258E+04 0.30003855E+03 0.0000E+00 0.0000E+00
       23  2    3    3    0    0 0.58949089E+02 0.15390610E+03 0.48560855E+03 0.52086810E+03 0.91245951E+02 0.0000E+00 0.0000E+00
      -24  1    1    2    0    0 -.24759322E+03 -.12102370E+03 -.29841566E+03 0.41408726E+03 0.80419002E+02 0.0000E+00 0.9000E+01
      -11  1    4    4    0    0 -.22560827E+02 0.49641750E+02 0.17328647E+03 0.18166314E+03 0.51099893E-03 0.0000E+00 0.9000E+01
       11  1    4    4    0    0 0.81509916E+02 0.10426435E+03 0.31232208E+03 0.33920495E+03 0.51099893E-03 0.0000E+00 0.9000E+01
       23  1    3    3    0    0 0.18864413E+03 -.32882401E+02 0.80819156E+03 0.83555772E+03 0.91188000E+02 0.0000E+00 0.9000E+01
#aMCatNLO 1  0  0  1  1 0.12170524D+04 0.00000000D+00  -5  7  0 0.00000000D+00 0.00000000D+00 0.00000000D+00 0.00000000D+00 0.00000000D+00
  <mgrwgt>
 0.1428345090D-02    3    2    0
 0.732107636633116D+03 0.000000000000000D+00 0.000000000000000D+00 0.732107636633116D+03
 0.732107636633116D+03 0.000000000000000D+00 0.000000000000000D+00 -.732107636633116D+03
 0.703574975218416D+03 -.247593223957362D+03 -.121023698852940D+03 -.642340555753392D+03
 0.101863644695070D+03 -.225608271308290D+02 0.496417502437284D+02 0.860401523852416D+02
 0.197844043524329D+03 0.815099161283458D+02 0.104264350072226D+03 0.147062382800031D+03
 0.460932609828417D+03 0.188644134959845D+03 -.328824014630152D+02 0.409238020568120D+03
 0.000000000000000D+00 0.000000000000000D+00 -.000000000000000D+00 -.000000000000000D+00
 0.115584800512769D+04 0.000000000000000D+00 0.000000000000000D+00 0.115584800512769D+04
 0.276847491018407D+04 0.000000000000000D+00 0.000000000000000D+00 -.276847491018407D+04
 0.111192512777051D+04 -.901472514093778D+03 -.682362849293196D+02 -.642340555753392D+03
 0.154469559915769D+03 -.114883032782806D+03 0.570948850311533D+02 0.860401523852416D+02
 0.196707477073268D+03 -.605936661220014D+02 0.115736315509017D+03 0.147062382800031D+03
 0.440878661702109D+03 -.136156570418576D+03 -.666137024803734D+01 0.409238020568120D+03
 0.202034208885011D+04 0.121310578341716D+04 -.979335453628136D+02 -.161262690505638D+04
0.180006299050D-02 0.000000000000D+00 0.000000000000D+00 0.395589367304D-04 0.000000000000D+00  7 -2 1 -24 -11 11 23 21 0 0.21276135D+00 0.59625279D-01 0.11766498D+06 0.11766498D+06 0.11766498D+06 0.11159703D+01  1  2  2  1  7  1       -2 0.135192057438D-02 0.100000000000D+01
-.301186343785D-04 0.000000000000D+00 -.691271585099D-05 0.395589367304D-04 0.000000000000D+00  7 -2 1 -24 -11 11 23 21 2 0.21276135D+00 0.59625279D-01 0.11766498D+06 0.11766498D+06 0.11766498D+06 0.11159703D+01  1  2  3  1  7  1       -2 -.281711151020D-04 0.100000000000D+01
0.111826512890D-03 0.000000000000D+00 0.000000000000D+00 0.395589367304D-04 0.000000000000D+00  7 -2 1 -24 -11 11 23 21 2 0.21276135D+00 0.59625279D-01 0.11766498D+06 0.11766498D+06 0.11766498D+06 0.11159703D+01  1  2 15  1  7  1       -2 0.104595630947D-03 0.100000000000D+01
  </mgrwgt>
  </event>
  <event>
  7     66 0.26562228E-05 0.13980300E+03 0.75467711E-02 0.10127653E+00
       -2 -1    0    0    0  501 0.00000000E+00 0.00000000E+00 0.67523987E+03 0.67523995E+03 0.32000000E+00 0.0000E+00 0.9000E+01
        1 -1    0    0  501    0 0.00000000E+00 0.00000000E+00 -.61019114E+02 0.61019953E+02 0.32000000E+00 0.0000E+00 0.9000E+01
       25  2    1    2    0    0 0.41149070E+02 -.57791408E+01 0.53984868E+03 0.61910587E+03 0.30021466E+03 0.0000E+00 0.0000E+00
      -24  1    1    2    0    0 -.41149070E+02 0.57791408E+01 0.74372084E+02 0.11715403E+03 0.80419002E+02 0.0000E+00 0.9000E+01
      -13  1    3    3    0    0 0.30136973E+02 0.24813100E+02 0.32841609E+03 0.33072808E+03 0.10565837E+00 0.0000E+00 0.9000E+01
       13  1    3    3    0    0 0.48281578E+02 -.10391332E+02 -.50840342E+01 0.49648254E+02 0.10565837E+00 0.0000E+00 0.9000E+01
       23  1    3    3    0    0 -.37269481E+02 -.20200908E+02 0.21651663E+03 0.23872954E+03 0.91188000E+02 0.0000E+00 0.9000E+01
#aMCatNLO 1  0  0  1  1 0.25056697D+03 0.00000000D+00  -5  7  0 0.00000000D+00 0.00000000D+00 0.00000000D+00 0.00000000D+00 0.00000000D+00
  <mgrwgt>
 0.1729924930D-02    5    2    0
 0.202984914457593D+03 0.000000000000000D+00 0.000000000000000D+00 0.202984914457593D+03
 0.202984914457593D+03 0.000000000000000D+00 0.000000000000000D+00 -.202984914457593D+03
 0.999457591128803D+02 -.411491398204587D+02 0.577915057948214D+01 -.423708451756084D+02
 0.102879849720187D+03 0.301767888845513D+02 0.248201006881672D+02 0.951713585743881D+02
 0.977290277668629D+02 0.483187153862219D+02 -.103682582126778D+02 -.843134854772164D+02
 0.105415192315256D+03 -.373463644503145D+02 -.202309930549715D+02 0.315129720784367D+02
 0.000000000000000D+00 0.000000000000000D+00 -.000000000000000D+00 0.000000000000000D+00
 0.556898232537472D+03 0.000000000000000D+00 0.000000000000000D+00 0.556898232537472D+03
 0.287836733913457D+03 0.000000000000000D+00 0.000000000000000D+00 -.287836733913457D+03
 0.142917454440269D+03 -.110047218077447D+03 0.724597142109481D+01 -.423708451756084D+02
 0.102602742422625D+03 -.281167480689405D+02 0.260611538074685D+02 0.951713585743881D+02
 0.848927871026566D+02 -.348942759365265D+01 -.926527731958707D+01 -.843134854772164D+02
 0.146656515642583D+03 -.108856808568897D+03 -.187085556738465D+02 0.315129720784367D+02
 0.367665466842796D+03 0.250510202308937D+03 -.533329223512971D+01 0.269061498624015D+03
0.273664104193D-04 0.000000000000D+00 0.000000000000D+00 0.129605466315D-09 0.000000000000D+00  7 -2 1 -24 -13 13 23 21 0 0.10388313D+00 0.93876263D-02 0.19544878D+05 0.19544878D+05 0.19544878D+05 0.11850056D+01  1  2  2  1  7  1       -2 0.167795050715D-02 0.100000000000D+01
-.126331329622D-05 0.000000000000D+00 -.105094221752D-06 0.129605466315D-09 0.000000000000D+00  7 -2 1 -24 -13 13 23 21 2 0.10388313D+00 0.93876263D-02 0.19544878D+05 0.19544878D+05 0.19544878D+05 0.11850056D+01  1  2  3  1  7  1       -2 -.108771012654D-03 0.100000000000D+01
0.174384209739D-05 0.000000000000D+00 0.000000000000D+00 0.129605466315D-09 0.000000000000D+00  7 -2 1 -24 -13 13 23 21 2 0.10388313D+00 0.93876263D-02 0.19544878D+05 0.19544878D+05 0.19544878D+05 0.11850056D+01  1  2 15  1  7  1       -2 0.150144442721D-03 0.100000000000D+01
0.977158825219D-06 0.000000000000D+00 -.807906290539D-05 0.129605466315D-09 0.000000000000D+00  7 -2 1 -24 -13 13 23 21 2 0.33332568D+00 0.93876263D-02 0.19544878D+05 0.19544878D+05 0.19544878D+05 0.11850056D+01  1  2  5  1  7  1       -2 0.214327475156D-05 0.100000000000D+01
0.478120862773D-06 0.000000000000D+00 -.108526265731D-05 0.129605466315D-09 0.000000000000D+00  7 21 1 -24 -13 13 23 2 2 0.33332568D+00 0.93876263D-02 0.19544878D+05 0.19544878D+05 0.19544878D+05 0.11850056D+01  1  2  5  3  7  1       -2 0.845771834984D-05 0.100000000000D+01
  </mgrwgt>
  </event>
  <event>
  8     66 0.26562228E-05 0.17606664E+03 0.75467711E-02 0.98402085E-01
       -2 -1    0    0    0  501 0.00000000E+00 0.00000000E+00 0.13181786E+03 0.13181825E+03 0.32000000E+00 0.0000E+00 0.9000E+01
        1 -1    0    0  501    0 0.00000000E+00 0.00000000E+00 -.88080451E+03 0.88080456E+03 0.32000000E+00 0.0000E+00 0.9000E+01
       25  2    1    2    0    0 -.21788029E+03 0.14988875E+03 -.38905215E+03 0.55879628E+03 0.30158457E+03 0.0000E+00 0.0000E+00
       23  2    3    3    0    0 -.46537683E+02 -.11643871E+02 -.24942504E+03 0.27024463E+03 0.92292863E+02 0.0000E+00 0.0000E+00
      -24  1    1    2    0    0 0.21788029E+03 -.14988875E+03 -.35993450E+03 0.45382653E+03 0.80419002E+02 0.0000E+00 0.9000E+01
      -13  1    4    4    0    0 0.68586299E+01 0.33187102E+02 -.70714602E+02 0.78415500E+02 0.10565837E+00 0.0000E+00 0.9000E+01
       13  1    4    4    0    0 -.53396313E+02 -.44830974E+02 -.17871044E+03 0.19182913E+03 0.10565837E+00 0.0000E+00 0.9000E+01
       23  1    3    3    0    0 -.17134261E+03 0.16153262E+03 -.13962711E+03 0.28855166E+03 0.91188000E+02 0.0000E+00 0.9000E+01
#aMCatNLO 1  0  0  2  1 0.86155083D+02 0.00000000D+00  -5  7  0 0.00000000D+00 0.00000000D+00 0.00000000D+00 0.00000000D+00 0.00000000D+00
  <mgrwgt>
 0.1362556953D-02    9    2    0
 0.340743291460724D+03 0.000000000000000D+00 0.000000000000000D+00 0.340743291460724D+03
 0.340743291460724D+03 0.000000000000000D+00 0.000000000000000D+00 -.340743291460724D+03
 0.278756719907248D+03 0.217880294949402D+03 -.149888751015081D+03 -.360504137421146D+02
 0.387989839176074D+02 0.685870807001220D+01 0.331872046809177D+02 -.188925573207012D+02
 0.886281019112771D+02 -.533963924129020D+02 -.448310743144362D+02 -.547169123900151D+02
 0.275302777185316D+03 -.171342610606513D+03 0.161532620648599D+03 0.109659883452831D+03
 0.000000000000000D+00 0.000000000000000D+00 -.000000000000000D+00 -.000000000000000D+00
 0.376257005055379D+03 0.000000000000000D+00 0.000000000000000D+00 0.376257005055379D+03
 0.400028288409362D+03 0.000000000000000D+00 0.000000000000000D+00 -.400028288409362D+03
 0.253210257342789D+03 0.205539512918642D+03 -.118752241104833D+03 -.360504137421146D+02
 0.426887362379519D+02 0.496832344910617D+01 0.379567548874046D+02 -.188925573207012D+02
 0.865519360097422D+02 -.574602887759792D+02 -.345776277283302D+02 -.547169123900151D+02
 0.304460026096542D+03 -.184792179265510D+03 0.195466663628666D+03 0.109659883452831D+03
 0.893743377777158D+02 0.317446316737411D+02 -.800935496829077D+02 -.237712833539831D+02
0.201276289431D-04 0.000000000000D+00 0.000000000000D+00 0.255651862845D-06 0.000000000000D+00  7 -2 1 -24 -13 13 23 21 0 0.20279705D-01 0.13550842D+00 0.10002833D+06 0.10002833D+06 0.10002833D+06 0.11217119D+01  1  2  2  2  7  2        1 0.819996834930D-03 0.100000000000D+01
-.111065058881D-05 0.000000000000D+00 -.772953948678D-07 0.255651862845D-06 0.000000000000D+00  7 -2 1 -24 -13 13 23 21 2 0.20279705D-01 0.13550842D+00 0.10002833D+06 0.10002833D+06 0.10002833D+06 0.11217119D+01  1  2  3  2  7  2        1 -.569324274173D-04 0.100000000000D+01
0.130469883026D-05 0.000000000000D+00 0.000000000000D+00 0.255651862845D-06 0.000000000000D+00  7 -2 1 -24 -13 13 23 21 2 0.20279705D-01 0.13550842D+00 0.10002833D+06 0.10002833D+06 0.10002833D+06 0.11217119D+01  1  2 15  2  7  2        1 0.668794238292D-04 0.100000000000D+01
0.179126474001D-04 0.000000000000D+00 0.000000000000D+00 0.255651862845D-06 0.000000000000D+00  7 -2 1 -24 -13 13 23 21 2 0.20279705D-01 0.16514674D+00 0.13182493D+06 0.13182493D+06 0.13182493D+06 0.11120059D+01  1  2 12  2  7  2        1 0.639558498338D-03 0.100000000000D+01
-.173377160762D-04 0.000000000000D+00 0.000000000000D+00 0.255651862845D-06 0.000000000000D+00  7 -2 1 -24 -13 13 23 21 2 0.20279705D-01 0.13550842D+00 0.10002833D+06 0.10002833D+06 0.10002833D+06 0.11217119D+01  1  2  4  2  7  2        1 -.888738791511D-03 0.100000000000D+01
-.423502654513D-04 0.000000000000D+00 -.124558537838D-04 0.255651862845D-06 0.000000000000D+00  7 -2 1 -24 -13 13 23 21 2 0.20279705D-01 0.17013346D+00 0.10002833D+06 0.10002833D+06 0.10002833D+06 0.11217119D+01  1  2  5  2  7  2        1 -.146528944515D-02 0.100000000000D+01
0.443471654796D-04 0.000000000000D+00 0.121401933280D-04 0.255651862845D-06 0.000000000000D+00  7 -2 1 -24 -13 13 23 21 2 0.20279705D-01 0.13550842D+00 0.10002833D+06 0.10002833D+06 0.10002833D+06 0.11217119D+01  1  2  6  2  7  2        1 0.227325479793D-02 0.100000000000D+01
0.508269537662D-06 0.000000000000D+00 0.000000000000D+00 0.255651862845D-06 0.000000000000D+00  7 -2 21 -24 -13 13 23 -1 2 0.20279705D-01 0.16514674D+00 0.13182493D+06 0.13182493D+06 0.13182493D+06 0.11120059D+01  1  2 12  4  7  2        1 0.227535529475D-04 0.100000000000D+01
-.115785334086D-05 0.000000000000D+00 -.393071821955D-06 0.255651862845D-06 0.000000000000D+00  7 -2 21 -24 -13 13 23 -1 2 0.20279705D-01 0.17013346D+00 0.10002833D+06 0.10002833D+06 0.10002833D+06 0.11217119D+01  1  2  5  4  7  2        1 -.489254909497D-04 0.100000000000D+01
  </mgrwgt>
  </event>
  <event>
  8     66 0.26562228E-05 0.18059854E+03 0.75467711E-02 0.10770431E+00
       -2 -1    0    0    0  501 0.00000000E+00 0.00000000E+00 0.80910230E+02 0.80910862E+02 0.32000000E+00 0.0000E+00 0.9000E+01
        1 -1    0    0  501    0 0.00000000E+00 0.00000000E+00 -.50615810E+03 0.50615820E+03 0.32000000E+00 0.0000E+00 0.9000E+01
       25  2    1    2    0    0 -.56376089E+01 0.20569776E+02 -.24258761E+03 0.38635313E+03 0.29994182E+03 0.0000E+00 0.0000E+00
       23  2    3    3    0    0 0.92525370E+02 0.76266492E+02 -.95677990E+02 0.17986879E+03 0.93920088E+02 0.0000E+00 0.0000E+00
      -24  1    1    2    0    0 0.56376089E+01 -.20569776E+02 -.18266027E+03 0.20071594E+03 0.80419002E+02 0.0000E+00 0.9000E+01
      -13  1    4    4    0    0 0.24737778E+02 0.57449609E+02 -.18251697E+01 0.62576014E+02 0.10565837E+00 0.0000E+00 0.9000E+01
       13  1    4    4    0    0 0.67787592E+02 0.18816883E+02 -.93852821E+02 0.11729278E+03 0.10565837E+00 0.0000E+00 0.9000E+01
       23  1    3    3    0    0 -.98162979E+02 -.55696716E+02 -.14690962E+03 0.20648434E+03 0.91188000E+02 0.0000E+00 0.9000E+01
#aMCatNLO 1  0  0  1  2 0.25770750D+01 0.00000000D+00  -5  7  0 0.00000000D+00 0.00000000D+00 0.00000000D+00 0.00000000D+00 0.00000000D+00
  <mgrwgt>
 0.1329778479D-02    6    2    0
 0.202369917764519D+03 0.000000000000000D+00 0.000000000000000D+00 0.202369917764519D+03
 0.202369917764519D+03 0.000000000000000D+00 0.000000000000000D+00 -.202369917764519D+03
 0.992198893677685D+02 0.563761469011207D+01 -.205697967005253D+02 -.540598858312388D+02
 0.888479397785562D+02 0.247377432406423D+02 0.574496545401890D+02 0.630994267443608D+02
 0.715230544098095D+02 0.677876206707908D+02 0.188168447086742D+02 -.128962068497361D+02
 0.145148951972903D+03 -.981629786015452D+02 -.556967025483378D+02 0.385666593661418D+01
 0.000000000000000D+00 -.000000000000000D+00 -.000000000000000D+00 -.000000000000000D+00
 0.202856768641865D+03 0.000000000000000D+00 0.000000000000000D+00 0.202856768641865D+03
 0.205813343377699D+03 0.000000000000000D+00 0.000000000000000D+00 -.205813343377699D+03
 0.991177301182869D+02 0.590027945234088D+01 -.199955974086483D+02 -.540598858312388D+02
 0.892479071507149D+02 0.249736011853370D+02 0.579652526877216D+02 0.630994267443608D+02
 0.718130055050758D+02 0.679774451337138D+02 0.192318111901559D+02 -.128962068497361D+02
 0.144569397097443D+03 -.977792954582813D+02 -.548579505692072D+02 0.385666593661418D+01
 0.392207214804298D+01 -.107203031311032D+01 -.234351590002198D+01 -.295657473583389D+01
0.545650559244D-05 0.000000000000D+00 0.000000000000D+00 0.142206326785D-06 0.000000000000D+00  7 -2 1 -24 -13 13 23 21 0 0.12447784D-01 0.77870534D-01 0.32615834D+05 0.32615834D+05 0.32615834D+05 0.11639822D+01  1  2  2  1  7  1       -2 0.110064037676D-02 0.100000000000D+01
-.298364277752D-06 0.000000000000D+00 -.209544182059D-07 0.142206326785D-06 0.000000000000D+00  7 -2 1 -24 -13 13 23 21 2 0.12447784D-01 0.77870534D-01 0.32615834D+05 0.32615834D+05 0.32615834D+05 0.11639822D+01  1  2  3  1  7  1       -2 -.815399295580D-04 0.100000000000D+01
0.338013649279D-06 0.000000000000D+00 0.000000000000D+00 0.142206326785D-06 0.000000000000D+00  7 -2 1 -24 -13 13 23 21 2 0.12447784D-01 0.77870534D-01 0.32615834D+05 0.32615834D+05 0.32615834D+05 0.11639822D+01  1  2 15  1  7  1       -2 0.923757004679D-04 0.100000000000D+01
-.826094138762D-05 0.000000000000D+00 0.000000000000D+00 0.142206326785D-06 0.000000000000D+00  7 -2 1 -24 -13 13 23 21 2 0.12447784D-01 0.77870534D-01 0.32615834D+05 0.32615834D+05 0.32615834D+05 0.11639822D+01  1  2  4  1  7  1       -2 -.225763145610D-02 0.100000000000D+01
0.825949605310D-05 0.000000000000D+00 0.000000000000D+00 0.142206326785D-06 0.154586246260D-06  7 -2 1 -24 -13 13 23 21 2 0.12477730D-01 0.79195540D-01 0.33112016D+05 0.33112016D+05 0.33112016D+05 0.11633797D+01  1  2 11  1  7  1       -2 0.219584126681D-02 0.100000000000D+01
0.733810058604D-07 0.000000000000D+00 0.000000000000D+00 0.142206326785D-06 0.700431475538D-10  7 21 1 -24 -13 13 23 2 2 0.12477730D-01 0.79195540D-01 0.33112016D+05 0.33112016D+05 0.33112016D+05 0.11633797D+01  1  2 11  3  7  1       -2 0.280092520281D-03 0.100000000000D+01
  </mgrwgt>
  </event>
  <event>
  8     66 0.26562228E-05 0.12524010E+03 0.75467711E-02 0.10092886E+00
       -2 -1    0    0    0  501 0.00000000E+00 0.00000000E+00 0.83119146E+02 0.83119762E+02 0.32000000E+00 0.0000E+00 0.9000E+01
        1 -1    0    0  501    0 0.00000000E+00 0.00000000E+00 -.10101112E+04 0.10101113E+04 0.32000000E+00 0.0000E+00 0.9000E+01
       25  2    1    2    0    0 0.96925106E+02 -.62196270E+02 -.26409829E+03 0.41561888E+03 0.29954681E+03 0.0000E+00 0.0000E+00
       23  2    3    3    0    0 -.70858470E+02 -.33143398E+02 -.14706262E+03 0.18976938E+03 0.90915309E+02 0.0000E+00 0.0000E+00
      -24  1    1    2    0    0 -.96925106E+02 0.62196270E+02 -.66289377E+03 0.67761214E+03 0.80419002E+02 0.0000E+00 0.9000E+01
      -11  1    4    4    0    0 0.12699474E+02 -.24950094E+02 -.11400129E+02 0.30228245E+02 0.51099893E-03 0.0000E+00 0.9000E+01
       11  1    4    4    0    0 -.83557944E+02 -.81933035E+01 -.13566249E+03 0.15954113E+03 0.51099893E-03 0.0000E+00 0.9000E+01
       23  1    3    3    0    0 0.16778358E+03 -.29052873E+02 -.11703567E+03 0.22584950E+03 0.91188000E+02 0.0000E+00 0.9000E+01
#aMCatNLO 1  0  0  1  2 0.13195159D+03 0.00000000D+00  -5  7  0 0.00000000D+00 0.00000000D+00 0.00000000D+00 0.00000000D+00 0.00000000D+00
  <mgrwgt>
 0.1121668717D-02    9    2    0
 0.289758425298313D+03 0.000000000000000D+00 0.000000000000000D+00 0.289758425298313D+03
 0.289758425298313D+03 0.000000000000000D+00 0.000000000000000D+00 -.289758425298313D+03
 0.217921796251248D+03 -.969251060936408D+02 0.621962701641819D+02 -.166612847984183D+03
 0.387885628822450D+02 0.126994744943362D+02 -.249500941112677D+02 0.268471369400252D+02
 0.839617664617482D+02 -.835579440983685D+02 -.819330350731738D+01 -.719710405684246D+00
 0.238844725001385D+03 0.167783575697673D+03 -.290528725455968D+02 0.140485421449842D+03
 0.000000000000000D+00 0.000000000000000D+00 0.000000000000000D+00 0.000000000000000D+00
 0.416381282796442D+03 0.000000000000000D+00 0.000000000000000D+00 0.416381282796442D+03
 0.333689392827849D+03 0.000000000000000D+00 0.000000000000000D+00 -.333689392827849D+03
 0.221333298684017D+03 -.120067321497315D+03 0.185798371100860D+02 -.166612847984183D+03
 0.434443765077935D+02 0.836702071386948D+01 -.331155258549239D+02 0.268471369400252D+02
 0.966758658448008D+02 -.930748627295889D+02 -.261299632920152D+02 -.719710405684246D+00
 0.232895684220223D+03 0.142929867019729D+03 -.758949791368897D+02 0.140485421449842D+03
 0.155721450367456D+03 0.618452964933060D+02 0.116560631173743D+03 0.826918899685929D+02
0.174464675764D-04 0.000000000000D+00 0.000000000000D+00 0.296163187652D-05 0.000000000000D+00  7 -2 1 -24 -11 11 23 21 0 0.12787612D-01 0.15540178D+00 0.49634990D+05 0.49634990D+05 0.49634990D+05 0.11475754D+01  1  2  2  1  7  1       -2 0.119293861993D-02 0.100000000000D+01
-.887845343532D-06 0.000000000000D+00 -.669990292539D-07 0.296163187652D-05 0.000000000000D+00  7 -2 1 -24 -11 11 23 21 2 0.12787612D-01 0.15540178D+00 0.49634990D+05 0.49634990D+05 0.49634990D+05 0.11475754D+01  1  2  3  1  7  1       -2 -.799485077116D-04 0.100000000000D+01
0.109843986195D-05 0.000000000000D+00 0.000000000000D+00 0.296163187652D-05 0.000000000000D+00  7 -2 1 -24 -11 11 23 21 2 0.12787612D-01 0.15540178D+00 0.49634990D+05 0.49634990D+05 0.49634990D+05 0.11475754D+01  1  2 15  1  7  1       -2 0.989120778903D-04 0.100000000000D+01
0.481688202893D-05 0.000000000000D+00 0.000000000000D+00 0.296163187652D-05 0.000000000000D+00  7 -2 1 -24 -11 11 23 21 2 0.19008511D-01 0.15540178D+00 0.88278655D+05 0.88278655D+05 0.88278655D+05 0.11261925D+01  1  2 12  1  7  1       -2 0.220232845286D-03 0.100000000000D+01
-.113742532758D-04 0.000000000000D+00 0.000000000000D+00 0.296163187652D-05 0.000000000000D+00  7 -2 1 -24 -11 11 23 21 2 0.12787612D-01 0.15540178D+00 0.49634990D+05 0.49634990D+05 0.49634990D+05 0.11475754D+01  1  2  4  1  7  1       -2 -.102422632766D-02 0.100000000000D+01
-.116501369805D-04 0.000000000000D+00 -.634899935146D-05 0.296163187652D-05 0.000000000000D+00  7 -2 1 -24 -11 11 23 21 2 0.21114769D-01 0.15540178D+00 0.49634990D+05 0.49634990D+05 0.49634990D+05 0.11475754D+01  1  2  5  1  7  1       -2 -.469665359800D-03 0.100000000000D+01
0.137863557229D-04 0.000000000000D+00 0.562651690892D-05 0.296163187652D-05 0.000000000000D+00  7 -2 1 -24 -11 11 23 21 2 0.12787612D-01 0.15540178D+00 0.49634990D+05 0.49634990D+05 0.49634990D+05 0.11475754D+01  1  2  6  1  7  1       -2 0.124143081321D-02 0.100000000000D+01
0.227771667354D-06 0.000000000000D+00 0.000000000000D+00 0.296163187652D-05 0.000000000000D+00  7 21 1 -24 -11 11 23 2 2 0.19008511D-01 0.15540178D+00 0.88278655D+05 0.88278655D+05 0.88278655D+05 0.11261925D+01  1  2 12  3  7  1       -2 0.135348007988D-03 0.100000000000D+01
-.371089951596D-06 0.000000000000D+00 -.358821875180D-06 0.296163187652D-05 0.000000000000D+00  7 21 1 -24 -11 11 23 2 2 0.21114769D-01 0.15540178D+00 0.49634990D+05 0.49634990D+05 0.49634990D+05 0.11475754D+01  1  2  5  3  7  1       -2 -.193353452162D-03 0.100000000000D+01
  </mgrwgt>
  </event>
  <event>
  8     66 0.26562228E-05 0.31606603E+03 0.75467711E-02 0.95052658E-01
       -2 -1    0    0    0  501 0.00000000E+00 0.00000000E+00 0.17346670E+03 0.17346700E+03 0.32000000E+00 0.0000E+00 0.9000E+01
        1 -1    0    0  501    0 0.00000000E+00 0.00000000E+00 -.69901972E+03 0.69901979E+03 0.32000000E+00 0.0000E+00 0.9000E+01
       25  2    1    2    0    0 0.98861165E+02 0.24547865E+03 -.20736525E+03 0.45088986E+03 0.30044636E+03 0.0000E+00 0.0000E+00
       23  2    3    3    0    0 -.58755825E+02 0.63717082E+02 -.73174909E+01 0.12498382E+03 0.89751308E+02 0.0000E+00 0.0000E+00
      -24  1    1    2    0    0 -.98861165E+02 -.24547865E+03 -.31818776E+03 0.42159693E+03 0.80419002E+02 0.0000E+00 0.9000E+01
      -11  1    4    4    0    0 -.21022815E+02 -.33680171E+01 -.36837992E+02 0.42548089E+02 0.51099893E-03 0.0000E+00 0.9000E+01
       11  1    4    4    0    0 -.37733010E+02 0.67085099E+02 0.29520501E+02 0.82435736E+02 0.51099893E-03 0.0000E+00 0.9000E+01
       23  1    3    3    0    0 0.15761699E+03 0.18176157E+03 -.20004776E+03 0.32590604E+03 0.91188000E+02 0.0000E+00 0.9000E+01
#aMCatNLO 1  0  0  1  1 0.26850022D+03 0.00000000D+00  -5  7  0 0.00000000D+00 0.00000000D+00 0.00000000D+00 0.00000000D+00 0.00000000D+00
  <mgrwgt>
 0.1080102500D-02    3    2    0
 0.348219478059463D+03 0.000000000000000D+00 0.000000000000000D+00 0.348219478059463D+03
 0.348219478059463D+03 0.000000000000000D+00 0.000000000000000D+00 -.348219478059463D+03
 0.288055697039305D+03 -.988611653243331D+02 -.245478654666121D+03 -.804709185759372D+02
 0.255045010634357D+02 -.210228147505599D+02 -.336801707976634D+01 -.140419833146474D+02
 0.125551101801594D+03 -.377330103685833D+02 0.670850987430559D+02 0.991911720807504D+02
 0.257327656214591D+03 0.157616990443476D+03 0.181761573002832D+03 -.467827019016581D+01
 0.000000000000000D+00 0.000000000000000D+00 0.000000000000000D+00 -.000000000000000D+00
 0.436886930464764D+03 0.000000000000000D+00 0.000000000000000D+00 0.436886930464764D+03
 0.656207230741764D+03 0.000000000000000D+00 0.000000000000000D+00 -.656207230741764D+03
 0.365148773895554D+03 -.217916374598072D+03 -.270006103761809D+03 -.804709185759372D+02
 0.355345867389537D+02 -.321480009603100D+02 -.565999943067963D+01 -.140419833146474D+02
 0.143588029468712D+03 -.867871994057159D+02 0.569790804354309D+02 0.991911720807504D+02
 0.202133049999686D+03 0.738741611068779D+02 0.164509089921981D+03 -.467827019016581D+01
 0.346689721103622D+03 0.262977413857221D+03 0.541779328350770D+02 -.219320300276999D+03
0.290334185600D-04 0.000000000000D+00 0.000000000000D+00 0.114973122326D-05 0.000000000000D+00  7 -2 1 -24 -11 11 23 21 0 0.26687213D-01 0.10754152D+00 0.99897733D+05 0.99897733D+05 0.99897733D+05 0.11217585D+01  1  2  2  1  7  1       -2 0.106797707009D-02 0.100000000000D+01
-.159456032426D-05 0.000000000000D+00 -.111495971945D-06 0.114973122326D-05 0.000000000000D+00  7 -2 1 -24 -11 11 23 21 2 0.26687213D-01 0.10754152D+00 0.99897733D+05 0.99897733D+05 0.99897733D+05 0.11217585D+01  1  2  3  1  7  1       -2 -.738080028196D-04 0.100000000000D+01
0.185652012040D-05 0.000000000000D+00 0.000000000000D+00 0.114973122326D-05 0.000000000000D+00  7 -2 1 -24 -11 11 23 21 2 0.26687213D-01 0.10754152D+00 0.99897733D+05 0.99897733D+05 0.99897733D+05 0.11217585D+01  1  2 15  1  7  1       -2 0.859334326816D-04 0.100000000000D+01
  </mgrwgt>
  </event>
  <event>
  8     66 0.26562228E-05 0.80874860E+03 0.75467711E-02 0.82146332E-01
       -2 -1    0    0    0  501 0.00000000E+00 0.00000000E+00 0.12521369E+04 0.12521369E+04 0.32000000E+00 0.0000E+00 0.9000E+01
        1 -1    0    0  501    0 0.00000000E+00 0.00000000E+00 -.72585140E+03 0.72585147E+03 0.32000000E+00 0.0000E+00 0.9000E+01
       25  2    1    2    0    0 -.46577942E+03 0.62708325E+03 0.78813774E+03 0.11502096E+04 0.30271629E+03 0.0000E+00 0.0000E+00
       23  2    3    3    0    0 -.44468798E+03 0.53614805E+03 0.61724539E+03 0.93518982E+03 0.91575041E+02 0.0000E+00 0.0000E+00
      -24  1    1    2    0    0 0.46577942E+03 -.62708325E+03 -.26185229E+03 0.82777877E+03 0.80419002E+02 0.0000E+00 0.9000E+01
      -11  1    4    4    0    0 -.17025809E+03 0.14339459E+03 0.21720283E+03 0.31100948E+03 0.51099893E-03 0.0000E+00 0.9000E+01
       11  1    4    4    0    0 -.27442989E+03 0.39275346E+03 0.40004257E+03 0.62418034E+03 0.51099893E-03 0.0000E+00 0.9000E+01
       23  1    3    3    0    0 -.21091435E+02 0.90935193E+02 0.17089234E+03 0.21501977E+03 0.91188000E+02 0.0000E+00 0.9000E+01
#aMCatNLO 1  0  0  1  1 0.14327641D+04 0.00000000D+00  -5  7  0 0.00000000D+00 0.00000000D+00 0.00000000D+00 0.00000000D+00 0.00000000D+00
  <mgrwgt>
 0.1038164546D-02    5    2    0
 0.953344324791403D+03 0.000000000000000D+00 0.000000000000000D+00 0.953344324791403D+03
 0.953344324791403D+03 0.000000000000000D+00 0.000000000000000D+00 -.953344324791403D+03
 0.931009808948711D+03 0.465779417777402D+03 -.627083245732658D+03 -.500128168873424D+03
 0.262687062322961D+03 -.170258090668600D+03 0.143394591630011D+03 0.139479985535604D+03
 0.537101260393550D+03 -.274429892234230D+03 0.392753461481568D+03 0.242715299597893D+03
 0.175890517917584D+03 -.210914348745720D+02 0.909351926210794D+02 0.117932883739926D+03
 0.000000000000000D+00 0.000000000000000D+00 0.000000000000000D+00 0.000000000000000D+00
 0.411431203897368D+04 0.000000000000000D+00 0.000000000000000D+00 0.411431203897368D+04
 0.136815101805852D+04 0.000000000000000D+00 0.000000000000000D+00 -.136815101805852D+04
 0.154816771608168D+04 0.285382745855660D+03 -.143484652985272D+04 -.500128168873424D+03
 0.251309595284611D+03 -.207658916335639D+03 -.240753148143602D+02 0.139479985535604D+03
 0.428752879692883D+03 -.344710003551104D+03 0.780597760555470D+02 0.242715299597893D+03
 0.156780173199754D+03 -.452981263751082D+02 -.174552583548496D+02 0.117932883739926D+03
 0.309745269277327D+04 0.312284300406192D+03 0.139831732696638D+04 0.274616102091516D+04
0.268739549936D-02 0.000000000000D+00 0.000000000000D+00 0.179271292309D-05 0.000000000000D+00  7 -2 1 -24 -11 11 23 21 0 0.19263645D+00 0.11166946D+00 0.65407429D+06 0.65407429D+06 0.65407429D+06 0.10603621D+01  1  2  2  1  7  1       -2 0.102690832153D-02 0.100000000000D+01
-.144388305967D-03 0.000000000000D+00 -.103203063250D-04 0.179271292309D-05 0.000000000000D+00  7 -2 1 -24 -11 11 23 21 2 0.19263645D+00 0.11166946D+00 0.65407429D+06 0.65407429D+06 0.65407429D+06 0.10603621D+01  1  2  3  1  7  1       -2 -.620355290638D-04 0.100000000000D+01
0.170828906158D-03 0.000000000000D+00 0.000000000000D+00 0.179271292309D-05 0.000000000000D+00  7 -2 1 -24 -11 11 23 21 2 0.19263645D+00 0.11166946D+00 0.65407429D+06 0.65407429D+06 0.65407429D+06 0.10603621D+01  1  2 15  1  7  1       -2 0.733955669187D-04 0.100000000000D+01
-.591802310721D-03 0.000000000000D+00 -.837894511303D-03 0.179271292309D-05 0.000000000000D+00  7 -2 1 -24 -11 11 23 21 2 0.84916732D+00 0.11166946D+00 0.65407429D+06 0.65407429D+06 0.65407429D+06 0.10603621D+01  1  2  5  1  7  1       -2 -.103058664374D-06 0.100000000000D+01
-.110169308610D-03 0.000000000000D+00 -.149995907525D-03 0.179271292309D-05 0.000000000000D+00  7 21 1 -24 -11 11 23 2 2 0.84916732D+00 0.11166946D+00 0.65407429D+06 0.65407429D+06 0.65407429D+06 0.10603621D+01  1  2  5  3  7  1       -2 -.754503344695D-09 0.100000000000D+01
  </mgrwgt>
  </event>
  <event>
  8     66 0.26562228E-05 0.32234388E+03 0.75467711E-02 0.94514385E-01
       -2 -1    0    0    0  501 0.00000000E+00 0.00000000E+00 0.13673611E+03 0.13673649E+03 0.32000000E+00 0.0000E+00 0.9000E+01
        1 -1    0    0  501    0 0.00000000E+00 0.00000000E+00 -.10009266E+04 0.10009266E+04 0.32000000E+00 0.0000E+00 0.9000E+01
       25  2    1    2    0    0 0.18863190E+02 0.29289467E+03 -.39322636E+03 0.57693367E+03 0.30345080E+03 0.0000E+00 0.0000E+00
       23  2    3    3    0    0 -.36171365E+02 0.18149917E+03 -.68481729E+02 0.21747285E+03 0.91402264E+02 0.0000E+00 0.0000E+00
      -24  1    1    2    0    0 -.18863190E+02 -.29289467E+03 -.47096411E+03 0.56072945E+03 0.80419002E+02 0.0000E+00 0.9000E+01
      -13  1    4    4    0    0 -.19042540E+02 0.14093755E+03 -.90166520E+02 0.16839247E+03 0.10565837E+00 0.0000E+00 0.9000E+01
       13  1    4    4    0    0 -.17128825E+02 0.40561621E+02 0.21684792E+02 0.49080374E+02 0.10565837E+00 0.0000E+00 0.9000E+01
       23  1    3    3    0    0 0.55034556E+02 0.11139549E+03 -.32474463E+03 0.35946082E+03 0.91188000E+02 0.0000E+00 0.9000E+01
#aMCatNLO 1  0  0  2  2 0.28828187D+03 0.00000000D+00  -5  7  0 0.00000000D+00 0.00000000D+00 0.00000000D+00 0.00000000D+00 0.00000000D+00
  <mgrwgt>
 0.1169961804D-02    6    2    0
 0.369950065325366D+03 0.000000000000000D+00 0.000000000000000D+00 0.369950065325366D+03
 0.369950065325366D+03 0.000000000000000D+00 0.000000000000000D+00 -.369950065325366D+03
 0.312094176508722D+03 -.188631906535985D+02 -.292894671817824D+03 -.692275257060505D+02
 0.153605745194993D+03 -.190425409408688D+02 0.140937690236619D+03 0.580402796529379D+02
 0.100792880130020D+03 -.171288203102468D+02 0.405614857049141D+02 0.906673815497826D+02
 0.173407328816998D+03 0.550345519047140D+02 0.111395495876291D+03 -.794801354966701D+02
 0.000000000000000D+00 0.000000000000000D+00 -.000000000000000D+00 -.000000000000000D+00
 0.527686393818517D+03 0.000000000000000D+00 0.000000000000000D+00 0.527686393818517D+03
 0.556066264177001D+03 0.000000000000000D+00 0.000000000000000D+00 -.556066264177001D+03
 0.242315809468190D+03 -.744093120914723D+02 -.204745059824519D+03 -.692275257060505D+02
 0.215266716840835D+03 -.559997298255993D+02 0.199587363269073D+03 0.580402796529379D+02
 0.125101615867097D+03 -.397611022391038D+02 0.764780685176887D+02 0.906673815497826D+02
 0.211393084444564D+03 0.164815477651730D+02 0.172577667882267D+03 -.794801354966701D+02
 0.289675431374831D+03 0.153688596391002D+03 -.243898039844509D+03 -.283798703584845D+02
0.259032031805D-04 0.000000000000D+00 0.000000000000D+00 0.111468162565D-06 0.000000000000D+00  7 -2 1 -24 -13 13 23 21 0 0.21036358D-01 0.15398874D+00 0.10390558D+06 0.10390558D+06 0.10390558D+06 0.11203592D+01  1  2  2  2  7  2        1 0.800220568839D-03 0.100000000000D+01
-.140586669365D-05 0.000000000000D+00 -.994751206833D-07 0.111468162565D-06 0.000000000000D+00  7 -2 1 -24 -13 13 23 21 2 0.21036358D-01 0.15398874D+00 0.10390558D+06 0.10390558D+06 0.10390558D+06 0.11203592D+01  1  2  3  2  7  2        1 -.545148647258D-04 0.100000000000D+01
0.168751671975D-05 0.000000000000D+00 0.000000000000D+00 0.111468162565D-06 0.000000000000D+00  7 -2 1 -24 -13 13 23 21 2 0.21036358D-01 0.15398874D+00 0.10390558D+06 0.10390558D+06 0.10390558D+06 0.11203592D+01  1  2 15  2  7  2        1 0.654363220319D-04 0.100000000000D+01
-.687426139092D-05 0.000000000000D+00 -.805299778353D-05 0.111468162565D-06 0.000000000000D+00  7 -2 1 -24 -13 13 23 21 2 0.21036358D-01 0.28730393D+00 0.10390558D+06 0.10390558D+06 0.10390558D+06 0.11203592D+01  1  2  5  2  7  2        1 -.687241649793D-04 0.100000000000D+01
0.110283983451D-04 0.000000000000D+00 0.670601175195D-05 0.111468162565D-06 0.000000000000D+00  7 -2 1 -24 -13 13 23 21 2 0.21036358D-01 0.15398874D+00 0.10390558D+06 0.10390558D+06 0.10390558D+06 0.11203592D+01  1  2  6  2  7  2        1 0.427644844736D-03 0.100000000000D+01
-.170669279167D-07 0.000000000000D+00 -.547103101925D-06 0.111468162565D-06 0.000000000000D+00  7 -2 21 -24 -13 13 23 -1 2 0.21036358D-01 0.28730393D+00 0.10390558D+06 0.10390558D+06 0.10390558D+06 0.11203592D+01  1  2  5  4  7  2        1 -.100902004274D-06 0.100000000000D+01
  </mgrwgt>
  </event>
  <event>
  8     66 0.26562228E-05 0.23078433E+03 0.75467711E-02 0.10131951E+00
       -2 -1    0    0    0  501 0.00000000E+00 0.00000000E+00 0.74422453E+02 0.74423141E+02 0.32000000E+00 0.0000E+00 0.9000E+01
        1 -1    0    0  501    0 0.00000000E+00 0.00000000E+00 -.17734874E+04 0.17734875E+04 0.32000000E+00 0.0000E+00 0.9000E+01
       25  2    1    2    0    0 0.19455247E+02 0.16948619E+03 -.37121865E+03 0.50673680E+03 0.29979130E+03 0.0000E+00 0.0000E+00
       23  2    3    3    0    0 -.44094970E+02 0.54124293E+02 -.31863466E+03 0.33813276E+03 0.89061260E+02 0.0000E+00 0.0000E+00
      -24  1    1    2    0    0 -.19455247E+02 -.16948619E+03 -.13278463E+04 0.13411738E+04 0.80419002E+02 0.0000E+00 0.9000E+01
      -13  1    4    4    0    0 -.10892449E+02 -.24832618E+02 -.89216581E+02 0.93246522E+02 0.10565837E+00 0.0000E+00 0.9000E+01
       13  1    4    4    0    0 -.33202521E+02 0.78956910E+02 -.22941808E+03 0.24488623E+03 0.10565837E+00 0.0000E+00 0.9000E+01
       23  1    3    3    0    0 0.63550217E+02 0.11536190E+03 -.52583994E+02 0.16860405E+03 0.91188000E+02 0.0000E+00 0.9000E+01
#aMCatNLO 1  0  0  1  1 0.10967538D+03 0.00000000D+00  -5  7  0 0.00000000D+00 0.00000000D+00 0.00000000D+00 0.00000000D+00 0.00000000D+00
  <mgrwgt>
 0.9768055667D-03    4    2    0
 0.363301454617330D+03 0.000000000000000D+00 0.000000000000000D+00 0.363301454617330D+03
 0.363301454617330D+03 0.000000000000000D+00 0.000000000000000D+00 -.363301454617330D+03
 0.305905862759832D+03 -.194552474881622D+02 -.169486191091942D+03 -.240846642681161D+03
 0.285250834896452D+02 -.108924175940578D+02 -.248327634114934D+02 -.885265431363304D+01
 0.863356051388152D+02 -.332025524173195D+02 0.789570561158829D+02 -.108263806128309D+02
 0.305836357846367D+03 0.635502174995394D+02 0.115361898387553D+03 0.260525677607625D+03
 0.000000000000000D+00 0.000000000000000D+00 0.000000000000000D+00 -.000000000000000D+00
 0.387058005190839D+03 0.000000000000000D+00 0.000000000000000D+00 0.387058005190839D+03
 0.520522263195104D+03 0.000000000000000D+00 0.000000000000000D+00 -.520522263195104D+03
 0.318970326290343D+03 -.646794556789201D+02 -.181890944858971D+03 -.240846642681161D+03
 0.314252932289104D+02 -.152312104066874D+02 -.260228706270759D+02 -.885265431363304D+01
 0.889941558966274D+02 -.458917054912350D+02 0.754764906026048D+02 -.108263806128309D+02
 0.295443863860603D+03 0.200337219057578D+02 0.103425560876282D+03 0.260525677607625D+03
 0.172746629109459D+03 0.105768649671085D+03 0.290117640071604D+02 -.133464258004265D+03
0.426818601399D-04 0.000000000000D+00 0.000000000000D+00 0.149659428032D-05 0.000000000000D+00  7 -2 1 -24 -13 13 23 21 0 0.11449663D-01 0.27284428D+00 0.53261408D+05 0.53261408D+05 0.53261408D+05 0.11448893D+01  1  2  2  1  7  1       -2 0.105907845481D-02 0.100000000000D+01
-.177762761883D-05 0.000000000000D+00 -.163909581329D-06 0.149659428032D-05 0.000000000000D+00  7 -2 1 -24 -13 13 23 21 2 0.11449663D-01 0.27284428D+00 0.53261408D+05 0.53261408D+05 0.53261408D+05 0.11448893D+01  1  2  3  1  7  1       -2 -.578166080449D-04 0.100000000000D+01
0.262753166792D-05 0.000000000000D+00 0.000000000000D+00 0.149659428032D-05 0.000000000000D+00  7 -2 1 -24 -13 13 23 21 2 0.11449663D-01 0.27284428D+00 0.53261408D+05 0.53261408D+05 0.53261408D+05 0.11448893D+01  1  2 15  1  7  1       -2 0.854593880969D-04 0.100000000000D+01
-.337946368860D-05 0.000000000000D+00 0.000000000000D+00 0.149659428032D-05 0.000000000000D+00  7 -2 1 -24 -13 13 23 21 2 0.11449663D-01 0.27284428D+00 0.53261408D+05 0.53261408D+05 0.53261408D+05 0.11448893D+01  1  2  4  1  7  1       -2 -.109915668172D-03 0.100000000000D+01
  </mgrwgt>
  </event>
  <event>
  8     66 0.26562228E-05 0.91583565E+02 0.75467711E-02 0.10318790E+00
       -2 -1    0    0    0  501 0.00000000E+00 0.00000000E+00 0.17413918E+02 0.17416858E+02 0.32000000E+00 0.0000E+00 0.9000E+01
        1 -1    0    0  501    0 0.00000000E+00 0.00000000E+00 -.28303564E+04 0.28303564E+04 0.32000000E+00 0.0000E+00 0.9000E+01
       25  2    1    2    0    0 0.50317887E+02 0.46745276E+02 -.16509728E+04 0.16810009E+04 0.30876502E+03 0.0000E+00 0.0000E+00
       23  2    3    3    0    0 0.10798697E+01 -.82122648E+02 -.10683675E+04 0.10753809E+04 0.91048372E+02 0.0000E+00 0.0000E+00
      -24  1    1    2    0    0 -.50317887E+02 -.46745276E+02 -.11619697E+04 0.11667724E+04 0.80419002E+02 0.0000E+00 0.9000E+01
      -13  1    4    4    0    0 -.14596081E+02 -.57927810E+02 -.27160401E+03 0.27809607E+03 0.10565837E+00 0.0000E+00 0.9000E+01
       13  1    4    4    0    0 0.15675950E+02 -.24194838E+02 -.79676347E+03 0.79728487E+03 0.10565837E+00 0.0000E+00 0.9000E+01
       23  1    3    3    0    0 0.49238017E+02 0.12886792E+03 -.58260528E+03 0.60561992E+03 0.91188000E+02 0.0000E+00 0.9000E+01
#aMCatNLO 1  0  0  2  1 0.12646507D+03 0.00000000D+00  -5  7  0 0.00000000D+00 0.00000000D+00 0.00000000D+00 0.00000000D+00 0.00000000D+00
  <mgrwgt>
 0.1225851588D-02    9    2    0
 0.222017579212446D+03 0.000000000000000D+00 0.000000000000000D+00 0.222017579212446D+03
 0.222017579212446D+03 0.000000000000000D+00 0.000000000000000D+00 -.222017579212446D+03
 0.121950942571249D+03 -.503198708750286D+02 -.467471188183508D+02 -.607242448857861D+02
 0.629402384826054D+02 -.145955292177166D+02 -.579265948554266D+02 0.198230612055071D+02
 0.658418380997970D+02 0.156765956029677D+02 -.241933280914560D+02 -.591952267545286D+02
 0.193302139271241D+03 0.492388044897775D+02 0.128867041765233D+03 0.100096410434808D+03
 0.000000000000000D+00 0.000000000000000D+00 -.000000000000000D+00 -.000000000000000D+00
 0.275635161650346D+03 0.000000000000000D+00 0.000000000000000D+00 0.275635161650346D+03
 0.320118387357682D+03 0.000000000000000D+00 0.000000000000000D+00 -.320118387357682D+03
 0.137428905068625D+03 -.854303484347791D+02 -.378643584833260D+02 -.607242448857861D+02
 0.654267481590025D+02 -.319716910317623D+02 -.535305201887090D+02 0.198230612055071D+02
 0.624417288797532D+02 -.168827426145516D+01 -.198001102267298D+02 -.591952267545286D+02
 0.196395843740560D+03 -.351194855489542D+01 0.142212696092791D+03 0.100096410434808D+03
 0.134060323160088D+03 0.122602262282892D+03 -.310177071940265D+02 -.444832257073356D+02
0.222478575553D-04 0.000000000000D+00 0.000000000000D+00 0.434636035126D-08 0.000000000000D+00  7 -2 1 -24 -13 13 23 21 0 0.26792918D-02 0.43543967D+00 0.32344266D+05 0.32344266D+05 0.32344266D+05 0.11643163D+01  1  2  2  2  7  2        1 0.958919200951D-03 0.100000000000D+01
-.116930163990D-05 0.000000000000D+00 -.854376310079D-07 0.434636035126D-08 0.000000000000D+00  7 -2 1 -24 -13 13 23 21 2 0.26792918D-02 0.43543967D+00 0.32344266D+05 0.32344266D+05 0.32344266D+05 0.11643163D+01  1  2  3  2  7  2        1 -.683222737203D-04 0.100000000000D+01
0.142796996497D-05 0.000000000000D+00 0.000000000000D+00 0.434636035126D-08 0.000000000000D+00  7 -2 1 -24 -13 13 23 21 2 0.26792918D-02 0.43543967D+00 0.32344266D+05 0.32344266D+05 0.32344266D+05 0.11643163D+01  1  2 15  2  7  2        1 0.834362592873D-04 0.100000000000D+01
0.165608883667D-05 0.000000000000D+00 0.000000000000D+00 0.434636035126D-08 0.000000000000D+00  7 -2 1 -24 -13 13 23 21 2 0.26792918D-02 0.66162723D+00 0.62737046D+05 0.62737046D+05 0.62737046D+05 0.11387262D+01  1  2 12  2  7  2        1 0.546564478553D-05 0.100000000000D+01
-.788812431855D-05 0.000000000000D+00 0.000000000000D+00 0.434636035126D-08 0.000000000000D+00  7 -2 1 -24 -13 13 23 21 2 0.26792918D-02 0.43543967D+00 0.32344266D+05 0.32344266D+05 0.32344266D+05 0.11643163D+01  1  2  4  2  7  2        1 -.460902961600D-03 0.100000000000D+01
-.111290724714D-04 0.000000000000D+00 -.575410859925D-05 0.434636035126D-08 0.000000000000D+00  7 -2 1 -24 -13 13 23 21 2 0.26792918D-02 0.65615262D+00 0.32344266D+05 0.32344266D+05 0.32344266D+05 0.11643163D+01  1  2  5  2  7  2        1 -.432255814521D-04 0.100000000000D+01
0.128454067646D-04 0.000000000000D+00 0.530210577789D-05 0.434636035126D-08 0.000000000000D+00  7 -2 1 -24 -13 13 23 21 2 0.26792918D-02 0.43543967D+00 0.32344266D+05 0.32344266D+05 0.32344266D+05 0.11643163D+01  1  2  6  2  7  2        1 0.750556885474D-03 0.100000000000D+01
0.814806139474D-07 0.000000000000D+00 0.000000000000D+00 0.434636035126D-08 0.000000000000D+00  7 -2 21 -24 -13 13 23 -1 2 0.26792918D-02 0.66162723D+00 0.62737046D+05 0.62737046D+05 0.62737046D+05 0.11387262D+01  1  2 12  4  7  2        1 0.181706183761D-07 0.100000000000D+01
-.336432283139D-06 0.000000000000D+00 -.278935452291D-06 0.434636035126D-08 0.000000000000D+00  7 -2 21 -24 -13 13 23 -1 2 0.26792918D-02 0.65615262D+00 0.32344266D+05 0.32344266D+05 0.32344266D+05 0.11643163D+01  1  2  5  4  7  2        1 -.937561461936D-07 0.100000000000D+01
  </mgrwgt>
  </event>
  <event>
  8     66 0.26562228E-05 0.19202722E+03 0.75467711E-02 0.99532962E-01
       -2 -1    0    0    0  501 0.00000000E+00 0.00000000E+00 0.43663877E+02 0.43665049E+02 0.32000000E+00 0.0000E+00 0.9000E+01
        1 -1    0    0  501    0 0.00000000E+00 0.00000000E+00 -.22171521E+04 0.22171521E+04 0.32000000E+00 0.0000E+00 0.9000E+01
       25  2    1    2    0    0 0.22501694E+03 0.49807507E+02 -.13393997E+04 0.13917462E+04 0.29975426E+03 0.0000E+00 0.0000E+00
       23  2    3    3    0    0 0.25645498E+03 0.95639909E+01 -.10257661E+04 0.10611571E+04 0.89429704E+02 0.0000E+00 0.0000E+00
      -24  1    1    2    0    0 -.22501694E+03 -.49807507E+02 -.83408853E+03 0.86907094E+03 0.80419002E+02 0.0000E+00 0.9000E+01
      -11  1    4    4    0    0 0.13085105E+03 0.32747740E+02 -.66246037E+03 0.67605337E+03 0.51099893E-03 0.0000E+00 0.9000E+01
       11  1    4    4    0    0 0.12560392E+03 -.23183749E+02 -.36330575E+03 0.38510375E+03 0.51099893E-03 0.0000E+00 0.9000E+01
       23  1    3    3    0    0 -.31438031E+02 0.40243516E+02 -.31363358E+03 0.33058911E+03 0.91188000E+02 0.0000E+00 0.9000E+01
#aMCatNLO 1  0  0  2  1 0.49896353D+02 0.00000000D+00  -5  7  0 0.00000000D+00 0.00000000D+00 0.00000000D+00 0.00000000D+00 0.00000000D+00
  <mgrwgt>
 0.1651075180D-02    9    2    0
 0.311144351521143D+03 0.000000000000000D+00 0.000000000000000D+00 0.311144351521143D+03
 0.311144351521143D+03 0.000000000000000D+00 0.000000000000000D+00 -.311144351521143D+03
 0.244145386778749D+03 -.225016944713511D+03 -.498075068034328D+02 0.513232781469061D+01
 0.142350725780234D+03 0.130851054607370D+03 0.327477404191247D+02 -.454897365978313D+02
 0.130178171031673D+03 0.125603921591130D+03 -.231837494882867D+02 0.251500467940946D+02
 0.105614419451630D+03 -.314380314849888D+02 0.402435158725947D+02 0.152073619890461D+02
 0.000000000000000D+00 0.000000000000000D+00 -.000000000000000D+00 -.000000000000000D+00
 0.318857065349634D+03 0.000000000000000D+00 0.000000000000000D+00 0.318857065349634D+03
 0.404844833607644D+03 0.000000000000000D+00 0.000000000000000D+00 -.404844833607644D+03
 0.248280058196821D+03 -.232695962465373D+03 -.316546932912471D+02 0.513232781469061D+01
 0.141138291842240D+03 0.126430248938221D+03 0.431983036915178D+02 -.454897365978313D+02
 0.124960239451270D+03 0.121625223083018D+03 -.137783054103062D+02 0.251500467940946D+02
 0.109907303292553D+03 -.347989364742641D+02 0.481885270021358D+02 0.152073619890461D+02
 0.994160061743939D+02 0.194394269183971D+02 -.459538319921002D+02 -.859877682580101D+02
0.368246480212D-04 0.000000000000D+00 0.000000000000D+00 0.753978035344D-06 0.000000000000D+00  7 -2 1 -24 -11 11 23 21 0 0.67176115D-02 0.34110041D+00 0.93396723D+05 0.93396723D+05 0.93396723D+05 0.11241648D+01  1  2  2  2  7  2        1 0.104142464559D-02 0.100000000000D+01
-.204501222258D-05 0.000000000000D+00 -.141416344554D-06 0.753978035344D-06 0.000000000000D+00  7 -2 1 -24 -11 11 23 21 2 0.67176115D-02 0.34110041D+00 0.93396723D+05 0.93396723D+05 0.93396723D+05 0.11241648D+01  1  2  3  2  7  2        1 -.730878434682D-04 0.100000000000D+01
0.240988563973D-05 0.000000000000D+00 0.000000000000D+00 0.753978035344D-06 0.000000000000D+00  7 -2 1 -24 -11 11 23 21 2 0.67176115D-02 0.34110041D+00 0.93396723D+05 0.93396723D+05 0.93396723D+05 0.11241648D+01  1  2 15  2  7  2        1 0.861282600019D-04 0.100000000000D+01
0.921122516784D-04 0.000000000000D+00 0.000000000000D+00 0.753978035344D-06 0.000000000000D+00  7 -2 1 -24 -11 11 23 21 2 0.67176115D-02 0.44714008D+00 0.10988667D+06 0.10988667D+06 0.10988667D+06 0.11183774D+01  1  2 12  2  7  2        1 0.108314681618D-02 0.100000000000D+01
-.919508820857D-04 0.000000000000D+00 0.000000000000D+00 0.753978035344D-06 0.000000000000D+00  7 -2 1 -24 -11 11 23 21 2 0.67176115D-02 0.34110041D+00 0.93396723D+05 0.93396723D+05 0.93396723D+05 0.11241648D+01  1  2  4  2  7  2        1 -.328628435686D-02 0.100000000000D+01
-.117693747693D-03 0.000000000000D+00 -.151115613227D-04 0.753978035344D-06 0.000000000000D+00  7 -2 1 -24 -11 11 23 21 2 0.67176115D-02 0.44665953D+00 0.93396723D+05 0.93396723D+05 0.93396723D+05 0.11241648D+01  1  2  5  2  7  2        1 -.141477778586D-02 0.100000000000D+01
0.117986678419D-03 0.000000000000D+00 0.145784546785D-04 0.753978035344D-06 0.000000000000D+00  7 -2 1 -24 -11 11 23 21 2 0.67176115D-02 0.34110041D+00 0.93396723D+05 0.93396723D+05 0.93396723D+05 0.11241648D+01  1  2  6  2  7  2        1 0.421679234403D-02 0.100000000000D+01
0.330465758281D-05 0.000000000000D+00 0.000000000000D+00 0.753978035344D-06 0.000000000000D+00  7 -2 21 -24 -11 11 23 -1 2 0.67176115D-02 0.44714008D+00 0.10988667D+06 0.10988667D+06 0.10988667D+06 0.11183774D+01  1  2 12  4  7  2        1 0.989723955519D-05 0.100000000000D+01
-.392391342273D-05 0.000000000000D+00 -.540575947539D-06 0.753978035344D-06 0.000000000000D+00  7 -2 21 -24 -11 11 23 -1 2 0.67176115D-02 0.44665953D+00 0.93396723D+05 0.93396723D+05 0.93396723D+05 0.11241648D+01  1  2  5  4  7  2        1 -.121641391639D-04 0.100000000000D+01
  </mgrwgt>
  </event>
  <event>
  8     66 0.26562228E-05 0.12978313E+03 0.75467711E-02 0.99722051E-01
       -2 -1    0    0    0  501 0.00000000E+00 0.00000000E+00 0.37583770E+03 0.37583783E+03 0.32000000E+00 0.0000E+00 0.9000E+01
        1 -1    0    0  501    0 0.00000000E+00 0.00000000E+00 -.32781871E+03 0.32781886E+03 0.32000000E+00 0.0000E+00 0.9000E+01
       25  2    1    2    0    0 -.16888153E+02 0.26641026E+03 0.11226940E+03 0.41755363E+03 0.30081054E+03 0.0000E+00 0.0000E+00
       23  2    3    3    0    0 -.56058254E+02 0.26502012E+03 0.13484858E+03 0.31576316E+03 0.90244338E+02 0.0000E+00 0.0000E+00
      -24  1    1    2    0    0 0.16888153E+02 -.26641026E+03 -.64250410E+02 0.28610307E+03 0.80419002E+02 0.0000E+00 0.9000E+01
      -13  1    4    4    0    0 -.30921411E+02 0.20726932E+03 0.14084257E+03 0.25249425E+03 0.10565837E+00 0.0000E+00 0.9000E+01
       13  1    4    4    0    0 -.25136844E+02 0.57750802E+02 -.59939914E+01 0.63268911E+02 0.10565837E+00 0.0000E+00 0.9000E+01
       23  1    3    3    0    0 0.39170102E+02 0.13901333E+01 -.22579174E+02 0.10179047E+03 0.91188000E+02 0.0000E+00 0.9000E+01
#aMCatNLO 1  0  0  2  1 0.25098607D+01 0.00000000D+00  -5  7  0 0.00000000D+00 0.00000000D+00 0.00000000D+00 0.00000000D+00 0.00000000D+00
  <mgrwgt>
 0.6757528348D-03   11    2    0
 0.351008163906033D+03 0.000000000000000D+00 0.000000000000000D+00 0.351008163906033D+03
 0.351008163906033D+03 0.000000000000000D+00 0.000000000000000D+00 -.351008163906033D+03
 0.291166419551013D+03 0.168881526527564D+02 -.266410257403337D+03 -.839704291405661D+02
 0.243450638292094D+03 -.309214186116119D+02 0.207269526213055D+03 0.123900858186250D+03
 0.638265008732533D+02 -.251368355283414D+02 0.577505971555315D+02 -.103358715899544D+02
 0.103572769095706D+03 0.391701014871969D+02 0.139013403475082D+01 -.295945574557293D+02
 0.000000000000000D+00 0.000000000000000D+00 0.000000000000000D+00 -.000000000000000D+00
 0.351297961062511D+03 0.000000000000000D+00 0.000000000000000D+00 0.351297961062511D+03
 0.356487121243613D+03 0.000000000000000D+00 0.000000000000000D+00 -.356487121243613D+03
 0.291318283266756D+03 0.158722563705119D+02 -.266638640708313D+03 -.839704291405661D+02
 0.243397518101035D+03 -.317705177033216D+02 0.207078640528949D+03 0.123900858186250D+03
 0.638693036742322D+02 -.253595464295384D+02 0.577005295919834D+02 -.103358715899544D+02
 0.103435709403900D+03 0.388090634330068D+02 0.130896918999326D+01 -.295945574557293D+02
 0.576426786020117D+01 0.244874432934138D+01 0.550501397388083D+00 -.518916018110256D+01
0.168268558207D-04 0.000000000000D+00 0.000000000000D+00 0.100998079951D-05 0.000000000000D+00  7 -2 1 -24 -13 13 23 21 0 0.57821207D-01 0.50433670D-01 0.10581924D+06 0.10581924D+06 0.10581924D+06 0.11197118D+01  1  2  2  2  7  2        1 0.418302057575D-03 0.100000000000D+01
-.928248904225D-06 0.000000000000D+00 -.646195569645D-07 0.100998079951D-05 0.000000000000D+00  7 -2 1 -24 -13 13 23 21 2 0.57821207D-01 0.50433670D-01 0.10581924D+06 0.10581924D+06 0.10581924D+06 0.11197118D+01  1  2  3  2  7  2        1 -.289310352839D-04 0.100000000000D+01
0.108911118098D-05 0.000000000000D+00 0.000000000000D+00 0.100998079951D-05 0.000000000000D+00  7 -2 1 -24 -13 13 23 21 2 0.57821207D-01 0.50433670D-01 0.10581924D+06 0.10581924D+06 0.10581924D+06 0.11197118D+01  1  2 15  2  7  2        1 0.339446821447D-04 0.100000000000D+01
0.268971212029D-06 0.000000000000D+00 0.000000000000D+00 0.100998079951D-05 0.000000000000D+00  7 -2 1 -24 -13 13 23 21 2 0.57821207D-01 0.51241544D-01 0.10663636D+06 0.10663636D+06 0.10663636D+06 0.11194393D+01  1  2 12  2  7  2        1 0.820411212602D-05 0.100000000000D+01
-.146504329821D-02 0.000000000000D+00 0.000000000000D+00 0.100998079951D-05 0.000000000000D+00  7 -2 1 -24 -13 13 23 21 2 0.57821207D-01 0.50433670D-01 0.10581924D+06 0.10581924D+06 0.10581924D+06 0.11197118D+01  1  2  4  2  7  2        1 -.456614806223D-01 0.100000000000D+01
-.247882408424D-02 0.000000000000D+00 -.143182075877D-03 0.100998079951D-05 0.000000000000D+00  7 -2 1 -24 -13 13 23 21 2 0.57821207D-01 0.51245801D-01 0.10581924D+06 0.10581924D+06 0.10581924D+06 0.11197118D+01  1  2  5  2  7  2        1 -.756464312424D-01 0.100000000000D+01
0.248081309247D-02 0.000000000000D+00 0.143163808483D-03 0.100998079951D-05 0.000000000000D+00  7 -2 1 -24 -13 13 23 21 2 0.57821207D-01 0.50433670D-01 0.10581924D+06 0.10581924D+06 0.10581924D+06 0.11197118D+01  1  2  6  2  7  2        1 0.773203079306D-01 0.100000000000D+01
0.146493999011D-02 0.000000000000D+00 0.000000000000D+00 0.100998079951D-05 0.107167711173D-05  7 -2 1 -24 -13 13 23 21 2 0.57868945D-01 0.51220899D-01 0.10663636D+06 0.10663636D+06 0.10663636D+06 0.11194393D+01  1  2 11  2  7  2        1 0.446321363232D-01 0.100000000000D+01
0.217828223374D-07 0.000000000000D+00 0.000000000000D+00 0.100998079951D-05 0.000000000000D+00  7 -2 21 -24 -13 13 23 -1 2 0.57821207D-01 0.51241544D-01 0.10663636D+06 0.10663636D+06 0.10663636D+06 0.11194393D+01  1  2 12  4  7  2        1 0.289530722346D-05 0.100000000000D+01
-.723650759074D-05 0.000000000000D+00 -.418771594190D-06 0.100998079951D-05 0.000000000000D+00  7 -2 21 -24 -13 13 23 -1 2 0.57821207D-01 0.51245801D-01 0.10581924D+06 0.10581924D+06 0.10581924D+06 0.11197118D+01  1  2  5  4  7  2        1 -.962497818994D-03 0.100000000000D+01
0.421132617636D-05 0.000000000000D+00 0.000000000000D+00 0.100998079951D-05 0.304336766031D-08  7 -2 21 -24 -13 13 23 -1 2 0.57868945D-01 0.51220899D-01 0.10663636D+06 0.10663636D+06 0.10663636D+06 0.11194393D+01  1  2 11  4  7  2        1 0.559303140959D-03 0.100000000000D+01
  </mgrwgt>
  </event>
  <event>
  8     66 0.26562228E-05 0.13218499E+03 0.75467711E-02 0.10059771E+00
       -2 -1    0    0    0  501 0.00000000E+00 0.00000000E+00 0.11123308E+04 0.11123309E+04 0.32000000E+00 0.0000E+00 0.9000E+01
        1 -1    0    0  501    0 0.00000000E+00 0.00000000E+00 -.98932197E+02 0.98932715E+02 0.32000000E+00 0.0000E+00 0.9000E+01
       25  2    1    2    0    0 0.17841720E+03 0.12546701E+03 0.84912055E+03 0.92660737E+03 0.30003472E+03 0.0000E+00 0.0000E+00
       23  2    3    3    0    0 0.94762809E+00 0.14288787E+03 0.36887113E+03 0.40626739E+03 0.92571267E+02 0.0000E+00 0.0000E+00
      -24  1    1    2    0    0 -.17841720E+03 -.12546701E+03 0.16427809E+03 0.28465624E+03 0.80419002E+02 0.0000E+00 0.9000E+01
      -11  1    4    4    0    0 -.52616207E+01 -.11899758E+02 0.14303730E+02 0.19336122E+02 0.51099893E-03 0.0000E+00 0.9000E+01
       11  1    4    4    0    0 0.62092488E+01 0.15478763E+03 0.35456740E+03 0.38693127E+03 0.51099893E-03 0.0000E+00 0.9000E+01
       23  1    3    3    0    0 0.17746957E+03 -.17420860E+02 0.48024942E+03 0.52033998E+03 0.91188000E+02 0.0000E+00 0.9000E+01
#aMCatNLO 1  0  0  1  2 0.87449993D+01 0.00000000D+00  -5  7  0 0.00000000D+00 0.00000000D+00 0.00000000D+00 0.00000000D+00 0.00000000D+00
  <mgrwgt>
 0.1690046651D-02   11    2    0
 0.331731330692797D+03 0.000000000000000D+00 0.000000000000000D+00 0.331731330692797D+03
 0.331731330692797D+03 0.000000000000000D+00 0.000000000000000D+00 -.331731330692797D+03
 0.268763494104425D+03 -.178417196027853D+03 -.125467006588217D+03 -.134877478580376D+03
 0.134532961147059D+02 -.526162074760360D+01 -.118997584624470D+02 -.342085837090199D+01
 0.164828623564162D+03 0.620924883588511D+01 0.154787625296353D+03 0.563090705842878D+02
 0.216417247602300D+03 0.177469567939572D+03 -.174208602456883D+02 0.819892663669903D+02
 0.000000000000000D+00 0.000000000000000D+00 0.000000000000000D+00 0.000000000000000D+00
 0.340419353877700D+03 0.000000000000000D+00 0.000000000000000D+00 0.340419353877700D+03
 0.333968056265337D+03 0.000000000000000D+00 0.000000000000000D+00 -.333968056265337D+03
 0.271591375445297D+03 -.181709321225261D+03 -.126824475609217D+03 -.134877478580376D+03
 0.135783718871866D+02 -.542631184297794D+01 -.119676668944171D+02 -.342085837090199D+01
 0.163989535166805D+03 0.420591619889854D+01 0.153961574696696D+03 0.563090705842878D+02
 0.214361009628933D+03 0.174845040920303D+03 -.185030530268853D+02 0.819892663669903D+02
 0.108671180148156D+02 0.808467594903751D+01 0.333362083382336D+01 0.645129761236319D+01
0.629873426071D-04 0.000000000000D+00 0.000000000000D+00 0.268689650842D-05 0.000000000000D+00  7 -2 1 -24 -11 11 23 21 0 0.17112787D+00 0.15220381D-01 0.90203389D+05 0.90203389D+05 0.90203389D+05 0.11254152D+01  1  2  2  1  7  1       -2 0.551452626218D-03 0.100000000000D+01
-.345724742839D-05 0.000000000000D+00 -.241887980559D-06 0.268689650842D-05 0.000000000000D+00  7 -2 1 -24 -11 11 23 21 2 0.17112787D+00 0.15220381D-01 0.90203389D+05 0.90203389D+05 0.90203389D+05 0.11254152D+01  1  2  3  1  7  1       -2 -.383363622672D-04 0.100000000000D+01
0.410185044299D-05 0.000000000000D+00 0.000000000000D+00 0.268689650842D-05 0.000000000000D+00  7 -2 1 -24 -11 11 23 21 2 0.17112787D+00 0.15220381D-01 0.90203389D+05 0.90203389D+05 0.90203389D+05 0.11254152D+01  1  2 15  1  7  1       -2 0.454841684912D-04 0.100000000000D+01
0.113319242006D-03 0.000000000000D+00 0.000000000000D+00 0.268689650842D-05 0.000000000000D+00  7 -2 1 -24 -11 11 23 21 2 0.17617691D+00 0.15220381D-01 0.92933154D+05 0.92933154D+05 0.92933154D+05 0.11243434D+01  1  2 12  1  7  1       -2 0.115248940516D-02 0.100000000000D+01
-.113770362434D-03 0.000000000000D+00 0.000000000000D+00 0.268689650842D-05 0.000000000000D+00  7 -2 1 -24 -11 11 23 21 2 0.17112787D+00 0.15220381D-01 0.90203389D+05 0.90203389D+05 0.90203389D+05 0.11254152D+01  1  2  4  1  7  1       -2 -.126156484888D-02 0.100000000000D+01
-.198501151063D-02 0.000000000000D+00 -.231422077242D-03 0.268689650842D-05 0.000000000000D+00  7 -2 1 -24 -11 11 23 21 2 0.17625286D+00 0.15220381D-01 0.90203389D+05 0.90203389D+05 0.90203389D+05 0.11254152D+01  1  2  5  1  7  1       -2 -.202141700444D-01 0.100000000000D+01
0.199107424206D-02 0.000000000000D+00 0.231321357362D-03 0.268689650842D-05 0.000000000000D+00  7 -2 1 -24 -11 11 23 21 2 0.17112787D+00 0.15220381D-01 0.90203389D+05 0.90203389D+05 0.90203389D+05 0.11254152D+01  1  2  6  1  7  1       -2 0.220784149892D-01 0.100000000000D+01
0.334836098396D-06 0.000000000000D+00 0.000000000000D+00 0.268689650842D-05 0.237012190012D-06  7 -2 1 -24 -11 11 23 21 2 0.17560969D+00 0.15323006D-01 0.92933154D+05 0.92933154D+05 0.92933154D+05 0.11243434D+01  1  2 11  1  7  1       -2 0.340717516217D-05 0.100000000000D+01
0.325205557417D-05 0.000000000000D+00 0.000000000000D+00 0.268689650842D-05 0.000000000000D+00  7 21 1 -24 -11 11 23 2 2 0.17617691D+00 0.15220381D-01 0.92933154D+05 0.92933154D+05 0.92933154D+05 0.11243434D+01  1  2 12  3  7  1       -2 0.282845569026D-03 0.100000000000D+01
-.104396939858D-04 0.000000000000D+00 -.122559768270D-05 0.268689650842D-05 0.000000000000D+00  7 21 1 -24 -11 11 23 2 2 0.17625286D+00 0.15220381D-01 0.90203389D+05 0.90203389D+05 0.90203389D+05 0.11254152D+01  1  2  5  3  7  1       -2 -.910129519683D-03 0.100000000000D+01
0.176240187599D-08 0.000000000000D+00 0.000000000000D+00 0.268689650842D-05 0.110155148447D-08  7 21 1 -24 -11 11 23 2 2 0.17560969D+00 0.15323006D-01 0.92933154D+05 0.92933154D+05 0.92933154D+05 0.11243434D+01  1  2 11  3  7  1       -2 0.153492563984D-06 0.100000000000D+01
  </mgrwgt>
  </event>
  <event>
  9     66 0.26562228E-05 0.25931977E+03 0.75467711E-02 0.98925816E-01
       -2 -1    0    0    0  501 0.00000000E+00 0.00000000E+00 0.18692041E+03 0.18692069E+03 0.32000000E+00 0.0000E+00 0.9000E+01
        1 -1    0    0  502    0 0.00000000E+00 0.00000000E+00 -.77020463E+03 0.77020469E+03 0.32000000E+00 0.0000E+00 0.9000E+01
       25  2    1    2    0    0 0.15395641E+03 -.12439373E+03 -.20475869E+03 0.41351771E+03 0.29982394E+03 0.0000E+00 0.0000E+00
       23  2    3    3    0    0 0.16273687E+03 -.66756727E+02 -.19431569E+02 0.19890057E+03 0.90797052E+02 0.0000E+00 0.0000E+00
      -24  1    1    2    0    0 -.30500377E+02 0.21857131E+03 -.22829706E+03 0.32755222E+03 0.80419002E+02 0.0000E+00 0.9000E+01
      -13  1    4    4    0    0 0.11960835E+03 -.88991084E+02 -.19690935E+02 0.15037724E+03 0.10565837E+00 0.0000E+00 0.9000E+01
       13  1    4    4    0    0 0.43128517E+02 0.22234357E+02 0.25936549E+00 0.48523335E+02 0.10565837E+00 0.0000E+00 0.9000E+01
       23  1    3    3    0    0 -.87804555E+01 -.57637008E+02 -.18532712E+03 0.21461714E+03 0.91188000E+02 0.0000E+00 0.9000E+01
       21  1    1    2  502  501 -.12345603E+03 -.94177572E+02 -.15022846E+03 0.21605545E+03 0.75000000E+00 0.0000E+00 0.9000E+01
#aMCatNLO 2  0  0  2  1 0.15527655D+03 0.00000000D+00  -5  7  0 0.00000000D+00 0.00000000D+00 0.00000000D+00 0.00000000D+00 0.00000000D+00
  <mgrwgt>
 0.8330358600D-04    2    2    0
 0.290489475149803D+03 0.000000000000000D+00 0.000000000000000D+00 0.290489475149803D+03
 0.290489475149803D+03 0.000000000000000D+00 0.000000000000000D+00 -.290489475149803D+03
 0.218690676723227D+03 -.783158657046098D+02 0.182095595510693D+03 -.454556421782380D+02
 0.166146227763669D+03 0.843914505957693D+02 -.115856277834728D+03 0.840236571015629D+02
 0.493184105481274D+02 0.317157298420450D+02 0.135284217564139D+02 0.352618760754537D+02
 0.146823635264584D+03 -.377913147332045D+02 -.797677394323786D+02 -.738298909987786D+02
 0.000000000000000D+00 -.000000000000000D+00 -.000000000000000D+00 -.000000000000000D+00
 0.364945528444499D+03 0.000000000000000D+00 0.000000000000000D+00 0.364945528444499D+03
 0.394487502437446D+03 0.000000000000000D+00 0.000000000000000D+00 -.394487502437446D+03
 0.239242806549359D+03 -.305003773296330D+02 0.218571306689963D+03 -.454556421782380D+02
 0.171130349663304D+03 0.119608452313706D+03 -.889912341654146D+02 0.840236571015629D+02
 0.599819406908799D+02 0.431284128297589D+02 0.222345072234458D+02 0.352618760754537D+02
 0.131016125913574D+03 -.878045539228012D+01 -.576370081077612D+02 -.738298909987786D+02
 0.158061808064827D+03 -.123456032421552D+03 -.941775716402326D+02 -.295419739929463D+02
-.216386150550D-05 0.000000000000D+00 0.000000000000D+00 0.214783952675D-05 0.000000000000D+00  7 -2 1 -24 -13 13 23 21 2 0.22889963D-01 0.12634905D+00 0.12110382D+06 0.12110382D+06 0.12110382D+06 0.11149612D+01  1  2 13  2  7  2        1 -.999327662154D-04 0.100000000000D+01
0.530588902231D-05 0.000000000000D+00 0.000000000000D+00 0.214783952675D-05 0.633937434884D-09  7 -2 1 -24 -13 13 23 21 2 0.28756945D-01 0.11849277D+00 0.12110382D+06 0.12110382D+06 0.12110382D+06 0.11149612D+01  1  2  1  2  7  2        1 0.183236352215D-03 0.100000000000D+01
  </mgrwgt>
  </event>
  <event>
  8     66 0.26562228E-05 0.32918752E+03 0.75467711E-02 0.91690037E-01
       -2 -1    0    0    0  501 0.00000000E+00 0.00000000E+00 0.21613049E+04 0.21613050E+04 0.32000000E+00 0.0000E+00 0.9000E+01
        1 -1    0    0  501    0 0.00000000E+00 0.00000000E+00 -.94617251E+02 0.94617792E+02 0.32000000E+00 0.0000E+00 0.9000E+01
       25  2    1    2    0    0 0.22859154E+03 0.11236099E+03 0.37729260E+03 0.54554207E+03 0.30064491E+03 0.0000E+00 0.0000E+00
       23  2    3    3    0    0 0.64360204E+02 -.68988668E+02 0.15070844E+03 0.19983228E+03 0.91204344E+02 0.0000E+00 0.0000E+00
      -24  1    1    2    0    0 -.22859154E+03 -.11236099E+03 0.16893951E+04 0.17103807E+04 0.80419002E+02 0.0000E+00 0.9000E+01
      -13  1    4    4    0    0 0.56462568E+02 -.90824314E+02 0.13280306E+03 0.17051024E+03 0.10565837E+00 0.0000E+00 0.9000E+01
       13  1    4    4    0    0 0.78976360E+01 0.21835646E+02 0.17905382E+02 0.29322039E+02 0.10565837E+00 0.0000E+00 0.9000E+01
       23  1    3    3    0    0 0.16423134E+03 0.18134966E+03 0.22658416E+03 0.34570980E+03 0.91188000E+02 0.0000E+00 0.9000E+01
#aMCatNLO 1  0  0  2  1 0.50802424D+03 0.00000000D+00  -5  7  0 0.00000000D+00 0.00000000D+00 0.00000000D+00 0.00000000D+00 0.00000000D+00
  <mgrwgt>
 0.1700737274D-02    3    2    0
 0.452213853776052D+03 0.000000000000000D+00 0.000000000000000D+00 0.452213853776052D+03
 0.452213853776052D+03 0.000000000000000D+00 0.000000000000000D+00 -.452213853776052D+03
 0.405819793230640D+03 -.228591542987693D+03 -.112360993476597D+03 0.305521525007399D+03
 0.121840129246824D+03 0.564626330775525D+02 -.908244654167880D+02 -.583772613488086D+02
 0.322229325892096D+02 0.789757080432999D+01 0.218357971139214D+02 -.223415246668396D+02
 0.344544852485430D+03 0.164231339105810D+03 0.181349661779464D+03 -.224802738991751D+03
 0.000000000000000D+00 0.000000000000000D+00 0.000000000000000D+00 0.000000000000000D+00
 0.105503999405666D+04 0.000000000000000D+00 0.000000000000000D+00 0.105503999405666D+04
 0.638965251700221D+03 0.000000000000000D+00 0.000000000000000D+00 -.638965251700221D+03
 0.577874849786048D+03 -.339839699354465D+03 -.344438242012552D+03 0.305521525007399D+03
 0.172040664745687D+03 0.232270179856492D+02 -.160158019839923D+03 -.583772613488086D+02
 0.239805759085467D+02 0.154139437691246D+01 0.857603637127277D+01 -.223415246668396D+02
 0.263445756173221D+03 0.954723651886992D+02 0.379100399467291D+02 -.224802738991751D+03
 0.656663399143381D+03 0.219598921803204D+03 0.458110185534473D+03 0.416074742356442D+03
0.204385707066D-02 0.000000000000D+00 0.000000000000D+00 0.769500945625D-05 0.000000000000D+00  7 -2 1 -24 -13 13 23 21 0 0.33250850D+00 0.14556544D-01 0.10836442D+06 0.10836442D+06 0.10836442D+06 0.11188704D+01  1  2  2  2  7  2        1 0.167306150332D-02 0.100000000000D+01
-.996281489502D-04 0.000000000000D+00 -.784894931125D-05 0.769500945625D-05 0.000000000000D+00  7 -2 1 -24 -13 13 23 21 2 0.33250850D+00 0.14556544D-01 0.10836442D+06 0.10836442D+06 0.10836442D+06 0.11188704D+01  1  2  3  2  7  2        1 -.102094653354D-03 0.100000000000D+01
0.126635300471D-03 0.000000000000D+00 0.000000000000D+00 0.769500945625D-05 0.000000000000D+00  7 -2 1 -24 -13 13 23 21 2 0.33250850D+00 0.14556544D-01 0.10836442D+06 0.10836442D+06 0.10836442D+06 0.11188704D+01  1  2 15  2  7  2        1 0.129770423722D-03 0.100000000000D+01
  </mgrwgt>
  </event>
  <event>
  8     66 0.26562228E-05 0.33138053E+03 0.75467711E-02 0.90374136E-01
       -2 -1    0    0    0  501 0.00000000E+00 0.00000000E+00 0.10338714E+04 0.10338714E+04 0.32000000E+00 0.0000E+00 0.9000E+01
        1 -1    0    0  501    0 0.00000000E+00 0.00000000E+00 -.24373438E+03 0.24373459E+03 0.32000000E+00 0.0000E+00 0.9000E+01
       25  2    1    2    0    0 0.39657687E+03 -.18559937E+03 0.27872030E+03 0.59956870E+03 0.30012879E+03 0.0000E+00 0.0000E+00
       23  2    3    3    0    0 0.16423742E+03 -.20127277E+03 0.18946045E+03 0.33403180E+03 0.90539075E+02 0.0000E+00 0.0000E+00
      -24  1    1    2    0    0 -.39657687E+03 0.18559937E+03 0.51141667E+03 0.67803729E+03 0.80419002E+02 0.0000E+00 0.9000E+01
      -13  1    4    4    0    0 0.13808617E+03 -.12291237E+03 0.16522625E+03 0.24794145E+03 0.10565837E+00 0.0000E+00 0.9000E+01
       13  1    4    4    0    0 0.26151257E+02 -.78360401E+02 0.24234201E+02 0.86090350E+02 0.10565837E+00 0.0000E+00 0.9000E+01
       23  1    3    3    0    0 0.23233945E+03 0.15673403E+02 0.89259848E+02 0.26553690E+03 0.91188000E+02 0.0000E+00 0.9000E+01
#aMCatNLO 1  0  0  1  2 0.43006552D+03 0.00000000D+00  -5  7  0 0.00000000D+00 0.00000000D+00 0.00000000D+00 0.00000000D+00 0.00000000D+00
  <mgrwgt>
 0.7122854110D-03    7    2    0
 0.501986218708367D+03 0.000000000000000D+00 0.000000000000000D+00 0.501986218708367D+03
 0.501986218708367D+03 0.000000000000000D+00 0.000000000000000D+00 -.501986218708367D+03
 0.460346593568875D+03 -.396576872853189D+03 0.185599366061472D+03 0.117181182327461D+03
 0.185483428068814D+03 0.138086318246686D+03 -.122912429265147D+03 0.151263192275568D+02
 0.904816460003160D+02 0.261511043931090D+02 -.783603399993715D+02 -.369148360030235D+02
 0.267660769778729D+03 0.232339450213393D+03 0.156734032030466D+02 -.953926655519947D+02
 0.000000000000000D+00 -.000000000000000D+00 0.000000000000000D+00 0.000000000000000D+00
 0.140016171033843D+04 0.000000000000000D+00 0.000000000000000D+00 0.140016171033843D+04
 0.600244155885655D+03 0.000000000000000D+00 0.000000000000000D+00 -.600244155885655D+03
 0.313368862196996D+03 -.255378126319750D+03 0.113063747266845D+03 0.117181182327461D+03
 0.278458204604636D+03 0.222753073330859D+03 -.166406834294509D+03 0.151263192275568D+02
 0.123736146263477D+03 0.652446542600527D+02 -.984432012151813D+02 -.369148360030235D+02
 0.376644189586306D+03 0.349921504403546D+03 -.447300158726761D+02 -.953926655519947D+02
 0.908198463572673D+03 -.382541105674708D+03 0.196516304115521D+03 0.799917554452778D+03
0.221302559674D-03 0.000000000000D+00 0.000000000000D+00 0.746952446233D-05 0.000000000000D+00  7 -2 1 -24 -13 13 23 21 0 0.15905715D+00 0.37497618D-01 0.23171810D+06 0.23171810D+06 0.23171810D+06 0.10929489D+01  1  2  2  1  7  1       -2 0.713233432495D-03 0.100000000000D+01
-.122683001162D-04 0.000000000000D+00 -.849860099449D-06 0.746952446233D-05 0.000000000000D+00  7 -2 1 -24 -13 13 23 21 2 0.15905715D+00 0.37497618D-01 0.23171810D+06 0.23171810D+06 0.23171810D+06 0.10929489D+01  1  2  3  1  7  1       -2 -.472312407931D-04 0.100000000000D+01
0.139812584115D-04 0.000000000000D+00 0.000000000000D+00 0.746952446233D-05 0.000000000000D+00  7 -2 1 -24 -13 13 23 21 2 0.15905715D+00 0.37497618D-01 0.23171810D+06 0.23171810D+06 0.23171810D+06 0.10929489D+01  1  2 15  1  7  1       -2 0.538258908219D-04 0.100000000000D+01
0.386438453527D-05 0.000000000000D+00 0.000000000000D+00 0.746952446233D-05 0.000000000000D+00  7 -2 1 -24 -13 13 23 21 2 0.43047320D+00 0.37497618D-01 0.54849778D+06 0.54849778D+06 0.54849778D+06 0.10656805D+01  1  2 12  1  7  1       -2 0.183893666442D-06 0.100000000000D+01
-.148235450955D-03 0.000000000000D+00 -.594147076101D-04 0.746952446233D-05 0.000000000000D+00  7 -2 1 -24 -13 13 23 21 2 0.46249273D+00 0.37497618D-01 0.23171810D+06 0.23171810D+06 0.23171810D+06 0.10929489D+01  1  2  5  1  7  1       -2 -.422386195520D-05 0.100000000000D+01
0.429353385091D-06 0.000000000000D+00 0.000000000000D+00 0.746952446233D-05 0.000000000000D+00  7 21 1 -24 -13 13 23 2 2 0.43047320D+00 0.37497618D-01 0.54849778D+06 0.54849778D+06 0.54849778D+06 0.10656805D+01  1  2 12  3  7  1       -2 0.156403591049D-06 0.100000000000D+01
-.147578488104D-04 0.000000000000D+00 -.717288265221D-05 0.746952446233D-05 0.000000000000D+00  7 21 1 -24 -13 13 23 2 2 0.46249273D+00 0.37497618D-01 0.23171810D+06 0.23171810D+06 0.23171810D+06 0.10929489D+01  1  2  5  3  7  1       -2 -.365910681272D-05 0.100000000000D+01
  </mgrwgt>
  </event>
  <event>
  8     66 0.26562228E-05 0.35632970E+03 0.75467711E-02 0.91733303E-01
       -2 -1    0    0    0  501 0.00000000E+00 0.00000000E+00 0.92085204E+02 0.92085760E+02 0.32000000E+00 0.0000E+00 0.9000E+01
        1 -1    0    0  501    0 0.00000000E+00 0.00000000E+00 -.27000658E+04 0.27000658E+04 0.32000000E+00 0.0000E+00 0.9000E+01
       25  2    1    2    0    0 -.30441760E+03 0.97462074E+02 -.23025593E+04 0.23427984E+04 0.29112864E+03 0.0000E+00 0.0000E+00
       23  2    3    3    0    0 -.62673111E+02 0.56654892E+01 -.12599622E+04 0.12647487E+04 0.90136684E+02 0.0000E+00 0.0000E+00
      -24  1    1    2    0    0 0.30441760E+03 -.97462074E+02 -.30542129E+03 0.44935321E+03 0.80419002E+02 0.0000E+00 0.9000E+01
      -13  1    4    4    0    0 0.77578523E+01 0.32562021E+02 -.31092372E+03 0.31272039E+03 0.10565837E+00 0.0000E+00 0.9000E+01
       13  1    4    4    0    0 -.70430964E+02 -.26896532E+02 -.94903843E+03 0.95202831E+03 0.10565837E+00 0.0000E+00 0.9000E+01
       23  1    3    3    0    0 -.24174449E+03 0.91796585E+02 -.10425972E+04 0.10780497E+04 0.91188000E+02 0.0000E+00 0.9000E+01
#aMCatNLO 1  0  0  1  2 0.45208993D+03 0.00000000D+00  -5  7  0 0.00000000D+00 0.00000000D+00 0.00000000D+00 0.00000000D+00 0.00000000D+00
  <mgrwgt>
 0.1666777268D-01    3    2    0
 0.498635049650881D+03 0.000000000000000D+00 0.000000000000000D+00 0.498635049650881D+03
 0.498635049650881D+03 0.000000000000000D+00 0.000000000000000D+00 -.498635049650881D+03
 0.459383562635113D+03 0.304417599413373D+03 -.974620739747680D+02 0.319995485857058D+03
 0.624500097676113D+02 0.775795960809567D+01 0.325621029177700D+02 -.527212218775936D+02
 0.183635001025362D+03 -.704310712987256D+02 -.268966135925365D+02 -.167445065542560D+03
 0.291801525873675D+03 -.241744487722743D+03 0.917965846495345D+02 -.998291984369039D+02
 0.000000000000000D+00 0.000000000000000D+00 0.000000000000000D+00 -.000000000000000D+00
 0.639851129095831D+03 0.000000000000000D+00 0.000000000000000D+00 0.639851129095831D+03
 0.110063630128557D+04 0.000000000000000D+00 0.000000000000000D+00 -.110063630128557D+04
 0.544820940496196D+03 0.298556129454561D+03 -.314372021409359D+03 0.319995485857058D+03
 0.537164077244302D+02 0.707990452645719D+01 0.746995143538554D+01 -.527212218775936D+02
 0.214674015284826D+03 -.727559725774454D+02 -.112932065058013D+03 -.167445065542560D+03
 0.281746607702601D+03 -.245092247212376D+03 -.320908258503267D+02 -.998291984369039D+02
 0.645529459173347D+03 0.122121858088034D+02 0.451924960882313D+03 -.460785172189737D+03
0.395132860312D-02 0.000000000000D+00 0.000000000000D+00 0.271015727778D-07 0.000000000000D+00  7 -2 1 -24 -13 13 23 21 0 0.14166999D-01 0.41539478D+00 0.12697086D+06 0.12697086D+06 0.12697086D+06 0.11133100D+01  1  2  2  1  7  1       -2 0.163486380001D-01 0.100000000000D+01
-.189382831256D-03 0.000000000000D+00 -.151741422447D-04 0.271015727778D-07 0.000000000000D+00  7 -2 1 -24 -13 13 23 21 2 0.14166999D-01 0.41539478D+00 0.12697086D+06 0.12697086D+06 0.12697086D+06 0.11133100D+01  1  2  3  1  7  1       -2 -.971205739850D-03 0.100000000000D+01
0.251613342742D-03 0.000000000000D+00 0.000000000000D+00 0.271015727778D-07 0.000000000000D+00  7 -2 1 -24 -13 13 23 21 2 0.14166999D-01 0.41539478D+00 0.12697086D+06 0.12697086D+06 0.12697086D+06 0.11133100D+01  1  2 15  1  7  1       -2 0.129034042354D-02 0.100000000000D+01
  </mgrwgt>
  </event>
  <event>
  8     66 0.26562228E-05 0.29407962E+03 0.75467711E-02 0.96999380E-01
       -2 -1    0    0    0  501 0.00000000E+00 0.00000000E+00 0.16514598E+04 0.16514599E+04 0.32000000E+00 0.0000E+00 0.9000E+01
        1 -1    0    0  501    0 0.00000000E+00 0.00000000E+00 -.11880630E+03 0.11880673E+03 0.32000000E+00 0.0000E+00 0.9000E+01
       25  2    1    2    0    0 0.23300106E+03 0.48436225E+02 0.23660956E+03 0.45010268E+03 0.29995462E+03 0.0000E+00 0.0000E+00
       23  2    3    3    0    0 0.52196776E+02 0.84051377E+02 -.23733823E+01 0.13484608E+03 0.91589813E+02 0.0000E+00 0.0000E+00
      -24  1    1    2    0    0 -.23300106E+03 -.48436225E+02 0.12960440E+04 0.13201639E+04 0.80419002E+02 0.0000E+00 0.9000E+01
      -13  1    4    4    0    0 0.51960145E+01 -.18139396E+02 -.11328836E+02 0.22008861E+02 0.10565837E+00 0.0000E+00 0.9000E+01
       13  1    4    4    0    0 0.47000762E+02 0.10219077E+03 0.89554535E+01 0.11283722E+03 0.10565837E+00 0.0000E+00 0.9000E+01
       23  1    3    3    0    0 0.18080428E+03 -.35615153E+02 0.23898294E+03 0.31525660E+03 0.91188000E+02 0.0000E+00 0.9000E+01
#aMCatNLO 1  0  0  2  2 0.20285671D+03 0.00000000D+00  -5  7  0 0.00000000D+00 0.00000000D+00 0.00000000D+00 0.00000000D+00 0.00000000D+00
  <mgrwgt>
 0.7110645389D-03    4    2    0
 0.442949478461276D+03 0.000000000000000D+00 0.000000000000000D+00 0.442949478461276D+03
 0.442949478461276D+03 0.000000000000000D+00 0.000000000000000D+00 -.442949478461276D+03
 0.395819069226313D+03 -.233001061441848D+03 -.484362249006445D+02 0.305892067718599D+03
 0.635789873408280D+02 0.519595885421355D+01 -.181395565246663D+02 -.607144639436017D+02
 0.209986157870865D+03 0.470008175410578D+02 0.102190933961411D+03 -.177319267604889D+03
 0.216514742484545D+03 0.180804285046577D+03 -.356151525361005D+02 -.678583361701082D+02
 0.000000000000000D+00 0.000000000000000D+00 0.000000000000000D+00 0.000000000000000D+00
 0.599738387570194D+03 0.000000000000000D+00 0.000000000000000D+00 0.599738387570194D+03
 0.525205143452608D+03 0.000000000000000D+00 0.000000000000000D+00 -.525205143452608D+03
 0.430551712035835D+03 -.257112765642661D+03 -.138674545007509D+03 0.305892067718599D+03
 0.689302813535732D+02 0.132962625500732D+01 -.326093491125757D+02 -.607144639436017D+02
 0.190035762580662D+03 0.353290469043508D+02 0.585092030411399D+02 -.177319267604889D+03
 0.219309953598926D+03 0.168087867194383D+03 -.832064872340553D+02 -.678583361701082D+02
 0.216115821453806D+03 0.523662252889196D+02 0.195981178313000D+03 0.745332441175858D+02
0.490777910781D-03 0.000000000000D+00 0.000000000000D+00 0.123182999161D-04 0.000000000000D+00  7 -2 1 -24 -13 13 23 21 0 0.25407078D+00 0.18277928D-01 0.86482825D+05 0.86482825D+05 0.86482825D+05 0.11269347D+01  1  2  2  2  7  2        1 0.949800262102D-03 0.100000000000D+01
-.217035181747D-04 0.000000000000D+00 -.188471640219D-05 0.123182999161D-04 0.000000000000D+00  7 -2 1 -24 -13 13 23 21 2 0.25407078D+00 0.18277928D-01 0.86482825D+05 0.86482825D+05 0.86482825D+05 0.11269347D+01  1  2  3  2  7  2        1 -.533426923187D-04 0.100000000000D+01
0.303272268083D-04 0.000000000000D+00 0.000000000000D+00 0.123182999161D-04 0.000000000000D+00  7 -2 1 -24 -13 13 23 21 2 0.25407078D+00 0.18277928D-01 0.86482825D+05 0.86482825D+05 0.86482825D+05 0.11269347D+01  1  2 15  2  7  2        1 0.745379581086D-04 0.100000000000D+01
-.105758009186D-03 0.000000000000D+00 0.000000000000D+00 0.123182999161D-04 0.000000000000D+00  7 -2 1 -24 -13 13 23 21 2 0.25407078D+00 0.18277928D-01 0.86482825D+05 0.86482825D+05 0.86482825D+05 0.11269347D+01  1  2  4  2  7  2        1 -.259930989016D-03 0.100000000000D+01
  </mgrwgt>
  </event>
  <event>
  8     66 0.26562228E-05 0.21547566E+03 0.75467711E-02 0.87456456E-01
       -2 -1    0    0    0  501 0.00000000E+00 0.00000000E+00 0.10412082E+04 0.10412083E+04 0.32000000E+00 0.0000E+00 0.9000E+01
        1 -1    0    0  501    0 0.00000000E+00 0.00000000E+00 -.24592598E+03 0.24592619E+03 0.32000000E+00 0.0000E+00 0.9000E+01
       25  2    1    2    0    0 0.21727416E+02 -.12694279E+03 0.98869365E+03 0.10412448E+04 0.30014840E+03 0.0000E+00 0.0000E+00
       23  2    3    3    0    0 0.73422586E+02 -.13187166E+03 0.32629976E+03 0.37059020E+03 0.89914151E+02 0.0000E+00 0.0000E+00
      -24  1    1    2    0    0 -.21727416E+02 0.12694279E+03 -.19341138E+03 0.24588968E+03 0.80419002E+02 0.0000E+00 0.9000E+01
      -13  1    4    4    0    0 -.18170125E+02 -.42439791E+02 0.10922511E+03 0.11858088E+03 0.10565837E+00 0.0000E+00 0.9000E+01
       13  1    4    4    0    0 0.91592712E+02 -.89431866E+02 0.21707465E+03 0.25200932E+03 0.10565837E+00 0.0000E+00 0.9000E+01
       23  1    3    3    0    0 -.51695171E+02 0.49288661E+01 0.66239389E+03 0.67065460E+03 0.91188000E+02 0.0000E+00 0.9000E+01
#aMCatNLO 1  0  0  2  2 0.93052791D+03 0.00000000D+00  -5  7  0 0.00000000D+00 0.00000000D+00 0.00000000D+00 0.00000000D+00 0.00000000D+00
  <mgrwgt>
 0.1251794011D-02    5    2    0
 0.506024034632464D+03 0.000000000000000D+00 0.000000000000000D+00 0.506024034632464D+03
 0.506024034632464D+03 0.000000000000000D+00 0.000000000000000D+00 -.506024034632464D+03
 0.464710854454737D+03 -.217274159083778D+02 0.126942790584935D+03 -.439206568268434D+03
 0.649817252471853D+02 -.181702768080241D+02 -.424397261686111D+02 0.457311195965479D+02
 0.149928043540014D+03 0.915928632152430D+02 -.894319304708185D+02 0.780454704645496D+02
 0.332427446022991D+03 -.516951704988411D+02 0.492886605449492D+01 0.315429978207337D+03
 0.000000000000000D+00 0.000000000000000D+00 -.000000000000000D+00 -.000000000000000D+00
 0.774756084552019D+03 0.000000000000000D+00 0.000000000000000D+00 0.774756084552019D+03
 0.316568361343938D+04 0.000000000000000D+00 0.000000000000000D+00 -.316568361343938D+04
 0.678947894659512D+03 -.454302410398380D+03 0.234967951015240D+03 -.439206568268434D+03
 0.950291088622325D+02 -.786924262138934D+02 -.273257806506460D+02 0.457311195965479D+02
 0.102041297930609D+03 -.371147173844864D+01 -.656319739217488D+02 0.780454704645496D+02
 0.498799319172689D+03 -.366096571837260D+03 0.834430248748347D+02 0.315429978207337D+03
 0.256562207736636D+04 0.902802880187983D+03 -.225453221317680D+03 -.239092752888736D+04
0.344832885692D-03 0.000000000000D+00 0.000000000000D+00 0.102877519024D-04 0.000000000000D+00  7 -2 1 -24 -13 13 23 21 0 0.16018590D+00 0.37834786D-01 0.46429759D+05 0.46429759D+05 0.46429759D+05 0.11501362D+01  1  2  2  2  7  2        1 0.113827251389D-02 0.100000000000D+01
-.218022062813D-05 0.000000000000D+00 -.132424907764D-05 0.102877519024D-04 0.000000000000D+00  7 -2 1 -24 -13 13 23 21 2 0.16018590D+00 0.37834786D-01 0.46429759D+05 0.46429759D+05 0.46429759D+05 0.11501362D+01  1  2  3  2  7  2        1 -.951999084251D-05 0.100000000000D+01
0.207013490325D-04 0.000000000000D+00 0.000000000000D+00 0.102877519024D-04 0.000000000000D+00  7 -2 1 -24 -13 13 23 21 2 0.16018590D+00 0.37834786D-01 0.46429759D+05 0.46429759D+05 0.46429759D+05 0.11501362D+01  1  2 15  2  7  2        1 0.903929862298D-04 0.100000000000D+01
0.197382874989D-03 0.000000000000D+00 -.211586873014D-03 0.102877519024D-04 0.000000000000D+00  7 -2 1 -24 -13 13 23 21 2 0.16018590D+00 0.29068602D+00 0.46429759D+05 0.46429759D+05 0.46429759D+05 0.11501362D+01  1  2  5  2  7  2        1 0.302970880999D-04 0.100000000000D+01
0.252820431148D-04 0.000000000000D+00 -.525005270188D-04 0.102877519024D-04 0.000000000000D+00  7 -2 21 -24 -13 13 23 -1 2 0.16018590D+00 0.29068602D+00 0.46429759D+05 0.46429759D+05 0.46429759D+05 0.11501362D+01  1  2  5  4  7  2        1 0.235141312339D-05 0.100000000000D+01
  </mgrwgt>
  </event>
  <event>
  8     66 0.26562228E-05 0.12876958E+03 0.75467711E-02 0.97996249E-01
       -2 -1    0    0    0  501 0.00000000E+00 0.00000000E+00 0.66552886E+03 0.66552894E+03 0.32000000E+00 0.0000E+00 0.9000E+01
        1 -1    0    0  501    0 0.00000000E+00 0.00000000E+00 -.22970641E+03 0.22970663E+03 0.32000000E+00 0.0000E+00 0.9000E+01
       25  2    1    2    0    0 0.32378013E+03 0.34450486E+02 0.20486722E+03 0.48801580E+03 0.30028060E+03 0.0000E+00 0.0000E+00
       23  2    3    3    0    0 0.15489473E+03 0.70065452E+02 -.17416606E+02 0.19218468E+03 0.87920803E+02 0.0000E+00 0.0000E+00
      -24  1    1    2    0    0 -.32378013E+03 -.34450486E+02 0.23095523E+03 0.40721977E+03 0.80419002E+02 0.0000E+00 0.9000E+01
      -13  1    4    4    0    0 0.48587830E+02 0.55644485E+02 -.37805053E+02 0.82983849E+02 0.10565837E+00 0.0000E+00 0.9000E+01
       13  1    4    4    0    0 0.10630690E+03 0.14420967E+02 0.20388447E+02 0.10920083E+03 0.10565837E+00 0.0000E+00 0.9000E+01
       23  1    3    3    0    0 0.16888540E+03 -.35614965E+02 0.22228383E+03 0.29583112E+03 0.91188000E+02 0.0000E+00 0.9000E+01
#aMCatNLO 1  0  0  1  2 0.36974625D+02 0.00000000D+00  -5  7  0 0.00000000D+00 0.00000000D+00 0.00000000D+00 0.00000000D+00 0.00000000D+00
  <mgrwgt>
 0.1124088843D-02    9    2    0
 0.390994092593590D+03 0.000000000000000D+00 0.000000000000000D+00 0.390994092593590D+03
 0.390994092593590D+03 0.000000000000000D+00 0.000000000000000D+00 -.390994092593590D+03
 0.337475878201196D+03 -.323780127016537D+03 -.344504863867369D+02 0.374479071534077D+02
 0.116071302447028D+03 0.485877466331411D+02 0.556445443328958D+02 -.895291171343021D+02
 0.113652256662925D+03 0.106306983711268D+03 0.144209072443560D+02 -.375193029391172D+02
 0.214788747876030D+03 0.168885396672128D+03 -.356149651905150D+02 0.896005129200116D+02
 0.000000000000000D+00 0.000000000000000D+00 -.000000000000000D+00 0.000000000000000D+00
 0.412481488546132D+03 0.000000000000000D+00 0.000000000000000D+00 0.412481488546132D+03
 0.407667086361341D+03 0.000000000000000D+00 0.000000000000000D+00 -.407667086361341D+03
 0.338521668434826D+03 -.326158420023626D+03 -.186559197856707D+02 0.374479071534077D+02
 0.118460607802283D+03 0.477626170082472D+02 0.611243421442073D+02 -.895291171343021D+02
 0.113705054713269D+03 0.105507095743557D+03 0.197330717849533D+02 -.375193029391172D+02
 0.212174498914762D+03 0.167383255563511D+03 -.256390422434519D+02 0.896005129200116D+02
 0.372867450423345D+02 0.550545170831079D+01 -.365624519000380D+02 0.481440218479065D+01
0.476273991432D-04 0.000000000000D+00 0.000000000000D+00 0.563039954760D-06 0.000000000000D+00  7 -2 1 -24 -13 13 23 21 0 0.10238908D+00 0.35339471D-01 0.12664771D+06 0.12664771D+06 0.12664771D+06 0.11133987D+01  1  2  2  1  7  1       -2 0.531337774491D-03 0.100000000000D+01
-.261747355959D-05 0.000000000000D+00 -.182901753292D-06 0.563039954760D-06 0.000000000000D+00  7 -2 1 -24 -13 13 23 21 2 0.10238908D+00 0.35339471D-01 0.12664771D+06 0.12664771D+06 0.12664771D+06 0.11133987D+01  1  2  3  1  7  1       -2 -.361990835381D-04 0.100000000000D+01
0.309628865902D-05 0.000000000000D+00 0.000000000000D+00 0.563039954760D-06 0.000000000000D+00  7 -2 1 -24 -13 13 23 21 2 0.10238908D+00 0.35339471D-01 0.12664771D+06 0.12664771D+06 0.12664771D+06 0.11133987D+01  1  2 15  1  7  1       -2 0.428209910336D-04 0.100000000000D+01
0.941180469973D-04 0.000000000000D+00 0.000000000000D+00 0.563039954760D-06 0.000000000000D+00  7 -2 1 -24 -13 13 23 21 2 0.11009334D+00 0.35339471D-01 0.14087062D+06 0.14087062D+06 0.14087062D+06 0.11097104D+01  1  2 12  1  7  1       -2 0.108011329530D-02 0.100000000000D+01
-.792971328138D-04 0.000000000000D+00 0.000000000000D+00 0.563039954760D-06 0.000000000000D+00  7 -2 1 -24 -13 13 23 21 2 0.10238908D+00 0.35339471D-01 0.12664771D+06 0.12664771D+06 0.12664771D+06 0.11133987D+01  1  2  4  1  7  1       -2 -.109666190306D-02 0.100000000000D+01
-.344785815758D-03 0.000000000000D+00 -.668791661268D-04 0.563039954760D-06 0.000000000000D+00  7 -2 1 -24 -13 13 23 21 2 0.11161531D+00 0.35339471D-01 0.12664771D+06 0.12664771D+06 0.12664771D+06 0.11133987D+01  1  2  5  1  7  1       -2 -.385998405911D-02 0.100000000000D+01
0.349502537157D-03 0.000000000000D+00 0.666310142645D-04 0.563039954760D-06 0.000000000000D+00  7 -2 1 -24 -13 13 23 21 2 0.10238908D+00 0.35339471D-01 0.12664771D+06 0.12664771D+06 0.12664771D+06 0.11133987D+01  1  2  6  1  7  1       -2 0.483354320543D-02 0.100000000000D+01
0.116363897847D-05 0.000000000000D+00 0.000000000000D+00 0.563039954760D-06 0.000000000000D+00  7 21 1 -24 -13 13 23 2 2 0.11009334D+00 0.35339471D-01 0.14087062D+06 0.14087062D+06 0.14087062D+06 0.11097104D+01  1  2 12  3  7  1       -2 0.123930680376D-03 0.100000000000D+01
-.475636816101D-05 0.000000000000D+00 -.955036943337D-06 0.563039954760D-06 0.000000000000D+00  7 21 1 -24 -13 13 23 2 2 0.11161531D+00 0.35339471D-01 0.12664771D+06 0.12664771D+06 0.12664771D+06 0.11133987D+01  1  2  5  3  7  1       -2 -.494812058192D-03 0.100000000000D+01
  </mgrwgt>
  </event>
  <event>
  9     66 0.26562228E-05 0.37116748E+03 0.75467711E-02 0.96119251E-01
       21 -1    0    0  502  501 0.00000000E+00 0.00000000E+00 0.53161312E+03 0.53161365E+03 0.75000000E+00 0.0000E+00 0.9000E+01
        1 -1    0    0  501    0 0.00000000E+00 0.00000000E+00 -.11590295E+04 0.11590295E+04 0.32000000E+00 0.0000E+00 0.9000E+01
       25  2    1    2    0    0 -.35449370E+03 0.13342597E+03 -.77335776E+03 0.91190965E+03 0.30004784E+03 0.0000E+00 0.0000E+00
       23  2    3    3    0    0 -.15534231E+03 0.16171919E+03 -.27126208E+03 0.36338699E+03 0.90458053E+02 0.0000E+00 0.0000E+00
      -24  1    1    2    0    0 0.23153982E+03 -.16772610E+03 0.39775965E+03 0.49640980E+03 0.80419002E+02 0.0000E+00 0.9000E+01
      -11  1    4    4    0    0 -.92956377E+02 0.51489949E+02 -.17321467E+03 0.20321276E+03 0.51099893E-03 0.0000E+00 0.9000E+01
       11  1    4    4    0    0 -.62385930E+02 0.11022924E+03 -.98047403E+02 0.16017423E+03 0.51099893E-03 0.0000E+00 0.9000E+01
       23  1    3    3    0    0 -.19915140E+03 -.28293215E+02 -.50209568E+03 0.54852266E+03 0.91188000E+02 0.0000E+00 0.9000E+01
        2  1    1    2  502    0 0.12295389E+03 0.34300126E+02 -.25181823E+03 0.28232371E+03 0.32000000E+00 0.0000E+00 0.9000E+01
#aMCatNLO 2  0  0  1  2 0.12764857D+03 0.00000000D+00  -5  7  0 0.00000000D+00 0.00000000D+00 0.00000000D+00 0.00000000D+00 0.00000000D+00
  <mgrwgt>
 0.1654407550D-03    1    2    0
 0.675647015855358D+03 0.000000000000000D+00 0.000000000000000D+00 0.675647015855358D+03
 0.675647015855358D+03 0.000000000000000D+00 0.000000000000000D+00 -.675647015855358D+03
 0.644727953249170D+03 0.289183737990893D+03 -.151645321851236D+03 0.550075794585386D+03
 0.156491582658667D+03 -.784571814125256D+02 0.555347515024180D+02 -.123490799266103D+03
 0.136802454647320D+03 -.498633924895091D+02 0.113722617394459D+03 -.574083615854219D+02
 0.413272041155559D+03 -.160863164088858D+03 -.176120470456411D+02 -.369176633733861D+03
 0.000000000000000D+00 0.000000000000000D+00 0.000000000000000D+00 -.000000000000000D+00
 0.698701495542893D+03 0.000000000000000D+00 0.000000000000000D+00 0.698701495542893D+03
 0.881858077927316D+03 0.000000000000000D+00 0.000000000000000D+00 -.881858077927316D+03
 0.625134646369024D+03 0.231539817106087D+03 -.167726096485581D+03 0.550075794585386D+03
 0.162917403471974D+03 -.929563770986939D+02 0.514899486050842D+02 -.123490799266103D+03
 0.139061889466822D+03 -.623859303072506D+02 0.110229237599917D+03 -.574083615854219D+02
 0.430195795729338D+03 -.199151395644689D+03 -.282932153864859D+02 -.369176633733861D+03
 0.223249838433051D+03 0.122953885944547D+03 0.343001256670660D+02 -.183156582384424D+03
0.815634389612D-05 0.000000000000D+00 0.000000000000D+00 0.284527796586D-04 0.779808948630D-10  7 21 1 -24 -11 11 23 2 2 0.81786665D-01 0.17831224D+00 0.19290922D+06 0.19290922D+06 0.19290922D+06 0.10990315D+01  1  2  1  3  7  1       -2 0.165440754980D-03 0.100000000000D+01
  </mgrwgt>
  </event>
  <event>
  9     66 0.26562228E-05 0.24675295E+03 0.75467711E-02 0.10078058E+00
       21 -1    0    0  502  501 0.00000000E+00 0.00000000E+00 0.93056685E+02 0.93059708E+02 0.75000000E+00 0.0000E+00 0.9000E+01
        1 -1    0    0  501    0 0.00000000E+00 0.00000000E+00 -.11515036E+04 0.11515036E+04 0.32000000E+00 0.0000E+00 0.9000E+01
       25  2    1    2    0    0 -.55741584E+02 -.20852039E+03 -.54604927E+03 0.65895716E+03 0.29911011E+03 0.0000E+00 0.0000E+00
       23  2    3    3    0    0 0.78764386E+02 -.11230631E+03 -.17447261E+03 0.24214369E+03 0.96831494E+02 0.0000E+00 0.0000E+00
      -24  1    1    2    0    0 0.81360405E+02 0.11554282E+03 -.19507320E+03 0.25394966E+03 0.80419002E+02 0.0000E+00 0.9000E+01
      -11  1    4    4    0    0 -.12378945E+02 -.82218011E+01 -.62256954E+02 0.64005974E+02 0.51099893E-03 0.0000E+00 0.9000E+01
       11  1    4    4    0    0 0.91143331E+02 -.10408451E+03 -.11221565E+03 0.17813771E+03 0.51099893E-03 0.0000E+00 0.9000E+01
       23  1    3    3    0    0 -.13450597E+03 -.96214075E+02 -.37157666E+03 0.41681347E+03 0.91188000E+02 0.0000E+00 0.9000E+01
        2  1    1    2  502    0 -.25618821E+02 0.92977567E+02 -.31732443E+03 0.33165652E+03 0.32000000E+00 0.0000E+00 0.9000E+01
#aMCatNLO 2  0  0  1  2 0.96442480D+02 0.00000000D+00  -5  7  0 0.00000000D+00 0.00000000D+00 0.00000000D+00 0.00000000D+00 0.00000000D+00
  <mgrwgt>
 0.2667713217D-03    1    2    0
 0.262123629144825D+03 0.000000000000000D+00 0.000000000000000D+00 0.262123629144825D+03
 0.262123629144825D+03 0.000000000000000D+00 0.000000000000000D+00 -.262123629144825D+03
 0.182962850507371D+03 0.729605586543899D+02 0.146028111778998D+03 0.189930556391544D+02
 0.225926841313301D+02 -.134851128764864D+02 -.420722208354956D+01 -.176318005123178D+02
 0.128651281230023D+03 0.844141274114755D+02 -.796624251912671D+02 0.554914882493827D+02
 0.190040442420926D+03 -.143889573189379D+03 -.621584645041812D+02 -.568527433762193D+02
 0.000000000000000D+00 -.000000000000000D+00 0.000000000000000D+00 -.000000000000000D+00
 0.288758150352904D+03 0.000000000000000D+00 0.000000000000000D+00 0.288758150352904D+03
 0.371095578594997D+03 0.000000000000000D+00 0.000000000000000D+00 -.371095578594997D+03
 0.163699757520472D+03 0.813604048577663D+02 0.115542818975301D+03 0.189930556391544D+02
 0.230589827672153D+02 -.123789451733785D+02 -.822180110116091D+01 -.176318005123178D+02
 0.149063735910118D+03 0.911433314799970D+02 -.104084510000659D+03 0.554914882493827D+02
 0.197221930827655D+03 -.134505969938516D+03 -.962140752534934D+02 -.568527433762193D+02
 0.126809321922442D+03 -.256188212258686D+02 0.929775673800127D+02 -.823374282420930D+02
0.342198991477D-06 0.000000000000D+00 0.000000000000D+00 0.340912584428D-07 0.556700813883D-12  7 21 1 -24 -11 11 23 2 2 0.14316640D-01 0.17715452D+00 0.90329388D+05 0.90329388D+05 0.90329388D+05 0.11253649D+01  1  2  1  3  7  1       -2 0.266771321652D-03 0.100000000000D+01
  </mgrwgt>
  </event>
  <event>
  8     66 0.26562228E-05 0.23052906E+03 0.75467711E-02 0.94479971E-01
       -2 -1    0    0    0  501 0.00000000E+00 0.00000000E+00 0.16504818E+03 0.16504849E+03 0.32000000E+00 0.0000E+00 0.9000E+01
        1 -1    0    0  501    0 0.00000000E+00 0.00000000E+00 -.35937377E+03 0.35937391E+03 0.32000000E+00 0.0000E+00 0.9000E+01
       25  2    1    2    0    0 0.88385270E+02 -.95043788E+02 -.17303992E+03 0.37026154E+03 0.30050876E+03 0.0000E+00 0.0000E+00
       23  2    3    3    0    0 0.11260992E+03 0.53060676E+02 -.84136868E+02 0.17343478E+03 0.86626675E+02 0.0000E+00 0.0000E+00
      -24  1    1    2    0    0 -.88385270E+02 0.95043788E+02 -.21285669E+02 0.15416087E+03 0.80419002E+02 0.0000E+00 0.9000E+01
      -13  1    4    4    0    0 0.74322428E+02 0.97467943E+01 -.45891151E+01 0.75099230E+02 0.10565837E+00 0.0000E+00 0.9000E+01
       13  1    4    4    0    0 0.38287497E+02 0.43313881E+02 -.79547753E+02 0.98335552E+02 0.10565837E+00 0.0000E+00 0.9000E+01
       23  1    3    3    0    0 -.24224654E+02 -.14810446E+03 -.88903055E+02 0.19682675E+03 0.91188000E+02 0.0000E+00 0.9000E+01
#aMCatNLO 1  0  0  2  2 0.40672707D+03 0.00000000D+00  -5  7  0 0.00000000D+00 0.00000000D+00 0.00000000D+00 0.00000000D+00 0.00000000D+00
  <mgrwgt>
 0.1099803547D-02    5    2    0
 0.243544873473697D+03 0.000000000000000D+00 0.000000000000000D+00 0.243544873473697D+03
 0.243544873473697D+03 0.000000000000000D+00 0.000000000000000D+00 -.243544873473697D+03
 0.157484458382319D+03 -.883852736193893D+02 0.950437916102468D+02 0.385857455697756D+02
 0.790243260642114D+02 0.743224801934574D+02 0.974674368954485D+01 0.250202724854517D+02
 0.741366413041460D+02 0.382874440229443D+02 0.433139284577107D+02 -.464135412957236D+02
 0.176444321196718D+03 -.242246505970123D+02 -.148104463757502D+03 -.171924767595038D+02
 0.000000000000000D+00 -.000000000000000D+00 0.000000000000000D+00 -.000000000000000D+00
 0.405180716363185D+03 0.000000000000000D+00 0.000000000000000D+00 0.405180716363185D+03
 0.787816028975351D+03 0.000000000000000D+00 0.000000000000000D+00 -.787816028975351D+03
 0.111224033868865D+03 -.664431930567976D+02 0.109958781060911D+00 0.385857455697756D+02
 0.108997690191470D+03 0.896758997808316D+02 -.566808206567945D+02 0.250202724854517D+02
 0.685449267968193D+02 0.499384731208328D+02 -.709500361742905D+01 -.464135412957236D+02
 0.345806695393742D+03 0.184210945520149D+02 -.332614042477945D+03 -.171924767595038D+02
 0.558423399087640D+03 -.915922743968817D+02 0.396279907971107D+03 -.382635312612167D+03
0.105072609345D-04 0.000000000000D+00 0.000000000000D+00 0.483879058504D-07 0.000000000000D+00  7 -2 1 -24 -13 13 23 21 0 0.25392062D-01 0.55288307D-01 0.53143648D+05 0.53143648D+05 0.53143648D+05 0.11449734D+01  1  2  2  2  7  2        1 0.106187254449D-02 0.100000000000D+01
-.581595666264D-06 0.000000000000D+00 -.403506486138D-07 0.483879058504D-07 0.000000000000D+00  7 -2 1 -24 -13 13 23 21 2 0.25392062D-01 0.55288307D-01 0.53143648D+05 0.53143648D+05 0.53143648D+05 0.11449734D+01  1  2  3  2  7  2        1 -.770539312180D-04 0.100000000000D+01
0.663686967920D-06 0.000000000000D+00 0.000000000000D+00 0.483879058504D-07 0.000000000000D+00  7 -2 1 -24 -13 13 23 21 2 0.25392062D-01 0.55288307D-01 0.53143648D+05 0.53143648D+05 0.53143648D+05 0.11449734D+01  1  2 15  2  7  2        1 0.879299708420D-04 0.100000000000D+01
0.206214805573D-05 0.000000000000D+00 -.425276721368D-05 0.483879058504D-07 0.000000000000D+00  7 -2 1 -24 -13 13 23 21 2 0.25392062D-01 0.24635000D+00 0.53143648D+05 0.53143648D+05 0.53143648D+05 0.11449734D+01  1  2  5  2  7  2        1 0.240019557715D-04 0.100000000000D+01
0.342560443579D-06 0.000000000000D+00 -.767623542229D-06 0.483879058504D-07 0.000000000000D+00  7 -2 21 -24 -13 13 23 -1 2 0.25392062D-01 0.24635000D+00 0.53143648D+05 0.53143648D+05 0.53143648D+05 0.11449734D+01  1  2  5  4  7  2        1 0.305300717139D-05 0.100000000000D+01
  </mgrwgt>
  </event>
  <event>
  8     66 0.26562228E-05 0.53857126E+03 0.75467711E-02 0.91733872E-01
       -2 -1    0    0    0  501 0.00000000E+00 0.00000000E+00 0.24584862E+03 0.24584882E+03 0.32000000E+00 0.0000E+00 0.9000E+01
        1 -1    0    0  501    0 0.00000000E+00 0.00000000E+00 -.18835790E+04 0.18835790E+04 0.32000000E+00 0.0000E+00 0.9000E+01
       25  2    1    2    0    0 0.52018237E+03 -.35726766E+03 -.64243927E+03 0.94819904E+03 0.29685572E+03 0.0000E+00 0.0000E+00
       23  2    3    3    0    0 0.22825489E+03 -.71274444E+02 -.36681044E+03 0.44690045E+03 0.89385513E+02 0.0000E+00 0.0000E+00
      -24  1    1    2    0    0 -.52018237E+03 0.35726766E+03 -.99529106E+03 0.11812288E+04 0.80419002E+02 0.0000E+00 0.9000E+01
      -11  1    4    4    0    0 0.50653873E+02 -.34598251E+02 -.16262211E+03 0.17380680E+03 0.51099893E-03 0.0000E+00 0.9000E+01
       11  1    4    4    0    0 0.17760102E+03 -.36676193E+02 -.20418833E+03 0.27309364E+03 0.51099893E-03 0.0000E+00 0.9000E+01
       23  1    3    3    0    0 0.29192748E+03 -.28599321E+03 -.27562883E+03 0.50129859E+03 0.91188000E+02 0.0000E+00 0.9000E+01
#aMCatNLO 1  0  0  1  2 0.34990780D+01 0.00000000D+00  -5  7  0 0.00000000D+00 0.00000000D+00 0.00000000D+00 0.00000000D+00 0.00000000D+00
  <mgrwgt>
 0.3845084808D-03   10    2    0
 0.680496531599504D+03 0.000000000000000D+00 0.000000000000000D+00 0.680496531599504D+03
 0.680496531599504D+03 0.000000000000000D+00 0.000000000000000D+00 -.680496531599504D+03
 0.650497810805633D+03 -.520182372542755D+03 0.357267657104379D+03 -.135831904910034D+03
 0.762515823587990D+02 0.506538726858410D+02 -.345982506195742D+02 -.452929359637069D+02
 0.181579017715484D+03 0.177601021832486D+03 -.366761931806992D+02 0.914732596712769D+01
 0.452664652319092D+03 0.291927478024428D+03 -.285993213304105D+03 0.171977514906613D+03
 0.000000000000000D+00 0.000000000000000D+00 0.000000000000000D+00 0.000000000000000D+00
 0.684641002303183D+03 0.000000000000000D+00 0.000000000000000D+00 0.684641002303183D+03
 0.681237728690256D+03 0.000000000000000D+00 0.000000000000000D+00 -.681237728690256D+03
 0.650959701885514D+03 -.521481492869223D+03 0.356213508626363D+03 -.135831904910034D+03
 0.762067559361063D+02 0.505016881356063D+02 -.347217381124099D+02 -.452929359637069D+02
 0.181284466796456D+03 0.177238809986256D+03 -.369701036512260D+02 0.914732596712769D+01
 0.452546636593177D+03 0.291023892333995D+03 -.286726412116348D+03 0.171977514906613D+03
 0.488116978218666D+01 0.271710241336619D+01 0.220474525362068D+01 0.340327361292754D+01
0.183397791735D-03 0.000000000000D+00 0.000000000000D+00 0.160421540294D-06 0.000000000000D+00  7 -2 1 -24 -11 11 23 21 0 0.37822882D-01 0.28978140D+00 0.42092310D+06 0.42092310D+06 0.42092310D+06 0.10738350D+01  1  2  2  1  7  1       -2 0.477505396658D-03 0.100000000000D+01
-.101605561390D-04 0.000000000000D+00 -.704295810009D-06 0.160421540294D-06 0.000000000000D+00  7 -2 1 -24 -11 11 23 21 2 0.37822882D-01 0.28978140D+00 0.42092310D+06 0.42092310D+06 0.42092310D+06 0.10738350D+01  1  2  3  1  7  1       -2 -.305054034787D-04 0.100000000000D+01
0.116409443350D-04 0.000000000000D+00 0.000000000000D+00 0.160421540294D-06 0.000000000000D+00  7 -2 1 -24 -11 11 23 21 2 0.37822882D-01 0.28978140D+00 0.42092310D+06 0.42092310D+06 0.42092310D+06 0.10738350D+01  1  2 15  1  7  1       -2 0.349500262536D-04 0.100000000000D+01
-.112333600287D-01 0.000000000000D+00 0.000000000000D+00 0.160421540294D-06 0.000000000000D+00  7 -2 1 -24 -11 11 23 21 2 0.37822882D-01 0.28978140D+00 0.42092310D+06 0.42092310D+06 0.42092310D+06 0.10738350D+01  1  2  4  1  7  1       -2 -.337263212178D-01 0.100000000000D+01
-.404663107797D-01 0.000000000000D+00 -.325741780491D-02 0.160421540294D-06 0.000000000000D+00  7 -2 1 -24 -11 11 23 21 2 0.38088719D-01 0.28978140D+00 0.42092310D+06 0.42092310D+06 0.42092310D+06 0.10738350D+01  1  2  5  1  7  1       -2 -.119915796876D+00 0.100000000000D+01
0.404882121484D-01 0.000000000000D+00 0.325733791149D-02 0.160421540294D-06 0.000000000000D+00  7 -2 1 -24 -11 11 23 21 2 0.37822882D-01 0.28978140D+00 0.42092310D+06 0.42092310D+06 0.42092310D+06 0.10738350D+01  1  2  6  1  7  1       -2 0.121559216918D+00 0.100000000000D+01
0.112335916977D-01 0.000000000000D+00 0.000000000000D+00 0.160421540294D-06 0.805568909941D-07  7 -2 1 -24 -11 11 23 21 2 0.38053237D-01 0.29009703D+00 0.42319244D+06 0.42319244D+06 0.42319244D+06 0.10736675D+01  1  2 11  1  7  1       -2 0.332226381525D-01 0.100000000000D+01
0.616292284122D-06 0.000000000000D+00 0.000000000000D+00 0.160421540294D-06 0.000000000000D+00  7 21 1 -24 -11 11 23 2 2 0.38073761D-01 0.28978140D+00 0.42319244D+06 0.42319244D+06 0.42319244D+06 0.10736675D+01  1  2 12  3  7  1       -2 0.199100515531D-04 0.100000000000D+01
-.525280598302D-04 0.000000000000D+00 -.423313413726D-05 0.160421540294D-06 0.000000000000D+00  7 21 1 -24 -11 11 23 2 2 0.38088719D-01 0.28978140D+00 0.42092310D+06 0.42092310D+06 0.42092310D+06 0.10738350D+01  1  2  5  3  7  1       -2 -.169683323397D-02 0.100000000000D+01
0.136395367453D-04 0.000000000000D+00 0.000000000000D+00 0.160421540294D-06 0.909089105584D-10  7 21 1 -24 -11 11 23 2 2 0.38053237D-01 0.29009703D+00 0.42319244D+06 0.42319244D+06 0.42319244D+06 0.10736675D+01  1  2 11  3  7  1       -2 0.439744666960D-03 0.100000000000D+01
  </mgrwgt>
  </event>
  <event>
  8     66 0.26562228E-05 0.19601038E+03 0.75467711E-02 0.10375225E+00
       -2 -1    0    0    0  501 0.00000000E+00 0.00000000E+00 0.68212531E+02 0.68213281E+02 0.32000000E+00 0.0000E+00 0.9000E+01
        1 -1    0    0  501    0 0.00000000E+00 0.00000000E+00 -.17681168E+04 0.17681168E+04 0.32000000E+00 0.0000E+00 0.9000E+01
       25  2    1    2    0    0 -.70986319E+02 0.80409825E+02 -.32728188E+03 0.45717666E+03 0.30065308E+03 0.0000E+00 0.0000E+00
       23  2    3    3    0    0 -.10797989E+03 0.75320352E+02 -.59563992E+02 0.17190040E+03 0.93107813E+02 0.0000E+00 0.0000E+00
      -24  1    1    2    0    0 0.70986319E+02 -.80409825E+02 -.13726224E+04 0.13791534E+04 0.80419002E+02 0.0000E+00 0.9000E+01
      -11  1    4    4    0    0 0.95645629E+01 0.33215786E+02 -.26033151E+01 0.34663331E+02 0.51099893E-03 0.0000E+00 0.9000E+01
       11  1    4    4    0    0 -.11754446E+03 0.42104566E+02 -.56960677E+02 0.13723707E+03 0.51099893E-03 0.0000E+00 0.9000E+01
       23  1    3    3    0    0 0.36993574E+02 0.50894732E+01 -.26771789E+03 0.28527626E+03 0.91188000E+02 0.0000E+00 0.9000E+01
#aMCatNLO 1  0  0  2  2 0.81711393D+02 0.00000000D+00  -5  7  0 0.00000000D+00 0.00000000D+00 0.00000000D+00 0.00000000D+00 0.00000000D+00
  <mgrwgt>
 0.3906088807D-03    4    2    0
 0.347287253058126D+03 0.000000000000000D+00 0.000000000000000D+00 0.347287253058126D+03
 0.347287253058126D+03 0.000000000000000D+00 0.000000000000000D+00 -.347287253058126D+03
 0.286872527651978D+03 0.709863186541833D+02 -.804098249431975D+02 -.253621437941660D+03
 0.852722519416545D+02 0.956456287948327D+01 0.332157858528093D+02 0.779524705080328D+02
 0.223424350404547D+03 -.117544455981377D+03 0.421045658460772D+02 0.185280724190752D+03
 0.990053761180724D+02 0.369935744477103D+02 0.508947324431101D+01 -.961175675712457D+01
 0.000000000000000D+00 -.000000000000000D+00 -.000000000000000D+00 0.000000000000000D+00
 0.399710049262373D+03 0.000000000000000D+00 0.000000000000000D+00 0.399710049262373D+03
 0.383047334098027D+03 0.000000000000000D+00 0.000000000000000D+00 -.383047334098027D+03
 0.294060921429856D+03 0.103543182325430D+03 -.704243222767018D+02 -.253621437941660D+03
 0.880818448673729D+02 0.192797302632580D+02 0.361955209647579D+02 0.779524705080328D+02
 0.213197184045315D+03 -.930751681559272D+02 0.496095313518324D+02 0.185280724190752D+03
 0.104024401211011D+03 0.483718360922303D+02 0.857929533340202D+01 -.961175675712457D+01
 0.833930318068447D+02 -.781195805249911D+02 -.239600253732906D+02 0.166627151643458D+02
0.343830857999D-04 0.000000000000D+00 0.000000000000D+00 0.943601348318D-06 0.000000000000D+00  7 -2 1 -24 -11 11 23 21 0 0.10494295D-01 0.27201803D+00 0.38420071D+05 0.38420071D+05 0.38420071D+05 0.11574971D+01  1  2  2  2  7  2        1 0.990983344023D-03 0.100000000000D+01
-.115033074300D-05 0.000000000000D+00 -.132040102746D-06 0.943601348318D-06 0.000000000000D+00  7 -2 1 -24 -11 11 23 21 2 0.10494295D-01 0.27201803D+00 0.38420071D+05 0.38420071D+05 0.38420071D+05 0.11574971D+01  1  2  3  2  7  2        1 -.444205603400D-04 0.100000000000D+01
0.212779430403D-05 0.000000000000D+00 0.000000000000D+00 0.943601348318D-06 0.000000000000D+00  7 -2 1 -24 -11 11 23 21 2 0.10494295D-01 0.27201803D+00 0.38420071D+05 0.38420071D+05 0.38420071D+05 0.11574971D+01  1  2 15  2  7  2        1 0.821657734949D-04 0.100000000000D+01
-.165249757301D-04 0.000000000000D+00 0.000000000000D+00 0.943601348318D-06 0.000000000000D+00  7 -2 1 -24 -11 11 23 21 2 0.10494295D-01 0.27201803D+00 0.38420071D+05 0.38420071D+05 0.38420071D+05 0.11574971D+01  1  2  4  2  7  2        1 -.638119676453D-03 0.100000000000D+01
  </mgrwgt>
  </event>
  <event>
  8     66 0.26562228E-05 0.41223309E+03 0.75467711E-02 0.87059959E-01
       -2 -1    0    0    0  501 0.00000000E+00 0.00000000E+00 0.97418426E+02 0.97418952E+02 0.32000000E+00 0.0000E+00 0.9000E+01
        1 -1    0    0  501    0 0.00000000E+00 0.00000000E+00 -.23222613E+04 0.23222614E+04 0.32000000E+00 0.0000E+00 0.9000E+01
       25  2    1    2    0    0 -.37996796E+03 0.32546360E+02 -.74153912E+03 0.88602707E+03 0.29954763E+03 0.0000E+00 0.0000E+00
       23  2    3    3    0    0 -.12451564E+03 0.78622013E+02 -.14159502E+03 0.22600659E+03 0.96665732E+02 0.0000E+00 0.0000E+00
      -24  1    1    2    0    0 0.37996796E+03 -.32546360E+02 -.14833038E+04 0.15336532E+04 0.80419002E+02 0.0000E+00 0.9000E+01
      -13  1    4    4    0    0 -.28646364E+02 0.53182882E+02 -.10018244E+02 0.61232422E+02 0.10565837E+00 0.0000E+00 0.9000E+01
       13  1    4    4    0    0 -.95869278E+02 0.25439131E+02 -.13157677E+03 0.16477417E+03 0.10565837E+00 0.0000E+00 0.9000E+01
       23  1    3    3    0    0 -.25545232E+03 -.46075653E+02 -.59994411E+03 0.66002048E+03 0.91188000E+02 0.0000E+00 0.9000E+01
#aMCatNLO 1  0  0  1  2 0.88270551D+03 0.00000000D+00  -5  7  0 0.00000000D+00 0.00000000D+00 0.00000000D+00 0.00000000D+00 0.00000000D+00
  <mgrwgt>
 0.1415198529D-02    3    2    0
 0.475638210943715D+03 0.000000000000000D+00 0.000000000000000D+00 0.475638210943715D+03
 0.475638210943715D+03 0.000000000000000D+00 0.000000000000000D+00 -.475638210943715D+03
 0.431875134949571D+03 0.379967963213655D+03 -.325463604343869D+02 -.186048374319910D+03
 0.132321046110927D+03 -.286462845891654D+02 0.531829154953003D+02 0.117727766998897D+03
 0.111390473325826D+03 -.958693542940806D+02 0.254390983458855D+02 0.506927680279548D+02
 0.275689767501106D+03 -.255452324330409D+03 -.460756534067989D+02 0.176278392930582D+02
 0.000000000000000D+00 -.000000000000000D+00 0.000000000000000D+00 -.000000000000000D+00
 0.102734924741210D+04 0.000000000000000D+00 0.000000000000000D+00 0.102734924741210D+04
 0.116352578455220D+04 0.000000000000000D+00 0.000000000000000D+00 -.116352578455220D+04
 0.625882752694069D+03 0.387651546099691D+03 -.447631863683733D+03 -.186048374319910D+03
 0.130678964512495D+03 -.267358451547167D+02 -.500235867104157D+02 0.117727766998897D+03
 0.126710655115244D+03 -.941397810363370D+02 -.679965809127840D+02 0.506927680279548D+02
 0.414454815284554D+03 -.250439094774640D+03 -.316902290397009D+03 0.176278392930582D+02
 0.893147844357938D+03 -.163368251339973D+02 0.882554321703942D+03 -.136176537140091D+03
0.205979479031D-03 0.000000000000D+00 0.000000000000D+00 0.359469343128D-06 0.000000000000D+00  7 -2 1 -24 -13 13 23 21 0 0.14987492D-01 0.35727102D+00 0.16993612D+06 0.16993612D+06 0.16993612D+06 0.11033004D+01  1  2  2  1  7  1       -2 0.139855387271D-02 0.100000000000D+01
-.111585166109D-04 0.000000000000D+00 -.791015435121D-06 0.359469343128D-06 0.000000000000D+00  7 -2 1 -24 -13 13 23 21 2 0.14987492D-01 0.35727102D+00 0.16993612D+06 0.16993612D+06 0.16993612D+06 0.11033004D+01  1  2  3  1  7  1       -2 -.922251294527D-04 0.100000000000D+01
0.131723892913D-04 0.000000000000D+00 0.000000000000D+00 0.359469343128D-06 0.000000000000D+00  7 -2 1 -24 -13 13 23 21 2 0.14987492D-01 0.35727102D+00 0.16993612D+06 0.16993612D+06 0.16993612D+06 0.11033004D+01  1  2 15  1  7  1       -2 0.108869785291D-03 0.100000000000D+01
  </mgrwgt>
  </event>
  <event>
  8     66 0.26562228E-05 0.17512336E+03 0.75467711E-02 0.94770196E-01
       -2 -1    0    0    0  501 0.00000000E+00 0.00000000E+00 0.92326249E+02 0.92326804E+02 0.32000000E+00 0.0000E+00 0.9000E+01
        1 -1    0    0  501    0 0.00000000E+00 0.00000000E+00 -.18288233E+04 0.18288234E+04 0.32000000E+00 0.0000E+00 0.9000E+01
       25  2    1    2    0    0 0.27457095E+01 -.31940146E+02 -.17927670E+04 0.18178970E+04 0.29951328E+03 0.0000E+00 0.0000E+00
       23  2    3    3    0    0 -.88573654E+02 -.51782074E+02 -.50242453E+03 0.52096526E+03 0.91911510E+02 0.0000E+00 0.0000E+00
      -24  1    1    2    0    0 -.27457095E+01 0.31940146E+02 0.56269881E+02 0.10325322E+03 0.80419002E+02 0.0000E+00 0.9000E+01
      -13  1    4    4    0    0 -.51557801E+02 0.17589126E+02 -.27466676E+03 0.28001683E+03 0.10565837E+00 0.0000E+00 0.9000E+01
       13  1    4    4    0    0 -.37015853E+02 -.69371200E+02 -.22775776E+03 0.24094843E+03 0.10565837E+00 0.0000E+00 0.9000E+01
       23  1    3    3    0    0 0.91319363E+02 0.19841928E+02 -.12903424E+04 0.12969317E+04 0.91188000E+02 0.0000E+00 0.9000E+01
#aMCatNLO 1  0  0  2  2 0.44236612D+03 0.00000000D+00  -5  7  0 0.00000000D+00 0.00000000D+00 0.00000000D+00 0.00000000D+00 0.00000000D+00
  <mgrwgt>
 0.1126705293D-02    5    2    0
 0.410912349966694D+03 0.000000000000000D+00 0.000000000000000D+00 0.410912349966694D+03
 0.410912349966694D+03 0.000000000000000D+00 0.000000000000000D+00 -.410912349966694D+03
 0.360268346126242D+03 -.274570949677622D+01 0.319401460876847D+02 0.349711814803880D+03
 0.742206227542233D+02 -.515578198071145D+02 0.175892409423762D+02 -.504094302867319D+02
 0.820095035271799D+02 -.370158341194462D+02 -.693713146140560D+02 -.233025192186132D+02
 0.305326227525743D+03 0.913193634233369D+02 0.198419275839951D+02 -.275999865298535D+03
 0.000000000000000D+00 0.000000000000000D+00 0.000000000000000D+00 -.000000000000000D+00
 0.610703260618051D+03 0.000000000000000D+00 0.000000000000000D+00 0.610703260618051D+03
 0.806291364741376D+03 0.000000000000000D+00 0.000000000000000D+00 -.806291364741376D+03
 0.393087067145686D+03 -.568816596042996D+02 -.150054489403229D+03 0.349711814803880D+03
 0.831275164240040D+02 -.628648216046704D+02 -.204227209157627D+02 -.504094302867319D+02
 0.134607041142547D+03 -.525818501699230D+02 -.121701261932345D+03 -.233025192186132D+02
 0.322496982114739D+03 0.462041291598323D+02 -.131826798993552D+03 -.275999865298535D+03
 0.483676018532450D+03 0.126124202219061D+03 0.424005271244888D+03 -.195588104123325D+03
0.626920814487D-04 0.000000000000D+00 0.000000000000D+00 0.482096831243D-05 0.000000000000D+00  7 -2 1 -24 -13 13 23 21 0 0.14204083D-01 0.28135748D+00 0.30668192D+05 0.30668192D+05 0.30668192D+05 0.11664493D+01  1  2  2  2  7  2        1 0.103977626463D-02 0.100000000000D+01
-.402494219331D-06 0.000000000000D+00 -.240754099967D-06 0.482096831243D-05 0.000000000000D+00  7 -2 1 -24 -13 13 23 21 2 0.14204083D-01 0.28135748D+00 0.30668192D+05 0.30668192D+05 0.30668192D+05 0.11664493D+01  1  2  3  2  7  2        1 -.908277611943D-05 0.100000000000D+01
0.391388676899D-05 0.000000000000D+00 0.000000000000D+00 0.482096831243D-05 0.000000000000D+00  7 -2 1 -24 -13 13 23 21 2 0.14204083D-01 0.28135748D+00 0.30668192D+05 0.30668192D+05 0.30668192D+05 0.11664493D+01  1  2 15  2  7  2        1 0.883216592246D-04 0.100000000000D+01
0.122286154120D-04 0.000000000000D+00 -.156091863392D-04 0.482096831243D-05 0.000000000000D+00  7 -2 1 -24 -13 13 23 21 2 0.14204083D-01 0.61023595D+00 0.30668192D+05 0.30668192D+05 0.30668192D+05 0.11664493D+01  1  2  5  2  7  2        1 0.757443129724D-05 0.100000000000D+01
0.200468882063D-05 0.000000000000D+00 -.130868364478D-05 0.482096831243D-05 0.000000000000D+00  7 -2 21 -24 -13 13 23 -1 2 0.14204083D-01 0.61023595D+00 0.30668192D+05 0.30668192D+05 0.30668192D+05 0.11664493D+01  1  2  5  4  7  2        1 0.115714085246D-06 0.100000000000D+01
  </mgrwgt>
  </event>
  <event>
  8     66 0.26562228E-05 0.21641127E+03 0.75467711E-02 0.91748771E-01
       -2 -1    0    0    0  501 0.00000000E+00 0.00000000E+00 0.60575645E+03 0.60575653E+03 0.32000000E+00 0.0000E+00 0.9000E+01
        1 -1    0    0  501    0 0.00000000E+00 0.00000000E+00 -.70842373E+03 0.70842380E+03 0.32000000E+00 0.0000E+00 0.9000E+01
       25  2    1    2    0    0 -.45110743E+03 -.22095975E+03 0.30731255E+03 0.66082606E+03 0.29988156E+03 0.0000E+00 0.0000E+00
       23  2    3    3    0    0 -.41015794E+03 -.17224073E+03 0.17057096E+03 0.48457647E+03 0.88450520E+02 0.0000E+00 0.0000E+00
      -24  1    1    2    0    0 0.45110743E+03 0.22095975E+03 -.40997983E+03 0.65335427E+03 0.80419002E+02 0.0000E+00 0.9000E+01
      -11  1    4    4    0    0 -.46931899E+02 -.52121036E+02 0.37418984E+02 0.79494565E+02 0.51099893E-03 0.0000E+00 0.9000E+01
       11  1    4    4    0    0 -.36322604E+03 -.12011969E+03 0.13315198E+03 0.40508190E+03 0.51099893E-03 0.0000E+00 0.9000E+01
       23  1    3    3    0    0 -.40949489E+02 -.48719024E+02 0.13674159E+03 0.17624959E+03 0.91188000E+02 0.0000E+00 0.9000E+01
#aMCatNLO 1  0  0  2  1 0.20407510D+03 0.00000000D+00  -5  7  0 0.00000000D+00 0.00000000D+00 0.00000000D+00 0.00000000D+00 0.00000000D+00
  <mgrwgt>
 0.1863175725D-02    9    2    0
 0.655081937103675D+03 0.000000000000000D+00 0.000000000000000D+00 0.655081937103675D+03
 0.655081937103675D+03 0.000000000000000D+00 0.000000000000000D+00 -.655081937103675D+03
 0.623230298258626D+03 0.451107431633422D+03 0.220959753720798D+03 -.360038416108486D+03
 0.826704973891668D+02 -.469318986993956D+02 -.521210356729601D+02 0.437630627746726D+02
 0.416757806094236D+03 -.363226044030772D+03 -.120119694539835D+03 0.165303263312898D+03
 0.187505272465321D+03 -.409494889032545D+02 -.487190235080025D+02 0.150972090020915D+03
 0.000000000000000D+00 -.000000000000000D+00 0.000000000000000D+00 -.000000000000000D+00
 0.745227053401640D+03 0.000000000000000D+00 0.000000000000000D+00 0.745227053401640D+03
 0.789573015053260D+03 0.000000000000000D+00 0.000000000000000D+00 -.789573015053260D+03
 0.640793797298352D+03 0.505081182461501D+03 0.139337047302774D+03 -.360038416108486D+03
 0.864071047419128D+02 -.397122955287686D+02 -.630390011841535D+02 0.437630627746726D+02
 0.406183417103432D+03 -.328086504616016D+03 -.173260050088797D+03 0.165303263312898D+03
 0.192577982639968D+03 -.247199573800136D+02 -.732624036974409D+02 0.150972090020915D+03
 0.208837766671235D+03 -.112562424936703D+03 0.170224407667618D+03 -.443459616516202D+02
0.453761010867D-03 0.000000000000D+00 0.000000000000D+00 0.492523713237D-05 0.000000000000D+00  7 -2 1 -24 -11 11 23 21 0 0.93193312D-01 0.10898828D+00 0.28763013D+06 0.28763013D+06 0.28763013D+06 0.10859074D+01  1  2  2  2  7  2        1 0.131537414131D-02 0.100000000000D+01
-.239823772598D-04 0.000000000000D+00 -.174256175975D-05 0.492523713237D-05 0.000000000000D+00  7 -2 1 -24 -11 11 23 21 2 0.93193312D-01 0.10898828D+00 0.28763013D+06 0.28763013D+06 0.28763013D+06 0.10859074D+01  1  2  3  2  7  2        1 -.819784957239D-04 0.100000000000D+01
0.288124126575D-04 0.000000000000D+00 0.000000000000D+00 0.492523713237D-05 0.000000000000D+00  7 -2 1 -24 -11 11 23 21 2 0.93193312D-01 0.10898828D+00 0.28763013D+06 0.28763013D+06 0.28763013D+06 0.10859074D+01  1  2 15  2  7  2        1 0.984889121813D-04 0.100000000000D+01
0.284505253072D-03 0.000000000000D+00 0.000000000000D+00 0.492523713237D-05 0.000000000000D+00  7 -2 1 -24 -11 11 23 21 2 0.93193312D-01 0.13757895D+00 0.42200980D+06 0.42200980D+06 0.42200980D+06 0.10737547D+01  1  2 12  2  7  2        1 0.644258495940D-03 0.100000000000D+01
-.308346537426D-03 0.000000000000D+00 0.000000000000D+00 0.492523713237D-05 0.000000000000D+00  7 -2 1 -24 -11 11 23 21 2 0.93193312D-01 0.10898828D+00 0.28763013D+06 0.28763013D+06 0.28763013D+06 0.10859074D+01  1  2  4  2  7  2        1 -.105401499718D-02 0.100000000000D+01
-.638235666519D-03 0.000000000000D+00 -.243303372871D-03 0.492523713237D-05 0.000000000000D+00  7 -2 1 -24 -11 11 23 21 2 0.93193312D-01 0.14442632D+00 0.28763013D+06 0.28763013D+06 0.28763013D+06 0.10859074D+01  1  2  5  2  7  2        1 -.138576768042D-02 0.100000000000D+01
0.688596786975D-03 0.000000000000D+00 0.233969899017D-03 0.492523713237D-05 0.000000000000D+00  7 -2 1 -24 -11 11 23 21 2 0.93193312D-01 0.10898828D+00 0.28763013D+06 0.28763013D+06 0.28763013D+06 0.10859074D+01  1  2  6  2  7  2        1 0.235381706096D-02 0.100000000000D+01
0.913724559494D-05 0.000000000000D+00 0.000000000000D+00 0.492523713237D-05 0.000000000000D+00  7 -2 21 -24 -11 11 23 -1 2 0.93193312D-01 0.13757895D+00 0.42200980D+06 0.42200980D+06 0.42200980D+06 0.10737547D+01  1  2 12  4  7  2        1 0.311162235115D-04 0.100000000000D+01
-.186233266367D-04 0.000000000000D+00 -.898184223873D-05 0.492523713237D-05 0.000000000000D+00  7 -2 21 -24 -11 11 23 -1 2 0.93193312D-01 0.14442632D+00 0.28763013D+06 0.28763013D+06 0.28763013D+06 0.10859074D+01  1  2  5  4  7  2        1 -.581179352954D-04 0.100000000000D+01
  </mgrwgt>
  </event>
  <event>
  8     66 0.26562228E-05 0.26941724E+03 0.75467711E-02 0.92934926E-01
       -4 -1    0    0    0  501 0.00000000E+00 0.00000000E+00 0.17560368E+04 0.17560375E+04 0.15500000E+01 0.0000E+00 0.9000E+01
        3 -1    0    0  501    0 0.00000000E+00 0.00000000E+00 -.19058561E+03 0.19058627E+03 0.50000000E+00 0.0000E+00 0.9000E+01
       25  2    1    2    0    0 -.39462417E+03 -.22119964E+03 0.34762276E+03 0.64499753E+03 0.30086993E+03 0.0000E+00 0.0000E+00
       23  2    3    3    0    0 -.23331072E+02 -.99130603E+02 0.12896462E+03 0.18795700E+03 0.91240036E+02 0.0000E+00 0.0000E+00
      -24  1    1    2    0    0 0.39462417E+03 0.22119964E+03 0.12178285E+04 0.13016263E+04 0.80419002E+02 0.0000E+00 0.9000E+01
      -13  1    4    4    0    0 0.10009547E+02 -.99835263E+02 0.78163518E+02 0.12718812E+03 0.10565837E+00 0.0000E+00 0.9000E+01
       13  1    4    4    0    0 -.33340619E+02 0.70465961E+00 0.50801105E+02 0.60768880E+02 0.10565837E+00 0.0000E+00 0.9000E+01
       23  1    3    3    0    0 -.37129310E+03 -.12206904E+03 0.21865814E+03 0.45704053E+03 0.91188000E+02 0.0000E+00 0.9000E+01
#aMCatNLO 1  0  0  1  2 0.15798101D+03 0.00000000D+00  -5  7  0 0.00000000D+00 0.00000000D+00 0.00000000D+00 0.00000000D+00 0.00000000D+00
  <mgrwgt>
 0.9124679536D-04    9    2    0
 0.578512451259913D+03 0.000000000000000D+00 0.000000000000000D+00 0.578512451259913D+03
 0.578512451259913D+03 0.000000000000000D+00 0.000000000000000D+00 -.578512451259913D+03
 0.542188471666528D+03 0.394624171058964D+03 0.221199641548084D+03 0.287825650435709D+03
 0.108231341603332D+03 0.100096055256274D+02 -.998353975466709D+02 -.405798533656364D+02
 0.335060900454321D+02 -.333406772601408D+02 0.704794424950677D+00 0.324970379977890D+01
 0.473098999204534D+03 -.371293099324451D+03 -.122069038426364D+03 -.250495500869852D+03
 0.000000000000000D+00 -.000000000000000D+00 -.000000000000000D+00 0.000000000000000D+00
 0.974069772921952D+03 0.000000000000000D+00 0.000000000000000D+00 0.974069772921952D+03
 0.599871205015458D+03 0.000000000000000D+00 0.000000000000000D+00 -.599871205015458D+03
 0.605732891300213D+03 0.446863095293798D+03 0.279132385552539D+03 0.287825650435709D+03
 0.100027190144860D+03 0.194869112124341D+02 -.893251059920906D+02 -.405798533656364D+02
 0.308398758729281D+02 -.304124592245959D+02 0.395217572782462D+01 0.324970379977890D+01
 0.431160559240737D+03 -.330142591906274D+03 -.764333013427690D+02 -.250495500869852D+03
 0.406180461378672D+03 -.105794955375362D+03 -.117326153945504D+03 0.374198567906495D+03
0.109567882912D-02 0.000000000000D+00 0.000000000000D+00 0.641824875518D-05 0.000000000000D+00  7 -4 3 -24 -13 13 23 21 0 0.27015962D+00 0.29320966D-01 0.24726167D+06 0.24726167D+06 0.24726167D+06 0.10908191D+01  1  2  2  1  7  1       -4 0.823166876448D-04 0.100000000000D+01
-.591755066084D-04 0.000000000000D+00 -.420769520269D-05 0.641824875518D-05 0.000000000000D+00  7 -4 3 -24 -13 13 23 21 2 0.27015962D+00 0.29320966D-01 0.24726167D+06 0.24726167D+06 0.24726167D+06 0.10908191D+01  1  2  3  1  7  1       -4 -.528995638900D-05 0.100000000000D+01
0.700056222921D-04 0.000000000000D+00 0.000000000000D+00 0.641824875518D-05 0.000000000000D+00  7 -4 3 -24 -13 13 23 21 2 0.27015962D+00 0.29320966D-01 0.24726167D+06 0.24726167D+06 0.24726167D+06 0.10908191D+01  1  2 15  1  7  1       -4 0.625810762147D-05 0.100000000000D+01
0.211740573738D-02 0.000000000000D+00 0.000000000000D+00 0.641824875518D-05 0.000000000000D+00  7 -4 3 -24 -13 13 23 21 2 0.45690058D+00 0.29320966D-01 0.33871560D+06 0.33871560D+06 0.33871560D+06 0.10806733D+01  1  2 12  1  7  1       -4 0.456751363300D-05 0.100000000000D+01
-.210697224866D-02 0.000000000000D+00 0.000000000000D+00 0.641824875518D-05 0.000000000000D+00  7 -4 3 -24 -13 13 23 21 2 0.27015962D+00 0.29320966D-01 0.24726167D+06 0.24726167D+06 0.24726167D+06 0.10908191D+01  1  2  4  1  7  1       -4 -.188351430298D-03 0.100000000000D+01
-.233420712321D-02 0.000000000000D+00 -.286680071635D-03 0.641824875518D-05 0.000000000000D+00  7 -4 3 -24 -13 13 23 21 2 0.45856442D+00 0.29320966D-01 0.24726167D+06 0.24726167D+06 0.24726167D+06 0.10908191D+01  1  2  5  1  7  1       -4 -.502307101932D-05 0.100000000000D+01
0.220580102536D-02 0.000000000000D+00 0.250756077057D-03 0.641824875518D-05 0.000000000000D+00  7 -4 3 -24 -13 13 23 21 2 0.27015962D+00 0.29320966D-01 0.24726167D+06 0.24726167D+06 0.24726167D+06 0.10908191D+01  1  2  6  1  7  1       -4 0.197186165286D-03 0.100000000000D+01
0.124237301097D-03 0.000000000000D+00 0.000000000000D+00 0.641824875518D-05 0.000000000000D+00  7 21 3 -24 -13 13 23 4 2 0.45690058D+00 0.29320966D-01 0.33871560D+06 0.33871560D+06 0.33871560D+06 0.10806733D+01  1  2 12  3  7  1       -4 0.180079503029D-04 0.100000000000D+01
-.123975458852D-03 0.000000000000D+00 -.169154519309D-04 0.641824875518D-05 0.000000000000D+00  7 21 3 -24 -13 13 23 4 2 0.45856442D+00 0.29320966D-01 0.24726167D+06 0.24726167D+06 0.24726167D+06 0.10908191D+01  1  2  5  3  7  1       -4 -.184251714214D-04 0.100000000000D+01
  </mgrwgt>
  </event>
  <event>
  8     66 0.26562228E-05 0.45818769E+03 0.75467711E-02 0.89375455E-01
       -2 -1    0    0    0  501 0.00000000E+00 0.00000000E+00 0.13732284E+03 0.13732321E+03 0.32000000E+00 0.0000E+00 0.9000E+01
        1 -1    0    0  501    0 0.00000000E+00 0.00000000E+00 -.21032344E+04 0.21032344E+04 0.32000000E+00 0.0000E+00 0.9000E+01
       25  2    1    2    0    0 -.27454335E+03 0.30727342E+03 -.49452608E+03 0.71044867E+03 0.30064973E+03 0.0000E+00 0.0000E+00
       23  2    3    3    0    0 -.48888054E+02 0.23357129E+03 -.24607232E+03 0.35492534E+03 0.92058770E+02 0.0000E+00 0.0000E+00
      -24  1    1    2    0    0 0.27454335E+03 -.30727342E+03 -.14713855E+04 0.15301090E+04 0.80419002E+02 0.0000E+00 0.9000E+01
      -13  1    4    4    0    0 -.30078329E+02 0.20974043E+03 -.24585856E+03 0.32456463E+03 0.10565837E+00 0.0000E+00 0.9000E+01
       13  1    4    4    0    0 -.18809725E+02 0.23830860E+02 -.21375708E+00 0.30360706E+02 0.10565837E+00 0.0000E+00 0.9000E+01
       23  1    3    3    0    0 -.22565530E+03 0.73702125E+02 -.24845376E+03 0.35552333E+03 0.91188000E+02 0.0000E+00 0.9000E+01
#aMCatNLO 1  0  0  2  2 0.56591817D+03 0.00000000D+00  -5  7  0 0.00000000D+00 0.00000000D+00 0.00000000D+00 0.00000000D+00 0.00000000D+00
  <mgrwgt>
 0.1179094096D-02    5    2    0
 0.537422150969338D+03 0.000000000000000D+00 0.000000000000000D+00 0.537422150969338D+03
 0.537422150969338D+03 0.000000000000000D+00 0.000000000000000D+00 -.537422150969338D+03
 0.498382522038590D+03 0.274543353185281D+03 -.307273419706924D+03 -.268564545468254D+03
 0.226888495548241D+03 -.300783436004963D+02 0.209740679585867D+03 0.811327922929647D+02
 0.628969735282507D+02 -.188097100567343D+02 0.238306151771425D+02 0.550847153652808D+02
 0.286676310823595D+03 -.225655299528050D+03 0.737021249439146D+02 0.132347037810008D+03
 0.000000000000000D+00 -.000000000000000D+00 -.000000000000000D+00 -.000000000000000D+00
 0.709762557921749D+03 0.000000000000000D+00 0.000000000000000D+00 0.709762557921749D+03
 0.138924941159030D+04 0.000000000000000D+00 0.000000000000000D+00 -.138924941159030D+04
 0.456205778406544D+03 0.350027942934781D+03 -.837258644591132D+02 -.268564545468254D+03
 0.355976300729666D+03 0.160120076073988D+02 0.346237219703926D+03 0.811327922929647D+02
 0.798016711025924D+02 -.752573701542840D+01 0.572480927740561D+02 0.550847153652808D+02
 0.322739941508881D+03 -.177465377472077D+03 0.216416542534912D+03 0.132347037810008D+03
 0.884288277764364D+03 -.181048836054675D+03 -.536175990553781D+03 -.679486853668549D+03
0.217067902826D-03 0.000000000000D+00 0.000000000000D+00 0.533067272073D-05 0.000000000000D+00  7 -2 1 -24 -13 13 23 21 0 0.21126621D-01 0.32357456D+00 0.20993596D+06 0.20993596D+06 0.20993596D+06 0.10962118D+01  1  2  2  2  7  2        1 0.116521472195D-02 0.100000000000D+01
-.116862897296D-04 0.000000000000D+00 -.833597902143D-06 0.533067272073D-05 0.000000000000D+00  7 -2 1 -24 -13 13 23 21 2 0.21126621D-01 0.32357456D+00 0.20993596D+06 0.20993596D+06 0.20993596D+06 0.10962118D+01  1  2  3  2  7  2        1 -.753834415238D-04 0.100000000000D+01
0.138564412164D-04 0.000000000000D+00 0.000000000000D+00 0.533067272073D-05 0.000000000000D+00  7 -2 1 -24 -13 13 23 21 2 0.21126621D-01 0.32357456D+00 0.20993596D+06 0.20993596D+06 0.20993596D+06 0.10962118D+01  1  2 15  2  7  2        1 0.893821948913D-04 0.100000000000D+01
-.552386903362D-04 0.000000000000D+00 -.506362596465D-04 0.533067272073D-05 0.000000000000D+00  7 -2 1 -24 -13 13 23 21 2 0.21126621D-01 0.85152261D+00 0.20993596D+06 0.20993596D+06 0.20993596D+06 0.10962118D+01  1  2  5  2  7  2        1 -.119234126389D-06 0.100000000000D+01
-.291440334772D-05 0.000000000000D+00 -.544007295539D-05 0.533067272073D-05 0.000000000000D+00  7 -2 21 -24 -13 13 23 -1 2 0.21126621D-01 0.85152261D+00 0.20993596D+06 0.20993596D+06 0.20993596D+06 0.10962118D+01  1  2  5  4  7  2        1 -.145221779430D-09 0.100000000000D+01
  </mgrwgt>
  </event>
  <event>
  8     66 0.26562228E-05 0.35973550E+03 0.75467711E-02 0.96211879E-01
       -2 -1    0    0    0  501 0.00000000E+00 0.00000000E+00 0.25122980E+03 0.25123000E+03 0.32000000E+00 0.0000E+00 0.9000E+01
        1 -1    0    0  501    0 0.00000000E+00 0.00000000E+00 -.57718658E+03 0.57718667E+03 0.32000000E+00 0.0000E+00 0.9000E+01
       25  2    1    2    0    0 -.23706270E+03 0.20493674E+03 -.12993434E+03 0.45014455E+03 0.29588746E+03 0.0000E+00 0.0000E+00
       23  2    3    3    0    0 -.23892891E+03 0.17663209E+03 -.16065649E+03 0.34982636E+03 0.91005831E+02 0.0000E+00 0.0000E+00
      -24  1    1    2    0    0 0.23706270E+03 -.20493674E+03 -.19602244E+03 0.37827213E+03 0.80419002E+02 0.0000E+00 0.9000E+01
      -13  1    4    4    0    0 -.20955215E+03 0.13418769E+03 -.95102675E+02 0.26638876E+03 0.10565837E+00 0.0000E+00 0.9000E+01
       13  1    4    4    0    0 -.29376756E+02 0.42444400E+02 -.65553813E+02 0.83437608E+02 0.10565837E+00 0.0000E+00 0.9000E+01
       23  1    3    3    0    0 0.18662088E+01 0.28304657E+02 0.30722144E+02 0.10031818E+03 0.91188000E+02 0.0000E+00 0.9000E+01
#aMCatNLO 1  0  0  2  2 0.14138094D+03 0.00000000D+00  -5  7  0 0.00000000D+00 0.00000000D+00 0.00000000D+00 0.00000000D+00 0.00000000D+00
  <mgrwgt>
 0.1199170078D-02    4    2    0
 0.380797309892288D+03 0.000000000000000D+00 0.000000000000000D+00 0.380797309892288D+03
 0.380797309892288D+03 0.000000000000000D+00 0.000000000000000D+00 -.380797309892288D+03
 0.327565466581118D+03 0.237062697838350D+03 -.204936743811883D+03 -.513237495855515D+02
 0.249058635553885D+03 -.209552393412788D+03 0.134187810796465D+03 0.105655001106021D+02
 0.627016040424872D+02 -.293765128183858D+02 0.424442758638448D+02 -.355948744979653D+02
 0.122268913607085D+03 0.186620839282374D+01 0.283046571515730D+02 0.763531239729146D+02
 0.000000000000000D+00 -.000000000000000D+00 0.000000000000000D+00 0.000000000000000D+00
 0.607221952531328D+03 0.000000000000000D+00 0.000000000000000D+00 0.607221952531328D+03
 0.410025825783019D+03 0.000000000000000D+00 0.000000000000000D+00 -.410025825783019D+03
 0.386128604545000D+03 0.264544232386844D+03 -.264594605260261D+03 -.513237495855515D+02
 0.214412606895039D+03 -.191705949849797D+03 0.954461366170822D+02 0.105655001106021D+02
 0.543347054905992D+02 -.248699076580167D+02 0.326611822092521D+02 -.355948744979653D+02
 0.119730392643802D+03 0.111846440706650D+02 0.807587612759864D+01 0.763531239729146D+02
 0.242641468739905D+03 -.591530189496956D+02 0.128411410306328D+03 0.197196126748309D+03
0.526552814895D-04 0.000000000000D+00 0.000000000000D+00 0.894392414609D-07 0.000000000000D+00  7 -2 1 -24 -13 13 23 21 0 0.38650761D-01 0.88797959D-01 0.12940963D+06 0.12940963D+06 0.12940963D+06 0.11126481D+01  1  2  2  2  7  2        1 0.131891222408D-02 0.100000000000D+01
-.291377884419D-05 0.000000000000D+00 -.202210145374D-06 0.894392414609D-07 0.000000000000D+00  7 -2 1 -24 -13 13 23 21 2 0.38650761D-01 0.88797959D-01 0.12940963D+06 0.12940963D+06 0.12940963D+06 0.11126481D+01  1  2  3  2  7  2        1 -.903537497087D-04 0.100000000000D+01
0.340439441756D-05 0.000000000000D+00 0.000000000000D+00 0.894392414609D-07 0.000000000000D+00  7 -2 1 -24 -13 13 23 21 2 0.38650761D-01 0.88797959D-01 0.12940963D+06 0.12940963D+06 0.12940963D+06 0.11126481D+01  1  2 15  2  7  2        1 0.105567312264D-03 0.100000000000D+01
-.435212806218D-05 0.000000000000D+00 0.000000000000D+00 0.894392414609D-07 0.000000000000D+00  7 -2 1 -24 -13 13 23 21 2 0.38650761D-01 0.88797959D-01 0.12940963D+06 0.12940963D+06 0.12940963D+06 0.11126481D+01  1  2  4  2  7  2        1 -.134955708946D-03 0.100000000000D+01
  </mgrwgt>
  </event>
  <event>
  9     66 0.26562228E-05 0.21857224E+03 0.75467711E-02 0.10270661E+00
       -2 -1    0    0    0  501 0.00000000E+00 0.00000000E+00 0.54813071E+02 0.54814005E+02 0.32000000E+00 0.0000E+00 0.9000E+01
        1 -1    0    0  502    0 0.00000000E+00 0.00000000E+00 -.19144388E+04 0.19144389E+04 0.32000000E+00 0.0000E+00 0.9000E+01
       25  2    1    2    0    0 -.66903352E+02 0.86154559E+02 -.15559346E+04 0.15882528E+04 0.29952629E+03 0.0000E+00 0.0000E+00
       23  2    3    3    0    0 -.10360544E+03 -.53021366E+02 -.70972670E+03 0.72506108E+03 0.91957767E+02 0.0000E+00 0.0000E+00
      -24  1    1    2    0    0 0.11539339E+03 -.28238463E+02 -.13872640E+03 0.19956271E+03 0.80419002E+02 0.0000E+00 0.9000E+01
      -13  1    4    4    0    0 -.11041120E+03 -.44885339E+02 -.70172251E+03 0.71177231E+03 0.10565837E+00 0.0000E+00 0.9000E+01
       13  1    4    4    0    0 0.68057611E+01 -.81360270E+01 -.80041952E+01 0.13288778E+02 0.10565837E+00 0.0000E+00 0.9000E+01
       23  1    3    3    0    0 0.36702091E+02 0.13917592E+03 -.84620786E+03 0.86319174E+03 0.91188000E+02 0.0000E+00 0.9000E+01
       21  1    1    2  502  501 -.48490038E+02 -.57916096E+02 -.16496480E+03 0.18143733E+03 0.75000000E+00 0.0000E+00 0.9000E+01
#aMCatNLO 2  0  0  2  2 0.75535144D+02 0.00000000D+00  -5  7  0 0.00000000D+00 0.00000000D+00 0.00000000D+00 0.00000000D+00 0.00000000D+00
  <mgrwgt>
 0.3218964679D-03    1    2    0
 0.282268949163144D+03 0.000000000000000D+00 0.000000000000000D+00 0.282268949163144D+03
 0.282268949163144D+03 0.000000000000000D+00 0.000000000000000D+00 -.282268949163144D+03
 0.208537159011285D+03 0.973423879924773D+02 -.497984298623425D+02 0.158319634339189D+03
 0.161706376880468D+03 -.123581129407057D+03 -.606152508591267D+02 -.848672383288702D+02
 0.183062554398112D+02 0.525801714393037D+01 -.998477522671243D+01 0.144144548150037D+02
 0.175988106994725D+03 0.209807242706489D+02 0.120398455948182D+03 -.878668508253229D+02
 0.000000000000000D+00 -.000000000000000D+00 -.000000000000000D+00 0.000000000000000D+00
 0.335140981795170D+03 0.000000000000000D+00 0.000000000000000D+00 0.335140981795170D+03
 0.313110166271003D+03 0.000000000000000D+00 0.000000000000000D+00 -.313110166271003D+03
 0.213647766373194D+03 0.115393391160972D+03 -.282384627938727D+02 0.158319634339189D+03
 0.146314094857219D+03 -.110411359060011D+03 -.448853874088123D+02 -.848672383288702D+02
 0.178966795396866D+02 0.680591536277031D+01 -.813597855253203D+01 0.144144548150037D+02
 0.191710240547149D+03 0.367020909927883D+02 0.139175924747936D+03 -.878668508253229D+02
 0.786823667489250D+02 -.484900384565188D+02 -.579160959927189D+02 0.220308155241663D+02
0.780682328010D-05 0.000000000000D+00 0.000000000000D+00 0.176603799680D-05 0.215898032113D-08  7 -2 1 -24 -13 13 23 21 2 0.84328070D-02 0.29452749D+00 0.67385774D+05 0.67385774D+05 0.67385774D+05 0.11360675D+01  1  2  1  2  7  2        1 0.321896467948D-03 0.100000000000D+01
  </mgrwgt>
  </event>
  <event>
  8     66 0.26562228E-05 0.27570178E+03 0.75467711E-02 0.10076523E+00
       -2 -1    0    0    0  501 0.00000000E+00 0.00000000E+00 0.95302670E+02 0.95303208E+02 0.32000000E+00 0.0000E+00 0.9000E+01
        1 -1    0    0  501    0 0.00000000E+00 0.00000000E+00 -.16026358E+04 0.16026359E+04 0.32000000E+00 0.0000E+00 0.9000E+01
       25  2    1    2    0    0 -.33378290E+02 0.23936475E+03 -.13375394E+04 0.13918235E+04 0.29958561E+03 0.0000E+00 0.0000E+00
       23  2    3    3    0    0 0.15669449E+02 0.13596573E+02 -.71277922E+03 0.71950109E+03 0.95902037E+02 0.0000E+00 0.0000E+00
      -24  1    1    2    0    0 0.33378290E+02 -.23936475E+03 -.16979382E+03 0.30611558E+03 0.80419002E+02 0.0000E+00 0.9000E+01
      -13  1    4    4    0    0 -.73763424E+01 -.39285583E+02 -.25804337E+03 0.26112096E+03 0.10565837E+00 0.0000E+00 0.9000E+01
       13  1    4    4    0    0 0.23045791E+02 0.52882156E+02 -.45473586E+03 0.45838013E+03 0.10565837E+00 0.0000E+00 0.9000E+01
       23  1    3    3    0    0 -.49047739E+02 0.22576818E+03 -.62476013E+03 0.67232241E+03 0.91188000E+02 0.0000E+00 0.9000E+01
#aMCatNLO 1  0  0  2  1 0.10012393D+01 0.00000000D+00  -5  7  0 0.00000000D+00 0.00000000D+00 0.00000000D+00 0.00000000D+00 0.00000000D+00
  <mgrwgt>
 0.1500022213D-02   10    2    0
 0.390814481448212D+03 0.000000000000000D+00 0.000000000000000D+00 0.390814481448212D+03
 0.390814481448212D+03 0.000000000000000D+00 0.000000000000000D+00 -.390814481448212D+03
 0.337538357107092D+03 0.333782896398135D+02 -.239364748223166D+03 0.221484386928209D+03
 0.696111822644747D+02 -.737637770180520D+01 -.392856927688596D+02 -.569907018023905D+02
 0.118807182510489D+03 0.230458278761257D+02 0.528822609255722D+02 -.103862904412424D+03
 0.255672241014369D+03 -.490477398141339D+02 0.225768180066454D+03 -.606307807133945D+02
 0.000000000000000D+00 -.000000000000000D+00 0.000000000000000D+00 -.000000000000000D+00
 0.391005582599106D+03 0.000000000000000D+00 0.000000000000000D+00 0.391005582599106D+03
 0.392128458351272D+03 0.000000000000000D+00 0.000000000000000D+00 -.392128458351272D+03
 0.337773234897637D+03 0.337030730284387D+02 -.239650394271152D+03 0.221484386928209D+03
 0.696373786623397D+02 -.730940769860306D+01 -.393445926923724D+02 -.569907018023905D+02
 0.118784710521373D+03 0.231600949804407D+02 0.527817633388560D+02 -.103862904412424D+03
 0.255434280090987D+03 -.488019289768280D+02 0.225551990148227D+03 -.606307807133945D+02
 0.150443677804123D+01 -.751831333448367D+00 0.661233476441628D+00 -.112287575216551D+01
0.172288293874D-04 0.000000000000D+00 0.000000000000D+00 0.311255187802D-06 0.000000000000D+00  7 -2 1 -24 -13 13 23 21 0 0.14661993D-01 0.24655940D+00 0.90224043D+05 0.90224043D+05 0.90224043D+05 0.11254069D+01  1  2  2  2  7  2        1 0.369628357846D-03 0.100000000000D+01
-.876533838500D-06 0.000000000000D+00 -.661632413025D-07 0.311255187802D-06 0.000000000000D+00  7 -2 1 -24 -13 13 23 21 2 0.14661993D-01 0.24655940D+00 0.90224043D+05 0.90224043D+05 0.90224043D+05 0.11254069D+01  1  2  3  2  7  2        1 -.238175646529D-04 0.100000000000D+01
0.108748487429D-05 0.000000000000D+00 0.000000000000D+00 0.311255187802D-06 0.000000000000D+00  7 -2 1 -24 -13 13 23 21 2 0.14661993D-01 0.24655940D+00 0.90224043D+05 0.90224043D+05 0.90224043D+05 0.11254069D+01  1  2 15  2  7  2        1 0.295496193813D-04 0.100000000000D+01
-.221074231402D-02 0.000000000000D+00 0.000000000000D+00 0.311255187802D-06 0.000000000000D+00  7 -2 1 -24 -13 13 23 21 2 0.14661993D-01 0.24655940D+00 0.90224043D+05 0.90224043D+05 0.90224043D+05 0.11254069D+01  1  2  4  2  7  2        1 -.600712667125D-01 0.100000000000D+01
-.724390263987D-02 0.000000000000D+00 -.517922406345D-03 0.311255187802D-06 0.000000000000D+00  7 -2 1 -24 -13 13 23 21 2 0.14661993D-01 0.24744002D+00 0.90224043D+05 0.90224043D+05 0.90224043D+05 0.11254069D+01  1  2  5  2  7  2        1 -.195139914839D+00 0.100000000000D+01
0.724570640254D-02 0.000000000000D+00 0.517919114711D-03 0.311255187802D-06 0.000000000000D+00  7 -2 1 -24 -13 13 23 21 2 0.14661993D-01 0.24655940D+00 0.90224043D+05 0.90224043D+05 0.90224043D+05 0.11254069D+01  1  2  6  2  7  2        1 0.196883535031D+00 0.100000000000D+01
0.221075863118D-02 0.000000000000D+00 0.000000000000D+00 0.311255187802D-06 0.209683067783D-05  7 -2 1 -24 -13 13 23 21 2 0.14669163D-01 0.24738837D+00 0.90544756D+05 0.90544756D+05 0.90544756D+05 0.11252792D+01  1  2 11  2  7  2        1 0.595193109292D-01 0.100000000000D+01
0.140528801027D-10 0.000000000000D+00 0.000000000000D+00 0.311255187802D-06 0.000000000000D+00  7 -2 21 -24 -13 13 23 -1 2 0.14661993D-01 0.24744854D+00 0.90544756D+05 0.90544756D+05 0.90544756D+05 0.11252792D+01  1  2 12  4  7  2        1 0.280550969014D-09 0.100000000000D+01
-.481417919359D-05 0.000000000000D+00 -.344378482268D-06 0.311255187802D-06 0.000000000000D+00  7 -2 21 -24 -13 13 23 -1 2 0.14661993D-01 0.24744002D+00 0.90224043D+05 0.90224043D+05 0.90224043D+05 0.11254069D+01  1  2  5  4  7  2        1 -.961700123905D-04 0.100000000000D+01
0.146075931635D-05 0.000000000000D+00 0.000000000000D+00 0.311255187802D-06 0.131252647313D-08  7 -2 21 -24 -13 13 23 -1 2 0.14669163D-01 0.24738837D+00 0.90544756D+05 0.90544756D+05 0.90544756D+05 0.11252792D+01  1  2 11  4  7  2        1 0.291671233432D-04 0.100000000000D+01
  </mgrwgt>
  </event>
  <event>
  8     66 0.26562228E-05 0.80778201E+02 0.75467711E-02 0.10847664E+00
       -2 -1    0    0    0  501 0.00000000E+00 0.00000000E+00 0.46619095E+02 0.46620193E+02 0.32000000E+00 0.0000E+00 0.9000E+01
        1 -1    0    0  501    0 0.00000000E+00 0.00000000E+00 -.92532021E+03 0.92532027E+03 0.32000000E+00 0.0000E+00 0.9000E+01
       25  2    1    2    0    0 -.55528034E+02 0.37501977E+02 -.68487666E+03 0.75165678E+03 0.30239399E+03 0.0000E+00 0.0000E+00
       23  2    3    3    0    0 -.88758110E+02 0.36491242E+02 -.11758396E+03 0.17612093E+03 0.89347537E+02 0.0000E+00 0.0000E+00
      -24  1    1    2    0    0 0.55528034E+02 -.37501977E+02 -.19382446E+03 0.22028368E+03 0.80419002E+02 0.0000E+00 0.9000E+01
      -13  1    4    4    0    0 0.93623264E+01 -.84784097E+01 0.42742503E+01 0.13334803E+02 0.10565837E+00 0.0000E+00 0.9000E+01
       13  1    4    4    0    0 -.98120436E+02 0.44969652E+02 -.12185821E+03 0.16278613E+03 0.10565837E+00 0.0000E+00 0.9000E+01
       23  1    3    3    0    0 0.33230076E+02 0.10107354E+01 -.56729270E+03 0.57553585E+03 0.91188000E+02 0.0000E+00 0.9000E+01
#aMCatNLO 1  0  0  2  1 0.23193481D+02 0.00000000D+00  -5  7  0 0.00000000D+00 0.00000000D+00 0.00000000D+00 0.00000000D+00 0.00000000D+00
  <mgrwgt>
 0.1216422405D-02    9    2    0
 0.207697259343438D+03 0.000000000000000D+00 0.000000000000000D+00 0.207697259343438D+03
 0.207697259343438D+03 0.000000000000000D+00 0.000000000000000D+00 -.207697259343438D+03
 0.105415785063266D+03 0.555289163235570D+02 -.375025730436384D+02 0.124646802274358D+02
 0.402418863240761D+02 0.936248873139693D+01 -.847843528203174D+01 0.382082367408224D+02
 0.123115612745093D+03 -.981207668613422D+02 0.449699063366834D+02 0.592239540744431D+02
 0.146621234554440D+03 0.332293618063883D+02 0.101110198898674D+01 -.109896871042701D+03
 0.000000000000000D+00 0.000000000000000D+00 -.000000000000000D+00 -.000000000000000D+00
 0.210712528393165D+03 0.000000000000000D+00 0.000000000000000D+00 0.210712528393165D+03
 0.257982080519077D+03 0.000000000000000D+00 0.000000000000000D+00 -.257982080519077D+03
 0.103179618673871D+03 0.549332036273418D+02 -.317142340500239D+02 0.124646802274358D+02
 0.397801434539532D+02 0.913395953918257D+01 -.625789433523289D+01 0.382082367408224D+02
 0.126365934523947D+03 -.988332433709725D+02 0.518927998538600D+02 0.592239540744431D+02
 0.146715820153192D+03 0.323916414893103D+02 0.915094726657438D+01 -.109896871042701D+03
 0.526530921072793D+02 0.237443871513777D+01 -.230716187351777D+02 -.472695521259117D+02
0.458252246687D-05 0.000000000000D+00 0.000000000000D+00 0.129017577611D-07 0.000000000000D+00  7 -2 1 -24 -13 13 23 21 0 0.71722572D-02 0.14235704D+00 0.25969534D+05 0.25969534D+05 0.25969534D+05 0.11731944D+01  1  2  2  2  7  2        1 0.873507877308D-03 0.100000000000D+01
-.234655017082D-06 0.000000000000D+00 -.175980928787D-07 0.129017577611D-07 0.000000000000D+00  7 -2 1 -24 -13 13 23 21 2 0.71722572D-02 0.14235704D+00 0.25969534D+05 0.25969534D+05 0.25969534D+05 0.11731944D+01  1  2  3  2  7  2        1 -.615647331888D-04 0.100000000000D+01
0.300417492160D-06 0.000000000000D+00 0.000000000000D+00 0.129017577611D-07 0.000000000000D+00  7 -2 1 -24 -13 13 23 21 2 0.71722572D-02 0.14235704D+00 0.25969534D+05 0.25969534D+05 0.25969534D+05 0.11731944D+01  1  2 15  2  7  2        1 0.788183563261D-04 0.100000000000D+01
0.236474140831D-04 0.000000000000D+00 0.000000000000D+00 0.129017577611D-07 0.000000000000D+00  7 -2 1 -24 -13 13 23 21 2 0.71722572D-02 0.17768608D+00 0.29845960D+05 0.29845960D+05 0.29845960D+05 0.11675434D+01  1  2 12  2  7  2        1 0.418851712831D-02 0.100000000000D+01
-.236615921248D-04 0.000000000000D+00 0.000000000000D+00 0.129017577611D-07 0.000000000000D+00  7 -2 1 -24 -13 13 23 21 2 0.71722572D-02 0.14235704D+00 0.25969534D+05 0.25969534D+05 0.25969534D+05 0.11731944D+01  1  2  4  2  7  2        1 -.620792013783D-02 0.100000000000D+01
-.282145983974D-04 0.000000000000D+00 -.286340740555D-05 0.129017577611D-07 0.000000000000D+00  7 -2 1 -24 -13 13 23 21 2 0.71722572D-02 0.17789159D+00 0.25969534D+05 0.25969534D+05 0.25969534D+05 0.11731944D+01  1  2  5  2  7  2        1 -.503367116900D-02 0.100000000000D+01
0.282188006855D-04 0.000000000000D+00 0.279375667405D-05 0.129017577611D-07 0.000000000000D+00  7 -2 1 -24 -13 13 23 21 2 0.71722572D-02 0.14235704D+00 0.25969534D+05 0.25969534D+05 0.25969534D+05 0.11731944D+01  1  2  6  2  7  2        1 0.740356186165D-02 0.100000000000D+01
0.731746427409D-06 0.000000000000D+00 0.000000000000D+00 0.129017577611D-07 0.000000000000D+00  7 -2 21 -24 -13 13 23 -1 2 0.71722572D-02 0.17768608D+00 0.29845960D+05 0.29845960D+05 0.29845960D+05 0.11675434D+01  1  2 12  4  7  2        1 0.157978341544D-03 0.100000000000D+01
-.836856338465D-06 0.000000000000D+00 -.889527059757D-07 0.129017577611D-07 0.000000000000D+00  7 -2 21 -24 -13 13 23 -1 2 0.71722572D-02 0.17789159D+00 0.25969534D+05 0.25969534D+05 0.25969534D+05 0.11731944D+01  1  2  5  4  7  2        1 -.182805120027D-03 0.100000000000D+01
  </mgrwgt>
  </event>
  <event>
  8     66 0.26562228E-05 0.19028477E+03 0.75467711E-02 0.82853929E-01
       -2 -1    0    0    0  501 0.00000000E+00 0.00000000E+00 0.17238265E+03 0.17238295E+03 0.32000000E+00 0.0000E+00 0.9000E+01
        1 -1    0    0  501    0 0.00000000E+00 0.00000000E+00 -.32121635E+03 0.32121651E+03 0.32000000E+00 0.0000E+00 0.9000E+01
       25  2    1    2    0    0 0.71829678E+02 -.75866620E+00 0.20791598E+01 0.30812173E+03 0.29962410E+03 0.0000E+00 0.0000E+00
       23  2    3    3    0    0 0.79652383E+02 0.92465757E+02 0.63482460E+02 0.16376937E+03 0.88859250E+02 0.0000E+00 0.0000E+00
      -24  1    1    2    0    0 -.71829678E+02 0.75866620E+00 -.15091286E+03 0.18547772E+03 0.80419002E+02 0.0000E+00 0.9000E+01
      -13  1    4    4    0    0 -.64816471E+01 0.41524774E+02 0.45778651E+02 0.62145109E+02 0.10565837E+00 0.0000E+00 0.9000E+01
       13  1    4    4    0    0 0.86134030E+02 0.50940983E+02 0.17703810E+02 0.10162426E+03 0.10565837E+00 0.0000E+00 0.9000E+01
       23  1    3    3    0    0 -.78227044E+01 -.93224423E+02 -.61403300E+02 0.14435236E+03 0.91188000E+02 0.0000E+00 0.9000E+01
#aMCatNLO 1  0  0  1  1 0.16234223D+04 0.00000000D+00  -5  7  0 0.00000000D+00 0.00000000D+00 0.00000000D+00 0.00000000D+00 0.00000000D+00
  <mgrwgt>
 0.6942731747D-03    5    2    0
 0.235313064941794D+03 0.000000000000000D+00 0.000000000000000D+00 0.235313064941794D+03
 0.235313064941794D+03 0.000000000000000D+00 0.000000000000000D+00 -.235313064941794D+03
 0.146806096220217D+03 -.718296798461977D+02 0.758666218196916D+00 -.996229664877094D+02
 0.796559599369668D+02 -.648177630782166D+01 0.415247601245433D+02 0.676664822934823D+02
 0.112183796906006D+03 0.861341595010558D+02 0.509409964177861D+02 0.507062692303214D+02
 0.131980276820398D+03 -.782270334703639D+01 -.932244227605264D+02 -.187497850360943D+02
 0.000000000000000D+00 -.000000000000000D+00 0.000000000000000D+00 0.000000000000000D+00
 0.214311207509911D+04 0.000000000000000D+00 0.000000000000000D+00 0.214311207509911D+04
 0.135274692444956D+04 0.000000000000000D+00 0.000000000000000D+00 -.135274692444956D+04
 0.403022886427958D+03 0.131485831926555D+03 -.358813282336541D+03 -.996229664877094D+02
 0.150393692439191D+03 0.785858797854026D+02 -.108920931862861D+03 0.676664822934823D+02
 0.396191719495075D+03 0.274121027330397D+03 -.281521607043819D+03 0.507062692303214D+02
 0.740654671199630D+03 0.314859851859424D+03 -.663901958028438D+03 -.187497850360943D+02
 0.180559602998681D+04 -.799052590901778D+03 0.141315777927166D+04 0.790365150649553D+03
0.631742863343D-05 0.000000000000D+00 0.000000000000D+00 0.237713537707D-06 0.000000000000D+00  7 -2 1 -24 -13 13 23 21 0 0.26520443D-01 0.49417935D-01 0.36208294D+05 0.36208294D+05 0.36208294D+05 0.11598319D+01  1  2  2  1  7  1       -2 0.685687453180D-03 0.100000000000D+01
-.331717926563D-06 0.000000000000D+00 -.242605893695D-07 0.237713537707D-06 0.000000000000D+00  7 -2 1 -24 -13 13 23 21 2 0.26520443D-01 0.49417935D-01 0.36208294D+05 0.36208294D+05 0.36208294D+05 0.11598319D+01  1  2  3  1  7  1       -2 -.484333942564D-04 0.100000000000D+01
0.389145197220D-06 0.000000000000D+00 0.000000000000D+00 0.237713537707D-06 0.000000000000D+00  7 -2 1 -24 -13 13 23 21 2 0.26520443D-01 0.49417935D-01 0.36208294D+05 0.36208294D+05 0.36208294D+05 0.11598319D+01  1  2 15  1  7  1       -2 0.568182219006D-04 0.100000000000D+01
0.357933231649D-04 0.000000000000D+00 -.950510109905D-05 0.237713537707D-06 0.000000000000D+00  7 -2 1 -24 -13 13 23 21 2 0.60736730D+00 0.49417935D-01 0.36208294D+05 0.36208294D+05 0.36208294D+05 0.11598319D+01  1  2  5  1  7  1       -2 0.482756819943D-07 0.100000000000D+01
0.917976580977D-05 0.000000000000D+00 -.311814211798D-05 0.237713537707D-06 0.000000000000D+00  7 21 1 -24 -13 13 23 2 2 0.60736730D+00 0.49417935D-01 0.36208294D+05 0.36208294D+05 0.36208294D+05 0.11598319D+01  1  2  5  3  7  1       -2 0.152618240905D-06 0.100000000000D+01
  </mgrwgt>
  </event>
  <event>
  8     66 0.26562228E-05 0.18593766E+03 0.75467711E-02 0.97627149E-01
       -2 -1    0    0    0  501 0.00000000E+00 0.00000000E+00 0.45352675E+02 0.45353804E+02 0.32000000E+00 0.0000E+00 0.9000E+01
        1 -1    0    0  501    0 0.00000000E+00 0.00000000E+00 -.11842386E+04 0.11842387E+04 0.32000000E+00 0.0000E+00 0.9000E+01
       25  2    1    2    0    0 -.55274291E+02 0.10075835E+03 -.76386756E+03 0.82920078E+03 0.30145116E+03 0.0000E+00 0.0000E+00
       23  2    3    3    0    0 0.17881712E+02 -.35494512E+02 -.10646890E+03 0.14772819E+03 0.94384198E+02 0.0000E+00 0.0000E+00
      -24  1    1    2    0    0 0.55274291E+02 -.10075835E+03 -.37501841E+03 0.40039171E+03 0.80419002E+02 0.0000E+00 0.9000E+01
      -13  1    4    4    0    0 -.16757682E+01 -.32199572E+02 0.66178041E+01 0.32915455E+02 0.10565837E+00 0.0000E+00 0.9000E+01
       13  1    4    4    0    0 0.19557480E+02 -.32949392E+01 -.11308670E+03 0.11481274E+03 0.10565837E+00 0.0000E+00 0.9000E+01
       23  1    3    3    0    0 -.73156002E+02 0.13625287E+03 -.65739866E+03 0.68147259E+03 0.91188000E+02 0.0000E+00 0.9000E+01
#aMCatNLO 1  0  0  1  2 0.28967819D+03 0.00000000D+00  -5  7  0 0.00000000D+00 0.00000000D+00 0.00000000D+00 0.00000000D+00 0.00000000D+00
  <mgrwgt>
 0.1337504470D-02    3    2    0
 0.231752261473886D+03 0.000000000000000D+00 0.000000000000000D+00 0.231752261473886D+03
 0.231752261473886D+03 0.000000000000000D+00 0.000000000000000D+00 -.231752261473886D+03
 0.140700778026113D+03 0.552743149319284D+02 -.100758398061947D+03 -.110448318945702D+02
 0.103579465079006D+03 -.167579930922821D+01 -.321995863361632D+02 0.984331444306654D+02
 0.267094926774940D+02 0.195574949114940D+02 -.329489537852604D+01 -.178898031381163D+02
 0.192514787165159D+03 -.731560105341942D+02 0.136252879776636D+03 -.694985093979789D+02
 0.000000000000000D+00 0.000000000000000D+00 0.000000000000000D+00 -.000000000000000D+00
 0.315578584515770D+03 0.000000000000000D+00 0.000000000000000D+00 0.315578584515770D+03
 0.769367452892883D+03 0.000000000000000D+00 0.000000000000000D+00 -.769367452892883D+03
 0.185224373411989D+03 -.115760697754292D+02 -.166086901495778D+03 -.110448318945702D+02
 0.136958428871473D+03 -.510124358846384D+02 -.804130505673666D+02 0.984331444306654D+02
 0.241941213335877D+02 0.911667386831684D+01 -.134980260913423D+02 -.178898031381163D+02
 0.200203260523517D+03 -.153706260963383D+03 0.575363946764377D+02 -.694985093979789D+02
 0.538365853268087D+03 0.207178092755134D+03 0.202461583478049D+03 -.453788868377113D+03
0.101716258214D-04 0.000000000000D+00 0.000000000000D+00 0.238383394534D-07 0.000000000000D+00  7 -2 1 -24 -13 13 23 21 0 0.69774247D-02 0.18219065D+00 0.34572814D+05 0.34572814D+05 0.34572814D+05 0.11616621D+01  1  2  2  1  7  1       -2 0.131450265991D-02 0.100000000000D+01
-.531758368414D-06 0.000000000000D+00 -.390617214047D-07 0.238383394534D-07 0.000000000000D+00  7 -2 1 -24 -13 13 23 21 2 0.69774247D-02 0.18219065D+00 0.34572814D+05 0.34572814D+05 0.34572814D+05 0.11616621D+01  1  2  3  1  7  1       -2 -.927353007122D-04 0.100000000000D+01
0.663654256168D-06 0.000000000000D+00 0.000000000000D+00 0.238383394534D-07 0.000000000000D+00  7 -2 1 -24 -13 13 23 21 2 0.69774247D-02 0.18219065D+00 0.34572814D+05 0.34572814D+05 0.34572814D+05 0.11616621D+01  1  2 15  1  7  1       -2 0.115737110444D-03 0.100000000000D+01
  </mgrwgt>
  </event>
  <event>
  8     66 0.26562228E-05 0.20100262E+03 0.75467711E-02 0.98459373E-01
       -2 -1    0    0    0  501 0.00000000E+00 0.00000000E+00 0.25285947E+02 0.25287972E+02 0.32000000E+00 0.0000E+00 0.9000E+01
        1 -1    0    0  501    0 0.00000000E+00 0.00000000E+00 -.25065390E+04 0.25065390E+04 0.32000000E+00 0.0000E+00 0.9000E+01
       25  2    1    2    0    0 -.68028704E+01 -.14058237E+03 -.18616307E+04 0.18913516E+04 0.30287330E+03 0.0000E+00 0.0000E+00
       23  2    3    3    0    0 0.41399431E+02 -.10500050E+02 -.13439697E+04 0.13477220E+04 0.90972941E+02 0.0000E+00 0.0000E+00
      -24  1    1    2    0    0 0.68028704E+01 0.14058237E+03 -.61962232E+03 0.64047538E+03 0.80419002E+02 0.0000E+00 0.9000E+01
      -13  1    4    4    0    0 0.16546366E+02 0.25348000E+02 -.15365341E+03 0.15660679E+03 0.10565837E+00 0.0000E+00 0.9000E+01
       13  1    4    4    0    0 0.24853066E+02 -.35848050E+02 -.11903162E+04 0.11911152E+04 0.10565837E+00 0.0000E+00 0.9000E+01
       23  1    3    3    0    0 -.48202302E+02 -.13008232E+03 -.51766107E+03 0.54362957E+03 0.91188000E+02 0.0000E+00 0.9000E+01
#aMCatNLO 1  0  0  1  2 0.24945655D+03 0.00000000D+00  -5  7  0 0.00000000D+00 0.00000000D+00 0.00000000D+00 0.00000000D+00 0.00000000D+00
  <mgrwgt>
 0.1326396881D-02    3    2    0
 0.251759411095718D+03 0.000000000000000D+00 0.000000000000000D+00 0.251759411095718D+03
 0.251759411095718D+03 0.000000000000000D+00 0.000000000000000D+00 -.251759411095718D+03
 0.167090329954696D+03 0.680287391481848D+01 0.140582445305163D+03 0.405247996727729D+02
 0.302833089056300D+02 0.165463443181027D+02 0.253480623563295D+02 -.879217129170947D+00
 0.123574272446042D+03 0.248530605066218D+02 -.358481763842350D+02 -.115619351511533D+03
 0.182570910885068D+03 -.482022787395429D+02 -.130082331277258D+03 0.759737689679313D+02
 0.000000000000000D+00 -.000000000000000D+00 -.000000000000000D+00 -.000000000000000D+00
 0.393260764951196D+03 0.000000000000000D+00 0.000000000000000D+00 0.393260764951196D+03
 0.419496696321352D+03 0.000000000000000D+00 0.000000000000000D+00 -.419496696321352D+03
 0.231546128109781D+03 0.808489694515144D+02 0.197402072528051D+03 0.405247996727729D+02
 0.479445416709424D+02 0.310770446096610D+02 0.364982650492546D+02 -.879217129170947D+00
 0.136864799118175D+03 0.732292087098382D+02 0.127349340082128D+01 -.115619351511533D+03
 0.145569591518410D+03 0.127493038337133D+02 -.833108414997694D+02 0.759737689679313D+02
 0.250832400855241D+03 -.197904526604727D+03 -.151862989478358D+03 -.262359313701562D+02
0.314316106229D-04 0.000000000000D+00 0.000000000000D+00 0.600691517784D-07 0.000000000000D+00  7 -2 1 -24 -13 13 23 21 0 0.38903030D-02 0.38562154D+00 0.40402054D+05 0.40402054D+05 0.40402054D+05 0.11555276D+01  1  2  2  1  7  1       -2 0.130579052099D-02 0.100000000000D+01
-.163856831345D-05 0.000000000000D+00 -.120705660925D-06 0.600691517784D-07 0.000000000000D+00  7 -2 1 -24 -13 13 23 21 2 0.38903030D-02 0.38562154D+00 0.40402054D+05 0.40402054D+05 0.40402054D+05 0.11555276D+01  1  2  3  1  7  1       -2 -.908933441980D-04 0.100000000000D+01
0.201004687742D-05 0.000000000000D+00 0.000000000000D+00 0.600691517784D-07 0.000000000000D+00  7 -2 1 -24 -13 13 23 21 2 0.38903030D-02 0.38562154D+00 0.40402054D+05 0.40402054D+05 0.40402054D+05 0.11555276D+01  1  2 15  1  7  1       -2 0.111499704458D-03 0.100000000000D+01
  </mgrwgt>
  </event>
  <event>
  8     66 0.26562228E-05 0.18752867E+03 0.75467711E-02 0.97799693E-01
       -2 -1    0    0    0  501 0.00000000E+00 0.00000000E+00 0.58637603E+02 0.58638476E+02 0.32000000E+00 0.0000E+00 0.9000E+01
        1 -1    0    0  501    0 0.00000000E+00 0.00000000E+00 -.11154960E+04 0.11154960E+04 0.32000000E+00 0.0000E+00 0.9000E+01
       25  2    1    2    0    0 -.64893427E+02 0.31097666E+01 -.37466895E+03 0.48415591E+03 0.29968199E+03 0.0000E+00 0.0000E+00
       23  2    3    3    0    0 0.21685452E+02 -.95716675E+02 -.98412728E+02 0.16494545E+03 0.88825643E+02 0.0000E+00 0.0000E+00
      -24  1    1    2    0    0 0.64893427E+02 -.31097666E+01 -.68218942E+03 0.68997858E+03 0.80419002E+02 0.0000E+00 0.9000E+01
      -13  1    4    4    0    0 -.17891450E+02 -.34164068E+02 0.43281377E+01 0.38807621E+02 0.10565837E+00 0.0000E+00 0.9000E+01
       13  1    4    4    0    0 0.39576902E+02 -.61552607E+02 -.10274087E+03 0.12613783E+03 0.10565837E+00 0.0000E+00 0.9000E+01
       23  1    3    3    0    0 -.86578879E+02 0.98826442E+02 -.27625622E+03 0.31921046E+03 0.91188000E+02 0.0000E+00 0.9000E+01
#aMCatNLO 1  0  0  1  1 0.29813317D+03 0.00000000D+00  -5  7  0 0.00000000D+00 0.00000000D+00 0.00000000D+00 0.00000000D+00 0.00000000D+00
  <mgrwgt>
 0.1071213337D-02    3    2    0
 0.255754862442494D+03 0.000000000000000D+00 0.000000000000000D+00 0.255754862442494D+03
 0.255754862442494D+03 0.000000000000000D+00 0.000000000000000D+00 -.255754862442494D+03
 0.174288103951091D+03 0.648934271487491D+02 -.310976660078927D+01 -.140315001653688D+03
 0.980227884999730D+02 -.178915304163093D+02 -.341640295030066D+02 0.901175859241159D+02
 0.772619015142345D+02 0.395769823227516D+02 -.615526455661535D+02 0.247857967317446D+02
 0.161936930919689D+03 -.865788790551914D+02 0.988264416699495D+02 0.254116189978275D+02
 0.000000000000000D+00 0.000000000000000D+00 -.000000000000000D+00 -.000000000000000D+00
 0.388395637919298D+03 0.000000000000000D+00 0.000000000000000D+00 0.388395637919298D+03
 0.536590430382995D+03 0.000000000000000D+00 0.000000000000000D+00 -.536590430382995D+03
 0.165218845284788D+03 -.222821112170839D+02 0.254019431048724D+02 -.140315001653688D+03
 0.117178938141428D+03 -.731490926530896D+02 -.160914416753748D+02 0.901175859241159D+02
 0.563506803118672D+02 0.526914627004435D+01 -.503318939596731D+02 0.247857967317446D+02
 0.253303549922054D+03 -.193200591954259D+03 0.133698234646339D+03 0.254116189978275D+02
 0.332934054642155D+03 0.283362649554388D+03 -.926768421161634D+02 -.148194792463697D+03
0.107043531065D-04 0.000000000000D+00 0.000000000000D+00 0.384481065824D-06 0.000000000000D+00  7 -2 1 -24 -13 13 23 21 0 0.90212404D-02 0.17161484D+00 0.35167004D+05 0.35167004D+05 0.35167004D+05 0.11609863D+01  1  2  2  1  7  1       -2 0.105123664052D-02 0.100000000000D+01
-.525071991460D-06 0.000000000000D+00 -.411075344497D-07 0.384481065824D-06 0.000000000000D+00  7 -2 1 -24 -13 13 23 21 2 0.90212404D-02 0.17161484D+00 0.35167004D+05 0.35167004D+05 0.35167004D+05 0.11609863D+01  1  2  3  1  7  1       -2 -.695045319566D-04 0.100000000000D+01
0.675985945607D-06 0.000000000000D+00 0.000000000000D+00 0.384481065824D-06 0.000000000000D+00  7 -2 1 -24 -13 13 23 21 2 0.90212404D-02 0.17161484D+00 0.35167004D+05 0.35167004D+05 0.35167004D+05 0.11609863D+01  1  2 15  1  7  1       -2 0.894812283321D-04 0.100000000000D+01
  </mgrwgt>
  </event>
  <event>
  8     66 0.26562228E-05 0.29262735E+03 0.75467711E-02 0.94889089E-01
       -2 -1    0    0    0  501 0.00000000E+00 0.00000000E+00 0.12850173E+03 0.12850213E+03 0.32000000E+00 0.0000E+00 0.9000E+01
        1 -1    0    0  501    0 0.00000000E+00 0.00000000E+00 -.10476607E+04 0.10476608E+04 0.32000000E+00 0.0000E+00 0.9000E+01
       25  2    1    2    0    0 0.45885924E+02 0.23017905E+03 -.23135333E+03 0.44497773E+03 0.29898646E+03 0.0000E+00 0.0000E+00
       23  2    3    3    0    0 0.66463223E+02 -.20063543E+02 -.60843212E+02 0.12806491E+03 0.88762718E+02 0.0000E+00 0.0000E+00
      -24  1    1    2    0    0 -.45885924E+02 -.23017905E+03 -.68780567E+03 0.73118519E+03 0.80419002E+02 0.0000E+00 0.9000E+01
      -11  1    4    4    0    0 0.21019117E+02 -.10833227E+02 -.75750592E+02 0.79355619E+02 0.51099893E-03 0.0000E+00 0.9000E+01
       11  1    4    4    0    0 0.45444106E+02 -.92303168E+01 0.14907380E+02 0.48709295E+02 0.51099893E-03 0.0000E+00 0.9000E+01
       23  1    3    3    0    0 -.20577298E+02 0.25024260E+03 -.17051012E+03 0.31691282E+03 0.91188000E+02 0.0000E+00 0.9000E+01
#aMCatNLO 1  0  0  1  1 0.30721040D+03 0.00000000D+00  -5  7  0 0.00000000D+00 0.00000000D+00 0.00000000D+00 0.00000000D+00 0.00000000D+00
  <mgrwgt>
 0.1138693557D-02    3    2    0
 0.366914819345278D+03 0.000000000000000D+00 0.000000000000000D+00 0.366914819345278D+03
 0.366914819345278D+03 0.000000000000000D+00 0.000000000000000D+00 -.366914819345278D+03
 0.310412816433345D+03 -.458859244861074D+02 -.230179054121002D+03 -.186550222808034D+03
 0.323076320772951D+02 0.210191172490251D+02 -.108332265531246D+02 -.220141091793939D+02
 0.967422356881115D+02 0.454441056177554D+02 -.923031681482538D+01 0.849040321894924D+02
 0.294366954491805D+03 -.205772983806731D+02 0.250242597488952D+03 0.123660299797935D+03
 0.000000000000000D+00 -.000000000000000D+00 0.000000000000000D+00 -.000000000000000D+00
 0.478360942064271D+03 0.000000000000000D+00 0.000000000000000D+00 0.478360942064271D+03
 0.690539741913505D+03 0.000000000000000D+00 0.000000000000000D+00 -.690539741913505D+03
 0.318974679397065D+03 0.805226918422753D+02 -.232363380528940D+03 -.186550222808034D+03
 0.439009891164230D+02 0.363251511648745D+02 -.110977130656289D+02 -.220141091793939D+02
 0.123966300037750D+03 0.897720606499080D+02 -.999629879927404D+01 0.849040321894924D+02
 0.308698204370041D+03 0.100544638093456D+03 0.248149624303218D+03 0.123660299797935D+03
 0.373360511056496D+03 -.307164541750514D+03 0.530776809062504D+01 -.212178799849234D+03
0.353992788083D-04 0.000000000000D+00 0.000000000000D+00 0.257261749882D-06 0.000000000000D+00  7 -2 1 -24 -11 11 23 21 0 0.19769532D-01 0.16117861D+00 0.85630765D+05 0.85630765D+05 0.85630765D+05 0.11272928D+01  1  2  2  1  7  1       -2 0.112256570940D-02 0.100000000000D+01
-.184424872220D-05 0.000000000000D+00 -.135942551468D-06 0.257261749882D-06 0.000000000000D+00  7 -2 1 -24 -11 11 23 21 2 0.19769532D-01 0.16117861D+00 0.85630765D+05 0.85630765D+05 0.85630765D+05 0.11272928D+01  1  2  3  1  7  1       -2 -.743207934579D-04 0.100000000000D+01
0.224445653509D-05 0.000000000000D+00 0.000000000000D+00 0.257261749882D-06 0.000000000000D+00  7 -2 1 -24 -11 11 23 21 2 0.19769532D-01 0.16117861D+00 0.85630765D+05 0.85630765D+05 0.85630765D+05 0.11272928D+01  1  2 15  1  7  1       -2 0.904486409894D-04 0.100000000000D+01
  </mgrwgt>
  </event>
  <event>
  8     66 0.26562228E-05 0.14043136E+03 0.75467711E-02 0.10703351E+00
       -2 -1    0    0    0  501 0.00000000E+00 0.00000000E+00 0.47450128E+02 0.47451207E+02 0.32000000E+00 0.0000E+00 0.9000E+01
        1 -1    0    0  501    0 0.00000000E+00 0.00000000E+00 -.96348527E+03 0.96348532E+03 0.32000000E+00 0.0000E+00 0.9000E+01
       25  2    1    2    0    0 0.16195450E+01 -.15597502E+02 -.86400493E+03 0.91387848E+03 0.29736083E+03 0.0000E+00 0.0000E+00
       23  2    3    3    0    0 -.42059841E+02 -.85208383E+01 -.76756268E+03 0.77397021E+03 0.89642483E+02 0.0000E+00 0.0000E+00
      -24  1    1    2    0    0 -.16195450E+01 0.15597502E+02 -.52030213E+02 0.97058044E+02 0.80419002E+02 0.0000E+00 0.9000E+01
      -11  1    4    4    0    0 0.27537184E+02 -.40290652E+01 -.15817398E+03 0.16060366E+03 0.51099893E-03 0.0000E+00 0.9000E+01
       11  1    4    4    0    0 -.69597024E+02 -.44917731E+01 -.60938871E+03 0.61336654E+03 0.51099893E-03 0.0000E+00 0.9000E+01
       23  1    3    3    0    0 0.43679386E+02 -.70766633E+01 -.96442242E+02 0.13990827E+03 0.91188000E+02 0.0000E+00 0.9000E+01
#aMCatNLO 1  0  0  2  1 0.98995047D+02 0.00000000D+00  -5  7  0 0.00000000D+00 0.00000000D+00 0.00000000D+00 0.00000000D+00 0.00000000D+00
  <mgrwgt>
 0.1532898103D-02    4    2    0
 0.213817847055261D+03 0.000000000000000D+00 0.000000000000000D+00 0.213817847055261D+03
 0.213817847055261D+03 0.000000000000000D+00 0.000000000000000D+00 -.213817847055261D+03
 0.117993001737243D+03 -.161954497222444D+01 0.155975016478149D+02 0.849071700212882D+02
 0.408459574314004D+02 0.275371836452165D+02 -.402906519929149D+01 -.298975314866839D+02
 0.144639880524831D+03 -.695970243178159D+02 -.449177316240965D+01 -.126715323533503D+03
 0.124156854417046D+03 0.436793856448238D+02 -.707666328611372D+01 0.717056849988985D+02
 0.000000000000000D+00 -.000000000000000D+00 0.000000000000000D+00 0.000000000000000D+00
 0.356421822541955D+03 0.000000000000000D+00 0.000000000000000D+00 0.356421822541955D+03
 0.237362102779159D+03 0.000000000000000D+00 0.000000000000000D+00 -.237362102779159D+03
 0.119506492591770D+03 0.238191172281150D+02 0.616505885337387D+01 0.849071700212882D+02
 0.482274325623572D+02 0.370778687127446D+02 -.756667128134543D+01 -.298975314866839D+02
 0.133720128318116D+03 -.397817766894162D+02 -.155470171623563D+02 -.126715323533503D+03
 0.137490483208536D+03 0.717045326299989D+02 -.174681529667282D+02 0.717056849988985D+02
 0.154839388640335D+03 -.928197418814422D+02 0.344167825570561D+02 0.119059719762796D+03
0.982615309322D-05 0.000000000000D+00 0.000000000000D+00 0.227756586904D-07 0.000000000000D+00  7 -2 1 -24 -11 11 23 21 0 0.73001068D-02 0.14822859D+00 0.19720968D+05 0.19720968D+05 0.19720968D+05 0.11846272D+01  1  2  2  2  7  2        1 0.170289754754D-02 0.100000000000D+01
-.428588877360D-06 0.000000000000D+00 -.377350151635D-07 0.227756586904D-07 0.000000000000D+00  7 -2 1 -24 -11 11 23 21 2 0.73001068D-02 0.14822859D+00 0.19720968D+05 0.19720968D+05 0.19720968D+05 0.11846272D+01  1  2  3  2  7  2        1 -.104233976381D-03 0.100000000000D+01
0.610676112545D-06 0.000000000000D+00 0.000000000000D+00 0.227756586904D-07 0.000000000000D+00  7 -2 1 -24 -11 11 23 21 2 0.73001068D-02 0.14822859D+00 0.19720968D+05 0.19720968D+05 0.19720968D+05 0.11846272D+01  1  2 15  2  7  2        1 0.148518085405D-03 0.100000000000D+01
-.881090320523D-06 0.000000000000D+00 0.000000000000D+00 0.227756586904D-07 0.000000000000D+00  7 -2 1 -24 -11 11 23 21 2 0.73001068D-02 0.14822859D+00 0.19720968D+05 0.19720968D+05 0.19720968D+05 0.11846272D+01  1  2  4  2  7  2        1 -.214283553564D-03 0.100000000000D+01
  </mgrwgt>
  </event>
  <event>
  9     66 0.26562228E-05 0.29174200E+03 0.75467711E-02 0.97908249E-01
       -4 -1    0    0    0  501 0.00000000E+00 0.00000000E+00 0.23773342E+03 0.23773848E+03 0.15500000E+01 0.0000E+00 0.9000E+01
        3 -1    0    0  502    0 0.00000000E+00 0.00000000E+00 -.76061227E+03 0.76061243E+03 0.50000000E+00 0.0000E+00 0.9000E+01
       25  2    1    2    0    0 -.14152860E+03 -.13247523E+03 -.63419929E+02 0.36224950E+03 0.29937030E+03 0.0000E+00 0.0000E+00
       23  2    3    3    0    0 -.12665641E+03 -.19146774E+03 -.39895835E+02 0.25013378E+03 0.90958717E+02 0.0000E+00 0.0000E+00
      -24  1    1    2    0    0 0.24149767E+03 0.16908017E+02 -.16342478E+03 0.30295525E+03 0.80419002E+02 0.0000E+00 0.9000E+01
      -11  1    4    4    0    0 -.10064598E+03 -.18675294E+03 -.13188325E+02 0.21255635E+03 0.51099893E-03 0.0000E+00 0.9000E+01
       11  1    4    4    0    0 -.26010433E+02 -.47148082E+01 -.26707510E+02 0.37577428E+02 0.51099893E-03 0.0000E+00 0.9000E+01
       23  1    3    3    0    0 -.14872193E+02 0.58992512E+02 -.23524094E+02 0.11211571E+03 0.91188000E+02 0.0000E+00 0.9000E+01
       21  1    1    2  502  501 -.99969069E+02 0.11556721E+03 -.29603413E+03 0.33314616E+03 0.75000000E+00 0.0000E+00 0.9000E+01
#aMCatNLO 2  0  0  2  1 0.15280575D+03 0.00000000D+00  -5  7  0 0.00000000D+00 0.00000000D+00 0.00000000D+00 0.00000000D+00 0.00000000D+00
  <mgrwgt>
 0.1414795399D-04    2    2    0
 0.303186918589046D+03 0.000000000000000D+00 0.000000000000000D+00 0.303186918589046D+03
 0.303186918589046D+03 0.000000000000000D+00 0.000000000000000D+00 -.303186918589046D+03
 0.234619183824385D+03 0.201110206756983D+03 0.635971274811615D+02 -.639455673081297D+02
 0.209245111010987D+03 -.135592466516039D+03 -.146353755641105D+03 0.630775531852734D+02
 0.346215263039459D+02 -.312784626344201D+02 0.137519061473994D+01 -.147789278912624D+02
 0.127888016038774D+03 -.342392776065236D+02 0.813814375452034D+02 0.156469420141187D+02
 0.000000000000000D+00 -.000000000000000D+00 0.000000000000000D+00 -.000000000000000D+00
 0.339135545532468D+03 0.000000000000000D+00 0.000000000000000D+00 0.339135545532468D+03
 0.533193857767903D+03 0.000000000000000D+00 0.000000000000000D+00 -.533193857767903D+03
 0.262989083774872D+03 0.241497672033321D+03 0.169080174622593D+02 -.639455673081297D+02
 0.221325664035364D+03 -.100645976759975D+03 -.186752936273796D+03 0.630775531852734D+02
 0.302851242539949D+02 -.260104330089088D+02 -.471480817784173D+01 -.147789278912624D+02
 0.110731101304975D+03 -.148721932080138D+02 0.589925124655907D+02 0.156469420141187D+02
 0.246998429931166D+03 -.999690690564236D+02 0.115567214523788D+03 -.194058312235435D+03
-.118860871666D-04 0.000000000000D+00 0.000000000000D+00 0.165129092111D-05 0.000000000000D+00  7 -4 3 -24 -11 11 23 21 2 0.32697768D-01 0.11836690D+00 0.14292308D+06 0.14292308D+06 0.14292308D+06 0.11092120D+01  1  2 13  2  7  2        3 -.261703296773D-04 0.100000000000D+01
0.223883695009D-04 0.000000000000D+00 0.000000000000D+00 0.165129092111D-05 0.537220502101D-09  7 -4 3 -24 -11 11 23 21 2 0.36574716D-01 0.11701749D+00 0.14292308D+06 0.14292308D+06 0.14292308D+06 0.11092120D+01  1  2  1  2  7  2        3 0.403182836687D-04 0.100000000000D+01
  </mgrwgt>
  </event>
  <event>
  8     66 0.26562228E-05 0.13509218E+03 0.75467711E-02 0.95211858E-01
       -2 -1    0    0    0  501 0.00000000E+00 0.00000000E+00 0.10605916E+04 0.10605917E+04 0.32000000E+00 0.0000E+00 0.9000E+01
        1 -1    0    0  501    0 0.00000000E+00 0.00000000E+00 -.14282581E+03 0.14282617E+03 0.32000000E+00 0.0000E+00 0.9000E+01
       25  2    1    2    0    0 0.19203971E+01 0.31729398E+03 0.40961472E+03 0.59896443E+03 0.30049130E+03 0.0000E+00 0.0000E+00
       23  2    3    3    0    0 0.64413075E+02 0.57892200E+02 0.23575106E+03 0.26769651E+03 0.92640728E+02 0.0000E+00 0.0000E+00
      -24  1    1    2    0    0 -.19203971E+01 -.31729398E+03 0.50815109E+03 0.60445339E+03 0.80419002E+02 0.0000E+00 0.9000E+01
      -13  1    4    4    0    0 0.12397634E+02 0.62792175E+02 0.18115594E+03 0.19213028E+03 0.10565837E+00 0.0000E+00 0.9000E+01
       13  1    4    4    0    0 0.52015442E+02 -.48999746E+01 0.54595122E+02 0.75566225E+02 0.10565837E+00 0.0000E+00 0.9000E+01
       23  1    3    3    0    0 -.62492678E+02 0.25940178E+03 0.17386365E+03 0.33126793E+03 0.91188000E+02 0.0000E+00 0.9000E+01
#aMCatNLO 1  0  0  2  1 0.20498974D+03 0.00000000D+00  -5  7  0 0.00000000D+00 0.00000000D+00 0.00000000D+00 0.00000000D+00 0.00000000D+00
  <mgrwgt>
 0.7252320967D-03    9    2    0
 0.389204442905553D+03 0.000000000000000D+00 0.000000000000000D+00 0.389204442905553D+03
 0.389204442905553D+03 0.000000000000000D+00 0.000000000000000D+00 -.389204442905553D+03
 0.335358832628472D+03 -.192039712688346D+01 -.317293982152986D+03 0.729326513431172D+02
 0.834449720621893D+02 0.123975824241963D+02 0.627922622445940D+02 0.535396592695635D+02
 0.524559468019163D+02 0.520154928959397D+02 -.490006252913713D+01 -.469086781826909D+01
 0.307149134318528D+03 -.624926781932525D+02 0.259401782437530D+03 -.121781442794412D+03
 0.000000000000000D+00 0.000000000000000D+00 0.000000000000000D+00 -.000000000000000D+00
 0.461688729042486D+03 0.000000000000000D+00 0.000000000000000D+00 0.461688729042486D+03
 0.579882409129328D+03 0.000000000000000D+00 0.000000000000000D+00 -.579882409129328D+03
 0.415512344515114D+03 -.577067248919476D+02 -.396905599305912D+03 0.729326513431172D+02
 0.708742043625794D+02 0.932366527620934D+00 0.464304686815231D+02 0.535396592695635D+02
 0.474403685220217D+02 0.445936490979352D+02 -.154916359609622D+02 -.469086781826909D+01
 0.271121022264269D+03 -.105455531840935D+03 0.198090303560470D+03 -.121781442794412D+03
 0.236623198507830D+03 0.117636241107326D+03 0.167876463024881D+03 -.118193680086843D+03
0.112983132818D-03 0.000000000000D+00 0.000000000000D+00 0.123868044387D-05 0.000000000000D+00  7 -2 1 -24 -13 13 23 21 0 0.16316797D+00 0.21973233D-01 0.13160838D+06 0.13160838D+06 0.13160838D+06 0.11120629D+01  1  2  2  2  7  2        1 0.693846048626D-03 0.100000000000D+01
-.623911140243D-05 0.000000000000D+00 -.433884979161D-06 0.123868044387D-05 0.000000000000D+00  7 -2 1 -24 -13 13 23 21 2 0.16316797D+00 0.21973233D-01 0.13160838D+06 0.13160838D+06 0.13160838D+06 0.11120629D+01  1  2  3  2  7  2        1 -.473839184699D-04 0.100000000000D+01
0.737488064739D-05 0.000000000000D+00 0.000000000000D+00 0.123868044387D-05 0.000000000000D+00  7 -2 1 -24 -13 13 23 21 2 0.16316797D+00 0.21973233D-01 0.13160838D+06 0.13160838D+06 0.13160838D+06 0.11120629D+01  1  2 15  2  7  2        1 0.560096976606D-04 0.100000000000D+01
0.339026183698D-04 0.000000000000D+00 0.000000000000D+00 0.123868044387D-05 0.000000000000D+00  7 -2 1 -24 -13 13 23 21 2 0.16316797D+00 0.33979304D-01 0.22559177D+06 0.22559177D+06 0.22559177D+06 0.10938316D+01  1  2 12  2  7  2        1 0.138557677075D-03 0.100000000000D+01
-.690156739735D-04 0.000000000000D+00 0.000000000000D+00 0.123868044387D-05 0.000000000000D+00  7 -2 1 -24 -13 13 23 21 2 0.16316797D+00 0.21973233D-01 0.13160838D+06 0.13160838D+06 0.13160838D+06 0.11120629D+01  1  2  4  2  7  2        1 -.524150453129D-03 0.100000000000D+01
-.784347890568D-04 0.000000000000D+00 -.424348991400D-04 0.123868044387D-05 0.000000000000D+00  7 -2 1 -24 -13 13 23 21 2 0.16316797D+00 0.38519548D-01 0.13160838D+06 0.13160838D+06 0.13160838D+06 0.11120629D+01  1  2  5  2  7  2        1 -.286405503307D-03 0.100000000000D+01
0.931047994754D-04 0.000000000000D+00 0.365272528533D-04 0.123868044387D-05 0.000000000000D+00  7 -2 1 -24 -13 13 23 21 2 0.16316797D+00 0.21973233D-01 0.13160838D+06 0.13160838D+06 0.13160838D+06 0.11120629D+01  1  2  6  2  7  2        1 0.707099127254D-03 0.100000000000D+01
0.172003690254D-05 0.000000000000D+00 0.000000000000D+00 0.123868044387D-05 0.000000000000D+00  7 -2 21 -24 -13 13 23 -1 2 0.16316797D+00 0.33979304D-01 0.22559177D+06 0.22559177D+06 0.22559177D+06 0.10938316D+01  1  2 12  4  7  2        1 0.410475065637D-04 0.100000000000D+01
-.269954043070D-05 0.000000000000D+00 -.262985386514D-05 0.123868044387D-05 0.000000000000D+00  7 -2 21 -24 -13 13 23 -1 2 0.16316797D+00 0.38519548D-01 0.13160838D+06 0.13160838D+06 0.13160838D+06 0.11120629D+01  1  2  5  4  7  2        1 -.533880855668D-04 0.100000000000D+01
  </mgrwgt>
  </event>
  <event>
  8     66 0.26562228E-05 0.45739126E+03 0.75467711E-02 0.85961759E-01
       -2 -1    0    0    0  501 0.00000000E+00 0.00000000E+00 0.37705455E+03 0.37705468E+03 0.32000000E+00 0.0000E+00 0.9000E+01
        1 -1    0    0  501    0 0.00000000E+00 0.00000000E+00 -.60662455E+03 0.60662463E+03 0.32000000E+00 0.0000E+00 0.9000E+01
       25  2    1    2    0    0 -.39378703E+03 -.13658512E+03 -.22441630E+03 0.55915900E+03 0.29761115E+03 0.0000E+00 0.0000E+00
       23  2    3    3    0    0 -.59983738E+02 0.25758548E+02 -.11674261E+03 0.16205828E+03 0.91501363E+02 0.0000E+00 0.0000E+00
      -24  1    1    2    0    0 0.39378703E+03 0.13658512E+03 -.51537043E+01 0.42452031E+03 0.80419002E+02 0.0000E+00 0.9000E+01
      -13  1    4    4    0    0 -.75114950E+02 -.34282859E+01 -.10013964E+03 0.12522767E+03 0.10565837E+00 0.0000E+00 0.9000E+01
       13  1    4    4    0    0 0.15131212E+02 0.29186834E+02 -.16602963E+02 0.36830618E+02 0.10565837E+00 0.0000E+00 0.9000E+01
       23  1    3    3    0    0 -.33380329E+03 -.16234367E+03 -.10767369E+03 0.39710072E+03 0.91188000E+02 0.0000E+00 0.9000E+01
#aMCatNLO 1  0  0  1  1 0.98647223D+03 0.00000000D+00  -5  7  0 0.00000000D+00 0.00000000D+00 0.00000000D+00 0.00000000D+00 0.00000000D+00
  <mgrwgt>
 0.1275008355D-02    5    2    0
 0.478257935294119D+03 0.000000000000000D+00 0.000000000000000D+00 0.478257935294119D+03
 0.478257935294119D+03 0.000000000000000D+00 0.000000000000000D+00 -.478257935294119D+03
 0.435339056123988D+03 0.393787028755674D+03 0.136585124533939D+03 0.965875642739829D+02
 0.104749853237923D+03 -.751150707161057D+02 -.342832940398737D+01 -.729280773240228D+02
 0.338916326036042D+02 0.151313326023306D+02 0.291868776011083D+02 -.823478658577483D+01
 0.382535328622722D+03 -.333803290641899D+03 -.162343672731060D+03 -.154247003641852D+02
 0.000000000000000D+00 0.000000000000000D+00 0.000000000000000D+00 0.000000000000000D+00
 0.284909678597924D+04 0.000000000000000D+00 0.000000000000000D+00 0.284909678597924D+04
 0.799554587627528D+03 0.000000000000000D+00 0.000000000000000D+00 -.799554587627528D+03
 0.198590423492964D+03 0.131600126104796D+03 0.795184858103144D+02 0.965875642739829D+02
 0.226923507180902D+03 -.212291860652686D+03 -.332857259155180D+02 -.729280773240228D+02
 0.270363423689482D+02 -.100678694484972D+02 0.237021117908456D+02 -.823478658577483D+01
 0.921513073556604D+03 -.873144688175292D+03 -.279734741356317D+03 -.154247003641852D+02
 0.227458802700735D+04 0.963904292171680D+03 0.209799869670675D+03 0.204954219835171D+04
0.120774554637D-03 0.000000000000D+00 0.000000000000D+00 0.402875055611D-06 0.000000000000D+00  7 -2 1 -24 -13 13 23 21 0 0.58008409D-01 0.93326871D-01 0.20920676D+06 0.20920676D+06 0.20920676D+06 0.10963274D+01  1  2  2  1  7  1       -2 0.126355491285D-02 0.100000000000D+01
-.669346185430D-05 0.000000000000D+00 -.463806090478D-06 0.402875055611D-06 0.000000000000D+00  7 -2 1 -24 -13 13 23 21 2 0.58008409D-01 0.93326871D-01 0.20920676D+06 0.20920676D+06 0.20920676D+06 0.10963274D+01  1  2  3  1  7  1       -2 -.841685762553D-04 0.100000000000D+01
0.767989286757D-05 0.000000000000D+00 0.000000000000D+00 0.402875055611D-06 0.000000000000D+00  7 -2 1 -24 -13 13 23 21 2 0.58008409D-01 0.93326871D-01 0.20920676D+06 0.20920676D+06 0.20920676D+06 0.10963274D+01  1  2 15  1  7  1       -2 0.965726947472D-04 0.100000000000D+01
-.213400453578D-06 0.000000000000D+00 -.627077009772D-04 0.402875055611D-06 0.000000000000D+00  7 -2 1 -24 -13 13 23 21 2 0.41973588D+00 0.93326871D-01 0.20920676D+06 0.20920676D+06 0.20920676D+06 0.10963274D+01  1  2  5  1  7  1       -2 -.412013122229D-08 0.100000000000D+01
-.635479198522D-05 0.000000000000D+00 -.151488311487D-04 0.402875055611D-06 0.000000000000D+00  7 21 1 -24 -13 13 23 2 2 0.41973588D+00 0.93326871D-01 0.20920676D+06 0.20920676D+06 0.20920676D+06 0.10963274D+01  1  2  5  3  7  1       -2 -.946556360522D-06 0.100000000000D+01
  </mgrwgt>
  </event>
  <event>
  8     66 0.26562228E-05 0.27420020E+03 0.75467711E-02 0.85019662E-01
       -2 -1    0    0    0  501 0.00000000E+00 0.00000000E+00 0.44118751E+03 0.44118762E+03 0.32000000E+00 0.0000E+00 0.9000E+01
        1 -1    0    0  501    0 0.00000000E+00 0.00000000E+00 -.24270186E+03 0.24270207E+03 0.32000000E+00 0.0000E+00 0.9000E+01
       25  2    1    2    0    0 0.17400309E+03 0.10976553E+03 -.31481338E+02 0.36502048E+03 0.29987219E+03 0.0000E+00 0.0000E+00
       23  2    3    3    0    0 -.23771924E+02 0.27537356E+02 0.56876893E+02 0.11602478E+03 0.94357608E+02 0.0000E+00 0.0000E+00
      -24  1    1    2    0    0 -.17400309E+03 -.10976553E+03 0.22996699E+03 0.31886922E+03 0.80419002E+02 0.0000E+00 0.9000E+01
      -13  1    4    4    0    0 -.56832494E+02 0.23155305E+02 0.55346401E+02 0.82639795E+02 0.10565837E+00 0.0000E+00 0.9000E+01
       13  1    4    4    0    0 0.33060570E+02 0.43820510E+01 0.15304915E+01 0.33384985E+02 0.10565837E+00 0.0000E+00 0.9000E+01
       23  1    3    3    0    0 0.19777502E+03 0.82228174E+02 -.88358231E+02 0.24899570E+03 0.91188000E+02 0.0000E+00 0.9000E+01
#aMCatNLO 1  0  0  1  1 0.12420392D+04 0.00000000D+00  -5  7  0 0.00000000D+00 0.00000000D+00 0.00000000D+00 0.00000000D+00 0.00000000D+00
  <mgrwgt>
 0.1690283327D-02    3    2    0
 0.327226436448044D+03 0.000000000000000D+00 0.000000000000000D+00 0.327226436448044D+03
 0.327226436448044D+03 0.000000000000000D+00 0.000000000000000D+00 -.327226436448044D+03
 0.263466221874635D+03 -.174003091225897D+03 -.109765530063133D+03 0.143602530508051D+03
 0.695711924379015D+02 -.568326056547552D+02 0.231553274397165D+02 0.327724970498453D+02
 0.344223932213689D+02 0.330606776086209D+02 0.438202685074568D+01 -.852587777444175D+01
 0.286993065362182D+03 0.197775019272031D+03 0.822281757726704D+02 -.167849149783454D+03
 0.000000000000000D+00 0.000000000000000D+00 0.000000000000000D+00 -.000000000000000D+00
 0.104468257316367D+04 0.000000000000000D+00 0.000000000000000D+00 0.104468257316367D+04
 0.182724242432062D+04 0.000000000000000D+00 0.000000000000000D+00 -.182724242432062D+04
 0.927597758589009D+03 -.595576481139970D+03 -.691836219151324D+03 0.143602530508051D+03
 0.176918734563220D+03 -.144076948368473D+03 -.973038284210717D+02 0.327724970498453D+02
 0.303026191770765D+02 0.101514608607336D+02 -.272489629079567D+02 -.852587777444175D+01
 0.269093218326609D+03 0.950009411396650D+00 -.189530127432190D+03 -.167849149783454D+03
 0.146801266682838D+04 0.728551959236313D+03 0.100591913791254D+04 -.782559851156944D+03
0.628423506538D-04 0.000000000000D+00 0.000000000000D+00 0.835963684651D-06 0.000000000000D+00  7 -2 1 -24 -13 13 23 21 0 0.67875026D-01 0.37338773D-01 0.75185751D+05 0.75185751D+05 0.75185751D+05 0.11320305D+01  1  2  2  1  7  1       -2 0.166713939390D-02 0.100000000000D+01
-.335856461978D-05 0.000000000000D+00 -.241331173281D-06 0.835963684651D-06 0.000000000000D+00  7 -2 1 -24 -13 13 23 21 2 0.67875026D-01 0.37338773D-01 0.75185751D+05 0.75185751D+05 0.75185751D+05 0.11320305D+01  1  2  3  1  7  1       -2 -.114179853464D-03 0.100000000000D+01
0.403933617287D-05 0.000000000000D+00 0.000000000000D+00 0.835963684651D-06 0.000000000000D+00  7 -2 1 -24 -13 13 23 21 2 0.67875026D-01 0.37338773D-01 0.75185751D+05 0.75185751D+05 0.75185751D+05 0.11320305D+01  1  2 15  1  7  1       -2 0.137323786952D-03 0.100000000000D+01
  </mgrwgt>
  </event>
  <event>
  8     66 0.26562228E-05 0.14991202E+03 0.75467711E-02 0.96832352E-01
       -2 -1    0    0    0  501 0.00000000E+00 0.00000000E+00 0.40909871E+03 0.40909884E+03 0.32000000E+00 0.0000E+00 0.9000E+01
        1 -1    0    0  501    0 0.00000000E+00 0.00000000E+00 -.43883176E+03 0.43883188E+03 0.32000000E+00 0.0000E+00 0.9000E+01
       25  2    1    2    0    0 -.28195880E+03 0.23193825E+03 0.10952809E+02 0.47187397E+03 0.29874565E+03 0.0000E+00 0.0000E+00
       23  2    3    3    0    0 -.27199997E+03 0.16789687E+03 -.62807908E+02 0.33787259E+03 0.89664411E+02 0.0000E+00 0.0000E+00
      -24  1    1    2    0    0 0.28195880E+03 -.23193825E+03 -.40685861E+02 0.37605674E+03 0.80419002E+02 0.0000E+00 0.9000E+01
      -11  1    4    4    0    0 -.26754087E+03 0.15778027E+03 -.76883041E+02 0.31997458E+03 0.51099893E-03 0.0000E+00 0.9000E+01
       11  1    4    4    0    0 -.44591036E+01 0.10116596E+02 0.14075133E+02 0.17898003E+02 0.51099893E-03 0.0000E+00 0.9000E+01
       23  1    3    3    0    0 -.99588287E+01 0.64041383E+02 0.73760717E+02 0.13400139E+03 0.91188000E+02 0.0000E+00 0.9000E+01
#aMCatNLO 1  0  0  1  2 0.18812510D+02 0.00000000D+00  -5  7  0 0.00000000D+00 0.00000000D+00 0.00000000D+00 0.00000000D+00 0.00000000D+00
  <mgrwgt>
 0.1191539364D-02    9    2    0
 0.423704627433157D+03 0.000000000000000D+00 0.000000000000000D+00 0.423704627433157D+03
 0.423704627433157D+03 0.000000000000000D+00 0.000000000000000D+00 -.423704627433157D+03
 0.374860608554739D+03 0.281958803693548D+03 -.231938250488084D+03 -.275161929032408D+02
 0.317473887089907D+03 -.267540871404554D+03 0.157780271340818D+03 -.657034024056984D+02
 0.184028706196683D+02 -.445910359489485D+01 0.101165957973943D+02 0.147117820690218D+02
 0.136671888602000D+03 -.995882869409951D+01 0.640413833498725D+02 0.785078132399175D+02
 0.000000000000000D+00 0.000000000000000D+00 -.000000000000000D+00 0.000000000000000D+00
 0.450287860319683D+03 0.000000000000000D+00 0.000000000000000D+00 0.450287860319683D+03
 0.427150471412117D+03 0.000000000000000D+00 0.000000000000000D+00 -.427150471412117D+03
 0.366859503839358D+03 0.275329504556271D+03 -.227057707756860D+03 -.275161929032408D+02
 0.324411773074490D+03 -.273277876485115D+03 0.162003900093287D+03 -.657034024056984D+02
 0.186202747842512D+02 -.479000672369542D+01 0.103602093116685D+02 0.147117820690218D+02
 0.137726496583480D+03 -.124113292368029D+02 0.658469337480599D+02 0.785078132399175D+02
 0.298202834502211D+02 0.151497078893423D+02 -.111533353961561D+02 0.231373889075665D+02
0.546703813530D-04 0.000000000000D+00 0.000000000000D+00 0.607562075275D-06 0.000000000000D+00  7 -2 1 -24 -11 11 23 21 0 0.62938282D-01 0.67512598D-01 0.16296537D+06 0.16296537D+06 0.16296537D+06 0.11047218D+01  1  2  2  1  7  1       -2 0.765936613587D-03 0.100000000000D+01
-.302859624387D-05 0.000000000000D+00 -.209948659438D-06 0.607562075275D-06 0.000000000000D+00  7 -2 1 -24 -11 11 23 21 2 0.62938282D-01 0.67512598D-01 0.16296537D+06 0.16296537D+06 0.16296537D+06 0.11047218D+01  1  2  3  1  7  1       -2 -.517830916785D-04 0.100000000000D+01
0.348979270490D-05 0.000000000000D+00 0.000000000000D+00 0.607562075275D-06 0.000000000000D+00  7 -2 1 -24 -11 11 23 21 2 0.62938282D-01 0.67512598D-01 0.16296537D+06 0.16296537D+06 0.16296537D+06 0.11047218D+01  1  2 15  1  7  1       -2 0.596686520834D-04 0.100000000000D+01
0.371952233436D-03 0.000000000000D+00 0.000000000000D+00 0.607562075275D-06 0.000000000000D+00  7 -2 1 -24 -11 11 23 21 2 0.67133266D-01 0.67512598D-01 0.17094126D+06 0.17094126D+06 0.17094126D+06 0.11031007D+01  1  2 12  1  7  1       -2 0.552799761395D-02 0.100000000000D+01
-.379131730733D-03 0.000000000000D+00 0.000000000000D+00 0.607562075275D-06 0.000000000000D+00  7 -2 1 -24 -11 11 23 21 2 0.62938282D-01 0.67512598D-01 0.16296537D+06 0.16296537D+06 0.16296537D+06 0.11047218D+01  1  2  4  1  7  1       -2 -.648241349784D-02 0.100000000000D+01
-.918883769895D-03 0.000000000000D+00 -.103283718054D-03 0.607562075275D-06 0.000000000000D+00  7 -2 1 -24 -11 11 23 21 2 0.67244835D-01 0.67512598D-01 0.16296537D+06 0.16296537D+06 0.16296537D+06 0.11047218D+01  1  2  5  1  7  1       -2 -.136643337841D-01 0.100000000000D+01
0.923921099923D-03 0.000000000000D+00 0.103057911179D-03 0.607562075275D-06 0.000000000000D+00  7 -2 1 -24 -11 11 23 21 2 0.62938282D-01 0.67512598D-01 0.16296537D+06 0.16296537D+06 0.16296537D+06 0.11047218D+01  1  2  6  1  7  1       -2 0.157972496723D-01 0.100000000000D+01
0.512272557777D-05 0.000000000000D+00 0.000000000000D+00 0.607562075275D-06 0.000000000000D+00  7 21 1 -24 -11 11 23 2 2 0.67133266D-01 0.67512598D-01 0.17094126D+06 0.17094126D+06 0.17094126D+06 0.11031007D+01  1  2 12  3  7  1       -2 0.765381122744D-03 0.100000000000D+01
-.101970483576D-04 0.000000000000D+00 -.116369202358D-05 0.607562075275D-06 0.000000000000D+00  7 21 1 -24 -11 11 23 2 2 0.67244835D-01 0.67512598D-01 0.16296537D+06 0.16296537D+06 0.16296537D+06 0.11047218D+01  1  2  5  3  7  1       -2 -.152616393677D-02 0.100000000000D+01
  </mgrwgt>
  </event>
  <event>
  8     66 0.26562228E-05 0.22208646E+03 0.75467711E-02 0.99786841E-01
       -2 -1    0    0    0  501 0.00000000E+00 0.00000000E+00 0.20961125E+03 0.20961150E+03 0.32000000E+00 0.0000E+00 0.9000E+01
        1 -1    0    0  501    0 0.00000000E+00 0.00000000E+00 -.61307183E+03 0.61307192E+03 0.32000000E+00 0.0000E+00 0.9000E+01
       25  2    1    2    0    0 -.98835379E+02 0.81849028E+02 -.53205349E+03 0.62401019E+03 0.29973340E+03 0.0000E+00 0.0000E+00
       23  2    3    3    0    0 -.12788886E+03 -.13789984E+02 -.14620639E+03 0.21512859E+03 0.91423624E+02 0.0000E+00 0.0000E+00
      -24  1    1    2    0    0 0.98835379E+02 -.81849028E+02 0.12859291E+03 0.19867322E+03 0.80419002E+02 0.0000E+00 0.9000E+01
      -13  1    4    4    0    0 -.13613770E+03 0.57091710E+01 -.13139197E+03 0.18928795E+03 0.10565837E+00 0.0000E+00 0.9000E+01
       13  1    4    4    0    0 0.82488419E+01 -.19499155E+02 -.14814420E+02 0.25840639E+02 0.10565837E+00 0.0000E+00 0.9000E+01
       23  1    3    3    0    0 0.29053482E+02 0.95639012E+02 -.38584711E+03 0.40888160E+03 0.91188000E+02 0.0000E+00 0.9000E+01
#aMCatNLO 1  0  0  1  2 0.16807382D+03 0.00000000D+00  -5  7  0 0.00000000D+00 0.00000000D+00 0.00000000D+00 0.00000000D+00 0.00000000D+00
  <mgrwgt>
 0.1240051826D-02    4    2    0
 0.358478578049918D+03 0.000000000000000D+00 0.000000000000000D+00 0.358478578049918D+03
 0.358478578049918D+03 0.000000000000000D+00 0.000000000000000D+00 -.358478578049918D+03
 0.300335010424976D+03 0.988353791775344D+02 -.818490280307661D+02 0.259357295956469D+03
 0.143261973001434D+03 -.136137895852882D+03 0.570920459428880D+01 -.442478384095082D+02
 0.213144034553229D+02 0.824903458129184D+01 -.194991885831008D+02 -.245741077836077D+01
 0.252045769218104D+03 0.290534820940562D+02 0.956390120195780D+02 -.212652046768601D+03
 0.000000000000000D+00 -.000000000000000D+00 0.000000000000000D+00 -.000000000000000D+00
 0.405276959989857D+03 0.000000000000000D+00 0.000000000000000D+00 0.405276959989857D+03
 0.558656262860052D+03 0.000000000000000D+00 0.000000000000000D+00 -.558656262860052D+03
 0.336999301725815D+03 0.137709400775125D+03 -.144468776493818D+03 0.259357295956469D+03
 0.129176270791387D+03 -.119520604156361D+03 -.210585591566540D+02 -.442478384095082D+02
 0.267958125583975D+02 0.111835032592305D+02 -.242261420325637D+02 -.245741077836077D+01
 0.243422784974022D+03 0.592744429138064D+02 0.469579420640628D+02 -.212652046768601D+03
 0.227539052800287D+03 -.886467427918007D+02 0.142795535618973D+03 -.153379302870195D+03
0.430542029257D-04 0.000000000000D+00 0.000000000000D+00 0.715343086310D-05 0.000000000000D+00  7 -2 1 -24 -13 13 23 21 0 0.32247911D-01 0.94318769D-01 0.49322394D+05 0.49322394D+05 0.49322394D+05 0.11478170D+01  1  2  2  1  7  1       -2 0.139322174593D-02 0.100000000000D+01
-.172519050513D-05 0.000000000000D+00 -.165339475667D-06 0.715343086310D-05 0.000000000000D+00  7 -2 1 -24 -13 13 23 21 2 0.32247911D-01 0.94318769D-01 0.49322394D+05 0.49322394D+05 0.49322394D+05 0.11478170D+01  1  2  3  1  7  1       -2 -.735507400608D-04 0.100000000000D+01
0.268429141745D-05 0.000000000000D+00 0.000000000000D+00 0.715343086310D-05 0.000000000000D+00  7 -2 1 -24 -13 13 23 21 2 0.32247911D-01 0.94318769D-01 0.49322394D+05 0.49322394D+05 0.49322394D+05 0.11478170D+01  1  2 15  1  7  1       -2 0.114440474663D-03 0.100000000000D+01
-.455182195877D-05 0.000000000000D+00 0.000000000000D+00 0.715343086310D-05 0.000000000000D+00  7 -2 1 -24 -13 13 23 21 2 0.32247911D-01 0.94318769D-01 0.49322394D+05 0.49322394D+05 0.49322394D+05 0.11478170D+01  1  2  4  1  7  1       -2 -.194059654685D-03 0.100000000000D+01
  </mgrwgt>
  </event>
  <event>
  7     66 0.26562228E-05 0.44674657E+03 0.75467711E-02 0.95216306E-01
       -2 -1    0    0    0  501 0.00000000E+00 0.00000000E+00 0.54038326E+03 0.54038335E+03 0.32000000E+00 0.0000E+00 0.9000E+01
        1 -1    0    0  501    0 0.00000000E+00 0.00000000E+00 -.46653604E+03 0.46653615E+03 0.32000000E+00 0.0000E+00 0.9000E+01
       23  2    1    2    0    0 0.31921428E+03 0.22495774E+03 0.19469263E+03 0.44597042E+03 0.92090449E+02 0.0000E+00 0.0000E+00
      -24  1    1    2    0    0 -.33458761E+03 -.19545372E+03 -.19270764E+03 0.44017550E+03 0.80419002E+02 0.0000E+00 0.9000E+01
      -13  1    3    3    0    0 0.16870415E+03 0.17250769E+03 0.12864729E+03 0.27344127E+03 0.10565837E+00 0.0000E+00 0.9000E+01
       13  1    3    3    0    0 0.15051013E+03 0.52450048E+02 0.66045340E+02 0.17252914E+03 0.10565837E+00 0.0000E+00 0.9000E+01
       23  1    1    2    0    0 0.15373327E+02 -.29504025E+02 0.71862227E+02 0.12077358E+03 0.91188000E+02 0.0000E+00 0.9000E+01
#aMCatNLO 1  0  0  2  1 0.55741771D+02 0.00000000D+00  -5  7  0 0.00000000D+00 0.00000000D+00 0.00000000D+00 0.00000000D+00 0.00000000D+00
  <mgrwgt>
 0.1236815592D-02    4    2    0
 0.502103939760059D+03 0.000000000000000D+00 0.000000000000000D+00 0.502103939760059D+03
 0.502103939760059D+03 0.000000000000000D+00 0.000000000000000D+00 -.502103939760059D+03
 0.455535412951077D+03 -.334587633640456D+03 -.195453731075094D+03 -.225597541923316D+03
 0.264719304270932D+03 0.168704157828140D+03 0.172507829785334D+03 0.108886481474695D+03
 0.168138053226360D+03 0.150510100195204D+03 0.524498788251345D+02 0.535362017069644D+02
 0.115815109071748D+03 0.153733756171121D+02 -.295039775353737D+02 0.631748587416569D+02
 0.000000000000000D+00 -.000000000000000D+00 0.000000000000000D+00 0.000000000000000D+00
 0.667252027106836D+03 0.000000000000000D+00 0.000000000000000D+00 0.667252027106836D+03
 0.507602567739621D+03 0.000000000000000D+00 0.000000000000000D+00 -.507602567739621D+03
 0.438291430712452D+03 -.309837139766331D+03 -.196821894567586D+03 -.225597541923316D+03
 0.273948485937544D+03 0.183620127220039D+03 0.171683301398914D+03 0.108886481474695D+03
 0.176578001936217D+03 0.160055453047490D+03 0.519222286149261D+02 0.535362017069644D+02
 0.116935833755681D+03 0.218183608236825D+02 -.298602449098399D+02 0.631748587416569D+02
 0.169100842504562D+03 -.556568013248798D+02 0.307660946358523D+01 0.159649459367215D+03
0.187057674386D-03 0.000000000000D+00 0.000000000000D+00 0.100500185698D-07 0.000000000000D+00  7 -2 1 -24 -13 13 23 21 0 0.83135901D-01 0.71774791D-01 0.19958250D+06 0.19958250D+06 0.19958250D+06 0.10978951D+01  1  2  2  2  7  2        1 0.130778339475D-02 0.100000000000D+01
-.102196733599D-04 0.000000000000D+00 -.718350723059D-06 0.100500185698D-07 0.000000000000D+00  7 -2 1 -24 -13 13 23 21 2 0.83135901D-01 0.71774791D-01 0.19958250D+06 0.19958250D+06 0.19958250D+06 0.10978951D+01  1  2  3  2  7  2        1 -.861229684099D-04 0.100000000000D+01
0.118777246129D-04 0.000000000000D+00 0.000000000000D+00 0.100500185698D-07 0.000000000000D+00  7 -2 1 -24 -13 13 23 21 2 0.83135901D-01 0.71774791D-01 0.19958250D+06 0.19958250D+06 0.19958250D+06 0.10978951D+01  1  2 15  2  7  2        1 0.100095655271D-03 0.100000000000D+01
-.100793559496D-04 0.000000000000D+00 0.000000000000D+00 0.100500185698D-07 0.000000000000D+00  7 -2 1 -24 -13 13 23 21 2 0.83135901D-01 0.71774791D-01 0.19958250D+06 0.19958250D+06 0.19958250D+06 0.10978951D+01  1  2  4  2  7  2        1 -.849404891396D-04 0.100000000000D+01
  </mgrwgt>
  </event>
  <event>
  9     66 0.26562228E-05 0.38573767E+03 0.75467711E-02 0.92681922E-01
       21 -1    0    0  502  501 0.00000000E+00 0.00000000E+00 0.35684520E+03 0.35684599E+03 0.75000000E+00 0.0000E+00 0.9000E+01
        1 -1    0    0  501    0 0.00000000E+00 0.00000000E+00 -.11013436E+04 0.11013436E+04 0.32000000E+00 0.0000E+00 0.9000E+01
       25  2    1    2    0    0 -.51371259E+03 -.14168181E+03 -.28664022E+03 0.67489296E+03 0.29890388E+03 0.0000E+00 0.0000E+00
       23  2    3    3    0    0 -.29608934E+03 0.28335262E+02 -.92334212E+02 0.32512767E+03 0.93330642E+02 0.0000E+00 0.0000E+00
      -24  1    1    2    0    0 0.23643118E+03 -.60171659E+02 -.71447718E+02 0.26663144E+03 0.80419002E+02 0.0000E+00 0.9000E+01
      -11  1    4    4    0    0 -.22961677E+03 0.34068853E+01 -.31806181E+02 0.23183421E+03 0.51099893E-03 0.0000E+00 0.9000E+01
       11  1    4    4    0    0 -.66472571E+02 0.24928377E+02 -.60528031E+02 0.93293457E+02 0.51099893E-03 0.0000E+00 0.9000E+01
       23  1    3    3    0    0 -.21762325E+03 -.17001708E+03 -.19430601E+03 0.34976529E+03 0.91188000E+02 0.0000E+00 0.9000E+01
        2  1    1    2  502    0 0.27728142E+03 0.20185347E+03 -.38641046E+03 0.51666522E+03 0.32000000E+00 0.0000E+00 0.9000E+01
#aMCatNLO 2  0  0  1  1 0.34297202D+03 0.00000000D+00  -5  7  0 0.00000000D+00 0.00000000D+00 0.00000000D+00 0.00000000D+00 0.00000000D+00
  <mgrwgt>
 0.1524711220D-03    1    2    0
 0.400191022160365D+03 0.000000000000000D+00 0.000000000000000D+00 0.400191022160365D+03
 0.400191022160365D+03 0.000000000000000D+00 0.000000000000000D+00 -.400191022160365D+03
 0.348418048877390D+03 0.337201235010529D+03 0.131862542891563D+02 0.323939907135947D+02
 0.179798368200862D+03 -.160362404190973D+03 0.538222173368969D+02 0.609468740028856D+02
 0.659234923502256D+02 -.429271321972682D+02 0.420688281974009D+02 -.270810239663511D+02
 0.206242134892253D+03 -.133911698622287D+03 -.109077299823454D+03 -.662598407501292D+02
 0.000000000000000D+00 0.000000000000000D+00 0.000000000000000D+00 -.000000000000000D+00
 0.532586856271622D+03 0.000000000000000D+00 0.000000000000000D+00 0.532586856271622D+03
 0.737926008586731D+03 0.000000000000000D+00 0.000000000000000D+00 -.737926008586731D+03
 0.258914883772150D+03 0.236431177842393D+03 -.601716593927867D+02 0.323939907135947D+02
 0.237592066463239D+03 -.229616771443943D+03 0.340688526494684D+01 0.609468740028856D+02
 0.759829486696143D+02 -.664725706303716D+02 0.249283770681811D+02 -.270810239663511D+02
 0.298280579052655D+03 -.217623251205240D+03 -.170017077185251D+03 -.662598407501292D+02
 0.399742386900694D+03 0.277281415437162D+03 0.201853474244910D+03 -.205339152315109D+03
0.294055533174D-05 0.000000000000D+00 0.000000000000D+00 0.293195517540D-06 0.158546660987D-11  7 21 1 -24 -11 11 23 2 2 0.54899319D-01 0.16943752D+00 0.35480824D+06 0.35480824D+06 0.35480824D+06 0.10792013D+01  1  2  1  3  7  1       -2 0.152471121975D-03 0.100000000000D+01
  </mgrwgt>
  </event>
  <event>
  8     66 0.26562228E-05 0.55136311E+03 0.75467711E-02 0.87853688E-01
       -2 -1    0    0    0  501 0.00000000E+00 0.00000000E+00 0.31176043E+03 0.31176060E+03 0.32000000E+00 0.0000E+00 0.9000E+01
        1 -1    0    0  501    0 0.00000000E+00 0.00000000E+00 -.19098695E+04 0.19098696E+04 0.32000000E+00 0.0000E+00 0.9000E+01
       25  2    1    2    0    0 0.58159179E+02 -.51915709E+03 -.15819681E+04 0.16928255E+04 0.30021459E+03 0.0000E+00 0.0000E+00
       23  2    3    3    0    0 0.98160998E+02 -.17386975E+03 -.37750418E+03 0.43589596E+03 0.87347623E+02 0.0000E+00 0.0000E+00
      -24  1    1    2    0    0 -.58159179E+02 0.51915709E+03 -.16141048E+02 0.52880462E+03 0.80419002E+02 0.0000E+00 0.9000E+01
      -13  1    4    4    0    0 0.57277022E+02 -.16261043E+03 -.32924935E+03 0.37165569E+03 0.10565837E+00 0.0000E+00 0.9000E+01
       13  1    4    4    0    0 0.40883976E+02 -.11259327E+02 -.48254834E+02 0.64240269E+02 0.10565837E+00 0.0000E+00 0.9000E+01
       23  1    3    3    0    0 -.40001819E+02 -.34528734E+03 -.12044639E+04 0.12569296E+04 0.91188000E+02 0.0000E+00 0.9000E+01
#aMCatNLO 1  0  0  1  1 0.67375291D+03 0.00000000D+00  -5  7  0 0.00000000D+00 0.00000000D+00 0.00000000D+00 0.00000000D+00 0.00000000D+00
  <mgrwgt>
 0.1204639105D-02    3    2    0
 0.771635899681430D+03 0.000000000000000D+00 0.000000000000000D+00 0.771635899681430D+03
 0.771635899681430D+03 0.000000000000000D+00 0.000000000000000D+00 -.771635899681430D+03
 0.744530634826374D+03 -.581591789700480D+02 0.519157092163300D+03 0.524358726253955D+03
 0.194071746913804D+03 0.572770463938347D+02 -.162610649688598D+03 -.891120615541254D+02
 0.425079277345585D+02 0.408839520690529D+02 -.112591051518263D+02 -.294260678344274D+01
 0.562161489888123D+03 -.400018194928395D+02 -.345287337322876D+03 -.432304057916387D+03
 0.000000000000000D+00 0.000000000000000D+00 0.000000000000000D+00 -.000000000000000D+00
 0.110980598560726D+04 0.000000000000000D+00 0.000000000000000D+00 0.110980598560726D+04
 0.126567473064824D+04 0.000000000000000D+00 0.000000000000000D+00 -.126567473064824D+04
 0.604257047771147D+03 -.143967625759147D+03 0.250959384684725D+03 0.524358726253955D+03
 0.271755699795894D+03 0.276415965824066D+02 -.255237424754885D+03 -.891120615541254D+02
 0.456249090098906D+02 0.352770341458447D+02 -.287837497444608D+02 -.294260678344274D+01
 0.762295485793667D+03 -.124262372423879D+03 -.608647041088690D+03 -.432304057916387D+03
 0.691547573884900D+03 0.205311367454775D+03 0.641708830903310D+03 -.155868745040978D+03
0.732638344893D-03 0.000000000000D+00 0.000000000000D+00 0.280553727443D-05 0.000000000000D+00  7 -2 1 -24 -13 13 23 21 0 0.47963158D-01 0.29382610D+00 0.30400128D+06 0.30400128D+06 0.30400128D+06 0.10841264D+01  1  2  2  1  7  1       -2 0.118326502028D-02 0.100000000000D+01
-.351111842435D-04 0.000000000000D+00 -.281352415250D-05 0.280553727443D-05 0.000000000000D+00  7 -2 1 -24 -13 13 23 21 2 0.47963158D-01 0.29382610D+00 0.30400128D+06 0.30400128D+06 0.30400128D+06 0.10841264D+01  1  2  3  1  7  1       -2 -.666496238917D-04 0.100000000000D+01
0.463711040458D-04 0.000000000000D+00 0.000000000000D+00 0.280553727443D-05 0.000000000000D+00  7 -2 1 -24 -13 13 23 21 2 0.47963158D-01 0.29382610D+00 0.30400128D+06 0.30400128D+06 0.30400128D+06 0.10841264D+01  1  2 15  1  7  1       -2 0.880237084190D-04 0.100000000000D+01
  </mgrwgt>
  </event>
  <event>
  8     66 0.26562228E-05 0.30540776E+03 0.75467711E-02 0.89822382E-01
       -2 -1    0    0    0  501 0.00000000E+00 0.00000000E+00 0.28306361E+03 0.28306379E+03 0.32000000E+00 0.0000E+00 0.9000E+01
        1 -1    0    0  501    0 0.00000000E+00 0.00000000E+00 -.17934329E+04 0.17934330E+04 0.32000000E+00 0.0000E+00 0.9000E+01
       25  2    1    2    0    0 -.11816239E+03 -.66450840E+03 -.68448222E+03 0.10068751E+04 0.29957933E+03 0.0000E+00 0.0000E+00
       23  2    3    3    0    0 0.57617387E+02 -.27298401E+03 -.33965453E+03 0.44883274E+03 0.90805267E+02 0.0000E+00 0.0000E+00
      -24  1    1    2    0    0 0.11816239E+03 0.66450840E+03 -.82588710E+03 0.10696217E+04 0.80419002E+02 0.0000E+00 0.9000E+01
      -13  1    4    4    0    0 0.60019334E+02 -.90153261E+02 -.10017077E+03 0.14752670E+03 0.10565837E+00 0.0000E+00 0.9000E+01
       13  1    4    4    0    0 -.24019471E+01 -.18283075E+03 -.23948375E+03 0.30130604E+03 0.10565837E+00 0.0000E+00 0.9000E+01
       23  1    3    3    0    0 -.17577977E+03 -.39152439E+03 -.34482769E+03 0.55804235E+03 0.91188000E+02 0.0000E+00 0.9000E+01
#aMCatNLO 1  0  0  1  2 0.14549968D+03 0.00000000D+00  -5  7  0 0.00000000D+00 0.00000000D+00 0.00000000D+00 0.00000000D+00 0.00000000D+00
  <mgrwgt>
 0.1085092867D-02    9    2    0
 0.712499688245635D+03 0.000000000000000D+00 0.000000000000000D+00 0.712499688245635D+03
 0.712499688245635D+03 0.000000000000000D+00 0.000000000000000D+00 -.712499688245635D+03
 0.683278426868949D+03 0.118162387397685D+03 0.664508395936014D+03 -.697741686095909D+02
 0.108802638638449D+03 0.600194182839586D+02 -.901531358150650D+02 0.103969084950524D+02
 0.185229728351733D+03 -.240203157870089D+01 -.182830873206459D+03 -.296167910502737D+02
 0.447688582632140D+03 -.175779774102943D+03 -.391524386914490D+03 0.889940511648122D+02
 0.000000000000000D+00 0.000000000000000D+00 0.000000000000000D+00 0.000000000000000D+00
 0.790039879486249D+03 0.000000000000000D+00 0.000000000000000D+00 0.790039879486249D+03
 0.787884020227671D+03 0.000000000000000D+00 0.000000000000000D+00 -.787884020227671D+03
 0.656568738061051D+03 0.525687474045634D+02 0.645742505985060D+03 -.697741686095909D+02
 0.106008354004638D+03 0.495031181515238D+02 -.931617770643869D+02 0.103969084950524D+02
 0.191563345319520D+03 -.208483364060020D+02 -.188108234341276D+03 -.296167910502737D+02
 0.478267807834766D+03 -.221110951953209D+03 -.404493325594741D+03 0.889940511648122D+02
 0.145515654493946D+03 0.139887422803124D+03 0.400208310153431D+02 0.215585925857766D+01
0.292564434787D-03 0.000000000000D+00 0.000000000000D+00 0.119994517246D-04 0.000000000000D+00  7 -2 1 -24 -13 13 23 21 0 0.43548263D-01 0.27591277D+00 0.49675149D+06 0.49675149D+06 0.49675149D+06 0.10687105D+01  1  2  2  1  7  1       -2 0.664109109190D-03 0.100000000000D+01
-.162512503247D-04 0.000000000000D+00 -.112352446357D-05 0.119994517246D-04 0.000000000000D+00  7 -2 1 -24 -13 13 23 21 2 0.43548263D-01 0.27591277D+00 0.49675149D+06 0.49675149D+06 0.49675149D+06 0.10687105D+01  1  2  3  1  7  1       -2 -.421332398920D-04 0.100000000000D+01
0.188264700443D-04 0.000000000000D+00 0.000000000000D+00 0.119994517246D-04 0.000000000000D+00  7 -2 1 -24 -13 13 23 21 2 0.43548263D-01 0.27591277D+00 0.49675149D+06 0.49675149D+06 0.49675149D+06 0.10687105D+01  1  2 15  1  7  1       -2 0.488097938835D-04 0.100000000000D+01
0.236860519568D-03 0.000000000000D+00 0.000000000000D+00 0.119994517246D-04 0.000000000000D+00  7 -2 1 -24 -13 13 23 21 2 0.50354966D-01 0.27591277D+00 0.61076005D+06 0.61076005D+06 0.61076005D+06 0.10624224D+01  1  2 12  1  7  1       -2 0.451381680363D-03 0.100000000000D+01
-.193014902850D-03 0.000000000000D+00 0.000000000000D+00 0.119994517246D-04 0.000000000000D+00  7 -2 1 -24 -13 13 23 21 2 0.43548263D-01 0.27591277D+00 0.49675149D+06 0.49675149D+06 0.49675149D+06 0.10687105D+01  1  2  4  1  7  1       -2 -.500413386172D-03 0.100000000000D+01
-.653865704242D-03 0.000000000000D+00 -.193408233546D-03 0.119994517246D-04 0.000000000000D+00  7 -2 1 -24 -13 13 23 21 2 0.53801827D-01 0.27591277D+00 0.49675149D+06 0.49675149D+06 0.49675149D+06 0.10687105D+01  1  2  5  1  7  1       -2 -.111589596008D-02 0.100000000000D+01
0.683664699391D-03 0.000000000000D+00 0.189164085432D-03 0.119994517246D-04 0.000000000000D+00  7 -2 1 -24 -13 13 23 21 2 0.43548263D-01 0.27591277D+00 0.49675149D+06 0.49675149D+06 0.49675149D+06 0.10687105D+01  1  2  6  1  7  1       -2 0.177247954524D-02 0.100000000000D+01
0.526302695038D-05 0.000000000000D+00 0.000000000000D+00 0.119994517246D-04 0.000000000000D+00  7 21 1 -24 -13 13 23 2 2 0.50354966D-01 0.27591277D+00 0.61076005D+06 0.61076005D+06 0.61076005D+06 0.10624224D+01  1  2 12  3  7  1       -2 0.102530442786D-03 0.100000000000D+01
-.170728585542D-04 0.000000000000D+00 -.577463246614D-05 0.119994517246D-04 0.000000000000D+00  7 21 1 -24 -13 13 23 2 2 0.53801827D-01 0.27591277D+00 0.49675149D+06 0.49675149D+06 0.49675149D+06 0.10687105D+01  1  2  5  3  7  1       -2 -.295775117995D-03 0.100000000000D+01
  </mgrwgt>
  </event>
  <event>
  8     66 0.26562228E-05 0.57124945E+03 0.75467711E-02 0.92242974E-01
       -2 -1    0    0    0  501 0.00000000E+00 0.00000000E+00 0.14604687E+04 0.14604687E+04 0.32000000E+00 0.0000E+00 0.9000E+01
        1 -1    0    0  501    0 0.00000000E+00 0.00000000E+00 -.25519684E+03 0.25519704E+03 0.32000000E+00 0.0000E+00 0.9000E+01
       25  2    1    2    0    0 -.26561340E+03 0.46222192E+03 0.35089091E+03 0.70540165E+03 0.30044545E+03 0.0000E+00 0.0000E+00
       23  2    3    3    0    0 -.16657752E+03 0.84473081E+02 0.15230138E+03 0.25790266E+03 0.91838446E+02 0.0000E+00 0.0000E+00
      -24  1    1    2    0    0 0.26561340E+03 -.46222192E+03 0.85438092E+03 0.10102641E+04 0.80419002E+02 0.0000E+00 0.9000E+01
      -13  1    4    4    0    0 -.90160913E+02 0.87807443E+02 0.12304472E+03 0.17600895E+03 0.10565837E+00 0.0000E+00 0.9000E+01
       13  1    4    4    0    0 -.76416606E+02 -.33343617E+01 0.29256654E+02 0.81893703E+02 0.10565837E+00 0.0000E+00 0.9000E+01
       23  1    3    3    0    0 -.99035881E+02 0.37774884E+03 0.19858953E+03 0.44749899E+03 0.91188000E+02 0.0000E+00 0.9000E+01
#aMCatNLO 1  0  0  1  2 0.94816000D+02 0.00000000D+00  -5  7  0 0.00000000D+00 0.00000000D+00 0.00000000D+00 0.00000000D+00 0.00000000D+00
  <mgrwgt>
 0.1320348435D-02    3    2    0
 0.610497497881720D+03 0.000000000000000D+00 0.000000000000000D+00 0.610497497881720D+03
 0.610497497881720D+03 0.000000000000000D+00 0.000000000000000D+00 -.610497497881720D+03
 0.576181118396535D+03 0.265613399959910D+03 -.462221921226268D+03 0.203268006685621D+03
 0.125856585644514D+03 -.901609311956020D+02 0.878075631941075D+02 -.847633145638092D+00
 0.861919468611573D+02 -.764165875650100D+02 -.333448228600435D+01 -.397295617458844D+02
 0.432765344861234D+03 -.990358811992981D+02 0.377748840318165D+03 -.162690811794099D+03
 0.000000000000000D+00 0.000000000000000D+00 -.000000000000000D+00 -.000000000000000D+00
 0.615596813924310D+03 0.000000000000000D+00 0.000000000000000D+00 0.615596813924310D+03
 0.130147170469880D+04 0.000000000000000D+00 0.000000000000000D+00 -.130147170469880D+04
 0.536727897691800D+03 0.247989838963901D+03 -.422838949761019D+03 0.203268006685621D+03
 0.135319208476006D+03 -.942968016682326D+02 0.970498989992526D+02 -.847633145638092D+00
 0.886389284612690D+02 -.791851360722906D+02 0.285233017982350D+01 -.397295617458844D+02
 0.463984881763815D+03 -.113236442151405D+03 0.409482511333573D+03 -.162690811794099D+03
 0.692397602230219D+03 0.387285409280271D+02 -.865457907516300D+02 -.685874890774490D+03
0.125787977995D-02 0.000000000000D+00 0.000000000000D+00 0.825185657141D-05 0.000000000000D+00  7 -2 1 -24 -13 13 23 21 0 0.22468751D+00 0.39261071D-01 0.32632593D+06 0.32632593D+06 0.32632593D+06 0.10818595D+01  1  2  2  1  7  1       -2 0.130527208394D-02 0.100000000000D+01
-.695070514560D-04 0.000000000000D+00 -.483058956235D-05 0.825185657141D-05 0.000000000000D+00  7 -2 1 -24 -13 13 23 21 2 0.22468751D+00 0.39261071D-01 0.32632593D+06 0.32632593D+06 0.32632593D+06 0.10818595D+01  1  2  3  1  7  1       -2 -.844175029768D-04 0.100000000000D+01
0.819205048728D-04 0.000000000000D+00 0.000000000000D+00 0.825185657141D-05 0.000000000000D+00  7 -2 1 -24 -13 13 23 21 2 0.22468751D+00 0.39261071D-01 0.32632593D+06 0.32632593D+06 0.32632593D+06 0.10818595D+01  1  2 15  1  7  1       -2 0.994938544953D-04 0.100000000000D+01
  </mgrwgt>
  </event>
  <event>
  8     66 0.26562228E-05 0.10208631E+03 0.75467711E-02 0.10538411E+00
       -2 -1    0    0    0  501 0.00000000E+00 0.00000000E+00 0.52957268E+03 0.52957277E+03 0.32000000E+00 0.0000E+00 0.9000E+01
        1 -1    0    0  501    0 0.00000000E+00 0.00000000E+00 -.11727024E+03 0.11727067E+03 0.32000000E+00 0.0000E+00 0.9000E+01
       25  2    1    2    0    0 0.30678915E+02 0.53457623E+02 0.44493054E+03 0.54039758E+03 0.30044542E+03 0.0000E+00 0.0000E+00
       23  2    3    3    0    0 0.61392296E+01 -.90172780E+02 0.13749821E+03 0.18817354E+03 0.91294592E+02 0.0000E+00 0.0000E+00
      -24  1    1    2    0    0 -.30678915E+02 -.53457623E+02 -.32628099E+02 0.10644586E+03 0.80419002E+02 0.0000E+00 0.9000E+01
      -11  1    4    4    0    0 -.22069390E+02 -.30882790E+02 0.24820984E+01 0.38039000E+02 0.51099893E-03 0.0000E+00 0.9000E+01
       11  1    4    4    0    0 0.28208619E+02 -.59289989E+02 0.13501612E+03 0.15013454E+03 0.51099893E-03 0.0000E+00 0.9000E+01
       23  1    3    3    0    0 0.24539685E+02 0.14363040E+03 0.30743233E+03 0.35222404E+03 0.91188000E+02 0.0000E+00 0.9000E+01
#aMCatNLO 1  0  0  1  2 0.45355133D+02 0.00000000D+00  -5  7  0 0.00000000D+00 0.00000000D+00 0.00000000D+00 0.00000000D+00 0.00000000D+00
  <mgrwgt>
 0.8215348383D-03    9    2    0
 0.249205308027042D+03 0.000000000000000D+00 0.000000000000000D+00 0.249205308027042D+03
 0.249205308027042D+03 0.000000000000000D+00 0.000000000000000D+00 -.249205308027042D+03
 0.165137844429108D+03 -.306789145830895D+02 -.534576234006362D+02 -.130400837453909D+03
 0.473142060985986D+02 -.220693898583241D+02 -.308827902486051D+02 -.282458739727173D+02
 0.831564756597587D+02 0.282086194295862D+02 -.592899894656989D+02 0.510291130942536D+02
 0.202802089866618D+03 0.245396850118274D+02 0.143630403114940D+03 0.107617598332373D+03
 0.000000000000000D+00 0.000000000000000D+00 0.000000000000000D+00 0.000000000000000D+00
 0.277943027426605D+03 0.000000000000000D+00 0.000000000000000D+00 0.277943027426605D+03
 0.268795406403434D+03 0.000000000000000D+00 0.000000000000000D+00 -.268795406403434D+03
 0.171217751259722D+03 -.343936677069625D+02 -.682715138622801D+02 -.130400837453909D+03
 0.507241072285981D+02 -.231521372107076D+02 -.352006278386091D+02 -.282458739727173D+02
 0.881090357390932D+02 0.263171417742860D+02 -.668329248538384D+02 0.510291130942536D+02
 0.190419115186697D+03 0.201969010101120D+02 0.126312017651705D+03 0.107617598332373D+03
 0.462684244159280D+02 0.110317621332720D+02 0.439930489030231D+02 0.914762102317133D+01
0.106172037539D-04 0.000000000000D+00 0.000000000000D+00 0.131694883681D-05 0.000000000000D+00  7 -2 1 -24 -11 11 23 21 0 0.81472761D-01 0.18041616D-01 0.35500417D+05 0.35500417D+05 0.35500417D+05 0.11606126D+01  1  2  2  1  7  1       -2 0.487291467896D-03 0.100000000000D+01
-.533768518733D-06 0.000000000000D+00 -.407728579890D-07 0.131694883681D-05 0.000000000000D+00  7 -2 1 -24 -11 11 23 21 2 0.81472761D-01 0.18041616D-01 0.35500417D+05 0.35500417D+05 0.35500417D+05 0.11606126D+01  1  2  3  1  7  1       -2 -.329994111679D-04 0.100000000000D+01
0.666431390259D-06 0.000000000000D+00 0.000000000000D+00 0.131694883681D-05 0.000000000000D+00  7 -2 1 -24 -11 11 23 21 2 0.81472761D-01 0.18041616D-01 0.35500417D+05 0.35500417D+05 0.35500417D+05 0.11606126D+01  1  2 15  1  7  1       -2 0.412010875324D-04 0.100000000000D+01
0.115029571235D-04 0.000000000000D+00 0.000000000000D+00 0.131694883681D-05 0.000000000000D+00  7 -2 1 -24 -11 11 23 21 2 0.93760055D-01 0.18041616D-01 0.45659675D+05 0.45659675D+05 0.45659675D+05 0.11507805D+01  1  2 12  1  7  1       -2 0.507964806601D-03 0.100000000000D+01
-.105336176014D-04 0.000000000000D+00 0.000000000000D+00 0.131694883681D-05 0.000000000000D+00  7 -2 1 -24 -11 11 23 21 2 0.81472761D-01 0.18041616D-01 0.35500417D+05 0.35500417D+05 0.35500417D+05 0.11606126D+01  1  2  4  1  7  1       -2 -.651224577909D-03 0.100000000000D+01
-.284662421302D-04 0.000000000000D+00 -.814573395185D-05 0.131694883681D-05 0.000000000000D+00  7 -2 1 -24 -11 11 23 21 2 0.96586773D-01 0.18041616D-01 0.35500417D+05 0.35500417D+05 0.35500417D+05 0.11606126D+01  1  2  5  1  7  1       -2 -.119503084675D-02 0.100000000000D+01
0.295402069530D-04 0.000000000000D+00 0.802919490695D-05 0.131694883681D-05 0.000000000000D+00  7 -2 1 -24 -11 11 23 21 2 0.81472761D-01 0.18041616D-01 0.35500417D+05 0.35500417D+05 0.35500417D+05 0.11606126D+01  1  2  6  1  7  1       -2 0.182627749861D-02 0.100000000000D+01
0.248737043627D-06 0.000000000000D+00 0.000000000000D+00 0.131694883681D-05 0.000000000000D+00  7 21 1 -24 -11 11 23 2 2 0.93760055D-01 0.18041616D-01 0.45659675D+05 0.45659675D+05 0.45659675D+05 0.11507805D+01  1  2 12  3  7  1       -2 0.109016122009D-03 0.100000000000D+01
-.647544386514D-06 0.000000000000D+00 -.205553339067D-06 0.131694883681D-05 0.000000000000D+00  7 21 1 -24 -11 11 23 2 2 0.96586773D-01 0.18041616D-01 0.35500417D+05 0.35500417D+05 0.35500417D+05 0.11606126D+01  1  2  5  3  7  1       -2 -.270961308504D-03 0.100000000000D+01
  </mgrwgt>
  </event>
  <event>
  8     66 0.26562228E-05 0.29710042E+03 0.75467711E-02 0.88810950E-01
       -2 -1    0    0    0  501 0.00000000E+00 0.00000000E+00 0.58054418E+03 0.58054427E+03 0.32000000E+00 0.0000E+00 0.9000E+01
        1 -1    0    0  501    0 0.00000000E+00 0.00000000E+00 -.32094883E+03 0.32094899E+03 0.32000000E+00 0.0000E+00 0.9000E+01
       25  2    1    2    0    0 -.24297916E+03 0.74834100E+02 -.14342453E+03 0.41824254E+03 0.29952832E+03 0.0000E+00 0.0000E+00
       23  2    3    3    0    0 -.17118971E+03 0.85964241E+02 0.24575523E+02 0.21375080E+03 0.91595185E+02 0.0000E+00 0.0000E+00
      -24  1    1    2    0    0 0.24297916E+03 -.74834100E+02 0.40301988E+03 0.48325072E+03 0.80419002E+02 0.0000E+00 0.9000E+01
      -11  1    4    4    0    0 -.18137560E+03 0.75838682E+02 0.16524566E+02 0.19728577E+03 0.51099893E-03 0.0000E+00 0.9000E+01
       11  1    4    4    0    0 0.10185885E+02 0.10125559E+02 0.80509569E+01 0.16465027E+02 0.51099893E-03 0.0000E+00 0.9000E+01
       23  1    3    3    0    0 -.71789446E+02 -.11130142E+02 -.16800005E+03 0.20449175E+03 0.91188000E+02 0.0000E+00 0.9000E+01
#aMCatNLO 1  0  0  2  2 0.75154193D+03 0.00000000D+00  -5  7  0 0.00000000D+00 0.00000000D+00 0.00000000D+00 0.00000000D+00 0.00000000D+00
  <mgrwgt>
 0.1303643023D-02    3    2    0
 0.431653898722329D+03 0.000000000000000D+00 0.000000000000000D+00 0.431653898722329D+03
 0.431653898722329D+03 0.000000000000000D+00 0.000000000000000D+00 -.431653898722329D+03
 0.383438188060848D+03 0.242979159249438D+03 -.748340997074994D+02 0.275533326115771D+03
 0.201043117375184D+03 -.181375598466741D+03 0.758386821386084D+02 -.420680593353510D+02
 0.147723905311796D+02 0.101858854361489D+02 0.101255590703290D+02 0.345605460035158D+01
 0.264054101477446D+03 -.717894462188465D+02 -.111301415014380D+02 -.236921321380772D+03
 0.000000000000000D+00 0.000000000000000D+00 0.000000000000000D+00 0.000000000000000D+00
 0.999636109686106D+03 0.000000000000000D+00 0.000000000000000D+00 0.999636109686106D+03
 0.902730506241950D+03 0.000000000000000D+00 0.000000000000000D+00 -.902730506241950D+03
 0.515919629183137D+03 0.154920909851385D+03 -.399733343258345D+03 0.275533326115771D+03
 0.244132629458648D+03 -.224963807952469D+03 -.849841412363246D+02 -.420680593353510D+02
 0.875839301234002D+01 0.788193080754896D+01 0.162490045941469D+01 0.345605460035158D+01
 0.375792171504366D+03 -.134438306997428D+03 -.242279041410563D+03 -.236921321380772D+03
 0.757763792769565D+03 0.196599274290962D+03 0.725371625445818D+03 0.969056034441557D+02
0.127208426805D-03 0.000000000000D+00 0.000000000000D+00 0.673688874533D-05 0.000000000000D+00  7 -2 1 -24 -11 11 23 21 0 0.89314509D-01 0.49376762D-01 0.88268662D+05 0.88268662D+05 0.88268662D+05 0.11261966D+01  1  2  2  2  7  2        1 0.127544002996D-02 0.100000000000D+01
-.586810104331D-05 0.000000000000D+00 -.488513853678D-06 0.673688874533D-05 0.000000000000D+00  7 -2 1 -24 -11 11 23 21 2 0.89314509D-01 0.49376762D-01 0.88268662D+05 0.88268662D+05 0.88268662D+05 0.11261966D+01  1  2  3  2  7  2        1 -.746225586704D-04 0.100000000000D+01
0.808590241837D-05 0.000000000000D+00 0.000000000000D+00 0.673688874533D-05 0.000000000000D+00  7 -2 1 -24 -11 11 23 21 2 0.89314509D-01 0.49376762D-01 0.88268662D+05 0.88268662D+05 0.88268662D+05 0.11261966D+01  1  2 15  2  7  2        1 0.102825551770D-03 0.100000000000D+01
  </mgrwgt>
  </event>
  <event>
  8     66 0.26562228E-05 0.14102598E+03 0.75467711E-02 0.95641308E-01
       -2 -1    0    0    0  501 0.00000000E+00 0.00000000E+00 0.93216329E+03 0.93216335E+03 0.32000000E+00 0.0000E+00 0.9000E+01
        1 -1    0    0  501    0 0.00000000E+00 0.00000000E+00 -.20919641E+03 0.20919665E+03 0.32000000E+00 0.0000E+00 0.9000E+01
       25  2    1    2    0    0 -.64029675E+02 0.61620195E+01 -.91182960E+02 0.32072308E+03 0.30068454E+03 0.0000E+00 0.0000E+00
       23  2    3    3    0    0 -.15247482E+02 0.23145839E+02 0.79156537E+02 0.12072571E+03 0.86837345E+02 0.0000E+00 0.0000E+00
      -24  1    1    2    0    0 0.64029675E+02 -.61620195E+01 0.81414985E+03 0.82063692E+03 0.80419002E+02 0.0000E+00 0.9000E+01
      -11  1    4    4    0    0 -.37106910E+02 -.62577387E+01 0.49344729E+01 0.37953012E+02 0.51099893E-03 0.0000E+00 0.9000E+01
       11  1    4    4    0    0 0.21859428E+02 0.29403577E+02 0.74222064E+02 0.82772699E+02 0.51099893E-03 0.0000E+00 0.9000E+01
       23  1    3    3    0    0 -.48782193E+02 -.16983819E+02 -.17033950E+03 0.19999737E+03 0.91188000E+02 0.0000E+00 0.9000E+01
#aMCatNLO 1  0  0  2  2 0.41711862D+03 0.00000000D+00  -5  7  0 0.00000000D+00 0.00000000D+00 0.00000000D+00 0.00000000D+00 0.00000000D+00
  <mgrwgt>
 0.1520934261D-02    3    2    0
 0.441594139717809D+03 0.000000000000000D+00 0.000000000000000D+00 0.441594139717809D+03
 0.441594139717809D+03 0.000000000000000D+00 0.000000000000000D+00 -.441594139717809D+03
 0.394070877332790D+03 0.640296751490329D+02 -.616201948172751D+01 0.380377274063107D+03
 0.450080579112048D+02 -.371069103233896D+02 -.625773866125916D+01 -.246909536072965D+02
 0.462113852133909D+02 0.218594282475769D+02 0.294035774661575D+02 0.281618030712012D+02
 0.397897958978233D+03 -.487821930732202D+02 -.169838193231708D+02 -.383848123527012D+03
 0.000000000000000D+00 0.000000000000000D+00 0.000000000000000D+00 0.000000000000000D+00
 0.764273021828669D+03 0.000000000000000D+00 0.000000000000000D+00 0.764273021828669D+03
 0.646018520868992D+03 0.000000000000000D+00 0.000000000000000D+00 -.646018520868992D+03
 0.409974644769827D+03 -.976996023744669D+02 -.859064053023177D+02 0.380377274063107D+03
 0.668004985252905D+02 -.595965785776605D+02 -.173467932202586D+02 -.246909536072965D+02
 0.357051878867688D+02 0.538236591652278D+01 0.212791782489126D+02 0.281618030712012D+02
 0.464253756037406D+03 -.222199207598089D+03 -.102491115997495D+03 -.383848123527012D+03
 0.433557455478370D+03 0.374113022633694D+03 0.184465136271159D+03 0.118254500959678D+03
0.238870741782D-03 0.000000000000D+00 0.000000000000D+00 0.463149200197D-06 0.000000000000D+00  7 -2 1 -24 -11 11 23 21 0 0.14340976D+00 0.32184086D-01 0.19888327D+05 0.19888327D+05 0.19888327D+05 0.11842711D+01  1  2  2  2  7  2        1 0.134345908996D-02 0.100000000000D+01
0.775186312610D-05 0.000000000000D+00 -.917326544553D-06 0.463149200197D-06 0.000000000000D+00  7 -2 1 -24 -11 11 23 21 2 0.14340976D+00 0.32184086D-01 0.19888327D+05 0.19888327D+05 0.19888327D+05 0.11842711D+01  1  2  3  2  7  2        1 0.611462501852D-04 0.100000000000D+01
0.147476888282D-04 0.000000000000D+00 0.000000000000D+00 0.463149200197D-06 0.000000000000D+00  7 -2 1 -24 -11 11 23 21 2 0.14340976D+00 0.32184086D-01 0.19888327D+05 0.19888327D+05 0.19888327D+05 0.11842711D+01  1  2 15  2  7  2        1 0.116328920683D-03 0.100000000000D+01
  </mgrwgt>
  </event>
  <event>
  9     66 0.26562228E-05 0.20817057E+03 0.75467711E-02 0.99711326E-01
       -2 -1    0    0    0  502 0.00000000E+00 0.00000000E+00 0.71259897E+03 0.71259904E+03 0.32000000E+00 0.0000E+00 0.9000E+01
        1 -1    0    0  501    0 0.00000000E+00 0.00000000E+00 -.88714206E+03 0.88714212E+03 0.32000000E+00 0.0000E+00 0.9000E+01
       25  2    1    2    0    0 0.13160363E+03 0.96676965E+00 -.80422494E+03 0.86810525E+03 0.29917973E+03 0.0000E+00 0.0000E+00
       23  2    3    3    0    0 0.17050690E+03 0.28791087E+02 -.67778058E+03 0.70503751E+03 0.88260146E+02 0.0000E+00 0.0000E+00
      -24  1    1    2    0    0 -.39228956E+02 0.15565490E+03 0.22404297E+03 0.28710595E+03 0.80419002E+02 0.0000E+00 0.9000E+01
      -13  1    4    4    0    0 0.15511562E+03 -.17391452E+01 -.60585239E+03 0.62539668E+03 0.10565837E+00 0.0000E+00 0.9000E+01
       13  1    4    4    0    0 0.15391285E+02 0.30530232E+02 -.71928184E+02 0.79640828E+02 0.10565837E+00 0.0000E+00 0.9000E+01
       23  1    3    3    0    0 -.38903272E+02 -.27824318E+02 -.12644436E+03 0.16306773E+03 0.91188000E+02 0.0000E+00 0.9000E+01
       21  1    1    2  501  502 -.92374676E+02 -.15662167E+03 0.40563887E+03 0.44452996E+03 0.75000000E+00 0.0000E+00 0.9000E+01
#aMCatNLO 2  0  0  1  2 0.18183352D+03 0.00000000D+00  -5  7  0 0.00000000D+00 0.00000000D+00 0.00000000D+00 0.00000000D+00 0.00000000D+00
  <mgrwgt>
 0.8819292773D-03    2    2    0
 0.491130933354767D+03 0.000000000000000D+00 0.000000000000000D+00 0.491130933354767D+03
 0.491130933354767D+03 0.000000000000000D+00 0.000000000000000D+00 -.491130933354767D+03
 0.448860486140167D+03 -.817045990252240D+02 0.836372594308885D+02 0.425837630320095D+03
 0.363349850467659D+03 0.120860154237139D+03 -.598198207153802D+02 -.337398171308360D+03
 0.448624079472962D+02 0.109530384431562D+02 0.230055509886974D+02 -.369243987005721D+02
 0.125189122154411D+03 -.501085936550714D+02 -.468229897042057D+02 -.515150603111635D+02
 0.000000000000000D+00 -.000000000000000D+00 -.000000000000000D+00 0.000000000000000D+00
 0.123793845102088D+04 0.000000000000000D+00 0.000000000000000D+00 0.123793845102088D+04
 0.510668496794274D+03 0.000000000000000D+00 0.000000000000000D+00 -.510668496794274D+03
 0.462138790583397D+03 -.392289558325106D+02 0.155654898526103D+03 0.425837630320095D+03
 0.371350869157690D+03 0.155115818777810D+03 -.173919143182006D+01 -.337398171308360D+03
 0.503229036637160D+02 0.153910851425099D+02 0.305302786080449D+02 -.369243987005721D+02
 0.115137786982247D+03 -.389032718695154D+02 -.278243175325656D+02 -.515150603111635D+02
 0.749656597428102D+03 -.923746762182939D+02 -.156621668169762D+03 0.727269954226603D+03
-.130293737138D-04 0.000000000000D+00 0.000000000000D+00 0.967458144247D-06 0.000000000000D+00  7 -2 1 -24 -13 13 23 21 2 0.10903423D+00 0.13126167D+00 0.10681779D+06 0.10681779D+06 0.10681779D+06 0.11193791D+01  1  2 13  1  7  1       -2 -.253098459101D-04 0.100000000000D+01
0.504366148204D-03 0.000000000000D+00 0.000000000000D+00 0.967458144247D-06 0.279971041755D-09  7 -2 1 -24 -13 13 23 21 2 0.10963058D+00 0.13648335D+00 0.10681779D+06 0.10681779D+06 0.10681779D+06 0.11193791D+01  1  2  1  1  7  1       -2 0.907239123166D-03 0.100000000000D+01
  </mgrwgt>
  </event>
  <event>
  8     66 0.26562228E-05 0.27236185E+03 0.75467711E-02 0.10055234E+00
       -2 -1    0    0    0  501 0.00000000E+00 0.00000000E+00 0.18194688E+03 0.18194716E+03 0.32000000E+00 0.0000E+00 0.9000E+01
        1 -1    0    0  501    0 0.00000000E+00 0.00000000E+00 -.81164283E+03 0.81164289E+03 0.32000000E+00 0.0000E+00 0.9000E+01
       25  2    1    2    0    0 -.18834836E+03 0.64418559E+01 -.25803409E+02 0.35588321E+03 0.30078305E+03 0.0000E+00 0.0000E+00
       23  2    3    3    0    0 -.12347249E+01 -.73221867E+02 0.39197934E+02 0.12372326E+03 0.91695146E+02 0.0000E+00 0.0000E+00
      -24  1    1    2    0    0 0.18834836E+03 -.64418559E+01 -.60389254E+03 0.63770684E+03 0.80419002E+02 0.0000E+00 0.9000E+01
      -11  1    4    4    0    0 0.36711653E+02 -.69779416E+02 0.31167527E+02 0.84784003E+02 0.51099893E-03 0.0000E+00 0.9000E+01
       11  1    4    4    0    0 -.37946378E+02 -.34424511E+01 0.80304070E+01 0.38939254E+02 0.51099893E-03 0.0000E+00 0.9000E+01
       23  1    3    3    0    0 -.18711363E+03 0.79663723E+02 -.65001344E+02 0.23215996E+03 0.91188000E+02 0.0000E+00 0.9000E+01
#aMCatNLO 1  0  0  1  1 0.63910006D+02 0.00000000D+00  -5  7  0 0.00000000D+00 0.00000000D+00 0.00000000D+00 0.00000000D+00 0.00000000D+00
  <mgrwgt>
 0.2391806465D-02    3    2    0
 0.384286420259789D+03 0.000000000000000D+00 0.000000000000000D+00 0.384286420259789D+03
 0.384286420259789D+03 0.000000000000000D+00 0.000000000000000D+00 -.384286420259789D+03
 0.329637579405161D+03 0.188348356347836D+03 -.644185594277706D+01 -.258219125850128D+03
 0.135142178237871D+03 0.367116530633375D+02 -.697794161833485D+02 0.109756530308427D+03
 0.569189646485627D+02 -.379463779627945D+02 -.344245112821643D+01 0.422846362926172D+02
 0.246874118227983D+03 -.187113631448379D+03 0.796637232543420D+02 0.106177959249083D+03
 0.000000000000000D+00 0.000000000000000D+00 0.000000000000000D+00 -.000000000000000D+00
 0.387448178303270D+03 0.000000000000000D+00 0.000000000000000D+00 0.387448178303270D+03
 0.941945691095833D+03 0.000000000000000D+00 0.000000000000000D+00 -.941945691095833D+03
 0.324312128483755D+03 0.176315480460737D+03 -.307713360514081D+02 -.258219125850128D+03
 0.139456351090022D+03 0.316589556122612D+02 -.799955526485049D+02 0.109756530308427D+03
 0.587708589760269D+02 -.400751063226082D+02 -.774656385843209D+01 0.422846362926172D+02
 0.248686114902139D+03 -.196232092253395D+03 0.612269494640616D+02 0.106177959249083D+03
 0.558168415947160D+03 0.283327625030048D+02 0.572865030942835D+02 -.554497512792563D+03
0.865864930573D-04 0.000000000000D+00 0.000000000000D+00 0.327462195776D-05 0.000000000000D+00  7 -2 1 -24 -11 11 23 21 0 0.27991854D-01 0.12486815D+00 0.74180977D+05 0.74180977D+05 0.74180977D+05 0.11325240D+01  1  2  2  1  7  1       -2 0.234277832254D-02 0.100000000000D+01
-.411721615113D-05 0.000000000000D+00 -.332514932087D-06 0.327462195776D-05 0.000000000000D+00  7 -2 1 -24 -11 11 23 21 2 0.27991854D-01 0.12486815D+00 0.74180977D+05 0.74180977D+05 0.74180977D+05 0.11325240D+01  1  2  3  1  7  1       -2 -.142882675567D-03 0.100000000000D+01
0.552997987576D-05 0.000000000000D+00 0.000000000000D+00 0.327462195776D-05 0.000000000000D+00  7 -2 1 -24 -11 11 23 21 2 0.27991854D-01 0.12486815D+00 0.74180977D+05 0.74180977D+05 0.74180977D+05 0.11325240D+01  1  2 15  1  7  1       -2 0.191910818252D-03 0.100000000000D+01
  </mgrwgt>
  </event>
  <event>
  8     66 0.26562228E-05 0.26686178E+03 0.75467711E-02 0.10012781E+00
       -4 -1    0    0    0  501 0.00000000E+00 0.00000000E+00 0.81784994E+03 0.81785141E+03 0.15500000E+01 0.0000E+00 0.9000E+01
        3 -1    0    0  501    0 0.00000000E+00 0.00000000E+00 -.10806769E+03 0.10806885E+03 0.50000000E+00 0.0000E+00 0.9000E+01
       25  2    1    2    0    0 -.19441692E+03 -.63001531E+02 0.52847307E+03 0.64112671E+03 0.29998757E+03 0.0000E+00 0.0000E+00
       23  2    3    3    0    0 0.79279121E+01 0.29691752E+02 0.51639450E+02 0.10706582E+03 0.88611546E+02 0.0000E+00 0.0000E+00
      -24  1    1    2    0    0 0.19441692E+03 0.63001531E+02 0.18130918E+03 0.28479355E+03 0.80419002E+02 0.0000E+00 0.9000E+01
      -13  1    4    4    0    0 0.35060740E+02 0.30446054E+02 0.62472969E+02 0.77840226E+02 0.10565837E+00 0.0000E+00 0.9000E+01
       13  1    4    4    0    0 -.27132828E+02 -.75430200E+00 -.10833520E+02 0.29225599E+02 0.10565837E+00 0.0000E+00 0.9000E+01
       23  1    3    3    0    0 -.20234483E+03 -.92693283E+02 0.47683362E+03 0.53406089E+03 0.91188000E+02 0.0000E+00 0.9000E+01
#aMCatNLO 1  0  0  2  1 0.97422146D+02 0.00000000D+00  -5  7  0 0.00000000D+00 0.00000000D+00 0.00000000D+00 0.00000000D+00 0.00000000D+00
  <mgrwgt>
 0.1033019664D-03    4    2    0
 0.297295092120387D+03 0.000000000000000D+00 0.000000000000000D+00 0.297295092120387D+03
 0.297295092120387D+03 0.000000000000000D+00 0.000000000000000D+00 -.297295092120387D+03
 0.227057366980510D+03 0.194416920701146D+03 0.630015309218697D+02 -.576255151155874D+02
 0.466399008091725D+02 0.350608279958394D+02 0.304460982266132D+02 0.436506477741540D+01
 0.584436549738231D+02 -.271329155655071D+02 -.754346073097880D+00 -.517580589050279D+02
 0.262449261477268D+03 -.202344833131478D+03 -.926932830753850D+02 0.105018509243200D+03
 0.000000000000000D+00 -.000000000000000D+00 -.000000000000000D+00 0.000000000000000D+00
 0.377076191269058D+03 0.000000000000000D+00 0.000000000000000D+00 0.377076191269058D+03
 0.332555282398301D+03 0.000000000000000D+00 0.000000000000000D+00 -.332555282398301D+03
 0.262131867568253D+03 0.227103148382495D+03 0.857284086103984D+02 -.576255151155874D+02
 0.548261744267925D+02 0.418405013877833D+02 0.351600349172886D+02 0.436506477741540D+01
 0.555023287720558D+02 -.195193703256397D+02 0.453938537641040D+01 -.517580589050279D+02
 0.230058144842700D+03 -.169436894688036D+03 -.698122489200582D+02 0.105018509243200D+03
 0.107112958057557D+03 -.799873847566021D+02 -.556155799840392D+02 0.445209088707575D+02
0.435177228148D-04 0.000000000000D+00 0.000000000000D+00 0.489332960501D-06 0.000000000000D+00  7 -4 3 -24 -13 13 23 21 0 0.12582327D+00 0.16626001D-01 0.71215211D+05 0.71215211D+05 0.71215211D+05 0.11340247D+01  1  2  2  2  7  2        3 0.152754276221D-03 0.100000000000D+01
-.238336838124D-05 0.000000000000D+00 -.167119514088D-06 0.489332960501D-06 0.000000000000D+00  7 -4 3 -24 -13 13 23 21 2 0.12582327D+00 0.16626001D-01 0.71215211D+05 0.71215211D+05 0.71215211D+05 0.11340247D+01  1  2  3  2  7  2        3 -.107587904489D-04 0.100000000000D+01
0.274270759929D-05 0.000000000000D+00 0.000000000000D+00 0.489332960501D-06 0.000000000000D+00  7 -4 3 -24 -13 13 23 21 2 0.12582327D+00 0.16626001D-01 0.71215211D+05 0.71215211D+05 0.71215211D+05 0.11340247D+01  1  2 15  2  7  2        3 0.123808877199D-04 0.100000000000D+01
-.113143877515D-04 0.000000000000D+00 0.000000000000D+00 0.489332960501D-06 0.000000000000D+00  7 -4 3 -24 -13 13 23 21 2 0.12582327D+00 0.16626001D-01 0.71215211D+05 0.71215211D+05 0.71215211D+05 0.11340247D+01  1  2  4  2  7  2        3 -.510744070594D-04 0.100000000000D+01
  </mgrwgt>
  </event>
  <event>
  8     66 0.26562228E-05 0.10155683E+03 0.75467711E-02 0.10314035E+00
       -4 -1    0    0    0  501 0.00000000E+00 0.00000000E+00 0.32561050E+03 0.32561419E+03 0.15500000E+01 0.0000E+00 0.9000E+01
        3 -1    0    0  501    0 0.00000000E+00 0.00000000E+00 -.38231521E+03 0.38231554E+03 0.50000000E+00 0.0000E+00 0.9000E+01
       25  2    1    2    0    0 -.78119953E+02 0.10458713E+02 0.24173989E+03 0.38894931E+03 0.29433193E+03 0.0000E+00 0.0000E+00
       23  2    3    3    0    0 -.12989019E+03 -.25100856E+02 0.57919910E+02 0.17435743E+03 0.97694845E+02 0.0000E+00 0.0000E+00
      -24  1    1    2    0    0 0.78119953E+02 -.10458713E+02 -.29844460E+03 0.31898041E+03 0.80419002E+02 0.0000E+00 0.9000E+01
      -11  1    4    4    0    0 -.21346422E+02 0.32343785E+02 0.28418755E+02 0.48056382E+02 0.51099893E-03 0.0000E+00 0.9000E+01
       11  1    4    4    0    0 -.10854377E+03 -.57444642E+02 0.29501155E+02 0.12630105E+03 0.51099893E-03 0.0000E+00 0.9000E+01
       23  1    3    3    0    0 0.51770238E+02 0.35559569E+02 0.18381998E+03 0.21459188E+03 0.91188000E+02 0.0000E+00 0.9000E+01
#aMCatNLO 1  0  0  2  1 0.88633365D+02 0.00000000D+00  -5  7  0 0.00000000D+00 0.00000000D+00 0.00000000D+00 0.00000000D+00 0.00000000D+00
  <mgrwgt>
 0.1645493511D-02    9    2    0
 0.352827532856977D+03 0.000000000000000D+00 0.000000000000000D+00 0.352827532856977D+03
 0.352827532856977D+03 0.000000000000000D+00 0.000000000000000D+00 -.352827532856977D+03
 0.296026362921126D+03 0.781199530226179D+02 -.104587131525125D+02 -.273774140212105D+03
 0.504949513395065D+02 -.213464220454987D+02 0.323437854381918D+02 0.323720546175677D+02
 0.129078816874393D+03 -.108543769222336D+03 -.574446416643048D+02 0.397454937415670D+02
 0.230054934578929D+03 0.517702382452164D+02 0.355595693786254D+02 0.201656591852970D+03
 0.000000000000000D+00 -.000000000000000D+00 -.000000000000000D+00 -.000000000000000D+00
 0.397354461063061D+03 0.000000000000000D+00 0.000000000000000D+00 0.397354461063061D+03
 0.402635762724243D+03 0.000000000000000D+00 0.000000000000000D+00 -.402635762724243D+03
 0.307809434783888D+03 0.115367710069868D+03 -.417657897852270D+01 -.273774140212105D+03
 0.489234786079067D+02 -.152137721781429D+02 0.333781062231980D+02 0.323720546175677D+02
 0.115449358164838D+03 -.934599896755021D+02 -.549006407773819D+02 0.397454937415670D+02
 0.239017380602071D+03 0.807050773187828D+02 0.404396629942587D+02 0.201656591852970D+03
 0.887905716286000D+02 -.873990255350063D+02 -.147405494615521D+02 -.528130166118252D+01
0.363993991641D-03 0.000000000000D+00 0.000000000000D+00 0.288058063148D-08 0.000000000000D+00  7 -4 3 -24 -11 11 23 21 0 0.50094232D-01 0.58818033D-01 0.37034533D+05 0.37034533D+05 0.37034533D+05 0.11589417D+01  1  2  2  2  7  2        3 0.126820060696D-02 0.100000000000D+01
-.111874504913D-04 0.000000000000D+00 -.139783276972D-05 0.288058063148D-08 0.000000000000D+00  7 -4 3 -24 -11 11 23 21 2 0.50094232D-01 0.58818033D-01 0.37034533D+05 0.37034533D+05 0.37034533D+05 0.11589417D+01  1  2  3  2  7  2        3 -.523537814996D-04 0.100000000000D+01
0.227952457182D-04 0.000000000000D+00 0.000000000000D+00 0.288058063148D-08 0.000000000000D+00  7 -4 3 -24 -11 11 23 21 2 0.50094232D-01 0.58818033D-01 0.37034533D+05 0.37034533D+05 0.37034533D+05 0.11589417D+01  1  2 15  2  7  2        3 0.106674645352D-03 0.100000000000D+01
0.209168065764D-03 0.000000000000D+00 0.000000000000D+00 0.288058063148D-08 0.000000000000D+00  7 -4 3 -24 -11 11 23 21 2 0.50094232D-01 0.70357463D-01 0.63179740D+05 0.63179740D+05 0.63179740D+05 0.11384638D+01  1  2 12  2  7  2        3 0.654606805731D-03 0.100000000000D+01
-.251116996647D-03 0.000000000000D+00 0.000000000000D+00 0.288058063148D-08 0.000000000000D+00  7 -4 3 -24 -11 11 23 21 2 0.50094232D-01 0.58818033D-01 0.37034533D+05 0.37034533D+05 0.37034533D+05 0.11589417D+01  1  2  4  2  7  2        3 -.117514927851D-02 0.100000000000D+01
-.479956460440D-03 0.000000000000D+00 -.238476832693D-03 0.288058063148D-08 0.000000000000D+00  7 -4 3 -24 -11 11 23 21 2 0.50094232D-01 0.74420755D-01 0.37034533D+05 0.37034533D+05 0.37034533D+05 0.11589417D+01  1  2  5  2  7  2        3 -.136974065367D-02 0.100000000000D+01
0.527840823477D-03 0.000000000000D+00 0.232024742130D-03 0.288058063148D-08 0.000000000000D+00  7 -4 3 -24 -11 11 23 21 2 0.50094232D-01 0.58818033D-01 0.37034533D+05 0.37034533D+05 0.37034533D+05 0.11589417D+01  1  2  6  2  7  2        3 0.247013054138D-02 0.100000000000D+01
0.549593892441D-05 0.000000000000D+00 0.000000000000D+00 0.288058063148D-08 0.000000000000D+00  7 -4 21 -24 -11 11 23 -3 2 0.50094232D-01 0.70357463D-01 0.63179740D+05 0.63179740D+05 0.63179740D+05 0.11384638D+01  1  2 12  4  7  2        3 0.255240725827D-03 0.100000000000D+01
-.119133666811D-04 0.000000000000D+00 -.771599080767D-05 0.288058063148D-08 0.000000000000D+00  7 -4 21 -24 -11 11 23 -3 2 0.50094232D-01 0.74420755D-01 0.37034533D+05 0.37034533D+05 0.37034533D+05 0.11589417D+01  1  2  5  4  7  2        3 -.512116101025D-03 0.100000000000D+01
  </mgrwgt>
  </event>
  <event>
  8     66 0.26562228E-05 0.20073400E+03 0.75467711E-02 0.86836338E-01
       -2 -1    0    0    0  501 0.00000000E+00 0.00000000E+00 0.34293012E+03 0.34293027E+03 0.32000000E+00 0.0000E+00 0.9000E+01
        1 -1    0    0  501    0 0.00000000E+00 0.00000000E+00 -.15416793E+04 0.15416793E+04 0.32000000E+00 0.0000E+00 0.9000E+01
       25  2    1    2    0    0 -.41724585E+03 0.48897570E+03 -.96121609E+03 0.11946237E+04 0.29999683E+03 0.0000E+00 0.0000E+00
       23  2    3    3    0    0 -.15575217E+03 0.14194168E+03 -.15640457E+03 0.27546736E+03 0.83747827E+02 0.0000E+00 0.0000E+00
      -24  1    1    2    0    0 0.41724585E+03 -.48897570E+03 -.23753308E+03 0.68998588E+03 0.80419002E+02 0.0000E+00 0.9000E+01
      -13  1    4    4    0    0 -.33922462E+02 0.67561937E+02 -.20392299E+02 0.78302017E+02 0.10565837E+00 0.0000E+00 0.9000E+01
       13  1    4    4    0    0 -.12182971E+03 0.74379739E+02 -.13601227E+03 0.19716534E+03 0.10565837E+00 0.0000E+00 0.9000E+01
       23  1    3    3    0    0 -.26149368E+03 0.34703403E+03 -.80481152E+03 0.91915635E+03 0.91188000E+02 0.0000E+00 0.9000E+01
#aMCatNLO 1  0  0  1  2 0.65386255D+03 0.00000000D+00  -5  7  0 0.00000000D+00 0.00000000D+00 0.00000000D+00 0.00000000D+00 0.00000000D+00
  <mgrwgt>
 0.1493920579D-02    7    2    0
 0.727109642730506D+03 0.000000000000000D+00 0.000000000000000D+00 0.727109642730506D+03
 0.727109642730506D+03 0.000000000000000D+00 0.000000000000000D+00 -.727109642730506D+03
 0.698389462696154D+03 0.417245847177617D+03 -.488975704849841D+03 0.260939243369573D+03
 0.846662844984394D+02 -.339223219355048D+02 0.675619264429354D+02 0.381187867146115D+02
 0.143400128239235D+03 -.121829846347466D+03 0.743797493970142D+02 -.137382021247052D+02
 0.527763410027184D+03 -.261493678894647D+03 0.347034029009891D+03 -.285319827959479D+03
 0.000000000000000D+00 -.000000000000000D+00 -.000000000000000D+00 0.000000000000000D+00
 0.137234252580071D+04 0.000000000000000D+00 0.000000000000000D+00 0.137234252580071D+04
 0.983076308174199D+03 0.000000000000000D+00 0.000000000000000D+00 -.983076308174199D+03
 0.839814579673596D+03 0.714706077972705D+03 -.346305133742710D+03 0.260939243369573D+03
 0.922157479577864D+02 0.283393787926904D+00 0.839679817476930D+02 0.381187867146115D+02
 0.122300524418527D+03 -.704482511332044D+02 0.990238556495370D+02 -.137382021247052D+02
 0.540125156606006D+03 -.549837681517475D+02 0.446082183535355D+03 -.285319827959479D+03
 0.760962825318991D+03 -.589557452475680D+03 -.282768887189875D+03 0.389266217626506D+03
0.653965047373D-03 0.000000000000D+00 0.000000000000D+00 0.630563786212D-06 0.000000000000D+00  7 -2 1 -24 -13 13 23 21 0 0.52758494D-01 0.23718144D+00 0.42911711D+06 0.42911711D+06 0.42911711D+06 0.10732347D+01  1  2  2  1  7  1       -2 0.151100022441D-02 0.100000000000D+01
-.358505287639D-04 0.000000000000D+00 -.251139797486D-05 0.630563786212D-06 0.000000000000D+00  7 -2 1 -24 -13 13 23 21 2 0.52758494D-01 0.23718144D+00 0.42911711D+06 0.42911711D+06 0.42911711D+06 0.10732347D+01  1  2  3  1  7  1       -2 -.954102273169D-04 0.100000000000D+01
0.416562536623D-04 0.000000000000D+00 0.000000000000D+00 0.630563786212D-06 0.000000000000D+00  7 -2 1 -24 -13 13 23 21 2 0.52758494D-01 0.23718144D+00 0.42911711D+06 0.42911711D+06 0.42911711D+06 0.10732347D+01  1  2 15  1  7  1       -2 0.110861199768D-03 0.100000000000D+01
0.112866563428D-08 0.000000000000D+00 0.000000000000D+00 0.630563786212D-06 0.000000000000D+00  7 -2 1 -24 -13 13 23 21 2 0.10213391D+00 0.23718144D+00 0.11195969D+07 0.11195969D+07 0.11195969D+07 0.10446136D+01  1  2 12  1  7  1       -2 0.622538966396D-09 0.100000000000D+01
-.107893168428D-03 0.000000000000D+00 -.192708147472D-03 0.630563786212D-06 0.000000000000D+00  7 -2 1 -24 -13 13 23 21 2 0.12923139D+00 0.23718144D+00 0.42911711D+06 0.42911711D+06 0.42911711D+06 0.10732347D+01  1  2  5  1  7  1       -2 -.367188100977D-04 0.100000000000D+01
0.808468591815D-10 0.000000000000D+00 0.000000000000D+00 0.630563786212D-06 0.000000000000D+00  7 21 1 -24 -13 13 23 2 2 0.10213391D+00 0.23718144D+00 0.11195969D+07 0.11195969D+07 0.11195969D+07 0.10446136D+01  1  2 12  3  7  1       -2 0.393099140870D-09 0.100000000000D+01
0.141745650652D-05 0.000000000000D+00 -.189442526385D-04 0.630563786212D-06 0.000000000000D+00  7 21 1 -24 -13 13 23 2 2 0.12923139D+00 0.23718144D+00 0.42911711D+06 0.42911711D+06 0.42911711D+06 0.10732347D+01  1  2  5  3  7  1       -2 0.418717668675D-05 0.100000000000D+01
  </mgrwgt>
  </event>
  <event>
  8     66 0.26562228E-05 0.47191033E+03 0.75467711E-02 0.90679386E-01
       -2 -1    0    0    0  501 0.00000000E+00 0.00000000E+00 0.90904764E+02 0.90905327E+02 0.32000000E+00 0.0000E+00 0.9000E+01
        1 -1    0    0  501    0 0.00000000E+00 0.00000000E+00 -.26476459E+04 0.26476460E+04 0.32000000E+00 0.0000E+00 0.9000E+01
       25  2    1    2    0    0 0.37373814E+03 -.23047192E+03 -.12612050E+04 0.13682672E+04 0.29785793E+03 0.0000E+00 0.0000E+00
       23  2    3    3    0    0 0.17851665E+03 -.19618687E+03 -.93104099E+03 0.97252678E+03 0.92809073E+02 0.0000E+00 0.0000E+00
      -24  1    1    2    0    0 -.37373814E+03 0.23047192E+03 -.12955361E+04 0.13702841E+04 0.80419002E+02 0.0000E+00 0.9000E+01
      -13  1    4    4    0    0 0.98479272E+02 -.16735229E+03 -.69529601E+03 0.72190132E+03 0.10565837E+00 0.0000E+00 0.9000E+01
       13  1    4    4    0    0 0.80037381E+02 -.28834576E+02 -.23574498E+03 0.25062546E+03 0.10565837E+00 0.0000E+00 0.9000E+01
       23  1    3    3    0    0 0.19522149E+03 -.34285056E+02 -.33016405E+03 0.39574037E+03 0.91188000E+02 0.0000E+00 0.9000E+01
#aMCatNLO 1  0  0  2  2 0.42063932D+03 0.00000000D+00  -5  7  0 0.00000000D+00 0.00000000D+00 0.00000000D+00 0.00000000D+00 0.00000000D+00
  <mgrwgt>
 0.1739692181D-02    6    2    0
 0.490595990934384D+03 0.000000000000000D+00 0.000000000000000D+00 0.490595990934384D+03
 0.490595990934384D+03 0.000000000000000D+00 0.000000000000000D+00 -.490595990934384D+03
 0.448681599318282D+03 -.373738142769046D+03 0.230471922476149D+03 -.452819522782846D+02
 0.203091739948507D+03 0.984792962967307D+02 -.167352470059258D+03 -.595082666633629D+02
 0.852143452044377D+02 0.800373570722897D+02 -.288343963277963D+02 -.490751361846623D+01
 0.244204297397541D+03 0.195221489400025D+03 -.342850560890955D+02 0.109697732560114D+03
 0.000000000000000D+00 0.000000000000000D+00 -.000000000000000D+00 -.000000000000000D+00
 0.679746863600218D+03 0.000000000000000D+00 0.000000000000000D+00 0.679746863600218D+03
 0.836817211719871D+03 0.000000000000000D+00 0.000000000000000D+00 -.836817211719871D+03
 0.665659473727599D+03 -.597361144401654D+03 0.278827055656273D+03 -.452819522782846D+02
 0.164539889123819D+03 0.247039591250258D+02 -.151399655597858D+03 -.595082666633629D+02
 0.565651562376661D+02 0.515854239529290D+02 -.226820908620152D+02 -.490751361846623D+01
 0.180791167568330D+03 0.109934530268078D+03 -.158430253621824D+02 0.109697732560114D+03
 0.449008388662675D+03 0.411137231055621D+03 -.889022838342181D+02 -.157070348119653D+03
0.258360393245D-03 0.000000000000D+00 0.000000000000D+00 0.260497893276D-06 0.000000000000D+00  7 -2 1 -24 -13 13 23 21 0 0.13985393D-01 0.40733019D+00 0.22269936D+06 0.22269936D+06 0.22269936D+06 0.10942575D+01  1  2  2  2  7  2        1 0.115604739071D-02 0.100000000000D+01
-.143270395444D-04 0.000000000000D+00 -.992171937915D-06 0.260497893276D-06 0.000000000000D+00  7 -2 1 -24 -13 13 23 21 2 0.13985393D-01 0.40733019D+00 0.22269936D+06 0.22269936D+06 0.22269936D+06 0.10942575D+01  1  2  3  2  7  2        1 -.767618063719D-04 0.100000000000D+01
0.166212364616D-04 0.000000000000D+00 0.000000000000D+00 0.260497893276D-06 0.000000000000D+00  7 -2 1 -24 -13 13 23 21 2 0.13985393D-01 0.40733019D+00 0.22269936D+06 0.22269936D+06 0.22269936D+06 0.10942575D+01  1  2 15  2  7  2        1 0.890537176903D-04 0.100000000000D+01
-.843158592052D-04 0.000000000000D+00 -.576833420044D-04 0.260497893276D-06 0.000000000000D+00  7 -2 1 -24 -13 13 23 21 2 0.13985393D-01 0.73204635D+00 0.22269936D+06 0.22269936D+06 0.22269936D+06 0.10942575D+01  1  2  5  2  7  2        1 -.593064282813D-05 0.100000000000D+01
0.107747210692D-03 0.000000000000D+00 0.490169401505D-04 0.260497893276D-06 0.000000000000D+00  7 -2 1 -24 -13 13 23 21 2 0.13985393D-01 0.40733019D+00 0.22269936D+06 0.22269936D+06 0.22269936D+06 0.10942575D+01  1  2  6  2  7  2        1 0.577290967796D-03 0.100000000000D+01
-.236360489149D-05 0.000000000000D+00 -.370997505542D-05 0.260497893276D-06 0.000000000000D+00  7 -2 21 -24 -13 13 23 -1 2 0.13985393D-01 0.73204635D+00 0.22269936D+06 0.22269936D+06 0.22269936D+06 0.10942575D+01  1  2  5  4  7  2        1 -.744566750544D-08 0.100000000000D+01
  </mgrwgt>
  </event>
  <event>
  8     66 0.26562228E-05 0.12467032E+03 0.75467711E-02 0.10195624E+00
       -2 -1    0    0    0  501 0.00000000E+00 0.00000000E+00 0.95788506E+02 0.95789041E+02 0.32000000E+00 0.0000E+00 0.9000E+01
        1 -1    0    0  501    0 0.00000000E+00 0.00000000E+00 -.13729150E+04 0.13729151E+04 0.32000000E+00 0.0000E+00 0.9000E+01
       25  2    1    2    0    0 -.40976068E+02 -.13443555E+03 -.12633602E+04 0.13061966E+04 0.30053072E+03 0.0000E+00 0.0000E+00
       23  2    3    3    0    0 0.54248040E+02 -.16278178E+03 -.65649382E+03 0.68452696E+03 0.90289883E+02 0.0000E+00 0.0000E+00
      -24  1    1    2    0    0 0.40976068E+02 0.13443555E+03 -.13766344E+02 0.16250749E+03 0.80419002E+02 0.0000E+00 0.9000E+01
      -13  1    4    4    0    0 0.50346081E+02 -.15639524E+03 -.47012250E+03 0.49800540E+03 0.10565837E+00 0.0000E+00 0.9000E+01
       13  1    4    4    0    0 0.39019591E+01 -.63865423E+01 -.18637131E+03 0.18652156E+03 0.10565837E+00 0.0000E+00 0.9000E+01
       23  1    3    3    0    0 -.95224108E+02 0.28346227E+02 -.60686637E+03 0.62166967E+03 0.91188000E+02 0.0000E+00 0.9000E+01
#aMCatNLO 1  0  0  1  2 0.70480089D+02 0.00000000D+00  -5  7  0 0.00000000D+00 0.00000000D+00 0.00000000D+00 0.00000000D+00 0.00000000D+00
  <mgrwgt>
 0.1212361584D-02    9    2    0
 0.362642937578899D+03 0.000000000000000D+00 0.000000000000000D+00 0.362642937578899D+03
 0.362642937578899D+03 0.000000000000000D+00 0.000000000000000D+00 -.362642937578899D+03
 0.304837113854840D+03 0.409760683342185D+02 0.134435551036994D+03 0.258276004441426D+03
 0.180641579742312D+03 0.503461441391057D+02 -.156395440846824D+03 -.750807044749197D+02
 0.495323279494522D+02 0.390189547536442D+01 -.638633696238817D+01 -.489636745352537D+02
 0.190274853611194D+03 -.952241079486886D+02 0.283462267722179D+02 -.134231625431252D+03
 0.000000000000000D+00 0.000000000000000D+00 -.000000000000000D+00 0.000000000000000D+00
 0.424849658066492D+03 0.000000000000000D+00 0.000000000000000D+00 0.424849658066492D+03
 0.384878280451177D+03 0.000000000000000D+00 0.000000000000000D+00 -.384878280451177D+03
 0.317381659349028D+03 0.313456899377089D+02 0.163017959099217D+03 0.258276004441426D+03
 0.165528063667808D+03 0.449883105297813D+02 -.140493699477377D+03 -.750807044749197D+02
 0.490564693791411D+02 0.237598937156374D+01 -.185753558743132D+01 -.489636745352537D+02
 0.196736108682690D+03 -.101214062239679D+03 0.461240658944281D+02 -.134231625431252D+03
 0.810256374390021D+02 0.225040724006254D+02 -.667907899288365D+02 0.399713776153144D+02
0.339484496310D-04 0.000000000000D+00 0.000000000000D+00 0.344021256003D-05 0.000000000000D+00  7 -2 1 -24 -13 13 23 21 0 0.14736737D-01 0.21121774D+00 0.54887960D+05 0.54887960D+05 0.54887960D+05 0.11437494D+01  1  2  2  1  7  1       -2 0.103610145924D-02 0.100000000000D+01
-.144832026390D-05 0.000000000000D+00 -.130370985415D-06 0.344021256003D-05 0.000000000000D+00  7 -2 1 -24 -13 13 23 21 2 0.14736737D-01 0.21121774D+00 0.54887960D+05 0.54887960D+05 0.54887960D+05 0.11437494D+01  1  2  3  1  7  1       -2 -.578240723412D-04 0.100000000000D+01
0.211827858688D-05 0.000000000000D+00 0.000000000000D+00 0.344021256003D-05 0.000000000000D+00  7 -2 1 -24 -13 13 23 21 2 0.14736737D-01 0.21121774D+00 0.54887960D+05 0.54887960D+05 0.54887960D+05 0.11437494D+01  1  2 15  1  7  1       -2 0.845721055623D-04 0.100000000000D+01
0.423977636910D-04 0.000000000000D+00 0.000000000000D+00 0.344021256003D-05 0.000000000000D+00  7 -2 1 -24 -13 13 23 21 2 0.17659161D-01 0.21121774D+00 0.75433787D+05 0.75433787D+05 0.75433787D+05 0.11319098D+01  1  2 12  1  7  1       -2 0.123203062973D-02 0.100000000000D+01
-.450542013196D-04 0.000000000000D+00 0.000000000000D+00 0.344021256003D-05 0.000000000000D+00  7 -2 1 -24 -13 13 23 21 2 0.14736737D-01 0.21121774D+00 0.54887960D+05 0.54887960D+05 0.54887960D+05 0.11437494D+01  1  2  4  1  7  1       -2 -.179878543532D-02 0.100000000000D+01
-.738081937215D-04 0.000000000000D+00 -.224832408245D-04 0.344021256003D-05 0.000000000000D+00  7 -2 1 -24 -13 13 23 21 2 0.18335174D-01 0.21121774D+00 0.54887960D+05 0.54887960D+05 0.54887960D+05 0.11437494D+01  1  2  5  1  7  1       -2 -.207611931476D-02 0.100000000000D+01
0.773919875812D-04 0.000000000000D+00 0.219571185862D-04 0.344021256003D-05 0.000000000000D+00  7 -2 1 -24 -13 13 23 21 2 0.14736737D-01 0.21121774D+00 0.54887960D+05 0.54887960D+05 0.54887960D+05 0.11437494D+01  1  2  6  1  7  1       -2 0.308986900210D-02 0.100000000000D+01
0.112261807492D-05 0.000000000000D+00 0.000000000000D+00 0.344021256003D-05 0.000000000000D+00  7 21 1 -24 -13 13 23 2 2 0.17659161D-01 0.21121774D+00 0.75433787D+05 0.75433787D+05 0.75433787D+05 0.11319098D+01  1  2 12  3  7  1       -2 0.431530526688D-03 0.100000000000D+01
-.195796969247D-05 0.000000000000D+00 -.688135155074D-06 0.344021256003D-05 0.000000000000D+00  7 21 1 -24 -13 13 23 2 2 0.18335174D-01 0.21121774D+00 0.54887960D+05 0.54887960D+05 0.54887960D+05 0.11437494D+01  1  2  5  3  7  1       -2 -.729013316507D-03 0.100000000000D+01
  </mgrwgt>
  </event>
  <event>
  8     66 0.26562228E-05 0.28064913E+03 0.75467711E-02 0.94978335E-01
       -2 -1    0    0    0  501 0.00000000E+00 0.00000000E+00 0.85713407E+02 0.85714004E+02 0.32000000E+00 0.0000E+00 0.9000E+01
        1 -1    0    0  501    0 0.00000000E+00 0.00000000E+00 -.26314171E+04 0.26314171E+04 0.32000000E+00 0.0000E+00 0.9000E+01
       25  2    1    2    0    0 0.41024695E+03 -.10373786E+03 -.13271682E+04 0.14247070E+04 0.29891563E+03 0.0000E+00 0.0000E+00
       23  2    3    3    0    0 0.16629815E+03 -.70777144E+02 -.29469791E+03 0.35938660E+03 0.98221167E+02 0.0000E+00 0.0000E+00
      -24  1    1    2    0    0 -.41024695E+03 0.10373786E+03 -.12185355E+04 0.12924241E+04 0.80419002E+02 0.0000E+00 0.9000E+01
      -13  1    4    4    0    0 -.63792036E+00 -.23399133E+02 -.79863660E+02 0.83223445E+02 0.10565837E+00 0.0000E+00 0.9000E+01
       13  1    4    4    0    0 0.16693607E+03 -.47378011E+02 -.21483425E+03 0.27616316E+03 0.10565837E+00 0.0000E+00 0.9000E+01
       23  1    3    3    0    0 0.24394880E+03 -.32960712E+02 -.10324703E+04 0.10653204E+04 0.91188000E+02 0.0000E+00 0.9000E+01
#aMCatNLO 1  0  0  1  2 0.73517027D+02 0.00000000D+00  -5  7  0 0.00000000D+00 0.00000000D+00 0.00000000D+00 0.00000000D+00 0.00000000D+00
  <mgrwgt>
 0.9480705676D-03    9    2    0
 0.474919531320671D+03 0.000000000000000D+00 0.000000000000000D+00 0.474919531320671D+03
 0.474919531320671D+03 0.000000000000000D+00 0.000000000000000D+00 -.474919531320671D+03
 0.431289331099857D+03 -.410246949969077D+03 0.103737855966641D+03 -.218899165531961D+02
 0.240246873009629D+02 -.638113760271381D+00 -.233991040853924D+02 -.540928264550592D+01
 0.214212483637868D+03 0.166936253966361D+03 -.473780398398579D+02 0.125596960946176D+03
 0.280312560602654D+03 0.243948809762987D+03 -.329607120413905D+02 -.982977617474737D+02
 0.000000000000000D+00 -.000000000000000D+00 0.000000000000000D+00 0.000000000000000D+00
 0.760525425314051D+03 0.000000000000000D+00 0.000000000000000D+00 0.760525425314051D+03
 0.481094551913865D+03 0.000000000000000D+00 0.000000000000000D+00 -.481094551913865D+03
 0.410797102097538D+03 -.395223759912990D+03 0.748735887406093D+02 -.218899165531961D+02
 0.256802443341400D+02 0.248643946824825D+00 -.251028441916422D+02 -.540928264550592D+01
 0.224071322436507D+03 0.174755428646755D+03 -.624011305828571D+02 0.125596960946176D+03
 0.292131234464016D+03 0.254161457290225D+03 -.525824159678504D+02 -.982977617474737D+02
 0.288940073895715D+03 -.339417699708149D+02 0.652128020017404D+02 0.279430873400187D+03
0.168269662010D-03 0.000000000000D+00 0.000000000000D+00 0.648955106672D-07 0.000000000000D+00  7 -2 1 -24 -13 13 23 21 0 0.13186725D-01 0.40483345D+00 0.19810633D+06 0.19810633D+06 0.19810633D+06 0.10981428D+01  1  2  2  1  7  1       -2 0.853784439339D-03 0.100000000000D+01
-.930049051710D-05 0.000000000000D+00 -.646199808536D-06 0.648955106672D-07 0.000000000000D+00  7 -2 1 -24 -13 13 23 21 2 0.13186725D-01 0.40483345D+00 0.19810633D+06 0.19810633D+06 0.19810633D+06 0.10981428D+01  1  2  3  1  7  1       -2 -.569070325625D-04 0.100000000000D+01
0.107848899866D-04 0.000000000000D+00 0.000000000000D+00 0.648955106672D-07 0.000000000000D+00  7 -2 1 -24 -13 13 23 21 2 0.13186725D-01 0.40483345D+00 0.19810633D+06 0.19810633D+06 0.19810633D+06 0.10981428D+01  1  2 15  1  7  1       -2 0.659896469465D-04 0.100000000000D+01
0.121722884153D-02 0.000000000000D+00 0.000000000000D+00 0.648955106672D-07 0.000000000000D+00  7 -2 1 -24 -13 13 23 21 2 0.21159134D-01 0.40483345D+00 0.23497945D+06 0.23497945D+06 0.23497945D+06 0.10924893D+01  1  2 12  1  7  1       -2 0.337507458013D-02 0.100000000000D+01
-.111486686196D-02 0.000000000000D+00 0.000000000000D+00 0.648955106672D-07 0.000000000000D+00  7 -2 1 -24 -13 13 23 21 2 0.13186725D-01 0.40483345D+00 0.19810633D+06 0.19810633D+06 0.19810633D+06 0.10981428D+01  1  2  4  1  7  1       -2 -.682155040100D-02 0.100000000000D+01
-.125134140344D-02 0.000000000000D+00 -.627850162639D-04 0.648955106672D-07 0.000000000000D+00  7 -2 1 -24 -13 13 23 21 2 0.21288477D-01 0.40483345D+00 0.19810633D+06 0.19810633D+06 0.19810633D+06 0.10981428D+01  1  2  5  1  7  1       -2 -.350260469417D-02 0.100000000000D+01
0.115316908761D-02 0.000000000000D+00 0.562132108094D-04 0.648955106672D-07 0.000000000000D+00  7 -2 1 -24 -13 13 23 21 2 0.13186725D-01 0.40483345D+00 0.19810633D+06 0.19810633D+06 0.19810633D+06 0.10981428D+01  1  2  6  1  7  1       -2 0.705591072834D-02 0.100000000000D+01
0.656985047319D-04 0.000000000000D+00 0.000000000000D+00 0.648955106672D-07 0.000000000000D+00  7 21 1 -24 -13 13 23 2 2 0.21159134D-01 0.40483345D+00 0.23497945D+06 0.23497945D+06 0.23497945D+06 0.10924893D+01  1  2 12  3  7  1       -2 0.226594763995D-02 0.100000000000D+01
-.655184097486D-04 0.000000000000D+00 -.342254309177D-05 0.648955106672D-07 0.000000000000D+00  7 21 1 -24 -13 13 23 2 2 0.21288477D-01 0.40483345D+00 0.19810633D+06 0.19810633D+06 0.19810633D+06 0.10981428D+01  1  2  5  3  7  1       -2 -.228757433935D-02 0.100000000000D+01
  </mgrwgt>
  </event>
  <event>
  8     66 0.26562228E-05 0.23474569E+03 0.75467711E-02 0.99962558E-01
       -2 -1    0    0    0  501 0.00000000E+00 0.00000000E+00 0.13960117E+03 0.13960154E+03 0.32000000E+00 0.0000E+00 0.9000E+01
        1 -1    0    0  501    0 0.00000000E+00 0.00000000E+00 -.75237101E+03 0.75237108E+03 0.32000000E+00 0.0000E+00 0.9000E+01
       25  2    1    2    0    0 0.97678665E+02 0.11628198E+03 -.63524261E+03 0.71866693E+03 0.29981054E+03 0.0000E+00 0.0000E+00
       23  2    3    3    0    0 0.16705810E+02 0.15007005E+03 -.21212504E+03 0.27703137E+03 0.94600446E+02 0.0000E+00 0.0000E+00
      -24  1    1    2    0    0 -.97678665E+02 -.11628198E+03 0.22472775E+02 0.17330569E+03 0.80419002E+02 0.0000E+00 0.9000E+01
      -13  1    4    4    0    0 -.31235810E+02 0.37861718E+02 -.29103597E+02 0.57063264E+02 0.10565837E+00 0.0000E+00 0.9000E+01
       13  1    4    4    0    0 0.47941621E+02 0.11220833E+03 -.18302144E+03 0.21996810E+03 0.10565837E+00 0.0000E+00 0.9000E+01
       23  1    3    3    0    0 0.80972855E+02 -.33788064E+02 -.42311757E+03 0.44163556E+03 0.91188000E+02 0.0000E+00 0.9000E+01
#aMCatNLO 1  0  0  1  2 0.13891479D+03 0.00000000D+00  -5  7  0 0.00000000D+00 0.00000000D+00 0.00000000D+00 0.00000000D+00 0.00000000D+00
  <mgrwgt>
 0.1154069812D-02    3    2    0
 0.324086516530193D+03 0.000000000000000D+00 0.000000000000000D+00 0.324086516530193D+03
 0.324086516530193D+03 0.000000000000000D+00 0.000000000000000D+00 -.324086516530193D+03
 0.259737077444724D+03 -.976786654669368D+02 -.116281981662013D+03 0.194765275391969D+03
 0.510126106979883D+02 -.312359063749025D+02 0.378616275072635D+02 0.138961061331606D+02
 0.129680755664863D+03 0.479417150408593D+02 0.112208419855220D+03 -.439085511301090D+02
 0.207742589252810D+03 0.809728568009800D+02 -.337880657004714D+02 -.164752830395021D+03
 0.000000000000000D+00 0.000000000000000D+00 0.000000000000000D+00 -.000000000000000D+00
 0.349130917019841D+03 0.000000000000000D+00 0.000000000000000D+00 0.349130917019841D+03
 0.604238211001324D+03 0.000000000000000D+00 0.000000000000000D+00 -.604238211001324D+03
 0.291902855504129D+03 -.101594091355882D+03 -.174600083620131D+03 0.194765275391969D+03
 0.445232788630805D+02 -.319140003143880D+02 0.277617935117457D+02 0.138961061331606D+02
 0.107943074002361D+03 0.462551103573735D+02 0.870873764018696D+02 -.439085511301090D+02
 0.218522638270927D+03 0.779473145809278D+02 -.788518428404682D+02 -.164752830395021D+03
 0.290477281380668D+03 0.930566673196860D+01 0.138602756546984D+03 -.255107293981483D+03
0.236802678486D-04 0.000000000000D+00 0.000000000000D+00 0.507684934027D-06 0.000000000000D+00  7 -2 1 -24 -13 13 23 21 0 0.21477137D-01 0.11574942D+00 0.55105541D+05 0.55105541D+05 0.55105541D+05 0.11435997D+01  1  2  2  1  7  1       -2 0.113255018694D-02 0.100000000000D+01
-.114920011250D-05 0.000000000000D+00 -.909384636963D-07 0.507684934027D-06 0.000000000000D+00  7 -2 1 -24 -13 13 23 21 2 0.21477137D-01 0.11574942D+00 0.55105541D+05 0.55105541D+05 0.55105541D+05 0.11435997D+01  1  2  3  1  7  1       -2 -.718810753609D-04 0.100000000000D+01
0.149324554366D-05 0.000000000000D+00 0.000000000000D+00 0.507684934027D-06 0.000000000000D+00  7 -2 1 -24 -13 13 23 21 2 0.21477137D-01 0.11574942D+00 0.55105541D+05 0.55105541D+05 0.55105541D+05 0.11435997D+01  1  2 15  1  7  1       -2 0.934007004423D-04 0.100000000000D+01
  </mgrwgt>
  </event>
  <event>
  7     66 0.26562228E-05 0.48743914E+03 0.75467711E-02 0.93927343E-01
       -2 -1    0    0    0  501 0.00000000E+00 0.00000000E+00 0.34147486E+03 0.34147501E+03 0.32000000E+00 0.0000E+00 0.9000E+01
        1 -1    0    0  501    0 0.00000000E+00 0.00000000E+00 -.76013754E+03 0.76013761E+03 0.32000000E+00 0.0000E+00 0.9000E+01
       23  2    1    2    0    0 0.14225306E+03 -.11592430E+03 -.63241569E+02 0.21455131E+03 0.91424238E+02 0.0000E+00 0.0000E+00
      -24  1    1    2    0    0 -.44904511E+03 0.11771191E+03 -.11017458E+03 0.48384218E+03 0.80419002E+02 0.0000E+00 0.9000E+01
      -11  1    3    3    0    0 0.10784774E+03 -.92266499E+02 -.38897362E+01 0.14198370E+03 0.51099893E-03 0.0000E+00 0.9000E+01
       11  1    3    3    0    0 0.34405327E+02 -.23657804E+02 -.59351832E+02 0.72567611E+02 0.51099893E-03 0.0000E+00 0.9000E+01
       23  1    1    2    0    0 0.30679204E+03 -.17876082E+01 -.24524652E+03 0.40321913E+03 0.91188000E+02 0.0000E+00 0.9000E+01
#aMCatNLO 1  0  0  2  2 0.83779551D+02 0.00000000D+00  -5  7  0 0.00000000D+00 0.00000000D+00 0.00000000D+00 0.00000000D+00 0.00000000D+00
  <mgrwgt>
 0.1073313374D-01    4    2    0
 0.509478146887465D+03 0.000000000000000D+00 0.000000000000000D+00 0.509478146887465D+03
 0.509478146887465D+03 0.000000000000000D+00 0.000000000000000D+00 -.509478146887465D+03
 0.477822917436923D+03 -.449045108101077D+03 0.117711911260739D+03 0.796863935148110D+02
 0.151903029957102D+03 0.107847736142203D+03 -.922664990853574D+02 0.541321481716899D+02
 0.540680694299296D+02 0.344053269795823D+02 -.236578040009249D+02 -.343502244120987D+02
 0.335162276950976D+03 0.306792044979292D+03 -.178760817445655D+01 -.994683172744023D+02
 0.000000000000000D+00 -.000000000000000D+00 -.000000000000000D+00 0.000000000000000D+00
 0.891843448075904D+03 0.000000000000000D+00 0.000000000000000D+00 0.891843448075904D+03
 0.515807288518988D+03 0.000000000000000D+00 0.000000000000000D+00 -.515807288518988D+03
 0.444238514045477D+03 -.411577255654188D+03 0.123023911186940D+03 0.796863935148110D+02
 0.160130276839532D+03 0.120527171045770D+03 -.904688738446929D+02 0.541321481716899D+02
 0.567783041121750D+02 0.389095556853326D+02 -.230192175597497D+02 -.343502244120987D+02
 0.361247614406407D+03 0.335090574948150D+03 0.222441224542872D+01 -.994683172744023D+02
 0.385256027191301D+03 -.829500460250642D+02 -.117602320279259D+02 0.376036159556915D+03
0.120520018608D-02 0.000000000000D+00 0.000000000000D+00 0.222885203091D-08 0.000000000000D+00  7 -2 1 -24 -11 11 23 21 0 0.52534611D-01 0.11694425D+00 0.23759692D+06 0.23759692D+06 0.23759692D+06 0.10921255D+01  1  2  2  2  7  2        1 0.109325935365D-01 0.100000000000D+01
-.667963686966D-04 0.000000000000D+00 -.462828605106D-05 0.222885203091D-08 0.000000000000D+00  7 -2 1 -24 -11 11 23 21 2 0.52534611D-01 0.11694425D+00 0.23759692D+06 0.23759692D+06 0.23759692D+06 0.10921255D+01  1  2  3  2  7  2        1 -.722706534570D-03 0.100000000000D+01
0.766165187809D-04 0.000000000000D+00 0.000000000000D+00 0.222885203091D-08 0.000000000000D+00  7 -2 1 -24 -11 11 23 21 2 0.52534611D-01 0.11694425D+00 0.23759692D+06 0.23759692D+06 0.23759692D+06 0.10921255D+01  1  2 15  2  7  2        1 0.828956122307D-03 0.100000000000D+01
-.282552814271D-04 0.000000000000D+00 0.000000000000D+00 0.222885203091D-08 0.000000000000D+00  7 -2 1 -24 -11 11 23 21 2 0.52534611D-01 0.11694425D+00 0.23759692D+06 0.23759692D+06 0.23759692D+06 0.10921255D+01  1  2  4  2  7  2        1 -.305709380943D-03 0.100000000000D+01
  </mgrwgt>
  </event>
  <event>
  8     66 0.26562228E-05 0.36844519E+03 0.75467711E-02 0.94873273E-01
       -2 -1    0    0    0  501 0.00000000E+00 0.00000000E+00 0.43368505E+03 0.43368517E+03 0.32000000E+00 0.0000E+00 0.9000E+01
        1 -1    0    0  501    0 0.00000000E+00 0.00000000E+00 -.10262096E+04 0.10262097E+04 0.32000000E+00 0.0000E+00 0.9000E+01
       25  2    1    2    0    0 -.20223350E+03 0.24201211E+03 0.28757099E+03 0.52154327E+03 0.29973666E+03 0.0000E+00 0.0000E+00
       23  2    3    3    0    0 -.13027593E+03 0.51660467E+01 0.48556765E+02 0.16556996E+03 0.89761607E+02 0.0000E+00 0.0000E+00
      -24  1    1    2    0    0 0.20223350E+03 -.24201211E+03 -.88009558E+03 0.93835159E+03 0.80419002E+02 0.0000E+00 0.9000E+01
      -13  1    4    4    0    0 -.11397481E+03 -.21861452E+02 0.61635606E+02 0.13140449E+03 0.10565837E+00 0.0000E+00 0.9000E+01
       13  1    4    4    0    0 -.16301121E+02 0.27027498E+02 -.13078841E+02 0.34165472E+02 0.10565837E+00 0.0000E+00 0.9000E+01
       23  1    3    3    0    0 -.71957567E+02 0.23684606E+03 0.23901422E+03 0.35597331E+03 0.91188000E+02 0.0000E+00 0.9000E+01
#aMCatNLO 1  0  0  2  2 0.20815316D+03 0.00000000D+00  -5  7  0 0.00000000D+00 0.00000000D+00 0.00000000D+00 0.00000000D+00 0.00000000D+00
  <mgrwgt>
 0.1049843480D-02    4    2    0
 0.667122102508943D+03 0.000000000000000D+00 0.000000000000000D+00 0.667122102508943D+03
 0.667122102508943D+03 0.000000000000000D+00 0.000000000000000D+00 -.667122102508943D+03
 0.635877879687317D+03 0.202233497988095D+03 -.242012105102869D+03 -.546264784876752D+03
 0.171151282518273D+03 -.113974945387451D+03 -.218615195050398D+02 0.125795656906381D+03
 0.315745824142288D+02 -.163009857287752D+02 0.270275661810025D+02 0.861849891061233D+00
 0.495640460398067D+03 -.719575668718686D+02 0.236846058426906D+03 0.419607278079310D+03
 0.000000000000000D+00 -.000000000000000D+00 -.000000000000000D+00 0.000000000000000D+00
 0.889233200934452D+03 0.000000000000000D+00 0.000000000000000D+00 0.889233200934452D+03
 0.725798402633808D+03 0.000000000000000D+00 0.000000000000000D+00 -.725798402633808D+03
 0.648983096508216D+03 0.285242965824879D+03 -.186930679263744D+03 -.546264784876752D+03
 0.156519874000025D+03 -.928054890556183D+02 -.781440091262645D+01 0.125795656906381D+03
 0.321688326584116D+02 -.121827915729012D+02 0.297602183940477D+02 0.861849891061233D+00
 0.512711599924489D+03 -.681217801638054D+01 0.280073668463630D+03 0.419607278079310D+03
 0.264648200477117D+03 -.173442507179979D+03 -.115088806681306D+03 0.163434798300644D+03
0.371611869229D-03 0.000000000000D+00 0.000000000000D+00 0.126687800227D-04 0.000000000000D+00  7 -2 1 -24 -13 13 23 21 0 0.66720789D-01 0.15787842D+00 0.13575186D+06 0.13575186D+06 0.13575186D+06 0.11109888D+01  1  2  2  2  7  2        1 0.127953668118D-02 0.100000000000D+01
-.117979199754D-04 0.000000000000D+00 -.142708742549D-05 0.126687800227D-04 0.000000000000D+00  7 -2 1 -24 -13 13 23 21 2 0.66720789D-01 0.15787842D+00 0.13575186D+06 0.13575186D+06 0.13575186D+06 0.11109888D+01  1  2  3  2  7  2        1 -.501404202990D-04 0.100000000000D+01
0.226055069083D-04 0.000000000000D+00 0.000000000000D+00 0.126687800227D-04 0.000000000000D+00  7 -2 1 -24 -13 13 23 21 2 0.66720789D-01 0.15787842D+00 0.13575186D+06 0.13575186D+06 0.13575186D+06 0.11109888D+01  1  2 15  2  7  2        1 0.960719872504D-04 0.100000000000D+01
-.648538431422D-04 0.000000000000D+00 0.000000000000D+00 0.126687800227D-04 0.000000000000D+00  7 -2 1 -24 -13 13 23 21 2 0.66720789D-01 0.15787842D+00 0.13575186D+06 0.13575186D+06 0.13575186D+06 0.11109888D+01  1  2  4  2  7  2        1 -.275624767751D-03 0.100000000000D+01
  </mgrwgt>
  </event>
  <event>
  8     66 0.26562228E-05 0.39175426E+03 0.75467711E-02 0.92811461E-01
       -2 -1    0    0    0  501 0.00000000E+00 0.00000000E+00 0.61534204E+03 0.61534213E+03 0.32000000E+00 0.0000E+00 0.9000E+01
        1 -1    0    0  501    0 0.00000000E+00 0.00000000E+00 -.54418028E+03 0.54418037E+03 0.32000000E+00 0.0000E+00 0.9000E+01
       25  2    1    2    0    0 0.74175807E+02 0.52312516E+03 -.55479861E+02 0.61028002E+03 0.30033599E+03 0.0000E+00 0.0000E+00
       23  2    3    3    0    0 -.37440542E+02 0.42534215E+02 0.78531397E+01 0.10456055E+03 0.87523041E+02 0.0000E+00 0.0000E+00
      -24  1    1    2    0    0 -.74175807E+02 -.52312516E+03 0.12664163E+03 0.54924248E+03 0.80419002E+02 0.0000E+00 0.9000E+01
      -13  1    4    4    0    0 -.46482211E+02 -.12786684E+02 0.33791143E+01 0.48327268E+02 0.10565837E+00 0.0000E+00 0.9000E+01
       13  1    4    4    0    0 0.90416691E+01 0.55320899E+02 0.44740255E+01 0.56233280E+02 0.10565837E+00 0.0000E+00 0.9000E+01
       23  1    3    3    0    0 0.11161635E+03 0.48059094E+03 -.63333001E+02 0.50571947E+03 0.91188000E+02 0.0000E+00 0.9000E+01
#aMCatNLO 1  0  0  1  2 0.36216806D+02 0.00000000D+00  -5  7  0 0.00000000D+00 0.00000000D+00 0.00000000D+00 0.00000000D+00 0.00000000D+00
  <mgrwgt>
 0.1428220679D-02    6    2    0
 0.578668391711564D+03 0.000000000000000D+00 0.000000000000000D+00 0.578668391711564D+03
 0.578668391711564D+03 0.000000000000000D+00 0.000000000000000D+00 -.578668391711564D+03
 0.542492884564393D+03 -.741758065601257D+02 -.523125159460614D+03 0.931092428767850D+02
 0.482107528547365D+02 -.464822921818079D+02 -.127867834929571D+02 0.413971315146745D+00
 0.560643951751200D+02 0.904174995270019D+01 0.553209985940012D+02 0.102483106284604D+01
 0.510568750828879D+03 0.111616348789233D+03 0.480590944359569D+03 -.945480452547778D+02
 0.000000000000000D+00 -.000000000000000D+00 0.000000000000000D+00 -.000000000000000D+00
 0.595390934458133D+03 0.000000000000000D+00 0.000000000000000D+00 0.595390934458133D+03
 0.598898658033093D+03 0.000000000000000D+00 0.000000000000000D+00 -.598898658033093D+03
 0.555873115925796D+03 -.657296669542053D+02 -.538087339404751D+03 0.931092428767850D+02
 0.478677589427627D+02 -.457434742254904D+02 -.140955858244545D+02 0.413971315146745D+00
 0.547233725528959D+02 0.989367813733218D+01 0.538118235871127D+02 0.102483106284604D+01
 0.499439067763256D+03 0.119383037702668D+03 0.466832398738149D+03 -.945480452547778D+02
 0.363862773065148D+02 -.178035746603041D+02 0.315387029039440D+02 -.350772357496001D+01
0.216753538978D-03 0.000000000000D+00 0.000000000000D+00 0.150851179851D-05 0.000000000000D+00  7 -2 1 -24 -13 13 23 21 0 0.94668021D-01 0.83720056D-01 0.32515369D+06 0.32515369D+06 0.32515369D+06 0.10819743D+01  1  2  2  1  7  1       -2 0.889043777775D-03 0.100000000000D+01
-.120386981939D-04 0.000000000000D+00 -.832390662192D-06 0.150851179851D-05 0.000000000000D+00  7 -2 1 -24 -13 13 23 21 2 0.94668021D-01 0.83720056D-01 0.32515369D+06 0.32515369D+06 0.32515369D+06 0.10819743D+01  1  2  3  1  7  1       -2 -.578056565683D-04 0.100000000000D+01
0.137991428018D-04 0.000000000000D+00 0.000000000000D+00 0.150851179851D-05 0.000000000000D+00  7 -2 1 -24 -13 13 23 21 2 0.94668021D-01 0.83720056D-01 0.32515369D+06 0.32515369D+06 0.32515369D+06 0.10819743D+01  1  2 15  1  7  1       -2 0.662587014720D-04 0.100000000000D+01
0.396304412366D-03 0.000000000000D+00 0.000000000000D+00 0.150851179851D-05 0.000000000000D+00  7 -2 1 -24 -13 13 23 21 2 0.99006898D-01 0.83720056D-01 0.34646426D+06 0.34646426D+06 0.34646426D+06 0.10799552D+01  1  2 12  1  7  1       -2 0.169928089893D-02 0.100000000000D+01
-.279456245475D-03 0.000000000000D+00 0.000000000000D+00 0.150851179851D-05 0.000000000000D+00  7 -2 1 -24 -13 13 23 21 2 0.94668021D-01 0.83720056D-01 0.32515369D+06 0.32515369D+06 0.32515369D+06 0.10819743D+01  1  2  4  1  7  1       -2 -.134185204178D-02 0.100000000000D+01
0.440021091004D-05 0.000000000000D+00 0.000000000000D+00 0.150851179851D-05 0.000000000000D+00  7 21 1 -24 -13 13 23 2 2 0.99006898D-01 0.83720056D-01 0.34646426D+06 0.34646426D+06 0.34646426D+06 0.10799552D+01  1  2 12  3  7  1       -2 0.173294999660D-03 0.100000000000D+01
  </mgrwgt>
  </event>
  <event>
  8     66 0.26562228E-05 0.23684927E+03 0.75467711E-02 0.97786079E-01
       -2 -1    0    0    0  501 0.00000000E+00 0.00000000E+00 0.32771693E+03 0.32771708E+03 0.32000000E+00 0.0000E+00 0.9000E+01
        1 -1    0    0  501    0 0.00000000E+00 0.00000000E+00 -.95489083E+03 0.95489088E+03 0.32000000E+00 0.0000E+00 0.9000E+01
       25  2    1    2    0    0 -.20611593E+03 0.23065288E+03 -.80768877E+03 0.91554208E+03 0.30028589E+03 0.0000E+00 0.0000E+00
       23  2    3    3    0    0 -.12240740E+03 -.54629907E+01 -.19678278E+03 0.24899936E+03 0.90905443E+02 0.0000E+00 0.0000E+00
      -24  1    1    2    0    0 0.20611593E+03 -.23065288E+03 0.18051487E+03 0.36706588E+03 0.80419002E+02 0.0000E+00 0.9000E+01
      -13  1    4    4    0    0 -.93086786E+02 0.36045904E+02 -.11091723E+03 0.14922165E+03 0.10565837E+00 0.0000E+00 0.9000E+01
       13  1    4    4    0    0 -.29320616E+02 -.41508894E+02 -.85865557E+02 0.99777712E+02 0.10565837E+00 0.0000E+00 0.9000E+01
       23  1    3    3    0    0 -.83708532E+02 0.23611587E+03 -.61090598E+03 0.66654272E+03 0.91188000E+02 0.0000E+00 0.9000E+01
#aMCatNLO 1  0  0  1  2 0.25242240D+02 0.00000000D+00  -5  7  0 0.00000000D+00 0.00000000D+00 0.00000000D+00 0.00000000D+00 0.00000000D+00
  <mgrwgt>
 0.9057241906D-03    9    2    0
 0.559405058843981D+03 0.000000000000000D+00 0.000000000000000D+00 0.559405058843981D+03
 0.559405058843981D+03 0.000000000000000D+00 0.000000000000000D+00 -.559405058843981D+03
 0.521997280684967D+03 0.206115934087933D+03 -.230652882080324D+03 0.412709843341818D+03
 0.108891171709670D+03 -.930868724358261D+02 0.360460085008264D+02 -.435063986969673D+02
 0.662516239918101D+02 -.293205293733240D+02 -.415089992385995D+02 -.425039671210839D+02
 0.421670041301516D+03 -.837085322787832D+02 0.236115872818097D+03 -.326699477523767D+03
 0.000000000000000D+00 -.000000000000000D+00 0.000000000000000D+00 0.000000000000000D+00
 0.575905676446378D+03 0.000000000000000D+00 0.000000000000000D+00 0.575905676446378D+03
 0.569285169830103D+03 0.000000000000000D+00 0.000000000000000D+00 -.569285169830103D+03
 0.528972645676731D+03 0.215599815723649D+03 -.237764901927452D+03 0.412709843341818D+03
 0.106750733479837D+03 -.911409344472888D+02 0.345867379060059D+02 -.435063986969673D+02
 0.663011062582346D+02 -.281243824878138D+02 -.424059969781950D+02 -.425039671210839D+02
 0.417070349765936D+03 -.761397956361326D+02 0.230440031713385D+03 -.326699477523767D+03
 0.260960110957419D+02 -.201947031524137D+02 0.151441292862560D+02 0.662050661627492D+01
0.732648412810D-04 0.000000000000D+00 0.000000000000D+00 0.146479493065D-04 0.000000000000D+00  7 -2 1 -24 -13 13 23 21 0 0.50418005D-01 0.14690630D+00 0.13573684D+06 0.13573684D+06 0.13573684D+06 0.11109926D+01  1  2  2  1  7  1       -2 0.506574596507D-03 0.100000000000D+01
-.320708595286D-05 0.000000000000D+00 -.281356281595D-06 0.146479493065D-04 0.000000000000D+00  7 -2 1 -24 -13 13 23 21 2 0.50418005D-01 0.14690630D+00 0.13573684D+06 0.13573684D+06 0.13573684D+06 0.11109926D+01  1  2  3  1  7  1       -2 -.273703749044D-04 0.100000000000D+01
0.443547380705D-05 0.000000000000D+00 0.000000000000D+00 0.146479493065D-04 0.000000000000D+00  7 -2 1 -24 -13 13 23 21 2 0.50418005D-01 0.14690630D+00 0.13573684D+06 0.13573684D+06 0.13573684D+06 0.11109926D+01  1  2 15  1  7  1       -2 0.378538594732D-04 0.100000000000D+01
0.136408416847D-03 0.000000000000D+00 0.000000000000D+00 0.146479493065D-04 0.000000000000D+00  7 -2 1 -24 -13 13 23 21 2 0.52339864D-01 0.14690630D+00 0.14582860D+06 0.14582860D+06 0.14582860D+06 0.11085198D+01  1  2 12  1  7  1       -2 0.107350147142D-02 0.100000000000D+01
-.122165605673D-03 0.000000000000D+00 0.000000000000D+00 0.146479493065D-04 0.000000000000D+00  7 -2 1 -24 -13 13 23 21 2 0.50418005D-01 0.14690630D+00 0.13573684D+06 0.13573684D+06 0.13573684D+06 0.11109926D+01  1  2  4  1  7  1       -2 -.104260330931D-02 0.100000000000D+01
-.123187707485D-02 0.000000000000D+00 -.204879771574D-03 0.146479493065D-04 0.000000000000D+00  7 -2 1 -24 -13 13 23 21 2 0.52727035D-01 0.14690630D+00 0.13573684D+06 0.13573684D+06 0.13573684D+06 0.11109926D+01  1  2  5  1  7  1       -2 -.962074957316D-02 0.100000000000D+01
0.124001335663D-02 0.000000000000D+00 0.204674525945D-03 0.146479493065D-04 0.000000000000D+00  7 -2 1 -24 -13 13 23 21 2 0.50418005D-01 0.14690630D+00 0.13573684D+06 0.13573684D+06 0.13573684D+06 0.11109926D+01  1  2  6  1  7  1       -2 0.105827006062D-01 0.100000000000D+01
0.220324803672D-05 0.000000000000D+00 0.000000000000D+00 0.146479493065D-04 0.000000000000D+00  7 21 1 -24 -13 13 23 2 2 0.52339864D-01 0.14690630D+00 0.14582860D+06 0.14582860D+06 0.14582860D+06 0.11085198D+01  1  2 12  3  7  1       -2 0.183135910396D-03 0.100000000000D+01
-.953701645664D-05 0.000000000000D+00 -.161036207670D-05 0.146479493065D-04 0.000000000000D+00  7 21 1 -24 -13 13 23 2 2 0.52727035D-01 0.14690630D+00 0.13573684D+06 0.13573684D+06 0.13573684D+06 0.11109926D+01  1  2  5  3  7  1       -2 -.787318996001D-03 0.100000000000D+01
  </mgrwgt>
  </event>
  <event>
  8     66 0.26562228E-05 0.18237363E+03 0.75467711E-02 0.10751238E+00
       -4 -1    0    0    0  501 0.00000000E+00 0.00000000E+00 0.84728398E+02 0.84742575E+02 0.15500000E+01 0.0000E+00 0.9000E+01
        3 -1    0    0  501    0 0.00000000E+00 0.00000000E+00 -.50589430E+03 0.50589455E+03 0.50000000E+00 0.0000E+00 0.9000E+01
       25  2    1    2    0    0 -.49585627E+02 0.36863313E+02 -.27754293E+03 0.41481786E+03 0.30203666E+03 0.0000E+00 0.0000E+00
       23  2    3    3    0    0 -.34326933E+02 -.75679318E+02 -.23040230E+03 0.26172912E+03 0.92256259E+02 0.0000E+00 0.0000E+00
      -24  1    1    2    0    0 0.49585627E+02 -.36863313E+02 -.14362297E+03 0.17581926E+03 0.80419002E+02 0.0000E+00 0.9000E+01
      -13  1    4    4    0    0 -.62039469E+02 -.47272935E+02 -.10919837E+03 0.13419360E+03 0.10565837E+00 0.0000E+00 0.9000E+01
       13  1    4    4    0    0 0.27712536E+02 -.28406383E+02 -.12120393E+03 0.12753552E+03 0.10565837E+00 0.0000E+00 0.9000E+01
       23  1    3    3    0    0 -.15258693E+02 0.11254263E+03 -.47140632E+02 0.15308874E+03 0.91188000E+02 0.0000E+00 0.9000E+01
#aMCatNLO 1  0  0  2  2 0.40318327D+01 0.00000000D+00  -5  7  0 0.00000000D+00 0.00000000D+00 0.00000000D+00 0.00000000D+00 0.00000000D+00
  <mgrwgt>
 0.1033157082D-03    6    2    0
 0.207045582611041D+03 0.000000000000000D+00 0.000000000000000D+00 0.207045582611041D+03
 0.207045582611041D+03 0.000000000000000D+00 0.000000000000000D+00 -.207045582611041D+03
 0.104702816502702D+03 0.495862621776013D+02 -.368637858872156D+02 -.260332042312039D+02
 0.803423739614835D+02 -.620397378832961D+02 -.472726999889316D+02 -.192681035106013D+02
 0.586346385325457D+02 0.277125631440719D+02 -.284060421361562D+02 -.431640064172342D+02
 0.170411336225351D+03 -.152590874383771D+02 0.112542528012303D+03 0.884653141590394D+02
 0.000000000000000D+00 0.000000000000000D+00 -.000000000000000D+00 0.000000000000000D+00
 0.211291041273696D+03 0.000000000000000D+00 0.000000000000000D+00 0.211291041273696D+03
 0.208014853356879D+03 0.000000000000000D+00 0.000000000000000D+00 -.208014853356879D+03
 0.104178994444564D+03 0.485796473241542D+02 -.367197095907256D+02 -.260332042312039D+02
 0.808789290041984D+02 -.628166736898241D+02 -.471614975431980D+02 -.192681035106013D+02
 0.583311271256840D+02 0.271488976122459D+02 -.283253649615582D+02 -.431640064172342D+02
 0.170721742317730D+03 -.169030296385445D+02 0.112777824663284D+03 0.884653141590394D+02
 0.519510173839793D+01 0.399115839196853D+01 -.571252567802477D+00 0.327618791681788D+01
0.342797685692D-05 0.000000000000D+00 0.000000000000D+00 0.295230010288D-07 0.000000000000D+00  7 -4 3 -24 -13 13 23 21 0 0.13036248D-01 0.77831002D-01 0.33260142D+05 0.33260142D+05 0.33260142D+05 0.11632017D+01  1  2  2  2  7  2        3 0.881365792173D-04 0.100000000000D+01
-.186715439166D-06 0.000000000000D+00 -.131643337376D-07 0.295230010288D-07 0.000000000000D+00  7 -4 3 -24 -13 13 23 21 2 0.13036248D-01 0.77831002D-01 0.33260142D+05 0.33260142D+05 0.33260142D+05 0.11632017D+01  1  2  3  2  7  2        3 -.649544056993D-05 0.100000000000D+01
0.220271068916D-06 0.000000000000D+00 0.000000000000D+00 0.295230010288D-07 0.000000000000D+00  7 -4 3 -24 -13 13 23 21 2 0.13036248D-01 0.77831002D-01 0.33260142D+05 0.33260142D+05 0.33260142D+05 0.11632017D+01  1  2 15  2  7  2        3 0.766277091927D-05 0.100000000000D+01
-.580672141874D-05 0.000000000000D+00 0.000000000000D+00 0.295230010288D-07 0.000000000000D+00  7 -4 3 -24 -13 13 23 21 2 0.13036248D-01 0.77831002D-01 0.33260142D+05 0.33260142D+05 0.33260142D+05 0.11632017D+01  1  2  4  2  7  2        3 -.202003723153D-03 0.100000000000D+01
0.573979535858D-05 0.000000000000D+00 0.000000000000D+00 0.295230010288D-07 0.130891439938D-07  7 -4 3 -24 -13 13 23 21 2 0.13303555D-01 0.78195363D-01 0.33985660D+05 0.33985660D+05 0.33985660D+05 0.11623426D+01  1  2 11  2  7  2        3 0.190757604215D-03 0.100000000000D+01
0.506710085699D-07 0.000000000000D+00 0.000000000000D+00 0.295230010288D-07 0.114854198421D-10  7 -4 21 -24 -13 13 23 -3 2 0.13303555D-01 0.78195363D-01 0.33985660D+05 0.33985660D+05 0.33985660D+05 0.11623426D+01  1  2 11  4  7  2        3 0.252579175370D-04 0.100000000000D+01
  </mgrwgt>
  </event>
  <event>
  8     66 0.26562228E-05 0.39281136E+03 0.75467711E-02 0.95742884E-01
       -2 -1    0    0    0  501 0.00000000E+00 0.00000000E+00 0.53518918E+03 0.53518928E+03 0.32000000E+00 0.0000E+00 0.9000E+01
        1 -1    0    0  501    0 0.00000000E+00 0.00000000E+00 -.14816981E+04 0.14816981E+04 0.32000000E+00 0.0000E+00 0.9000E+01
       25  2    1    2    0    0 0.41520334E+02 0.36202897E+03 0.40071567E+03 0.61893526E+03 0.29953111E+03 0.0000E+00 0.0000E+00
       23  2    3    3    0    0 -.14105722E+02 0.13206404E+03 0.21120028E+02 0.16244185E+03 0.91112100E+02 0.0000E+00 0.0000E+00
      -24  1    1    2    0    0 -.41520334E+02 -.36202897E+03 -.13472246E+04 0.13979522E+04 0.80419002E+02 0.0000E+00 0.9000E+01
      -13  1    4    4    0    0 -.47584092E+02 0.10689179E+03 0.36592206E+01 0.11706195E+03 0.10565837E+00 0.0000E+00 0.9000E+01
       13  1    4    4    0    0 0.33478369E+02 0.25172258E+02 0.17460807E+02 0.45379893E+02 0.10565837E+00 0.0000E+00 0.9000E+01
       23  1    3    3    0    0 0.55626056E+02 0.22996493E+03 0.37959565E+03 0.45649341E+03 0.91188000E+02 0.0000E+00 0.9000E+01
#aMCatNLO 1  0  0  2  2 0.11325942D+03 0.00000000D+00  -5  7  0 0.00000000D+00 0.00000000D+00 0.00000000D+00 0.00000000D+00 0.00000000D+00
  <mgrwgt>
 0.1166458054D-02    4    2    0
 0.890499258658280D+03 0.000000000000000D+00 0.000000000000000D+00 0.890499258658280D+03
 0.890499258658280D+03 0.000000000000000D+00 0.000000000000000D+00 -.890499258658280D+03
 0.867127069675871D+03 -.415203338541504D+02 -.362028974047195D+03 -.782721676483581D+03
 0.134511309581748D+03 -.475842007143386D+02 0.106891896678221D+03 0.663563009239282D+02
 0.606697693243532D+02 0.334784784413941D+02 0.251721477882077D+02 0.438904928982117D+02
 0.718690368734589D+03 0.556260561270949D+02 0.229964929580766D+03 0.672474882661441D+03
 0.000000000000000D+00 -.000000000000000D+00 0.000000000000000D+00 0.000000000000000D+00
 0.104174779533327D+04 0.000000000000000D+00 0.000000000000000D+00 0.104174779533327D+04
 0.913756290039272D+03 0.000000000000000D+00 0.000000000000000D+00 -.913756290039272D+03
 0.887632147186965D+03 -.141294936405104D+02 -.410573680765788D+03 -.782721676483581D+03
 0.127375780088173D+03 -.434962851996456D+02 0.996468958603072D+02 0.663563009239282D+02
 0.604443788468195D+02 0.353690046448117D+02 0.218215736775595D+02 0.438904928982117D+02
 0.709143843119886D+03 0.779137742212018D+02 0.190464471403279D+03 0.672474882661441D+03
 0.170907936130696D+03 -.556570000258575D+02 0.986407398246425D+02 0.127991505293995D+03
0.139616962948D-02 0.000000000000D+00 0.000000000000D+00 0.427323977343D-04 0.000000000000D+00  7 -2 1 -24 -13 13 23 21 0 0.82336807D-01 0.22795357D+00 0.15430076D+06 0.15430076D+06 0.15430076D+06 0.11065844D+01  1  2  2  2  7  2        1 0.144954771980D-02 0.100000000000D+01
-.143915523805D-04 0.000000000000D+00 -.536165899711D-05 0.427323977343D-04 0.000000000000D+00  7 -2 1 -24 -13 13 23 21 2 0.82336807D-01 0.22795357D+00 0.15430076D+06 0.15430076D+06 0.15430076D+06 0.11065844D+01  1  2  3  2  7  2        1 -.182966275805D-04 0.100000000000D+01
0.863291730842D-04 0.000000000000D+00 0.000000000000D+00 0.427323977343D-04 0.000000000000D+00  7 -2 1 -24 -13 13 23 21 2 0.82336807D-01 0.22795357D+00 0.15430076D+06 0.15430076D+06 0.15430076D+06 0.11065844D+01  1  2 15  2  7  2        1 0.109754159071D-03 0.100000000000D+01
-.294607057406D-03 0.000000000000D+00 0.000000000000D+00 0.427323977343D-04 0.000000000000D+00  7 -2 1 -24 -13 13 23 21 2 0.82336807D-01 0.22795357D+00 0.15430076D+06 0.15430076D+06 0.15430076D+06 0.11065844D+01  1  2  4  2  7  2        1 -.374547197510D-03 0.100000000000D+01
  </mgrwgt>
  </event>
  <event>
  8     66 0.26562228E-05 0.26996923E+03 0.75467711E-02 0.93936931E-01
       -2 -1    0    0    0  501 0.00000000E+00 0.00000000E+00 0.69357232E+02 0.69357970E+02 0.32000000E+00 0.0000E+00 0.9000E+01
        1 -1    0    0  501    0 0.00000000E+00 0.00000000E+00 -.13703106E+04 0.13703106E+04 0.32000000E+00 0.0000E+00 0.9000E+01
       25  2    1    2    0    0 -.27146334E+02 -.18806281E+03 -.50445926E+03 0.61688392E+03 0.29993681E+03 0.0000E+00 0.0000E+00
       23  2    3    3    0    0 0.35903132E+02 0.33546674E+02 -.17614114E+03 0.20555190E+03 0.93869413E+02 0.0000E+00 0.0000E+00
      -24  1    1    2    0    0 0.27146334E+02 0.18806281E+03 -.79649406E+03 0.82278463E+03 0.80419002E+02 0.0000E+00 0.9000E+01
      -13  1    4    4    0    0 0.10015621E+02 0.52681168E+02 -.43469595E+02 0.69030681E+02 0.10565837E+00 0.0000E+00 0.9000E+01
       13  1    4    4    0    0 0.25887511E+02 -.19134493E+02 -.13267155E+03 0.13652122E+03 0.10565837E+00 0.0000E+00 0.9000E+01
       23  1    3    3    0    0 -.63049466E+02 -.22160949E+03 -.32831811E+03 0.41133202E+03 0.91188000E+02 0.0000E+00 0.9000E+01
#aMCatNLO 1  0  0  2  2 0.39921726D+03 0.00000000D+00  -5  7  0 0.00000000D+00 0.00000000D+00 0.00000000D+00 0.00000000D+00 0.00000000D+00
  <mgrwgt>
 0.9201704101D-03    5    2    0
 0.308288022168980D+03 0.000000000000000D+00 0.000000000000000D+00 0.308288022168980D+03
 0.308288022168980D+03 0.000000000000000D+00 0.000000000000000D+00 -.308288022168980D+03
 0.240579525822037D+03 0.271463338447540D+02 0.188062813014431D+03 -.123720439743293D+03
 0.694633061400378D+02 0.100156031607565D+02 0.526812588976009D+02 0.441534093156440D+02
 0.388367149754706D+02 0.258875302103365D+02 -.191345803467829D+02 -.217254239233064D+02
 0.267696497400416D+03 -.630494672158470D+02 -.221609491565249D+03 0.101292454350956D+03
 0.000000000000000D+00 0.000000000000000D+00 0.000000000000000D+00 -.000000000000000D+00
 0.518082279326553D+03 0.000000000000000D+00 0.000000000000000D+00 0.518082279326553D+03
 0.631455349327439D+03 0.000000000000000D+00 0.000000000000000D+00 -.631455349327439D+03
 0.248693926785834D+03 -.115339662023597D+03 0.163619890049455D+03 -.123720439743293D+03
 0.705937974521922D+02 -.307717638574365D+02 0.456843434190369D+02 0.441534093156440D+02
 0.318411412901936D+02 0.530475654424822D+01 -.226654757730994D+02 -.217254239233064D+02
 0.383405299794772D+03 -.252663041160114D+03 -.254136968758977D+03 0.101292454350956D+03
 0.415003463331000D+03 0.393469710496900D+03 0.674982110635842D+02 -.113373070000886D+03
0.179833269745D-04 0.000000000000D+00 0.000000000000D+00 0.688464371068D-06 0.000000000000D+00  7 -2 1 -24 -13 13 23 21 0 0.10670403D-01 0.21081707D+00 0.72883383D+05 0.72883383D+05 0.72883383D+05 0.11331724D+01  1  2  2  2  7  2        1 0.908853644588D-03 0.100000000000D+01
-.977674675988D-06 0.000000000000D+00 -.690607107010D-07 0.688464371068D-06 0.000000000000D+00  7 -2 1 -24 -13 13 23 21 2 0.10670403D-01 0.21081707D+00 0.72883383D+05 0.72883383D+05 0.72883383D+05 0.11331724D+01  1  2  3  2  7  2        1 -.634468734153D-04 0.100000000000D+01
0.116604608728D-05 0.000000000000D+00 0.000000000000D+00 0.688464371068D-06 0.000000000000D+00  7 -2 1 -24 -13 13 23 21 2 0.10670403D-01 0.21081707D+00 0.72883383D+05 0.72883383D+05 0.72883383D+05 0.11331724D+01  1  2 15  2  7  2        1 0.756713662662D-04 0.100000000000D+01
-.391201438010D-06 0.000000000000D+00 -.486790783538D-05 0.688464371068D-06 0.000000000000D+00  7 -2 1 -24 -13 13 23 21 2 0.10670403D-01 0.52236647D+00 0.72883383D+05 0.72883383D+05 0.72883383D+05 0.11331724D+01  1  2  5  2  7  2        1 -.101697758332D-05 0.100000000000D+01
0.263176533825D-06 0.000000000000D+00 -.485532412761D-06 0.688464371068D-06 0.000000000000D+00  7 -2 21 -24 -13 13 23 -1 2 0.10670403D-01 0.52236647D+00 0.72883383D+05 0.72883383D+05 0.72883383D+05 0.11331724D+01  1  2  5  4  7  2        1 0.109250216309D-06 0.100000000000D+01
  </mgrwgt>
  </event>
  <event>
  9     66 0.26562228E-05 0.43749606E+03 0.75467711E-02 0.91635766E-01
       21 -1    0    0  502  501 0.00000000E+00 0.00000000E+00 0.17742414E+04 0.17742416E+04 0.75000000E+00 0.0000E+00 0.9000E+01
        1 -1    0    0  501    0 0.00000000E+00 0.00000000E+00 -.72682983E+03 0.72682990E+03 0.32000000E+00 0.0000E+00 0.9000E+01
       25  2    1    2    0    0 -.50183458E+02 0.60405664E+03 -.47490953E+03 0.82775117E+03 0.30369416E+03 0.0000E+00 0.0000E+00
       23  2    3    3    0    0 -.20950971E+02 0.56419272E+03 -.37796091E+03 0.68577246E+03 0.93150621E+02 0.0000E+00 0.0000E+00
      -24  1    1    2    0    0 0.10317494E+03 -.21575737E+03 0.31272015E+03 0.40181765E+03 0.80419002E+02 0.0000E+00 0.9000E+01
      -13  1    4    4    0    0 0.57282433E+01 0.16528517E+03 -.63628968E+02 0.17720230E+03 0.10565837E+00 0.0000E+00 0.9000E+01
       13  1    4    4    0    0 -.26679215E+02 0.39890756E+03 -.31433194E+03 0.50857015E+03 0.10565837E+00 0.0000E+00 0.9000E+01
       23  1    3    3    0    0 -.29232486E+02 0.39863912E+02 -.96948621E+02 0.14197872E+03 0.91188000E+02 0.0000E+00 0.9000E+01
        2  1    1    2  502    0 -.52991486E+02 -.38829926E+03 0.12096010E+04 0.12715027E+04 0.32000000E+00 0.0000E+00 0.9000E+01
#aMCatNLO 2  0  0  1  2 0.39189848D+03 0.00000000D+00  -5  7  0 0.00000000D+00 0.00000000D+00 0.00000000D+00 0.00000000D+00 0.00000000D+00
  <mgrwgt>
 0.1135566732D-03    2    2    0
 0.577050621367985D+03 0.000000000000000D+00 0.000000000000000D+00 0.577050621367985D+03
 0.577050621367985D+03 0.000000000000000D+00 0.000000000000000D+00 -.577050621367985D+03
 0.539894901681403D+03 0.811364911273027D+02 -.377245857795863D+03 0.368946773248682D+03
 0.123973931573308D+03 -.843282823934501D+00 0.117131188321469D+03 -.406092268606868D+02
 0.364664124519475D+03 -.453460935023287D+02 0.262125146099585D+03 -.249427471016935D+03
 0.125568284961784D+03 -.349471148010394D+02 -.201047662519063D+01 -.789100753710595D+02
 0.000000000000000D+00 -.000000000000000D+00 -.000000000000000D+00 0.000000000000000D+00
 0.202598025758998D+04 0.000000000000000D+00 0.000000000000000D+00 0.202598025758998D+04
 0.636517465042820D+03 0.000000000000000D+00 0.000000000000000D+00 -.636517465042820D+03
 0.446973432843393D+03 0.103174943473525D+03 -.215757371280932D+03 0.368946773248682D+03
 0.170296827376991D+03 0.572828490311763D+01 0.165284865793922D+03 -.406092268606868D+02
 0.471225342556254D+03 -.266792566585585D+02 0.398907855818234D+03 -.249427471016935D+03
 0.130329280051573D+03 -.292324859141203D+02 0.398639143458827D+02 -.789100753710595D+02
 0.144367283980458D+04 -.529914858039639D+02 -.388299264677107D+03 0.138946279254716D+04
-.127918203937D-05 0.000000000000D+00 0.000000000000D+00 0.121609840730D-06 0.000000000000D+00  7 21 1 -24 -13 13 23 2 2 0.26472426D+00 0.10137317D+00 0.43107310D+06 0.43107310D+06 0.43107310D+06 0.10730932D+01  1  2 13  3  7  1       -2 -.161825710141D-05 0.100000000000D+01
0.120230510207D-03 0.000000000000D+00 0.000000000000D+00 0.121609840730D-06 0.192032911265D-11  7 21 1 -24 -13 13 23 2 2 0.27296023D+00 0.11181999D+00 0.43107310D+06 0.43107310D+06 0.43107310D+06 0.10730932D+01  1  2  1  3  7  1       -2 0.115174930328D-03 0.100000000000D+01
  </mgrwgt>
  </event>
  <event>
  8     66 0.26562228E-05 0.58127494E+02 0.75467711E-02 0.10387412E+00
       -2 -1    0    0    0  501 0.00000000E+00 0.00000000E+00 0.13772510E+03 0.13772547E+03 0.32000000E+00 0.0000E+00 0.9000E+01
        1 -1    0    0  501    0 0.00000000E+00 0.00000000E+00 -.95975803E+03 0.95975809E+03 0.32000000E+00 0.0000E+00 0.9000E+01
       25  2    1    2    0    0 -.44874526E+01 -.38034850E+02 -.34365122E+02 0.30479536E+03 0.30042048E+03 0.0000E+00 0.0000E+00
       23  2    3    3    0    0 -.10875431E+03 0.22735051E+02 -.56045369E+02 0.15198881E+03 0.87264716E+02 0.0000E+00 0.0000E+00
      -24  1    1    2    0    0 0.44874526E+01 0.38034850E+02 -.78766781E+03 0.79268820E+03 0.80419002E+02 0.0000E+00 0.9000E+01
      -11  1    4    4    0    0 -.34303494E+02 -.24218594E+02 -.47736750E+02 0.63577255E+02 0.51099893E-03 0.0000E+00 0.9000E+01
       11  1    4    4    0    0 -.74450820E+02 0.46953645E+02 -.83086189E+01 0.88411552E+02 0.51099893E-03 0.0000E+00 0.9000E+01
       23  1    3    3    0    0 0.10426686E+03 -.60769900E+02 0.21680247E+02 0.15280656E+03 0.91188000E+02 0.0000E+00 0.9000E+01
#aMCatNLO 1  0  0  2  1 0.91977492D+02 0.00000000D+00  -5  7  0 0.00000000D+00 0.00000000D+00 0.00000000D+00 0.00000000D+00 0.00000000D+00
  <mgrwgt>
 0.8613671801D-03    6    2    0
 0.363569810858020D+03 0.000000000000000D+00 0.000000000000000D+00 0.363569810858020D+03
 0.363569810858020D+03 0.000000000000000D+00 0.000000000000000D+00 -.363569810858020D+03
 0.305956907934195D+03 0.448745259209657D+01 0.380348495054816D+02 -.292703991347252D+03
 0.419916759005446D+02 -.343034941463426D+02 -.242185939151732D+02 -.175621923892521D+00
 0.124048069834390D+03 -.744508200547518D+02 0.469536447415776D+02 0.874091200521689D+02
 0.255142968046909D+03 0.104266861608998D+03 -.607699003318860D+02 0.205470493218975D+03
 0.000000000000000D+00 -.000000000000000D+00 0.000000000000000D+00 0.000000000000000D+00
 0.417142190902684D+03 0.000000000000000D+00 0.000000000000000D+00 0.417142190902684D+03
 0.408202480323783D+03 0.000000000000000D+00 0.000000000000000D+00 -.408202480323783D+03
 0.307098491604466D+03 0.402312283334648D+02 0.234113072581670D+02 -.292703991347252D+03
 0.394702631440282D+02 -.295539115101610D+02 -.261617496366021D+02 -.175621923892521D+00
 0.114071389773783D+03 -.605674278355570D+02 0.412736523948692D+02 0.874091200521689D+02
 0.272293610031561D+03 0.135018690528242D+03 -.733511304916950D+02 0.205470493218975D+03
 0.924109166726290D+02 -.851285795159884D+02 0.348279204752610D+02 0.893971057890130D+01
0.341175622431D-04 0.000000000000D+00 0.000000000000D+00 0.459559701270D-06 0.000000000000D+00  7 -2 1 -24 -11 11 23 21 0 0.21188510D-01 0.14765511D+00 0.34288918D+05 0.34288918D+05 0.34288918D+05 0.11619896D+01  1  2  2  2  7  2        1 0.113925587034D-02 0.100000000000D+01
-.846394783340D-06 0.000000000000D+00 -.131020422374D-06 0.459559701270D-06 0.000000000000D+00  7 -2 1 -24 -11 11 23 21 2 0.21188510D-01 0.14765511D+00 0.34288918D+05 0.34288918D+05 0.34288918D+05 0.11619896D+01  1  2  3  2  7  2        1 -.381610846309D-04 0.100000000000D+01
0.213013796211D-05 0.000000000000D+00 0.000000000000D+00 0.459559701270D-06 0.000000000000D+00  7 -2 1 -24 -11 11 23 21 2 0.21188510D-01 0.14765511D+00 0.34288918D+05 0.34288918D+05 0.34288918D+05 0.11619896D+01  1  2 15  2  7  2        1 0.960407325843D-04 0.100000000000D+01
0.153492344296D-04 0.000000000000D+00 0.000000000000D+00 0.459559701270D-06 0.000000000000D+00  7 -2 1 -24 -11 11 23 21 2 0.21188510D-01 0.17531023D+00 0.56724224D+05 0.56724224D+05 0.56724224D+05 0.11425063D+01  1  2 12  2  7  2        1 0.490478977244D-03 0.100000000000D+01
-.186588447083D-04 0.000000000000D+00 0.000000000000D+00 0.459559701270D-06 0.000000000000D+00  7 -2 1 -24 -11 11 23 21 2 0.21188510D-01 0.14765511D+00 0.34288918D+05 0.34288918D+05 0.34288918D+05 0.11619896D+01  1  2  4  2  7  2        1 -.841264343831D-03 0.100000000000D+01
0.390033814190D-06 0.000000000000D+00 0.000000000000D+00 0.459559701270D-06 0.000000000000D+00  7 -2 21 -24 -11 11 23 -1 2 0.21188510D-01 0.17531023D+00 0.56724224D+05 0.56724224D+05 0.56724224D+05 0.11425063D+01  1  2 12  4  7  2        1 0.150170283511D-04 0.100000000000D+01
  </mgrwgt>
  </event>
  <event>
  8     66 0.26562228E-05 0.33771454E+03 0.75467711E-02 0.97590929E-01
       -2 -1    0    0    0  501 0.00000000E+00 0.00000000E+00 0.57173227E+02 0.57174123E+02 0.32000000E+00 0.0000E+00 0.9000E+01
        1 -1    0    0  501    0 0.00000000E+00 0.00000000E+00 -.25430999E+04 0.25430999E+04 0.32000000E+00 0.0000E+00 0.9000E+01
       25  2    1    2    0    0 -.25411925E+03 -.17218949E+03 -.11600335E+04 0.12369378E+04 0.30018589E+03 0.0000E+00 0.0000E+00
       23  2    3    3    0    0 -.19773992E+03 -.14436492E+03 -.10456311E+04 0.10777021E+04 0.90306028E+02 0.0000E+00 0.0000E+00
      -24  1    1    2    0    0 0.25411925E+03 0.17218949E+03 -.13258932E+04 0.13633363E+04 0.80419002E+02 0.0000E+00 0.9000E+01
      -13  1    4    4    0    0 -.25993317E+01 -.10218983E+02 -.75870986E+01 0.12990742E+02 0.10565837E+00 0.0000E+00 0.9000E+01
       13  1    4    4    0    0 -.19514059E+03 -.13414594E+03 -.10380440E+04 0.10647114E+04 0.10565837E+00 0.0000E+00 0.9000E+01
       23  1    3    3    0    0 -.56379325E+02 -.27824575E+02 -.11440240E+03 0.15923566E+03 0.91188000E+02 0.0000E+00 0.9000E+01
#aMCatNLO 1  0  0  1  1 0.97157004D+02 0.00000000D+00  -5  7  0 0.00000000D+00 0.00000000D+00 0.00000000D+00 0.00000000D+00 0.00000000D+00
  <mgrwgt>
 0.1748201009D-02    4    2    0
 0.381311446662452D+03 0.000000000000000D+00 0.000000000000000D+00 0.381311446662452D+03
 0.381311446662452D+03 0.000000000000000D+00 0.000000000000000D+00 -.381311446662452D+03
 0.326471531440232D+03 0.254119245328360D+03 0.172189494510105D+03 -.767504529019821D+02
 0.195618054605235D+02 -.259906814768049D+01 -.102188134670894D+02 0.164767997185107D+02
 0.246570559533143D+03 -.195140851695700D+03 -.134146106119607D+03 -.687161628797124D+02
 0.170018996891005D+03 -.563793254849798D+02 -.278245749234084D+02 0.128989816063184D+03
 0.000000000000000D+00 -.000000000000000D+00 -.000000000000000D+00 -.000000000000000D+00
 0.405278980279023D+03 0.000000000000000D+00 0.000000000000000D+00 0.405278980279023D+03
 0.497383872388156D+03 0.000000000000000D+00 0.000000000000000D+00 -.497383872388156D+03
 0.352471773269881D+03 0.256044159968594D+03 0.215220563894255D+03 -.767504529019821D+02
 0.184045563068824D+02 -.249142734012629D+01 -.781252543664101D+01 0.164767997185107D+02
 0.230379550436034D+03 -.193788620599271D+03 -.103917259126816D+03 -.687161628797124D+02
 0.167530931008105D+03 -.554223165660974D+02 -.643083811611612D+01 0.128989816063184D+03
 0.133876041646277D+03 -.434179546309979D+01 -.970599412146812D+02 -.921048921091326D+02
0.176186803025D-03 0.000000000000D+00 0.000000000000D+00 0.492588796200D-05 0.000000000000D+00  7 -2 1 -24 -13 13 23 21 0 0.87959516D-02 0.39124621D+00 0.11405111D+06 0.11405111D+06 0.11405111D+06 0.11170663D+01  1  2  2  1  7  1       -2 0.198227918351D-02 0.100000000000D+01
-.961271490740D-05 0.000000000000D+00 -.676603714667D-06 0.492588796200D-05 0.000000000000D+00  7 -2 1 -24 -13 13 23 21 2 0.87959516D-02 0.39124621D+00 0.11405111D+06 0.11405111D+06 0.11405111D+06 0.11170663D+01  1  2  3  1  7  1       -2 -.134956990217D-03 0.100000000000D+01
0.112034028609D-04 0.000000000000D+00 0.000000000000D+00 0.492588796200D-05 0.000000000000D+00  7 -2 1 -24 -13 13 23 21 2 0.87959516D-02 0.39124621D+00 0.11405111D+06 0.11405111D+06 0.11405111D+06 0.11170663D+01  1  2 15  1  7  1       -2 0.157289334476D-03 0.100000000000D+01
-.182636053731D-04 0.000000000000D+00 0.000000000000D+00 0.492588796200D-05 0.000000000000D+00  7 -2 1 -24 -13 13 23 21 2 0.87959516D-02 0.39124621D+00 0.11405111D+06 0.11405111D+06 0.11405111D+06 0.11170663D+01  1  2  4  1  7  1       -2 -.256410518299D-03 0.100000000000D+01
  </mgrwgt>
  </event>
  <event>
  8     66 0.26562228E-05 0.28133582E+03 0.75467711E-02 0.95632814E-01
       -4 -1    0    0    0  501 0.00000000E+00 0.00000000E+00 0.14321925E+03 0.14322763E+03 0.15500000E+01 0.0000E+00 0.9000E+01
        3 -1    0    0  501    0 0.00000000E+00 0.00000000E+00 -.90353673E+03 0.90353687E+03 0.50000000E+00 0.0000E+00 0.9000E+01
       25  2    1    2    0    0 -.94530216E+02 -.20941005E+03 -.70109478E+03 0.79623891E+03 0.29945614E+03 0.0000E+00 0.0000E+00
       23  2    3    3    0    0 -.10371926E+03 -.20198357E+03 -.63764379E+03 0.68452109E+03 0.10210031E+03 0.0000E+00 0.0000E+00
      -24  1    1    2    0    0 0.94530216E+02 0.20941005E+03 -.59222709E+02 0.25052560E+03 0.80419002E+02 0.0000E+00 0.9000E+01
      -11  1    4    4    0    0 -.13519350E+02 -.19377423E+02 -.11877798E+02 0.26445026E+02 0.51099893E-03 0.0000E+00 0.9000E+01
       11  1    4    4    0    0 -.90199915E+02 -.18260615E+03 -.62576600E+03 0.65807607E+03 0.51099893E-03 0.0000E+00 0.9000E+01
       23  1    3    3    0    0 0.91890485E+01 -.74264777E+01 -.63450987E+02 0.11171782E+03 0.91188000E+02 0.0000E+00 0.9000E+01
#aMCatNLO 1  0  0  1  1 0.28646769D+03 0.00000000D+00  -5  7  0 0.00000000D+00 0.00000000D+00 0.00000000D+00 0.00000000D+00 0.00000000D+00
  <mgrwgt>
 0.9267282678D-04    5    2    0
 0.359733668160451D+03 0.000000000000000D+00 0.000000000000000D+00 0.359733668160451D+03
 0.359733668160451D+03 0.000000000000000D+00 0.000000000000000D+00 -.359733668160451D+03
 0.301908413348190D+03 0.945302160604294D+02 0.209410047543676D+03 0.178585957833685D+03
 0.259230915125760D+02 -.135193498312670D+02 -.193774228845492D+02 0.106653333779380D+02
 0.296149427362721D+03 -.901999148070003D+02 -.182606146967975D+03 -.214996404122460D+03
 0.954864040974146D+02 0.918904857783790D+01 -.742647769115118D+01 0.257451129108364D+02
 0.000000000000000D+00 0.000000000000000D+00 0.000000000000000D+00 0.000000000000000D+00
 0.588982319108501D+03 0.000000000000000D+00 0.000000000000000D+00 0.588982319108501D+03
 0.488874387969892D+03 0.000000000000000D+00 0.000000000000000D+00 -.488874387969892D+03
 0.251037236416470D+03 0.234503253966305D+01 0.157016032940146D+03 0.178585957833685D+03
 0.363946792264389D+02 -.239087527221772D+02 -.252823037558410D+02 0.106653333779380D+02
 0.385911818869586D+03 -.203910803360132D+03 -.247234428085309D+03 -.214996404122460D+03
 0.101057315361152D+03 -.235780395724232D+02 -.260498532650923D+02 0.257451129108364D+02
 0.303455657204746D+03 0.249052563115069D+03 0.141550552166096D+03 0.100107931138609D+03
0.350208198487D-04 0.000000000000D+00 0.000000000000D+00 0.554424597092D-07 0.000000000000D+00  7 -4 3 -24 -11 11 23 21 0 0.22034386D-01 0.13900631D+00 0.79149844D+05 0.79149844D+05 0.79149844D+05 0.11301519D+01  1  2  2  1  7  1       -4 0.881297277018D-04 0.100000000000D+01
-.180266177996D-05 0.000000000000D+00 -.134489169413D-06 0.554424597092D-07 0.000000000000D+00  7 -4 3 -24 -11 11 23 21 2 0.22034386D-01 0.13900631D+00 0.79149844D+05 0.79149844D+05 0.79149844D+05 0.11301519D+01  1  2  3  1  7  1       -4 -.579407347913D-05 0.100000000000D+01
0.224306386697D-05 0.000000000000D+00 0.000000000000D+00 0.554424597092D-07 0.000000000000D+00  7 -4 3 -24 -11 11 23 21 2 0.22034386D-01 0.13900631D+00 0.79149844D+05 0.79149844D+05 0.79149844D+05 0.11301519D+01  1  2 15  1  7  1       -4 0.720960360290D-05 0.100000000000D+01
-.343553552840D-05 0.000000000000D+00 -.107392956440D-04 0.554424597092D-07 0.000000000000D+00  7 -4 3 -24 -11 11 23 21 2 0.48417449D-01 0.13900631D+00 0.79149844D+05 0.79149844D+05 0.79149844D+05 0.11301519D+01  1  2  5  1  7  1       -4 -.224117344412D-05 0.100000000000D+01
0.383120769906D-06 0.000000000000D+00 -.916312105643D-06 0.554424597092D-07 0.000000000000D+00  7 21 3 -24 -11 11 23 4 2 0.48417449D-01 0.13900631D+00 0.79149844D+05 0.79149844D+05 0.79149844D+05 0.11301519D+01  1  2  5  3  7  1       -4 0.536874239859D-05 0.100000000000D+01
  </mgrwgt>
  </event>
  <event>
  8     66 0.26562228E-05 0.23539242E+03 0.75467711E-02 0.10104293E+00
       -2 -1    0    0    0  501 0.00000000E+00 0.00000000E+00 0.81275608E+02 0.81276238E+02 0.32000000E+00 0.0000E+00 0.9000E+01
        1 -1    0    0  501    0 0.00000000E+00 0.00000000E+00 -.12377976E+04 0.12377976E+04 0.32000000E+00 0.0000E+00 0.9000E+01
       25  2    1    2    0    0 -.19210662E+03 0.12140078E+02 -.98985690E+03 0.10520593E+04 0.29993275E+03 0.0000E+00 0.0000E+00
       23  2    3    3    0    0 -.21599073E+03 -.54425828E+02 -.67878002E+03 0.72026783E+03 0.91811031E+02 0.0000E+00 0.0000E+00
      -24  1    1    2    0    0 0.19210662E+03 -.12140078E+02 -.16666505E+03 0.26701458E+03 0.80419002E+02 0.0000E+00 0.9000E+01
      -11  1    4    4    0    0 -.27844775E+02 0.12780671E+02 -.18635104E+03 0.18885282E+03 0.51099893E-03 0.0000E+00 0.9000E+01
       11  1    4    4    0    0 -.18814595E+03 -.67206499E+02 -.49242897E+03 0.53141501E+03 0.51099893E-03 0.0000E+00 0.9000E+01
       23  1    3    3    0    0 0.23884114E+02 0.66565906E+02 -.31107688E+03 0.33179142E+03 0.91188000E+02 0.0000E+00 0.9000E+01
#aMCatNLO 1  0  0  1  2 0.34512785D+02 0.00000000D+00  -5  7  0 0.00000000D+00 0.00000000D+00 0.00000000D+00 0.00000000D+00 0.00000000D+00
  <mgrwgt>
 0.1170163290D-02    9    2    0
 0.317180061485617D+03 0.000000000000000D+00 0.000000000000000D+00 0.317180061485617D+03
 0.317180061485617D+03 0.000000000000000D+00 0.000000000000000D+00 -.317180061485617D+03
 0.251371671111215D+03 0.192106615769336D+03 -.121400778119885D+02 0.140243245011110D+03
 0.529537458639751D+02 -.278447754587682D+02 0.127806710541113D+02 -.431905328525111D+02
 0.207249334286700D+03 -.188145954511831D+03 -.672064990549266D+02 -.551060146253783D+02
 0.122785371709343D+03 0.238841142012640D+02 0.665659058128039D+02 -.419466975332207D+02
 0.000000000000000D+00 0.000000000000000D+00 0.000000000000000D+00 0.000000000000000D+00
 0.411689694218438D+03 0.000000000000000D+00 0.000000000000000D+00 0.411689694218438D+03
 0.320815676231515D+03 0.000000000000000D+00 0.000000000000000D+00 -.320815676231515D+03
 0.241915289966595D+03 0.179255794379870D+03 -.159682176602995D+02 0.140243245011110D+03
 0.542854082690249D+02 -.306385067439200D+02 0.119484445579178D+02 -.431905328525111D+02
 0.218409897857439D+03 -.199234978136355D+03 -.705098157791557D+02 -.551060146253783D+02
 0.120687678674064D+03 0.175412976857226D+02 0.646764399243765D+02 -.419466975332207D+02
 0.972070956828304D+02 0.330763928146829D+02 0.985314895716094D+01 0.908740179869236D+02
0.215756017437D-04 0.000000000000D+00 0.000000000000D+00 0.430360341987D-05 0.000000000000D+00  7 -2 1 -24 -11 11 23 21 0 0.12503991D-01 0.19043044D+00 0.76850446D+05 0.76850446D+05 0.76850446D+05 0.11312286D+01  1  2  2  1  7  1       -2 0.104729847153D-02 0.100000000000D+01
-.117221693248D-05 0.000000000000D+00 -.828559916820D-07 0.430360341987D-05 0.000000000000D+00  7 -2 1 -24 -11 11 23 21 2 0.12503991D-01 0.19043044D+00 0.76850446D+05 0.76850446D+05 0.76850446D+05 0.11312286D+01  1  2  3  1  7  1       -2 -.728142415596D-04 0.100000000000D+01
0.143010269235D-05 0.000000000000D+00 0.000000000000D+00 0.430360341987D-05 0.000000000000D+00  7 -2 1 -24 -11 11 23 21 2 0.12503991D-01 0.19043044D+00 0.76850446D+05 0.76850446D+05 0.76850446D+05 0.11312286D+01  1  2 15  1  7  1       -2 0.888332526263D-04 0.100000000000D+01
0.147468741765D-03 0.000000000000D+00 0.000000000000D+00 0.430360341987D-05 0.000000000000D+00  7 -2 1 -24 -11 11 23 21 2 0.16286432D-01 0.19043044D+00 0.86736843D+05 0.86736843D+05 0.86736843D+05 0.11268287D+01  1  2 12  1  7  1       -2 0.596233504077D-02 0.100000000000D+01
-.145098559199D-03 0.000000000000D+00 0.000000000000D+00 0.430360341987D-05 0.000000000000D+00  7 -2 1 -24 -11 11 23 21 2 0.12503991D-01 0.19043044D+00 0.76850446D+05 0.76850446D+05 0.76850446D+05 0.11312286D+01  1  2  4  1  7  1       -2 -.901304293321D-02 0.100000000000D+01
-.164978427102D-03 0.000000000000D+00 -.120498577614D-04 0.430360341987D-05 0.000000000000D+00  7 -2 1 -24 -11 11 23 21 2 0.16368822D-01 0.19043044D+00 0.76850446D+05 0.76850446D+05 0.76850446D+05 0.11312286D+01  1  2  5  1  7  1       -2 -.668324174162D-02 0.100000000000D+01
0.162710836917D-03 0.000000000000D+00 0.116256466600D-04 0.430360341987D-05 0.000000000000D+00  7 -2 1 -24 -11 11 23 21 2 0.12503991D-01 0.19043044D+00 0.76850446D+05 0.76850446D+05 0.76850446D+05 0.11312286D+01  1  2  6  1  7  1       -2 0.101070594148D-01 0.100000000000D+01
0.519879222157D-05 0.000000000000D+00 0.000000000000D+00 0.430360341987D-05 0.000000000000D+00  7 21 1 -24 -11 11 23 2 2 0.16286432D-01 0.19043044D+00 0.86736843D+05 0.86736843D+05 0.86736843D+05 0.11268287D+01  1  2 12  3  7  1       -2 0.281378447018D-02 0.100000000000D+01
-.566916784938D-05 0.000000000000D+00 -.430714060030D-06 0.430360341987D-05 0.000000000000D+00  7 21 1 -24 -11 11 23 2 2 0.16368822D-01 0.19043044D+00 0.76850446D+05 0.76850446D+05 0.76850446D+05 0.11312286D+01  1  2  5  3  7  1       -2 -.308004844372D-02 0.100000000000D+01
  </mgrwgt>
  </event>
  <event>
  8     66 0.26562228E-05 0.18110845E+03 0.75467711E-02 0.10528698E+00
       -2 -1    0    0    0  501 0.00000000E+00 0.00000000E+00 0.12380475E+03 0.12380516E+03 0.32000000E+00 0.0000E+00 0.9000E+01
        1 -1    0    0  501    0 0.00000000E+00 0.00000000E+00 -.32519893E+03 0.32519909E+03 0.32000000E+00 0.0000E+00 0.9000E+01
       25  2    1    2    0    0 -.19614592E+02 0.39916221E+02 -.19060182E+03 0.35647465E+03 0.29793805E+03 0.0000E+00 0.0000E+00
       23  2    3    3    0    0 -.27106462E+02 0.12023725E+03 -.17806814E+03 0.23408208E+03 0.88850443E+02 0.0000E+00 0.0000E+00
      -24  1    1    2    0    0 0.19614592E+02 -.39916221E+02 -.10792363E+02 0.92529606E+02 0.80419002E+02 0.0000E+00 0.9000E+01
      -11  1    4    4    0    0 -.55558415E+02 0.97211111E+02 -.11092600E+03 0.15761128E+03 0.51099893E-03 0.0000E+00 0.9000E+01
       11  1    4    4    0    0 0.28451953E+02 0.23026141E+02 -.67142136E+02 0.76470800E+02 0.51099893E-03 0.0000E+00 0.9000E+01
       23  1    3    3    0    0 0.74918699E+01 -.80321031E+02 -.12533682E+02 0.12239257E+03 0.91188000E+02 0.0000E+00 0.9000E+01
#aMCatNLO 1  0  0  2  2 0.64721190D+02 0.00000000D+00  -5  7  0 0.00000000D+00 0.00000000D+00 0.00000000D+00 0.00000000D+00 0.00000000D+00
  <mgrwgt>
 0.2909585179D-02    4    2    0
 0.200652188709962D+03 0.000000000000000D+00 0.000000000000000D+00 0.200652188709962D+03
 0.200652188709962D+03 0.000000000000000D+00 0.000000000000000D+00 -.200652188709962D+03
 0.981117327592576D+02 0.196145927787815D+02 -.399162214741547D+02 0.343607212380976D+02
 0.120677188114821D+03 -.555584153718954D+02 0.972111113877406D+02 -.450138427089285D+02
 0.518650678024970D+02 0.284519528991563D+02 0.230261406621428D+02 -.367459995181654D+02
 0.130650388743348D+03 0.749186969395757D+01 -.803210305757287D+02 0.473991209889963D+02
 0.000000000000000D+00 0.000000000000000D+00 0.000000000000000D+00 0.000000000000000D+00
 0.301816770298200D+03 0.000000000000000D+00 0.000000000000000D+00 0.301816770298200D+03
 0.213868756178343D+03 0.000000000000000D+00 0.000000000000000D+00 -.213868756178343D+03
 0.991308170585120D+02 0.519814143196459D+01 -.463899029743399D+02 0.343607212380976D+02
 0.123988191901284D+03 -.734409997864215D+02 0.891809690791496D+02 -.450138427089285D+02
 0.468280312218781D+02 0.212384776035571D+02 0.197869425786647D+02 -.367459995181654D+02
 0.136542856122625D+03 -.120372756064212D+02 -.890905580831624D+02 0.473991209889963D+02
 0.109195630172244D+03 0.590416563573210D+02 0.265125493996880D+02 0.879480141198576D+02
0.177361994131D-04 0.000000000000D+00 0.000000000000D+00 0.109071925171D-07 0.000000000000D+00  7 -2 1 -24 -11 11 23 21 0 0.19046928D-01 0.50030649D-01 0.32800269D+05 0.32800269D+05 0.32800269D+05 0.11637570D+01  1  2  2  2  7  2        1 0.327657896589D-02 0.100000000000D+01
-.972763200927D-06 0.000000000000D+00 -.681116757948D-07 0.109071925171D-07 0.000000000000D+00  7 -2 1 -24 -11 11 23 21 2 0.19046928D-01 0.50030649D-01 0.32800269D+05 0.32800269D+05 0.32800269D+05 0.11637570D+01  1  2  3  2  7  2        1 -.243383907219D-03 0.100000000000D+01
0.113749043927D-05 0.000000000000D+00 0.000000000000D+00 0.109071925171D-07 0.000000000000D+00  7 -2 1 -24 -11 11 23 21 2 0.19046928D-01 0.50030649D-01 0.32800269D+05 0.32800269D+05 0.32800269D+05 0.11637570D+01  1  2 15  2  7  2        1 0.284598417446D-03 0.100000000000D+01
-.163153765749D-05 0.000000000000D+00 0.000000000000D+00 0.109071925171D-07 0.000000000000D+00  7 -2 1 -24 -11 11 23 21 2 0.19046928D-01 0.50030649D-01 0.32800269D+05 0.32800269D+05 0.32800269D+05 0.11637570D+01  1  2  4  2  7  2        1 -.408208297227D-03 0.100000000000D+01
  </mgrwgt>
  </event>
  <event>
  8     66 0.26562228E-05 0.46967199E+03 0.75467711E-02 0.78404232E-01
       -2 -1    0    0    0  501 0.00000000E+00 0.00000000E+00 0.46503638E+03 0.46503649E+03 0.32000000E+00 0.0000E+00 0.9000E+01
        1 -1    0    0  501    0 0.00000000E+00 0.00000000E+00 -.76301214E+03 0.76301220E+03 0.32000000E+00 0.0000E+00 0.9000E+01
       25  2    1    2    0    0 -.28091308E+02 -.43658272E+03 -.51028540E+03 0.73516311E+03 0.29779191E+03 0.0000E+00 0.0000E+00
       23  2    3    3    0    0 0.67214431E+02 -.13220512E+03 -.28428485E+03 0.33376505E+03 0.92656670E+02 0.0000E+00 0.0000E+00
      -24  1    1    2    0    0 0.28091308E+02 0.43658272E+03 0.21230964E+03 0.49288558E+03 0.80419002E+02 0.0000E+00 0.9000E+01
      -11  1    4    4    0    0 -.11703945E+02 -.38757117E+02 -.26368879E+02 0.48315776E+02 0.51099893E-03 0.0000E+00 0.9000E+01
       11  1    4    4    0    0 0.78918376E+02 -.93448002E+02 -.25791597E+03 0.28544927E+03 0.51099893E-03 0.0000E+00 0.9000E+01
       23  1    3    3    0    0 -.95305739E+02 -.30437760E+03 -.22600055E+03 0.40139807E+03 0.91188000E+02 0.0000E+00 0.9000E+01
#aMCatNLO 1  0  0  1  2 0.27574912D+04 0.00000000D+00  -5  7  0 0.00000000D+00 0.00000000D+00 0.00000000D+00 0.00000000D+00 0.00000000D+00
  <mgrwgt>
 0.2572769349D-02    3    2    0
 0.595674837913878D+03 0.000000000000000D+00 0.000000000000000D+00 0.595674837913878D+03
 0.595674837913878D+03 0.000000000000000D+00 0.000000000000000D+00 -.595674837913878D+03
 0.561170775189801D+03 0.280913075469195D+02 0.436582722823331D+03 0.342128378748712D+03
 0.432088415801667D+02 -.117039448720343D+02 -.387571170123246D+02 -.150966071030980D+02
 0.229733474069567D+03 0.789183763476540D+02 -.934480024065297D+02 -.194465497785473D+03
 0.357236584988222D+03 -.953057390225392D+02 -.304377603404477D+03 -.132566273860141D+03
 0.000000000000000D+00 -.000000000000000D+00 -.000000000000000D+00 -.000000000000000D+00
 0.209888124839215D+04 0.000000000000000D+00 0.000000000000000D+00 0.209888124839215D+04
 0.468628905693266D+04 0.000000000000000D+00 0.000000000000000D+00 -.468628905693266D+04
 0.219870430719640D+04 0.126445894701155D+04 0.176406495297278D+04 0.342128378748712D+03
 0.248375223388692D+02 0.187794356511124D+02 -.602725198861386D+01 -.150966071030980D+02
 0.545460581013042D+03 0.426189472103494D+03 0.279415370869746D+03 -.194465497785473D+03
 0.234840464454424D+03 0.169932680162605D+03 -.195923364804119D+02 -.132566273860141D+03
 0.378132743032208D+04 -.187936053492876D+04 -.201786073537350D+04 -.258740780854051D+04
0.534697883476D-03 0.000000000000D+00 0.000000000000D+00 0.697548607647D-06 0.000000000000D+00  7 -2 1 -24 -11 11 23 21 0 0.71544073D-01 0.11738650D+00 0.22059178D+06 0.22059178D+06 0.22059178D+06 0.10945716D+01  1  2  2  1  7  1       -2 0.253962377104D-02 0.100000000000D+01
-.276654336963D-04 0.000000000000D+00 -.205338066173D-05 0.697548607647D-06 0.000000000000D+00  7 -2 1 -24 -11 11 23 21 2 0.71544073D-01 0.11738650D+00 0.22059178D+06 0.22059178D+06 0.22059178D+06 0.10945716D+01  1  2  3  1  7  1       -2 -.157429730708D-03 0.100000000000D+01
0.334901708512D-04 0.000000000000D+00 0.000000000000D+00 0.697548607647D-06 0.000000000000D+00  7 -2 1 -24 -11 11 23 21 2 0.71544073D-01 0.11738650D+00 0.22059178D+06 0.22059178D+06 0.22059178D+06 0.10945716D+01  1  2 15  1  7  1       -2 0.190575309115D-03 0.100000000000D+01
  </mgrwgt>
  </event>
  <event>
  9     66 0.26562228E-05 0.30291446E+03 0.75467711E-02 0.95851149E-01
       21 -1    0    0  502  501 0.00000000E+00 0.00000000E+00 0.23710353E+03 0.23710471E+03 0.75000000E+00 0.0000E+00 0.9000E+01
        1 -1    0    0  501    0 0.00000000E+00 0.00000000E+00 -.28743323E+04 0.28743323E+04 0.32000000E+00 0.0000E+00 0.9000E+01
       25  2    1    2    0    0 0.19295805E+03 -.92060646E+01 -.24156138E+04 0.24420210E+04 0.30159406E+03 0.0000E+00 0.0000E+00
       23  2    3    3    0    0 0.36230921E+02 -.10869620E+03 -.12184077E+04 0.12270809E+04 0.89904062E+02 0.0000E+00 0.0000E+00
      -24  1    1    2    0    0 -.17909155E+03 0.25897838E+03 0.14670742E+02 0.32530914E+03 0.80419002E+02 0.0000E+00 0.9000E+01
      -13  1    4    4    0    0 0.39426615E+02 -.95991553E+02 -.62710910E+03 0.63563722E+03 0.10565837E+00 0.0000E+00 0.9000E+01
       13  1    4    4    0    0 -.31956934E+01 -.12704647E+02 -.59129859E+03 0.59144370E+03 0.10565837E+00 0.0000E+00 0.9000E+01
       23  1    3    3    0    0 0.15672713E+03 0.99490135E+02 -.11972062E+04 0.12149401E+04 0.91188000E+02 0.0000E+00 0.9000E+01
        2  1    1    2  502    0 -.13866502E+02 -.24977232E+03 -.23628563E+03 0.34410681E+03 0.32000000E+00 0.0000E+00 0.9000E+01
#aMCatNLO 2  0  0  1  2 0.25015693D+03 0.00000000D+00  -5  7  0 0.00000000D+00 0.00000000D+00 0.00000000D+00 0.00000000D+00 0.00000000D+00
  <mgrwgt>
 0.1107016106D-03    2    2    0
 0.676574102689048D+03 0.000000000000000D+00 0.000000000000000D+00 0.676574102689048D+03
 0.676574102689048D+03 0.000000000000000D+00 0.000000000000000D+00 -.676574102689048D+03
 0.645353664288809D+03 -.185824336400699D+03 0.137703152049614D+03 0.597094041147173D+03
 0.204555706328457D+03 0.374519052686708D+02 -.131562457390148D+03 -.152091129224376D+03
 0.162778357928785D+03 -.482416285439780D+01 -.420365083857097D+02 -.157182865559463D+03
 0.340460476832044D+03 0.153196593986426D+03 0.358958137262435D+02 -.287820046363334D+03
 0.000000000000000D+00 -.000000000000000D+00 -.000000000000000D+00 0.000000000000000D+00
 0.890515994251572D+03 0.000000000000000D+00 0.000000000000000D+00 0.890515994251572D+03
 0.765304647269203D+03 0.000000000000000D+00 0.000000000000000D+00 -.765304647269203D+03
 0.679802984442351D+03 -.179091551604289D+03 0.258978384952996D+03 0.597094041147173D+03
 0.184121086308372D+03 0.394266734613130D+02 -.959916676300810D+02 -.152091129224376D+03
 0.157727838975511D+03 -.319575216669631D+01 -.127045318878643D+02 -.157182865559463D+03
 0.354425325609377D+03 0.156727132485704D+03 0.994901349055759D+02 -.287820046363334D+03
 0.279743406185164D+03 -.138665021760315D+02 -.249772320340627D+03 0.125211346982369D+03
-.592060942109D-06 0.000000000000D+00 0.000000000000D+00 0.173388316680D-05 0.000000000000D+00  7 21 1 -24 -13 13 23 2 2 0.37843985D-01 0.39093511D+00 0.20197581D+06 0.20197581D+06 0.20197581D+06 0.10974976D+01  1  2 13  3  7  1       -2 -.773562236106D-05 0.100000000000D+01
0.144871405364D-04 0.000000000000D+00 0.000000000000D+00 0.173388316680D-05 0.755971374233D-11  7 21 1 -24 -13 13 23 2 2 0.36477554D-01 0.44220501D+00 0.20197581D+06 0.20197581D+06 0.20197581D+06 0.10974976D+01  1  2  1  3  7  1       -2 0.118437232960D-03 0.100000000000D+01
  </mgrwgt>
  </event>
  <event>
  9     66 0.26562228E-05 0.18395005E+03 0.75467711E-02 0.10492645E+00
       21 -1    0    0  502  501 0.00000000E+00 0.00000000E+00 0.73999703E+02 0.74003504E+02 0.75000000E+00 0.0000E+00 0.9000E+01
        1 -1    0    0  501    0 0.00000000E+00 0.00000000E+00 -.10104671E+04 0.10104672E+04 0.32000000E+00 0.0000E+00 0.9000E+01
       25  2    1    2    0    0 -.15904681E+03 0.19613736E+02 -.48365128E+03 0.59132562E+03 0.30011137E+03 0.0000E+00 0.0000E+00
       23  2    3    3    0    0 -.13082111E+03 0.78678766E+01 -.46763278E+03 0.49382434E+03 0.89476213E+02 0.0000E+00 0.0000E+00
      -24  1    1    2    0    0 0.93445330E+02 -.22024897E+02 -.34367309E+03 0.36578072E+03 0.80419002E+02 0.0000E+00 0.9000E+01
      -13  1    4    4    0    0 -.83892813E+02 0.44447665E+02 -.33994816E+03 0.35295660E+03 0.10565837E+00 0.0000E+00 0.9000E+01
       13  1    4    4    0    0 -.46928298E+02 -.36579789E+02 -.12768462E+03 0.14086774E+03 0.10565837E+00 0.0000E+00 0.9000E+01
       23  1    3    3    0    0 -.28225699E+02 0.11745860E+02 -.16018499E+02 0.97501277E+02 0.91188000E+02 0.0000E+00 0.9000E+01
        2  1    1    2  502    0 0.65601479E+02 0.24111609E+01 -.10914303E+03 0.12736433E+03 0.32000000E+00 0.0000E+00 0.9000E+01
#aMCatNLO 2  0  0  1  2 0.65645775D+02 0.00000000D+00  -5  7  0 0.00000000D+00 0.00000000D+00 0.00000000D+00 0.00000000D+00 0.00000000D+00
  <mgrwgt>
 0.9950511081D-04    2    2    0
 0.238368178275425D+03 0.000000000000000D+00 0.000000000000000D+00 0.238368178275425D+03
 0.238368178275425D+03 0.000000000000000D+00 0.000000000000000D+00 -.238368178275425D+03
 0.150689090158190D+03 0.113122366462325D+03 -.213016748016868D+02 -.546768213682822D+02
 0.107340906191296D+03 -.684923559313256D+02 0.450138176766604D+02 -.693153917908400D+02
 0.545836386537862D+02 -.390368257000120D+02 -.362898536873559D+02 -.117705720890824D+02
 0.164122721547577D+03 -.559318483098780D+01 0.125777108123824D+02 0.135762785248205D+03
 0.000000000000000D+00 0.000000000000000D+00 0.000000000000000D+00 0.000000000000000D+00
 0.274399511966006D+03 0.000000000000000D+00 0.000000000000000D+00 0.274399511966006D+03
 0.272508288417194D+03 0.000000000000000D+00 0.000000000000000D+00 -.272508288417194D+03
 0.136652467718055D+03 0.934453319473720D+02 -.220248977607148D+02 -.546768213682822D+02
 0.117551014963638D+03 -.838928643973015D+02 0.444477770319263D+02 -.693153917908400D+02
 0.606539014392295D+02 -.469282461773980D+02 -.365799002624256D+02 -.117705720890824D+02
 0.166377404157869D+03 -.282257007426033D+02 0.117458601025913D+02 0.135762785248205D+03
 0.656730121044091D+02 0.656014793699309D+02 0.241116088862280D+01 0.189122354881157D+01
-.100574534012D-06 0.000000000000D+00 0.000000000000D+00 0.500051470668D-06 0.000000000000D+00  7 21 1 -24 -13 13 23 2 2 0.11994539D-01 0.13598080D+00 0.48730621D+05 0.48730621D+05 0.48730621D+05 0.11482790D+01  1  2 13  3  7  1       -2 -.179484552755D-03 0.100000000000D+01
0.178650693028D-06 0.000000000000D+00 0.000000000000D+00 0.500051470668D-06 0.220679741586D-10  7 21 1 -24 -13 13 23 2 2 0.11384850D-01 0.15545655D+00 0.48730621D+05 0.48730621D+05 0.48730621D+05 0.11482790D+01  1  2  1  3  7  1       -2 0.278989663570D-03 0.100000000000D+01
  </mgrwgt>
  </event>
  <event>
  8     66 0.26562228E-05 0.63211254E+03 0.75467711E-02 0.84400267E-01
       -2 -1    0    0    0  501 0.00000000E+00 0.00000000E+00 0.62548752E+03 0.62548760E+03 0.32000000E+00 0.0000E+00 0.9000E+01
        1 -1    0    0  501    0 0.00000000E+00 0.00000000E+00 -.16787229E+04 0.16787230E+04 0.32000000E+00 0.0000E+00 0.9000E+01
       25  2    1    2    0    0 0.54915390E+03 0.79514236E+03 -.83023864E+03 0.13092150E+04 0.30154009E+03 0.0000E+00 0.0000E+00
       23  2    3    3    0    0 0.48771047E+03 0.54760197E+03 -.62894126E+03 0.97174292E+03 0.10482259E+03 0.0000E+00 0.0000E+00
      -24  1    1    2    0    0 -.54915390E+03 -.79514236E+03 -.22299679E+03 0.99499555E+03 0.80419002E+02 0.0000E+00 0.9000E+01
      -13  1    4    4    0    0 0.79427619E+02 0.10888816E+03 -.68361915E+02 0.15112492E+03 0.10565837E+00 0.0000E+00 0.9000E+01
       13  1    4    4    0    0 0.40828286E+03 0.43871381E+03 -.56057935E+03 0.82061800E+03 0.10565837E+00 0.0000E+00 0.9000E+01
       23  1    3    3    0    0 0.61443421E+02 0.24754038E+03 -.20129738E+03 0.33747211E+03 0.91188000E+02 0.0000E+00 0.9000E+01
#aMCatNLO 1  0  0  1  2 0.67438811D+03 0.00000000D+00  -5  7  0 0.00000000D+00 0.00000000D+00 0.00000000D+00 0.00000000D+00 0.00000000D+00
  <mgrwgt>
 0.2491699905D-02    8    2    0
 0.102470502385906D+04 0.000000000000000D+00 0.000000000000000D+00 0.102470502385906D+04
 0.102470502385906D+04 0.000000000000000D+00 0.000000000000000D+00 -.102470502385906D+04
 0.100409928595914D+04 -.549153895228436D+03 -.795142355303625D+03 0.260627692824302D+03
 0.134780937877133D+03 0.794272848834704D+02 0.108887828468670D+03 0.805259248364372D+00
 0.634551247614368D+03 0.408283189711826D+03 0.438714142183428D+03 -.208542619854902D+03
 0.275978576267492D+03 0.614434206331391D+02 0.247540384651527D+03 -.528903322177645D+02
 0.000000000000000D+00 0.000000000000000D+00 0.000000000000000D+00 0.000000000000000D+00
 0.172095361505034D+04 0.000000000000000D+00 0.000000000000000D+00 0.172095361505034D+04
 0.125580742081275D+04 0.000000000000000D+00 0.000000000000000D+00 -.125580742081275D+04
 0.131308104065965D+04 -.900391272756785D+03 -.916014937139107D+03 0.260627692824302D+03
 0.105516883021099D+03 0.430030258525688D+02 0.963530172208145D+02 0.805259248364372D+00
 0.494007611160941D+03 0.237216635508408D+03 0.379844393702295D+03 -.208542619854902D+03
 0.244911758544732D+03 -.175129527995139D+02 0.220368843922206D+03 -.528903322177645D+02
 0.819243742476667D+03 0.637684564195322D+03 0.219448682293791D+03 0.465146194237592D+03
0.326068643490D-02 0.000000000000D+00 0.000000000000D+00 0.582034568006D-07 0.000000000000D+00  7 -2 1 -24 -13 13 23 21 0 0.96228858D-01 0.25826508D+00 0.97479124D+06 0.97479124D+06 0.97479124D+06 0.10486029D+01  1  2  2  1  7  1       -2 0.155091299209D-02 0.100000000000D+01
-.180844933112D-03 0.000000000000D+00 -.125218944685D-04 0.582034568006D-07 0.000000000000D+00  7 -2 1 -24 -13 13 23 21 2 0.96228858D-01 0.25826508D+00 0.97479124D+06 0.97479124D+06 0.97479124D+06 0.10486029D+01  1  2  3  1  7  1       -2 -.945816373915D-04 0.100000000000D+01
0.207391040280D-03 0.000000000000D+00 0.000000000000D+00 0.582034568006D-07 0.000000000000D+00  7 -2 1 -24 -13 13 23 21 2 0.96228858D-01 0.25826508D+00 0.97479124D+06 0.97479124D+06 0.97479124D+06 0.10486029D+01  1  2 15  1  7  1       -2 0.108465212890D-03 0.100000000000D+01
0.398414252406D-03 0.000000000000D+00 0.000000000000D+00 0.582034568006D-07 0.000000000000D+00  7 -2 1 -24 -13 13 23 21 2 0.16639573D+00 0.25826508D+00 0.18958842D+07 0.18958842D+07 0.18958842D+07 0.10298568D+01  1  2 12  1  7  1       -2 0.450660680717D-04 0.100000000000D+01
-.165313244406D-02 0.000000000000D+00 -.968664752827D-03 0.582034568006D-07 0.000000000000D+00  7 -2 1 -24 -13 13 23 21 2 0.18414317D+00 0.25826508D+00 0.97479124D+06 0.97479124D+06 0.97479124D+06 0.10486029D+01  1  2  5  1  7  1       -2 -.150718820417D-03 0.100000000000D+01
0.201562941313D-02 0.000000000000D+00 0.795234979056D-03 0.582034568006D-07 0.000000000000D+00  7 -2 1 -24 -13 13 23 21 2 0.96228858D-01 0.25826508D+00 0.97479124D+06 0.97479124D+06 0.97479124D+06 0.10486029D+01  1  2  6  1  7  1       -2 0.105417125593D-02 0.100000000000D+01
0.241852436546D-04 0.000000000000D+00 0.000000000000D+00 0.582034568006D-07 0.000000000000D+00  7 21 1 -24 -13 13 23 2 2 0.16639573D+00 0.25826508D+00 0.18958842D+07 0.18958842D+07 0.18958842D+07 0.10298568D+01  1  2 12  3  7  1       -2 0.213868232224D-04 0.100000000000D+01
-.607237012126D-04 0.000000000000D+00 -.682504465998D-04 0.582034568006D-07 0.000000000000D+00  7 21 1 -24 -13 13 23 2 2 0.18414317D+00 0.25826508D+00 0.97479124D+06 0.97479124D+06 0.97479124D+06 0.10486029D+01  1  2  5  3  7  1       -2 -.430019898351D-04 0.100000000000D+01
  </mgrwgt>
  </event>
  <event>
  9     66 0.26562228E-05 0.21505607E+03 0.75467711E-02 0.10477481E+00
       -2 -1    0    0    0  501 0.00000000E+00 0.00000000E+00 0.46558813E+03 0.46558824E+03 0.32000000E+00 0.0000E+00 0.9000E+01
        1 -1    0    0  502    0 0.00000000E+00 0.00000000E+00 -.28253647E+03 0.28253665E+03 0.32000000E+00 0.0000E+00 0.9000E+01
       25  2    1    2    0    0 0.79176870E+02 0.14536503E+03 -.14392478E+03 0.37116137E+03 0.29941017E+03 0.0000E+00 0.0000E+00
       23  2    3    3    0    0 -.19564638E+01 0.66242872E+02 -.18691807E+03 0.21948208E+03 0.94032289E+02 0.0000E+00 0.0000E+00
      -24  1    1    2    0    0 -.71800754E+02 -.13048167E+03 0.28059145E+03 0.32768826E+03 0.80419002E+02 0.0000E+00 0.9000E+01
      -13  1    4    4    0    0 -.34777082E+01 0.90558734E+02 -.14462233E+03 0.17067106E+03 0.10565837E+00 0.0000E+00 0.9000E+01
       13  1    4    4    0    0 0.15212444E+01 -.24315862E+02 -.42295737E+02 0.48811021E+02 0.10565837E+00 0.0000E+00 0.9000E+01
       23  1    3    3    0    0 0.81133334E+02 0.79122160E+02 0.42993288E+02 0.15167929E+03 0.91188000E+02 0.0000E+00 0.9000E+01
       21  1    1    2  502  501 -.73761164E+01 -.14883357E+02 0.46384990E+02 0.49275259E+02 0.75000000E+00 0.0000E+00 0.9000E+01
#aMCatNLO 2  0  0  2  2 0.16610882D+02 0.00000000D+00  -5  7  0 0.00000000D+00 0.00000000D+00 0.00000000D+00 0.00000000D+00 0.00000000D+00
  <mgrwgt>
 0.1115835511D-03    1    2    0
 0.342577401175477D+03 0.000000000000000D+00 0.000000000000000D+00 0.342577401175477D+03
 0.342577401175477D+03 0.000000000000000D+00 0.000000000000000D+00 -.342577401175477D+03
 0.281876348553356D+03 -.748150270652968D+02 -.136563805282003D+03 0.220771598561772D+03
 0.201000434526104D+03 -.565135662434639D+01 0.861729528947088D+02 -.181503330650965D+03
 0.587349586683481D+02 0.891871613848470D+00 -.255859506720084D+02 -.528616975040200D+02
 0.143543060603146D+03 0.795745120757947D+02 0.759768030593027D+02 0.135934295932122D+02
 0.000000000000000D+00 -.000000000000000D+00 -.000000000000000D+00 0.000000000000000D+00
 0.381908306020125D+03 0.000000000000000D+00 0.000000000000000D+00 0.381908306020125D+03
 0.344436411291373D+03 0.000000000000000D+00 0.000000000000000D+00 -.344436411291373D+03
 0.278187221950353D+03 -.718007540906053D+02 -.130481674891857D+03 0.220771598561772D+03
 0.202870558868178D+03 -.347771512226600D+01 0.905588765147948D+02 -.181503330650965D+03
 0.582060251532030D+02 0.152125025179507D+01 -.243160049926010D+02 -.528616975040200D+02
 0.146092323788179D+03 0.811333353195561D+02 0.791221605977047D+02 0.135934295932122D+02
 0.409885875515855D+02 -.737611635847981D+01 -.148833572280416D+02 0.374718947287518D+02
0.433515738312D-05 0.000000000000D+00 0.000000000000D+00 0.461801950185D-06 0.118362983987D-07  7 -2 1 -24 -13 13 23 21 2 0.71628255D-01 0.43466741D-01 0.49799468D+05 0.49799468D+05 0.49799468D+05 0.11474489D+01  1  2  1  2  7  2        1 0.111583551126D-03 0.100000000000D+01
  </mgrwgt>
  </event>
  <event>
  9     66 0.26562228E-05 0.17252742E+03 0.75467711E-02 0.10288833E+00
       21 -1    0    0  502  501 0.00000000E+00 0.00000000E+00 0.20676516E+04 0.20676518E+04 0.75000000E+00 0.0000E+00 0.9000E+01
        3 -1    0    0  501    0 0.00000000E+00 0.00000000E+00 -.56364710E+02 0.56366928E+02 0.50000000E+00 0.0000E+00 0.9000E+01
       25  2    1    2    0    0 0.43805924E+02 0.95697594E+02 0.12058068E+04 0.12470666E+04 0.30021318E+03 0.0000E+00 0.0000E+00
       23  2    3    3    0    0 0.13184276E+03 0.80330663E+02 0.56266355E+03 0.59137217E+03 0.96411848E+02 0.0000E+00 0.0000E+00
      -24  1    1    2    0    0 0.73433072E+01 0.35009424E+02 0.36530231E+02 0.95295633E+02 0.80419002E+02 0.0000E+00 0.9000E+01
      -13  1    4    4    0    0 0.94889312E+02 0.69549663E+02 0.52311987E+03 0.53618611E+03 0.10565837E+00 0.0000E+00 0.9000E+01
       13  1    4    4    0    0 0.36953448E+02 0.10781000E+02 0.39543683E+02 0.55186061E+02 0.10565837E+00 0.0000E+00 0.9000E+01
       23  1    3    3    0    0 -.88036836E+02 0.15366931E+02 0.64314327E+03 0.65569440E+03 0.91188000E+02 0.0000E+00 0.9000E+01
        4  1    1    2  502    0 -.51149232E+02 -.13070702E+03 0.76894987E+03 0.78165649E+03 0.15500000E+01 0.0000E+00 0.9000E+01
#aMCatNLO 2  0  0  1  2 0.14035871D+03 0.00000000D+00  -5  7  0 0.00000000D+00 0.00000000D+00 0.00000000D+00 0.00000000D+00 0.00000000D+00
  <mgrwgt>
 0.1969833643D-04    2    2    0
 0.244353414368094D+03 0.000000000000000D+00 0.000000000000000D+00 0.244353414368094D+03
 0.244353414368094D+03 0.000000000000000D+00 0.000000000000000D+00 -.244353414368094D+03
 0.158759426364590D+03 -.912673286843854D+01 -.707820337754794D+01 -.136396265672258D+03
 0.114425780783523D+03 0.819719465445073D+02 0.365404109737604D+02 0.709835026854271D+02
 0.443082836373172D+02 0.321633310133460D+02 -.145960340563752D+01 -.304403300722765D+02
 0.171213337950759D+03 -.105008544689415D+03 -.280026041905749D+02 0.958530930591077D+02
 0.000000000000000D+00 -.000000000000000D+00 -.000000000000000D+00 0.000000000000000D+00
 0.406745375904164D+03 0.000000000000000D+00 0.000000000000000D+00 0.406745375904164D+03
 0.286524760373509D+03 0.000000000000000D+00 0.000000000000000D+00 -.286524760373509D+03
 0.162329113863744D+03 0.734330727869577D+01 0.350094244781482D+02 -.136396265672258D+03
 0.137403852351691D+03 0.948893934425672D+02 0.695497232179601D+02 0.709835026854271D+02
 0.490754051347706D+02 0.369533901729474D+02 0.107809391501225D+02 -.304403300722765D+02
 0.159654933945628D+03 -.880368591921022D+02 0.153669308508491D+02 0.958530930591077D+02
 0.184806830981840D+03 -.511492317021081D+02 -.130707017697080D+03 0.120220615530656D+03
-.715047710629D-07 0.000000000000D+00 0.000000000000D+00 0.107111493703D-06 0.000000000000D+00  7 21 3 -24 -13 13 23 4 2 0.32548168D+00 0.73952805D-02 0.65586141D+05 0.65586141D+05 0.65586141D+05 0.11370721D+01  1  2 13  3  7  1       -4 -.110979755104D-05 0.100000000000D+01
0.154791487574D-05 0.000000000000D+00 0.000000000000D+00 0.107111493703D-06 0.283419786655D-11  7 21 3 -24 -13 13 23 4 2 0.31809707D+00 0.86715833D-02 0.65586141D+05 0.65586141D+05 0.65586141D+05 0.11370721D+01  1  2  1  3  7  1       -4 0.208081339819D-04 0.100000000000D+01
  </mgrwgt>
  </event>
  <event>
  8     66 0.26562228E-05 0.18131605E+03 0.75467711E-02 0.94713350E-01
       -2 -1    0    0    0  501 0.00000000E+00 0.00000000E+00 0.12920364E+03 0.12920404E+03 0.32000000E+00 0.0000E+00 0.9000E+01
        1 -1    0    0  501    0 0.00000000E+00 0.00000000E+00 -.75467999E+03 0.75468006E+03 0.32000000E+00 0.0000E+00 0.9000E+01
       25  2    1    2    0    0 0.21242321E+02 0.90899419E+02 -.79702110E+02 0.32437478E+03 0.30025428E+03 0.0000E+00 0.0000E+00
       23  2    3    3    0    0 0.27229050E+01 0.13432389E+03 0.24203423E+02 0.17829171E+03 0.11468132E+03 0.0000E+00 0.0000E+00
      -24  1    1    2    0    0 -.21242321E+02 -.90899419E+02 -.54577424E+03 0.55950932E+03 0.80419002E+02 0.0000E+00 0.9000E+01
      -11  1    4    4    0    0 -.90292908E+01 0.21731331E+02 -.41276871E+02 0.47513777E+02 0.51099893E-03 0.0000E+00 0.9000E+01
       11  1    4    4    0    0 0.11752196E+02 0.11259256E+03 0.65480295E+02 0.13077793E+03 0.51099893E-03 0.0000E+00 0.9000E+01
       23  1    3    3    0    0 0.18519416E+02 -.43424471E+02 -.10390553E+03 0.14608307E+03 0.91188000E+02 0.0000E+00 0.9000E+01
#aMCatNLO 1  0  0  2  1 0.43199089D+03 0.00000000D+00  -5  7  0 0.00000000D+00 0.00000000D+00 0.00000000D+00 0.00000000D+00 0.00000000D+00
  <mgrwgt>
 0.2070013025D-02    3    2    0
 0.312262085647699D+03 0.000000000000000D+00 0.000000000000000D+00 0.312262085647699D+03
 0.312262085647699D+03 0.000000000000000D+00 0.000000000000000D+00 -.312262085647699D+03
 0.245262743960481D+03 -.212423211796438D+02 -.908994189092926D+02 -.212067576620066D+03
 0.259060661547297D+02 -.902929060777446D+01 0.217313309764684D+02 -.108326095067057D+02
 0.250669097894273D+03 0.117521954127663D+02 0.112592559423830D+03 0.223651063276033D+03
 0.102686263285914D+03 0.185194163746519D+02 -.434244714910054D+02 -.750877149260504D+00
 0.000000000000000D+00 -.000000000000000D+00 -.000000000000000D+00 0.000000000000000D+00
 0.208831101033036D+04 0.000000000000000D+00 0.000000000000000D+00 0.208831101033036D+04
 0.406991259283097D+03 0.000000000000000D+00 0.000000000000000D+00 -.406991259283097D+03
 0.248405169583669D+03 0.101285320295997D+03 0.255717823988962D+01 -.212067576620066D+03
 0.356499828532125D+02 0.624882914960281D+01 0.333845470684964D+02 -.108326095067057D+02
 0.358489870562164D+03 0.162944544846321D+03 0.227912844078613D+03 0.223651063276033D+03
 0.116827458274677D+03 0.730023953903708D+02 -.186818459902530D+01 -.750877149260504D+00
 0.173592978833973D+04 -.343481089682292D+03 -.261986384787974D+03 0.168131975104726D+04
0.368141010421D-04 0.000000000000D+00 0.000000000000D+00 0.171149185314D-07 0.000000000000D+00  7 -2 1 -24 -11 11 23 21 0 0.19877519D-01 0.11610465D+00 0.32875509D+05 0.32875509D+05 0.32875509D+05 0.11636656D+01  1  2  2  2  7  2        1 0.199877002247D-02 0.100000000000D+01
-.131040260952D-05 0.000000000000D+00 -.141375841377D-06 0.171149185314D-07 0.000000000000D+00  7 -2 1 -24 -11 11 23 21 2 0.19877519D-01 0.11610465D+00 0.32875509D+05 0.32875509D+05 0.32875509D+05 0.11636656D+01  1  2  3  2  7  2        1 -.963406945577D-04 0.100000000000D+01
0.227943254350D-05 0.000000000000D+00 0.000000000000D+00 0.171149185314D-07 0.000000000000D+00  7 -2 1 -24 -11 11 23 21 2 0.19877519D-01 0.11610465D+00 0.32875509D+05 0.32875509D+05 0.32875509D+05 0.11636656D+01  1  2 15  2  7  2        1 0.167583697440D-03 0.100000000000D+01
  </mgrwgt>
  </event>
  <event>
  8     66 0.26562228E-05 0.82165223E+03 0.75467711E-02 0.84801503E-01
       -2 -1    0    0    0  501 0.00000000E+00 0.00000000E+00 0.11512589E+04 0.11512589E+04 0.32000000E+00 0.0000E+00 0.9000E+01
        1 -1    0    0  501    0 0.00000000E+00 0.00000000E+00 -.92570928E+03 0.92570933E+03 0.32000000E+00 0.0000E+00 0.9000E+01
       25  2    1    2    0    0 0.64516214E+03 -.46936634E+03 0.73630775E+03 0.11262422E+04 0.29955523E+03 0.0000E+00 0.0000E+00
       23  2    3    3    0    0 0.19179612E+03 -.27727798E+03 0.25875041E+03 0.43427760E+03 0.89310829E+02 0.0000E+00 0.0000E+00
      -24  1    1    2    0    0 -.64516214E+03 0.46936634E+03 -.51075817E+03 0.95072608E+03 0.80419002E+02 0.0000E+00 0.9000E+01
      -13  1    4    4    0    0 0.47951131E+02 -.36744983E+02 0.85840509E+02 0.10496718E+03 0.10565837E+00 0.0000E+00 0.9000E+01
       13  1    4    4    0    0 0.14384499E+03 -.24053300E+03 0.17290990E+03 0.32931042E+03 0.10565837E+00 0.0000E+00 0.9000E+01
       23  1    3    3    0    0 0.45336601E+03 -.19208836E+03 0.47755734E+03 0.69196455E+03 0.91188000E+02 0.0000E+00 0.9000E+01
#aMCatNLO 1  0  0  1  1 0.82856400D+03 0.00000000D+00  -5  7  0 0.00000000D+00 0.00000000D+00 0.00000000D+00 0.00000000D+00 0.00000000D+00
  <mgrwgt>
 0.2102499381D-02    5    2    0
 0.103234253160200D+04 0.000000000000000D+00 0.000000000000000D+00 0.103234253160200D+04
 0.103234253160200D+04 0.000000000000000D+00 0.000000000000000D+00 -.103234253160200D+04
 0.101217816794371D+04 -.645162137466986D+03 0.469366341997390D+03 -.617655633088966D+03
 0.962139879160807D+02 0.479509968771780D+02 -.367446982333177D+02 0.748843142516709D+02
 0.312380883952037D+03 0.143845126729823D+03 -.240533286473112D+03 0.137964249982308D+03
 0.643912023392170D+03 0.453366013859985D+03 -.192088357290961D+03 0.404807068854987D+03
 0.000000000000000D+00 0.000000000000000D+00 -.000000000000000D+00 0.000000000000000D+00
 0.231107470741282D+04 0.000000000000000D+00 0.000000000000000D+00 0.231107470741282D+04
 0.125554600338464D+04 0.000000000000000D+00 0.000000000000000D+00 -.125554600338464D+04
 0.136428216513627D+04 -.822214287370438D+03 0.892896295608804D+03 -.617655633088966D+03
 0.826455683948393D+02 0.346255192603967D+02 -.486855936709716D+01 0.748843142516709D+02
 0.225273394798624D+03 0.103788558297973D+03 -.144713175963158D+03 0.137964249982308D+03
 0.552533171540828D+03 0.364227899052910D+03 0.211406921717885D+02 0.404807068854987D+03
 0.134188641092689D+04 0.319572310759157D+03 -.764455252450338D+03 0.105552870402818D+04
0.636053352159D-02 0.000000000000D+00 0.000000000000D+00 0.156308743047D-04 0.000000000000D+00  7 -2 1 -24 -13 13 23 21 0 0.17711675D+00 0.14241682D+00 0.67511239D+06 0.67511239D+06 0.67511239D+06 0.10594143D+01  1  2  2  1  7  1       -2 0.210415288367D-02 0.100000000000D+01
-.330976030441D-03 0.000000000000D+00 -.244261234899D-04 0.156308743047D-04 0.000000000000D+00  7 -2 1 -24 -13 13 23 21 2 0.17711675D+00 0.14241682D+00 0.67511239D+06 0.67511239D+06 0.67511239D+06 0.10594143D+01  1  2  3  1  7  1       -2 -.122888689009D-03 0.100000000000D+01
0.405060529909D-03 0.000000000000D+00 0.000000000000D+00 0.156308743047D-04 0.000000000000D+00  7 -2 1 -24 -13 13 23 21 2 0.17711675D+00 0.14241682D+00 0.67511239D+06 0.67511239D+06 0.67511239D+06 0.10594143D+01  1  2 15  1  7  1       -2 0.150395656820D-03 0.100000000000D+01
-.255682270745D-02 0.000000000000D+00 -.162835788428D-02 0.156308743047D-04 0.000000000000D+00  7 -2 1 -24 -13 13 23 21 2 0.42032298D+00 0.14241682D+00 0.67511239D+06 0.67511239D+06 0.67511239D+06 0.10594143D+01  1  2  5  1  7  1       -2 -.207756793575D-04 0.100000000000D+01
-.138782044632D-03 0.000000000000D+00 -.153732211107D-03 0.156308743047D-04 0.000000000000D+00  7 21 1 -24 -13 13 23 2 2 0.42032298D+00 0.14241682D+00 0.67511239D+06 0.67511239D+06 0.67511239D+06 0.10594143D+01  1  2  5  3  7  1       -2 -.838479078978D-05 0.100000000000D+01
  </mgrwgt>
  </event>
  <event>
  8     66 0.26562228E-05 0.13268141E+03 0.75467711E-02 0.10623306E+00
       -2 -1    0    0    0  501 0.00000000E+00 0.00000000E+00 0.51518038E+03 0.51518048E+03 0.32000000E+00 0.0000E+00 0.9000E+01
        1 -1    0    0  501    0 0.00000000E+00 0.00000000E+00 -.10703505E+03 0.10703552E+03 0.32000000E+00 0.0000E+00 0.9000E+01
       25  2    1    2    0    0 -.10299451E+03 -.63544528E+01 0.36691440E+03 0.48504656E+03 0.29999290E+03 0.0000E+00 0.0000E+00
       23  2    3    3    0    0 -.47074780E+02 -.82114268E+02 0.32085103E+03 0.34610898E+03 0.88810217E+02 0.0000E+00 0.0000E+00
      -24  1    1    2    0    0 0.10299451E+03 0.63544528E+01 0.41230927E+02 0.13716944E+03 0.80419002E+02 0.0000E+00 0.9000E+01
      -11  1    4    4    0    0 -.12083369E+02 0.18916607E+02 0.67008095E+02 0.70667749E+02 0.51099893E-03 0.0000E+00 0.9000E+01
       11  1    4    4    0    0 -.34991411E+02 -.10103087E+03 0.25384294E+03 0.27544123E+03 0.51099893E-03 0.0000E+00 0.9000E+01
       23  1    3    3    0    0 -.55919735E+02 0.75759815E+02 0.46063373E+02 0.13893758E+03 0.91188000E+02 0.0000E+00 0.9000E+01
#aMCatNLO 1  0  0  1  2 0.10798283D+02 0.00000000D+00  -5  7  0 0.00000000D+00 0.00000000D+00 0.00000000D+00 0.00000000D+00 0.00000000D+00
  <mgrwgt>
 0.1121287009D-02    9    2    0
 0.234824477287274D+03 0.000000000000000D+00 0.000000000000000D+00 0.234824477287274D+03
 0.234824477287274D+03 0.000000000000000D+00 0.000000000000000D+00 -.234824477287274D+03
 0.145897925338756D+03 0.102994514831275D+03 0.635445283089254D+01 -.645812628219125D+02
 0.353914608398386D+02 -.120833687216726D+02 0.189166072003383D+02 0.273625596891453D+02
 0.144318713819957D+03 -.349914109621883D+02 -.101030874802309D+03 0.969342800778033D+02
 0.144040854575997D+03 -.559197351474141D+02 0.757598147710780D+02 -.597155769450362D+02
 0.000000000000000D+00 0.000000000000000D+00 0.000000000000000D+00 0.000000000000000D+00
 0.247241163956056D+03 0.000000000000000D+00 0.000000000000000D+00 0.247241163956056D+03
 0.237246037319348D+03 0.000000000000000D+00 0.000000000000000D+00 -.237246037319348D+03
 0.143728946301675D+03 0.999779526208198D+02 0.494606234246602D+01 -.645812628219125D+02
 0.354685536258107D+02 -.128213998327318D+02 0.185720308500227D+02 0.273625596891453D+02
 0.146068557296312D+03 -.380158929913767D+02 -.102442962942763D+03 0.969342800778033D+02
 0.144507019317599D+03 -.589250592299641D+02 0.743566712065818D+02 -.597155769450362D+02
 0.147141247340052D+02 0.978439943325280D+01 0.456819854369244D+01 0.999512663670806D+01
0.113638432662D-04 0.000000000000D+00 0.000000000000D+00 0.397079814489D-06 0.000000000000D+00  7 -2 1 -24 -11 11 23 21 0 0.79258564D-01 0.16466975D-01 0.38273222D+05 0.38273222D+05 0.38273222D+05 0.11576474D+01  1  2  2  1  7  1       -2 0.623702909194D-03 0.100000000000D+01
-.605734845385D-06 0.000000000000D+00 -.436401503109D-07 0.397079814489D-06 0.000000000000D+00  7 -2 1 -24 -11 11 23 21 2 0.79258564D-01 0.16466975D-01 0.38273222D+05 0.38273222D+05 0.38273222D+05 0.11576474D+01  1  2  3  1  7  1       -2 -.445541046259D-04 0.100000000000D+01
0.725308098395D-06 0.000000000000D+00 0.000000000000D+00 0.397079814489D-06 0.000000000000D+00  7 -2 1 -24 -11 11 23 21 2 0.79258564D-01 0.16466975D-01 0.38273222D+05 0.38273222D+05 0.38273222D+05 0.11576474D+01  1  2 15  1  7  1       -2 0.533491727414D-04 0.100000000000D+01
0.536955519737D-04 0.000000000000D+00 0.000000000000D+00 0.397079814489D-06 0.000000000000D+00  7 -2 1 -24 -11 11 23 21 2 0.83844589D-01 0.16466975D-01 0.40527666D+05 0.40527666D+05 0.40527666D+05 0.11554064D+01  1  2 12  1  7  1       -2 0.347265323397D-02 0.100000000000D+01
-.544353873348D-04 0.000000000000D+00 0.000000000000D+00 0.397079814489D-06 0.000000000000D+00  7 -2 1 -24 -11 11 23 21 2 0.79258564D-01 0.16466975D-01 0.38273222D+05 0.38273222D+05 0.38273222D+05 0.11576474D+01  1  2  4  1  7  1       -2 -.400393003828D-02 0.100000000000D+01
-.181610380043D-03 0.000000000000D+00 -.237955905701D-04 0.397079814489D-06 0.000000000000D+00  7 -2 1 -24 -11 11 23 21 2 0.84026790D-01 0.16466975D-01 0.38273222D+05 0.38273222D+05 0.38273222D+05 0.11576474D+01  1  2  5  1  7  1       -2 -.117346334847D-01 0.100000000000D+01
0.182729163140D-03 0.000000000000D+00 0.237550420075D-04 0.397079814489D-06 0.000000000000D+00  7 -2 1 -24 -11 11 23 21 2 0.79258564D-01 0.16466975D-01 0.38273222D+05 0.38273222D+05 0.38273222D+05 0.11576474D+01  1  2  6  1  7  1       -2 0.134404258147D-01 0.100000000000D+01
0.754888679430D-06 0.000000000000D+00 0.000000000000D+00 0.397079814489D-06 0.000000000000D+00  7 21 1 -24 -11 11 23 2 2 0.83844589D-01 0.16466975D-01 0.40527666D+05 0.40527666D+05 0.40527666D+05 0.11554064D+01  1  2 12  3  7  1       -2 0.495657601973D-03 0.100000000000D+01
-.179787738403D-05 0.000000000000D+00 -.239272912966D-06 0.397079814489D-06 0.000000000000D+00  7 21 1 -24 -11 11 23 2 2 0.84026790D-01 0.16466975D-01 0.38273222D+05 0.38273222D+05 0.38273222D+05 0.11576474D+01  1  2  5  3  7  1       -2 -.118138409584D-02 0.100000000000D+01
  </mgrwgt>
  </event>
  <event>
  8     66 0.26562228E-05 0.11237023E+03 0.75467711E-02 0.10645294E+00
       -2 -1    0    0    0  501 0.00000000E+00 0.00000000E+00 0.26193925E+02 0.26195880E+02 0.32000000E+00 0.0000E+00 0.9000E+01
        1 -1    0    0  501    0 0.00000000E+00 0.00000000E+00 -.27127561E+04 0.27127561E+04 0.32000000E+00 0.0000E+00 0.9000E+01
       25  2    1    2    0    0 -.83087632E+01 0.12059721E+03 -.23523786E+04 0.23745915E+04 0.30064397E+03 0.0000E+00 0.0000E+00
       23  2    3    3    0    0 -.21995538E+02 -.12399775E+02 -.29553642E+03 0.31139236E+03 0.94793814E+02 0.0000E+00 0.0000E+00
      -24  1    1    2    0    0 0.83087632E+01 -.12059721E+03 -.33418352E+03 0.36436048E+03 0.80419002E+02 0.0000E+00 0.9000E+01
      -11  1    4    4    0    0 -.16716472E+00 -.45342216E+02 -.77385056E+02 0.89690532E+02 0.51099893E-03 0.0000E+00 0.9000E+01
       11  1    4    4    0    0 -.21828373E+02 0.32942442E+02 -.21815137E+03 0.22170183E+03 0.51099893E-03 0.0000E+00 0.9000E+01
       23  1    3    3    0    0 0.13686774E+02 0.13299698E+03 -.20568422E+04 0.20631991E+04 0.91188000E+02 0.0000E+00 0.9000E+01
#aMCatNLO 1  0  0  2  1 0.45422308D+01 0.00000000D+00  -5  7  0 0.00000000D+00 0.00000000D+00 0.00000000D+00 0.00000000D+00 0.00000000D+00
  <mgrwgt>
 0.2737519656D-02   11    2    0
 0.266571625899966D+03 0.000000000000000D+00 0.000000000000000D+00 0.266571625899966D+03
 0.266571625899966D+03 0.000000000000000D+00 0.000000000000000D+00 -.266571625899966D+03
 0.187868968579756D+03 0.830876322977398D+01 -.120597207362545D+03 0.119225884063813D+03
 0.708220450154652D+02 -.167164740227550D+00 -.453422164503751D+02 0.544042050166119D+02
 0.396768750041908D+02 -.218283727730938D+02 0.329424417338564D+02 -.354571357959298D+01
 0.234775363200519D+03 0.136867742835473D+02 0.132996982079064D+03 -.170084375500832D+03
 0.000000000000000D+00 -.000000000000000D+00 -.000000000000000D+00 -.000000000000000D+00
 0.268069587798196D+03 0.000000000000000D+00 0.000000000000000D+00 0.268069587798196D+03
 0.270047005276732D+03 0.000000000000000D+00 0.000000000000000D+00 -.270047005276732D+03
 0.187752236120986D+03 0.988032198520488D+01 -.120296525389268D+03 0.119225884063813D+03
 0.707506229461057D+02 0.425160088829893D+00 -.452288885854090D+02 0.544042050166119D+02
 0.395483978317736D+02 -.214969027452609D+02 0.330058609739621D+02 -.354571357959298D+01
 0.235111343815243D+03 0.156527297706970D+02 0.133373122883986D+03 -.170084375500832D+03
 0.495399236082046D+01 -.446130909947090D+01 -.853569883270432D+00 -.197741747853590D+01
0.211342228186D-04 0.000000000000D+00 0.000000000000D+00 0.147178390196D-06 0.000000000000D+00  7 -2 1 -24 -11 11 23 21 0 0.40299865D-02 0.41734724D+00 0.38393584D+05 0.38393584D+05 0.38393584D+05 0.11575241D+01  1  2  2  2  7  2        1 0.603015002936D-03 0.100000000000D+01
-.103885726118D-05 0.000000000000D+00 -.811609803919D-07 0.147178390196D-06 0.000000000000D+00  7 -2 1 -24 -11 11 23 21 2 0.40299865D-02 0.41734724D+00 0.38393584D+05 0.38393584D+05 0.38393584D+05 0.11575241D+01  1  2  3  2  7  2        1 -.397152986998D-04 0.100000000000D+01
0.134066499874D-05 0.000000000000D+00 0.000000000000D+00 0.147178390196D-06 0.000000000000D+00  7 -2 1 -24 -11 11 23 21 2 0.40299865D-02 0.41734724D+00 0.38393584D+05 0.38393584D+05 0.38393584D+05 0.11575241D+01  1  2 15  2  7  2        1 0.512533462208D-04 0.100000000000D+01
0.256884339595D-05 0.000000000000D+00 0.000000000000D+00 0.147178390196D-06 0.000000000000D+00  7 -2 1 -24 -11 11 23 21 2 0.40299865D-02 0.42394993D+00 0.39307654D+05 0.39307654D+05 0.39307654D+05 0.11566015D+01  1  2 12  2  7  2        1 0.914757923267D-04 0.100000000000D+01
-.170343423090D-03 0.000000000000D+00 0.000000000000D+00 0.147178390196D-06 0.000000000000D+00  7 -2 1 -24 -11 11 23 21 2 0.40299865D-02 0.41734724D+00 0.38393584D+05 0.38393584D+05 0.38393584D+05 0.11575241D+01  1  2  4  2  7  2        1 -.651219390993D-02 0.100000000000D+01
-.103632867342D-02 0.000000000000D+00 -.118294186272D-03 0.147178390196D-06 0.000000000000D+00  7 -2 1 -24 -11 11 23 21 2 0.40299865D-02 0.42360932D+00 0.38393584D+05 0.38393584D+05 0.38393584D+05 0.11575241D+01  1  2  5  2  7  2        1 -.371171804550D-01 0.100000000000D+01
0.103798843570D-02 0.000000000000D+00 0.118281068488D-03 0.147178390196D-06 0.000000000000D+00  7 -2 1 -24 -11 11 23 21 2 0.40299865D-02 0.41734724D+00 0.38393584D+05 0.38393584D+05 0.38393584D+05 0.11575241D+01  1  2  6  2  7  2        1 0.396820836809D-01 0.100000000000D+01
0.167916244629D-03 0.000000000000D+00 0.000000000000D+00 0.147178390196D-06 0.508985381837D-07  7 -2 1 -24 -11 11 23 21 2 0.40526324D-02 0.42278833D+00 0.39307654D+05 0.39307654D+05 0.39307654D+05 0.11566015D+01  1  2 11  2  7  2        1 0.600272088496D-02 0.100000000000D+01
0.152919081894D-06 0.000000000000D+00 0.000000000000D+00 0.147178390196D-06 0.000000000000D+00  7 -2 21 -24 -11 11 23 -1 2 0.40299865D-02 0.42394993D+00 0.39307654D+05 0.39307654D+05 0.39307654D+05 0.11566015D+01  1  2 12  4  7  2        1 0.168491588605D-05 0.100000000000D+01
-.282065320592D-05 0.000000000000D+00 -.323072457751D-06 0.147178390196D-06 0.000000000000D+00  7 -2 21 -24 -11 11 23 -1 2 0.40299865D-02 0.42360932D+00 0.38393584D+05 0.38393584D+05 0.38393584D+05 0.11575241D+01  1  2  5  4  7  2        1 -.313640673674D-04 0.100000000000D+01
0.515631137329D-06 0.000000000000D+00 0.000000000000D+00 0.147178390196D-06 0.121676559973D-09  7 -2 21 -24 -11 11 23 -1 2 0.40526324D-02 0.42278833D+00 0.39307654D+05 0.39307654D+05 0.39307654D+05 0.11566015D+01  1  2 11  4  7  2        1 0.573976408388D-05 0.100000000000D+01
  </mgrwgt>
  </event>
  <event>
  8     66 0.26562228E-05 0.21822899E+03 0.75467711E-02 0.10022019E+00
       -2 -1    0    0    0  501 0.00000000E+00 0.00000000E+00 0.10604686E+03 0.10604735E+03 0.32000000E+00 0.0000E+00 0.9000E+01
        1 -1    0    0  501    0 0.00000000E+00 0.00000000E+00 -.56182549E+03 0.56182558E+03 0.32000000E+00 0.0000E+00 0.9000E+01
       25  2    1    2    0    0 -.11932143E+03 -.59371961E+02 -.27026909E+03 0.42570845E+03 0.30069863E+03 0.0000E+00 0.0000E+00
       23  2    3    3    0    0 0.22130703E+02 0.29023119E+02 -.20192118E+02 0.11158086E+03 0.10349134E+03 0.0000E+00 0.0000E+00
      -24  1    1    2    0    0 0.11932143E+03 0.59371961E+02 -.18550953E+03 0.24216448E+03 0.80419002E+02 0.0000E+00 0.9000E+01
      -11  1    4    4    0    0 -.61806588E+01 -.27123548E+02 -.37189909E+02 0.46443263E+02 0.51099893E-03 0.0000E+00 0.9000E+01
       11  1    4    4    0    0 0.28311362E+02 0.56146667E+02 0.16997791E+02 0.65137595E+02 0.51099893E-03 0.0000E+00 0.9000E+01
       23  1    3    3    0    0 -.14145213E+03 -.88395080E+02 -.25007698E+03 0.31412759E+03 0.91188000E+02 0.0000E+00 0.9000E+01
#aMCatNLO 1  0  0  1  1 0.15815443D+03 0.00000000D+00  -5  7  0 0.00000000D+00 0.00000000D+00 0.00000000D+00 0.00000000D+00 0.00000000D+00
  <mgrwgt>
 0.7888709657D-03    4    2    0
 0.244090193717309D+03 0.000000000000000D+00 0.000000000000000D+00 0.244090193717309D+03
 0.244090193717309D+03 0.000000000000000D+00 0.000000000000000D+00 -.244090193717309D+03
 0.158105124803736D+03 0.119321429953884D+03 0.593719613679268D+02 -.277016442096889D+02
 0.288168729089135D+02 -.618065831039147D+01 -.271235469751560D+02 -.751829944769203D+01
 0.104983459425401D+03 0.283113621997452D+02 0.561466663477549D+02 0.840686944192285D+02
 0.196274930296568D+03 -.141452133843238D+03 -.883950807405257D+02 -.488487507618476D+02
 0.000000000000000D+00 -.000000000000000D+00 -.000000000000000D+00 -.000000000000000D+00
 0.334537560024405D+03 0.000000000000000D+00 0.000000000000000D+00 0.334537560024405D+03
 0.336792686815943D+03 0.000000000000000D+00 0.000000000000000D+00 -.336792686815943D+03
 0.209130261773653D+03 0.173691365226814D+03 0.795749897195809D+02 -.277016442096889D+02
 0.253537502764694D+02 0.183941106182541D+01 -.241434130445975D+02 -.751829944769203D+01
 0.125288602724522D+03 0.624036026859900D+02 0.688148164505185D+02 0.840686944192285D+02
 0.153387121915683D+03 -.896839659567980D+02 -.691588289724707D+02 -.488487507618476D+02
 0.158170510150021D+03 -.148250413017831D+03 -.550875641530312D+02 -.225512679153876D+01
0.104265463511D-04 0.000000000000D+00 0.000000000000D+00 0.837825222942D-08 0.000000000000D+00  7 -2 1 -24 -11 11 23 21 0 0.16314946D-01 0.86434734D-01 0.47623890D+05 0.47623890D+05 0.47623890D+05 0.11491600D+01  1  2  2  1  7  1       -2 0.119350562900D-02 0.100000000000D+01
-.570419123250D-06 0.000000000000D+00 -.400406833610D-07 0.837825222942D-08 0.000000000000D+00  7 -2 1 -24 -11 11 23 21 2 0.16314946D-01 0.86434734D-01 0.47623890D+05 0.47623890D+05 0.47623890D+05 0.11491600D+01  1  2  3  1  7  1       -2 -.862261592143D-04 0.100000000000D+01
0.676742388280D-06 0.000000000000D+00 0.000000000000D+00 0.837825222942D-08 0.000000000000D+00  7 -2 1 -24 -11 11 23 21 2 0.16314946D-01 0.86434734D-01 0.47623890D+05 0.47623890D+05 0.47623890D+05 0.11491600D+01  1  2 15  1  7  1       -2 0.102298283035D-03 0.100000000000D+01
-.278313679823D-05 0.000000000000D+00 0.000000000000D+00 0.837825222942D-08 0.000000000000D+00  7 -2 1 -24 -11 11 23 21 2 0.16314946D-01 0.86434734D-01 0.47623890D+05 0.47623890D+05 0.47623890D+05 0.11491600D+01  1  2  4  1  7  1       -2 -.420706787164D-03 0.100000000000D+01
  </mgrwgt>
  </event>
  <event>
  8     66 0.26562228E-05 0.14858392E+03 0.75467711E-02 0.99761289E-01
       -2 -1    0    0    0  501 0.00000000E+00 0.00000000E+00 0.26888487E+03 0.26888506E+03 0.32000000E+00 0.0000E+00 0.9000E+01
        1 -1    0    0  501    0 0.00000000E+00 0.00000000E+00 -.41989511E+03 0.41989523E+03 0.32000000E+00 0.0000E+00 0.9000E+01
       25  2    1    2    0    0 0.14611026E+03 0.18381449E+03 0.28172994E+02 0.38265968E+03 0.30083008E+03 0.0000E+00 0.0000E+00
       23  2    3    3    0    0 0.16066695E+03 0.18775849E+03 -.41411564E+02 0.26696736E+03 0.92138657E+02 0.0000E+00 0.0000E+00
      -24  1    1    2    0    0 -.14611026E+03 -.18381449E+03 -.17918323E+03 0.30612060E+03 0.80419002E+02 0.0000E+00 0.9000E+01
      -13  1    4    4    0    0 0.43509092E+02 0.43872732E+01 -.20698181E+02 0.48380937E+02 0.10565837E+00 0.0000E+00 0.9000E+01
       13  1    4    4    0    0 0.11715786E+03 0.18337122E+03 -.20713382E+02 0.21858642E+03 0.10565837E+00 0.0000E+00 0.9000E+01
       23  1    3    3    0    0 -.14556691E+02 -.39439972E+01 0.69584557E+02 0.11569233E+03 0.91188000E+02 0.0000E+00 0.9000E+01
#aMCatNLO 1  0  0  1  2 0.45959504D+02 0.00000000D+00  -5  7  0 0.00000000D+00 0.00000000D+00 0.00000000D+00 0.00000000D+00 0.00000000D+00
  <mgrwgt>
 0.9003191724D-03    9    2    0
 0.336011230919009D+03 0.000000000000000D+00 0.000000000000000D+00 0.336011230919009D+03
 0.336011230919009D+03 0.000000000000000D+00 0.000000000000000D+00 -.336011230919009D+03
 0.273489866569230D+03 -.146110259947115D+03 -.183814494268235D+03 -.114863026239015D+03
 0.449360637707836D+02 0.435089946522648D+02 0.438703806731104D+01 -.103426838179024D+02
 0.219382901384727D+03 0.117157955750693D+03 0.183371452587678D+03 0.278887289094438D+02
 0.134213630113278D+03 -.145566904558436D+02 -.394399638675424D+01 0.973169811474737D+02
 0.000000000000000D+00 0.000000000000000D+00 0.000000000000000D+00 0.000000000000000D+00
 0.389372961221217D+03 0.000000000000000D+00 0.000000000000000D+00 0.389372961221217D+03
 0.346839858683602D+03 0.000000000000000D+00 0.000000000000000D+00 -.346839858683602D+03
 0.288025532547944D+03 -.148914092926937D+03 -.202787005441964D+03 -.114863026239015D+03
 0.443092055762631D+02 0.430633633661384D+02 0.137161431837842D+01 -.103426838179024D+02
 0.206317964104960D+03 0.115032289868555D+03 0.168987849858585D+03 0.278887289094438D+02
 0.134939507645546D+03 -.159006615124829D+02 -.130381564429202D+02 0.973169811474737D+02
 0.626206100301057D+02 0.671910120472615D+01 0.454656977079201D+02 0.425331025376147D+02
0.195963768869D-04 0.000000000000D+00 0.000000000000D+00 0.941864385503D-06 0.000000000000D+00  7 -2 1 -24 -13 13 23 21 0 0.41366927D-01 0.64599271D-01 0.90588745D+05 0.90588745D+05 0.90588745D+05 0.11252617D+01  1  2  2  1  7  1       -2 0.674895445363D-03 0.100000000000D+01
-.107264130736D-05 0.000000000000D+00 -.752552470902D-07 0.941864385503D-06 0.000000000000D+00  7 -2 1 -24 -13 13 23 21 2 0.41366927D-01 0.64599271D-01 0.90588745D+05 0.90588745D+05 0.90588745D+05 0.11252617D+01  1  2  3  1  7  1       -2 -.467759174004D-04 0.100000000000D+01
0.126121818854D-05 0.000000000000D+00 0.000000000000D+00 0.941864385503D-06 0.000000000000D+00  7 -2 1 -24 -13 13 23 21 2 0.41366927D-01 0.64599271D-01 0.90588745D+05 0.90588745D+05 0.90588745D+05 0.11252617D+01  1  2 15  1  7  1       -2 0.549994088484D-04 0.100000000000D+01
0.470907096587D-04 0.000000000000D+00 0.000000000000D+00 0.941864385503D-06 0.000000000000D+00  7 -2 1 -24 -13 13 23 21 2 0.48530684D-01 0.64599271D-01 0.10597556D+06 0.10597556D+06 0.10597556D+06 0.11196595D+01  1  2 12  1  7  1       -2 0.149551571184D-02 0.100000000000D+01
-.477867379440D-04 0.000000000000D+00 0.000000000000D+00 0.941864385503D-06 0.000000000000D+00  7 -2 1 -24 -13 13 23 21 2 0.41366927D-01 0.64599271D-01 0.90588745D+05 0.90588745D+05 0.90588745D+05 0.11252617D+01  1  2  4  1  7  1       -2 -.208389187659D-02 0.100000000000D+01
-.839714488827D-04 0.000000000000D+00 -.155046448417D-04 0.941864385503D-06 0.000000000000D+00  7 -2 1 -24 -13 13 23 21 2 0.49154239D-01 0.64599271D-01 0.90588745D+05 0.90588745D+05 0.90588745D+05 0.11252617D+01  1  2  5  1  7  1       -2 -.263400163772D-02 0.100000000000D+01
0.855971077936D-04 0.000000000000D+00 0.152768392179D-04 0.941864385503D-06 0.000000000000D+00  7 -2 1 -24 -13 13 23 21 2 0.41366927D-01 0.64599271D-01 0.90588745D+05 0.90588745D+05 0.90588745D+05 0.11252617D+01  1  2  6  1  7  1       -2 0.373273266319D-02 0.100000000000D+01
0.112983498676D-05 0.000000000000D+00 0.000000000000D+00 0.941864385503D-06 0.000000000000D+00  7 21 1 -24 -13 13 23 2 2 0.48530684D-01 0.64599271D-01 0.10597556D+06 0.10597556D+06 0.10597556D+06 0.11196595D+01  1  2 12  3  7  1       -2 0.387877788599D-03 0.100000000000D+01
-.200366903287D-05 0.000000000000D+00 -.395437404996D-06 0.941864385503D-06 0.000000000000D+00  7 21 1 -24 -13 13 23 2 2 0.49154239D-01 0.64599271D-01 0.90588745D+05 0.90588745D+05 0.90588745D+05 0.11252617D+01  1  2  5  3  7  1       -2 -.681032413697D-03 0.100000000000D+01
  </mgrwgt>
  </event>
  <event>
  8     66 0.26562228E-05 0.10013484E+03 0.75467711E-02 0.10684239E+00
       -2 -1    0    0    0  501 0.00000000E+00 0.00000000E+00 0.86149275E+03 0.86149281E+03 0.32000000E+00 0.0000E+00 0.9000E+01
        1 -1    0    0  501    0 0.00000000E+00 0.00000000E+00 -.58609597E+02 0.58610471E+02 0.32000000E+00 0.0000E+00 0.9000E+01
       25  2    1    2    0    0 -.27059212E+02 0.50093797E+02 0.38996813E+03 0.49559460E+03 0.30049505E+03 0.0000E+00 0.0000E+00
       23  2    3    3    0    0 0.58459736E+02 0.85100360E+02 0.79201699E+02 0.15880093E+03 0.91023149E+02 0.0000E+00 0.0000E+00
      -24  1    1    2    0    0 0.27059212E+02 -.50093797E+02 0.41291502E+03 0.42450868E+03 0.80419002E+02 0.0000E+00 0.9000E+01
      -11  1    4    4    0    0 0.76197283E+02 0.86087634E+02 0.81449863E+02 0.14089424E+03 0.51099893E-03 0.0000E+00 0.9000E+01
       11  1    4    4    0    0 -.17737547E+02 -.98727331E+00 -.22481639E+01 0.17906689E+02 0.51099893E-03 0.0000E+00 0.9000E+01
       23  1    3    3    0    0 -.85518948E+02 -.35006563E+02 0.31076643E+03 0.33679367E+03 0.91188000E+02 0.0000E+00 0.9000E+01
#aMCatNLO 1  0  0  2  1 0.24129825D+02 0.00000000D+00  -5  7  0 0.00000000D+00 0.00000000D+00 0.00000000D+00 0.00000000D+00 0.00000000D+00
  <mgrwgt>
 0.5140349260D-03    9    2    0
 0.224704633665728D+03 0.000000000000000D+00 0.000000000000000D+00 0.224704633665728D+03
 0.224704633665728D+03 0.000000000000000D+00 0.000000000000000D+00 -.224704633665728D+03
 0.131437689091680D+03 0.270592118906084D+02 -.500937970569693D+02 0.869888539277589D+02
 0.142948830722239D+03 0.761972826579515D+02 0.860876337916759D+02 -.849544679728498D+02
 0.406778798529482D+02 -.177375466099039D+02 -.987273306563914D+00 -.365936420845278D+02
 0.134344867664588D+03 -.855189479386560D+02 -.350065634281427D+02 0.345592561296187D+02
 0.000000000000000D+00 0.000000000000000D+00 -.000000000000000D+00 -.000000000000000D+00
 0.232127906293872D+03 0.000000000000000D+00 0.000000000000000D+00 0.232127906293872D+03
 0.245531131330545D+03 0.000000000000000D+00 0.000000000000000D+00 -.245531131330545D+03
 0.128624588942903D+03 0.226482016991971D+02 -.446885575789579D+02 0.869888539277589D+02
 0.144149190296994D+03 0.713277094687116D+02 0.920547950770421D+02 -.849544679728498D+02
 0.412975419501678D+02 -.191279613357593D+02 0.716536986514868D+00 -.365936420845278D+02
 0.135985273033075D+03 -.901041150558358D+02 -.293879125432916D+02 0.345592561296187D+02
 0.276024434012760D+02 0.152561652236864D+02 -.186948619413074D+02 -.134032250366724D+02
0.133887398465D-04 0.000000000000D+00 0.000000000000D+00 0.990352585134D-06 0.000000000000D+00  7 -2 1 -24 -11 11 23 21 0 0.13253742D+00 0.90169329D-02 0.32596078D+05 0.32596078D+05 0.32596078D+05 0.11640064D+01  1  2  2  2  7  2        1 0.473557726417D-03 0.100000000000D+01
-.700518109224D-06 0.000000000000D+00 -.514162863469D-07 0.990352585134D-06 0.000000000000D+00  7 -2 1 -24 -11 11 23 21 2 0.13253742D+00 0.90169329D-02 0.32596078D+05 0.32596078D+05 0.32596078D+05 0.11640064D+01  1  2  3  2  7  2        1 -.335709259016D-04 0.100000000000D+01
0.830093849236D-06 0.000000000000D+00 0.000000000000D+00 0.990352585134D-06 0.000000000000D+00  7 -2 1 -24 -11 11 23 21 2 0.13253742D+00 0.90169329D-02 0.32596078D+05 0.32596078D+05 0.32596078D+05 0.11640064D+01  1  2 15  2  7  2        1 0.397805834526D-04 0.100000000000D+01
0.351477233548D-04 0.000000000000D+00 0.000000000000D+00 0.990352585134D-06 0.000000000000D+00  7 -2 1 -24 -11 11 23 21 2 0.13253742D+00 0.99917473D-02 0.37247994D+05 0.37247994D+05 0.37247994D+05 0.11587153D+01  1  2 12  2  7  2        1 0.145739375503D-02 0.100000000000D+01
-.345312524977D-04 0.000000000000D+00 0.000000000000D+00 0.990352585134D-06 0.000000000000D+00  7 -2 1 -24 -11 11 23 21 2 0.13253742D+00 0.90169329D-02 0.32596078D+05 0.32596078D+05 0.32596078D+05 0.11640064D+01  1  2  4  2  7  2        1 -.165484104354D-02 0.100000000000D+01
-.825920496745D-04 0.000000000000D+00 -.166757127770D-04 0.990352585134D-06 0.000000000000D+00  7 -2 1 -24 -11 11 23 21 2 0.13253742D+00 0.10174870D-01 0.32596078D+05 0.32596078D+05 0.32596078D+05 0.11640064D+01  1  2  5  2  7  2        1 -.337577723911D-02 0.100000000000D+01
0.841130910851D-04 0.000000000000D+00 0.165547435168D-04 0.990352585134D-06 0.000000000000D+00  7 -2 1 -24 -11 11 23 21 2 0.13253742D+00 0.90169329D-02 0.32596078D+05 0.32596078D+05 0.32596078D+05 0.11640064D+01  1  2  6  2  7  2        1 0.403095125020D-02 0.100000000000D+01
0.583926894861D-06 0.000000000000D+00 0.000000000000D+00 0.990352585134D-06 0.000000000000D+00  7 -2 21 -24 -11 11 23 -1 2 0.13253742D+00 0.99917473D-02 0.37247994D+05 0.37247994D+05 0.37247994D+05 0.11587153D+01  1  2 12  4  7  2        1 0.279194601996D-03 0.100000000000D+01
-.149794707452D-05 0.000000000000D+00 -.318209808660D-06 0.990352585134D-06 0.000000000000D+00  7 -2 21 -24 -11 11 23 -1 2 0.13253742D+00 0.10174870D-01 0.32596078D+05 0.32596078D+05 0.32596078D+05 0.11640064D+01  1  2  5  4  7  2        1 -.702653782521D-03 0.100000000000D+01
  </mgrwgt>
  </event>
  <event>
  9     66 0.26562228E-05 0.31079503E+03 0.75467711E-02 0.94619399E-01
       21 -1    0    0  502  501 0.00000000E+00 0.00000000E+00 0.57855256E+03 0.57855304E+03 0.75000000E+00 0.0000E+00 0.9000E+01
        1 -1    0    0  501    0 0.00000000E+00 0.00000000E+00 -.10163519E+04 0.10163520E+04 0.32000000E+00 0.0000E+00 0.9000E+01
       25  2    1    2    0    0 0.18359173E+03 -.12262070E+03 0.14813989E+03 0.40098551E+03 0.30017027E+03 0.0000E+00 0.0000E+00
       23  2    3    3    0    0 0.14299417E+03 -.22767267E+02 0.18613369E+03 0.25477453E+03 0.96429395E+02 0.0000E+00 0.0000E+00
      -24  1    1    2    0    0 -.33081027E+03 -.17455832E+03 -.73631155E+03 0.82977585E+03 0.80419002E+02 0.0000E+00 0.9000E+01
      -13  1    4    4    0    0 0.84715486E+02 -.85712206E+01 0.34796561E+02 0.91983647E+02 0.10565837E+00 0.0000E+00 0.9000E+01
       13  1    4    4    0    0 0.58278684E+02 -.14196047E+02 0.15133713E+03 0.16279088E+03 0.10565837E+00 0.0000E+00 0.9000E+01
       23  1    3    3    0    0 0.40597563E+02 -.99853429E+02 -.37993800E+02 0.14621098E+03 0.91188000E+02 0.0000E+00 0.9000E+01
        2  1    1    2  502    0 0.14721853E+03 0.29717902E+03 0.15037230E+03 0.36414365E+03 0.32000000E+00 0.0000E+00 0.9000E+01
#aMCatNLO 2  0  0  1  2 0.33164539D+03 0.00000000D+00  -5  7  0 0.00000000D+00 0.00000000D+00 0.00000000D+00 0.00000000D+00 0.00000000D+00
  <mgrwgt>
 0.2018099992D-03    1    2    0
 0.514499502494185D+03 0.000000000000000D+00 0.000000000000000D+00 0.514499502494185D+03
 0.514499502494185D+03 0.000000000000000D+00 0.000000000000000D+00 -.514499502494185D+03
 0.473860506495266D+03 -.259793349150382D+03 -.312017947856742D+02 -.386795071583079D+03
 0.139553673184905D+03 0.103078339974491D+03 0.284964415683604D+02 0.896550965949159D+02
 0.285452228008948D+03 0.968677817194868D+02 0.637009280483416D+02 0.260848230022360D+03
 0.130132597299251D+03 0.598472274564049D+02 -.609955748310279D+02 0.362917449658034D+02
 0.000000000000000D+00 0.000000000000000D+00 0.000000000000000D+00 0.000000000000000D+00
 0.973384568362858D+03 0.000000000000000D+00 0.000000000000000D+00 0.973384568362858D+03
 0.604091488775516D+03 0.000000000000000D+00 0.000000000000000D+00 -.604091488775516D+03
 0.544043826100155D+03 -.330810266840534D+03 -.174558324680493D+03 -.386795071583079D+03
 0.123645545163260D+03 0.847155168417071D+02 -.857121342158880D+01 0.896550965949159D+02
 0.267655989086049D+03 0.582786535771330D+02 -.141960531511323D+02 0.260848230022360D+03
 0.145777953391451D+03 0.405975629832367D+02 -.998534299769383D+02 0.362917449658034D+02
 0.496352743397459D+03 0.147218533438457D+03 0.297179021230152D+03 0.369293079587341D+03
0.998605826531D-05 0.000000000000D+00 0.000000000000D+00 0.903329074724D-06 0.529581644178D-11  7 21 1 -24 -13 13 23 2 2 0.89008120D-01 0.15636186D+00 0.25027607D+06 0.25027607D+06 0.25027607D+06 0.10904231D+01  1  2  1  3  7  1       -2 0.201809999185D-03 0.100000000000D+01
  </mgrwgt>
  </event>
  <event>
  8     66 0.26562228E-05 0.43215989E+03 0.75467711E-02 0.88331187E-01
       -2 -1    0    0    0  501 0.00000000E+00 0.00000000E+00 0.49375693E+03 0.49375704E+03 0.32000000E+00 0.0000E+00 0.9000E+01
        1 -1    0    0  501    0 0.00000000E+00 0.00000000E+00 -.78158417E+03 0.78158424E+03 0.32000000E+00 0.0000E+00 0.9000E+01
       25  2    1    2    0    0 -.36611481E+03 -.14890725E+03 0.28739837E+03 0.57279936E+03 0.29881075E+03 0.0000E+00 0.0000E+00
       23  2    3    3    0    0 -.28820734E+03 -.26224352E+02 0.25884098E+03 0.39886994E+03 0.91364060E+02 0.0000E+00 0.0000E+00
      -24  1    1    2    0    0 0.36611481E+03 0.14890725E+03 -.57522561E+03 0.70254191E+03 0.80419002E+02 0.0000E+00 0.9000E+01
      -11  1    4    4    0    0 -.20920921E+03 -.17674819E+02 0.23666936E+03 0.31637521E+03 0.51099893E-03 0.0000E+00 0.9000E+01
       11  1    4    4    0    0 -.78998131E+02 -.85495337E+01 0.22171622E+02 0.82494727E+02 0.51099893E-03 0.0000E+00 0.9000E+01
       23  1    3    3    0    0 -.77907475E+02 -.12268290E+03 0.28557386E+02 0.17392942E+03 0.91188000E+02 0.0000E+00 0.9000E+01
#aMCatNLO 1  0  0  2  2 0.70404685D+03 0.00000000D+00  -5  7  0 0.00000000D+00 0.00000000D+00 0.00000000D+00 0.00000000D+00 0.00000000D+00
  <mgrwgt>
 0.2039418739D-02    3    2    0
 0.621218730286453D+03 0.000000000000000D+00 0.000000000000000D+00 0.621218730286453D+03
 0.621218730286453D+03 0.000000000000000D+00 0.000000000000000D+00 -.621218730286453D+03
 0.587888824194814D+03 0.366114811032834D+03 0.148907247835809D+03 -.427706243049066D+03
 0.379581485340757D+03 -.209209205451577D+03 -.176748185611982D+02 0.316229684180097D+03
 0.898158102490146D+02 -.789981305980005D+02 -.854953369221689D+01 0.418698054253171D+02
 0.185151340788320D+03 -.779074749832565D+02 -.122682895582394D+03 0.696067534436525D+02
 0.000000000000000D+00 -.000000000000000D+00 -.000000000000000D+00 0.000000000000000D+00
 0.182779123136038D+04 0.000000000000000D+00 0.000000000000000D+00 0.182779123136038D+04
 0.825288727350278D+03 0.000000000000000D+00 0.000000000000000D+00 -.825288727350278D+03
 0.835120207301720D+03 0.514163196035120D+03 0.493621436111826D+03 -.427706243049066D+03
 0.380302867143491D+03 -.130151624871440D+03 0.166401959556490D+03 0.316229684180097D+03
 0.811167218059847D+02 -.612144870968203D+02 0.328577010709637D+02 0.418698054253171D+02
 0.131512308873251D+03 -.449621170244097D+02 -.459732960411944D+02 0.696067534436525D+02
 0.122502785358621D+04 -.277834967042449D+03 -.646907800698085D+03 0.100250250401010D+04
0.495118589160D-03 0.000000000000D+00 0.000000000000D+00 0.481459957429D-05 0.000000000000D+00  7 -2 1 -24 -11 11 23 21 0 0.75962618D-01 0.12024373D+00 0.18676217D+06 0.18676217D+06 0.18676217D+06 0.11001169D+01  1  2  2  2  7  2        1 0.199861572831D-02 0.100000000000D+01
-.231024344503D-04 0.000000000000D+00 -.190138575009D-05 0.481459957429D-05 0.000000000000D+00  7 -2 1 -24 -11 11 23 21 2 0.75962618D-01 0.12024373D+00 0.18676217D+06 0.18676217D+06 0.18676217D+06 0.11001169D+01  1  2  3  2  7  2        1 -.112864014165D-03 0.100000000000D+01
0.314545108699D-04 0.000000000000D+00 0.000000000000D+00 0.481459957429D-05 0.000000000000D+00  7 -2 1 -24 -11 11 23 21 2 0.75962618D-01 0.12024373D+00 0.18676217D+06 0.18676217D+06 0.18676217D+06 0.11001169D+01  1  2 15  2  7  2        1 0.153667024487D-03 0.100000000000D+01
  </mgrwgt>
  </event>
  <event>
  9     66 -.26562228E-05 0.26808528E+03 0.75467711E-02 0.10201813E+00
       -2 -1    0    0    0  502 0.00000000E+00 0.00000000E+00 0.10724845E+03 0.10724892E+03 0.32000000E+00 0.0000E+00 0.9000E+01
        1 -1    0    0  501    0 0.00000000E+00 0.00000000E+00 -.14618785E+04 0.14618785E+04 0.32000000E+00 0.0000E+00 0.9000E+01
       25  2    1    2    0    0 0.54055008E+02 -.17940201E+03 -.13004335E+04 0.13475743E+04 0.29953671E+03 0.0000E+00 0.0000E+00
       23  2    3    3    0    0 0.11122075E+03 -.19487111E+03 -.82600817E+03 0.86084867E+03 0.91793978E+02 0.0000E+00 0.0000E+00
      -24  1    1    2    0    0 -.63508746E+02 0.17489004E+03 -.45093219E+02 0.20765476E+03 0.80419002E+02 0.0000E+00 0.9000E+01
      -11  1    4    4    0    0 0.38900470E+02 -.54964323E+02 -.12111476E+03 0.13857528E+03 0.51099893E-03 0.0000E+00 0.9000E+01
       11  1    4    4    0    0 0.72320281E+02 -.13990678E+03 -.70489341E+03 0.72227339E+03 0.51099893E-03 0.0000E+00 0.9000E+01
       23  1    3    3    0    0 -.57165743E+02 0.15469095E+02 -.47442534E+03 0.48672566E+03 0.91188000E+02 0.0000E+00 0.9000E+01
       21  1    1    2  501  502 0.94537386E+01 0.45119747E+01 -.91032863E+01 0.13898324E+02 0.75000000E+00 0.0000E+00 0.9000E+01
#aMCatNLO 2  0  0  1  2 0.10475261D+02 0.00000000D+00  -5  7  0 0.00000000D+00 0.00000000D+00 0.00000000D+00 0.00000000D+00 0.00000000D+00
  <mgrwgt>
 -.3404442495D-03    3    2    0
 0.389931285820692D+03 0.000000000000000D+00 0.000000000000000D+00 0.389931285820692D+03
 0.389931285820692D+03 0.000000000000000D+00 0.000000000000000D+00 -.389931285820692D+03
 0.336553273793981D+03 -.594307765103087D+02 0.176836325512382D+03 0.268324033455329D+03
 0.675412834159623D+02 0.397182218998138D+02 -.545740354087986D+02 -.244181772286484D+01
 0.224270423071043D+03 0.750383043979975D+02 -.138609556674540D+03 -.159542678729002D+03
 0.151497591360398D+03 -.553257497875027D+02 0.163472665709564D+02 -.106339537003463D+03
 0.000000000000000D+00 0.000000000000000D+00 0.000000000000000D+00 0.000000000000000D+00
 0.398871553169708D+03 0.000000000000000D+00 0.000000000000000D+00 0.398871553169708D+03
 0.393047031963156D+03 0.000000000000000D+00 0.000000000000000D+00 -.393047031963156D+03
 0.336280967357667D+03 -.635087463991016D+02 0.174890037605679D+03 0.268324033455329D+03
 0.673816430937795D+02 0.389004697731195D+02 -.549643230073509D+02 -.244181772286484D+01
 0.224182955931886D+03 0.723202807537621D+02 -.139906784631874D+03 -.159542678729002D+03
 0.152087354922848D+03 -.571657427514678D+02 0.154690952867530D+02 -.106339537003463D+03
 0.119856638266834D+02 0.945373862368784D+01 0.451197474679258D+01 0.582452120655133D+01
-.350081024543D-04 0.000000000000D+00 0.000000000000D+00 0.404760470468D-05 0.000000000000D+00  7 -2 1 -24 -11 11 23 21 2 0.16562741D-01 0.22311494D+00 0.74730233D+05 0.74730233D+05 0.74730233D+05 0.11322534D+01  1  2 13  1  7  1       -2 -.100287956090D-02 0.100000000000D+01
-.183381020009D-03 0.000000000000D+00 0.000000000000D+00 0.404760470468D-05 0.000000000000D+00  7 -2 1 -24 -11 11 23 21 2 0.16129496D-01 0.22311494D+00 0.71869716D+05 0.71869716D+05 0.71869716D+05 0.11336877D+01  1  2  8  1  7  1       -2 -.550104568306D-02 0.100000000000D+01
0.217641367458D-03 0.000000000000D+00 0.000000000000D+00 0.404760470468D-05 0.252264210309D-06  7 -2 1 -24 -11 11 23 21 2 0.16499310D-01 0.22489774D+00 0.74730233D+05 0.74730233D+05 0.74730233D+05 0.11322534D+01  1  2  1  1  7  1       -2 0.616348099443D-02 0.100000000000D+01
  </mgrwgt>
  </event>
  <event>
  8     66 0.26562228E-05 0.16322611E+03 0.75467711E-02 0.94387266E-01
       -2 -1    0    0    0  501 0.00000000E+00 0.00000000E+00 0.48742528E+02 0.48743578E+02 0.32000000E+00 0.0000E+00 0.9000E+01
        1 -1    0    0  501    0 0.00000000E+00 0.00000000E+00 -.22371374E+04 0.22371374E+04 0.32000000E+00 0.0000E+00 0.9000E+01
       25  2    1    2    0    0 0.19614596E+03 -.16428092E+03 -.13730189E+04 0.14275298E+04 0.29529509E+03 0.0000E+00 0.0000E+00
       23  2    3    3    0    0 0.22315740E+03 -.85201041E+02 -.99568294E+03 0.10304393E+04 0.11559499E+03 0.0000E+00 0.0000E+00
      -24  1    1    2    0    0 -.19614596E+03 0.16428092E+03 -.81537602E+03 0.85835117E+03 0.80419002E+02 0.0000E+00 0.9000E+01
      -13  1    4    4    0    0 0.23193537E+03 -.61363494E+02 -.90612400E+03 0.93734744E+03 0.10565837E+00 0.0000E+00 0.9000E+01
       13  1    4    4    0    0 -.87779775E+01 -.23837547E+02 -.89558936E+02 0.93091867E+02 0.10565837E+00 0.0000E+00 0.9000E+01
       23  1    3    3    0    0 -.27011432E+02 -.79079881E+02 -.37733591E+03 0.39709053E+03 0.91188000E+02 0.0000E+00 0.9000E+01
#aMCatNLO 1  0  0  2  1 0.29934250D+03 0.00000000D+00  -5  7  0 0.00000000D+00 0.00000000D+00 0.00000000D+00 0.00000000D+00 0.00000000D+00
  <mgrwgt>
 0.1714743587D-02    7    2    0
 0.330219561869580D+03 0.000000000000000D+00 0.000000000000000D+00 0.330219561869580D+03
 0.330219561869580D+03 0.000000000000000D+00 0.000000000000000D+00 -.330219561869580D+03
 0.269099641401295D+03 -.196145965373376D+03 0.164280923160690D+03 0.220440377688170D+02
 0.241820488474727D+03 0.231935601809371D+03 -.613635200314882D+02 -.302909832924826D+02
 0.254473336242325D+02 -.877806748766086D+01 -.238374268664901D+02 -.151307638597753D+01
 0.124071660238905D+03 -.270115689483339D+02 -.790799762627113D+02 0.976002190964321D+01
 0.000000000000000D+00 0.000000000000000D+00 0.000000000000000D+00 -.000000000000000D+00
 0.415744483530925D+03 0.000000000000000D+00 0.000000000000000D+00 0.415744483530925D+03
 0.783722607647417D+03 0.000000000000000D+00 0.000000000000000D+00 -.783722607647417D+03
 0.280451465891486D+03 -.259966895307525D+03 0.641644957069414D+02 0.220440377688170D+02
 0.232444784679169D+03 0.176857829484860D+03 -.147764482896344D+03 -.302909832924826D+02
 0.391884441266740D+02 -.162844038198741D+02 -.356126795558958D+02 -.151307638597753D+01
 0.173026169931742D+03 -.615143832476541D+02 -.133204830104738D+03 0.976002190964321D+01
 0.474356226549270D+03 0.160907852890194D+03 0.252417496850036D+03 -.367978124116492D+03
0.733428438118D-04 0.000000000000D+00 0.000000000000D+00 0.182880754770D-09 0.000000000000D+00  7 -2 1 -24 -13 13 23 21 0 0.74989330D-02 0.34417507D+00 0.10797814D+06 0.10797814D+06 0.10797814D+06 0.11189967D+01  1  2  2  2  7  2        1 0.169726604658D-02 0.100000000000D+01
-.407448272012D-05 0.000000000000D+00 -.281655831852D-06 0.182880754770D-09 0.000000000000D+00  7 -2 1 -24 -13 13 23 21 2 0.74989330D-02 0.34417507D+00 0.10797814D+06 0.10797814D+06 0.10797814D+06 0.11189967D+01  1  2  3  2  7  2        1 -.118065293598D-03 0.100000000000D+01
0.470021309469D-05 0.000000000000D+00 0.000000000000D+00 0.182880754770D-09 0.000000000000D+00  7 -2 1 -24 -13 13 23 21 2 0.74989330D-02 0.34417507D+00 0.10797814D+06 0.10797814D+06 0.10797814D+06 0.11189967D+01  1  2 15  2  7  2        1 0.136196930289D-03 0.100000000000D+01
0.499127312344D-06 0.000000000000D+00 0.000000000000D+00 0.182880754770D-09 0.000000000000D+00  7 -2 1 -24 -13 13 23 21 2 0.74989330D-02 0.80480470D+00 0.26076282D+06 0.26076282D+06 0.26076282D+06 0.10890846D+01  1  2 12  2  7  2        1 0.191699641851D-07 0.100000000000D+01
-.295796850799D-04 0.000000000000D+00 -.164889957460D-04 0.182880754770D-09 0.000000000000D+00  7 -2 1 -24 -13 13 23 21 2 0.74989330D-02 0.83053526D+00 0.10797814D+06 0.10797814D+06 0.10797814D+06 0.11189967D+01  1  2  5  2  7  2        1 -.672204009927D-06 0.100000000000D+01
0.462307349306D-07 0.000000000000D+00 0.000000000000D+00 0.182880754770D-09 0.000000000000D+00  7 -2 21 -24 -13 13 23 -1 2 0.74989330D-02 0.80480470D+00 0.26076282D+06 0.26076282D+06 0.26076282D+06 0.10890846D+01  1  2 12  4  7  2        1 0.542479425334D-10 0.100000000000D+01
-.181868377499D-05 0.000000000000D+00 -.159042761048D-05 0.182880754770D-09 0.000000000000D+00  7 -2 21 -24 -13 13 23 -1 2 0.74989330D-02 0.83053526D+00 0.10797814D+06 0.10797814D+06 0.10797814D+06 0.11189967D+01  1  2  5  4  7  2        1 -.111681432621D-08 0.100000000000D+01
  </mgrwgt>
  </event>
  <event>
  8     66 0.26562228E-05 0.21449735E+03 0.75467711E-02 0.10126037E+00
       -2 -1    0    0    0  501 0.00000000E+00 0.00000000E+00 0.53848668E+02 0.53849619E+02 0.32000000E+00 0.0000E+00 0.9000E+01
        1 -1    0    0  501    0 0.00000000E+00 0.00000000E+00 -.15990332E+04 0.15990333E+04 0.32000000E+00 0.0000E+00 0.9000E+01
       25  2    1    2    0    0 -.11009553E+03 -.92723620E+01 -.46884017E+03 0.56789834E+03 0.30081624E+03 0.0000E+00 0.0000E+00
       23  2    3    3    0    0 -.77467658E+02 0.10034225E+03 -.14883274E+03 0.21604617E+03 0.91950845E+02 0.0000E+00 0.0000E+00
      -24  1    1    2    0    0 0.11009553E+03 0.92723620E+01 -.10763444E+04 0.10849846E+04 0.80419002E+02 0.0000E+00 0.9000E+01
      -11  1    4    4    0    0 -.51170943E+02 0.10729261E+03 -.14662555E+03 0.18875704E+03 0.51099893E-03 0.0000E+00 0.9000E+01
       11  1    4    4    0    0 -.26296715E+02 -.69503633E+01 -.22071936E+01 0.27289128E+02 0.51099893E-03 0.0000E+00 0.9000E+01
       23  1    3    3    0    0 -.32627872E+02 -.10961461E+03 -.32000743E+03 0.35185217E+03 0.91188000E+02 0.0000E+00 0.9000E+01
#aMCatNLO 1  0  0  2  2 0.13663786D+03 0.00000000D+00  -5  7  0 0.00000000D+00 0.00000000D+00 0.00000000D+00 0.00000000D+00 0.00000000D+00
  <mgrwgt>
 0.1634418303D-02    7    2    0
 0.293439299923340D+03 0.000000000000000D+00 0.000000000000000D+00 0.293439299923340D+03
 0.293439299923340D+03 0.000000000000000D+00 0.000000000000000D+00 -.293439299923340D+03
 0.221854483050127D+03 0.110095530311449D+03 0.927236196669408D+01 -.174771831838165D+03
 0.145566305917714D+03 -.511709427077336D+02 0.107292608990140D+03 0.840201172161788D+02
 0.710457166588036D+02 -.262967151588067D+02 -.695036330296724D+01 0.656328353598742D+02
 0.148412094220036D+03 -.326278724449084D+02 -.109614607653867D+03 0.251188792621124D+02
 0.000000000000000D+00 0.000000000000000D+00 -.000000000000000D+00 -.000000000000000D+00
 0.368594999341647D+03 0.000000000000000D+00 0.000000000000000D+00 0.368594999341647D+03
 0.370632863400455D+03 0.000000000000000D+00 0.000000000000000D+00 -.370632863400455D+03
 0.202984976687659D+03 0.621185681891639D+02 0.182146943037569D+02 -.174771831838165D+03
 0.165748642676711D+03 -.863276240245641D+02 0.113845394208220D+03 0.840201172161788D+02
 0.786681268340715D+02 -.432038438018773D+02 -.379907659151486D+01 0.656328353598742D+02
 0.155173059232790D+03 -.669116308723481D+02 -.103224524829524D+03 0.251188792621124D+02
 0.136653057310871D+03 0.134324530509626D+03 -.250364870909379D+02 -.203786405880802D+01
0.252161062477D-04 0.000000000000D+00 0.000000000000D+00 0.103959925044D-05 0.000000000000D+00  7 -2 1 -24 -11 11 23 21 0 0.82844861D-02 0.24600519D+00 0.46009114D+05 0.46009114D+05 0.46009114D+05 0.11504866D+01  1  2  2  2  7  2        1 0.133424447726D-02 0.100000000000D+01
-.123362739524D-05 0.000000000000D+00 -.968364875444D-07 0.103959925044D-05 0.000000000000D+00  7 -2 1 -24 -11 11 23 21 2 0.82844861D-02 0.24600519D+00 0.46009114D+05 0.46009114D+05 0.46009114D+05 0.11504866D+01  1  2  3  2  7  2        1 -.863981726615D-04 0.100000000000D+01
0.158763046067D-05 0.000000000000D+00 0.000000000000D+00 0.103959925044D-05 0.000000000000D+00  7 -2 1 -24 -11 11 23 21 2 0.82844861D-02 0.24600519D+00 0.46009114D+05 0.46009114D+05 0.46009114D+05 0.11504866D+01  1  2 15  2  7  2        1 0.111191086704D-03 0.100000000000D+01
-.925307780234D-05 0.000000000000D+00 0.000000000000D+00 0.103959925044D-05 0.000000000000D+00  7 -2 1 -24 -11 11 23 21 2 0.82844861D-02 0.24600519D+00 0.46009114D+05 0.46009114D+05 0.46009114D+05 0.11504866D+01  1  2  4  2  7  2        1 -.648047389920D-03 0.100000000000D+01
-.164928130984D-04 0.000000000000D+00 -.965667403004D-05 0.103959925044D-05 0.000000000000D+00  7 -2 1 -24 -11 11 23 21 2 0.82844861D-02 0.35000031D+00 0.46009114D+05 0.46009114D+05 0.46009114D+05 0.11504866D+01  1  2  5  2  7  2        1 -.420336806246D-03 0.100000000000D+01
0.192586990782D-04 0.000000000000D+00 0.908603976917D-05 0.103959925044D-05 0.000000000000D+00  7 -2 1 -24 -11 11 23 21 2 0.82844861D-02 0.24600519D+00 0.46009114D+05 0.46009114D+05 0.46009114D+05 0.11504866D+01  1  2  6  2  7  2        1 0.134879981964D-02 0.100000000000D+01
-.440226528028D-06 0.000000000000D+00 -.419373997097D-06 0.103959925044D-05 0.000000000000D+00  7 -2 21 -24 -11 11 23 -1 2 0.82844861D-02 0.35000031D+00 0.46009114D+05 0.46009114D+05 0.46009114D+05 0.11504866D+01  1  2  5  4  7  2        1 -.503471162038D-05 0.100000000000D+01
  </mgrwgt>
  </event>
  <event>
  8     66 0.26562228E-05 0.25614517E+03 0.75467711E-02 0.98653572E-01
       -2 -1    0    0    0  501 0.00000000E+00 0.00000000E+00 0.52687835E+03 0.52687845E+03 0.32000000E+00 0.0000E+00 0.9000E+01
        1 -1    0    0  501    0 0.00000000E+00 0.00000000E+00 -.40025283E+03 0.40025296E+03 0.32000000E+00 0.0000E+00 0.9000E+01
       25  2    1    2    0    0 0.81774092E+02 -.14557915E+03 -.30450366E+03 0.45785550E+03 0.29837710E+03 0.0000E+00 0.0000E+00
       23  2    3    3    0    0 0.28453014E+02 -.19051104E+03 -.12994421E+03 0.24893383E+03 0.89322588E+02 0.0000E+00 0.0000E+00
      -24  1    1    2    0    0 -.81774092E+02 0.14557915E+03 0.43112918E+03 0.46927590E+03 0.80419002E+02 0.0000E+00 0.9000E+01
      -11  1    4    4    0    0 -.27268617E+02 -.11578743E+03 -.68059359E+02 0.13704883E+03 0.51099893E-03 0.0000E+00 0.9000E+01
       11  1    4    4    0    0 0.55721631E+02 -.74723606E+02 -.61884850E+02 0.11188500E+03 0.51099893E-03 0.0000E+00 0.9000E+01
       23  1    3    3    0    0 0.53321079E+02 0.44931889E+02 -.17455945E+03 0.20892167E+03 0.91188000E+02 0.0000E+00 0.9000E+01
#aMCatNLO 1  0  0  2  1 0.19184881D+03 0.00000000D+00  -5  7  0 0.00000000D+00 0.00000000D+00 0.00000000D+00 0.00000000D+00 0.00000000D+00
  <mgrwgt>
 0.8333079728D-03    4    2    0
 0.459221793265473D+03 0.000000000000000D+00 0.000000000000000D+00 0.459221793265473D+03
 0.459221793265473D+03 0.000000000000000D+00 0.000000000000000D+00 -.459221793265473D+03
 0.414275279176622D+03 -.817740923873500D+02 0.145579146890260D+03 0.370508435514533D+03
 0.147728538746965D+03 -.272686174219513D+02 -.115787429697427D+03 -.875980295912659D+02
 0.121475391148566D+03 0.557216311053037D+02 -.747236062544912D+02 -.778957839037858D+02
 0.234964377458793D+03 0.533210787039976D+02 0.449318890616578D+02 -.205014622019482D+03
 0.000000000000000D+00 -.000000000000000D+00 0.000000000000000D+00 0.000000000000000D+00
 0.590624649394766D+03 0.000000000000000D+00 0.000000000000000D+00 0.590624649394766D+03
 0.544871298806743D+03 0.000000000000000D+00 0.000000000000000D+00 -.544871298806743D+03
 0.394837608249322D+03 -.608510724277193D+01 0.110072665163025D+03 0.370508435514533D+03
 0.156032178149116D+03 0.114687409468598D+01 -.129117429146866D+03 -.875980295912659D+02
 0.141263789508761D+03 0.802997366462208D+02 -.862534484582367D+02 -.778957839037858D+02
 0.246133224739149D+03 0.983256631467154D+02 0.238197754284150D+02 -.205014622019482D+03
 0.197229147555162D+03 -.173687166644850D+03 0.814784370136628D+02 0.457533505880231D+02
0.137486284972D-03 0.000000000000D+00 0.000000000000D+00 0.406143996069D-06 0.000000000000D+00  7 -2 1 -24 -11 11 23 21 0 0.81058225D-01 0.61577376D-01 0.65610349D+05 0.65610349D+05 0.65610349D+05 0.11370584D+01  1  2  2  2  7  2        1 0.129205620252D-02 0.100000000000D+01
-.447308035982D-05 0.000000000000D+00 -.527983535262D-06 0.406143996069D-06 0.000000000000D+00  7 -2 1 -24 -11 11 23 21 2 0.81058225D-01 0.61577376D-01 0.65610349D+05 0.65610349D+05 0.65610349D+05 0.11370584D+01  1  2  3  2  7  2        1 -.543493364982D-04 0.100000000000D+01
0.833603049025D-05 0.000000000000D+00 0.000000000000D+00 0.406143996069D-06 0.000000000000D+00  7 -2 1 -24 -11 11 23 21 2 0.81058225D-01 0.61577376D-01 0.65610349D+05 0.65610349D+05 0.65610349D+05 0.11370584D+01  1  2 15  2  7  2        1 0.101285398367D-03 0.100000000000D+01
-.416190264438D-04 0.000000000000D+00 0.000000000000D+00 0.406143996069D-06 0.000000000000D+00  7 -2 1 -24 -11 11 23 21 2 0.81058225D-01 0.61577376D-01 0.65610349D+05 0.65610349D+05 0.65610349D+05 0.11370584D+01  1  2  4  2  7  2        1 -.505684291576D-03 0.100000000000D+01
  </mgrwgt>
  </event>
  <event>
  8     66 0.26562228E-05 0.46790924E+03 0.75467711E-02 0.89584177E-01
       -2 -1    0    0    0  501 0.00000000E+00 0.00000000E+00 0.31077497E+03 0.31077514E+03 0.32000000E+00 0.0000E+00 0.9000E+01
        1 -1    0    0  501    0 0.00000000E+00 0.00000000E+00 -.87510097E+03 0.87510103E+03 0.32000000E+00 0.0000E+00 0.9000E+01
       25  2    1    2    0    0 -.44002001E+03 -.65861140E+02 -.49478331E+03 0.72842814E+03 0.29638106E+03 0.0000E+00 0.0000E+00
       23  2    3    3    0    0 -.17207265E+03 -.55680743E+02 -.64959378E+02 0.21368229E+03 0.93440124E+02 0.0000E+00 0.0000E+00
      -24  1    1    2    0    0 0.44002001E+03 0.65861140E+02 -.69542690E+02 0.45744803E+03 0.80419002E+02 0.0000E+00 0.9000E+01
      -11  1    4    4    0    0 -.12372967E+03 0.38357733E+01 -.57962987E+02 0.13668742E+03 0.51099893E-03 0.0000E+00 0.9000E+01
       11  1    4    4    0    0 -.48342987E+02 -.59516516E+02 -.69963912E+01 0.76994867E+02 0.51099893E-03 0.0000E+00 0.9000E+01
       23  1    3    3    0    0 -.26794736E+03 -.10180397E+02 -.42982393E+03 0.51474585E+03 0.91188000E+02 0.0000E+00 0.9000E+01
#aMCatNLO 1  0  0  2  1 0.52720464D+03 0.00000000D+00  -5  7  0 0.00000000D+00 0.00000000D+00 0.00000000D+00 0.00000000D+00 0.00000000D+00
  <mgrwgt>
 0.1333341416D-02    5    2    0
 0.521497472368149D+03 0.000000000000000D+00 0.000000000000000D+00 0.521497472368149D+03
 0.521497472368149D+03 0.000000000000000D+00 0.000000000000000D+00 -.521497472368149D+03
 0.482487448568747D+03 0.440020009751801D+03 0.658611403145381D+02 0.168438782014423D+03
 0.124050779532442D+03 -.123729666403609D+03 0.383577326562211D+01 0.805309864046259D+01
 0.837570046587133D+02 -.483429866440300D+02 -.595165161571693D+02 0.337042397369865D+02
 0.352699711976395D+03 -.267947356704163D+03 -.101803974229909D+02 -.210196120391872D+03
 0.000000000000000D+00 0.000000000000000D+00 -.000000000000000D+00 -.000000000000000D+00
 0.671569482479894D+03 0.000000000000000D+00 0.000000000000000D+00 0.671569482479894D+03
 0.138086605766966D+04 0.000000000000000D+00 0.000000000000000D+00 -.138086605766966D+04
 0.325845251097360D+03 0.249570625820406D+03 0.951356460504684D+02 0.168438782014423D+03
 0.201108301901072D+03 -.200339639950752D+03 0.156117058716482D+02 0.805309864046259D+01
 0.113430788203922D+03 -.948019430675334D+02 -.523751804477553D+02 0.337042397369865D+02
 0.528282926489029D+03 -.475513623439753D+03 0.217251920869524D+02 -.210196120391872D+03
 0.883768272458176D+03 0.521084580637632D+03 -.800973635613137D+02 -.709296575189771D+03
0.156068169787D-03 0.000000000000D+00 0.000000000000D+00 0.578733861221D-07 0.000000000000D+00  7 -2 1 -24 -11 11 23 21 0 0.47811552D-01 0.13463094D+00 0.21893906D+06 0.21893906D+06 0.21893906D+06 0.10948203D+01  1  2  2  2  7  2        1 0.136429280035D-02 0.100000000000D+01
-.854651062439D-05 0.000000000000D+00 -.599342865676D-06 0.578733861221D-07 0.000000000000D+00  7 -2 1 -24 -11 11 23 21 2 0.47811552D-01 0.13463094D+00 0.21893906D+06 0.21893906D+06 0.21893906D+06 0.10948203D+01  1  2  3  2  7  2        1 -.895504414104D-04 0.100000000000D+01
0.994292758985D-05 0.000000000000D+00 0.000000000000D+00 0.578733861221D-07 0.000000000000D+00  7 -2 1 -24 -11 11 23 21 2 0.47811552D-01 0.13463094D+00 0.21893906D+06 0.21893906D+06 0.21893906D+06 0.10948203D+01  1  2 15  2  7  2        1 0.104182115218D-03 0.100000000000D+01
-.579680258725D-04 0.000000000000D+00 -.474180142790D-04 0.578733861221D-07 0.000000000000D+00  7 -2 1 -24 -11 11 23 21 2 0.47811552D-01 0.38816468D+00 0.21893906D+06 0.21893906D+06 0.21893906D+06 0.10948203D+01  1  2  5  2  7  2        1 -.444431810508D-04 0.100000000000D+01
-.439346203012D-05 0.000000000000D+00 -.566998135217D-05 0.578733861221D-07 0.000000000000D+00  7 -2 21 -24 -11 11 23 -1 2 0.47811552D-01 0.38816468D+00 0.21893906D+06 0.21893906D+06 0.21893906D+06 0.10948203D+01  1  2  5  4  7  2        1 -.113987744877D-05 0.100000000000D+01
  </mgrwgt>
  </event>
  <event>
  8     66 0.26562228E-05 0.21689348E+03 0.75467711E-02 0.99502299E-01
       -2 -1    0    0    0  501 0.00000000E+00 0.00000000E+00 0.10521050E+03 0.10521099E+03 0.32000000E+00 0.0000E+00 0.9000E+01
        1 -1    0    0  501    0 0.00000000E+00 0.00000000E+00 -.67024339E+03 0.67024346E+03 0.32000000E+00 0.0000E+00 0.9000E+01
       25  2    1    2    0    0 -.42599220E+02 -.92600573E+02 -.56357203E+03 0.64561259E+03 0.29801446E+03 0.0000E+00 0.0000E+00
       23  2    3    3    0    0 0.85241661E+02 -.91964909E+02 -.32322243E+03 0.35851177E+03 0.91292208E+02 0.0000E+00 0.0000E+00
      -24  1    1    2    0    0 0.42599220E+02 0.92600573E+02 -.14608487E+01 0.12984186E+03 0.80419002E+02 0.0000E+00 0.9000E+01
      -13  1    4    4    0    0 0.91252189E+02 -.49072833E+02 -.16818379E+03 0.19753710E+03 0.10565837E+00 0.0000E+00 0.9000E+01
       13  1    4    4    0    0 -.60105279E+01 -.42892077E+02 -.15503864E+03 0.16097468E+03 0.10565837E+00 0.0000E+00 0.9000E+01
       23  1    3    3    0    0 -.12784088E+03 -.63566399E+00 -.24034960E+03 0.28710082E+03 0.91188000E+02 0.0000E+00 0.9000E+01
#aMCatNLO 1  0  0  2  2 0.19710562D+03 0.00000000D+00  -5  7  0 0.00000000D+00 0.00000000D+00 0.00000000D+00 0.00000000D+00 0.00000000D+00
  <mgrwgt>
 0.1716524746D-02    6    2    0
 0.265550113974708D+03 0.000000000000000D+00 0.000000000000000D+00 0.265550113974708D+03
 0.265550113974708D+03 0.000000000000000D+00 0.000000000000000D+00 -.265550113974708D+03
 0.188026704420727D+03 0.425992208827294D+02 0.926005744030632D+02 0.136004652940097D+03
 0.109492845015989D+03 0.912523177070312D+02 -.490728409202916D+02 -.354055632182594D+02
 0.700933137462637D+02 -.601065798663777D+01 -.428920683505909D+02 -.551109344423415D+02
 0.163487364766436D+03 -.127840880603123D+03 -.635665132180740D+00 -.454881552794957D+02
 0.000000000000000D+00 0.000000000000000D+00 0.000000000000000D+00 -.000000000000000D+00
 0.377573531032910D+03 0.000000000000000D+00 0.000000000000000D+00 0.377573531032910D+03
 0.386217870404419D+03 0.000000000000000D+00 0.000000000000000D+00 -.386217870404419D+03
 0.172824671258770D+03 -.172930031092783D+02 0.678589527139760D+02 0.136004652940097D+03
 0.924431765603102D+02 0.577360330218796D+02 -.629184986840512D+02 -.354055632182594D+02
 0.829042792358095D+02 -.314043982539858D+02 -.533822834918671D+02 -.551109344423415D+02
 0.218324190398978D+03 -.191211965559203D+03 -.268144126473769D+02 -.454881552794957D+02
 0.197295083983462D+03 0.182173333900587D+03 0.752562421093193D+02 -.864433937150882D+01
0.132284598555D-04 0.000000000000D+00 0.000000000000D+00 0.208105237375D-06 0.000000000000D+00  7 -2 1 -24 -13 13 23 21 0 0.16186275D-01 0.10311441D+00 0.47042782D+05 0.47042782D+05 0.47042782D+05 0.11496316D+01  1  2  2  2  7  2        1 0.119168294647D-02 0.100000000000D+01
-.698310535956D-06 0.000000000000D+00 -.508007689784D-07 0.208105237375D-06 0.000000000000D+00  7 -2 1 -24 -13 13 23 21 2 0.16186275D-01 0.10311441D+00 0.47042782D+05 0.47042782D+05 0.47042782D+05 0.11496316D+01  1  2  3  2  7  2        1 -.831414167475D-04 0.100000000000D+01
0.845541807523D-06 0.000000000000D+00 0.000000000000D+00 0.208105237375D-06 0.000000000000D+00  7 -2 1 -24 -13 13 23 21 2 0.16186275D-01 0.10311441D+00 0.47042782D+05 0.47042782D+05 0.47042782D+05 0.11496316D+01  1  2 15  2  7  2        1 0.100670890925D-03 0.100000000000D+01
-.281564809923D-05 0.000000000000D+00 -.433847425693D-05 0.208105237375D-06 0.000000000000D+00  7 -2 1 -24 -13 13 23 21 2 0.16186275D-01 0.19400173D+00 0.47042782D+05 0.47042782D+05 0.47042782D+05 0.11496316D+01  1  2  5  2  7  2        1 -.116685511724D-03 0.100000000000D+01
0.522197668271D-05 0.000000000000D+00 0.359601426499D-05 0.208105237375D-06 0.000000000000D+00  7 -2 1 -24 -13 13 23 21 2 0.16186275D-01 0.10311441D+00 0.47042782D+05 0.47042782D+05 0.47042782D+05 0.11496316D+01  1  2  6  2  7  2        1 0.621732763961D-03 0.100000000000D+01
0.513004168261D-07 0.000000000000D+00 -.298330963402D-06 0.208105237375D-06 0.000000000000D+00  7 -2 21 -24 -13 13 23 -1 2 0.16186275D-01 0.19400173D+00 0.47042782D+05 0.47042782D+05 0.47042782D+05 0.11496316D+01  1  2  5  4  7  2        1 0.226507309550D-05 0.100000000000D+01
  </mgrwgt>
  </event>
  <event>
  8     66 0.26562228E-05 0.24009288E+03 0.75467711E-02 0.10256904E+00
       -2 -1    0    0    0  501 0.00000000E+00 0.00000000E+00 0.19112258E+03 0.19112285E+03 0.32000000E+00 0.0000E+00 0.9000E+01
        1 -1    0    0  501    0 0.00000000E+00 0.00000000E+00 -.30322166E+03 0.30322182E+03 0.32000000E+00 0.0000E+00 0.9000E+01
       25  2    1    2    0    0 -.11584398E+03 0.58597012E+02 -.65784900E+02 0.33476505E+03 0.30147396E+03 0.0000E+00 0.0000E+00
       23  2    3    3    0    0 0.69799091E+02 0.61841541E+01 -.31149109E+02 0.11860459E+03 0.90479972E+02 0.0000E+00 0.0000E+00
      -24  1    1    2    0    0 0.11584398E+03 -.58597012E+02 -.46314174E+02 0.15957962E+03 0.80419002E+02 0.0000E+00 0.9000E+01
      -13  1    4    4    0    0 -.21645872E+02 -.42807388E+01 -.24969130E+01 0.22206175E+02 0.10565837E+00 0.0000E+00 0.9000E+01
       13  1    4    4    0    0 0.91444963E+02 0.10464893E+02 -.28652196E+02 0.96398416E+02 0.10565837E+00 0.0000E+00 0.9000E+01
       23  1    3    3    0    0 -.18564307E+03 0.52412858E+02 -.34635791E+02 0.21616046E+03 0.91188000E+02 0.0000E+00 0.9000E+01
#aMCatNLO 1  0  0  1  2 0.42486845D+02 0.00000000D+00  -5  7  0 0.00000000D+00 0.00000000D+00 0.00000000D+00 0.00000000D+00 0.00000000D+00
  <mgrwgt>
 0.1500646489D-02    3    2    0
 0.240733490322042D+03 0.000000000000000D+00 0.000000000000000D+00 0.240733490322042D+03
 0.240733490322042D+03 0.000000000000000D+00 0.000000000000000D+00 -.240733490322042D+03
 0.153064644772908D+03 0.115844004122557D+03 -.585970268360890D+02 -.103983017800845D+02
 0.222186774386190D+02 -.216460322536249D+02 -.428075548601468D+01 0.260653932741948D+01
 0.923057924501240D+02 0.914450874515400D+02 0.104649184199285D+02 -.697429446537818D+01
 0.213877865982432D+03 -.185643059320472D+03 0.524128639021752D+02 0.147660569180432D+02
 0.000000000000000D+00 -.000000000000000D+00 -.000000000000000D+00 -.000000000000000D+00
 0.243420983031008D+03 0.000000000000000D+00 0.000000000000000D+00 0.243420983031008D+03
 0.499250301814541D+03 0.000000000000000D+00 0.000000000000000D+00 -.499250301814541D+03
 0.158337309646390D+03 0.126490802246533D+03 -.499543785749078D+02 -.103983017800845D+02
 0.205839146316824D+02 -.201826163999731D+02 -.309281256311210D+01 0.260653932741948D+01
 0.995116524014067D+02 0.980033045179660D+02 0.157886188099976D+02 -.697429446537818D+01
 0.204905085272777D+03 -.171324916879487D+03 0.640357638040965D+02 0.147660569180432D+02
 0.259333322893293D+03 -.329865734850390D+02 -.267771914760742D+02 -.255829318783533D+03
0.151147746553D-04 0.000000000000D+00 0.000000000000D+00 0.183784951328D-06 0.000000000000D+00  7 -2 1 -24 -13 13 23 21 0 0.29403508D-01 0.46649519D-01 0.57644593D+05 0.57644593D+05 0.57644593D+05 0.11418998D+01  1  2  2  1  7  1       -2 0.148325000523D-02 0.100000000000D+01
-.839702454095D-06 0.000000000000D+00 -.580447144879D-07 0.183784951328D-06 0.000000000000D+00  7 -2 1 -24 -13 13 23 21 2 0.29403508D-01 0.46649519D-01 0.57644593D+05 0.57644593D+05 0.57644593D+05 0.11418998D+01  1  2  3  1  7  1       -2 -.107446957443D-03 0.100000000000D+01
0.975656701401D-06 0.000000000000D+00 0.000000000000D+00 0.183784951328D-06 0.000000000000D+00  7 -2 1 -24 -13 13 23 21 2 0.29403508D-01 0.46649519D-01 0.57644593D+05 0.57644593D+05 0.57644593D+05 0.11418998D+01  1  2 15  1  7  1       -2 0.124843441344D-03 0.100000000000D+01
  </mgrwgt>
  </event>
  <event>
  8     66 0.26562228E-05 0.16012798E+03 0.75467711E-02 0.98662490E-01
       -2 -1    0    0    0  501 0.00000000E+00 0.00000000E+00 0.67828879E+02 0.67829634E+02 0.32000000E+00 0.0000E+00 0.9000E+01
        1 -1    0    0  501    0 0.00000000E+00 0.00000000E+00 -.27725762E+04 0.27725762E+04 0.32000000E+00 0.0000E+00 0.9000E+01
       25  2    1    2    0    0 -.18523289E+02 -.26085085E+03 -.61076875E+03 0.72862941E+03 0.29912552E+03 0.0000E+00 0.0000E+00
       23  2    3    3    0    0 0.17205368E+00 0.56793161E+01 -.27556420E+03 0.29037699E+03 0.91383166E+02 0.0000E+00 0.0000E+00
      -24  1    1    2    0    0 0.18523289E+02 0.26085085E+03 -.20939785E+04 0.21117764E+04 0.80419002E+02 0.0000E+00 0.9000E+01
      -11  1    4    4    0    0 -.29704715E+02 0.15173071E+02 -.24261542E+03 0.24489760E+03 0.51099893E-03 0.0000E+00 0.9000E+01
       11  1    4    4    0    0 0.29876769E+02 -.94937553E+01 -.32948780E+02 0.45479389E+02 0.51099893E-03 0.0000E+00 0.9000E+01
       23  1    3    3    0    0 -.18695342E+02 -.26653016E+03 -.33520455E+03 0.43825242E+03 0.91188000E+02 0.0000E+00 0.9000E+01
#aMCatNLO 1  0  0  1  2 0.85248249D+02 0.00000000D+00  -5  7  0 0.00000000D+00 0.00000000D+00 0.00000000D+00 0.00000000D+00 0.00000000D+00
  <mgrwgt>
 0.1020099383D-02    9    2    0
 0.433660964355593D+03 0.000000000000000D+00 0.000000000000000D+00 0.433660964355593D+03
 0.433660964355593D+03 0.000000000000000D+00 0.000000000000000D+00 -.433660964355593D+03
 0.385807418874719D+03 0.185232887557973D+02 0.260850845644144D+03 -.272018147565207D+03
 0.454216207364226D+02 -.297047154268557D+02 0.151730714461657D+02 -.308306894931412D+02
 0.461902285092250D+02 0.298767691117856D+02 -.949375531622617D+01 0.339232145760260D+02
 0.389902660590820D+03 -.186953424407272D+02 -.266530161774084D+03 0.268925622482322D+03
 0.000000000000000D+00 -.000000000000000D+00 0.000000000000000D+00 0.000000000000000D+00
 0.524387440021723D+03 0.000000000000000D+00 0.000000000000000D+00 0.524387440021723D+03
 0.456247989494818D+03 0.000000000000000D+00 0.000000000000000D+00 -.456247989494818D+03
 0.376270971418122D+03 0.507552233822718D+02 0.241955910595661D+03 -.272018147565207D+03
 0.423675203054929D+02 -.259916933926132D+02 0.129964316948250D+02 -.308306894931412D+02
 0.494180694051676D+02 0.339205006325561D+02 -.118642628679418D+02 0.339232145760260D+02
 0.403444782531086D+03 0.148591097632774D+02 -.286200380218289D+03 0.268925622482322D+03
 0.109134085856673D+03 -.735431403854922D+02 0.431123007957450D+02 0.681394505269054D+02
0.146713662926D-03 0.000000000000D+00 0.000000000000D+00 0.330580018626D-05 0.000000000000D+00  7 -2 1 -24 -11 11 23 21 0 0.10435272D-01 0.42655024D+00 0.96290886D+05 0.96290886D+05 0.96290886D+05 0.11230716D+01  1  2  2  1  7  1       -2 0.883517947916D-03 0.100000000000D+01
-.704059475757D-05 0.000000000000D+00 -.563419096230D-06 0.330580018626D-05 0.000000000000D+00  7 -2 1 -24 -11 11 23 21 2 0.10435272D-01 0.42655024D+00 0.96290886D+05 0.96290886D+05 0.96290886D+05 0.11230716D+01  1  2  3  1  7  1       -2 -.534772450139D-04 0.100000000000D+01
0.923361100278D-05 0.000000000000D+00 0.000000000000D+00 0.330580018626D-05 0.000000000000D+00  7 -2 1 -24 -11 11 23 21 2 0.10435272D-01 0.42655024D+00 0.96290886D+05 0.96290886D+05 0.96290886D+05 0.11230716D+01  1  2 15  1  7  1       -2 0.701344268435D-04 0.100000000000D+01
0.208256849098D-03 0.000000000000D+00 0.000000000000D+00 0.330580018626D-05 0.000000000000D+00  7 -2 1 -24 -11 11 23 21 2 0.12849374D-01 0.42655024D+00 0.12636611D+06 0.12636611D+06 0.12636611D+06 0.11134763D+01  1  2 12  1  7  1       -2 0.110873776475D-02 0.100000000000D+01
-.220601467477D-03 0.000000000000D+00 0.000000000000D+00 0.330580018626D-05 0.000000000000D+00  7 -2 1 -24 -11 11 23 21 2 0.10435272D-01 0.42655024D+00 0.96290886D+05 0.96290886D+05 0.96290886D+05 0.11230716D+01  1  2  4  1  7  1       -2 -.167559121536D-02 0.100000000000D+01
-.319483085379D-03 0.000000000000D+00 -.859302981447D-04 0.330580018626D-05 0.000000000000D+00  7 -2 1 -24 -11 11 23 21 2 0.13460754D-01 0.42655024D+00 0.96290886D+05 0.96290886D+05 0.96290886D+05 0.11230716D+01  1  2  5  1  7  1       -2 -.162936056593D-02 0.100000000000D+01
0.333214291774D-03 0.000000000000D+00 0.832188114028D-04 0.330580018626D-05 0.000000000000D+00  7 -2 1 -24 -11 11 23 21 2 0.10435272D-01 0.42655024D+00 0.96290886D+05 0.96290886D+05 0.96290886D+05 0.11230716D+01  1  2  6  1  7  1       -2 0.253094844071D-02 0.100000000000D+01
0.614329389739D-05 0.000000000000D+00 0.000000000000D+00 0.330580018626D-05 0.000000000000D+00  7 21 1 -24 -11 11 23 2 2 0.12849374D-01 0.42655024D+00 0.12636611D+06 0.12636611D+06 0.12636611D+06 0.11134763D+01  1  2 12  3  7  1       -2 0.453700324762D-03 0.100000000000D+01
-.947460379398D-05 0.000000000000D+00 -.294737274856D-05 0.330580018626D-05 0.000000000000D+00  7 21 1 -24 -11 11 23 2 2 0.13460754D-01 0.42655024D+00 0.96290886D+05 0.96290886D+05 0.96290886D+05 0.11230716D+01  1  2  5  3  7  1       -2 -.668510495976D-03 0.100000000000D+01
  </mgrwgt>
  </event>
  <event>
  8     66 0.26562228E-05 0.23780457E+03 0.75467711E-02 0.96516101E-01
       -2 -1    0    0    0  501 0.00000000E+00 0.00000000E+00 0.65370129E+02 0.65370913E+02 0.32000000E+00 0.0000E+00 0.9000E+01
        1 -1    0    0  501    0 0.00000000E+00 0.00000000E+00 -.11138188E+04 0.11138189E+04 0.32000000E+00 0.0000E+00 0.9000E+01
       25  2    1    2    0    0 0.19790388E+02 -.16793132E+03 -.58036055E+03 0.67504069E+03 0.30044795E+03 0.0000E+00 0.0000E+00
       23  2    3    3    0    0 -.47669867E+02 -.14208412E+03 -.50956928E+03 0.53885839E+03 0.90814067E+02 0.0000E+00 0.0000E+00
      -24  1    1    2    0    0 -.19790388E+02 0.16793132E+03 -.46808814E+03 0.50414910E+03 0.80419002E+02 0.0000E+00 0.9000E+01
      -13  1    4    4    0    0 -.48899452E+02 -.24964000E+02 -.21392633E+03 0.22085933E+03 0.10565837E+00 0.0000E+00 0.9000E+01
       13  1    4    4    0    0 0.12295848E+01 -.11712012E+03 -.29564295E+03 0.31799906E+03 0.10565837E+00 0.0000E+00 0.9000E+01
       23  1    3    3    0    0 0.67460255E+02 -.25847199E+02 -.70791272E+02 0.13618230E+03 0.91188000E+02 0.0000E+00 0.9000E+01
#aMCatNLO 1  0  0  1  2 0.29136813D+03 0.00000000D+00  -5  7  0 0.00000000D+00 0.00000000D+00 0.00000000D+00 0.00000000D+00 0.00000000D+00
  <mgrwgt>
 0.8971235625D-03    5    2    0
 0.269835078662151D+03 0.000000000000000D+00 0.000000000000000D+00 0.269835078662151D+03
 0.269835078662151D+03 0.000000000000000D+00 0.000000000000000D+00 -.269835078662151D+03
 0.192193437204052D+03 -.197903882406582D+02 0.167931317726111D+03 -.433418321024072D+02
 0.669746946484578D+02 -.488995190245574D+02 -.249638751396934D+02 -.383568989939347D+02
 0.120471383194471D+03 0.122965264689535D+01 -.117120242058115D+03 -.281902646920108D+02
 0.160030642277320D+03 0.674602546183202D+02 -.258472005283029D+02 0.109888995788353D+03
 0.000000000000000D+00 -.000000000000000D+00 -.000000000000000D+00 0.000000000000000D+00
 0.496798248661474D+03 0.000000000000000D+00 0.000000000000000D+00 0.496798248661474D+03
 0.418268908114748D+03 0.000000000000000D+00 0.000000000000000D+00 -.418268908114748D+03
 0.209097546755229D+03 0.816085535579155D+02 0.169458247603579D+03 -.433418321024072D+02
 0.495118064396739D+02 -.194654962921815D+02 -.245206388698966D+02 -.383568989939347D+02
 0.136620032668811D+03 0.661919831154988D+02 -.116141997891628D+03 -.281902646920108D+02
 0.218072552949472D+03 0.163000063433328D+03 -.244085012087675D+02 0.109888995788353D+03
 0.301765217963037D+03 -.291335103814561D+03 -.438710963328757D+01 0.785293405467266D+02
0.961085381414D-05 0.000000000000D+00 0.000000000000D+00 0.105396999792D-05 0.000000000000D+00  7 -2 1 -24 -13 13 23 21 0 0.10057007D-01 0.17135681D+00 0.56551014D+05 0.56551014D+05 0.56551014D+05 0.11426216D+01  1  2  2  1  7  1       -2 0.800714202379D-03 0.100000000000D+01
-.523570538122D-06 0.000000000000D+00 -.369082092422D-07 0.105396999792D-05 0.000000000000D+00  7 -2 1 -24 -13 13 23 21 2 0.10057007D-01 0.17135681D+00 0.56551014D+05 0.56551014D+05 0.56551014D+05 0.11426216D+01  1  2  3  1  7  1       -2 -.569502529305D-04 0.100000000000D+01
0.612549787802D-06 0.000000000000D+00 0.000000000000D+00 0.105396999792D-05 0.000000000000D+00  7 -2 1 -24 -13 13 23 21 2 0.10057007D-01 0.17135681D+00 0.56551014D+05 0.56551014D+05 0.56551014D+05 0.11426216D+01  1  2 15  1  7  1       -2 0.666287783744D-04 0.100000000000D+01
0.104157726417D-05 0.000000000000D+00 -.303895593828D-05 0.105396999792D-05 0.000000000000D+00  7 -2 1 -24 -13 13 23 21 2 0.29296542D-01 0.17135681D+00 0.56551014D+05 0.56551014D+05 0.56551014D+05 0.11426216D+01  1  2  5  1  7  1       -2 0.200561618457D-04 0.100000000000D+01
0.286031382952D-06 0.000000000000D+00 -.367638133247D-06 0.105396999792D-05 0.000000000000D+00  7 21 1 -24 -13 13 23 2 2 0.29296542D-01 0.17135681D+00 0.56551014D+05 0.56551014D+05 0.56551014D+05 0.11426216D+01  1  2  5  3  7  1       -2 0.666746728623D-04 0.100000000000D+01
  </mgrwgt>
  </event>
  <event>
  8     66 0.26562228E-05 0.28061797E+03 0.75467711E-02 0.92818623E-01
       -2 -1    0    0    0  501 0.00000000E+00 0.00000000E+00 0.16992480E+03 0.16992510E+03 0.32000000E+00 0.0000E+00 0.9000E+01
        1 -1    0    0  501    0 0.00000000E+00 0.00000000E+00 -.10087130E+04 0.10087130E+04 0.32000000E+00 0.0000E+00 0.9000E+01
       25  2    1    2    0    0 -.20757405E+03 0.71183650E+02 -.83852613E+02 0.38835398E+03 0.30924660E+03 0.0000E+00 0.0000E+00
       23  2    3    3    0    0 -.57887493E+02 -.77211995E+02 -.86747833E+02 0.15867820E+03 0.91328691E+02 0.0000E+00 0.0000E+00
      -24  1    1    2    0    0 0.20757405E+03 -.71183650E+02 -.75493559E+03 0.79028416E+03 0.80419002E+02 0.0000E+00 0.9000E+01
      -11  1    4    4    0    0 -.11753164E+02 -.64866403E+01 -.71650436E+02 0.72897177E+02 0.51099893E-03 0.0000E+00 0.9000E+01
       11  1    4    4    0    0 -.46134329E+02 -.70725355E+02 -.15097397E+02 0.85781021E+02 0.51099893E-03 0.0000E+00 0.9000E+01
       23  1    3    3    0    0 -.14968656E+03 0.14839564E+03 0.28952198E+01 0.22967579E+03 0.91188000E+02 0.0000E+00 0.9000E+01
#aMCatNLO 1  0  0  2  1 0.49375172D+03 0.00000000D+00  -5  7  0 0.00000000D+00 0.00000000D+00 0.00000000D+00 0.00000000D+00 0.00000000D+00
  <mgrwgt>
 0.1014042279D-02    5    2    0
 0.414011542975719D+03 0.000000000000000D+00 0.000000000000000D+00 0.414011542975719D+03
 0.414011542975719D+03 0.000000000000000D+00 0.000000000000000D+00 -.414011542975719D+03
 0.360168695565648D+03 0.207574050901090D+03 -.711836496435709D+02 -.274044110914691D+03
 0.311825274773470D+02 -.117531635772628D+02 -.648664020954319D+01 -.281449225366414D+02
 0.106810144225382D+03 -.461343293525928D+02 -.707253549119379D+02 0.654060756903661D+02
 0.329861718683061D+03 -.149686557971234D+03 0.148395644765052D+03 0.236782957760966D+03
 0.000000000000000D+00 0.000000000000000D+00 -.000000000000000D+00 -.000000000000000D+00
 0.573482991576733D+03 0.000000000000000D+00 0.000000000000000D+00 0.573482991576733D+03
 0.114847018874438D+04 0.000000000000000D+00 0.000000000000000D+00 -.114847018874438D+04
 0.291101775290466D+03 0.528037992461188D+02 0.196115190906465D+02 -.274044110914691D+03
 0.403933661463675D+02 -.287627157745391D+02 0.349192573146249D+01 -.281449225366414D+02
 0.126746576637883D+03 -.101637586572593D+03 -.381646557420293D+02 0.654060756903661D+02
 0.505818962297756D+03 -.348280713681348D+03 0.264899880459690D+03 0.236782957760966D+03
 0.757892499948644D+03 0.425877216782361D+03 -.249838669539770D+03 -.574987197167652D+03
0.468431364679D-04 0.000000000000D+00 0.000000000000D+00 0.338725540419D-07 0.000000000000D+00  7 -2 1 -24 -11 11 23 21 0 0.26142303D-01 0.15518664D+00 0.78746443D+05 0.78746443D+05 0.78746443D+05 0.11303383D+01  1  2  2  2  7  2        1 0.994931643047D-03 0.100000000000D+01
-.212384341473D-05 0.000000000000D+00 -.179889978118D-06 0.338725540419D-07 0.000000000000D+00  7 -2 1 -24 -11 11 23 21 2 0.26142303D-01 0.15518664D+00 0.78746443D+05 0.78746443D+05 0.78746443D+05 0.11303383D+01  1  2  3  2  7  2        1 -.576350460477D-04 0.100000000000D+01
0.288724217354D-05 0.000000000000D+00 0.000000000000D+00 0.338725540419D-07 0.000000000000D+00  7 -2 1 -24 -11 11 23 21 2 0.26142303D-01 0.15518664D+00 0.78746443D+05 0.78746443D+05 0.78746443D+05 0.11303383D+01  1  2 15  2  7  2        1 0.783515086229D-04 0.100000000000D+01
-.163394261109D-05 0.000000000000D+00 -.141281751875D-04 0.338725540419D-07 0.000000000000D+00  7 -2 1 -24 -11 11 23 21 2 0.26142303D-01 0.47416651D+00 0.78746443D+05 0.78746443D+05 0.78746443D+05 0.11303383D+01  1  2  5  2  7  2        1 -.171510413553D-05 0.100000000000D+01
0.472724937477D-06 0.000000000000D+00 -.180170380145D-05 0.338725540419D-07 0.000000000000D+00  7 -2 21 -24 -11 11 23 -1 2 0.26142303D-01 0.47416651D+00 0.78746443D+05 0.78746443D+05 0.78746443D+05 0.11303383D+01  1  2  5  4  7  2        1 0.109277336089D-06 0.100000000000D+01
  </mgrwgt>
  </event>
  <event>
  8     66 0.26562228E-05 0.32283564E+03 0.75467711E-02 0.95869622E-01
       -2 -1    0    0    0  501 0.00000000E+00 0.00000000E+00 0.29653487E+03 0.29653505E+03 0.32000000E+00 0.0000E+00 0.9000E+01
        1 -1    0    0  501    0 0.00000000E+00 0.00000000E+00 -.39847487E+03 0.39847499E+03 0.32000000E+00 0.0000E+00 0.9000E+01
       25  2    1    2    0    0 0.24583930E+03 -.35514553E+01 0.56283731E+02 0.39177492E+03 0.29978351E+03 0.0000E+00 0.0000E+00
       23  2    3    3    0    0 0.19243219E+03 -.10811253E+03 0.45684865E+02 0.24273491E+03 0.90081415E+02 0.0000E+00 0.0000E+00
      -24  1    1    2    0    0 -.24583930E+03 0.35514553E+01 -.15822372E+03 0.30323512E+03 0.80419002E+02 0.0000E+00 0.9000E+01
      -13  1    4    4    0    0 0.28893787E+02 0.15996350E+02 0.83907434E+01 0.34075649E+02 0.10565837E+00 0.0000E+00 0.9000E+01
       13  1    4    4    0    0 0.16353841E+03 -.12410888E+03 0.37294122E+02 0.20865926E+03 0.10565837E+00 0.0000E+00 0.9000E+01
       23  1    3    3    0    0 0.53407109E+02 0.10456107E+03 0.10598866E+02 0.14904001E+03 0.91188000E+02 0.0000E+00 0.9000E+01
#aMCatNLO 1  0  0  2  2 0.22147327D+03 0.00000000D+00  -5  7  0 0.00000000D+00 0.00000000D+00 0.00000000D+00 0.00000000D+00 0.00000000D+00
  <mgrwgt>
 0.1204033863D-02    7    2    0
 0.343746707367163D+03 0.000000000000000D+00 0.000000000000000D+00 0.343746707367163D+03
 0.343746707367163D+03 0.000000000000000D+00 0.000000000000000D+00 -.343746707367163D+03
 0.283089445004240D+03 -.245839304426182D+03 0.355145527388509D+01 -.114990614761060D+03
 0.356921231418956D+02 0.288936016688208D+02 0.159965424445280D+02 0.135350680382542D+02
 0.216470749504017D+03 0.163538593261097D+03 -.124109070243965D+03 0.686414786276553D+02
 0.152241097084174D+03 0.534071094962642D+02 0.104561072525552D+03 0.328140680951508D+02
 0.000000000000000D+00 -.000000000000000D+00 0.000000000000000D+00 -.000000000000000D+00
 0.451985690031600D+03 0.000000000000000D+00 0.000000000000000D+00 0.451985690031600D+03
 0.496130681194088D+03 0.000000000000000D+00 0.000000000000000D+00 -.496130681194088D+03
 0.218219769062906D+03 -.167117142270384D+03 0.129264525341830D+01 -.114990614761060D+03
 0.466547717970558D+02 0.418247935051279D+02 0.156255020043706D+02 0.135350680382542D+02
 0.281234353282603D+03 0.241694790490076D+03 -.126351640781001D+03 0.686414786276553D+02
 0.176177478085087D+03 0.104979711004418D+03 0.103081276926981D+03 0.328140680951508D+02
 0.225829998998036D+03 -.221382152729238D+03 0.635221659623183D+01 -.441449911624879D+02
0.379989772539D-04 0.000000000000D+00 0.000000000000D+00 0.316339775791D-05 0.000000000000D+00  7 -2 1 -24 -13 13 23 21 0 0.45620773D-01 0.61303849D-01 0.10422285D+06 0.10422285D+06 0.10422285D+06 0.11202510D+01  1  2  2  2  7  2        1 0.116408666449D-02 0.100000000000D+01
-.210094383733D-05 0.000000000000D+00 -.145926078016D-06 0.316339775791D-05 0.000000000000D+00  7 -2 1 -24 -13 13 23 21 2 0.45620773D-01 0.61303849D-01 0.10422285D+06 0.10422285D+06 0.10422285D+06 0.11202510D+01  1  2  3  2  7  2        1 -.807715638984D-04 0.100000000000D+01
0.242647543267D-05 0.000000000000D+00 0.000000000000D+00 0.316339775791D-05 0.000000000000D+00  7 -2 1 -24 -13 13 23 21 2 0.45620773D-01 0.61303849D-01 0.10422285D+06 0.10422285D+06 0.10422285D+06 0.11202510D+01  1  2 15  2  7  2        1 0.932867466401D-04 0.100000000000D+01
-.142028957048D-04 0.000000000000D+00 0.000000000000D+00 0.316339775791D-05 0.000000000000D+00  7 -2 1 -24 -13 13 23 21 2 0.45620773D-01 0.61303849D-01 0.10422285D+06 0.10422285D+06 0.10422285D+06 0.11202510D+01  1  2  4  2  7  2        1 -.546035585331D-03 0.100000000000D+01
-.164413298092D-04 0.000000000000D+00 -.133893505175D-04 0.316339775791D-05 0.000000000000D+00  7 -2 1 -24 -13 13 23 21 2 0.45620773D-01 0.11072248D+00 0.10422285D+06 0.10422285D+06 0.10422285D+06 0.11202510D+01  1  2  5  2  7  2        1 -.274738965169D-03 0.100000000000D+01
0.223734232905D-04 0.000000000000D+00 0.113478819062D-04 0.316339775791D-05 0.000000000000D+00  7 -2 1 -24 -13 13 23 21 2 0.45620773D-01 0.61303849D-01 0.10422285D+06 0.10422285D+06 0.10422285D+06 0.11202510D+01  1  2  6  2  7  2        1 0.860154544268D-03 0.100000000000D+01
-.349765665331D-06 0.000000000000D+00 -.867490176892D-06 0.316339775791D-05 0.000000000000D+00  7 -2 21 -24 -13 13 23 -1 2 0.45620773D-01 0.11072248D+00 0.10422285D+06 0.10422285D+06 0.10422285D+06 0.11202510D+01  1  2  5  4  7  2        1 -.119479776336D-04 0.100000000000D+01
  </mgrwgt>
  </event>
  <event>
  8     66 0.26562228E-05 0.98610100E+02 0.75467711E-02 0.10253112E+00
       -2 -1    0    0    0  501 0.00000000E+00 0.00000000E+00 0.12462278E+03 0.12462319E+03 0.32000000E+00 0.0000E+00 0.9000E+01
        1 -1    0    0  501    0 0.00000000E+00 0.00000000E+00 -.66474172E+03 0.66474180E+03 0.32000000E+00 0.0000E+00 0.9000E+01
       25  2    1    2    0    0 -.15081654E+03 0.37991449E+02 -.16715475E+03 0.37734742E+03 0.30043533E+03 0.0000E+00 0.0000E+00
       23  2    3    3    0    0 -.17892898E+02 0.12277952E+03 -.96892991E+02 0.18213042E+03 0.91587514E+02 0.0000E+00 0.0000E+00
      -24  1    1    2    0    0 0.15081654E+03 -.37991449E+02 -.37296419E+03 0.41201757E+03 0.80419002E+02 0.0000E+00 0.9000E+01
      -11  1    4    4    0    0 -.37174600E+01 -.14482203E+02 -.17158099E+02 0.22758605E+02 0.51099893E-03 0.0000E+00 0.9000E+01
       11  1    4    4    0    0 -.14175438E+02 0.13726172E+03 -.79734892E+02 0.15937181E+03 0.51099893E-03 0.0000E+00 0.9000E+01
       23  1    3    3    0    0 -.13292364E+03 -.84788067E+02 -.70261757E+02 0.19521700E+03 0.91188000E+02 0.0000E+00 0.9000E+01
#aMCatNLO 1  0  0  1  2 0.15257227D+02 0.00000000D+00  -5  7  0 0.00000000D+00 0.00000000D+00 0.00000000D+00 0.00000000D+00 0.00000000D+00
  <mgrwgt>
 0.7829225070D-03    9    2    0
 0.287823132298151D+03 0.000000000000000D+00 0.000000000000000D+00 0.287823132298151D+03
 0.287823132298151D+03 0.000000000000000D+00 0.000000000000000D+00 -.287823132298151D+03
 0.215040440558384D+03 0.150816538544479D+03 -.379914489575444D+02 -.124844690030219D+03
 0.151089858694802D+02 -.371745995990177D+01 -.144822028443569D+02 -.217433811206504D+01
 0.143727512994416D+03 -.141754376630105D+02 0.137261718421557D+03 0.401979553532704D+02
 0.201769325174021D+03 -.132923640921567D+03 -.847880666196553D+02 0.868210727890133D+02
 0.000000000000000D+00 -.000000000000000D+00 0.000000000000000D+00 0.000000000000000D+00
 0.302197631680807D+03 0.000000000000000D+00 0.000000000000000D+00 0.302197631680807D+03
 0.292001421573267D+03 0.000000000000000D+00 0.000000000000000D+00 -.292001421573267D+03
 0.216617966815750D+03 0.151536339381549D+03 -.436654189389908D+02 -.124844690030219D+03
 0.154826837052060D+02 -.366644761080571D+01 -.148843175996445D+02 -.217433811206504D+01
 0.140121573732120D+03 -.137021124439556D+02 0.133530640398208D+03 0.401979553532704D+02
 0.203626197570764D+03 -.132247634079974D+03 -.901168219210040D+02 0.868210727890133D+02
 0.183506314302349D+02 -.192014524681358D+01 0.151359180614314D+02 0.101962101075398D+02
0.109561683168D-04 0.000000000000D+00 0.000000000000D+00 0.260027940516D-05 0.000000000000D+00  7 -2 1 -24 -11 11 23 21 0 0.19172773D-01 0.10226799D+00 0.65067598D+05 0.65067598D+05 0.65067598D+05 0.11373672D+01  1  2  2  1  7  1       -2 0.759207290050D-03 0.100000000000D+01
-.597884582678D-06 0.000000000000D+00 -.420745711618D-07 0.260027940516D-05 0.000000000000D+00  7 -2 1 -24 -11 11 23 21 2 0.19172773D-01 0.10226799D+00 0.65067598D+05 0.65067598D+05 0.65067598D+05 0.11373672D+01  1  2  3  1  7  1       -2 -.535945231203D-04 0.100000000000D+01
0.703505678700D-06 0.000000000000D+00 0.000000000000D+00 0.260027940516D-05 0.000000000000D+00  7 -2 1 -24 -11 11 23 21 2 0.19172773D-01 0.10226799D+00 0.65067598D+05 0.65067598D+05 0.65067598D+05 0.11373672D+01  1  2 15  1  7  1       -2 0.630624245126D-04 0.100000000000D+01
0.403050172994D-04 0.000000000000D+00 0.000000000000D+00 0.260027940516D-05 0.000000000000D+00  7 -2 1 -24 -11 11 23 21 2 0.20264819D-01 0.10226799D+00 0.69177070D+05 0.69177070D+05 0.69177070D+05 0.11350965D+01  1  2 12  1  7  1       -2 0.328455230749D-02 0.100000000000D+01
-.401134081794D-04 0.000000000000D+00 0.000000000000D+00 0.260027940516D-05 0.000000000000D+00  7 -2 1 -24 -11 11 23 21 2 0.19172773D-01 0.10226799D+00 0.65067598D+05 0.65067598D+05 0.65067598D+05 0.11373672D+01  1  2  4  1  7  1       -2 -.359577591460D-02 0.100000000000D+01
-.156949298988D-03 0.000000000000D+00 -.230384515111D-04 0.260027940516D-05 0.000000000000D+00  7 -2 1 -24 -11 11 23 21 2 0.20401119D-01 0.10226799D+00 0.65067598D+05 0.65067598D+05 0.65067598D+05 0.11373672D+01  1  2  5  1  7  1       -2 -.127048858000D-01 0.100000000000D+01
0.158119332637D-03 0.000000000000D+00 0.229941019969D-04 0.260027940516D-05 0.000000000000D+00  7 -2 1 -24 -11 11 23 21 2 0.19172773D-01 0.10226799D+00 0.65067598D+05 0.65067598D+05 0.65067598D+05 0.11373672D+01  1  2  6  1  7  1       -2 0.141738564169D-01 0.100000000000D+01
0.541155967867D-06 0.000000000000D+00 0.000000000000D+00 0.260027940516D-05 0.000000000000D+00  7 21 1 -24 -11 11 23 2 2 0.20264819D-01 0.10226799D+00 0.69177070D+05 0.69177070D+05 0.69177070D+05 0.11350965D+01  1  2 12  3  7  1       -2 0.569624639345D-03 0.100000000000D+01
-.163799717192D-05 0.000000000000D+00 -.244959510672D-06 0.260027940516D-05 0.000000000000D+00  7 21 1 -24 -11 11 23 2 2 0.20401119D-01 0.10226799D+00 0.65067598D+05 0.65067598D+05 0.65067598D+05 0.11373672D+01  1  2  5  3  7  1       -2 -.171312433354D-02 0.100000000000D+01
  </mgrwgt>
  </event>
  <event>
  8     66 0.26562228E-05 0.52806175E+03 0.75467711E-02 0.84601457E-01
       -2 -1    0    0    0  501 0.00000000E+00 0.00000000E+00 0.36387853E+03 0.36387867E+03 0.32000000E+00 0.0000E+00 0.9000E+01
        1 -1    0    0  501    0 0.00000000E+00 0.00000000E+00 -.80776472E+03 0.80776479E+03 0.32000000E+00 0.0000E+00 0.9000E+01
       25  2    1    2    0    0 -.33162520E+01 -.48381064E+03 -.36090297E+03 0.67421290E+03 0.30038034E+03 0.0000E+00 0.0000E+00
       23  2    3    3    0    0 -.10484838E+03 -.17662688E+03 -.11264250E+03 0.25633833E+03 0.10407100E+03 0.0000E+00 0.0000E+00
      -24  1    1    2    0    0 0.33162520E+01 0.48381064E+03 -.82983216E+02 0.49743056E+03 0.80419002E+02 0.0000E+00 0.9000E+01
      -13  1    4    4    0    0 -.12030726E+03 -.11658179E+03 -.72966661E+02 0.18272738E+03 0.10565837E+00 0.0000E+00 0.9000E+01
       13  1    4    4    0    0 0.15458878E+02 -.60045082E+02 -.39675837E+02 0.73610950E+02 0.10565837E+00 0.0000E+00 0.9000E+01
       23  1    3    3    0    0 0.10153213E+03 -.30718376E+03 -.24826048E+03 0.41787457E+03 0.91188000E+02 0.0000E+00 0.9000E+01
#aMCatNLO 1  0  0  2  1 0.11383038D+04 0.00000000D+00  -5  7  0 0.00000000D+00 0.00000000D+00 0.00000000D+00 0.00000000D+00 0.00000000D+00
  <mgrwgt>
 0.1658354207D-02    5    2    0
 0.542151603034180D+03 0.000000000000000D+00 0.000000000000000D+00 0.542151603034180D+03
 0.542151603034180D+03 0.000000000000000D+00 0.000000000000000D+00 -.542151603034180D+03
 0.503527198559197D+03 0.331625196143329D+01 0.483810637116910D+03 0.113967949968227D+03
 0.167575418054907D+03 -.120307401152279D+03 -.116581847782785D+03 -.404014007340616D+01
 0.632978884948362D+02 0.154590100597570D+02 -.600450146832815D+02 -.127372645242830D+02
 0.349902700959420D+03 0.101532139131089D+03 -.307183774650843D+03 -.971905453705375D+02
 0.000000000000000D+00 -.000000000000000D+00 -.000000000000000D+00 -.000000000000000D+00
 0.961609587316096D+03 0.000000000000000D+00 0.000000000000000D+00 0.961609587316096D+03
 0.263111007107399D+04 0.000000000000000D+00 0.000000000000000D+00 -.263111007107399D+04
 0.790598811005705D+03 0.554354341796022D+03 0.546151841634908D+03 0.113967949968227D+03
 0.103703500761512D+03 -.479699789004211D+01 -.103513680978038D+03 -.404014007340616D+01
 0.100812649477911D+03 0.853371801126358D+02 -.521394100236877D+02 -.127372645242830D+02
 0.576969308512048D+03 0.496193692832511D+03 -.262534090557177D+03 -.971905453705375D+02
 0.202063538863291D+04 -.113108821685113D+04 -.127964660076005D+03 -.166950048375790D+04
0.227910090097D-03 0.000000000000D+00 0.000000000000D+00 0.122713353957D-06 0.000000000000D+00  7 -2 1 -24 -13 13 23 21 0 0.55981328D-01 0.12427151D+00 0.27884921D+06 0.27884921D+06 0.27884921D+06 0.10869089D+01  1  2  2  2  7  2        1 0.164334624929D-02 0.100000000000D+01
-.126509969866D-04 0.000000000000D+00 -.875234756078D-06 0.122713353957D-06 0.000000000000D+00  7 -2 1 -24 -13 13 23 21 2 0.55981328D-01 0.12427151D+00 0.27884921D+06 0.27884921D+06 0.27884921D+06 0.10869089D+01  1  2  3  2  7  2        1 -.107764700965D-03 0.100000000000D+01
0.143677011675D-04 0.000000000000D+00 0.000000000000D+00 0.122713353957D-06 0.000000000000D+00  7 -2 1 -24 -13 13 23 21 2 0.55981328D-01 0.12427151D+00 0.27884921D+06 0.27884921D+06 0.27884921D+06 0.10869089D+01  1  2 15  2  7  2        1 0.122388063289D-03 0.100000000000D+01
0.239351910998D-04 0.000000000000D+00 -.972114212646D-04 0.122713353957D-06 0.000000000000D+00  7 -2 1 -24 -13 13 23 21 2 0.55981328D-01 0.67185998D+00 0.27884921D+06 0.27884921D+06 0.27884921D+06 0.10869089D+01  1  2  5  2  7  2        1 0.383902630125D-06 0.100000000000D+01
0.713729952090D-06 0.000000000000D+00 -.200666988199D-04 0.122713353957D-06 0.000000000000D+00  7 -2 21 -24 -13 13 23 -1 2 0.55981328D-01 0.67185998D+00 0.27884921D+06 0.27884921D+06 0.27884921D+06 0.10869089D+01  1  2  5  4  7  2        1 0.693177531608D-09 0.100000000000D+01
  </mgrwgt>
  </event>
  <event>
  8     66 0.26562228E-05 0.32003794E+03 0.75467711E-02 0.98766867E-01
       -2 -1    0    0    0  501 0.00000000E+00 0.00000000E+00 0.12207295E+03 0.12207337E+03 0.32000000E+00 0.0000E+00 0.9000E+01
        1 -1    0    0  501    0 0.00000000E+00 0.00000000E+00 -.11335711E+04 0.11335712E+04 0.32000000E+00 0.0000E+00 0.9000E+01
       25  2    1    2    0    0 -.21033030E+03 0.17458747E+03 -.81259837E+03 0.90815646E+03 0.29952034E+03 0.0000E+00 0.0000E+00
       23  2    3    3    0    0 0.31055674E+02 0.52874085E+02 -.33092557E+03 0.34833036E+03 0.89789641E+02 0.0000E+00 0.0000E+00
      -24  1    1    2    0    0 0.21033030E+03 -.17458747E+03 -.19889982E+03 0.34748809E+03 0.80419002E+02 0.0000E+00 0.9000E+01
      -13  1    4    4    0    0 0.38342620E+02 0.44654807E+02 -.33210695E+03 0.33728215E+03 0.10565837E+00 0.0000E+00 0.9000E+01
       13  1    4    4    0    0 -.72869464E+01 0.82192772E+01 0.11813799E+01 0.11048209E+02 0.10565837E+00 0.0000E+00 0.9000E+01
       23  1    3    3    0    0 -.24138597E+03 0.12171339E+03 -.48167279E+03 0.55982610E+03 0.91188000E+02 0.0000E+00 0.9000E+01
#aMCatNLO 1  0  0  1  1 0.62438758D+02 0.00000000D+00  -5  7  0 0.00000000D+00 0.00000000D+00 0.00000000D+00 0.00000000D+00 0.00000000D+00
  <mgrwgt>
 0.1513894429D-02    4    2    0
 0.371992832247676D+03 0.000000000000000D+00 0.000000000000000D+00 0.371992832247676D+03
 0.371992832247676D+03 0.000000000000000D+00 0.000000000000000D+00 -.371992832247676D+03
 0.316047386518030D+03 0.210330297646384D+03 -.174587474153453D+03 0.136744704947604D+03
 0.117718684317531D+03 0.383426832848116D+02 0.446548579029831D+02 -.101948373903832D+03
 0.202523887529310D+02 -.728700948907650D+01 0.821922676824579D+01 0.170147892798620D+02
 0.289967204906861D+03 -.241385971442119D+03 0.121713389482224D+03 -.518111203236335D+02
 0.000000000000000D+00 0.000000000000000D+00 -.000000000000000D+00 -.000000000000000D+00
 0.380958732379061D+03 0.000000000000000D+00 0.000000000000000D+00 0.380958732379061D+03
 0.500569987266657D+03 0.000000000000000D+00 0.000000000000000D+00 -.500569987266657D+03
 0.294713583063794D+03 0.194449037557227D+03 -.154529406747681D+03 0.136744704947604D+03
 0.119073199886308D+03 0.321855224848712D+02 0.524313659168340D+02 -.101948373903832D+03
 0.212440177304141D+02 -.836601626414697D+01 0.958201476517713D+01 0.170147892798620D+02
 0.311570342823940D+03 -.257027400290213D+03 0.141468549488189D+03 -.518111203236335D+02
 0.134927576141262D+03 0.387588565122616D+02 -.489525234225194D+02 -.119611254887596D+03
0.544823667008D-04 0.000000000000D+00 0.000000000000D+00 0.181075856727D-05 0.000000000000D+00  7 -2 1 -24 -13 13 23 21 0 0.18780490D-01 0.17439560D+00 0.10242428D+06 0.10242428D+06 0.10242428D+06 0.11208694D+01  1  2  2  1  7  1       -2 0.162358889212D-02 0.100000000000D+01
-.294351388301D-05 0.000000000000D+00 -.209226633668D-06 0.181075856727D-05 0.000000000000D+00  7 -2 1 -24 -13 13 23 21 2 0.18780490D-01 0.17439560D+00 0.10242428D+06 0.10242428D+06 0.10242428D+06 0.11208694D+01  1  2  3  1  7  1       -2 -.110203704027D-03 0.100000000000D+01
0.353628818497D-05 0.000000000000D+00 0.000000000000D+00 0.181075856727D-05 0.000000000000D+00  7 -2 1 -24 -13 13 23 21 2 0.18780490D-01 0.17439560D+00 0.10242428D+06 0.10242428D+06 0.10242428D+06 0.11208694D+01  1  2 15  1  7  1       -2 0.132396880728D-03 0.100000000000D+01
-.352268648199D-05 0.000000000000D+00 0.000000000000D+00 0.181075856727D-05 0.000000000000D+00  7 -2 1 -24 -13 13 23 21 2 0.18780490D-01 0.17439560D+00 0.10242428D+06 0.10242428D+06 0.10242428D+06 0.11208694D+01  1  2  4  1  7  1       -2 -.131887639696D-03 0.100000000000D+01
  </mgrwgt>
  </event>
  <event>
  8     66 0.26562228E-05 0.10797112E+03 0.75467711E-02 0.10102600E+00
       -2 -1    0    0    0  501 0.00000000E+00 0.00000000E+00 0.93556009E+03 0.93556015E+03 0.32000000E+00 0.0000E+00 0.9000E+01
        1 -1    0    0  501    0 0.00000000E+00 0.00000000E+00 -.23240380E+03 0.23240402E+03 0.32000000E+00 0.0000E+00 0.9000E+01
       25  2    1    2    0    0 -.14445656E+03 -.10028115E+03 0.85442980E+03 0.92245470E+03 0.29991394E+03 0.0000E+00 0.0000E+00
       23  2    3    3    0    0 -.19532983E+03 -.22901220E+02 0.56103381E+03 0.60156188E+03 0.91866990E+02 0.0000E+00 0.0000E+00
      -24  1    1    2    0    0 0.14445656E+03 0.10028115E+03 -.15127351E+03 0.24550947E+03 0.80419002E+02 0.0000E+00 0.9000E+01
      -13  1    4    4    0    0 -.18818646E+03 -.30243296E+02 0.43269355E+03 0.47281340E+03 0.10565837E+00 0.0000E+00 0.9000E+01
       13  1    4    4    0    0 -.71433734E+01 0.73420758E+01 0.12834027E+03 0.12874847E+03 0.10565837E+00 0.0000E+00 0.9000E+01
       23  1    3    3    0    0 0.50873268E+02 -.77379930E+02 0.29339599E+03 0.32089282E+03 0.91188000E+02 0.0000E+00 0.9000E+01
#aMCatNLO 1  0  0  1  2 0.55562498D+02 0.00000000D+00  -5  7  0 0.00000000D+00 0.00000000D+00 0.00000000D+00 0.00000000D+00 0.00000000D+00
  <mgrwgt>
 0.1695375019D-02    9    2    0
 0.466291624367427D+03 0.000000000000000D+00 0.000000000000000D+00 0.466291624367427D+03
 0.466291624367427D+03 0.000000000000000D+00 0.000000000000000D+00 -.466291624367427D+03
 0.421533606866322D+03 0.144456562650340D+03 0.100281150409392D+03 -.374565559205831D+03
 0.265904595585921D+03 -.188186697146360D+03 -.302433457147103D+02 0.185408632514337D+03
 0.644769105910091D+02 -.714313400561248D+01 0.734212549239166D+01 0.636579989411608D+02
 0.180668135691602D+03 0.508732685016324D+02 -.773799301870738D+02 0.125498927750333D+03
 0.000000000000000D+00 -.000000000000000D+00 -.000000000000000D+00 0.000000000000000D+00
 0.499678033715237D+03 0.000000000000000D+00 0.000000000000000D+00 0.499678033715237D+03
 0.490822673285660D+03 0.000000000000000D+00 0.000000000000000D+00 -.490822673285660D+03
 0.432732191378209D+03 0.164269582201646D+03 0.116215660393665D+03 -.374565559205831D+03
 0.256509881600687D+03 -.176070318061943D+03 -.204988157103897D+02 0.185408632514337D+03
 0.645337557362063D+02 -.415098465406318D+01 0.974854484675783D+01 0.636579989411608D+02
 0.180461136438379D+03 0.592489536150519D+02 -.706438323540651D+02 0.125498927750333D+03
 0.562637418474158D+02 -.432972331006926D+02 -.348215571759683D+02 0.885536042957674D+01
0.188341012851D-03 0.000000000000D+00 0.000000000000D+00 0.148150378190D-04 0.000000000000D+00  7 -2 1 -24 -13 13 23 21 0 0.14393234D+00 0.35754452D-01 0.68690762D+05 0.68690762D+05 0.68690762D+05 0.11353573D+01  1  2  2  1  7  1       -2 0.884109948847D-03 0.100000000000D+01
-.624069953156D-05 0.000000000000D+00 -.723279080676D-06 0.148150378190D-04 0.000000000000D+00  7 -2 1 -24 -13 13 23 21 2 0.14393234D+00 0.35754452D-01 0.68690762D+05 0.68690762D+05 0.68690762D+05 0.11353573D+01  1  2  3  1  7  1       -2 -.377624176103D-04 0.100000000000D+01
0.115642716076D-04 0.000000000000D+00 0.000000000000D+00 0.148150378190D-04 0.000000000000D+00  7 -2 1 -24 -13 13 23 21 2 0.14393234D+00 0.35754452D-01 0.68690762D+05 0.68690762D+05 0.68690762D+05 0.11353573D+01  1  2 15  1  7  1       -2 0.699753051074D-04 0.100000000000D+01
0.295959098712D-03 0.000000000000D+00 0.000000000000D+00 0.148150378190D-04 0.000000000000D+00  7 -2 1 -24 -13 13 23 21 2 0.15779020D+00 0.35754452D-01 0.86963798D+05 0.86963798D+05 0.86963798D+05 0.11267343D+01  1  2 12  1  7  1       -2 0.136221794528D-02 0.100000000000D+01
-.259682024189D-03 0.000000000000D+00 0.000000000000D+00 0.148150378190D-04 0.000000000000D+00  7 -2 1 -24 -13 13 23 21 2 0.14393234D+00 0.35754452D-01 0.68690762D+05 0.68690762D+05 0.68690762D+05 0.11353573D+01  1  2  4  1  7  1       -2 -.157133362914D-02 0.100000000000D+01
-.800216783499D-03 0.000000000000D+00 -.209140773122D-03 0.148150378190D-04 0.000000000000D+00  7 -2 1 -24 -13 13 23 21 2 0.15990217D+00 0.35754452D-01 0.68690762D+05 0.68690762D+05 0.68690762D+05 0.11353573D+01  1  2  5  1  7  1       -2 -.363218042036D-02 0.100000000000D+01
0.818837852747D-03 0.000000000000D+00 0.207988390518D-03 0.148150378190D-04 0.000000000000D+00  7 -2 1 -24 -13 13 23 21 2 0.14393234D+00 0.35754452D-01 0.68690762D+05 0.68690762D+05 0.68690762D+05 0.11353573D+01  1  2  6  1  7  1       -2 0.495478059698D-02 0.100000000000D+01
0.446788887037D-05 0.000000000000D+00 0.000000000000D+00 0.148150378190D-04 0.000000000000D+00  7 21 1 -24 -13 13 23 2 2 0.15779020D+00 0.35754452D-01 0.86963798D+05 0.86963798D+05 0.86963798D+05 0.11267343D+01  1  2 12  3  7  1       -2 0.181068157011D-03 0.100000000000D+01
-.128207499844D-04 0.000000000000D+00 -.354898417901D-05 0.148150378190D-04 0.000000000000D+00  7 21 1 -24 -13 13 23 2 2 0.15990217D+00 0.35754452D-01 0.68690762D+05 0.68690762D+05 0.68690762D+05 0.11353573D+01  1  2  5  3  7  1       -2 -.515500467442D-03 0.100000000000D+01
  </mgrwgt>
  </event>
  <event>
  8     66 0.26562228E-05 0.17080523E+03 0.75467711E-02 0.95893673E-01
       -2 -1    0    0    0  501 0.00000000E+00 0.00000000E+00 0.70629900E+02 0.70630625E+02 0.32000000E+00 0.0000E+00 0.9000E+01
        1 -1    0    0  501    0 0.00000000E+00 0.00000000E+00 -.20250420E+04 0.20250420E+04 0.32000000E+00 0.0000E+00 0.9000E+01
       25  2    1    2    0    0 0.30172941E+03 -.25367134E+02 -.90672356E+03 0.10021450E+04 0.30077059E+03 0.0000E+00 0.0000E+00
       23  2    3    3    0    0 0.19320081E+03 0.17201357E+02 -.77493717E+03 0.80396977E+03 0.90649555E+02 0.0000E+00 0.0000E+00
      -24  1    1    2    0    0 -.30172941E+03 0.25367134E+02 -.10476885E+04 0.10935276E+04 0.80419002E+02 0.0000E+00 0.9000E+01
      -13  1    4    4    0    0 0.67800804E+02 0.50273454E+02 -.30900037E+03 0.32032111E+03 0.10565837E+00 0.0000E+00 0.9000E+01
       13  1    4    4    0    0 0.12540001E+03 -.33072096E+02 -.46593679E+03 0.48364867E+03 0.10565837E+00 0.0000E+00 0.9000E+01
       23  1    3    3    0    0 0.10852860E+03 -.42568491E+02 -.13178639E+03 0.19817527E+03 0.91188000E+02 0.0000E+00 0.9000E+01
#aMCatNLO 1  0  0  2  1 0.18869921D+03 0.00000000D+00  -5  7  0 0.00000000D+00 0.00000000D+00 0.00000000D+00 0.00000000D+00 0.00000000D+00
  <mgrwgt>
 0.9013775715D-03    9    2    0
 0.378192145570865D+03 0.000000000000000D+00 0.000000000000000D+00 0.378192145570865D+03
 0.378192145570865D+03 0.000000000000000D+00 0.000000000000000D+00 -.378192145570865D+03
 0.322667637923452D+03 -.301729412174272D+03 0.253671340349596D+02 -.772208452980817D+02
 0.890738545619091D+02 0.678007255147970D+02 0.502735667005055D+02 -.284566631457927D+02
 0.136090641353869D+03 0.125400086834469D+03 -.330722095256489D+02 -.412517859383888D+02
 0.208552157302499D+03 0.108528599825006D+03 -.425684912098163D+02 0.146929294382263D+03
 0.000000000000000D+00 -.000000000000000D+00 -.000000000000000D+00 -.000000000000000D+00
 0.437463098374364D+03 0.000000000000000D+00 0.000000000000000D+00 0.437463098374364D+03
 0.576484707272744D+03 0.000000000000000D+00 0.000000000000000D+00 -.576484707272744D+03
 0.273438540767610D+03 -.240796926290357D+03 0.659939464141620D+02 -.772208452980817D+02
 0.112834826725317D+03 0.884393270125846D+02 0.640343804709656D+02 -.284566631457927D+02
 0.161713687020660D+03 0.155840902050804D+03 -.127757573044134D+02 -.412517859383888D+02
 0.231579867924269D+03 0.153517797006416D+03 -.125718868293182D+02 0.146929294382263D+03
 0.234380883209251D+03 -.157001099779447D+03 -.104680682751396D+03 -.139021608898381D+03
0.413915786575D-04 0.000000000000D+00 0.000000000000D+00 0.136865418926D-05 0.000000000000D+00  7 -2 1 -24 -13 13 23 21 0 0.10866196D-01 0.31154498D+00 0.11403827D+06 0.11403827D+06 0.11403827D+06 0.11170702D+01  1  2  2  2  7  2        1 0.747926984629D-03 0.100000000000D+01
-.226366834471D-05 0.000000000000D+00 -.158954560698D-06 0.136865418926D-05 0.000000000000D+00  7 -2 1 -24 -13 13 23 21 2 0.10866196D-01 0.31154498D+00 0.11403827D+06 0.11403827D+06 0.11403827D+06 0.11170702D+01  1  2  3  2  7  2        1 -.510412105543D-04 0.100000000000D+01
0.261056072761D-05 0.000000000000D+00 0.000000000000D+00 0.136865418926D-05 0.000000000000D+00  7 -2 1 -24 -13 13 23 21 2 0.10866196D-01 0.31154498D+00 0.11403827D+06 0.11403827D+06 0.11403827D+06 0.11170702D+01  1  2 15  2  7  2        1 0.588629425659D-04 0.100000000000D+01
0.122333542548D-04 0.000000000000D+00 0.000000000000D+00 0.136865418926D-05 0.000000000000D+00  7 -2 1 -24 -13 13 23 21 2 0.10866196D-01 0.48897956D+00 0.20050633D+06 0.20050633D+06 0.20050633D+06 0.10977411D+01  1  2 12  2  7  2        1 0.404278292370D-04 0.100000000000D+01
-.242805839689D-04 0.000000000000D+00 0.000000000000D+00 0.136865418926D-05 0.000000000000D+00  7 -2 1 -24 -13 13 23 21 2 0.10866196D-01 0.31154498D+00 0.11403827D+06 0.11403827D+06 0.11403827D+06 0.11170702D+01  1  2  4  2  7  2        1 -.547478786650D-03 0.100000000000D+01
-.302379935355D-04 0.000000000000D+00 -.121232234792D-04 0.136865418926D-05 0.000000000000D+00  7 -2 1 -24 -13 13 23 21 2 0.10866196D-01 0.49454745D+00 0.11403827D+06 0.11403827D+06 0.11403827D+06 0.11170702D+01  1  2  5  2  7  2        1 -.100103588701D-03 0.100000000000D+01
0.333987190040D-04 0.000000000000D+00 0.109348128169D-04 0.136865418926D-05 0.000000000000D+00  7 -2 1 -24 -13 13 23 21 2 0.10866196D-01 0.31154498D+00 0.11403827D+06 0.11403827D+06 0.11403827D+06 0.11170702D+01  1  2  6  2  7  2        1 0.753074562759D-03 0.100000000000D+01
0.636540658575D-06 0.000000000000D+00 0.000000000000D+00 0.136865418926D-05 0.000000000000D+00  7 -2 21 -24 -13 13 23 -1 2 0.10866196D-01 0.48897956D+00 0.20050633D+06 0.20050633D+06 0.20050633D+06 0.10977411D+01  1  2 12  4  7  2        1 0.399488767423D-06 0.100000000000D+01
-.110494132614D-05 0.000000000000D+00 -.642851049452D-06 0.136865418926D-05 0.000000000000D+00  7 -2 21 -24 -13 13 23 -1 2 0.10866196D-01 0.49454745D+00 0.11403827D+06 0.11403827D+06 0.11403827D+06 0.11170702D+01  1  2  5  4  7  2        1 -.690650551424D-06 0.100000000000D+01
  </mgrwgt>
  </event>
  <event>
  8     66 0.26562228E-05 0.17204641E+03 0.75467711E-02 0.10850184E+00
       -2 -1    0    0    0  501 0.00000000E+00 0.00000000E+00 0.36891323E+03 0.36891337E+03 0.32000000E+00 0.0000E+00 0.9000E+01
        1 -1    0    0  501    0 0.00000000E+00 0.00000000E+00 -.15908384E+03 0.15908417E+03 0.32000000E+00 0.0000E+00 0.9000E+01
       25  2    1    2    0    0 -.16961435E+02 -.93661871E+02 0.40680068E+02 0.31790483E+03 0.30058007E+03 0.0000E+00 0.0000E+00
       23  2    3    3    0    0 0.46918569E+02 -.36568344E+02 -.86290717E+02 0.13964335E+03 0.92279901E+02 0.0000E+00 0.0000E+00
      -24  1    1    2    0    0 0.16961435E+02 0.93661871E+02 0.16914932E+03 0.21009270E+03 0.80419002E+02 0.0000E+00 0.9000E+01
      -13  1    4    4    0    0 0.52188396E+02 0.50301651E+01 -.11162036E+02 0.53605349E+02 0.10565837E+00 0.0000E+00 0.9000E+01
       13  1    4    4    0    0 -.52698265E+01 -.41598509E+02 -.75128681E+02 0.86037997E+02 0.10565837E+00 0.0000E+00 0.9000E+01
       23  1    3    3    0    0 -.63880004E+02 -.57093527E+02 0.12697078E+03 0.17826149E+03 0.91188000E+02 0.0000E+00 0.9000E+01
#aMCatNLO 1  0  0  1  1 0.75258454D+00 0.00000000D+00  -5  7  0 0.00000000D+00 0.00000000D+00 0.00000000D+00 0.00000000D+00 0.00000000D+00
  <mgrwgt>
 0.5059312257D-03    6    2    0
 0.242256591834228D+03 0.000000000000000D+00 0.000000000000000D+00 0.242256591834228D+03
 0.242256591834228D+03 0.000000000000000D+00 0.000000000000000D+00 -.242256591834228D+03
 0.155694286966262D+03 0.169614358699231D+02 0.936618760650739D+02 0.933448322338380D+02
 0.632502368139541D+02 0.521884675512325D+02 0.503022427875593D+01 -.353787104821620D+02
 0.126296036472270D+03 -.526990056713105D+01 -.415985711400985D+02 -.119132178086862D+03
 0.139272623415970D+03 -.638800028540245D+02 -.570935292037314D+02 0.611660563351855D+02
 0.000000000000000D+00 -.000000000000000D+00 0.000000000000000D+00 -.000000000000000D+00
 0.242458224831625D+03 0.000000000000000D+00 0.000000000000000D+00 0.242458224831625D+03
 0.242960148911461D+03 0.000000000000000D+00 0.000000000000000D+00 -.242960148911461D+03
 0.155569495077593D+03 0.170521082363798D+02 0.934377854203434D+02 0.933448322338380D+02
 0.632734756418136D+02 0.522253244073239D+02 0.493913504212280D+01 -.353787104821620D+02
 0.126353015366255D+03 -.519630290259448D+01 -.417804628094257D+02 -.119132178086862D+03
 0.139317782069621D+03 -.637988483709309D+02 -.572940970409885D+02 0.611660563351855D+02
 0.904605587803421D+00 -.282281370178291D+00 0.697639387948037D+00 -.501924079835713D+00
0.663257275438D-05 0.000000000000D+00 0.000000000000D+00 0.461031838600D-06 0.000000000000D+00  7 -2 1 -24 -13 13 23 21 0 0.56755917D-01 0.24474473D-01 0.29599969D+05 0.29599969D+05 0.29599969D+05 0.11678772D+01  1  2  2  1  7  1       -2 0.439814105311D-03 0.100000000000D+01
-.316003346583D-06 0.000000000000D+00 -.254708257733D-07 0.461031838600D-06 0.000000000000D+00  7 -2 1 -24 -13 13 23 21 2 0.56755917D-01 0.24474473D-01 0.29599969D+05 0.29599969D+05 0.29599969D+05 0.11678772D+01  1  2  3  1  7  1       -2 -.285807215222D-04 0.100000000000D+01
0.426486007368D-06 0.000000000000D+00 0.000000000000D+00 0.461031838600D-06 0.000000000000D+00  7 -2 1 -24 -13 13 23 21 2 0.56755917D-01 0.24474473D-01 0.29599969D+05 0.29599969D+05 0.29599969D+05 0.11678772D+01  1  2 15  1  7  1       -2 0.385732554465D-04 0.100000000000D+01
-.880066356855D-04 0.000000000000D+00 0.000000000000D+00 0.461031838600D-06 0.000000000000D+00  7 -2 1 -24 -13 13 23 21 2 0.56755917D-01 0.24474473D-01 0.29599969D+05 0.29599969D+05 0.29599969D+05 0.11678772D+01  1  2  4  1  7  1       -2 -.795970414185D-02 0.100000000000D+01
0.880069115326D-04 0.000000000000D+00 0.000000000000D+00 0.461031838600D-06 0.591925968160D-05  7 -2 1 -24 -13 13 23 21 2 0.56803155D-01 0.24545551D-01 0.29745739D+05 0.29745739D+05 0.29745739D+05 0.11676790D+01  1  2 11  1  7  1       -2 0.791449741828D-02 0.100000000000D+01
0.103029083133D-06 0.000000000000D+00 0.000000000000D+00 0.461031838600D-06 0.922992654200D-09  7 21 1 -24 -13 13 23 2 2 0.56803155D-01 0.24545551D-01 0.29745739D+05 0.29745739D+05 0.29745739D+05 0.11676790D+01  1  2 11  3  7  1       -2 0.101331310005D-03 0.100000000000D+01
  </mgrwgt>
  </event>
  <event>
  8     66 0.26562228E-05 0.13257626E+03 0.75467711E-02 0.85001209E-01
       -2 -1    0    0    0  501 0.00000000E+00 0.00000000E+00 0.26140522E+03 0.26140542E+03 0.32000000E+00 0.0000E+00 0.9000E+01
        1 -1    0    0  501    0 0.00000000E+00 0.00000000E+00 -.14351358E+03 0.14351393E+03 0.32000000E+00 0.0000E+00 0.9000E+01
       25  2    1    2    0    0 0.13474228E+02 -.59262150E+01 0.64085720E+02 0.30704715E+03 0.29992382E+03 0.0000E+00 0.0000E+00
       23  2    3    3    0    0 -.41606234E+02 0.38422979E+02 -.69579287E+02 0.13046206E+03 0.94718888E+02 0.0000E+00 0.0000E+00
      -24  1    1    2    0    0 -.13474228E+02 0.59262150E+01 0.53805922E+02 0.97872203E+02 0.80419002E+02 0.0000E+00 0.9000E+01
      -11  1    4    4    0    0 -.17741324E+02 0.40331918E+02 -.89212460E+02 0.99500156E+02 0.51099893E-03 0.0000E+00 0.9000E+01
       11  1    4    4    0    0 -.23864910E+02 -.19089390E+01 0.19633173E+02 0.30961903E+02 0.51099893E-03 0.0000E+00 0.9000E+01
       23  1    3    3    0    0 0.55080462E+02 -.44349194E+02 0.13366501E+03 0.17658509E+03 0.91188000E+02 0.0000E+00 0.9000E+01
#aMCatNLO 1  0  0  2  1 0.12730567D+04 0.00000000D+00  -5  7  0 0.00000000D+00 0.00000000D+00 0.00000000D+00 0.00000000D+00 0.00000000D+00
  <mgrwgt>
 0.8838581616D-03    5    2    0
 0.193688694778027D+03 0.000000000000000D+00 0.000000000000000D+00 0.193688694778027D+03
 0.193688694778027D+03 0.000000000000000D+00 0.000000000000000D+00 -.193688694778027D+03
 0.859293342602511D+02 -.134742311527846D+02 0.592621620022985D+01 0.264567493927144D+02
 0.131156189978404D+03 -.177413226175280D+02 0.403319171475717D+02 -.123533510031219D+03
 0.263889598543199D+02 -.238649089934834D+02 -.190893936898888D+01 0.110995167197130D+02
 0.143902905463079D+03 0.550804627637960D+02 -.443491939788126D+02 0.859772439187920D+02
 0.000000000000000D+00 -.000000000000000D+00 -.000000000000000D+00 -.000000000000000D+00
 0.824669486631201D+03 0.000000000000000D+00 0.000000000000000D+00 0.824669486631201D+03
 0.320837933671639D+04 0.000000000000000D+00 0.000000000000000D+00 -.320837933671639D+04
 0.271253208251867D+03 0.198955380308902D+03 0.163792197891936D+03 0.264567493927144D+02
 0.482800274344449D+03 0.347401195975944D+03 0.311685716453169D+03 -.123533510031219D+03
 0.239581942886311D+02 0.607839763501983D+01 0.203432761459700D+02 0.110995167197130D+02
 0.552677818108854D+03 0.469362671013283D+03 0.263522514926086D+03 0.859772439187920D+02
 0.270235932835379D+04 -.102179764493315D+04 -.759343705417162D+03 -.238370985008519D+04
0.593992765216D-05 0.000000000000D+00 0.000000000000D+00 0.971172664577D-07 0.000000000000D+00  7 -2 1 -24 -11 11 23 21 0 0.40216230D-01 0.22079055D-01 0.17576466D+05 0.17576466D+05 0.17576466D+05 0.11895121D+01  1  2  2  2  7  2        1 0.862458847073D-03 0.100000000000D+01
-.272334694997D-06 0.000000000000D+00 -.228108862032D-07 0.971172664577D-07 0.000000000000D+00  7 -2 1 -24 -11 11 23 21 2 0.40216230D-01 0.22079055D-01 0.17576466D+05 0.17576466D+05 0.17576466D+05 0.11895121D+01  1  2  3  2  7  2        1 -.559497246794D-04 0.100000000000D+01
0.362852356924D-06 0.000000000000D+00 0.000000000000D+00 0.971172664577D-07 0.000000000000D+00  7 -2 1 -24 -11 11 23 21 2 0.40216230D-01 0.22079055D-01 0.17576466D+05 0.17576466D+05 0.17576466D+05 0.11895121D+01  1  2 15  2  7  2        1 0.745461002294D-04 0.100000000000D+01
0.394848382722D-04 0.000000000000D+00 -.125612651390D-04 0.971172664577D-07 0.000000000000D+00  7 -2 1 -24 -11 11 23 21 2 0.40216230D-01 0.64885594D+00 0.17576466D+05 0.17576466D+05 0.17576466D+05 0.11895121D+01  1  2  5  2  7  2        1 0.275101299391D-05 0.100000000000D+01
0.968852311229D-05 0.000000000000D+00 -.424614402704D-05 0.971172664577D-07 0.000000000000D+00  7 -2 21 -24 -11 11 23 -1 2 0.40216230D-01 0.64885594D+00 0.17576466D+05 0.17576466D+05 0.17576466D+05 0.11895121D+01  1  2  5  4  7  2        1 0.519259409236D-07 0.100000000000D+01
  </mgrwgt>
  </event>
  <event>
  8     66 0.26562228E-05 0.80363570E+03 0.75467711E-02 0.89373878E-01
       -2 -1    0    0    0  501 0.00000000E+00 0.00000000E+00 0.17695261E+04 0.17695261E+04 0.32000000E+00 0.0000E+00 0.9000E+01
        1 -1    0    0  501    0 0.00000000E+00 0.00000000E+00 -.41120557E+03 0.41120570E+03 0.32000000E+00 0.0000E+00 0.9000E+01
       25  2    1    2    0    0 -.41136645E+03 -.66459320E+03 0.36380137E+03 0.91327688E+03 0.30135816E+03 0.0000E+00 0.0000E+00
       23  2    3    3    0    0 -.27615356E+03 -.54962503E+03 0.19481706E+03 0.65179809E+03 0.92404562E+02 0.0000E+00 0.0000E+00
      -24  1    1    2    0    0 0.41136645E+03 0.66459320E+03 0.99451911E+03 0.12674549E+04 0.80419002E+02 0.0000E+00 0.9000E+01
      -11  1    4    4    0    0 -.28366744E+03 -.53421932E+03 0.18931505E+03 0.63379625E+03 0.51099893E-03 0.0000E+00 0.9000E+01
       11  1    4    4    0    0 0.75138765E+01 -.15405713E+02 0.55020141E+01 0.18001847E+02 0.51099893E-03 0.0000E+00 0.9000E+01
       23  1    3    3    0    0 -.13521289E+03 -.11496817E+03 0.16898431E+03 0.26147878E+03 0.91188000E+02 0.0000E+00 0.9000E+01
#aMCatNLO 1  0  0  1  1 0.26059568D+02 0.00000000D+00  -5  7  0 0.00000000D+00 0.00000000D+00 0.00000000D+00 0.00000000D+00 0.00000000D+00
  <mgrwgt>
 0.5285097497D-03    4    2    0
 0.853017670376828D+03 0.000000000000000D+00 0.000000000000000D+00 0.853017670376828D+03
 0.853017670376828D+03 0.000000000000000D+00 0.000000000000000D+00 -.853017670376828D+03
 0.828296751200761D+03 0.411366448138822D+03 0.664593197994843D+03 0.262110317652705D+03
 0.659417240229373D+03 -.283667437979082D+03 -.534219319611920D+03 -.262628254183519D+03
 0.186301540971863D+02 0.751387654788467D+01 -.154057129840769D+02 -.729988413334762D+01
 0.199691195226336D+03 -.135212886707625D+03 -.114968165398846D+03 0.781782066416133D+01
 0.000000000000000D+00 0.000000000000000D+00 0.000000000000000D+00 -.000000000000000D+00
 0.858548264603365D+03 0.000000000000000D+00 0.000000000000000D+00 0.858548264603365D+03
 0.884377095050487D+03 0.000000000000000D+00 0.000000000000000D+00 -.884377095050487D+03
 0.818327864903534D+03 0.400036125110541D+03 0.659137738647808D+03 0.262110317652705D+03
 0.666938256953448D+03 -.292794008835876D+03 -.538613690025084D+03 -.262628254183519D+03
 0.186310041182726D+02 0.725748480269878D+01 -.155291635458380D+02 -.729988413334762D+01
 0.202337232197118D+03 -.137979219668222D+03 -.116300132454793D+03 0.781782066416133D+01
 0.366910014814802D+02 0.234796185908570D+02 0.113052473779068D+02 -.258288304471224D+02
0.294359551895D-02 0.000000000000D+00 0.000000000000D+00 0.336743025311D-05 0.000000000000D+00  7 -2 1 -24 -11 11 23 21 0 0.27223479D+00 0.63262408D-01 0.64583033D+06 0.64583033D+06 0.64583033D+06 0.10607426D+01  1  2  2  1  7  1       -2 0.760780590688D-03 0.100000000000D+01
-.162825988914D-03 0.000000000000D+00 -.113041818593D-04 0.336743025311D-05 0.000000000000D+00  7 -2 1 -24 -11 11 23 21 2 0.27223479D+00 0.63262408D-01 0.64583033D+06 0.64583033D+06 0.64583033D+06 0.10607426D+01  1  2  3  1  7  1       -2 -.473505486638D-04 0.100000000000D+01
0.187721795881D-03 0.000000000000D+00 0.000000000000D+00 0.336743025311D-05 0.000000000000D+00  7 -2 1 -24 -11 11 23 21 2 0.27223479D+00 0.63262408D-01 0.64583033D+06 0.64583033D+06 0.64583033D+06 0.10607426D+01  1  2 15  1  7  1       -2 0.545903641698D-04 0.100000000000D+01
-.823613677228D-03 0.000000000000D+00 0.000000000000D+00 0.336743025311D-05 0.000000000000D+00  7 -2 1 -24 -11 11 23 21 2 0.27223479D+00 0.63262408D-01 0.64583033D+06 0.64583033D+06 0.64583033D+06 0.10607426D+01  1  2  4  1  7  1       -2 -.239510656523D-03 0.100000000000D+01
  </mgrwgt>
  </event>
  <event>
  8     66 0.26562228E-05 0.99488830E+02 0.75467711E-02 0.99896814E-01
       -2 -1    0    0    0  501 0.00000000E+00 0.00000000E+00 0.15527458E+03 0.15527491E+03 0.32000000E+00 0.0000E+00 0.9000E+01
        1 -1    0    0  501    0 0.00000000E+00 0.00000000E+00 -.16178206E+04 0.16178207E+04 0.32000000E+00 0.0000E+00 0.9000E+01
       25  2    1    2    0    0 0.13681078E+03 -.22537958E+03 -.14424913E+04 0.14967216E+04 0.29980232E+03 0.0000E+00 0.0000E+00
       23  2    3    3    0    0 0.12817383E+03 -.41752362E+02 -.38251858E+03 0.41706849E+03 0.97231016E+02 0.0000E+00 0.0000E+00
      -24  1    1    2    0    0 -.13681078E+03 0.22537958E+03 -.20054770E+02 0.27637394E+03 0.80419002E+02 0.0000E+00 0.9000E+01
      -13  1    4    4    0    0 0.36140613E+02 -.40670637E+02 -.57045058E+02 0.78831431E+02 0.10565837E+00 0.0000E+00 0.9000E+01
       13  1    4    4    0    0 0.92033212E+02 -.10817243E+01 -.32547352E+03 0.33823706E+03 0.10565837E+00 0.0000E+00 0.9000E+01
       23  1    3    3    0    0 0.86369499E+01 -.18362722E+03 -.10599727E+04 0.10796532E+04 0.91188000E+02 0.0000E+00 0.9000E+01
#aMCatNLO 1  0  0  1  2 0.16187979D+02 0.00000000D+00  -5  7  0 0.00000000D+00 0.00000000D+00 0.00000000D+00 0.00000000D+00 0.00000000D+00
  <mgrwgt>
 0.1218087038D-02    6    2    0
 0.501205294242529D+03 0.000000000000000D+00 0.000000000000000D+00 0.501205294242529D+03
 0.501205294242529D+03 0.000000000000000D+00 0.000000000000000D+00 -.501205294242529D+03
 0.459598483204109D+03 -.136810775656516D+03 0.225379581771792D+03 0.367764062401130D+03
 0.562090595919113D+02 0.361405479825218D+02 -.406706819511469D+02 0.141143473585828D+02
 0.123409205039552D+03 0.920332780380300D+02 -.108167733879613D+01 -.822103253624728D+02
 0.363193840649485D+03 0.863694963596410D+01 -.183627222481849D+03 -.299668084397240D+03
 0.000000000000000D+00 0.000000000000000D+00 -.000000000000000D+00 -.000000000000000D+00
 0.509164630875469D+03 0.000000000000000D+00 0.000000000000000D+00 0.509164630875469D+03
 0.509569705477664D+03 0.000000000000000D+00 0.000000000000000D+00 -.509569705477664D+03
 0.463916158535401D+03 -.140671930544778D+03 0.231758470306688D+03 0.367764062401130D+03
 0.553522896062881D+02 0.356741172088999D+02 -.399001068252371D+02 0.141143473585828D+02
 0.122640731858550D+03 0.910045591919257D+02 0.617835641891379D+00 -.822103253624728D+02
 0.360632110204357D+03 0.561068022768931D+01 -.178627621121479D+03 -.299668084397240D+03
 0.161930461485368D+02 0.838257391626285D+01 -.138485780018632D+02 -.405074602195528D+00
0.823164986103D-04 0.000000000000D+00 0.000000000000D+00 0.550622929594D-06 0.000000000000D+00  7 -2 1 -24 -13 13 23 21 0 0.23888425D-01 0.24889551D+00 0.98375509D+05 0.98375509D+05 0.98375509D+05 0.11223062D+01  1  2  2  1  7  1       -2 0.773055257869D-03 0.100000000000D+01
-.335144042692D-05 0.000000000000D+00 -.316117029096D-06 0.550622929594D-06 0.000000000000D+00  7 -2 1 -24 -13 13 23 21 2 0.23888425D-01 0.24889551D+00 0.98375509D+05 0.98375509D+05 0.98375509D+05 0.11223062D+01  1  2  3  1  7  1       -2 -.396440385558D-04 0.100000000000D+01
0.502648184428D-05 0.000000000000D+00 0.000000000000D+00 0.550622929594D-06 0.000000000000D+00  7 -2 1 -24 -13 13 23 21 2 0.23888425D-01 0.24889551D+00 0.98375509D+05 0.98375509D+05 0.98375509D+05 0.11223062D+01  1  2 15  1  7  1       -2 0.594580283849D-04 0.100000000000D+01
0.722748717242D-04 0.000000000000D+00 0.000000000000D+00 0.550622929594D-06 0.000000000000D+00  7 -2 1 -24 -13 13 23 21 2 0.24463898D-01 0.24889551D+00 0.10372855D+06 0.10372855D+06 0.10372855D+06 0.11204197D+01  1  2 12  1  7  1       -2 0.816751395103D-03 0.100000000000D+01
-.536579606741D-04 0.000000000000D+00 0.000000000000D+00 0.550622929594D-06 0.000000000000D+00  7 -2 1 -24 -13 13 23 21 2 0.23888425D-01 0.24889551D+00 0.98375509D+05 0.98375509D+05 0.98375509D+05 0.11223062D+01  1  2  4  1  7  1       -2 -.634717611179D-03 0.100000000000D+01
0.174482975874D-05 0.000000000000D+00 0.000000000000D+00 0.550622929594D-06 0.000000000000D+00  7 21 1 -24 -13 13 23 2 2 0.24463898D-01 0.24889551D+00 0.10372855D+06 0.10372855D+06 0.10372855D+06 0.11204197D+01  1  2 12  3  7  1       -2 0.243184006341D-03 0.100000000000D+01
  </mgrwgt>
  </event>
  <event>
  8     66 0.26562228E-05 0.29342924E+03 0.75467711E-02 0.93805331E-01
       -2 -1    0    0    0  501 0.00000000E+00 0.00000000E+00 0.18044026E+03 0.18044054E+03 0.32000000E+00 0.0000E+00 0.9000E+01
        1 -1    0    0  501    0 0.00000000E+00 0.00000000E+00 -.55979104E+03 0.55979113E+03 0.32000000E+00 0.0000E+00 0.9000E+01
       25  2    1    2    0    0 -.11976413E+03 -.18348664E+03 -.10551538E+03 0.38042084E+03 0.29253329E+03 0.0000E+00 0.0000E+00
       23  2    3    3    0    0 -.18290094E+03 -.11832190E+03 -.78541750E+02 0.24898444E+03 0.91496539E+02 0.0000E+00 0.0000E+00
      -24  1    1    2    0    0 0.11976413E+03 0.18348664E+03 -.27383540E+03 0.35981083E+03 0.80419002E+02 0.0000E+00 0.9000E+01
      -13  1    4    4    0    0 -.40726334E+02 -.14218053E+01 0.13841755E+02 0.43037904E+02 0.10565837E+00 0.0000E+00 0.9000E+01
       13  1    4    4    0    0 -.14217461E+03 -.11690009E+03 -.92383505E+02 0.20594653E+03 0.10565837E+00 0.0000E+00 0.9000E+01
       23  1    3    3    0    0 0.63136808E+02 -.65164745E+02 -.26973631E+02 0.13143641E+03 0.91188000E+02 0.0000E+00 0.9000E+01
#aMCatNLO 1  0  0  1  2 0.38060240D+03 0.00000000D+00  -5  7  0 0.00000000D+00 0.00000000D+00 0.00000000D+00 0.00000000D+00 0.00000000D+00
  <mgrwgt>
 0.1108827868D-01    5    2    0
 0.317819098609890D+03 0.000000000000000D+00 0.000000000000000D+00 0.317819098609890D+03
 0.317819098609890D+03 0.000000000000000D+00 0.000000000000000D+00 -.317819098609890D+03
 0.255591476980459D+03 0.119764133064712D+03 0.183486644400205D+03 -.104158489374091D+03
 0.583803696414336D+02 -.407261986538528D+02 -.142165166240836D+01 0.418045835911340D+02
 0.184700192480894D+03 -.142174740435917D+03 -.116900247344206D+03 0.153243745491481D+02
 0.136966158116993D+03 0.631368060250580D+02 -.651647453935902D+02 0.470295312338090D+02
 0.000000000000000D+00 -.000000000000000D+00 -.000000000000000D+00 0.000000000000000D+00
 0.570679791613349D+03 0.000000000000000D+00 0.000000000000000D+00 0.570679791613349D+03
 0.551290067175332D+03 0.000000000000000D+00 0.000000000000000D+00 -.551290067175332D+03
 0.419837547935427D+03 0.272366876207645D+03 0.291141966295240D+03 -.104158489374091D+03
 0.476287730565659D+02 -.167750722183846D+02 0.154749399260136D+02 0.418045835911340D+02
 0.105366713016259D+03 -.766386088203703D+02 -.706670460300022D+02 0.153243745491481D+02
 0.168040843912225D+03 0.132048421413895D+03 -.165502710781221D+02 0.470295312338090D+02
 0.381095980868203D+03 -.311001616582785D+03 -.219399589113129D+03 0.193897244380168D+02
0.214405376196D-03 0.000000000000D+00 0.000000000000D+00 0.185198929614D-07 0.000000000000D+00  7 -2 1 -24 -13 13 23 21 0 0.27760069D-01 0.86121727D-01 0.86100716D+05 0.86100716D+05 0.86100716D+05 0.11270948D+01  1  2  2  1  7  1       -2 0.101897852268D-01 0.100000000000D+01
-.118190784133D-04 0.000000000000D+00 -.823373098823D-06 0.185198929614D-07 0.000000000000D+00  7 -2 1 -24 -13 13 23 21 2 0.27760069D-01 0.86121727D-01 0.86100716D+05 0.86100716D+05 0.86100716D+05 0.11270948D+01  1  2  3  1  7  1       -2 -.713565573521D-03 0.100000000000D+01
0.140371537485D-04 0.000000000000D+00 0.000000000000D+00 0.185198929614D-07 0.000000000000D+00  7 -2 1 -24 -13 13 23 21 2 0.27760069D-01 0.86121727D-01 0.86100716D+05 0.86100716D+05 0.86100716D+05 0.11270948D+01  1  2 15  1  7  1       -2 0.847479753913D-03 0.100000000000D+01
0.329181784436D-04 0.000000000000D+00 -.670231790918D-04 0.185198929614D-07 0.000000000000D+00  7 -2 1 -24 -13 13 23 21 2 0.82793060D-01 0.86121727D-01 0.86100716D+05 0.86100716D+05 0.86100716D+05 0.11270948D+01  1  2  5  1  7  1       -2 0.235165566468D-03 0.100000000000D+01
0.747639735099D-05 0.000000000000D+00 -.832388157890D-05 0.185198929614D-07 0.000000000000D+00  7 21 1 -24 -13 13 23 2 2 0.82793060D-01 0.86121727D-01 0.86100716D+05 0.86100716D+05 0.86100716D+05 0.11270948D+01  1  2  5  3  7  1       -2 0.529413705363D-03 0.100000000000D+01
  </mgrwgt>
  </event>
  <event>
  8     66 0.26562228E-05 0.24818757E+03 0.75467711E-02 0.10121978E+00
       -2 -1    0    0    0  501 0.00000000E+00 0.00000000E+00 0.87588788E+02 0.87589373E+02 0.32000000E+00 0.0000E+00 0.9000E+01
        1 -1    0    0  501    0 0.00000000E+00 0.00000000E+00 -.15254013E+04 0.15254013E+04 0.32000000E+00 0.0000E+00 0.9000E+01
       25  2    1    2    0    0 -.22720697E+03 -.88277158E+02 -.12141281E+04 0.12725237E+04 0.29290545E+03 0.0000E+00 0.0000E+00
       23  2    3    3    0    0 -.94384320E+02 -.93056273E+02 -.94636757E+03 0.95999265E+03 0.91686570E+02 0.0000E+00 0.0000E+00
      -24  1    1    2    0    0 0.22720697E+03 0.88277158E+02 -.22368439E+03 0.34046701E+03 0.80419002E+02 0.0000E+00 0.9000E+01
      -11  1    4    4    0    0 -.59009159E+02 0.21695792E+01 -.31112072E+03 0.31667474E+03 0.51099893E-03 0.0000E+00 0.9000E+01
       11  1    4    4    0    0 -.35375160E+02 -.95225852E+02 -.63524685E+03 0.64331790E+03 0.51099893E-03 0.0000E+00 0.9000E+01
       23  1    3    3    0    0 -.13282265E+03 0.47791151E+01 -.26776055E+03 0.31253105E+03 0.91188000E+02 0.0000E+00 0.9000E+01
#aMCatNLO 1  0  0  2  1 0.26902897D+01 0.00000000D+00  -5  7  0 0.00000000D+00 0.00000000D+00 0.00000000D+00 0.00000000D+00 0.00000000D+00
  <mgrwgt>
 0.2979554122D-01   10    2    0
 0.365525032852751D+03 0.000000000000000D+00 0.000000000000000D+00 0.365525032852751D+03
 0.365525032852751D+03 0.000000000000000D+00 0.000000000000000D+00 -.365525032852751D+03
 0.311269934902639D+03 0.227206965138595D+03 0.882771579355176D+02 0.176084907925862D+03
 0.868068420843621D+02 -.590091594396171D+02 0.216957917166896D+01 -.636289231490451D+02
 0.170029300026343D+03 -.353751601842558D+02 -.952258522115020D+02 -.136347343135022D+03
 0.162943988692158D+03 -.132822645514722D+03 0.477911510431542D+01 0.238913583582051D+02
 0.000000000000000D+00 0.000000000000000D+00 -.000000000000000D+00 -.000000000000000D+00
 0.366296691158100D+03 0.000000000000000D+00 0.000000000000000D+00 0.366296691158100D+03
 0.367879892321489D+03 0.000000000000000D+00 0.000000000000000D+00 -.367879892321489D+03
 0.311151312440038D+03 0.226652296774751D+03 0.892791400398702D+02 0.176084907925862D+03
 0.869195870781509D+02 -.591639750964275D+02 0.244924631641551D+01 -.636289231490451D+02
 0.169786907687052D+03 -.356779861252802D+02 -.946788115049846D+02 -.136347343135022D+03
 0.163197208663226D+03 -.133113285021474D+03 0.530414159503594D+01 0.238913583582051D+02
 0.312156761112065D+01 0.130294946843061D+01 -.235371644633702D+01 -.158320116338906D+01
0.299336104263D-03 0.000000000000D+00 0.000000000000D+00 0.314059938608D-07 0.000000000000D+00  7 -2 1 -24 -11 11 23 21 0 0.13475246D-01 0.23467717D+00 0.83663612D+05 0.83663612D+05 0.83663612D+05 0.11281348D+01  1  2  2  2  7  2        1 0.826778052081D-02 0.100000000000D+01
-.155221294600D-04 0.000000000000D+00 -.114952945738D-05 0.314059938608D-07 0.000000000000D+00  7 -2 1 -24 -11 11 23 21 2 0.13475246D-01 0.23467717D+00 0.83663612D+05 0.83663612D+05 0.83663612D+05 0.11281348D+01  1  2  3  2  7  2        1 -.545636129525D-03 0.100000000000D+01
0.192462280991D-04 0.000000000000D+00 0.000000000000D+00 0.314059938608D-07 0.000000000000D+00  7 -2 1 -24 -11 11 23 21 2 0.13475246D-01 0.23467717D+00 0.83663612D+05 0.83663612D+05 0.83663612D+05 0.11281348D+01  1  2 15  2  7  2        1 0.676546181054D-03 0.100000000000D+01
-.980808110461D-02 0.000000000000D+00 0.000000000000D+00 0.314059938608D-07 0.000000000000D+00  7 -2 1 -24 -11 11 23 21 2 0.13475246D-01 0.23467717D+00 0.83663612D+05 0.83663612D+05 0.83663612D+05 0.11281348D+01  1  2  4  2  7  2        1 -.344775079076D+00 0.100000000000D+01
-.465930183436D-01 0.000000000000D+00 -.437259573523D-02 0.314059938608D-07 0.000000000000D+00  7 -2 1 -24 -11 11 23 21 2 0.13475246D-01 0.23643616D+00 0.83663612D+05 0.83663612D+05 0.83663612D+05 0.11281348D+01  1  2  5  2  7  2        1 -.160968844382D+01 0.100000000000D+01
0.466244922597D-01 0.000000000000D+00 0.437247382534D-02 0.314059938608D-07 0.000000000000D+00  7 -2 1 -24 -11 11 23 21 2 0.13475246D-01 0.23467717D+00 0.83663612D+05 0.83663612D+05 0.83663612D+05 0.11281348D+01  1  2  6  2  7  2        1 0.163895086452D+01 0.100000000000D+01
0.980826151695D-02 0.000000000000D+00 0.000000000000D+00 0.314059938608D-07 0.294371965267D-07  7 -2 1 -24 -11 11 23 21 2 0.13503693D-01 0.23618906D+00 0.84406242D+05 0.84406242D+05 0.84406242D+05 0.11278144D+01  1  2 11  2  7  2        1 0.338291059643D+00 0.100000000000D+01
0.111570255699D-06 0.000000000000D+00 0.000000000000D+00 0.314059938608D-07 0.000000000000D+00  7 -2 21 -24 -11 11 23 -1 2 0.13475246D-01 0.23643570D+00 0.84406242D+05 0.84406242D+05 0.84406242D+05 0.11278144D+01  1  2 12  4  7  2        1 0.305468303879D-05 0.100000000000D+01
-.644214426747D-04 0.000000000000D+00 -.605423344782D-05 0.314059938608D-07 0.000000000000D+00  7 -2 21 -24 -11 11 23 -1 2 0.13475246D-01 0.23643616D+00 0.83663612D+05 0.83663612D+05 0.83663612D+05 0.11281348D+01  1  2  5  4  7  2        1 -.176587236124D-02 0.100000000000D+01
0.139177459502D-04 0.000000000000D+00 0.000000000000D+00 0.314059938608D-07 0.351550859843D-10  7 -2 21 -24 -11 11 23 -1 2 0.13503693D-01 0.23618906D+00 0.84406242D+05 0.84406242D+05 0.84406242D+05 0.11278144D+01  1  2 11  4  7  2        1 0.381267052179D-03 0.100000000000D+01
  </mgrwgt>
  </event>
  <event>
  9     66 0.26562228E-05 0.15299118E+03 0.75467711E-02 0.10737774E+00
       21 -1    0    0  502  501 0.00000000E+00 0.00000000E+00 0.21191416E+03 0.21191549E+03 0.75000000E+00 0.0000E+00 0.9000E+01
        1 -1    0    0  501    0 0.00000000E+00 0.00000000E+00 -.40112982E+03 0.40112995E+03 0.32000000E+00 0.0000E+00 0.9000E+01
       25  2    1    2    0    0 0.11451391E+03 -.43202494E+01 -.67506062E+02 0.32836987E+03 0.30022926E+03 0.0000E+00 0.0000E+00
       23  2    3    3    0    0 0.49639884E+02 0.16049260E+02 0.83525213E+02 0.13929515E+03 0.98513854E+02 0.0000E+00 0.0000E+00
      -24  1    1    2    0    0 -.82147278E+02 -.39049265E+02 -.17217739E+03 0.21067817E+03 0.80419002E+02 0.0000E+00 0.9000E+01
      -13  1    4    4    0    0 -.49581764E+01 0.26734279E+02 -.11227324E+02 0.29417157E+02 0.10565837E+00 0.0000E+00 0.9000E+01
       13  1    4    4    0    0 0.54598060E+02 -.10685019E+02 0.94752537E+02 0.10987799E+03 0.10565837E+00 0.0000E+00 0.9000E+01
       23  1    3    3    0    0 0.64874025E+02 -.20369509E+02 -.15103127E+03 0.18907473E+03 0.91188000E+02 0.0000E+00 0.9000E+01
        2  1    1    2  502    0 -.32366631E+02 0.43369515E+02 0.50467797E+02 0.73997396E+02 0.32000000E+00 0.0000E+00 0.9000E+01
#aMCatNLO 2  0  0  1  2 0.54115743D+02 0.00000000D+00  -5  7  0 0.00000000D+00 0.00000000D+00 0.00000000D+00 0.00000000D+00 0.00000000D+00
  <mgrwgt>
 0.1948963711D-03    2    2    0
 0.239893789426968D+03 0.000000000000000D+00 0.000000000000000D+00 0.239893789426968D+03
 0.239893789426968D+03 0.000000000000000D+00 0.000000000000000D+00 -.239893789426968D+03
 0.152698547994139D+03 -.923162488059229D+02 -.254234045802760D+02 -.876412648875990D+02
 0.301927283663365D+02 -.689029261412576D+01 0.293231398330748D+02 0.206837719602814D+01
 0.166135279177507D+03 0.433058353261991D+02 0.444599307717819D+01 0.160330186676265D+03
 0.130761023315955D+03 0.559007060938495D+02 -.834572832997696D+01 -.747572989846939D+02
 0.000000000000000D+00 -.000000000000000D+00 0.000000000000000D+00 0.000000000000000D+00
 0.341786359582329D+03 0.000000000000000D+00 0.000000000000000D+00 0.341786359582329D+03
 0.248709099488133D+03 0.000000000000000D+00 0.000000000000000D+00 -.248709099488133D+03
 0.149737196735968D+03 -.821472800887524D+02 -.390492662529937D+02 -.876412648875990D+02
 0.272687419435957D+02 -.495823298094393D+01 0.267342856397557D+02 0.206837719602814D+01
 0.169708249773972D+03 0.545980929355615D+02 -.106850142488704D+02 0.160330186676265D+03
 0.136115630895400D+03 0.648740513260418D+02 -.203695199529109D+02 -.747572989846939D+02
 0.107665639721527D+03 -.323666311919069D+02 0.433695148150194D+02 0.930772600941953D+02
-.905302871620D-06 0.000000000000D+00 0.000000000000D+00 0.543367701376D-07 0.000000000000D+00  7 21 1 -24 -13 13 23 2 2 0.32885130D-01 0.59524986D-01 0.34614233D+05 0.34614233D+05 0.34614233D+05 0.11616146D+01  1  2 13  3  7  1       -2 -.860862804348D-03 0.100000000000D+01
0.114481006842D-05 0.000000000000D+00 0.000000000000D+00 0.543367701376D-07 0.648129911196D-11  7 21 1 -24 -13 13 23 2 2 0.32602260D-01 0.61712334D-01 0.34614233D+05 0.34614233D+05 0.34614233D+05 0.11616146D+01  1  2  1  3  7  1       -2 0.105575917548D-02 0.100000000000D+01
  </mgrwgt>
  </event>
  <event>
  8     66 0.26562228E-05 0.11941300E+03 0.75467711E-02 0.95143870E-01
       -2 -1    0    0    0  501 0.00000000E+00 0.00000000E+00 0.71152407E+03 0.71152415E+03 0.32000000E+00 0.0000E+00 0.9000E+01
        1 -1    0    0  501    0 0.00000000E+00 0.00000000E+00 -.16001268E+03 0.16001300E+03 0.32000000E+00 0.0000E+00 0.9000E+01
       25  2    1    2    0    0 0.25775145E+03 0.54974839E+02 0.32460413E+03 0.51458873E+03 0.29995946E+03 0.0000E+00 0.0000E+00
       23  2    3    3    0    0 0.77097795E+02 -.76228410E+02 0.17103030E+03 0.22866879E+03 0.10622248E+03 0.0000E+00 0.0000E+00
      -24  1    1    2    0    0 -.25775145E+03 -.54974839E+02 0.22690727E+03 0.35694841E+03 0.80419002E+02 0.0000E+00 0.9000E+01
      -11  1    4    4    0    0 0.18720325E+01 0.51218192E+01 -.12865017E+02 0.13973053E+02 0.51099893E-03 0.0000E+00 0.9000E+01
       11  1    4    4    0    0 0.75225763E+02 -.81350230E+02 0.18389531E+03 0.21469574E+03 0.51099893E-03 0.0000E+00 0.9000E+01
       23  1    3    3    0    0 0.18065366E+03 0.13120325E+03 0.15357383E+03 0.28591994E+03 0.91188000E+02 0.0000E+00 0.9000E+01
#aMCatNLO 1  0  0  2  1 0.27169225D+03 0.00000000D+00  -5  7  0 0.00000000D+00 0.00000000D+00 0.00000000D+00 0.00000000D+00 0.00000000D+00
  <mgrwgt>
 0.9163210286D-03    7    2    0
 0.337421166051953D+03 0.000000000000000D+00 0.000000000000000D+00 0.337421166051953D+03
 0.337421166051953D+03 0.000000000000000D+00 0.000000000000000D+00 -.337421166051953D+03
 0.275548594189990D+03 -.257751454269208D+03 -.549748386158935D+02 0.132919034547764D+01
 0.285596163639910D+02 0.187203244892295D+01 0.512181900275216D+01 -.280341604381435D+02
 0.126985146362242D+03 0.752257622592823D+02 -.813502296557234D+02 0.620358946426267D+02
 0.243748975187682D+03 0.180653659561002D+03 0.131203249268865D+03 -.353309245499608D+02
 0.000000000000000D+00 0.000000000000000D+00 -.000000000000000D+00 -.000000000000000D+00
 0.425286208743292D+03 0.000000000000000D+00 0.000000000000000D+00 0.425286208743292D+03
 0.663585937799441D+03 0.000000000000000D+00 0.000000000000000D+00 -.663585937799441D+03
 0.377327700333055D+03 -.368608069200984D+03 0.594155343402229D+01 0.132919034547764D+01
 0.311198435844012D+02 -.826137715154124D+01 0.106901899331125D+02 -.280341604381435D+02
 0.945748477587184D+02 0.376054792767347D+02 -.606776526642286D+02 0.620358946426267D+02
 0.224458777200252D+03 0.101153259638441D+03 0.174889208223937D+03 -.353309245499608D+02
 0.361390977666306D+03 0.238110707437350D+03 -.130843298926843D+03 -.238299729056149D+03
0.709039482256D-04 0.000000000000D+00 0.000000000000D+00 0.343623611621D-07 0.000000000000D+00  7 -2 1 -24 -11 11 23 21 0 0.10946527D+00 0.24617365D-01 0.10016403D+06 0.10016403D+06 0.10016403D+06 0.11216636D+01  1  2  2  2  7  2        1 0.108058618290D-02 0.100000000000D+01
-.391946044814D-05 0.000000000000D+00 -.272289830625D-06 0.343623611621D-07 0.000000000000D+00  7 -2 1 -24 -11 11 23 21 2 0.10946527D+00 0.24617365D-01 0.10016403D+06 0.10016403D+06 0.10016403D+06 0.11216636D+01  1  2  3  2  7  2        1 -.751520030309D-04 0.100000000000D+01
0.461835712976D-05 0.000000000000D+00 0.000000000000D+00 0.343623611621D-07 0.000000000000D+00  7 -2 1 -24 -11 11 23 21 2 0.10946527D+00 0.24617365D-01 0.10016403D+06 0.10016403D+06 0.10016403D+06 0.11216636D+01  1  2 15  2  7  2        1 0.885526958636D-04 0.100000000000D+01
0.147670289634D-05 0.000000000000D+00 0.000000000000D+00 0.343623611621D-07 0.000000000000D+00  7 -2 1 -24 -11 11 23 21 2 0.10946527D+00 0.48960477D-01 0.22828071D+06 0.22828071D+06 0.22828071D+06 0.10934410D+01  1  2 12  2  7  2        1 0.107254074003D-04 0.100000000000D+01
-.271878424121D-04 0.000000000000D+00 -.237082591141D-04 0.343623611621D-07 0.000000000000D+00  7 -2 1 -24 -11 11 23 21 2 0.10946527D+00 0.59197985D-01 0.10016403D+06 0.10016403D+06 0.10016403D+06 0.11216636D+01  1  2  5  2  7  2        1 -.165571710221D-03 0.100000000000D+01
0.109888880921D-06 0.000000000000D+00 0.000000000000D+00 0.343623611621D-07 0.000000000000D+00  7 -2 21 -24 -11 11 23 -1 2 0.10946527D+00 0.48960477D-01 0.22828071D+06 0.22828071D+06 0.22828071D+06 0.10934410D+01  1  2 12  4  7  2        1 0.352884320635D-05 0.100000000000D+01
-.112186668296D-05 0.000000000000D+00 -.227659488675D-05 0.343623611621D-07 0.000000000000D+00  7 -2 21 -24 -11 11 23 -1 2 0.10946527D+00 0.59197985D-01 0.10016403D+06 0.10016403D+06 0.10016403D+06 0.11216636D+01  1  2  5  4  7  2        1 -.263483874727D-04 0.100000000000D+01
  </mgrwgt>
  </event>
  <event>
  8     66 0.26562228E-05 0.56387045E+03 0.75467711E-02 0.89656202E-01
       -2 -1    0    0    0  501 0.00000000E+00 0.00000000E+00 0.50943241E+03 0.50943251E+03 0.32000000E+00 0.0000E+00 0.9000E+01
        1 -1    0    0  501    0 0.00000000E+00 0.00000000E+00 -.64191472E+03 0.64191480E+03 0.32000000E+00 0.0000E+00 0.9000E+01
       25  2    1    2    0    0 -.10480695E+03 -.51261906E+03 0.11789253E+02 0.60267226E+03 0.29885125E+03 0.0000E+00 0.0000E+00
       23  2    3    3    0    0 0.66375813E+02 -.14353393E+03 -.28841076E+02 0.18375288E+03 0.89025702E+02 0.0000E+00 0.0000E+00
      -24  1    1    2    0    0 0.10480695E+03 0.51261906E+03 -.14427157E+03 0.54867504E+03 0.80419002E+02 0.0000E+00 0.9000E+01
      -11  1    4    4    0    0 -.19493625E+02 -.81923583E+01 -.20326519E+01 0.21242594E+02 0.51099893E-03 0.0000E+00 0.9000E+01
       11  1    4    4    0    0 0.85869437E+02 -.13534158E+03 -.26808424E+02 0.16251029E+03 0.51099893E-03 0.0000E+00 0.9000E+01
       23  1    3    3    0    0 -.17118277E+03 -.36908513E+03 0.40630328E+02 0.41891938E+03 0.91188000E+02 0.0000E+00 0.9000E+01
#aMCatNLO 1  0  0  2  2 0.39374045D+03 0.00000000D+00  -5  7  0 0.00000000D+00 0.00000000D+00 0.00000000D+00 0.00000000D+00 0.00000000D+00
  <mgrwgt>
 0.1512424279D-02    3    2    0
 0.571849862507402D+03 0.000000000000000D+00 0.000000000000000D+00 0.571849862507402D+03
 0.571849862507402D+03 0.000000000000000D+00 0.000000000000000D+00 -.571849862507402D+03
 0.535631941415485D+03 0.104806953744644D+03 0.512619064457764D+03 -.816796052351230D+02
 0.211491816805266D+02 -.194936246602806D+02 -.819235825855435D+01 0.414426740834673D+00
 0.160491550399183D+03 0.858694372747590D+02 -.135341576269577D+03 -.816304015157277D+01
 0.426427051519610D+03 -.171182766359123D+03 -.369085129929633D+03 0.894282186458612D+02
 0.000000000000000D+00 0.000000000000000D+00 0.000000000000000D+00 0.000000000000000D+00
 0.107274588125958D+04 0.000000000000000D+00 0.000000000000000D+00 0.107274588125958D+04
 0.687613032974635D+03 0.000000000000000D+00 0.000000000000000D+00 -.687613032974635D+03
 0.487437201401014D+03 -.609351036642685D+02 0.469833124189155D+03 -.816796052351230D+02
 0.295704007796200D+02 -.277104377729536D+02 -.103135101287148D+02 0.414426740834673D+00
 0.152758618209615D+03 0.351214230340213D+02 -.148442062289838D+03 -.816304015157277D+01
 0.539812469120146D+03 -.327718155218328D+03 -.409494389367807D+03 0.894282186458612D+02
 0.550780224723823D+03 0.381242273621529D+03 0.984168375972047D+02 0.385132848284950D+03
0.300375745839D-03 0.000000000000D+00 0.000000000000D+00 0.808014854626D-06 0.000000000000D+00  7 -2 1 -24 -11 11 23 21 0 0.78374230D-01 0.98756125D-01 0.31794988D+06 0.31794988D+06 0.31794988D+06 0.10826896D+01  1  2  2  2  7  2        1 0.149845066219D-02 0.100000000000D+01
-.166835350981D-04 0.000000000000D+00 -.115352195477D-05 0.808014854626D-06 0.000000000000D+00  7 -2 1 -24 -11 11 23 21 2 0.78374230D-01 0.98756125D-01 0.31794988D+06 0.31794988D+06 0.31794988D+06 0.10826896D+01  1  2  3  2  7  2        1 -.975604080837D-04 0.100000000000D+01
0.190731246361D-04 0.000000000000D+00 0.000000000000D+00 0.808014854626D-06 0.000000000000D+00  7 -2 1 -24 -11 11 23 21 2 0.78374230D-01 0.98756125D-01 0.31794988D+06 0.31794988D+06 0.31794988D+06 0.10826896D+01  1  2 15  2  7  2        1 0.111534025132D-03 0.100000000000D+01
  </mgrwgt>
  </event>
  <event>
  8     66 0.26562228E-05 0.30904079E+03 0.75467711E-02 0.97578110E-01
       -2 -1    0    0    0  501 0.00000000E+00 0.00000000E+00 0.24526000E+03 0.24526021E+03 0.32000000E+00 0.0000E+00 0.9000E+01
        1 -1    0    0  501    0 0.00000000E+00 0.00000000E+00 -.43659237E+03 0.43659249E+03 0.32000000E+00 0.0000E+00 0.9000E+01
       25  2    1    2    0    0 0.18522114E+03 -.14682857E+03 -.20276848E+03 0.43192571E+03 0.29929794E+03 0.0000E+00 0.0000E+00
       23  2    3    3    0    0 -.42218447E+01 0.28982424E+02 -.64235141E+01 0.94783677E+02 0.89915956E+02 0.0000E+00 0.0000E+00
      -24  1    1    2    0    0 -.18522114E+03 0.14682857E+03 0.11436113E+02 0.24992699E+03 0.80419002E+02 0.0000E+00 0.9000E+01
      -11  1    4    4    0    0 0.38943152E+02 -.51984933E+01 -.58458068E+01 0.39721114E+02 0.51099893E-03 0.0000E+00 0.9000E+01
       11  1    4    4    0    0 -.43164997E+02 0.34180918E+02 -.57770729E+00 0.55062563E+02 0.51099893E-03 0.0000E+00 0.9000E+01
       23  1    3    3    0    0 0.18944299E+03 -.17581099E+03 -.19634497E+03 0.33714203E+03 0.91188000E+02 0.0000E+00 0.9000E+01
#aMCatNLO 1  0  0  2  1 0.14272299D+03 0.00000000D+00  -5  7  0 0.00000000D+00 0.00000000D+00 0.00000000D+00 0.00000000D+00 0.00000000D+00
  <mgrwgt>
 0.1372266781D-02    3    2    0
 0.327228904327121D+03 0.000000000000000D+00 0.000000000000000D+00 0.327228904327121D+03
 0.327228904327121D+03 0.000000000000000D+00 0.000000000000000D+00 -.327228904327121D+03
 0.263732035525762D+03 -.185221141174759D+03 0.146828567214658D+03 0.849815940060064D+02
 0.396747604006995D+02 0.389431524605274D+02 -.519849333340489D+01 0.552206087901786D+01
 0.571985277012829D+02 -.431649971477533D+02 0.341809178206662D+02 0.154957881169607D+02
 0.293852485026497D+03 0.189442985861985D+03 -.175810991701920D+03 -.105999443001985D+03
 0.000000000000000D+00 -.000000000000000D+00 0.000000000000000D+00 0.000000000000000D+00
 0.756639578619776D+03 0.000000000000000D+00 0.000000000000000D+00 0.756639578619776D+03
 0.346995184369017D+03 0.000000000000000D+00 0.000000000000000D+00 -.346995184369017D+03
 0.234131104884382D+03 -.179998971846248D+03 0.934272826025832D+02 0.849815940060064D+02
 0.425620896986848D+02 0.398057484661457D+02 -.140192978503651D+02 0.552206087901786D+01
 0.502079608471232D+02 -.420383926159967D+02 0.226603934062017D+02 0.154957881169607D+02
 0.342938284766831D+03 0.196122390213861D+03 -.244113788948693D+03 -.105999443001985D+03
 0.433795322791772D+03 -.138907742177625D+02 0.142045410790273D+03 0.409644394250759D+03
0.350148545910D-04 0.000000000000D+00 0.000000000000D+00 0.881982764429D-06 0.000000000000D+00  7 -2 1 -24 -11 11 23 21 0 0.37732333D-01 0.67168082D-01 0.95506208D+05 0.95506208D+05 0.95506208D+05 0.11233644D+01  1  2  2  2  7  2        1 0.135588661660D-02 0.100000000000D+01
-.193753486466D-05 0.000000000000D+00 -.134466261252D-06 0.881982764429D-06 0.000000000000D+00  7 -2 1 -24 -11 11 23 21 2 0.37732333D-01 0.67168082D-01 0.95506208D+05 0.95506208D+05 0.95506208D+05 0.11233644D+01  1  2  3  2  7  2        1 -.946807885382D-04 0.100000000000D+01
0.227273634257D-05 0.000000000000D+00 0.000000000000D+00 0.881982764429D-06 0.000000000000D+00  7 -2 1 -24 -11 11 23 21 2 0.37732333D-01 0.67168082D-01 0.95506208D+05 0.95506208D+05 0.95506208D+05 0.11233644D+01  1  2 15  2  7  2        1 0.111060953265D-03 0.100000000000D+01
  </mgrwgt>
  </event>
  <event>
  9     66 0.26562228E-05 0.18894510E+03 0.75467711E-02 0.10620205E+00
       21 -1    0    0  502  501 0.00000000E+00 0.00000000E+00 0.12922914E+03 0.12923132E+03 0.75000000E+00 0.0000E+00 0.9000E+01
        1 -1    0    0  501    0 0.00000000E+00 0.00000000E+00 -.42389351E+03 0.42389363E+03 0.32000000E+00 0.0000E+00 0.9000E+01
       25  2    1    2    0    0 -.42017268E+02 -.39684084E+02 -.90326691E+02 0.31874184E+03 0.30016191E+03 0.0000E+00 0.0000E+00
       23  2    3    3    0    0 -.64406214E+01 -.13000459E+03 -.13553641E+01 0.15857118E+03 0.90555558E+02 0.0000E+00 0.0000E+00
      -24  1    1    2    0    0 0.27261631E+02 0.19939373E+02 -.17850568E+03 0.19867629E+03 0.80419002E+02 0.0000E+00 0.9000E+01
      -13  1    4    4    0    0 -.47577019E+02 -.85430737E+02 0.22216913E+01 0.97810688E+02 0.10565837E+00 0.0000E+00 0.9000E+01
       13  1    4    4    0    0 0.41136398E+02 -.44573850E+02 -.35770554E+01 0.60760496E+02 0.10565837E+00 0.0000E+00 0.9000E+01
       23  1    3    3    0    0 -.35576647E+02 0.90320503E+02 -.88971327E+02 0.16017066E+03 0.91188000E+02 0.0000E+00 0.9000E+01
        2  1    1    2  502    0 0.14755638E+02 0.19744711E+02 -.25831988E+02 0.35706813E+02 0.32000000E+00 0.0000E+00 0.9000E+01
#aMCatNLO 2  0  0  1  1 0.24649188D+02 0.00000000D+00  -5  7  0 0.00000000D+00 0.00000000D+00 0.00000000D+00 0.00000000D+00 0.00000000D+00
  <mgrwgt>
 0.1593547956D-03    1    2    0
 0.220705176293594D+03 0.000000000000000D+00 0.000000000000000D+00 0.220705176293594D+03
 0.220705176293594D+03 0.000000000000000D+00 0.000000000000000D+00 -.220705176293594D+03
 0.125974785188058D+03 0.314361479959245D+02 0.255253478381536D+02 -.881059349063749D+02
 0.110594318737957D+03 -.437956571541494D+02 -.803707401039911D+02 0.620772735120164D+02
 0.684257257082508D+02 0.434306371307402D+02 -.415039994865667D+02 0.327609176266145D+02
 0.136415522952923D+03 -.310711279725153D+02 0.963493917524041D+02 -.673225623225600D+01
 0.000000000000000D+00 0.000000000000000D+00 0.000000000000000D+00 -.000000000000000D+00
 0.229829008065893D+03 0.000000000000000D+00 0.000000000000000D+00 0.229829008065893D+03
 0.238349235635714D+03 0.000000000000000D+00 0.000000000000000D+00 -.238349235635714D+03
 0.123978413650728D+03 0.272616332122318D+02 0.199393752624283D+02 -.881059349063749D+02
 0.115825697676215D+03 -.475771398886614D+02 -.854307913782322D+02 0.620772735120164D+02
 0.689370268377605D+02 0.411365162957359D+02 -.445737924406591D+02 0.327609176266145D+02
 0.133356907331685D+03 -.355766474205067D+02 0.903204975263752D+02 -.673225623225600D+01
 0.260801982052173D+02 0.147556378012005D+02 0.197447110300878D+02 -.852022756982070D+01
0.745402441229D-07 0.000000000000D+00 0.000000000000D+00 0.976294155549D-06 0.873002563731D-10  7 21 1 -24 -13 13 23 2 2 0.19881500D-01 0.65214287D-01 0.40703146D+05 0.40703146D+05 0.40703146D+05 0.11552378D+01  1  2  1  3  7  1       -2 0.159354795600D-03 0.100000000000D+01
  </mgrwgt>
  </event>
  <event>
  8     66 0.26562228E-05 0.29195571E+03 0.75467711E-02 0.93848028E-01
       -2 -1    0    0    0  501 0.00000000E+00 0.00000000E+00 0.11401149E+03 0.11401194E+03 0.32000000E+00 0.0000E+00 0.9000E+01
        1 -1    0    0  501    0 0.00000000E+00 0.00000000E+00 -.93496481E+03 0.93496486E+03 0.32000000E+00 0.0000E+00 0.9000E+01
       25  2    1    2    0    0 0.79402521E+02 -.21550277E+03 -.33135363E+03 0.50223987E+03 0.29950536E+03 0.0000E+00 0.0000E+00
       23  2    3    3    0    0 0.84507968E+02 -.23275665E+03 -.31112157E+03 0.40711706E+03 0.87352230E+02 0.0000E+00 0.0000E+00
      -24  1    1    2    0    0 -.79402521E+02 0.21550277E+03 -.48959969E+03 0.54673693E+03 0.80419002E+02 0.0000E+00 0.9000E+01
      -11  1    4    4    0    0 0.36114530E+01 -.91577588E+01 -.61824359E+02 0.62603182E+02 0.51099893E-03 0.0000E+00 0.9000E+01
       11  1    4    4    0    0 0.80896515E+02 -.22359889E+03 -.24929721E+03 0.34451388E+03 0.51099893E-03 0.0000E+00 0.9000E+01
       23  1    3    3    0    0 -.51054473E+01 0.17253884E+02 -.20232057E+02 0.95122813E+02 0.91188000E+02 0.0000E+00 0.9000E+01
#aMCatNLO 1  0  0  1  1 0.38381436D+03 0.00000000D+00  -5  7  0 0.00000000D+00 0.00000000D+00 0.00000000D+00 0.00000000D+00 0.00000000D+00
  <mgrwgt>
 0.1549054060D-02    5    2    0
 0.326491954865824D+03 0.000000000000000D+00 0.000000000000000D+00 0.326491954865824D+03
 0.326491954865824D+03 0.000000000000000D+00 0.000000000000000D+00 -.326491954865824D+03
 0.262756661053456D+03 -.794025207820937D+02 0.215502766346073D+03 -.991344761635899D+02
 0.228403392408047D+02 0.361145300416916D+01 -.915775882195502D+01 -.206100450555700D+02
 0.240014628608488D+03 0.808965151048911D+02 -.223598891268876D+03 0.326544271620858D+02
 0.127372280828900D+03 -.510544732696653D+01 0.172538837447579D+02 0.870900940570740D+02
 0.000000000000000D+00 -.000000000000000D+00 0.000000000000000D+00 0.000000000000000D+00
 0.665747982984098D+03 0.000000000000000D+00 0.000000000000000D+00 0.665747982984098D+03
 0.507022677853002D+03 0.000000000000000D+00 0.000000000000000D+00 -.507022677853002D+03
 0.179305304851683D+03 0.882599819745849D+00 0.125915658465948D+03 -.991344761635899D+02
 0.319190568037914D+02 0.135565852584733D+02 -.202551530771993D+02 -.206100450555700D+02
 0.408015880000929D+03 0.198588629672700D+03 -.354927038818357D+03 0.326544271620858D+02
 0.138190578420417D+03 0.431247733809961D+02 -.365643823705137D+02 0.870900940570740D+02
 0.415339840760280D+03 -.256152588131915D+03 0.285830915800122D+03 0.158725305131095D+03
0.304321875868D-04 0.000000000000D+00 0.000000000000D+00 0.242980025789D-06 0.000000000000D+00  7 -2 1 -24 -11 11 23 21 0 0.17540268D-01 0.14384078D+00 0.85238135D+05 0.85238135D+05 0.85238135D+05 0.11274592D+01  1  2  2  1  7  1       -2 0.142789469446D-02 0.100000000000D+01
-.166498196824D-05 0.000000000000D+00 -.116867613312D-06 0.242980025789D-06 0.000000000000D+00  7 -2 1 -24 -11 11 23 21 2 0.17540268D-01 0.14384078D+00 0.85238135D+05 0.85238135D+05 0.85238135D+05 0.11274592D+01  1  2  3  1  7  1       -2 -.993057023065D-04 0.100000000000D+01
0.198212462032D-05 0.000000000000D+00 0.000000000000D+00 0.242980025789D-06 0.000000000000D+00  7 -2 1 -24 -11 11 23 21 2 0.17540268D-01 0.14384078D+00 0.85238135D+05 0.85238135D+05 0.85238135D+05 0.11274592D+01  1  2 15  1  7  1       -2 0.118221266797D-03 0.100000000000D+01
0.348386937451D-05 0.000000000000D+00 -.976341219324D-05 0.242980025789D-06 0.000000000000D+00  7 -2 1 -24 -11 11 23 21 2 0.54912860D-01 0.14384078D+00 0.85238135D+05 0.85238135D+05 0.85238135D+05 0.11274592D+01  1  2  5  1  7  1       -2 0.272271438738D-04 0.100000000000D+01
0.901959354195D-06 0.000000000000D+00 -.127801257123D-05 0.242980025789D-06 0.000000000000D+00  7 21 1 -24 -11 11 23 2 2 0.54912860D-01 0.14384078D+00 0.85238135D+05 0.85238135D+05 0.85238135D+05 0.11274592D+01  1  2  5  3  7  1       -2 0.750166573850D-04 0.100000000000D+01
  </mgrwgt>
  </event>
  <event>
  8     66 0.26562228E-05 0.18622543E+03 0.75467711E-02 0.98762127E-01
       -2 -1    0    0    0  501 0.00000000E+00 0.00000000E+00 0.14903021E+03 0.14903055E+03 0.32000000E+00 0.0000E+00 0.9000E+01
        1 -1    0    0  501    0 0.00000000E+00 0.00000000E+00 -.37846673E+03 0.37846686E+03 0.32000000E+00 0.0000E+00 0.9000E+01
       25  2    1    2    0    0 -.66474962E+02 0.61412720E+02 -.25278902E+03 0.40419698E+03 0.30212988E+03 0.0000E+00 0.0000E+00
       23  2    3    3    0    0 -.85727352E+02 0.96479235E+02 -.32102321E+02 0.16208504E+03 0.92647617E+02 0.0000E+00 0.0000E+00
      -24  1    1    2    0    0 0.66474962E+02 -.61412720E+02 0.23352506E+02 0.12330044E+03 0.80419002E+02 0.0000E+00 0.9000E+01
      -13  1    4    4    0    0 -.61319704E+02 0.10847625E+03 -.65701080E+01 0.12478133E+03 0.10565837E+00 0.0000E+00 0.9000E+01
       13  1    4    4    0    0 -.24407648E+02 -.11997019E+02 -.25532213E+02 0.37303710E+02 0.10565837E+00 0.0000E+00 0.9000E+01
       23  1    3    3    0    0 0.19252389E+02 -.35066515E+02 -.22068670E+03 0.24211193E+03 0.91188000E+02 0.0000E+00 0.9000E+01
#aMCatNLO 1  0  0  2  1 0.25036750D+03 0.00000000D+00  -5  7  0 0.00000000D+00 0.00000000D+00 0.00000000D+00 0.00000000D+00 0.00000000D+00
  <mgrwgt>
 0.9641203947D-03    5    2    0
 0.237493371960544D+03 0.000000000000000D+00 0.000000000000000D+00 0.237493371960544D+03
 0.237493371960544D+03 0.000000000000000D+00 0.000000000000000D+00 -.237493371960544D+03
 0.148211739754258D+03 0.664750038588758D+02 -.614127589124142D+02 0.854929865622995D+02
 0.135402630548021D+03 -.613197426345435D+02 0.108476391374355D+03 0.529776748919298D+02
 0.290945505168636D+02 -.244076026514666D+02 -.119971707940418D+02 -.103358451771029D+02
 0.162277823101945D+03 0.192523414271344D+02 -.350664616678988D+02 -.128134816277126D+03
 0.000000000000000D+00 -.000000000000000D+00 0.000000000000000D+00 -.000000000000000D+00
 0.321987770526140D+03 0.000000000000000D+00 0.000000000000000D+00 0.321987770526140D+03
 0.561263154327995D+03 0.000000000000000D+00 0.000000000000000D+00 -.561263154327995D+03
 0.206887356280323D+03 0.153412214038255D+03 -.740999599651033D+02 0.854929865622995D+02
 0.112821219872082D+03 -.548286732538870D+00 0.996076954764475D+02 0.529776748919298D+02
 0.210716099629520D+02 -.121256619587720D+02 -.137895385335161D+02 -.103358451771029D+02
 0.196152109777543D+03 0.107005024431121D+03 -.478726689281421D+02 -.128134816277126D+03
 0.346318628961235D+03 -.247743289778065D+03 0.361544719503140D+02 -.239275383801856D+03
0.867407006204D-05 0.000000000000D+00 0.000000000000D+00 0.575773222511D-07 0.000000000000D+00  7 -2 1 -24 -13 13 23 21 0 0.22927761D-01 0.58225687D-01 0.34679910D+05 0.34679910D+05 0.34679910D+05 0.11615394D+01  1  2  2  2  7  2        1 0.970503411969D-03 0.100000000000D+01
-.447243516306D-06 0.000000000000D+00 -.333107129733D-07 0.575773222511D-07 0.000000000000D+00  7 -2 1 -24 -13 13 23 21 2 0.22927761D-01 0.58225687D-01 0.34679910D+05 0.34679910D+05 0.34679910D+05 0.11615394D+01  1  2  3  2  7  2        1 -.675127915106D-04 0.100000000000D+01
0.565007843274D-06 0.000000000000D+00 0.000000000000D+00 0.575773222511D-07 0.000000000000D+00  7 -2 1 -24 -13 13 23 21 2 0.22927761D-01 0.58225687D-01 0.34679910D+05 0.34679910D+05 0.34679910D+05 0.11615394D+01  1  2 15  2  7  2        1 0.852896807536D-04 0.100000000000D+01
-.836049515792D-06 0.000000000000D+00 -.287121223378D-05 0.575773222511D-07 0.000000000000D+00  7 -2 1 -24 -13 13 23 21 2 0.22927761D-01 0.16858084D+00 0.34679910D+05 0.34679910D+05 0.34679910D+05 0.11615394D+01  1  2  5  2  7  2        1 -.262859886471D-04 0.100000000000D+01
0.522335015031D-07 0.000000000000D+00 -.344959008875D-06 0.575773222511D-07 0.000000000000D+00  7 -2 21 -24 -13 13 23 -1 2 0.22927761D-01 0.16858084D+00 0.34679910D+05 0.34679910D+05 0.34679910D+05 0.11615394D+01  1  2  5  4  7  2        1 0.212608217589D-05 0.100000000000D+01
  </mgrwgt>
  </event>
  <event>
  8     66 0.26562228E-05 0.15520961E+03 0.75467711E-02 0.92009944E-01
       -2 -1    0    0    0  501 0.00000000E+00 0.00000000E+00 0.21031389E+03 0.21031414E+03 0.32000000E+00 0.0000E+00 0.9000E+01
        1 -1    0    0  501    0 0.00000000E+00 0.00000000E+00 -.13365581E+04 0.13365582E+04 0.32000000E+00 0.0000E+00 0.9000E+01
       25  2    1    2    0    0 0.23027245E+03 -.41054939E+03 -.77100190E+03 0.95169120E+03 0.29949292E+03 0.0000E+00 0.0000E+00
       23  2    3    3    0    0 0.26040375E+03 -.33759459E+03 -.57431794E+03 0.72097464E+03 0.90460607E+02 0.0000E+00 0.0000E+00
      -24  1    1    2    0    0 -.23027245E+03 0.41054939E+03 -.35524232E+03 0.59518109E+03 0.80419002E+02 0.0000E+00 0.9000E+01
      -13  1    4    4    0    0 0.50672624E+02 -.11478135E+03 -.21583525E+03 0.24965443E+03 0.10565837E+00 0.0000E+00 0.9000E+01
       13  1    4    4    0    0 0.20973113E+03 -.22281325E+03 -.35848269E+03 0.47132021E+03 0.10565837E+00 0.0000E+00 0.9000E+01
       23  1    3    3    0    0 -.30131302E+02 -.72954798E+02 -.19668396E+03 0.23071656E+03 0.91188000E+02 0.0000E+00 0.9000E+01
#aMCatNLO 1  0  0  2  1 0.21525074D+03 0.00000000D+00  -5  7  0 0.00000000D+00 0.00000000D+00 0.00000000D+00 0.00000000D+00 0.00000000D+00
  <mgrwgt>
 0.1432225420D-02    9    2    0
 0.530185777169233D+03 0.000000000000000D+00 0.000000000000000D+00 0.530185777169233D+03
 0.530185777169233D+03 0.000000000000000D+00 0.000000000000000D+00 -.530185777169233D+03
 0.490940667581833D+03 -.230272447556920D+03 0.410549392321631D+03 0.113926816385827D+03
 0.134952770550680D+03 0.506724069282020D+02 -.114781197826846D+03 -.496974252938880D+02
 0.306810720904667D+03 0.209731342321990D+03 -.222813396795956D+03 -.223555970196649D+02
 0.127667395301288D+03 -.301313016932718D+02 -.729547976988289D+02 -.418737940722743D+02
 0.000000000000000D+00 0.000000000000000D+00 0.000000000000000D+00 -.000000000000000D+00
 0.581397361794250D+03 0.000000000000000D+00 0.000000000000000D+00 0.581397361794250D+03
 0.827725943527100D+03 0.000000000000000D+00 0.000000000000000D+00 -.827725943527100D+03
 0.489621611321924D+03 -.309877282935328D+03 0.352503696928012D+03 0.113926816385827D+03
 0.143121686140897D+03 0.280975314469417D+02 -.131242187156265D+03 -.496974252938880D+02
 0.305316358390065D+03 0.160037124599889D+03 -.259049077844845D+03 -.223555970196649D+02
 0.143938825456748D+03 -.521810673801254D+02 -.890328911522693D+02 -.418737940722743D+02
 0.327124824011715D+03 0.173923694268623D+03 0.126820459225367D+03 -.246328581732850D+03
0.146555747884D-03 0.000000000000D+00 0.000000000000D+00 0.518289714174D-05 0.000000000000D+00  7 -2 1 -24 -13 13 23 21 0 0.32356005D-01 0.20562435D+00 0.26502306D+06 0.26502306D+06 0.26502306D+06 0.10885576D+01  1  2  2  2  7  2        1 0.120748640553D-02 0.100000000000D+01
-.813340516900D-05 0.000000000000D+00 -.562812660891D-06 0.518289714174D-05 0.000000000000D+00  7 -2 1 -24 -13 13 23 21 2 0.32356005D-01 0.20562435D+00 0.26502306D+06 0.26502306D+06 0.26502306D+06 0.10885576D+01  1  2  3  2  7  2        1 -.794062427090D-04 0.100000000000D+01
0.938310908735D-05 0.000000000000D+00 0.000000000000D+00 0.518289714174D-05 0.000000000000D+00  7 -2 1 -24 -13 13 23 21 2 0.32356005D-01 0.20562435D+00 0.26502306D+06 0.26502306D+06 0.26502306D+06 0.10885576D+01  1  2 15  2  7  2        1 0.916070725697D-04 0.100000000000D+01
0.116152425283D-03 0.000000000000D+00 0.000000000000D+00 0.518289714174D-05 0.000000000000D+00  7 -2 1 -24 -13 13 23 21 2 0.32356005D-01 0.32639269D+00 0.40186714D+06 0.40186714D+06 0.40186714D+06 0.10752819D+01  1  2 12  2  7  2        1 0.323522092265D-03 0.100000000000D+01
-.143370554800D-03 0.000000000000D+00 0.000000000000D+00 0.518289714174D-05 0.000000000000D+00  7 -2 1 -24 -13 13 23 21 2 0.32356005D-01 0.20562435D+00 0.26502306D+06 0.26502306D+06 0.26502306D+06 0.10885576D+01  1  2  4  2  7  2        1 -.139972334283D-02 0.100000000000D+01
-.174439642642D-03 0.000000000000D+00 -.485568128914D-04 0.518289714174D-05 0.000000000000D+00  7 -2 1 -24 -13 13 23 21 2 0.32356005D-01 0.33172150D+00 0.26502306D+06 0.26502306D+06 0.26502306D+06 0.10885576D+01  1  2  5  2  7  2        1 -.482452857369D-03 0.100000000000D+01
0.181567751011D-03 0.000000000000D+00 0.434880461334D-04 0.518289714174D-05 0.000000000000D+00  7 -2 1 -24 -13 13 23 21 2 0.32356005D-01 0.20562435D+00 0.26502306D+06 0.26502306D+06 0.26502306D+06 0.10885576D+01  1  2  6  2  7  2        1 0.177264166795D-02 0.100000000000D+01
0.615864545223D-05 0.000000000000D+00 0.000000000000D+00 0.518289714174D-05 0.000000000000D+00  7 -2 21 -24 -13 13 23 -1 2 0.32356005D-01 0.32639269D+00 0.40186714D+06 0.40186714D+06 0.40186714D+06 0.10752819D+01  1  2 12  4  7  2        1 0.774265674940D-05 0.100000000000D+01
-.741761945576D-05 0.000000000000D+00 -.264388343595D-05 0.518289714174D-05 0.000000000000D+00  7 -2 21 -24 -13 13 23 -1 2 0.32356005D-01 0.33172150D+00 0.26502306D+06 0.26502306D+06 0.26502306D+06 0.10885576D+01  1  2  5  4  7  2        1 -.919203252169D-05 0.100000000000D+01
  </mgrwgt>
  </event>
  <event>
  9     66 -.26562228E-05 0.19321214E+03 0.75467711E-02 0.10623222E+00
       -2 -1    0    0    0  502 0.00000000E+00 0.00000000E+00 0.63930894E+03 0.63930902E+03 0.32000000E+00 0.0000E+00 0.9000E+01
        1 -1    0    0  501    0 0.00000000E+00 0.00000000E+00 -.78675643E+02 0.78676294E+02 0.32000000E+00 0.0000E+00 0.9000E+01
       25  2    1    2    0    0 0.41126133E+02 0.20096686E+02 0.27229836E+03 0.40800007E+03 0.30037048E+03 0.0000E+00 0.0000E+00
       23  2    3    3    0    0 0.13856461E+03 0.27465384E+01 0.17848419E+03 0.24395242E+03 0.91915615E+02 0.0000E+00 0.0000E+00
      -24  1    1    2    0    0 -.49059707E+02 -.69864902E+01 0.27017429E+03 0.28621151E+03 0.80419002E+02 0.0000E+00 0.9000E+01
      -11  1    4    4    0    0 0.13905901E+03 -.15607702E+02 0.17685593E+03 0.22551946E+03 0.51099893E-03 0.0000E+00 0.9000E+01
       11  1    4    4    0    0 -.49439960E+00 0.18354240E+02 0.16282638E+01 0.18432955E+02 0.51099893E-03 0.0000E+00 0.9000E+01
       23  1    3    3    0    0 -.97438473E+02 0.17350148E+02 0.93814162E+02 0.16404765E+03 0.91188000E+02 0.0000E+00 0.9000E+01
       21  1    1    2  501  502 0.79335736E+01 -.13110196E+02 0.18160651E+02 0.23773737E+02 0.75000000E+00 0.0000E+00 0.9000E+01
#aMCatNLO 2  0  0  1  2 0.15323799D+02 0.00000000D+00  -5  7  0 0.00000000D+00 0.00000000D+00 0.00000000D+00 0.00000000D+00 0.00000000D+00
  <mgrwgt>
 -.5786724908D-03    3    2    0
 0.216459190734685D+03 0.000000000000000D+00 0.000000000000000D+00 0.216459190734685D+03
 0.216459190734685D+03 0.000000000000000D+00 0.000000000000000D+00 -.216459190734685D+03
 0.119725935734713D+03 -.468607135911103D+02 -.106203169231950D+02 0.745544507280754D+02
 0.143044449431479D+03 0.141651112583786D+03 -.198911480613185D+02 0.100947795085313D+01
 0.269531912325826D+02 0.440107133233170D-02 0.175299744583328D+02 -.204737513353303D+02
 0.143194805070595D+03 -.947948000640079D+02 0.129814905261807D+02 -.550901773435983D+02
 0.000000000000000D+00 0.000000000000000D+00 -.000000000000000D+00 -.000000000000000D+00
 0.223930053131231D+03 0.000000000000000D+00 0.000000000000000D+00 0.223930053131231D+03
 0.224597788567865D+03 0.000000000000000D+00 0.000000000000000D+00 -.224597788567865D+03
 0.120338056969049D+03 -.490597068023197D+02 -.698649023622968D+01 0.745544507280754D+02
 0.139935793677513D+03 0.139059005260673D+03 -.156077020196529D+02 0.100947795085313D+01
 0.275008557093696D+02 -.494399595104942D+00 0.183542403832735D+02 -.204737513353303D+02
 0.145414794713426D+03 -.974384724593015D+02 0.173501476246391D+02 -.550901773435983D+02
 0.153383406297380D+02 0.793357359605284D+01 -.131101957520301D+02 -.667735436634457D+00
-.299198772156D-04 0.000000000000D+00 0.000000000000D+00 0.890571078215D-06 0.000000000000D+00  7 -2 1 -24 -11 11 23 21 2 0.10007541D+00 0.11664920D-01 0.40532409D+05 0.40532409D+05 0.40532409D+05 0.11554018D+01  1  2 13  1  7  1       -2 -.201916810151D-02 0.100000000000D+01
-.473217333359D-05 0.000000000000D+00 0.000000000000D+00 0.890571078215D-06 0.000000000000D+00  7 -2 1 -24 -11 11 23 21 2 0.95070018D-01 0.11664920D-01 0.37330931D+05 0.37330931D+05 0.37330931D+05 0.11586277D+01  1  2  8  1  7  1       -2 -.362184322986D-03 0.100000000000D+01
0.269099751012D-04 0.000000000000D+00 0.000000000000D+00 0.890571078215D-06 0.270292913497D-07  7 -2 1 -24 -11 11 23 21 2 0.98351260D-01 0.12103507D-01 0.40532409D+05 0.40532409D+05 0.40532409D+05 0.11554018D+01  1  2  1  1  7  1       -2 0.180267993369D-02 0.100000000000D+01
  </mgrwgt>
  </event>
  <event>
  8     66 0.26562228E-05 0.13223395E+03 0.75467711E-02 0.10188326E+00
       -2 -1    0    0    0  501 0.00000000E+00 0.00000000E+00 0.26958404E+03 0.26958423E+03 0.32000000E+00 0.0000E+00 0.9000E+01
        1 -1    0    0  501    0 0.00000000E+00 0.00000000E+00 -.70371090E+03 0.70371097E+03 0.32000000E+00 0.0000E+00 0.9000E+01
       25  2    1    2    0    0 -.98538200E+02 -.12241150E+03 -.62606390E+03 0.71252443E+03 0.30172952E+03 0.0000E+00 0.0000E+00
       23  2    3    3    0    0 -.14770814E+03 0.63562434E+01 -.28955772E+03 0.33762381E+03 0.91038825E+02 0.0000E+00 0.0000E+00
      -24  1    1    2    0    0 0.98538200E+02 0.12241150E+03 0.19193705E+03 0.26077078E+03 0.80419002E+02 0.0000E+00 0.9000E+01
      -11  1    4    4    0    0 -.29599772E+02 0.39937404E+02 -.66823106E+02 0.83285475E+02 0.51099893E-03 0.0000E+00 0.9000E+01
       11  1    4    4    0    0 -.11810836E+03 -.33581161E+02 -.22273461E+03 0.25433833E+03 0.51099893E-03 0.0000E+00 0.9000E+01
       23  1    3    3    0    0 0.49169937E+02 -.12876774E+03 -.33650619E+03 0.37490063E+03 0.91188000E+02 0.0000E+00 0.9000E+01
#aMCatNLO 1  0  0  1  2 0.41917879D+02 0.00000000D+00  -5  7  0 0.00000000D+00 0.00000000D+00 0.00000000D+00 0.00000000D+00 0.00000000D+00
  <mgrwgt>
 0.8587321022D-03    9    2    0
 0.435556377406578D+03 0.000000000000000D+00 0.000000000000000D+00 0.435556377406578D+03
 0.435556377406578D+03 0.000000000000000D+00 0.000000000000000D+00 -.435556377406578D+03
 0.387013013229670D+03 0.985381997977338D+02 0.122411499310031D+03 0.344408920430395D+03
 0.597530547876752D+02 -.295997722625215D+02 0.399374039994667D+02 -.331554641084868D+02
 0.173170695878304D+03 -.118108364965623D+03 -.335811606169636D+02 -.122109826335726D+03
 0.251175990917506D+03 0.491699374304101D+02 -.128767742692534D+03 -.189143629986182D+03
 0.000000000000000D+00 0.000000000000000D+00 0.000000000000000D+00 0.000000000000000D+00
 0.476865405421436D+03 0.000000000000000D+00 0.000000000000000D+00 0.476865405421436D+03
 0.446825621592621D+03 0.000000000000000D+00 0.000000000000000D+00 -.446825621592621D+03
 0.381193947814941D+03 0.808860788045255D+02 0.116968148142847D+03 0.344408920430395D+03
 0.606169856276745D+02 -.323656760164784D+02 0.390844874897048D+02 -.331554641084868D+02
 0.179278252606015D+03 -.126207056852135D+03 -.360785389178532D+02 -.122109826335726D+03
 0.251031528158247D+03 0.376300421418157D+02 -.132326278378559D+03 -.189143629986182D+03
 0.515703128071804D+02 0.400566119222721D+02 0.123521816638610D+02 0.300397838288145D+02
0.402097453483D-04 0.000000000000D+00 0.000000000000D+00 0.105734272147D-05 0.000000000000D+00  7 -2 1 -24 -11 11 23 21 0 0.41474488D-01 0.10826324D+00 0.66125155D+05 0.66125155D+05 0.66125155D+05 0.11367680D+01  1  2  2  1  7  1       -2 0.670623734755D-03 0.100000000000D+01
-.147962464058D-05 0.000000000000D+00 -.154416009606D-06 0.105734272147D-05 0.000000000000D+00  7 -2 1 -24 -11 11 23 21 2 0.41474488D-01 0.10826324D+00 0.66125155D+05 0.66125155D+05 0.66125155D+05 0.11367680D+01  1  2  3  1  7  1       -2 -.318891444113D-04 0.100000000000D+01
0.250809401757D-05 0.000000000000D+00 0.000000000000D+00 0.105734272147D-05 0.000000000000D+00  7 -2 1 -24 -11 11 23 21 2 0.41474488D-01 0.10826324D+00 0.66125155D+05 0.66125155D+05 0.66125155D+05 0.11367680D+01  1  2 15  1  7  1       -2 0.540549069878D-04 0.100000000000D+01
0.118347449025D-03 0.000000000000D+00 0.000000000000D+00 0.105734272147D-05 0.000000000000D+00  7 -2 1 -24 -11 11 23 21 2 0.45909909D-01 0.10826324D+00 0.76272943D+05 0.76272943D+05 0.76272943D+05 0.11315046D+01  1  2 12  1  7  1       -2 0.207839903920D-02 0.100000000000D+01
-.119152559529D-03 0.000000000000D+00 0.000000000000D+00 0.105734272147D-05 0.000000000000D+00  7 -2 1 -24 -11 11 23 21 2 0.41474488D-01 0.10826324D+00 0.66125155D+05 0.66125155D+05 0.66125155D+05 0.11367680D+01  1  2  4  1  7  1       -2 -.256799804058D-02 0.100000000000D+01
-.231722451070D-03 0.000000000000D+00 -.472501870327D-04 0.105734272147D-05 0.000000000000D+00  7 -2 1 -24 -11 11 23 21 2 0.46378949D-01 0.10826324D+00 0.66125155D+05 0.66125155D+05 0.66125155D+05 0.11367680D+01  1  2  5  1  7  1       -2 -.404281023934D-02 0.100000000000D+01
0.235822594574D-03 0.000000000000D+00 0.469565930632D-04 0.105734272147D-05 0.000000000000D+00  7 -2 1 -24 -11 11 23 21 2 0.41474488D-01 0.10826324D+00 0.66125155D+05 0.66125155D+05 0.66125155D+05 0.11367680D+01  1  2  6  1  7  1       -2 0.508249225349D-02 0.100000000000D+01
0.194878608228D-05 0.000000000000D+00 0.000000000000D+00 0.105734272147D-05 0.000000000000D+00  7 21 1 -24 -11 11 23 2 2 0.45909909D-01 0.10826324D+00 0.76272943D+05 0.76272943D+05 0.76272943D+05 0.11315046D+01  1  2 12  3  7  1       -2 0.377409519716D-03 0.100000000000D+01
-.394855955645D-05 0.000000000000D+00 -.844227079543D-06 0.105734272147D-05 0.000000000000D+00  7 21 1 -24 -11 11 23 2 2 0.46378949D-01 0.10826324D+00 0.66125155D+05 0.66125155D+05 0.66125155D+05 0.11367680D+01  1  2  5  3  7  1       -2 -.761549927637D-03 0.100000000000D+01
  </mgrwgt>
  </event>
  <event>
  9     66 0.26562228E-05 0.20942813E+03 0.75467711E-02 0.10460502E+00
       21 -1    0    0  502  501 0.00000000E+00 0.00000000E+00 0.31952644E+02 0.31961444E+02 0.75000000E+00 0.0000E+00 0.9000E+01
        1 -1    0    0  501    0 0.00000000E+00 0.00000000E+00 -.21022744E+04 0.21022745E+04 0.32000000E+00 0.0000E+00 0.9000E+01
       25  2    1    2    0    0 -.13753886E+03 -.33941737E+02 -.12487779E+04 0.12919659E+04 0.29943360E+03 0.0000E+00 0.0000E+00
       23  2    3    3    0    0 -.14967765E+03 -.63128286E+02 -.45592339E+03 0.49325892E+03 0.95129608E+02 0.0000E+00 0.0000E+00
      -24  1    1    2    0    0 0.10812750E+03 0.42948460E+02 -.51116712E+03 0.53037267E+03 0.80419002E+02 0.0000E+00 0.9000E+01
      -11  1    4    4    0    0 -.62969611E+02 -.72315976E+02 -.29553156E+03 0.31069869E+03 0.51099893E-03 0.0000E+00 0.9000E+01
       11  1    4    4    0    0 -.86708042E+02 0.91876898E+01 -.16039183E+03 0.18256023E+03 0.51099893E-03 0.0000E+00 0.9000E+01
       23  1    3    3    0    0 0.12138790E+02 0.29186549E+02 -.79285455E+03 0.79870695E+03 0.91188000E+02 0.0000E+00 0.9000E+01
        2  1    1    2  502    0 0.29411362E+02 -.90067230E+01 -.31037673E+03 0.31189737E+03 0.32000000E+00 0.0000E+00 0.9000E+01
#aMCatNLO 2  0  0  1  2 0.30759539D+02 0.00000000D+00  -5  7  0 0.00000000D+00 0.00000000D+00 0.00000000D+00 0.00000000D+00 0.00000000D+00
  <mgrwgt>
 0.1801248091D-03    1    2    0
 0.235883965937779D+03 0.000000000000000D+00 0.000000000000000D+00 0.235883965937779D+03
 0.235883965937779D+03 0.000000000000000D+00 0.000000000000000D+00 -.235883965937779D+03
 0.147712153175176D+03 0.117132806784852D+03 0.401907401297223D+02 0.403413234832581D+01
 0.951276893386604D+02 -.569725628078900D+02 -.741524689027047D+02 0.174589725255279D+02
 0.101263304249843D+03 -.802349578353964D+02 0.720541925182815D+01 0.613570718186080D+02
 0.127664785111878D+03 0.200747138584348D+02 0.267563095211542D+02 -.828501766924617D+02
 0.000000000000000D+00 0.000000000000000D+00 -.000000000000000D+00 -.000000000000000D+00
 0.242145380699528D+03 0.000000000000000D+00 0.000000000000000D+00 0.242145380699528D+03
 0.277446321600998D+03 0.000000000000000D+00 0.000000000000000D+00 -.277446321600998D+03
 0.141490695349897D+03 0.108127501052612D+03 0.429484599088310D+02 0.403413234832581D+01
 0.974658302815010D+02 -.629696113676564D+02 -.723159760704475D+02 0.174589725255279D+02
 0.106617955352268D+03 -.867080417219051D+02 0.918768970398472D+01 0.613570718186080D+02
 0.127195157216802D+03 0.121387902972541D+02 0.291865494287026D+02 -.828501766924617D+02
 0.468220641000581D+02 0.294113617396955D+02 -.900672297107085D+01 -.353009409014704D+02
0.152543395226D-06 0.000000000000D+00 0.000000000000D+00 0.515440520347D-07 0.203021320237D-11  7 21 1 -24 -11 11 23 2 2 0.49164593D-02 0.32342680D+00 0.51027867D+05 0.51027867D+05 0.51027867D+05 0.11465189D+01  1  2  1  3  7  1       -2 0.180124809115D-03 0.100000000000D+01
  </mgrwgt>
  </event>
  <event>
  8     66 0.26562228E-05 0.28333790E+03 0.75467711E-02 0.97056309E-01
       -2 -1    0    0    0  501 0.00000000E+00 0.00000000E+00 0.12577497E+03 0.12577538E+03 0.32000000E+00 0.0000E+00 0.9000E+01
        1 -1    0    0  501    0 0.00000000E+00 0.00000000E+00 -.11076154E+04 0.11076154E+04 0.32000000E+00 0.0000E+00 0.9000E+01
       25  2    1    2    0    0 -.11884293E+03 -.21243543E+03 -.87383906E+03 0.95521109E+03 0.29930097E+03 0.0000E+00 0.0000E+00
       23  2    3    3    0    0 -.11554629E+03 -.15179868E+03 -.27735907E+03 0.34875309E+03 0.91142070E+02 0.0000E+00 0.0000E+00
      -24  1    1    2    0    0 0.11884293E+03 0.21243543E+03 -.10800137E+03 0.27817974E+03 0.80419002E+02 0.0000E+00 0.9000E+01
      -13  1    4    4    0    0 -.31154859E+02 -.51723348E+01 -.11459421E+02 0.33596246E+02 0.10565837E+00 0.0000E+00 0.9000E+01
       13  1    4    4    0    0 -.84391427E+02 -.14662635E+03 -.26589965E+03 0.31515684E+03 0.10565837E+00 0.0000E+00 0.9000E+01
       23  1    3    3    0    0 -.32966393E+01 -.60636752E+02 -.59647999E+03 0.60645801E+03 0.91188000E+02 0.0000E+00 0.9000E+01
#aMCatNLO 1  0  0  2  2 0.21123084D+03 0.00000000D+00  -5  7  0 0.00000000D+00 0.00000000D+00 0.00000000D+00 0.00000000D+00 0.00000000D+00
  <mgrwgt>
 0.8744660994D-03    4    2    0
 0.373243322431677D+03 0.000000000000000D+00 0.000000000000000D+00 0.373243322431677D+03
 0.373243322431677D+03 0.000000000000000D+00 0.000000000000000D+00 -.373243322431677D+03
 0.317573299765625D+03 0.118842925312298D+03 0.212435434515717D+03 0.187438336620318D+03
 0.404372250912909D+02 -.311547873637818D+02 -.517214478272612D+01 0.252546493887322D+02
 0.170988539233795D+03 -.843914985384320D+02 -.146626537919297D+03 -.248155979485886D+02
 0.217487580772643D+03 -.329663941008382D+01 -.606367518136937D+02 -.187877388060461D+03
 0.000000000000000D+00 0.000000000000000D+00 0.000000000000000D+00 0.000000000000000D+00
 0.569017233830570D+03 0.000000000000000D+00 0.000000000000000D+00 0.569017233830570D+03
 0.449485730906838D+03 0.000000000000000D+00 0.000000000000000D+00 -.449485730906838D+03
 0.284960224746362D+03 0.369607790218167D+02 0.195539981876432D+03 0.187438336620318D+03
 0.509546027562891D+02 -.435746091880214D+02 -.773483422024265D+01 0.252546493887322D+02
 0.209474031005383D+03 -.136094998123138D+03 -.157294968927684D+03 -.248155979485886D+02
 0.230408009375639D+03 -.641640446969299D+02 -.731960508781299D+02 -.187877388060461D+03
 0.242706096853735D+03 0.206872872986272D+03 0.426858721496252D+02 0.119531502923732D+03
0.361895448517D-04 0.000000000000D+00 0.000000000000D+00 0.237345917922D-05 0.000000000000D+00  7 -2 1 -24 -13 13 23 21 0 0.19350031D-01 0.17040240D+00 0.80280363D+05 0.80280363D+05 0.80280363D+05 0.11296350D+01  1  2  2  2  7  2        1 0.107666377138D-02 0.100000000000D+01
-.182486946350D-05 0.000000000000D+00 -.138977381156D-06 0.237345917922D-05 0.000000000000D+00  7 -2 1 -24 -13 13 23 21 2 0.19350031D-01 0.17040240D+00 0.80280363D+05 0.80280363D+05 0.80280363D+05 0.11296350D+01  1  2  3  2  7  2        1 -.692795541989D-04 0.100000000000D+01
0.233069042451D-05 0.000000000000D+00 0.000000000000D+00 0.237345917922D-05 0.000000000000D+00  7 -2 1 -24 -13 13 23 21 2 0.19350031D-01 0.17040240D+00 0.80280363D+05 0.80280363D+05 0.80280363D+05 0.11296350D+01  1  2 15  2  7  2        1 0.884825993396D-04 0.100000000000D+01
-.583184191220D-05 0.000000000000D+00 0.000000000000D+00 0.237345917922D-05 0.000000000000D+00  7 -2 1 -24 -13 13 23 21 2 0.19350031D-01 0.17040240D+00 0.80280363D+05 0.80280363D+05 0.80280363D+05 0.11296350D+01  1  2  4  2  7  2        1 -.221400717102D-03 0.100000000000D+01
  </mgrwgt>
  </event>
  <event>
  8     66 0.26562228E-05 0.17433987E+03 0.75467711E-02 0.10447627E+00
       -2 -1    0    0    0  501 0.00000000E+00 0.00000000E+00 0.89605886E+02 0.89606457E+02 0.32000000E+00 0.0000E+00 0.9000E+01
        1 -1    0    0  501    0 0.00000000E+00 0.00000000E+00 -.62560299E+03 0.62560307E+03 0.32000000E+00 0.0000E+00 0.9000E+01
       25  2    1    2    0    0 -.40809309E+02 -.10045061E+03 -.27397691E+03 0.42045960E+03 0.29994533E+03 0.0000E+00 0.0000E+00
       23  2    3    3    0    0 -.10748976E+02 -.59325125E+00 -.26643413E+03 0.28172510E+03 0.90917512E+02 0.0000E+00 0.0000E+00
      -24  1    1    2    0    0 0.40809309E+02 0.10045061E+03 -.26202019E+03 0.29474993E+03 0.80419002E+02 0.0000E+00 0.9000E+01
      -11  1    4    4    0    0 -.10844225E+01 0.36657748E+02 -.21147575E+03 0.21463215E+03 0.51099893E-03 0.0000E+00 0.9000E+01
       11  1    4    4    0    0 -.96645536E+01 -.37250999E+02 -.54958379E+02 0.67092950E+02 0.51099893E-03 0.0000E+00 0.9000E+01
       23  1    3    3    0    0 -.30060333E+02 -.99857355E+02 -.75427771E+01 0.13873449E+03 0.91188000E+02 0.0000E+00 0.9000E+01
#aMCatNLO 1  0  0  1  1 0.98727093D+02 0.00000000D+00  -5  7  0 0.00000000D+00 0.00000000D+00 0.00000000D+00 0.00000000D+00 0.00000000D+00
  <mgrwgt>
 0.1124931992D-02    4    2    0
 0.236765587020771D+03 0.000000000000000D+00 0.000000000000000D+00 0.236765587020771D+03
 0.236765587020771D+03 0.000000000000000D+00 0.000000000000000D+00 -.236765587020771D+03
 0.148598228981220D+03 0.408093091352432D+02 0.100450606223764D+03 -.621167747002922D+02
 0.848023765282260D+02 -.108442250410018D+01 0.366577479132529D+02 -.764622561176168D+02
 0.391272765122870D+02 -.966455355927262D+01 -.372509991705033D+02 -.706422200727608D+01
 0.201003292019810D+03 -.300603330718704D+02 -.998573549665139D+02 0.145643252825185D+03
 0.000000000000000D+00 0.000000000000000D+00 0.000000000000000D+00 -.000000000000000D+00
 0.265378395520906D+03 0.000000000000000D+00 0.000000000000000D+00 0.265378395520906D+03
 0.345453404433944D+03 0.000000000000000D+00 0.000000000000000D+00 -.345453404433944D+03
 0.129203092200960D+03 0.290670141761322D+02 0.743157995828404D+02 -.621167747002922D+02
 0.797470675591884D+02 -.803971018815355D+01 0.211773755169104D+02 -.764622561176168D+02
 0.478787405737055D+02 -.133421829941996D+02 -.454362929749490D+02 -.706422200727608D+01
 0.226884663380821D+03 -.481465918426493D+02 -.140111911463177D+03 0.145643252825185D+03
 0.127118236240175D+03 0.404614708488703D+02 0.900550293383755D+02 -.800750089130384D+02
0.103414610085D-04 0.000000000000D+00 0.000000000000D+00 0.183103787016D-05 0.000000000000D+00  7 -2 1 -24 -11 11 23 21 0 0.13785571D-01 0.96246664D-01 0.30394391D+05 0.30394391D+05 0.30394391D+05 0.11668100D+01  1  2  2  1  7  1       -2 0.132470944977D-02 0.100000000000D+01
-.509089860509D-06 0.000000000000D+00 -.397139332419D-07 0.183103787016D-05 0.000000000000D+00  7 -2 1 -24 -11 11 23 21 2 0.13785571D-01 0.96246664D-01 0.30394391D+05 0.30394391D+05 0.30394391D+05 0.11668100D+01  1  2  3  1  7  1       -2 -.887837480466D-04 0.100000000000D+01
0.672746087251D-06 0.000000000000D+00 0.000000000000D+00 0.183103787016D-05 0.000000000000D+00  7 -2 1 -24 -11 11 23 21 2 0.13785571D-01 0.96246664D-01 0.30394391D+05 0.30394391D+05 0.30394391D+05 0.11668100D+01  1  2 15  1  7  1       -2 0.117324904193D-03 0.100000000000D+01
-.130918883171D-05 0.000000000000D+00 0.000000000000D+00 0.183103787016D-05 0.000000000000D+00  7 -2 1 -24 -11 11 23 21 2 0.13785571D-01 0.96246664D-01 0.30394391D+05 0.30394391D+05 0.30394391D+05 0.11668100D+01  1  2  4  1  7  1       -2 -.228318614054D-03 0.100000000000D+01
  </mgrwgt>
  </event>
  <event>
  8     66 0.26562228E-05 0.81415320E+03 0.75467711E-02 0.86755065E-01
       -2 -1    0    0    0  501 0.00000000E+00 0.00000000E+00 0.30811814E+03 0.30811830E+03 0.32000000E+00 0.0000E+00 0.9000E+01
        1 -1    0    0  501    0 0.00000000E+00 0.00000000E+00 -.27255533E+04 0.27255533E+04 0.32000000E+00 0.0000E+00 0.9000E+01
       25  2    1    2    0    0 0.41385534E+03 -.66730230E+03 -.54542268E+03 0.10020549E+04 0.30009914E+03 0.0000E+00 0.0000E+00
       23  2    3    3    0    0 0.15194610E+03 -.45925434E+03 -.29026240E+03 0.57158721E+03 0.91964727E+02 0.0000E+00 0.0000E+00
      -24  1    1    2    0    0 -.41385534E+03 0.66730230E+03 -.18720125E+04 0.20316167E+04 0.80419002E+02 0.0000E+00 0.9000E+01
      -11  1    4    4    0    0 0.66311957E+02 -.82107058E+02 -.67319143E+02 0.12518271E+03 0.51099893E-03 0.0000E+00 0.9000E+01
       11  1    4    4    0    0 0.85634144E+02 -.37714728E+03 -.22294326E+03 0.44640450E+03 0.51099893E-03 0.0000E+00 0.9000E+01
       23  1    3    3    0    0 0.26190924E+03 -.20804797E+03 -.25516028E+03 0.43046768E+03 0.91188000E+02 0.0000E+00 0.9000E+01
#aMCatNLO 1  0  0  1  2 0.45203311D+03 0.00000000D+00  -5  7  0 0.00000000D+00 0.00000000D+00 0.00000000D+00 0.00000000D+00 0.00000000D+00
  <mgrwgt>
 0.1055673574D-02    4    2    0
 0.916402033789321D+03 0.000000000000000D+00 0.000000000000000D+00 0.916402033789321D+03
 0.916402033789321D+03 0.000000000000000D+00 0.000000000000000D+00 -.916402033789321D+03
 0.893597556507849D+03 -.413855337518829D+03 0.667302303015728D+03 -.418904252830537D+03
 0.118410682586579D+03 0.663119569532287D+02 -.821070577484619D+02 0.536865456473366D+02
 0.444834114837955D+03 0.856341444084199D+02 -.377147278784291D+03 0.219781967278276D+03
 0.375961713646259D+03 0.261909236157180D+03 -.208047966482975D+03 0.145435739904924D+03
 0.000000000000000D+00 0.000000000000000D+00 0.000000000000000D+00 -.000000000000000D+00
 0.111815635654555D+04 0.000000000000000D+00 0.000000000000000D+00 0.111815635654555D+04
 0.123695040476113D+04 0.000000000000000D+00 0.000000000000000D+00 -.123695040476113D+04
 0.775292037261893D+03 -.447935899369877D+03 0.467421848123850D+03 -.418904252830537D+03
 0.139172357499741D+03 0.610518278456983D+02 -.112957400046174D+03 0.536865456473366D+02
 0.546308147602025D+03 0.653939288157438D+02 -.495854931476624D+03 0.219781967278276D+03
 0.426952194255182D+03 0.245512850679402D+03 -.304211785677176D+03 0.145435739904924D+03
 0.467382024687837D+03 0.759772920290325D+02 0.445602269076125D+03 -.118794048215581D+03
0.302772410087D-02 0.000000000000D+00 0.000000000000D+00 0.455617663933D-04 0.000000000000D+00  7 -2 1 -24 -11 11 23 21 0 0.47402804D-01 0.41931591D+00 0.66284543D+06 0.66284543D+06 0.66284543D+06 0.10599629D+01  1  2  2  1  7  1       -2 0.131223918328D-02 0.100000000000D+01
-.165344408665D-03 0.000000000000D+00 -.116272577654D-04 0.455617663933D-04 0.000000000000D+00  7 -2 1 -24 -11 11 23 21 2 0.47402804D-01 0.41931591D+00 0.66284543D+06 0.66284543D+06 0.66284543D+06 0.10599629D+01  1  2  3  1  7  1       -2 -.805132921591D-04 0.100000000000D+01
0.195476381515D-03 0.000000000000D+00 0.000000000000D+00 0.455617663933D-04 0.000000000000D+00  7 -2 1 -24 -11 11 23 21 2 0.47402804D-01 0.41931591D+00 0.66284543D+06 0.66284543D+06 0.66284543D+06 0.10599629D+01  1  2 15  1  7  1       -2 0.951858435508D-04 0.100000000000D+01
-.557022475900D-03 0.000000000000D+00 0.000000000000D+00 0.455617663933D-04 0.000000000000D+00  7 -2 1 -24 -11 11 23 21 2 0.47402804D-01 0.41931591D+00 0.66284543D+06 0.66284543D+06 0.66284543D+06 0.10599629D+01  1  2  4  1  7  1       -2 -.271238161021D-03 0.100000000000D+01
  </mgrwgt>
  </event>
  <event>
  8     66 0.26562228E-05 0.38943102E+03 0.75467711E-02 0.90503817E-01
       -4 -1    0    0    0  501 0.00000000E+00 0.00000000E+00 0.23487371E+03 0.23487883E+03 0.15500000E+01 0.0000E+00 0.9000E+01
        3 -1    0    0  501    0 0.00000000E+00 0.00000000E+00 -.90007858E+03 0.90007872E+03 0.50000000E+00 0.0000E+00 0.9000E+01
       25  2    1    2    0    0 0.29252924E+03 -.14730368E+03 -.66107526E+03 0.79768021E+03 0.30331747E+03 0.0000E+00 0.0000E+00
       23  2    3    3    0    0 0.43427605E+01 -.97667791E+02 -.25886538E+03 0.29210805E+03 0.93584037E+02 0.0000E+00 0.0000E+00
      -24  1    1    2    0    0 -.29252924E+03 0.14730368E+03 -.41296127E+01 0.33727734E+03 0.80419002E+02 0.0000E+00 0.9000E+01
      -13  1    4    4    0    0 -.44632251E+02 -.45385453E+02 -.11810250E+03 0.13416441E+03 0.10565837E+00 0.0000E+00 0.9000E+01
       13  1    4    4    0    0 0.48975011E+02 -.52282338E+02 -.14076288E+03 0.15794364E+03 0.10565837E+00 0.0000E+00 0.9000E+01
       23  1    3    3    0    0 0.28818648E+03 -.49635894E+02 -.40220987E+03 0.50557216E+03 0.91188000E+02 0.0000E+00 0.9000E+01
#aMCatNLO 1  0  0  1  2 0.55604733D+03 0.00000000D+00  -5  7  0 0.00000000D+00 0.00000000D+00 0.00000000D+00 0.00000000D+00 0.00000000D+00
  <mgrwgt>
 0.1104465203D-03    3    2    0
 0.459791018142362D+03 0.000000000000000D+00 0.000000000000000D+00 0.459791018142362D+03
 0.459791018142362D+03 0.000000000000000D+00 0.000000000000000D+00 -.459791018142362D+03
 0.413283873531258D+03 -.292529245410339D+03 0.147303685129879D+03 0.238881998261580D+03
 0.801543882172023D+02 -.446323678067680D+02 -.453854427194706D+02 -.487117981970797D+02
 0.931109874066130D+02 0.489751315412132D+02 -.522823470634073D+02 -.594781359147773D+02
 0.333032787129652D+03 0.288186481675893D+03 -.496358953470011D+02 -.130692064149723D+03
 0.000000000000000D+00 -.000000000000000D+00 0.000000000000000D+00 -.000000000000000D+00
 0.598460366105487D+03 0.000000000000000D+00 0.000000000000000D+00 0.598460366105487D+03
 0.180141917257595D+04 0.000000000000000D+00 0.000000000000000D+00 -.180141917257595D+04
 0.298527195986537D+03 -.949233185474114D+02 0.128748690446602D+03 0.238881998261580D+03
 0.693643635688083D+02 -.312445539107900D+01 -.492829932960850D+02 -.487117981970797D+02
 0.141249477404059D+03 0.114035958567002D+03 -.583914922632398D+02 -.594781359147773D+02
 0.565484365782366D+03 0.537623899000266D+03 -.730578140401307D+02 -.130692064149723D+03
 0.132525413593967D+04 -.553612083628778D+03 0.519836091528532D+02 -.120295880647047D+04
0.113777451663D-03 0.000000000000D+00 0.000000000000D+00 0.721211655901D-07 0.000000000000D+00  7 -4 3 -24 -13 13 23 21 0 0.36134822D-01 0.13847403D+00 0.15165652D+06 0.15165652D+06 0.15165652D+06 0.11071757D+01  1  2  2  1  7  1       -4 0.109208109014D-03 0.100000000000D+01
-.610897349870D-05 0.000000000000D+00 -.436935372676D-06 0.721211655901D-07 0.000000000000D+00  7 -4 3 -24 -13 13 23 21 2 0.36134822D-01 0.13847403D+00 0.15165652D+06 0.15165652D+06 0.15165652D+06 0.11071757D+01  1  2  3  1  7  1       -4 -.718786658089D-05 0.100000000000D+01
0.716150021238D-05 0.000000000000D+00 0.000000000000D+00 0.721211655901D-07 0.000000000000D+00  7 -4 3 -24 -13 13 23 21 2 0.36134822D-01 0.13847403D+00 0.15165652D+06 0.15165652D+06 0.15165652D+06 0.11071757D+01  1  2 15  1  7  1       -4 0.842627784464D-05 0.100000000000D+01
  </mgrwgt>
  </event>
  <event>
  8     66 0.26562228E-05 0.11408594E+03 0.75467711E-02 0.10079083E+00
       -2 -1    0    0    0  501 0.00000000E+00 0.00000000E+00 0.19486630E+02 0.19489257E+02 0.32000000E+00 0.0000E+00 0.9000E+01
        1 -1    0    0  501    0 0.00000000E+00 0.00000000E+00 -.21613953E+04 0.21613953E+04 0.32000000E+00 0.0000E+00 0.9000E+01
       25  2    1    2    0    0 0.10941411E+02 -.64836301E+02 -.15648348E+04 0.15945358E+04 0.29918708E+03 0.0000E+00 0.0000E+00
       23  2    3    3    0    0 -.23673322E+01 -.14633890E+03 -.68462440E+03 0.70576954E+03 0.89327529E+02 0.0000E+00 0.0000E+00
      -24  1    1    2    0    0 -.10941411E+02 0.64836301E+02 -.57707382E+03 0.58634876E+03 0.80419002E+02 0.0000E+00 0.9000E+01
      -13  1    4    4    0    0 -.76332890E+01 -.10313652E+02 -.70191484E+01 0.14625940E+02 0.10565837E+00 0.0000E+00 0.9000E+01
       13  1    4    4    0    0 0.52659568E+01 -.13602525E+03 -.67760525E+03 0.69114360E+03 0.10565837E+00 0.0000E+00 0.9000E+01
       23  1    3    3    0    0 0.13308743E+02 0.81502600E+02 -.88021045E+03 0.88876627E+03 0.91188000E+02 0.0000E+00 0.9000E+01
#aMCatNLO 1  0  0  2  1 0.17881746D+03 0.00000000D+00  -5  7  0 0.00000000D+00 0.00000000D+00 0.00000000D+00 0.00000000D+00 0.00000000D+00
  <mgrwgt>
 0.1779854934D-02    7    2    0
 0.205234500930645D+03 0.000000000000000D+00 0.000000000000000D+00 0.205234500930645D+03
 0.205234500930645D+03 0.000000000000000D+00 0.000000000000000D+00 -.205234500930645D+03
 0.104075011678758D+03 -.109414182632286D+02 0.648363459404908D+02 -.639732077021998D+01
 0.410824092978087D+02 -.763330455790312D+01 -.103134771546323D+02 0.390272879434358D+02
 0.136273214385707D+03 0.526597826930307D+01 -.136025428555445D+03 0.630406362496361D+01
 0.129038366499016D+03 0.133087445518286D+02 0.815025597695866D+02 -.389340307981794D+02
 0.000000000000000D+00 0.000000000000000D+00 0.000000000000000D+00 -.000000000000000D+00
 0.250300444055468D+03 0.000000000000000D+00 0.000000000000000D+00 0.250300444055468D+03
 0.526247483424844D+03 0.000000000000000D+00 0.000000000000000D+00 -.526247483424844D+03
 0.957781071181208D+02 -.388839141283851D+02 0.339609387057979D+02 -.639732077021998D+01
 0.503742250108127D+02 -.204203285552975D+02 -.244426578528981D+02 0.390272879434358D+02
 0.191040476443152D+03 -.404974379218151D+02 -.186592282646437D+03 0.630406362496361D+01
 0.110535330296636D+03 -.201872902982281D+02 0.444907007812637D+02 -.389340307981794D+02
 0.328819788611590D+03 0.119988970903726D+03 0.132583301012274D+03 -.275947039369377D+03
0.170248707664D-04 0.000000000000D+00 0.000000000000D+00 0.810787349839D-07 0.000000000000D+00  7 -2 1 -24 -13 13 23 21 0 0.29981469D-02 0.33252256D+00 0.35317893D+05 0.35317893D+05 0.35317893D+05 0.11608167D+01  1  2  2  2  7  2        1 0.175825416600D-02 0.100000000000D+01
-.936904310110D-06 0.000000000000D+00 -.653799864943D-07 0.810787349839D-07 0.000000000000D+00  7 -2 1 -24 -13 13 23 21 2 0.29981469D-02 0.33252256D+00 0.35317893D+05 0.35317893D+05 0.35317893D+05 0.11608167D+01  1  2  3  2  7  2        1 -.130382822008D-03 0.100000000000D+01
0.109463214132D-05 0.000000000000D+00 0.000000000000D+00 0.810787349839D-07 0.000000000000D+00  7 -2 1 -24 -13 13 23 21 2 0.29981469D-02 0.33252256D+00 0.35317893D+05 0.35317893D+05 0.35317893D+05 0.11608167D+01  1  2 15  2  7  2        1 0.152332768785D-03 0.100000000000D+01
0.397303362980D-07 0.000000000000D+00 0.000000000000D+00 0.810787349839D-07 0.000000000000D+00  7 -2 1 -24 -13 13 23 21 2 0.29981469D-02 0.83319439D+00 0.90186014D+05 0.90186014D+05 0.90186014D+05 0.11254221D+01  1  2 12  2  7  2        1 0.339488881421D-08 0.100000000000D+01
-.800093912669D-05 0.000000000000D+00 -.391148197365D-05 0.810787349839D-07 0.000000000000D+00  7 -2 1 -24 -13 13 23 21 2 0.29981469D-02 0.86172780D+00 0.35317893D+05 0.35317893D+05 0.35317893D+05 0.11608167D+01  1  2  5  2  7  2        1 -.351986754531D-06 0.100000000000D+01
0.401865759880D-08 0.000000000000D+00 0.000000000000D+00 0.810787349839D-07 0.000000000000D+00  7 -2 21 -24 -13 13 23 -1 2 0.29981469D-02 0.83319439D+00 0.90186014D+05 0.90186014D+05 0.90186014D+05 0.11254221D+01  1  2 12  4  7  2        1 0.917024534100D-11 0.100000000000D+01
-.607450415188D-06 0.000000000000D+00 -.412447068431D-06 0.810787349839D-07 0.000000000000D+00  7 -2 21 -24 -13 13 23 -1 2 0.29981469D-02 0.86172780D+00 0.35317893D+05 0.35317893D+05 0.35317893D+05 0.11608167D+01  1  2  5  4  7  2        1 -.595902618992D-09 0.100000000000D+01
  </mgrwgt>
  </event>
  <event>
  8     66 0.26562228E-05 0.21484928E+03 0.75467711E-02 0.10481854E+00
       -2 -1    0    0    0  501 0.00000000E+00 0.00000000E+00 0.51265830E+02 0.51266829E+02 0.32000000E+00 0.0000E+00 0.9000E+01
        1 -1    0    0  501    0 0.00000000E+00 0.00000000E+00 -.18194374E+04 0.18194374E+04 0.32000000E+00 0.0000E+00 0.9000E+01
       25  2    1    2    0    0 -.15566199E+02 0.10065457E+03 -.16899185E+04 0.17191641E+04 0.29887632E+03 0.0000E+00 0.0000E+00
       23  2    3    3    0    0 0.41399896E+02 0.15842823E+03 -.88102632E+03 0.90111476E+03 0.94799667E+02 0.0000E+00 0.0000E+00
      -24  1    1    2    0    0 0.15566199E+02 -.10065457E+03 -.78253019E+02 0.15154010E+03 0.80419002E+02 0.0000E+00 0.9000E+01
      -13  1    4    4    0    0 0.14856151E+02 0.14894042E+03 -.82420000E+03 0.83768108E+03 0.10565837E+00 0.0000E+00 0.9000E+01
       13  1    4    4    0    0 0.26543744E+02 0.94878112E+01 -.56826329E+02 0.63433680E+02 0.10565837E+00 0.0000E+00 0.9000E+01
       23  1    3    3    0    0 -.56966094E+02 -.57773660E+02 -.80889220E+03 0.81804937E+03 0.91188000E+02 0.0000E+00 0.9000E+01
#aMCatNLO 1  0  0  1  1 0.14337694D+02 0.00000000D+00  -5  7  0 0.00000000D+00 0.00000000D+00 0.00000000D+00 0.00000000D+00 0.00000000D+00
  <mgrwgt>
 0.8882525937D-03    4    2    0
 0.305411080206334D+03 0.000000000000000D+00 0.000000000000000D+00 0.305411080206334D+03
 0.305411080206334D+03 0.000000000000000D+00 0.000000000000000D+00 -.305411080206334D+03
 0.237584596119950D+03 0.155661985395030D+02 -.100654572792792D+03 0.199011494135485D+03
 0.179637689344972D+03 0.148561412121396D+02 0.148940595123982D+03 -.993261980828807D+02
 0.297743633047901D+02 0.265437568226024D+02 0.948764086602413D+01 0.958782325376965D+01
 0.163825511642956D+03 -.569660965742450D+02 -.577736631972139D+02 -.109273119306374D+03
 0.000000000000000D+00 0.000000000000000D+00 0.000000000000000D+00 -.000000000000000D+00
 0.307064464044063D+03 0.000000000000000D+00 0.000000000000000D+00 0.307064464044063D+03
 0.338244651851118D+03 0.000000000000000D+00 0.000000000000000D+00 -.338244651851118D+03
 0.238144390131123D+03 0.103448687708011D+02 -.102630129536265D+03 0.199011494135485D+03
 0.178123840484974D+03 0.109295548997984D+02 0.147454921088477D+03 -.993261980828807D+02
 0.291210167125079D+02 0.258973547537551D+02 0.924306639502243D+01 0.958782325376965D+01
 0.165601162672843D+03 -.605816956882788D+02 -.591416712579645D+02 -.109273119306374D+03
 0.343187058937345D+02 0.134099172639242D+02 0.507381331072982D+01 -.311801878070549D+02
0.250477965509D-04 0.000000000000D+00 0.000000000000D+00 0.103880594285D-06 0.000000000000D+00  7 -2 1 -24 -13 13 23 21 0 0.78871298D-02 0.27991352D+00 0.46160214D+05 0.46160214D+05 0.46160214D+05 0.11503603D+01  1  2  2  1  7  1       -2 0.102779397374D-02 0.100000000000D+01
-.118224032999D-05 0.000000000000D+00 -.961901339919D-07 0.103880594285D-06 0.000000000000D+00  7 -2 1 -24 -13 13 23 21 2 0.78871298D-02 0.27991352D+00 0.46160214D+05 0.46160214D+05 0.46160214D+05 0.11503603D+01  1  2  3  1  7  1       -2 -.641963169736D-04 0.100000000000D+01
0.157280589750D-05 0.000000000000D+00 0.000000000000D+00 0.103880594285D-06 0.000000000000D+00  7 -2 1 -24 -13 13 23 21 2 0.78871298D-02 0.27991352D+00 0.46160214D+05 0.46160214D+05 0.46160214D+05 0.11503603D+01  1  2 15  1  7  1       -2 0.854042476581D-04 0.100000000000D+01
-.296036170161D-05 0.000000000000D+00 0.000000000000D+00 0.103880594285D-06 0.000000000000D+00  7 -2 1 -24 -13 13 23 21 2 0.78871298D-02 0.27991352D+00 0.46160214D+05 0.46160214D+05 0.46160214D+05 0.11503603D+01  1  2  4  1  7  1       -2 -.160749310722D-03 0.100000000000D+01
  </mgrwgt>
  </event>
  <event>
  8     66 0.26562228E-05 0.10539560E+03 0.75467711E-02 0.99802656E-01
       -2 -1    0    0    0  501 0.00000000E+00 0.00000000E+00 0.17364376E+03 0.17364405E+03 0.32000000E+00 0.0000E+00 0.9000E+01
        1 -1    0    0  501    0 0.00000000E+00 0.00000000E+00 -.65524705E+03 0.65524712E+03 0.32000000E+00 0.0000E+00 0.9000E+01
       25  2    1    2    0    0 0.29468910E+02 0.24872709E+03 -.18239453E+03 0.43048601E+03 0.29885926E+03 0.0000E+00 0.0000E+00
       23  2    3    3    0    0 0.10741497E+03 0.49713301E+02 -.29198296E+02 0.15215812E+03 0.91050341E+02 0.0000E+00 0.0000E+00
      -24  1    1    2    0    0 -.29468910E+02 -.24872709E+03 -.29920876E+03 0.39840517E+03 0.80419002E+02 0.0000E+00 0.9000E+01
      -13  1    4    4    0    0 0.38005955E+02 0.64946348E+02 0.21623576E+00 0.75249842E+02 0.10565837E+00 0.0000E+00 0.9000E+01
       13  1    4    4    0    0 0.69409019E+02 -.15233047E+02 -.29414532E+02 0.76908280E+02 0.10565837E+00 0.0000E+00 0.9000E+01
       23  1    3    3    0    0 -.77946064E+02 0.19901378E+03 -.15319623E+03 0.27832789E+03 0.91188000E+02 0.0000E+00 0.9000E+01
#aMCatNLO 1  0  0  2  1 0.72716596D+01 0.00000000D+00  -5  7  0 0.00000000D+00 0.00000000D+00 0.00000000D+00 0.00000000D+00 0.00000000D+00
  <mgrwgt>
 0.1487265243D-02   11    2    0
 0.337312486116168D+03 0.000000000000000D+00 0.000000000000000D+00 0.337312486116168D+03
 0.337312486116168D+03 0.000000000000000D+00 0.000000000000000D+00 -.337312486116168D+03
 0.275908264019339D+03 -.294689100505216D+02 -.248727085889849D+03 -.832140269724556D+02
 0.926115836235648D+02 0.380059129718593D+02 0.649464561135152D+02 0.539853113238706D+02
 0.734963034026277D+02 0.694090612612132D+02 -.152331548054614D+02 0.187627243054177D+02
 0.232608821186805D+03 -.779460641825509D+02 0.199013784581795D+03 0.104659913431673D+02
 0.000000000000000D+00 0.000000000000000D+00 0.000000000000000D+00 -.000000000000000D+00
 0.339795763435063D+03 0.000000000000000D+00 0.000000000000000D+00 0.339795763435063D+03
 0.342697729748302D+03 0.000000000000000D+00 0.000000000000000D+00 -.342697729748302D+03
 0.276581187199233D+03 -.324221111257652D+02 -.249106743351806D+03 -.832140269724556D+02
 0.921213865773191D+02 0.370184667771366D+02 0.648195120597392D+02 0.539853113238706D+02
 0.727794682701954D+02 0.686271788827651D+02 -.153336719974124D+02 0.187627243054177D+02
 0.233182118993986D+03 -.804358389689231D+02 0.198693704251281D+03 0.104659913431673D+02
 0.782933214263178D+01 0.721230443478661D+01 0.927199038197734D+00 -.290196631323826D+01
0.133525650967D-04 0.000000000000D+00 0.000000000000D+00 0.747094274807D-06 0.000000000000D+00  7 -2 1 -24 -13 13 23 21 0 0.26714453D-01 0.10080727D+00 0.10295891D+06 0.10295891D+06 0.10295891D+06 0.11206843D+01  1  2  2  2  7  2        1 0.539585437665D-03 0.100000000000D+01
-.739557307428D-06 0.000000000000D+00 -.512773657826D-07 0.747094274807D-06 0.000000000000D+00  7 -2 1 -24 -13 13 23 21 2 0.26714453D-01 0.10080727D+00 0.10295891D+06 0.10295891D+06 0.10295891D+06 0.11206843D+01  1  2  3  2  7  2        1 -.375347843396D-04 0.100000000000D+01
0.853369651147D-06 0.000000000000D+00 0.000000000000D+00 0.747094274807D-06 0.000000000000D+00  7 -2 1 -24 -13 13 23 21 2 0.26714453D-01 0.10080727D+00 0.10295891D+06 0.10295891D+06 0.10295891D+06 0.11206843D+01  1  2 15  2  7  2        1 0.433111071935D-04 0.100000000000D+01
0.119688587289D-04 0.000000000000D+00 0.000000000000D+00 0.747094274807D-06 0.000000000000D+00  7 -2 1 -24 -13 13 23 21 2 0.26714453D-01 0.10278338D+00 0.10528392D+06 0.10528392D+06 0.10528392D+06 0.11198916D+01  1  2 12  2  7  2        1 0.589275967673D-03 0.100000000000D+01
-.149102230031D-04 0.000000000000D+00 0.000000000000D+00 0.747094274807D-06 0.000000000000D+00  7 -2 1 -24 -13 13 23 21 2 0.26714453D-01 0.10080727D+00 0.10295891D+06 0.10295891D+06 0.10295891D+06 0.11206843D+01  1  2  4  2  7  2        1 -.756739199592D-03 0.100000000000D+01
-.687748922496D-03 0.000000000000D+00 -.810316937759D-04 0.747094274807D-06 0.000000000000D+00  7 -2 1 -24 -13 13 23 21 2 0.26714453D-01 0.10297428D+00 0.10295891D+06 0.10295891D+06 0.10295891D+06 0.11206843D+01  1  2  5  2  7  2        1 -.338252866768D-01 0.100000000000D+01
0.689334776403D-03 0.000000000000D+00 0.810133693327D-04 0.747094274807D-06 0.000000000000D+00  7 -2 1 -24 -13 13 23 21 2 0.26714453D-01 0.10080727D+00 0.10295891D+06 0.10295891D+06 0.10295891D+06 0.11206843D+01  1  2  6  2  7  2        1 0.349858380280D-01 0.100000000000D+01
0.365608909420D-05 0.000000000000D+00 0.000000000000D+00 0.747094274807D-06 0.945189124582D-07  7 -2 1 -24 -13 13 23 21 2 0.26911123D-01 0.10241667D+00 0.10528392D+06 0.10528392D+06 0.10528392D+06 0.11198916D+01  1  2 11  2  7  2        1 0.178684968350D-03 0.100000000000D+01
0.521686278993D-06 0.000000000000D+00 0.000000000000D+00 0.747094274807D-06 0.000000000000D+00  7 -2 21 -24 -13 13 23 -1 2 0.26714453D-01 0.10278338D+00 0.10528392D+06 0.10528392D+06 0.10528392D+06 0.11198916D+01  1  2 12  4  7  2        1 0.570449176932D-04 0.100000000000D+01
-.264385340319D-05 0.000000000000D+00 -.313079940892D-06 0.747094274807D-06 0.000000000000D+00  7 -2 21 -24 -13 13 23 -1 2 0.26714453D-01 0.10297428D+00 0.10295891D+06 0.10295891D+06 0.10295891D+06 0.11206843D+01  1  2  5  4  7  2        1 -.288442402335D-03 0.100000000000D+01
0.140201272838D-07 0.000000000000D+00 0.000000000000D+00 0.747094274807D-06 0.275604729692D-09  7 -2 21 -24 -13 13 23 -1 2 0.26911123D-01 0.10241667D+00 0.10528392D+06 0.10528392D+06 0.10528392D+06 0.11198916D+01  1  2 11  4  7  2        1 0.152787986867D-05 0.100000000000D+01
  </mgrwgt>
  </event>
  <event>
  8     66 0.26562228E-05 0.24839439E+03 0.75467711E-02 0.98937607E-01
       -2 -1    0    0    0  501 0.00000000E+00 0.00000000E+00 0.14518461E+03 0.14518497E+03 0.32000000E+00 0.0000E+00 0.9000E+01
        1 -1    0    0  501    0 0.00000000E+00 0.00000000E+00 -.76501742E+03 0.76501749E+03 0.32000000E+00 0.0000E+00 0.9000E+01
       25  2    1    2    0    0 0.72714038E+02 0.24202510E+03 -.29149870E+03 0.48814324E+03 0.29908001E+03 0.0000E+00 0.0000E+00
       23  2    3    3    0    0 0.58413055E+02 0.27203355E+02 0.28039379E+01 0.11226801E+03 0.91891976E+02 0.0000E+00 0.0000E+00
      -24  1    1    2    0    0 -.72714038E+02 -.24202510E+03 -.32833411E+03 0.42205921E+03 0.80419002E+02 0.0000E+00 0.9000E+01
      -13  1    4    4    0    0 -.29628376E+01 0.45654210E+02 0.12553291E+02 0.47441349E+02 0.10565837E+00 0.0000E+00 0.9000E+01
       13  1    4    4    0    0 0.61375893E+02 -.18450855E+02 -.97493527E+01 0.64826656E+02 0.10565837E+00 0.0000E+00 0.9000E+01
       23  1    3    3    0    0 0.14300983E+02 0.21482174E+03 -.29430264E+03 0.37587524E+03 0.91188000E+02 0.0000E+00 0.9000E+01
#aMCatNLO 1  0  0  1  2 0.84045424D+02 0.00000000D+00  -5  7  0 0.00000000D+00 0.00000000D+00 0.00000000D+00 0.00000000D+00 0.00000000D+00
  <mgrwgt>
 0.1189575301D-02    9    2    0
 0.333270086488516D+03 0.000000000000000D+00 0.000000000000000D+00 0.333270086488516D+03
 0.333270086488516D+03 0.000000000000000D+00 0.000000000000000D+00 -.333270086488516D+03
 0.271022048053637D+03 -.727140379453881D+02 -.242025097595073D+03 -.558771455658657D+02
 0.764577634050881D+02 -.296292242514677D+01 0.456542945449435D+02 0.612592528946815D+02
 0.794586996458396D+02 0.613759777588091D+02 -.184509395810782D+02 0.469705985924527D+02
 0.239601661872469D+03 0.143009826117257D+02 0.214821742631208D+03 -.523527059212684D+02
 0.000000000000000D+00 0.000000000000000D+00 0.000000000000000D+00 0.000000000000000D+00
 0.443978763011023D+03 0.000000000000000D+00 0.000000000000000D+00 0.443978763011023D+03
 0.352249452365027D+03 0.000000000000000D+00 0.000000000000000D+00 -.352249452365027D+03
 0.299127905377696D+03 -.100991857531820D+03 -.263986130576894D+03 -.558771455658657D+02
 0.738272960222877D+02 -.104166348589501D+02 0.398656153967709D+02 0.612592528946815D+02
 0.754026353235191D+02 0.536952950457395D+02 -.244158876871039D+02 0.469705985924527D+02
 0.223460171017103D+03 -.866557011533813D+01 0.196985529327132D+03 -.523527059212684D+02
 0.124410207635444D+03 0.663787674603685D+02 0.515508735400954D+02 0.917293106459963D+02
0.221056440334D-04 0.000000000000D+00 0.000000000000D+00 0.735197415161D-06 0.000000000000D+00  7 -2 1 -24 -13 13 23 21 0 0.22336127D-01 0.11769502D+00 0.92674969D+05 0.92674969D+05 0.92674969D+05 0.11244433D+01  1  2  2  1  7  1       -2 0.959905949631D-03 0.100000000000D+01
-.121585468509D-05 0.000000000000D+00 -.848914936379D-07 0.735197415161D-06 0.000000000000D+00  7 -2 1 -24 -13 13 23 21 2 0.22336127D-01 0.11769502D+00 0.92674969D+05 0.92674969D+05 0.92674969D+05 0.11244433D+01  1  2  3  1  7  1       -2 -.667547679676D-04 0.100000000000D+01
0.144178937424D-05 0.000000000000D+00 0.000000000000D+00 0.735197415161D-06 0.000000000000D+00  7 -2 1 -24 -13 13 23 21 2 0.22336127D-01 0.11769502D+00 0.92674969D+05 0.92674969D+05 0.92674969D+05 0.11244433D+01  1  2 15  1  7  1       -2 0.791593899467D-04 0.100000000000D+01
0.320018617031D-04 0.000000000000D+00 0.000000000000D+00 0.735197415161D-06 0.000000000000D+00  7 -2 1 -24 -13 13 23 21 2 0.30234471D-01 0.11769502D+00 0.12087403D+06 0.12087403D+06 0.12087403D+06 0.11150276D+01  1  2 12  1  7  1       -2 0.102293863740D-02 0.100000000000D+01
-.336494630000D-04 0.000000000000D+00 0.000000000000D+00 0.735197415161D-06 0.000000000000D+00  7 -2 1 -24 -13 13 23 21 2 0.22336127D-01 0.11769502D+00 0.92674969D+05 0.92674969D+05 0.92674969D+05 0.11244433D+01  1  2  4  1  7  1       -2 -.184747578995D-02 0.100000000000D+01
-.453357132741D-04 0.000000000000D+00 -.103534769078D-04 0.735197415161D-06 0.000000000000D+00  7 -2 1 -24 -13 13 23 21 2 0.31199539D-01 0.11769502D+00 0.92674969D+05 0.92674969D+05 0.92674969D+05 0.11244433D+01  1  2  5  1  7  1       -2 -.140119040472D-02 0.100000000000D+01
0.467151301931D-04 0.000000000000D+00 0.980103353420D-05 0.735197415161D-06 0.000000000000D+00  7 -2 1 -24 -13 13 23 21 2 0.22336127D-01 0.11769502D+00 0.92674969D+05 0.92674969D+05 0.92674969D+05 0.11244433D+01  1  2  6  1  7  1       -2 0.256482761867D-02 0.100000000000D+01
0.124530177767D-05 0.000000000000D+00 0.000000000000D+00 0.735197415161D-06 0.000000000000D+00  7 21 1 -24 -13 13 23 2 2 0.30234471D-01 0.11769502D+00 0.12087403D+06 0.12087403D+06 0.12087403D+06 0.11150276D+01  1  2 12  3  7  1       -2 0.469251257944D-03 0.100000000000D+01
-.162075424834D-05 0.000000000000D+00 -.432607235445D-06 0.735197415161D-06 0.000000000000D+00  7 21 1 -24 -13 13 23 2 2 0.31199539D-01 0.11769502D+00 0.92674969D+05 0.92674969D+05 0.92674969D+05 0.11244433D+01  1  2  5  3  7  1       -2 -.591086589959D-03 0.100000000000D+01
  </mgrwgt>
  </event>
  <event>
  8     66 0.26562228E-05 0.21439771E+03 0.75467711E-02 0.10331629E+00
       -2 -1    0    0    0  501 0.00000000E+00 0.00000000E+00 0.13631209E+03 0.13631246E+03 0.32000000E+00 0.0000E+00 0.9000E+01
        1 -1    0    0  501    0 0.00000000E+00 0.00000000E+00 -.93252628E+03 0.93252633E+03 0.32000000E+00 0.0000E+00 0.9000E+01
       25  2    1    2    0    0 0.18266613E+03 -.20091777E+01 -.79506160E+03 0.86924046E+03 0.30014175E+03 0.0000E+00 0.0000E+00
       23  2    3    3    0    0 -.17980052E+02 0.18099933E+02 -.87116603E+02 0.12750962E+03 0.89546136E+02 0.0000E+00 0.0000E+00
      -24  1    1    2    0    0 -.18266613E+03 0.20091777E+01 -.11525877E+01 0.19959834E+03 0.80419002E+02 0.0000E+00 0.9000E+01
      -11  1    4    4    0    0 -.18354406E+01 -.26101649E+02 0.25040641E+01 0.26285647E+02 0.51099893E-03 0.0000E+00 0.9000E+01
       11  1    4    4    0    0 -.16144611E+02 0.44201582E+02 -.89620667E+02 0.10122397E+03 0.51099893E-03 0.0000E+00 0.9000E+01
       23  1    3    3    0    0 0.20064618E+03 -.20109110E+02 -.70794500E+03 0.74173084E+03 0.91188000E+02 0.0000E+00 0.9000E+01
#aMCatNLO 1  0  0  2  2 0.21479068D+01 0.00000000D+00  -5  7  0 0.00000000D+00 0.00000000D+00 0.00000000D+00 0.00000000D+00 0.00000000D+00
  <mgrwgt>
 0.3872449620D-03    7    2    0
 0.356531673579892D+03 0.000000000000000D+00 0.000000000000000D+00 0.356531673579892D+03
 0.356531673579892D+03 0.000000000000000D+00 0.000000000000000D+00 -.356531673579892D+03
 0.297898835145856D+03 -.182666130928423D+03 0.200917768069704D+01 0.221145987627121D+03
 0.421966593400940D+02 -.183544060768487D+01 -.261016490798319D+02 0.331042766505011D+02
 0.516572060970890D+02 -.161446109149759D+02 0.442015817989712D+02 -.213081826214727D+02
 0.321310646576746D+03 0.200646182451084D+03 -.201091103998363D+02 -.232942081656150D+03
 0.000000000000000D+00 -.000000000000000D+00 -.000000000000000D+00 0.000000000000000D+00
 0.357727106559393D+03 0.000000000000000D+00 0.000000000000000D+00 0.357727106559393D+03
 0.357499416810252D+03 0.000000000000000D+00 0.000000000000000D+00 -.357499416810252D+03
 0.297830816890242D+03 -.182543237473888D+03 0.289795516098768D+01 0.221145987627121D+03
 0.421182104907200D+02 -.181804723875193D+01 -.259758585349041D+02 0.331042766505011D+02
 0.517826697000482D+02 -.161232722362146D+02 0.443559052103682D+02 -.213081826214727D+02
 0.321334885059960D+03 0.200778754212711D+03 -.191503384562610D+02 -.232942081656150D+03
 0.215994122867479D+01 -.294197263856420D+00 -.212766338019075D+01 0.227689749140883D+00
0.138053582786D-04 0.000000000000D+00 0.000000000000D+00 0.209697933630D-05 0.000000000000D+00  7 -2 1 -24 -11 11 23 21 0 0.20971124D-01 0.14346561D+00 0.61041048D+05 0.61041048D+05 0.61041048D+05 0.11397506D+01  1  2  2  2  7  2        1 0.487721916497D-03 0.100000000000D+01
-.641520489944D-06 0.000000000000D+00 -.530162108241D-07 0.209697933630D-05 0.000000000000D+00  7 -2 1 -24 -11 11 23 21 2 0.20971124D-01 0.14346561D+00 0.61041048D+05 0.61041048D+05 0.61041048D+05 0.11397506D+01  1  2  3  2  7  2        1 -.294411523438D-04 0.100000000000D+01
0.850817378268D-06 0.000000000000D+00 0.000000000000D+00 0.209697933630D-05 0.000000000000D+00  7 -2 1 -24 -11 11 23 21 2 0.20971124D-01 0.14346561D+00 0.61041048D+05 0.61041048D+05 0.61041048D+05 0.11397506D+01  1  2 15  2  7  2        1 0.390463663172D-04 0.100000000000D+01
-.271520606251D-03 0.000000000000D+00 0.000000000000D+00 0.209697933630D-05 0.000000000000D+00  7 -2 1 -24 -11 11 23 21 2 0.20971124D-01 0.14346561D+00 0.61041048D+05 0.61041048D+05 0.61041048D+05 0.11397506D+01  1  2  4  2  7  2        1 -.124608327535D-01 0.100000000000D+01
0.271522323640D-03 0.000000000000D+00 0.000000000000D+00 0.209697933630D-05 0.314733829925D-05  7 -2 1 -24 -11 11 23 21 2 0.21041439D-01 0.14385503D+00 0.61559140D+05 0.61559140D+05 0.61559140D+05 0.11394344D+01  1  2 11  2  7  2        1 0.123279124985D-01 0.100000000000D+01
0.628310476216D-09 0.000000000000D+00 0.000000000000D+00 0.209697933630D-05 0.000000000000D+00  7 -2 21 -24 -11 11 23 -1 2 0.20971124D-01 0.14409482D+00 0.61559140D+05 0.61559140D+05 0.61559140D+05 0.11394344D+01  1  2 12  4  7  2        1 0.438738163943D-07 0.100000000000D+01
0.326671028878D-06 0.000000000000D+00 0.000000000000D+00 0.209697933630D-05 0.159618715546D-08  7 -2 21 -24 -11 11 23 -1 2 0.21041439D-01 0.14385503D+00 0.61559140D+05 0.61559140D+05 0.61559140D+05 0.11394344D+01  1  2 11  4  7  2        1 0.227942126752D-04 0.100000000000D+01
  </mgrwgt>
  </event>
  <event>
  8     66 0.26562228E-05 0.29230514E+03 0.75467711E-02 0.10023373E+00
       -2 -1    0    0    0  501 0.00000000E+00 0.00000000E+00 0.72582225E+02 0.72582931E+02 0.32000000E+00 0.0000E+00 0.9000E+01
        1 -1    0    0  501    0 0.00000000E+00 0.00000000E+00 -.13826562E+04 0.13826562E+04 0.32000000E+00 0.0000E+00 0.9000E+01
       25  2    1    2    0    0 0.14621159E+03 0.18658201E+03 -.81612613E+03 0.90148618E+03 0.30070718E+03 0.0000E+00 0.0000E+00
       23  2    3    3    0    0 -.27675264E+02 0.12484045E+03 -.49845091E+03 0.52296082E+03 0.93186096E+02 0.0000E+00 0.0000E+00
      -24  1    1    2    0    0 -.14621159E+03 -.18658201E+03 -.49394785E+03 0.55375299E+03 0.80419002E+02 0.0000E+00 0.9000E+01
      -11  1    4    4    0    0 -.14822859E+02 0.39938049E+02 -.47071511E+02 0.63486156E+02 0.51099893E-03 0.0000E+00 0.9000E+01
       11  1    4    4    0    0 -.12852405E+02 0.84902403E+02 -.45137940E+03 0.45947466E+03 0.51099893E-03 0.0000E+00 0.9000E+01
       23  1    3    3    0    0 0.17388685E+03 0.61741560E+02 -.31767521E+03 0.37852536E+03 0.91188000E+02 0.0000E+00 0.9000E+01
#aMCatNLO 1  0  0  2  1 0.40271181D+02 0.00000000D+00  -5  7  0 0.00000000D+00 0.00000000D+00 0.00000000D+00 0.00000000D+00 0.00000000D+00
  <mgrwgt>
 0.8275164370D-03    4    2    0
 0.316791420967736D+03 0.000000000000000D+00 0.000000000000000D+00 0.316791420967736D+03
 0.316791420967736D+03 0.000000000000000D+00 0.000000000000000D+00 -.316791420967736D+03
 0.250535213687422D+03 -.146211587623076D+03 -.186582012756074D+03 0.104881601657985D+02
 0.484867616757351D+02 -.148228589891205D+02 0.399380493031200D+02 0.231560170808742D+02
 0.122012648620511D+03 -.128524048053528D+02 0.849024030285383D+02 -.866803557566026D+02
 0.212548217951805D+03 0.173886851417549D+03 0.617415604244158D+02 0.530361785099300D+02
 0.000000000000000D+00 -.000000000000000D+00 -.000000000000000D+00 0.000000000000000D+00
 0.397117774951596D+03 0.000000000000000D+00 0.000000000000000D+00 0.397117774951596D+03
 0.322518621883028D+03 0.000000000000000D+00 0.000000000000000D+00 -.322518621883028D+03
 0.237641446270195D+03 -.132131317471374D+03 -.180104287763048D+03 0.104881601657985D+02
 0.487896480422329D+02 -.120171572000683D+02 0.412288316820168D+02 0.231560170808742D+02
 0.123772176459965D+03 -.576333844846815D+01 0.881637766969735D+02 -.866803557566026D+02
 0.224658120080511D+03 0.186497006421817D+03 0.675429488464420D+02 0.530361785099300D+02
 0.847750059817212D+02 -.365851933019063D+02 -.168312694623847D+02 0.745991530685679D+02
0.204010990877D-04 0.000000000000D+00 0.000000000000D+00 0.356298666511D-06 0.000000000000D+00  7 -2 1 -24 -11 11 23 21 0 0.11166553D-01 0.21271640D+00 0.85442292D+05 0.85442292D+05 0.85442292D+05 0.11273726D+01  1  2  2  2  7  2        1 0.940598611365D-03 0.100000000000D+01
-.112447645851D-05 0.000000000000D+00 -.783455922294D-07 0.356298666511D-06 0.000000000000D+00  7 -2 1 -24 -11 11 23 21 2 0.11166553D-01 0.21271640D+00 0.85442292D+05 0.85442292D+05 0.85442292D+05 0.11273726D+01  1  2  3  2  7  2        1 -.658925120261D-04 0.100000000000D+01
0.132265560285D-05 0.000000000000D+00 0.000000000000D+00 0.356298666511D-06 0.000000000000D+00  7 -2 1 -24 -11 11 23 21 2 0.11166553D-01 0.21271640D+00 0.85442292D+05 0.85442292D+05 0.85442292D+05 0.11273726D+01  1  2 15  2  7  2        1 0.775054911626D-04 0.100000000000D+01
-.212796204376D-05 0.000000000000D+00 0.000000000000D+00 0.356298666511D-06 0.000000000000D+00  7 -2 1 -24 -11 11 23 21 2 0.11166553D-01 0.21271640D+00 0.85442292D+05 0.85442292D+05 0.85442292D+05 0.11273726D+01  1  2  4  2  7  2        1 -.124695153464D-03 0.100000000000D+01
  </mgrwgt>
  </event>
  <event>
  9     66 0.26562228E-05 0.23848659E+03 0.75467711E-02 0.97444044E-01
       -2 -1    0    0    0  501 0.00000000E+00 0.00000000E+00 0.11154054E+03 0.11154100E+03 0.32000000E+00 0.0000E+00 0.9000E+01
        1 -1    0    0  502    0 0.00000000E+00 0.00000000E+00 -.17695747E+04 0.17695748E+04 0.32000000E+00 0.0000E+00 0.9000E+01
       25  2    1    2    0    0 0.12318712E+03 0.29252651E+03 -.13085604E+04 0.13807036E+04 0.30539376E+03 0.0000E+00 0.0000E+00
       23  2    3    3    0    0 -.26827478E+02 0.14305211E+02 -.18148707E+03 0.20659927E+03 0.93922053E+02 0.0000E+00 0.0000E+00
      -24  1    1    2    0    0 -.60178080E+01 -.70504952E+02 -.10410506E+03 0.14937283E+03 0.80419002E+02 0.0000E+00 0.9000E+01
      -13  1    4    4    0    0 0.31852988E+02 0.22905157E+02 -.66230398E+02 0.76978801E+02 0.10565837E+00 0.0000E+00 0.9000E+01
       13  1    4    4    0    0 -.58680466E+02 -.85999458E+01 -.11525667E+03 0.12962047E+03 0.10565837E+00 0.0000E+00 0.9000E+01
       23  1    3    3    0    0 0.15001460E+03 0.27822130E+03 -.11270733E+04 0.11741044E+04 0.91188000E+02 0.0000E+00 0.9000E+01
       21  1    1    2  502  501 -.11716931E+03 -.22202156E+03 -.24536873E+03 0.35103931E+03 0.75000000E+00 0.0000E+00 0.9000E+01
#aMCatNLO 2  0  0  2  1 0.25104227D+03 0.00000000D+00  -5  7  0 0.00000000D+00 0.00000000D+00 0.00000000D+00 0.00000000D+00 0.00000000D+00
  <mgrwgt>
 0.4320775841D-04    1    2    0
 0.265748012462654D+03 0.000000000000000D+00 0.000000000000000D+00 0.265748012462654D+03
 0.265748012462654D+03 0.000000000000000D+00 0.000000000000000D+00 -.265748012462654D+03
 0.184093613659246D+03 -.398007918477129D+02 -.134519643450367D+03 0.879977563920252D+02
 0.289830844183295D+02 0.245054492464429D+02 0.898230189655720D+01 0.126023962907508D+02
 0.833402520874489D+02 -.737286452674224D+02 -.371142813203794D+02 0.114984610753727D+02
 0.235079074760284D+03 0.890239878686924D+02 0.162651622874189D+03 -.112098613758149D+03
 0.000000000000000D+00 -.000000000000000D+00 -.000000000000000D+00 0.000000000000000D+00
 0.558412231692145D+03 0.000000000000000D+00 0.000000000000000D+00 0.558412231692145D+03
 0.353465292546789D+03 0.000000000000000D+00 0.000000000000000D+00 -.353465292546789D+03
 0.138628983851398D+03 -.601782144834143D+01 -.705050346024047D+02 0.879977563920252D+02
 0.412079148383151D+02 0.318531232812967D+02 0.229052480946881D+02 0.126023962907508D+02
 0.604117303083771D+02 -.586805234327902D+02 -.859992566270184D+01 0.114984610753727D+02
 0.347552565440381D+03 0.150014533949021D+03 0.278221269492017D+03 -.112098613758149D+03
 0.324076329800464D+03 -.117169312349186D+03 -.222021557321598D+03 0.204946939145356D+03
0.277160759698D-05 0.000000000000D+00 0.000000000000D+00 0.511580443473D-08 0.810684101142D-12  7 -2 1 -24 -13 13 23 21 2 0.17160102D-01 0.27224200D+00 0.15432327D+06 0.15432327D+06 0.15432327D+06 0.11065794D+01  1  2  1  2  7  2        1 0.432077584134D-04 0.100000000000D+01
  </mgrwgt>
  </event>
  <event>
  9     66 0.26562228E-05 0.23368061E+03 0.75467711E-02 0.10126200E+00
       -2 -1    0    0    0  501 0.00000000E+00 0.00000000E+00 0.23056733E+03 0.23056755E+03 0.32000000E+00 0.0000E+00 0.9000E+01
        1 -1    0    0  502    0 0.00000000E+00 0.00000000E+00 -.33095857E+04 0.33095857E+04 0.32000000E+00 0.0000E+00 0.9000E+01
       25  2    1    2    0    0 0.20643958E+03 -.23748697E+02 -.22775302E+04 0.23065278E+04 0.29957529E+03 0.0000E+00 0.0000E+00
       23  2    3    3    0    0 0.40899806E+02 -.66312550E+02 -.15107682E+04 0.15156711E+04 0.93638543E+02 0.0000E+00 0.0000E+00
      -24  1    1    2    0    0 -.93470449E+02 0.76528575E+02 0.18733550E+03 0.23697079E+03 0.80419002E+02 0.0000E+00 0.9000E+01
      -13  1    4    4    0    0 0.40851871E+02 -.86386288E+02 -.10126884E+04 0.10171870E+04 0.10565837E+00 0.0000E+00 0.9000E+01
       13  1    4    4    0    0 0.47934831E-01 0.20073738E+02 -.49807976E+03 0.49848412E+03 0.10565837E+00 0.0000E+00 0.9000E+01
       23  1    3    3    0    0 0.16553978E+03 0.42563853E+02 -.76676205E+03 0.79085675E+03 0.91188000E+02 0.0000E+00 0.9000E+01
       21  1    1    2  502  501 -.11296913E+03 -.52779878E+02 -.98882359E+03 0.99665460E+03 0.75000000E+00 0.0000E+00 0.9000E+01
#aMCatNLO 2  0  0  2  1 0.12469058D+03 0.00000000D+00  -5  7  0 0.00000000D+00 0.00000000D+00 0.00000000D+00 0.00000000D+00 0.00000000D+00
  <mgrwgt>
 0.2594648006D-03    2    2    0
 0.721963201072856D+03 0.000000000000000D+00 0.000000000000000D+00 0.721963201072856D+03
 0.721963201072856D+03 0.000000000000000D+00 0.000000000000000D+00 -.721963201072856D+03
 0.693125810880560D+03 -.147322118736928D+03 0.513687417631213D+02 0.670532340349815D+03
 0.325807740516052D+03 0.154545715719918D+02 -.982522232112146D+02 -.310255283003779D+03
 0.156340902432927D+03 -.121671683651841D+02 0.143669261659775D+02 -.155203186887566D+03
 0.268651948316172D+03 0.144034715530120D+03 0.325165552821158D+02 -.205073870458470D+03
 0.000000000000000D+00 -.000000000000000D+00 -.000000000000000D+00 -.000000000000000D+00
 0.737168323346537D+03 0.000000000000000D+00 0.000000000000000D+00 0.737168323346537D+03
 0.103515280502600D+04 0.000000000000000D+00 0.000000000000000D+00 -.103515280502600D+04
 0.686056982365192D+03 -.934704490273335D+02 0.765285750637711D+02 0.670532340349815D+03
 0.324638005176537D+03 0.408519225486631D+02 -.863864236863895D+02 -.310255283003779D+03
 0.156495980516103D+03 0.478828782433620D-01 0.200738736886980D+02 -.155203186887566D+03
 0.282109275370612D+03 0.165539777550966D+03 0.425638533228711D+02 -.205073870458470D+03
 0.323020884944095D+03 -.112969133950539D+03 -.527798783889507D+02 -.297984481679464D+03
-.719683766029D-03 0.000000000000D+00 0.000000000000D+00 0.548552471613D-05 0.000000000000D+00  7 -2 1 -24 -13 13 23 21 2 0.34740237D-01 0.51165531D+00 0.83860474D+05 0.83860474D+05 0.83860474D+05 0.11280496D+01  1  2 13  2  7  2        1 -.296606634685D-03 0.100000000000D+01
0.136089425587D-02 0.000000000000D+00 0.000000000000D+00 0.548552471613D-05 0.253234169365D-08  7 -2 1 -24 -13 13 23 21 2 0.35471894D-01 0.50916675D+00 0.83860474D+05 0.83860474D+05 0.83860474D+05 0.11280496D+01  1  2  1  2  7  2        1 0.556071435246D-03 0.100000000000D+01
  </mgrwgt>
  </event>
  <event>
  8     66 0.26562228E-05 0.20531635E+03 0.75467711E-02 0.99387705E-01
       -2 -1    0    0    0  501 0.00000000E+00 0.00000000E+00 0.21832417E+03 0.21832441E+03 0.32000000E+00 0.0000E+00 0.9000E+01
        1 -1    0    0  501    0 0.00000000E+00 0.00000000E+00 -.23902260E+03 0.23902281E+03 0.32000000E+00 0.0000E+00 0.9000E+01
       25  2    1    2    0    0 -.10719799E+03 -.19880289E+02 0.85426286E+01 0.31875108E+03 0.29940381E+03 0.0000E+00 0.0000E+00
       23  2    3    3    0    0 -.75030986E+02 0.95547676E+02 -.44903628E+02 0.15896972E+03 0.92173902E+02 0.0000E+00 0.0000E+00
      -24  1    1    2    0    0 0.10719799E+03 0.19880289E+02 -.29241052E+02 0.13859614E+03 0.80419002E+02 0.0000E+00 0.9000E+01
      -13  1    4    4    0    0 -.56623052E+02 0.50330874E+02 -.70812479E+02 0.10370046E+03 0.10565837E+00 0.0000E+00 0.9000E+01
       13  1    4    4    0    0 -.18407934E+02 0.45216802E+02 0.25908852E+02 0.55269259E+02 0.10565837E+00 0.0000E+00 0.9000E+01
       23  1    3    3    0    0 -.32167001E+02 -.11542796E+03 0.53446256E+02 0.15978137E+03 0.91188000E+02 0.0000E+00 0.9000E+01
#aMCatNLO 1  0  0  1  2 0.20767905D+03 0.00000000D+00  -5  7  0 0.00000000D+00 0.00000000D+00 0.00000000D+00 0.00000000D+00 0.00000000D+00
  <mgrwgt>
 0.9308724168D-03    3    2    0
 0.228439300412656D+03 0.000000000000000D+00 0.000000000000000D+00 0.228439300412656D+03
 0.228439300412656D+03 0.000000000000000D+00 0.000000000000000D+00 -.228439300412656D+03
 0.137413562470637D+03 0.107197990733834D+03 0.198802893364868D+02 -.229920872264197D+02
 0.100598792752655D+03 -.566231019409331D+02 0.503308810866809D+02 -.661871878758773D+02
 0.564996632852517D+02 -.184078853147446D+02 0.452167946277621D+02 0.284394654165090D+02
 0.162366582316769D+03 -.321670034781568D+02 -.115427965050930D+03 0.607398096857880D+02
 0.000000000000000D+00 0.000000000000000D+00 -.000000000000000D+00 -.000000000000000D+00
 0.276721378622371D+03 0.000000000000000D+00 0.000000000000000D+00 0.276721378622371D+03
 0.669046175847178D+03 0.000000000000000D+00 0.000000000000000D+00 -.669046175847178D+03
 0.151122793852328D+03 0.960229556613936D+02 0.813746814333882D+02 -.229920872264197D+02
 0.137616004256505D+03 -.658491791856739D+02 0.101100476701066D+03 -.661871878758773D+02
 0.837815571787656D+02 -.238409876754589D+02 0.751142691955435D+02 0.284394654165090D+02
 0.129344808079287D+03 -.434650078622475D+02 -.532568929241706D+02 0.607398096857880D+02
 0.443902391102663D+03 0.371322190619868D+02 -.204332534405827D+03 -.392324797224807D+03
0.870270004102D-05 0.000000000000D+00 0.000000000000D+00 0.326664713481D-06 0.000000000000D+00  7 -2 1 -24 -13 13 23 21 0 0.33588369D-01 0.36772742D-01 0.42154804D+05 0.42154804D+05 0.42154804D+05 0.11538728D+01  1  2  2  1  7  1       -2 0.918481260132D-03 0.100000000000D+01
-.476788452761D-06 0.000000000000D+00 -.334206596311D-07 0.326664713481D-06 0.000000000000D+00  7 -2 1 -24 -13 13 23 21 2 0.33588369D-01 0.36772742D-01 0.42154804D+05 0.42154804D+05 0.42154804D+05 0.11538728D+01  1  2  3  1  7  1       -2 -.669973950706D-04 0.100000000000D+01
0.564970395141D-06 0.000000000000D+00 0.000000000000D+00 0.326664713481D-06 0.000000000000D+00  7 -2 1 -24 -13 13 23 21 2 0.33588369D-01 0.36772742D-01 0.42154804D+05 0.42154804D+05 0.42154804D+05 0.11538728D+01  1  2 15  1  7  1       -2 0.793885517724D-04 0.100000000000D+01
  </mgrwgt>
  </event>
  <event>
  8     66 0.26562228E-05 0.42497973E+02 0.75467711E-02 0.10843532E+00
       -2 -1    0    0    0  501 0.00000000E+00 0.00000000E+00 0.27517399E+03 0.27517418E+03 0.32000000E+00 0.0000E+00 0.9000E+01
        1 -1    0    0  501    0 0.00000000E+00 0.00000000E+00 -.52956853E+03 0.52956863E+03 0.32000000E+00 0.0000E+00 0.9000E+01
       25  2    1    2    0    0 -.56397441E+02 -.76862762E+02 -.46406647E+03 0.56077951E+03 0.30004568E+03 0.0000E+00 0.0000E+00
       23  2    3    3    0    0 0.46257097E+02 -.13577877E+02 -.36709939E+03 0.38116660E+03 0.90564551E+02 0.0000E+00 0.0000E+00
      -24  1    1    2    0    0 0.56397441E+02 0.76862762E+02 0.20967194E+03 0.24396330E+03 0.80419002E+02 0.0000E+00 0.9000E+01
      -11  1    4    4    0    0 0.27865143E+02 -.11077873E+02 -.26369822E+02 0.39931854E+02 0.51099893E-03 0.0000E+00 0.9000E+01
       11  1    4    4    0    0 0.18391954E+02 -.25000044E+01 -.34072956E+03 0.34123474E+03 0.51099893E-03 0.0000E+00 0.9000E+01
       23  1    3    3    0    0 -.10265454E+03 -.63284885E+02 -.96967086E+02 0.17961291E+03 0.91188000E+02 0.0000E+00 0.9000E+01
#aMCatNLO 1  0  0  2  1 0.16406619D+02 0.00000000D+00  -5  7  0 0.00000000D+00 0.00000000D+00 0.00000000D+00 0.00000000D+00 0.00000000D+00
  <mgrwgt>
 0.1061884876D-02    6    2    0
 0.381737608993938D+03 0.000000000000000D+00 0.000000000000000D+00 0.381737608993938D+03
 0.381737608993938D+03 0.000000000000000D+00 0.000000000000000D+00 -.381737608993938D+03
 0.327014028279813D+03 0.563974411896849D+02 0.768627618882254D+02 0.302295225234521D+03
 0.333036793823181D+02 0.278651432970633D+02 -.110778728205431D+02 -.144896370971200D+02
 0.246146124614224D+03 0.183919536231519D+02 -.250000442927277D+01 -.245445310980631D+03
 0.157011385711521D+03 -.102654538109900D+03 -.632848846384095D+02 -.423602771567699D+02
 0.000000000000000D+00 -.000000000000000D+00 -.000000000000000D+00 0.000000000000000D+00
 0.390765529074740D+03 0.000000000000000D+00 0.000000000000000D+00 0.390765529074740D+03
 0.389353244740806D+03 0.000000000000000D+00 0.000000000000000D+00 -.389353244740806D+03
 0.329114585699730D+03 0.596591519864702D+02 0.831118339985341D+02 0.302295225234521D+03
 0.333774043935766D+02 0.281966246655927D+02 -.104427916915831D+02 -.144896370971200D+02
 0.246338205354891D+03 0.208401648763773D+02 0.219049378342982D+01 -.245445310980631D+03
 0.154821286342564D+03 -.101104372530228D+03 -.603149412271669D+02 -.423602771567699D+02
 0.164672920247842D+02 -.759156899821240D+01 -.145445948632138D+02 0.141228433393416D+01
0.263877958503D-04 0.000000000000D+00 0.000000000000D+00 0.895989051863D-05 0.000000000000D+00  7 -2 1 -24 -11 11 23 21 0 0.42334482D-01 0.81472104D-01 0.26318494D+05 0.26318494D+05 0.26318494D+05 0.11726485D+01  1  2  2  2  7  2        1 0.646843097614D-03 0.100000000000D+01
-.160793736581D-06 0.000000000000D+00 -.101336084131D-06 0.895989051863D-05 0.000000000000D+00  7 -2 1 -24 -11 11 23 21 2 0.42334482D-01 0.81472104D-01 0.26318494D+05 0.26318494D+05 0.26318494D+05 0.11726485D+01  1  2  3  2  7  2        1 -.542001760617D-05 0.100000000000D+01
0.158689290739D-05 0.000000000000D+00 0.000000000000D+00 0.895989051863D-05 0.000000000000D+00  7 -2 1 -24 -11 11 23 21 2 0.42334482D-01 0.81472104D-01 0.26318494D+05 0.26318494D+05 0.26318494D+05 0.11726485D+01  1  2 15  2  7  2        1 0.534908117694D-04 0.100000000000D+01
0.382673407666D-04 0.000000000000D+00 0.000000000000D+00 0.895989051863D-05 0.000000000000D+00  7 -2 1 -24 -11 11 23 21 2 0.42334482D-01 0.84040165D-01 0.30011080D+05 0.30011080D+05 0.30011080D+05 0.11673210D+01  1  2 12  2  7  2        1 0.122222830102D-02 0.100000000000D+01
-.270435345671D-04 0.000000000000D+00 0.000000000000D+00 0.895989051863D-05 0.000000000000D+00  7 -2 1 -24 -11 11 23 21 2 0.42334482D-01 0.81472104D-01 0.26318494D+05 0.26318494D+05 0.26318494D+05 0.11726485D+01  1  2  4  2  7  2        1 -.911580491899D-03 0.100000000000D+01
0.611258338213D-06 0.000000000000D+00 0.000000000000D+00 0.895989051863D-05 0.000000000000D+00  7 -2 21 -24 -11 11 23 -1 2 0.42334482D-01 0.84040165D-01 0.30011080D+05 0.30011080D+05 0.30011080D+05 0.11673210D+01  1  2 12  4  7  2        1 0.563231753006D-04 0.100000000000D+01
  </mgrwgt>
  </event>
  <event>
  8     66 0.26562228E-05 0.99942587E+02 0.75467711E-02 0.10139076E+00
       -2 -1    0    0    0  501 0.00000000E+00 0.00000000E+00 0.21349450E+03 0.21349474E+03 0.32000000E+00 0.0000E+00 0.9000E+01
        1 -1    0    0  501    0 0.00000000E+00 0.00000000E+00 -.37206094E+03 0.37206108E+03 0.32000000E+00 0.0000E+00 0.9000E+01
       25  2    1    2    0    0 0.74056405E+02 -.17731737E+03 -.99031226E+02 0.36890527E+03 0.29892828E+03 0.0000E+00 0.0000E+00
       23  2    3    3    0    0 -.80413743E+02 -.97640974E+02 -.70821296E+02 0.17061154E+03 0.89958382E+02 0.0000E+00 0.0000E+00
      -24  1    1    2    0    0 -.74056405E+02 0.17731737E+03 -.59535217E+02 0.21665054E+03 0.80419002E+02 0.0000E+00 0.9000E+01
      -11  1    4    4    0    0 -.95669580E+02 -.55997053E+02 -.51647900E+02 0.12229409E+03 0.51099893E-03 0.0000E+00 0.9000E+01
       11  1    4    4    0    0 0.15255837E+02 -.41643921E+02 -.19173395E+02 0.48317448E+02 0.51099893E-03 0.0000E+00 0.9000E+01
       23  1    3    3    0    0 0.15447015E+03 -.79676392E+02 -.28209930E+02 0.19829374E+03 0.91188000E+02 0.0000E+00 0.9000E+01
#aMCatNLO 1  0  0  2  1 0.13513794D+02 0.00000000D+00  -5  7  0 0.00000000D+00 0.00000000D+00 0.00000000D+00 0.00000000D+00 0.00000000D+00
  <mgrwgt>
 0.1268265725D-02    9    2    0
 0.281838737238504D+03 0.000000000000000D+00 0.000000000000000D+00 0.281838737238504D+03
 0.281838737238504D+03 0.000000000000000D+00 0.000000000000000D+00 -.281838737238504D+03
 0.208311849658932D+03 -.740564051336250D+02 0.177317366346651D+03 -.900668933043439D+00
 0.112511841580901D+03 -.956695796723329D+02 -.559970533050675D+02 -.192503517472910D+02
 0.447992097087745D+02 0.152558365718013D+02 -.416439205617714D+02 -.632554513620073D+01
 0.198054573528401D+03 0.154470148234157D+03 -.796763924798117D+02 0.264765658165352D+02
 0.000000000000000D+00 0.000000000000000D+00 0.000000000000000D+00 -.000000000000000D+00
 0.288583305003569D+03 0.000000000000000D+00 0.000000000000000D+00 0.288583305003569D+03
 0.288771238891516D+03 0.000000000000000D+00 0.000000000000000D+00 -.288771238891516D+03
 0.208352098258991D+03 -.786563202991764D+02 0.175373182006315D+03 -.900668933043439D+00
 0.115179481458227D+03 -.981832619218912D+02 -.570594776086221D+02 -.192503517472910D+02
 0.448638721720789D+02 0.142659679445904D+02 -.420622950349412D+02 -.632554513620073D+01
 0.195443991442637D+03 0.150125975848526D+03 -.815124854554199D+02 0.264765658165352D+02
 0.135151005631514D+02 0.124476384279513D+02 0.526107609266820D+01 -.187933887947523D+00
0.842301046536D-05 0.000000000000D+00 0.000000000000D+00 0.301548228391D-06 0.000000000000D+00  7 -2 1 -24 -11 11 23 21 0 0.32845336D-01 0.57240174D-01 0.78341190D+05 0.78341190D+05 0.78341190D+05 0.11305266D+01  1  2  2  2  7  2        1 0.519789389011D-03 0.100000000000D+01
-.467917775597D-06 0.000000000000D+00 -.323465780166D-07 0.301548228391D-06 0.000000000000D+00  7 -2 1 -24 -11 11 23 21 2 0.32845336D-01 0.57240174D-01 0.78341190D+05 0.78341190D+05 0.78341190D+05 0.11305266D+01  1  2  3  2  7  2        1 -.369055072885D-04 0.100000000000D+01
0.536870272070D-06 0.000000000000D+00 0.000000000000D+00 0.301548228391D-06 0.000000000000D+00  7 -2 1 -24 -11 11 23 21 2 0.32845336D-01 0.57240174D-01 0.78341190D+05 0.78341190D+05 0.78341190D+05 0.11305266D+01  1  2 15  2  7  2        1 0.423439133372D-04 0.100000000000D+01
0.147366422363D-04 0.000000000000D+00 0.000000000000D+00 0.301548228391D-06 0.000000000000D+00  7 -2 1 -24 -11 11 23 21 2 0.32845336D-01 0.59316592D-01 0.82220217D+05 0.82220217D+05 0.82220217D+05 0.11287665D+01  1  2 12  2  7  2        1 0.110489070129D-02 0.100000000000D+01
-.113446570955D-04 0.000000000000D+00 0.000000000000D+00 0.301548228391D-06 0.000000000000D+00  7 -2 1 -24 -11 11 23 21 2 0.32845336D-01 0.57240174D-01 0.78341190D+05 0.78341190D+05 0.78341190D+05 0.11305266D+01  1  2  4  2  7  2        1 -.894773284878D-03 0.100000000000D+01
-.165527322075D-03 0.000000000000D+00 -.254868652899D-04 0.301548228391D-06 0.000000000000D+00  7 -2 1 -24 -11 11 23 21 2 0.32845336D-01 0.59892600D-01 0.78341190D+05 0.78341190D+05 0.78341190D+05 0.11305266D+01  1  2  5  2  7  2        1 -.122937436813D-01 0.100000000000D+01
0.166537043798D-03 0.000000000000D+00 0.254607404543D-04 0.301548228391D-06 0.000000000000D+00  7 -2 1 -24 -11 11 23 21 2 0.32845336D-01 0.57240174D-01 0.78341190D+05 0.78341190D+05 0.78341190D+05 0.11305266D+01  1  2  6  2  7  2        1 0.131350728786D-01 0.100000000000D+01
0.213931883187D-06 0.000000000000D+00 0.000000000000D+00 0.301548228391D-06 0.000000000000D+00  7 -2 21 -24 -11 11 23 -1 2 0.32845336D-01 0.59316592D-01 0.82220217D+05 0.82220217D+05 0.82220217D+05 0.11287665D+01  1  2 12  4  7  2        1 0.621563359694D-04 0.100000000000D+01
-.129657034883D-05 0.000000000000D+00 -.202489158836D-06 0.301548228391D-06 0.000000000000D+00  7 -2 21 -24 -11 11 23 -1 2 0.32845336D-01 0.59892600D-01 0.78341190D+05 0.78341190D+05 0.78341190D+05 0.11305266D+01  1  2  5  4  7  2        1 -.370565019739D-03 0.100000000000D+01
  </mgrwgt>
  </event>
  <event>
  8     66 0.26562228E-05 0.22065169E+03 0.75467711E-02 0.94861919E-01
       -2 -1    0    0    0  501 0.00000000E+00 0.00000000E+00 0.45294266E+02 0.45295396E+02 0.32000000E+00 0.0000E+00 0.9000E+01
        1 -1    0    0  501    0 0.00000000E+00 0.00000000E+00 -.19017721E+04 0.19017721E+04 0.32000000E+00 0.0000E+00 0.9000E+01
       25  2    1    2    0    0 0.98600907E+01 -.12050355E+03 -.59575129E+03 0.67800608E+03 0.30025708E+03 0.0000E+00 0.0000E+00
       23  2    3    3    0    0 -.83661199E+02 -.13962830E+03 -.37344226E+03 0.41945522E+03 0.99941487E+02 0.0000E+00 0.0000E+00
      -24  1    1    2    0    0 -.98600907E+01 0.12050355E+03 -.12607265E+04 0.12690614E+04 0.80419002E+02 0.0000E+00 0.9000E+01
      -11  1    4    4    0    0 -.78529811E+02 -.11721744E+03 -.37027730E+03 0.39624758E+03 0.51099893E-03 0.0000E+00 0.9000E+01
       11  1    4    4    0    0 -.51313878E+01 -.22410861E+02 -.31649575E+01 0.23207645E+02 0.51099893E-03 0.0000E+00 0.9000E+01
       23  1    3    3    0    0 0.93521290E+02 0.19124758E+02 -.22230903E+03 0.25855086E+03 0.91188000E+02 0.0000E+00 0.9000E+01
#aMCatNLO 1  0  0  1  1 0.38796536D+03 0.00000000D+00  -5  7  0 0.00000000D+00 0.00000000D+00 0.00000000D+00 0.00000000D+00 0.00000000D+00
  <mgrwgt>
 0.7377408561D-03    5    2    0
 0.293497011255902D+03 0.000000000000000D+00 0.000000000000000D+00 0.293497011255902D+03
 0.293497011255902D+03 0.000000000000000D+00 0.000000000000000D+00 -.293497011255902D+03
 0.222212558556160D+03 -.986009074555736D+01 0.120503545485913D+03 -.168204873180054D+03
 0.143287965284855D+03 -.785298109670348D+02 -.117217443021601D+03 0.249916153226095D+02
 0.669703192185092D+02 -.513138797259471D+01 -.224108608212118D+02 0.629002848241247D+02
 0.154523179452279D+03 0.935212896851869D+02 0.191247583569005D+02 0.803129730333202D+02
 0.000000000000000D+00 -.000000000000000D+00 -.000000000000000D+00 0.000000000000000D+00
 0.193375276209504D+04 0.000000000000000D+00 0.000000000000000D+00 0.193375276209504D+04
 0.375596031089159D+03 0.000000000000000D+00 0.000000000000000D+00 -.375596031089159D+03
 0.342125939239942D+03 0.307849227917124D+02 0.285205805539845D+03 -.168204873180054D+03
 0.841043164898999D+02 -.621524728851928D+02 -.508529775928149D+02 0.249916153226095D+02
 0.650827512374037D+02 0.437939120918964D+01 0.161288440475639D+02 0.629002848241247D+02
 0.212305572057807D+03 0.119941177091795D+03 0.126183774643085D+03 0.803129730333202D+02
 0.160573021415915D+04 -.929530182075039D+02 -.376665446637679D+03 0.155815673100589D+04
0.233352609162D-04 0.000000000000D+00 0.000000000000D+00 0.786090311359D-07 0.000000000000D+00  7 -2 1 -24 -11 11 23 21 0 0.69684376D-02 0.29258041D+00 0.48687168D+05 0.48687168D+05 0.48687168D+05 0.11483132D+01  1  2  2  1  7  1       -2 0.101890680478D-02 0.100000000000D+01
-.116811994376D-05 0.000000000000D+00 -.896135462336D-07 0.786090311359D-07 0.000000000000D+00  7 -2 1 -24 -11 11 23 21 2 0.69684376D-02 0.29258041D+00 0.48687168D+05 0.48687168D+05 0.48687168D+05 0.11483132D+01  1  2  3  1  7  1       -2 -.672558318739D-04 0.100000000000D+01
0.145295523385D-05 0.000000000000D+00 0.000000000000D+00 0.786090311359D-07 0.000000000000D+00  7 -2 1 -24 -11 11 23 21 2 0.69684376D-02 0.29258041D+00 0.48687168D+05 0.48687168D+05 0.48687168D+05 0.11483132D+01  1  2 15  1  7  1       -2 0.836555470612D-04 0.100000000000D+01
-.441886221089D-04 0.000000000000D+00 -.145055426405D-04 0.786090311359D-07 0.000000000000D+00  7 -2 1 -24 -11 11 23 21 2 0.58876674D-01 0.29258041D+00 0.48687168D+05 0.48687168D+05 0.48687168D+05 0.11483132D+01  1  2  5  1  7  1       -2 -.705694449581D-04 0.100000000000D+01
-.132826198290D-04 0.000000000000D+00 -.374248311865D-05 0.786090311359D-07 0.000000000000D+00  7 21 1 -24 -11 11 23 2 2 0.58876674D-01 0.29258041D+00 0.48687168D+05 0.48687168D+05 0.48687168D+05 0.11483132D+01  1  2  5  3  7  1       -2 -.226996218945D-03 0.100000000000D+01
  </mgrwgt>
  </event>
  <event>
  8     66 0.26562228E-05 0.26431757E+03 0.75467711E-02 0.93295953E-01
       -2 -1    0    0    0  501 0.00000000E+00 0.00000000E+00 0.17093116E+03 0.17093146E+03 0.32000000E+00 0.0000E+00 0.9000E+01
        1 -1    0    0  501    0 0.00000000E+00 0.00000000E+00 -.17694889E+04 0.17694889E+04 0.32000000E+00 0.0000E+00 0.9000E+01
       25  2    1    2    0    0 0.43557138E+03 0.24093511E+03 -.10101668E+04 0.11655377E+04 0.30044781E+03 0.0000E+00 0.0000E+00
       23  2    3    3    0    0 0.33430526E+03 0.27027513E+03 -.72512643E+03 0.84823822E+03 0.94292518E+02 0.0000E+00 0.0000E+00
      -24  1    1    2    0    0 -.43557138E+03 -.24093511E+03 -.58839095E+03 0.77488275E+03 0.80419002E+02 0.0000E+00 0.9000E+01
      -11  1    4    4    0    0 0.23932880E+03 0.22914614E+03 -.60401441E+03 0.68892644E+03 0.51099893E-03 0.0000E+00 0.9000E+01
       11  1    4    4    0    0 0.94976457E+02 0.41128989E+02 -.12111202E+03 0.15931178E+03 0.51099893E-03 0.0000E+00 0.9000E+01
       23  1    3    3    0    0 0.10126613E+03 -.29340022E+02 -.28504038E+03 0.31729944E+03 0.91188000E+02 0.0000E+00 0.9000E+01
#aMCatNLO 1  0  0  1  2 0.46986998D+02 0.00000000D+00  -5  7  0 0.00000000D+00 0.00000000D+00 0.00000000D+00 0.00000000D+00 0.00000000D+00
  <mgrwgt>
 0.1282092592D-02    9    2    0
 0.549964647792241D+03 0.000000000000000D+00 0.000000000000000D+00 0.549964647792241D+03
 0.549964647792241D+03 0.000000000000000D+00 0.000000000000000D+00 -.549964647792241D+03
 0.511870531323045D+03 -.435571383588068D+03 -.240935108889825D+03 0.881593329488703D+02
 0.337526238321384D+03 0.239328798677139D+03 0.229146142268486D+03 -.643252140502643D+02
 0.105031537814137D+03 0.949764571683901D+02 0.411289888037563D+02 0.178746412362273D+02
 0.145500988125916D+03 0.101266127742539D+03 -.293400221824165D+02 -.417087601348333D+02
 0.000000000000000D+00 0.000000000000000D+00 0.000000000000000D+00 0.000000000000000D+00
 0.782239204065300D+03 0.000000000000000D+00 0.000000000000000D+00 0.782239204065300D+03
 0.552847620369973D+03 0.000000000000000D+00 0.000000000000000D+00 -.552847620369973D+03
 0.533160354961168D+03 -.452502489782866D+03 -.255464629454384D+03 0.881593329488703D+02
 0.323700796242855D+03 0.228615904648824D+03 0.219952814183510D+03 -.643252140502643D+02
 0.100904204695426D+03 0.916399816904914D+02 0.382657742853707D+02 0.178746412362273D+02
 0.143167082198289D+03 0.965892614241804D+02 -.333535003667986D+02 -.417087601348333D+02
 0.234154386337535D+03 0.356573420193701D+02 0.305995413523021D+02 0.229391583695326D+03
0.186589282956D-03 0.000000000000D+00 0.000000000000D+00 0.119632325174D-05 0.000000000000D+00  7 -2 1 -24 -11 11 23 21 0 0.26297127D-01 0.27222909D+00 0.29076673D+06 0.29076673D+06 0.29076673D+06 0.10855577D+01  1  2  2  1  7  1       -2 0.113163536813D-02 0.100000000000D+01
-.103611721346D-04 0.000000000000D+00 -.716551976639D-06 0.119632325174D-05 0.000000000000D+00  7 -2 1 -24 -11 11 23 21 2 0.26297127D-01 0.27222909D+00 0.29076673D+06 0.29076673D+06 0.29076673D+06 0.10855577D+01  1  2  3  1  7  1       -2 -.740516209233D-04 0.100000000000D+01
0.121669562600D-04 0.000000000000D+00 0.000000000000D+00 0.119632325174D-05 0.000000000000D+00  7 -2 1 -24 -11 11 23 21 2 0.26297127D-01 0.27222909D+00 0.29076673D+06 0.29076673D+06 0.29076673D+06 0.10855577D+01  1  2 15  1  7  1       -2 0.869576164789D-04 0.100000000000D+01
0.292179801627D-02 0.000000000000D+00 0.000000000000D+00 0.119632325174D-05 0.000000000000D+00  7 -2 1 -24 -11 11 23 21 2 0.37450299D-01 0.27222909D+00 0.31714839D+06 0.31714839D+06 0.31714839D+06 0.10827703D+01  1  2 12  1  7  1       -2 0.109720448596D-01 0.100000000000D+01
-.276941019944D-02 0.000000000000D+00 0.000000000000D+00 0.119632325174D-05 0.000000000000D+00  7 -2 1 -24 -11 11 23 21 2 0.26297127D-01 0.27222909D+00 0.29076673D+06 0.29076673D+06 0.29076673D+06 0.10855577D+01  1  2  4  1  7  1       -2 -.197930612102D-01 0.100000000000D+01
-.301425110098D-02 0.000000000000D+00 -.833533654919D-04 0.119632325174D-05 0.000000000000D+00  7 -2 1 -24 -11 11 23 21 2 0.37496386D-01 0.27222909D+00 0.29076673D+06 0.29076673D+06 0.29076673D+06 0.10855577D+01  1  2  5  1  7  1       -2 -.113991782085D-01 0.100000000000D+01
0.286650097406D-02 0.000000000000D+00 0.783691585087D-04 0.119632325174D-05 0.000000000000D+00  7 -2 1 -24 -11 11 23 21 2 0.26297127D-01 0.27222909D+00 0.29076673D+06 0.29076673D+06 0.29076673D+06 0.10855577D+01  1  2  6  1  7  1       -2 0.204869720095D-01 0.100000000000D+01
0.127141901899D-03 0.000000000000D+00 0.000000000000D+00 0.119632325174D-05 0.000000000000D+00  7 21 1 -24 -11 11 23 2 2 0.37450299D-01 0.27222909D+00 0.31714839D+06 0.31714839D+06 0.31714839D+06 0.10827703D+01  1  2 12  3  7  1       -2 0.526046927714D-02 0.100000000000D+01
-.129090072245D-03 0.000000000000D+00 -.363622406474D-05 0.119632325174D-05 0.000000000000D+00  7 21 1 -24 -11 11 23 2 2 0.37496386D-01 0.27222909D+00 0.29076673D+06 0.29076673D+06 0.29076673D+06 0.10855577D+01  1  2  5  3  7  1       -2 -.538969549966D-02 0.100000000000D+01
  </mgrwgt>
  </event>
  <event>
  8     66 0.26562228E-05 0.30745773E+03 0.75467711E-02 0.90060906E-01
       -2 -1    0    0    0  501 0.00000000E+00 0.00000000E+00 0.39003855E+03 0.39003868E+03 0.32000000E+00 0.0000E+00 0.9000E+01
        1 -1    0    0  501    0 0.00000000E+00 0.00000000E+00 -.11233064E+04 0.11233065E+04 0.32000000E+00 0.0000E+00 0.9000E+01
       25  2    1    2    0    0 0.18702384E+03 -.49790645E+03 -.95592695E+01 0.61161898E+03 0.30182386E+03 0.0000E+00 0.0000E+00
       23  2    3    3    0    0 0.15376687E+03 -.20227479E+03 -.99622747E+02 0.28768876E+03 0.90998842E+02 0.0000E+00 0.0000E+00
      -24  1    1    2    0    0 -.18702384E+03 0.49790645E+03 -.72370863E+03 0.90172620E+03 0.80419002E+02 0.0000E+00 0.9000E+01
      -11  1    4    4    0    0 0.44302108E+02 -.78931329E+02 -.81471563E+02 0.12178032E+03 0.51099893E-03 0.0000E+00 0.9000E+01
       11  1    4    4    0    0 0.10946477E+03 -.12334346E+03 -.18151184E+02 0.16590844E+03 0.51099893E-03 0.0000E+00 0.9000E+01
       23  1    3    3    0    0 0.33256964E+02 -.29563166E+03 0.90063478E+02 0.32393021E+03 0.91188000E+02 0.0000E+00 0.9000E+01
#aMCatNLO 1  0  0  2  1 0.38176161D+03 0.00000000D+00  -5  7  0 0.00000000D+00 0.00000000D+00 0.00000000D+00 0.00000000D+00 0.00000000D+00
  <mgrwgt>
 0.1379864295D-02    8    2    0
 0.661916122333934D+03 0.000000000000000D+00 0.000000000000000D+00 0.661916122333934D+03
 0.661916122333934D+03 0.000000000000000D+00 0.000000000000000D+00 -.661916122333934D+03
 0.629951940609400D+03 -.187023837682456D+03 0.497906448303276D+03 -.327846739193364D+03
 0.940868327215477D+02 0.443021083172555D+02 -.789313291751946D+02 -.256807430744464D+02
 0.179605124221183D+03 0.109464765222600D+03 -.123343462465541D+03 0.711467222595620D+02
 0.420188347115738D+03 0.332569641426006D+02 -.295631656662540D+03 0.282380760008248D+03
 0.000000000000000D+00 -.000000000000000D+00 -.000000000000000D+00 -.000000000000000D+00
 0.759518932343740D+03 0.000000000000000D+00 0.000000000000000D+00 0.759518932343740D+03
 0.120475588574768D+04 0.000000000000000D+00 0.000000000000000D+00 -.120475588574768D+04
 0.786888798681961D+03 -.150326485045124D+03 0.694726729751364D+03 -.327846739193364D+03
 0.778862746353336D+02 0.487563547189856D+02 -.550417031552562D+02 -.256807430744464D+02
 0.157743334716809D+03 0.118202370668290D+03 -.764807369714511D+02 0.711467222595620D+02
 0.355260143745435D+03 0.533417245056121D+02 -.187910311569000D+03 0.282380760008248D+03
 0.586496266311885D+03 -.699739648477631D+02 -.375293978055657D+03 -.445236953403943D+03
0.215814009614D-03 0.000000000000D+00 0.000000000000D+00 0.175786229018D-05 0.000000000000D+00  7 -2 1 -24 -11 11 23 21 0 0.60005945D-01 0.17281639D+00 0.30498175D+06 0.30498175D+06 0.30498175D+06 0.10840231D+01  1  2  2  2  7  2        1 0.760349470030D-03 0.100000000000D+01
-.115113736726D-04 0.000000000000D+00 -.828782622051D-06 0.175786229018D-05 0.000000000000D+00  7 -2 1 -24 -11 11 23 21 2 0.60005945D-01 0.17281639D+00 0.30498175D+06 0.30498175D+06 0.30498175D+06 0.10840231D+01  1  2  3  2  7  2        1 -.476582208245D-04 0.100000000000D+01
0.132818594787D-04 0.000000000000D+00 0.000000000000D+00 0.175786229018D-05 0.000000000000D+00  7 -2 1 -24 -11 11 23 21 2 0.60005945D-01 0.17281639D+00 0.30498175D+06 0.30498175D+06 0.30498175D+06 0.10840231D+01  1  2 15  2  7  2        1 0.549882064467D-04 0.100000000000D+01
0.392076591319D-04 0.000000000000D+00 0.000000000000D+00 0.175786229018D-05 0.000000000000D+00  7 -2 1 -24 -11 11 23 21 2 0.60005945D-01 0.31816878D+00 0.58292482D+06 0.58292482D+06 0.58292482D+06 0.10638321D+01  1  2 12  2  7  2        1 0.343377536714D-04 0.100000000000D+01
-.155041901978D-03 0.000000000000D+00 -.646720209010D-04 0.175786229018D-05 0.000000000000D+00  7 -2 1 -24 -11 11 23 21 2 0.60005945D-01 0.33071817D+00 0.30498175D+06 0.30498175D+06 0.30498175D+06 0.10840231D+01  1  2  5  2  7  2        1 -.129491566844D-03 0.100000000000D+01
0.171244560197D-03 0.000000000000D+00 0.530915441631D-04 0.175786229018D-05 0.000000000000D+00  7 -2 1 -24 -11 11 23 21 2 0.60005945D-01 0.17281639D+00 0.30498175D+06 0.30498175D+06 0.30498175D+06 0.10840231D+01  1  2  6  2  7  2        1 0.708969346056D-03 0.100000000000D+01
0.261266361550D-05 0.000000000000D+00 0.000000000000D+00 0.175786229018D-05 0.000000000000D+00  7 -2 21 -24 -11 11 23 -1 2 0.60005945D-01 0.31816878D+00 0.58292482D+06 0.58292482D+06 0.58292482D+06 0.10638321D+01  1  2 12  4  7  2        1 0.105948470653D-05 0.100000000000D+01
-.720228519519D-05 0.000000000000D+00 -.455702180879D-05 0.175786229018D-05 0.000000000000D+00  7 -2 21 -24 -11 11 23 -1 2 0.60005945D-01 0.33071817D+00 0.30498175D+06 0.30498175D+06 0.30498175D+06 0.10840231D+01  1  2  5  4  7  2        1 -.269017861205D-05 0.100000000000D+01
  </mgrwgt>
  </event>
  <event>
  8     66 0.26562228E-05 0.24398654E+03 0.75467711E-02 0.10037233E+00
       -2 -1    0    0    0  501 0.00000000E+00 0.00000000E+00 0.10294304E+03 0.10294353E+03 0.32000000E+00 0.0000E+00 0.9000E+01
        1 -1    0    0  501    0 0.00000000E+00 0.00000000E+00 -.71290666E+03 0.71290673E+03 0.32000000E+00 0.0000E+00 0.9000E+01
       25  2    1    2    0    0 -.13820325E+03 0.85758998E+02 -.28930110E+03 0.44741246E+03 0.30004673E+03 0.0000E+00 0.0000E+00
       23  2    3    3    0    0 0.39417994E+01 0.13097189E+03 -.10400675E+03 0.19266029E+03 0.95558414E+02 0.0000E+00 0.0000E+00
      -24  1    1    2    0    0 0.13820325E+03 -.85758998E+02 -.32066253E+03 0.36843781E+03 0.80419002E+02 0.0000E+00 0.9000E+01
      -13  1    4    4    0    0 0.86164882E+01 0.65745320E+02 0.39685059E+01 0.66426284E+02 0.10565837E+00 0.0000E+00 0.9000E+01
       13  1    4    4    0    0 -.46746888E+01 0.65226568E+02 -.10797525E+03 0.12623400E+03 0.10565837E+00 0.0000E+00 0.9000E+01
       23  1    3    3    0    0 -.14214505E+03 -.45212890E+02 -.18529435E+03 0.25475217E+03 0.91188000E+02 0.0000E+00 0.9000E+01
#aMCatNLO 1  0  0  1  1 0.11360133D+03 0.00000000D+00  -5  7  0 0.00000000D+00 0.00000000D+00 0.00000000D+00 0.00000000D+00 0.00000000D+00
  <mgrwgt>
 0.9012336322D-03    4    2    0
 0.270904058801144D+03 0.000000000000000D+00 0.000000000000000D+00 0.270904058801144D+03
 0.270904058801144D+03 0.000000000000000D+00 0.000000000000000D+00 -.270904058801144D+03
 0.193791127811766D+03 0.138203253837543D+03 -.857589987969264D+02 -.680664382662292D+02
 0.104491912377131D+03 0.861650920900001D+01 0.657453290133994D+02 0.807580784454477D+02
 0.685243394808199D+02 -.467469767853357D+01 0.652265654822323D+02 -.204750447689138D+02
 0.175000737932571D+03 -.142145065368009D+03 -.452128956987054D+02 0.778340458969530D+01
 0.000000000000000D+00 -.000000000000000D+00 -.000000000000000D+00 -.000000000000000D+00
 0.294956359876651D+03 0.000000000000000D+00 0.000000000000000D+00 0.294956359876651D+03
 0.454439373593999D+03 0.000000000000000D+00 0.000000000000000D+00 -.454439373593999D+03
 0.185783469932663D+03 0.145593251987119D+03 -.470940198264598D+02 -.680664382662292D+02
 0.120642983917972D+03 0.129996962739734D+02 0.886784654311040D+02 0.807580784454477D+02
 0.832633141991702D+02 -.171951973330416D+01 0.806882598958949D+02 -.204750447689138D+02
 0.163899699384677D+03 -.135546958910023D+03 -.106911485643619D+02 0.778340458969530D+01
 0.195806266036168D+03 -.213264696177655D+02 -.111581556936177D+03 -.159483013717348D+03
0.114513233246D-04 0.000000000000D+00 0.000000000000D+00 0.161943186460D-06 0.000000000000D+00  7 -2 1 -24 -13 13 23 21 0 0.15837434D-01 0.10967799D+00 0.59529434D+05 0.59529434D+05 0.59529434D+05 0.11406905D+01  1  2  2  1  7  1       -2 0.974433233601D-03 0.100000000000D+01
-.627713196265D-06 0.000000000000D+00 -.439760967690D-07 0.161943186460D-06 0.000000000000D+00  7 -2 1 -24 -13 13 23 21 2 0.15837434D-01 0.10967799D+00 0.59529434D+05 0.59529434D+05 0.59529434D+05 0.11406905D+01  1  2  3  1  7  1       -2 -.695013566120D-04 0.100000000000D+01
0.736259079526D-06 0.000000000000D+00 0.000000000000D+00 0.161943186460D-06 0.000000000000D+00  7 -2 1 -24 -13 13 23 21 2 0.15837434D-01 0.10967799D+00 0.59529434D+05 0.59529434D+05 0.59529434D+05 0.11406905D+01  1  2 15  1  7  1       -2 0.815197213463D-04 0.100000000000D+01
-.769660399480D-06 0.000000000000D+00 0.000000000000D+00 0.161943186460D-06 0.000000000000D+00  7 -2 1 -24 -13 13 23 21 2 0.15837434D-01 0.10967799D+00 0.59529434D+05 0.59529434D+05 0.59529434D+05 0.11406905D+01  1  2  4  1  7  1       -2 -.852179661231D-04 0.100000000000D+01
  </mgrwgt>
  </event>
  <event>
  8     66 0.26562228E-05 0.72732266E+03 0.75467711E-02 0.86726085E-01
       -2 -1    0    0    0  501 0.00000000E+00 0.00000000E+00 0.29975768E+03 0.29975786E+03 0.32000000E+00 0.0000E+00 0.9000E+01
        1 -1    0    0  501    0 0.00000000E+00 0.00000000E+00 -.19898069E+04 0.19898069E+04 0.32000000E+00 0.0000E+00 0.9000E+01
       25  2    1    2    0    0 0.59233561E+03 -.37482151E+03 -.12308408E+04 0.14477262E+04 0.29931476E+03 0.0000E+00 0.0000E+00
       23  2    3    3    0    0 0.16943223E+03 -.23942171E+03 -.55916071E+03 0.63738687E+03 0.87013133E+02 0.0000E+00 0.0000E+00
      -24  1    1    2    0    0 -.59233561E+03 0.37482151E+03 -.45920834E+03 0.84183855E+03 0.80419002E+02 0.0000E+00 0.9000E+01
      -11  1    4    4    0    0 0.11152168E+02 -.35393733E+01 -.18353509E+01 0.11843417E+02 0.51099893E-03 0.0000E+00 0.9000E+01
       11  1    4    4    0    0 0.15828006E+03 -.23588234E+03 -.55732536E+03 0.62554346E+03 0.51099893E-03 0.0000E+00 0.9000E+01
       23  1    3    3    0    0 0.42290338E+03 -.13539979E+03 -.67168011E+03 0.81033931E+03 0.91188000E+02 0.0000E+00 0.9000E+01
#aMCatNLO 1  0  0  2  1 0.57582793D+03 0.00000000D+00  -5  7  0 0.00000000D+00 0.00000000D+00 0.00000000D+00 0.00000000D+00 0.00000000D+00
  <mgrwgt>
 0.1969552866D-02    6    2    0
 0.772308307119669D+03 0.000000000000000D+00 0.000000000000000D+00 0.772308307119669D+03
 0.772308307119669D+03 0.000000000000000D+00 0.000000000000000D+00 -.772308307119669D+03
 0.745401271595184D+03 -.592335607415188D+03 0.374821505362842D+03 0.240422975289301D+03
 0.155471820432797D+02 0.111521675046694D+02 -.353937333045548D+01 0.102380108352324D+02
 0.317434739704069D+03 0.158280064088895D+03 -.235882338314409D+03 -.141674831054538D+03
 0.466233420896806D+03 0.422903375821624D+03 -.135399793717977D+03 -.108986155069995D+03
 0.000000000000000D+00 0.000000000000000D+00 0.000000000000000D+00 -.000000000000000D+00
 0.105896056726343D+04 0.000000000000000D+00 0.000000000000000D+00 0.105896056726343D+04
 0.117737645056841D+04 0.000000000000000D+00 0.000000000000000D+00 -.117737645056841D+04
 0.673042505081467D+03 -.611858492486351D+03 0.119770513137985D+03 0.240422975289301D+03
 0.175907117670128D+02 0.106960709691589D+02 -.949791242487018D+01 0.102380108352324D+02
 0.421951701853824D+03 0.148103448872230D+03 -.368831735856823D+03 -.141674831054538D+03
 0.535874450815837D+03 0.409110769353858D+03 -.315589245848030D+03 -.108986155069995D+03
 0.587877648313703D+03 0.439482032911032D+02 0.574148380991738D+03 -.118415883304984D+03
0.850166627678D-03 0.000000000000D+00 0.000000000000D+00 0.112494039819D-05 0.000000000000D+00  7 -2 1 -24 -11 11 23 21 0 0.46116582D-01 0.30612415D+00 0.52899825D+06 0.52899825D+06 0.52899825D+06 0.10667843D+01  1  2  2  2  7  2        1 0.127150157989D-02 0.100000000000D+01
-.470246496506D-04 0.000000000000D+00 -.326486370430D-05 0.112494039819D-05 0.000000000000D+00  7 -2 1 -24 -11 11 23 21 2 0.46116582D-01 0.30612415D+00 0.52899825D+06 0.52899825D+06 0.52899825D+06 0.10667843D+01  1  2  3  2  7  2        1 -.800371524452D-04 0.100000000000D+01
0.548869879408D-04 0.000000000000D+00 0.000000000000D+00 0.112494039819D-05 0.000000000000D+00  7 -2 1 -24 -11 11 23 21 2 0.46116582D-01 0.30612415D+00 0.52899825D+06 0.52899825D+06 0.52899825D+06 0.10667843D+01  1  2 15  2  7  2        1 0.934190526397D-04 0.100000000000D+01
-.347102184170D-03 0.000000000000D+00 -.233128778639D-03 0.112494039819D-05 0.000000000000D+00  7 -2 1 -24 -11 11 23 21 2 0.46116582D-01 0.51950563D+00 0.52899825D+06 0.52899825D+06 0.52899825D+06 0.10667843D+01  1  2  5  2  7  2        1 -.589379010601D-04 0.100000000000D+01
0.437032705884D-03 0.000000000000D+00 0.203935172345D-03 0.112494039819D-05 0.000000000000D+00  7 -2 1 -24 -11 11 23 21 2 0.46116582D-01 0.30612415D+00 0.52899825D+06 0.52899825D+06 0.52899825D+06 0.10667843D+01  1  2  6  2  7  2        1 0.743840806136D-03 0.100000000000D+01
-.929433681423D-05 0.000000000000D+00 -.137514162965D-04 0.112494039819D-05 0.000000000000D+00  7 -2 21 -24 -11 11 23 -1 2 0.46116582D-01 0.51950563D+00 0.52899825D+06 0.52899825D+06 0.52899825D+06 0.10667843D+01  1  2  5  4  7  2        1 -.233518920388D-06 0.100000000000D+01
  </mgrwgt>
  </event>
  <event>
  8     66 0.26562228E-05 0.23052670E+03 0.75467711E-02 0.95952508E-01
       -2 -1    0    0    0  501 0.00000000E+00 0.00000000E+00 0.28037642E+03 0.28037660E+03 0.32000000E+00 0.0000E+00 0.9000E+01
        1 -1    0    0  501    0 0.00000000E+00 0.00000000E+00 -.60233391E+03 0.60233400E+03 0.32000000E+00 0.0000E+00 0.9000E+01
       25  2    1    2    0    0 0.21192398E+03 -.24973903E+03 -.45563989E+02 0.44665792E+03 0.30024300E+03 0.0000E+00 0.0000E+00
       23  2    3    3    0    0 0.24717417E+03 -.19219156E+03 -.64811531E+01 0.32667039E+03 0.92945523E+02 0.0000E+00 0.0000E+00
      -24  1    1    2    0    0 -.21192398E+03 0.24973903E+03 -.27639350E+03 0.43605268E+03 0.80419002E+02 0.0000E+00 0.9000E+01
      -13  1    4    4    0    0 0.22759206E+03 -.13988512E+03 -.23781053E+02 0.26820056E+03 0.10565837E+00 0.0000E+00 0.9000E+01
       13  1    4    4    0    0 0.19582111E+02 -.52306438E+02 0.17299900E+02 0.58469824E+02 0.10565837E+00 0.0000E+00 0.9000E+01
       23  1    3    3    0    0 -.35250190E+02 -.57547474E+02 -.39082836E+02 0.11998753E+03 0.91188000E+02 0.0000E+00 0.9000E+01
#aMCatNLO 1  0  0  2  1 0.10950832D+03 0.00000000D+00  -5  7  0 0.00000000D+00 0.00000000D+00 0.00000000D+00 0.00000000D+00 0.00000000D+00
  <mgrwgt>
 0.1188094315D-02    9    2    0
 0.410950537501155D+03 0.000000000000000D+00 0.000000000000000D+00 0.410950537501155D+03
 0.410950537501155D+03 0.000000000000000D+00 0.000000000000000D+00 -.410950537501155D+03
 0.360044993583959D+03 -.211923981535731D+03 0.249739033735119D+03 -.126031037961267D+03
 0.278728452478753D+03 0.227592328748413D+03 -.139885234427740D+03 0.795198296349464D+02
 0.695722939697542D+02 0.195818429864695D+02 -.523063250273494D+02 0.414837784633999D+02
 0.113555334969845D+03 -.352501901991511D+02 -.575474742800298D+02 0.502742986292056D+01
 0.000000000000000D+00 0.000000000000000D+00 0.000000000000000D+00 -.000000000000000D+00
 0.423143416382692D+03 0.000000000000000D+00 0.000000000000000D+00 0.423143416382692D+03
 0.764766255327767D+03 0.000000000000000D+00 0.000000000000000D+00 -.764766255327767D+03
 0.356781523537703D+03 -.243234329579156D+03 0.213960458889250D+03 -.126031037961267D+03
 0.275247427391387D+03 0.203395152455265D+03 -.167535533359659D+03 0.795198296349464D+02
 0.737134645958307D+02 0.133232478268360D+02 -.594580697169447D+02 0.414837784633999D+02
 0.123421892190416D+03 -.456011458118800D+02 -.693755906459886D+02 0.502742986292056D+01
 0.358745363995122D+03 0.721170751089350D+02 0.824087348333422D+02 -.341622838945075D+03
0.614602876664D-04 0.000000000000D+00 0.000000000000D+00 0.245256191615D-05 0.000000000000D+00  7 -2 1 -24 -13 13 23 21 0 0.43134855D-01 0.92666776D-01 0.14965537D+06 0.14965537D+06 0.14965537D+06 0.11076307D+01  1  2  2  2  7  2        1 0.117520887607D-02 0.100000000000D+01
-.339930127259D-05 0.000000000000D+00 -.236023687504D-06 0.245256191615D-05 0.000000000000D+00  7 -2 1 -24 -13 13 23 21 2 0.43134855D-01 0.92666776D-01 0.14965537D+06 0.14965537D+06 0.14965537D+06 0.11076307D+01  1  2  3  2  7  2        1 -.797443879081D-04 0.100000000000D+01
0.398387792135D-05 0.000000000000D+00 0.000000000000D+00 0.245256191615D-05 0.000000000000D+00  7 -2 1 -24 -13 13 23 21 2 0.43134855D-01 0.92666776D-01 0.14965537D+06 0.14965537D+06 0.14965537D+06 0.11076307D+01  1  2 15  2  7  2        1 0.934580023550D-04 0.100000000000D+01
0.227566935988D-03 0.000000000000D+00 0.000000000000D+00 0.245256191615D-05 0.000000000000D+00  7 -2 1 -24 -13 13 23 21 2 0.43134855D-01 0.17271722D+00 0.19849294D+06 0.19849294D+06 0.19849294D+06 0.10980778D+01  1  2 12  2  7  2        1 0.189761024736D-02 0.100000000000D+01
-.206766888189D-03 0.000000000000D+00 0.000000000000D+00 0.245256191615D-05 0.000000000000D+00  7 -2 1 -24 -13 13 23 21 2 0.43134855D-01 0.92666776D-01 0.14965537D+06 0.14965537D+06 0.14965537D+06 0.11076307D+01  1  2  4  2  7  2        1 -.485055533950D-02 0.100000000000D+01
-.239029138362D-03 0.000000000000D+00 -.203991818287D-04 0.245256191615D-05 0.000000000000D+00  7 -2 1 -24 -13 13 23 21 2 0.43134855D-01 0.17423341D+00 0.14965537D+06 0.14965537D+06 0.14965537D+06 0.11076307D+01  1  2  5  2  7  2        1 -.201556055749D-02 0.100000000000D+01
0.211763302512D-03 0.000000000000D+00 0.169142630830D-04 0.245256191615D-05 0.000000000000D+00  7 -2 1 -24 -13 13 23 21 2 0.43134855D-01 0.92666776D-01 0.14965537D+06 0.14965537D+06 0.14965537D+06 0.11076307D+01  1  2  6  2  7  2        1 0.496776648672D-02 0.100000000000D+01
0.154376789470D-04 0.000000000000D+00 0.000000000000D+00 0.245256191615D-05 0.000000000000D+00  7 -2 21 -24 -13 13 23 -1 2 0.43134855D-01 0.17271722D+00 0.19849294D+06 0.19849294D+06 0.19849294D+06 0.10980778D+01  1  2 12  4  7  2        1 0.149878278596D-03 0.100000000000D+01
-.152707092264D-04 0.000000000000D+00 -.140143179129D-05 0.245256191615D-05 0.000000000000D+00  7 -2 21 -24 -13 13 23 -1 2 0.43134855D-01 0.17423341D+00 0.14965537D+06 0.14965537D+06 0.14965537D+06 0.11076307D+01  1  2  5  4  7  2        1 -.149967291212D-03 0.100000000000D+01
  </mgrwgt>
  </event>
  <event>
  8     66 0.26562228E-05 0.25071181E+03 0.75467711E-02 0.94317841E-01
       -2 -1    0    0    0  501 0.00000000E+00 0.00000000E+00 0.44021458E+03 0.44021470E+03 0.32000000E+00 0.0000E+00 0.9000E+01
        1 -1    0    0  501    0 0.00000000E+00 0.00000000E+00 -.11561353E+04 0.11561353E+04 0.32000000E+00 0.0000E+00 0.9000E+01
       25  2    1    2    0    0 -.16572419E+02 0.39779379E+03 -.98872848E+03 0.11070588E+04 0.29913324E+03 0.0000E+00 0.0000E+00
       23  2    3    3    0    0 -.60833805E+00 0.26628705E+03 -.84669852E+03 0.89249733E+03 0.93509008E+02 0.0000E+00 0.0000E+00
      -24  1    1    2    0    0 0.16572419E+02 -.39779379E+03 0.27280780E+03 0.48929117E+03 0.80419002E+02 0.0000E+00 0.9000E+01
      -13  1    4    4    0    0 0.35791522E+02 0.19387442E+03 -.66352387E+03 0.69219380E+03 0.10565837E+00 0.0000E+00 0.9000E+01
       13  1    4    4    0    0 -.36399860E+02 0.72412628E+02 -.18317465E+03 0.20030353E+03 0.10565837E+00 0.0000E+00 0.9000E+01
       23  1    3    3    0    0 -.15964081E+02 0.13150674E+03 -.14202995E+03 0.21456149E+03 0.91188000E+02 0.0000E+00 0.9000E+01
#aMCatNLO 1  0  0  2  1 0.16452816D+03 0.00000000D+00  -5  7  0 0.00000000D+00 0.00000000D+00 0.00000000D+00 0.00000000D+00 0.00000000D+00
  <mgrwgt>
 0.9924223545D-03    6    2    0
 0.713405722306702D+03 0.000000000000000D+00 0.000000000000000D+00 0.713405722306702D+03
 0.713405722306702D+03 0.000000000000000D+00 0.000000000000000D+00 -.713405722306702D+03
 0.684315165148307D+03 0.165724188243742D+02 -.397793789014062D+03 0.550731772874718D+03
 0.441511512953126D+03 0.357916144486026D+02 0.193874572592514D+03 -.395049397553509D+03
 0.132193676846495D+03 -.363999524923608D+02 0.724124729858317D+02 -.104434885995177D+03
 0.168791089665477D+03 -.159640807806161D+02 0.131506743435716D+03 -.512474893260319D+02
 0.000000000000000D+00 -.000000000000000D+00 -.000000000000000D+00 0.000000000000000D+00
 0.801911509170719D+03 0.000000000000000D+00 0.000000000000000D+00 0.801911509170719D+03
 0.798910163238657D+03 0.000000000000000D+00 0.000000000000000D+00 -.798910163238657D+03
 0.668147483143435D+03 0.844231374622862D+02 -.359890388151491D+03 0.550731772874718D+03
 0.458943127863042D+03 0.809658708743821D+02 0.219110236773353D+03 -.395049397553509D+03
 0.133477539776907D+03 -.230716857250128D+02 0.798580335963543D+02 -.104434885995177D+03
 0.175697985699179D+03 0.131834203226128D+01 0.141161211551945D+03 -.512474893260319D+02
 0.164555535926813D+03 -.143635664643917D+03 -.802390937701623D+02 0.300134593206227D+01
0.457858465282D-03 0.000000000000D+00 0.000000000000D+00 0.255915912062D-05 0.000000000000D+00  7 -2 1 -24 -13 13 23 21 0 0.67725332D-01 0.17786698D+00 0.17859070D+06 0.17859070D+06 0.17859070D+06 0.11016219D+01  1  2  2  2  7  2        1 0.121251427934D-02 0.100000000000D+01
-.169568919702D-04 0.000000000000D+00 -.175829706358D-05 0.255915912062D-05 0.000000000000D+00  7 -2 1 -24 -13 13 23 21 2 0.67725332D-01 0.17786698D+00 0.17859070D+06 0.17859070D+06 0.17859070D+06 0.11016219D+01  1  2  3  2  7  2        1 -.544963007113D-04 0.100000000000D+01
0.281838477705D-04 0.000000000000D+00 0.000000000000D+00 0.255915912062D-05 0.000000000000D+00  7 -2 1 -24 -13 13 23 21 2 0.67725332D-01 0.17786698D+00 0.17859070D+06 0.17859070D+06 0.17859070D+06 0.11016219D+01  1  2 15  2  7  2        1 0.905776510222D-04 0.100000000000D+01
0.310117747562D-03 0.000000000000D+00 0.000000000000D+00 0.255915912062D-05 0.000000000000D+00  7 -2 1 -24 -13 13 23 21 2 0.67725332D-01 0.20894948D+00 0.26399424D+06 0.26399424D+06 0.26399424D+06 0.10886840D+01  1  2 12  2  7  2        1 0.690162492909D-03 0.100000000000D+01
-.299095491856D-03 0.000000000000D+00 0.000000000000D+00 0.255915912062D-05 0.000000000000D+00  7 -2 1 -24 -13 13 23 21 2 0.67725332D-01 0.17786698D+00 0.17859070D+06 0.17859070D+06 0.17859070D+06 0.11016219D+01  1  2  4  2  7  2        1 -.961237347868D-03 0.100000000000D+01
0.749052366354D-05 0.000000000000D+00 0.000000000000D+00 0.255915912062D-05 0.000000000000D+00  7 -2 21 -24 -13 13 23 -1 2 0.67725332D-01 0.20894948D+00 0.26399424D+06 0.26399424D+06 0.26399424D+06 0.10886840D+01  1  2 12  4  7  2        1 0.149015798120D-04 0.100000000000D+01
  </mgrwgt>
  </event>
  <event>
  8     66 0.26562228E-05 0.21322331E+03 0.75467711E-02 0.10510104E+00
       -2 -1    0    0    0  501 0.00000000E+00 0.00000000E+00 0.40919811E+03 0.40919824E+03 0.32000000E+00 0.0000E+00 0.9000E+01
        1 -1    0    0  501    0 0.00000000E+00 0.00000000E+00 -.13278166E+03 0.13278205E+03 0.32000000E+00 0.0000E+00 0.9000E+01
       25  2    1    2    0    0 -.96451573E+02 0.46359854E+02 0.24714864E+03 0.40495487E+03 0.30241339E+03 0.0000E+00 0.0000E+00
       23  2    3    3    0    0 -.42529859E+02 0.13863051E+03 0.13379807E+03 0.22444164E+03 0.10698092E+03 0.0000E+00 0.0000E+00
      -24  1    1    2    0    0 0.96451573E+02 -.46359854E+02 0.29267811E+02 0.13702541E+03 0.80419002E+02 0.0000E+00 0.9000E+01
      -13  1    4    4    0    0 -.22819663E+02 0.15948605E+02 -.14155636E+02 0.31232807E+02 0.10565837E+00 0.0000E+00 0.9000E+01
       13  1    4    4    0    0 -.19710196E+02 0.12268191E+03 0.14795371E+03 0.19320883E+03 0.10565837E+00 0.0000E+00 0.9000E+01
       23  1    3    3    0    0 -.53921714E+02 -.92270658E+02 0.11335057E+03 0.18051323E+03 0.91188000E+02 0.0000E+00 0.9000E+01
#aMCatNLO 1  0  0  1  1 0.98201697D+01 0.00000000D+00  -5  7  0 0.00000000D+00 0.00000000D+00 0.00000000D+00 0.00000000D+00 0.00000000D+00
  <mgrwgt>
 0.2700730016D-03    6    2    0
 0.233096854125173D+03 0.000000000000000D+00 0.000000000000000D+00 0.233096854125173D+03
 0.233096854125173D+03 0.000000000000000D+00 0.000000000000000D+00 -.233096854125173D+03
 0.141947462823145D+03 0.964516769881442D+02 -.463599041292249D+02 -.472196944384594D+02
 0.447030051610462D+02 -.228195339282973D+02 0.159487309390394D+02 -.349752129823099D+02
 0.136892753580684D+03 -.197102649195548D+02 0.122682068772010D+03 0.574477279056600D+02
 0.142650486685470D+03 -.539218781402921D+02 -.922708955818244D+02 0.247471795151093D+02
 0.000000000000000D+00 0.000000000000000D+00 0.000000000000000D+00 -.000000000000000D+00
 0.235468252482425D+03 0.000000000000000D+00 0.000000000000000D+00 0.235468252482425D+03
 0.243541734540373D+03 0.000000000000000D+00 0.000000000000000D+00 -.243541734540373D+03
 0.142618965751040D+03 0.959737184149445D+02 -.493183461631999D+02 -.472196944384594D+02
 0.444579329701107D+02 -.229692888905669D+02 0.150217858019145D+02 -.349752129823099D+02
 0.134438173516948D+03 -.201659931072764D+02 0.119861227171456D+03 0.574477279056600D+02
 0.144782053364409D+03 -.544046506423815D+02 -.952591346115526D+02 0.247471795151093D+02
 0.127128614202903D+02 0.156621422528031D+01 0.969446780138185D+01 -.807348205794780D+01
0.931858407722D-05 0.000000000000D+00 0.000000000000D+00 0.475887255459D-09 0.000000000000D+00  7 -2 1 -24 -13 13 23 21 0 0.62953595D-01 0.20427987D-01 0.45464179D+05 0.45464179D+05 0.45464179D+05 0.11509460D+01  1  2  2  1  7  1       -2 0.631937497750D-03 0.100000000000D+01
-.512700483197D-06 0.000000000000D+00 -.357858164961D-07 0.475887255459D-09 0.000000000000D+00  7 -2 1 -24 -13 13 23 21 2 0.62953595D-01 0.20427987D-01 0.45464179D+05 0.45464179D+05 0.45464179D+05 0.11509460D+01  1  2  3  1  7  1       -2 -.460572296523D-04 0.100000000000D+01
0.598466776631D-06 0.000000000000D+00 0.000000000000D+00 0.475887255459D-09 0.000000000000D+00  7 -2 1 -24 -13 13 23 21 2 0.62953595D-01 0.20427987D-01 0.45464179D+05 0.45464179D+05 0.45464179D+05 0.11509460D+01  1  2 15  1  7  1       -2 0.537618408289D-04 0.100000000000D+01
-.411397546762D-05 0.000000000000D+00 0.000000000000D+00 0.475887255459D-09 0.000000000000D+00  7 -2 1 -24 -13 13 23 21 2 0.62953595D-01 0.20427987D-01 0.45464179D+05 0.45464179D+05 0.45464179D+05 0.11509460D+01  1  2  4  1  7  1       -2 -.369569210691D-03 0.100000000000D+01
0.103689823439D-11 0.000000000000D+00 0.000000000000D+00 0.475887255459D-09 0.347920173436D-10  7 -2 1 -24 -13 13 23 21 2 0.63594050D-01 0.21343349D-01 0.47532234D+05 0.47532234D+05 0.47532234D+05 0.11492339D+01  1  2 11  1  7  1       -2 0.859512888931D-10 0.100000000000D+01
0.198391626039D-13 0.000000000000D+00 0.000000000000D+00 0.475887255459D-09 0.664616039376D-13  7 21 1 -24 -13 13 23 2 2 0.63594050D-01 0.21343349D-01 0.47532234D+05 0.47532234D+05 0.47532234D+05 0.11492339D+01  1  2 11  3  7  1       -2 0.173822118600D-10 0.100000000000D+01
  </mgrwgt>
  </event>
  <event>
  8     66 0.26562228E-05 0.67177997E+03 0.75467711E-02 0.89742004E-01
       -2 -1    0    0    0  501 0.00000000E+00 0.00000000E+00 0.15919080E+04 0.15919080E+04 0.32000000E+00 0.0000E+00 0.9000E+01
        1 -1    0    0  501    0 0.00000000E+00 0.00000000E+00 -.28919266E+03 0.28919283E+03 0.32000000E+00 0.0000E+00 0.9000E+01
       25  2    1    2    0    0 0.22236422E+03 -.59688936E+03 0.79913964E+03 0.10651484E+04 0.30032341E+03 0.0000E+00 0.0000E+00
       23  2    3    3    0    0 0.43427855E+01 -.41140856E+02 0.10941990E+03 0.14840506E+03 0.91323146E+02 0.0000E+00 0.0000E+00
      -24  1    1    2    0    0 -.22236422E+03 0.59688936E+03 0.50357568E+03 0.81595247E+03 0.80419002E+02 0.0000E+00 0.9000E+01
      -11  1    4    4    0    0 0.43158737E+02 -.39929745E+02 0.81848241E+02 0.10077795E+03 0.51099893E-03 0.0000E+00 0.9000E+01
       11  1    4    4    0    0 -.38815951E+02 -.12111105E+01 0.27571660E+02 0.47627107E+02 0.51099893E-03 0.0000E+00 0.9000E+01
       23  1    3    3    0    0 0.21802143E+03 -.55574850E+03 0.68971974E+03 0.91674332E+03 0.91188000E+02 0.0000E+00 0.9000E+01
#aMCatNLO 1  0  0  1  2 0.21517977D+03 0.00000000D+00  -5  7  0 0.00000000D+00 0.00000000D+00 0.00000000D+00 0.00000000D+00 0.00000000D+00
  <mgrwgt>
 0.7568549715D-03    4    2    0
 0.678504454717045D+03 0.000000000000000D+00 0.000000000000000D+00 0.678504454717045D+03
 0.678504454717045D+03 0.000000000000000D+00 0.000000000000000D+00 -.678504454717045D+03
 0.647654644501490D+03 -.222364216278364D+03 0.596889356677495D+03 -.852442009406878D+02
 0.611260051893410D+02 0.431587366181107D+02 -.399297454568319D+02 0.167130904290168D+02
 0.395527001770534D+02 -.388159511151595D+02 -.121111045231192D+01 -.750141598591421D+01
 0.608675559566206D+03 0.218021430775413D+03 -.555748500768351D+03 0.760325264975852D+02
 0.000000000000000D+00 0.000000000000000D+00 -.000000000000000D+00 -.000000000000000D+00
 0.773762373422370D+03 0.000000000000000D+00 0.000000000000000D+00 0.773762373422370D+03
 0.820370696436152D+03 0.000000000000000D+00 0.000000000000000D+00 -.820370696436152D+03
 0.756619473109967D+03 -.266195930113262D+03 0.698483331320049D+03 -.852442009406878D+02
 0.533650236494518D+02 0.395851195088951D+02 -.316467481881558D+02 0.167130904290168D+02
 0.423088076031383D+02 -.413711005251748D+02 0.471126313651979D+01 -.750141598591421D+01
 0.521670128098783D+03 0.182739865662959D+03 -.473972222412325D+03 0.760325264975852D+02
 0.220169637397181D+03 0.852420454665828D+02 -.197575623856088D+03 -.466083230137820D+02
0.190747815457D-02 0.000000000000D+00 0.000000000000D+00 0.191988692306D-04 0.000000000000D+00  7 -2 1 -24 -11 11 23 21 0 0.24490894D+00 0.44491194D-01 0.45128833D+06 0.45128833D+06 0.45128833D+06 0.10716708D+01  1  2  2  1  7  1       -2 0.121719377939D-02 0.100000000000D+01
-.105958226455D-03 0.000000000000D+00 -.732521836407D-05 0.191988692306D-04 0.000000000000D+00  7 -2 1 -24 -11 11 23 21 2 0.24490894D+00 0.44491194D-01 0.45128833D+06 0.45128833D+06 0.45128833D+06 0.10716708D+01  1  2  3  1  7  1       -2 -.776528952821D-04 0.100000000000D+01
0.123323084536D-03 0.000000000000D+00 0.000000000000D+00 0.191988692306D-04 0.000000000000D+00  7 -2 1 -24 -11 11 23 21 2 0.24490894D+00 0.44491194D-01 0.45128833D+06 0.45128833D+06 0.45128833D+06 0.10716708D+01  1  2 15  1  7  1       -2 0.903789624434D-04 0.100000000000D+01
-.645502205387D-03 0.000000000000D+00 0.000000000000D+00 0.191988692306D-04 0.000000000000D+00  7 -2 1 -24 -11 11 23 21 2 0.24490894D+00 0.44491194D-01 0.45128833D+06 0.45128833D+06 0.45128833D+06 0.10716708D+01  1  2  4  1  7  1       -2 -.473064875059D-03 0.100000000000D+01
  </mgrwgt>
  </event>
  <event>
  8     66 0.26562228E-05 0.15354623E+03 0.75467711E-02 0.10201068E+00
       -4 -1    0    0    0  501 0.00000000E+00 0.00000000E+00 0.77342220E+03 0.77342375E+03 0.15500000E+01 0.0000E+00 0.9000E+01
        3 -1    0    0  501    0 0.00000000E+00 0.00000000E+00 -.34899085E+03 0.34899120E+03 0.50000000E+00 0.0000E+00 0.9000E+01
       25  2    1    2    0    0 -.53733464E+02 -.10840781E+03 0.72199294E+03 0.79128107E+03 0.30035377E+03 0.0000E+00 0.0000E+00
       23  2    3    3    0    0 -.14669551E+03 -.50211235E+02 0.43948013E+03 0.47480433E+03 0.90860504E+02 0.0000E+00 0.0000E+00
      -24  1    1    2    0    0 0.53733464E+02 0.10840781E+03 -.29756158E+03 0.33113389E+03 0.80419002E+02 0.0000E+00 0.9000E+01
      -13  1    4    4    0    0 -.15661932E+03 -.51657035E+02 0.43164543E+03 0.46207775E+03 0.10565837E+00 0.0000E+00 0.9000E+01
       13  1    4    4    0    0 0.99238060E+01 0.14457996E+01 0.78347004E+01 0.12726585E+02 0.10565837E+00 0.0000E+00 0.9000E+01
       23  1    3    3    0    0 0.92962048E+02 -.58196579E+02 0.28251281E+03 0.31647673E+03 0.91188000E+02 0.0000E+00 0.9000E+01
#aMCatNLO 1  0  0  1  2 0.84025572D+02 0.00000000D+00  -5  7  0 0.00000000D+00 0.00000000D+00 0.00000000D+00 0.00000000D+00 0.00000000D+00
  <mgrwgt>
 0.1316553292D-03    9    2    0
 0.519536657791464D+03 0.000000000000000D+00 0.000000000000000D+00 0.519536657791464D+03
 0.519536657791464D+03 0.000000000000000D+00 0.000000000000000D+00 -.519536657791464D+03
 0.479238649304830D+03 0.537334636099402D+02 0.108407814778752D+03 -.456686903268007D+03
 0.322825690054536D+03 -.156619542669776D+03 -.516571068824171D+02 0.277521689821960D+03
 0.105466836792096D+02 0.992403116900848D+01 0.144587143292167D+01 0.326429131440722D+01
 0.226462292544353D+03 0.929620478908273D+02 -.581965793292561D+02 0.175900922131640D+03
 0.000000000000000D+00 -.000000000000000D+00 0.000000000000000D+00 0.000000000000000D+00
 0.573444966773633D+03 0.000000000000000D+00 0.000000000000000D+00 0.573444966773633D+03
 0.555038256845773D+03 0.000000000000000D+00 0.000000000000000D+00 -.555038256845773D+03
 0.477924754001349D+03 0.817725341517276D+02 0.818240769869241D+02 -.456686903268007D+03
 0.317562593557339D+03 -.137860057929443D+03 -.694429041221502D+02 0.277521689821960D+03
 0.110830431947761D+02 0.105576507114235D+02 0.845139117268200D+00 0.326429131440722D+01
 0.235894789468873D+03 0.106506300411645D+03 -.710378344294601D+02 0.175900922131640D+03
 0.860180433970676D+02 -.609764273453530D+02 0.578115224474179D+02 0.184067099278600D+02
0.230339063407D-03 0.000000000000D+00 0.000000000000D+00 0.203642047464D-04 0.000000000000D+00  7 -4 3 -24 -13 13 23 21 0 0.11898818D+00 0.53691046D-01 0.53560203D+05 0.53560203D+05 0.53560203D+05 0.11446771D+01  1  2  2  1  7  1       -4 0.108326082256D-03 0.100000000000D+01
-.262230753819D-05 0.000000000000D+00 -.884562653150D-06 0.203642047464D-04 0.000000000000D+00  7 -4 3 -24 -13 13 23 21 2 0.11898818D+00 0.53691046D-01 0.53560203D+05 0.53560203D+05 0.53560203D+05 0.11446771D+01  1  2  3  1  7  1       -4 -.161590206209D-05 0.100000000000D+01
0.141774121696D-04 0.000000000000D+00 0.000000000000D+00 0.203642047464D-04 0.000000000000D+00  7 -4 3 -24 -13 13 23 21 2 0.11898818D+00 0.53691046D-01 0.53560203D+05 0.53560203D+05 0.53560203D+05 0.11446771D+01  1  2 15  1  7  1       -4 0.873631686077D-05 0.100000000000D+01
0.246847282469D-03 0.000000000000D+00 0.000000000000D+00 0.203642047464D-04 0.000000000000D+00  7 -4 3 -24 -13 13 23 21 2 0.13504919D+00 0.53691046D-01 0.74814611D+05 0.74814611D+05 0.74814611D+05 0.11322120D+01  1  2 12  1  7  1       -4 0.101707166710D-03 0.100000000000D+01
-.257327696162D-03 0.000000000000D+00 0.000000000000D+00 0.203642047464D-04 0.000000000000D+00  7 -4 3 -24 -13 13 23 21 2 0.11898818D+00 0.53691046D-01 0.53560203D+05 0.53560203D+05 0.53560203D+05 0.11446771D+01  1  2  4  1  7  1       -4 -.158568874476D-03 0.100000000000D+01
-.533278103568D-03 0.000000000000D+00 -.193294992028D-03 0.203642047464D-04 0.000000000000D+00  7 -4 3 -24 -13 13 23 21 2 0.13783292D+00 0.53691046D-01 0.53560203D+05 0.53560203D+05 0.53560203D+05 0.11446771D+01  1  2  5  1  7  1       -4 -.211054365597D-03 0.100000000000D+01
0.557727968957D-03 0.000000000000D+00 0.191224670734D-03 0.203642047464D-04 0.000000000000D+00  7 -4 3 -24 -13 13 23 21 2 0.11898818D+00 0.53691046D-01 0.53560203D+05 0.53560203D+05 0.53560203D+05 0.11446771D+01  1  2  6  1  7  1       -4 0.343679664569D-03 0.100000000000D+01
0.489882557058D-05 0.000000000000D+00 0.000000000000D+00 0.203642047464D-04 0.000000000000D+00  7 21 3 -24 -13 13 23 4 2 0.13504919D+00 0.53691046D-01 0.74814611D+05 0.74814611D+05 0.74814611D+05 0.11322120D+01  1  2 12  3  7  1       -4 0.518424262717D-04 0.100000000000D+01
-.106741206037D-04 0.000000000000D+00 -.433802691018D-05 0.203642047464D-04 0.000000000000D+00  7 21 3 -24 -13 13 23 4 2 0.13783292D+00 0.53691046D-01 0.53560203D+05 0.53560203D+05 0.53560203D+05 0.11446771D+01  1  2  5  3  7  1       -4 -.111397185322D-03 0.100000000000D+01
  </mgrwgt>
  </event>
  <event>
  8     66 0.26562228E-05 0.54572538E+03 0.75467711E-02 0.78931322E-01
       -2 -1    0    0    0  501 0.00000000E+00 0.00000000E+00 0.50573400E+03 0.50573410E+03 0.32000000E+00 0.0000E+00 0.9000E+01
        1 -1    0    0  501    0 0.00000000E+00 0.00000000E+00 -.68510359E+03 0.68510367E+03 0.32000000E+00 0.0000E+00 0.9000E+01
       25  2    1    2    0    0 -.46309001E+03 -.22396666E+03 -.28447221E+03 0.65968129E+03 0.29940198E+03 0.0000E+00 0.0000E+00
       23  2    3    3    0    0 -.24771733E+03 -.21335466E+02 -.44231363E+02 0.26792153E+03 0.89478804E+02 0.0000E+00 0.0000E+00
      -24  1    1    2    0    0 0.46309001E+03 0.22396666E+03 0.10510261E+03 0.53115648E+03 0.80419002E+02 0.0000E+00 0.9000E+01
      -11  1    4    4    0    0 -.20714712E+03 0.13896223E+02 -.18763955E+02 0.20845891E+03 0.51099893E-03 0.0000E+00 0.9000E+01
       11  1    4    4    0    0 -.40570213E+02 -.35231688E+02 -.25467408E+02 0.59462617E+02 0.51099893E-03 0.0000E+00 0.9000E+01
       23  1    3    3    0    0 -.21537268E+03 -.20263120E+03 -.24024084E+03 0.39175976E+03 0.91188000E+02 0.0000E+00 0.9000E+01
#aMCatNLO 1  0  0  2  2 0.25264238D+04 0.00000000D+00  -5  7  0 0.00000000D+00 0.00000000D+00 0.00000000D+00 0.00000000D+00 0.00000000D+00
  <mgrwgt>
 0.2570084073D-02    3    2    0
 0.588625758882696D+03 0.000000000000000D+00 0.000000000000000D+00 0.588625758882696D+03
 0.588625758882696D+03 0.000000000000000D+00 0.000000000000000D+00 -.588625758882696D+03
 0.553300118508002D+03 0.463090012945173D+03 0.223966664222938D+03 0.187244167903537D+03
 0.208005732318470D+03 -.207147115849841D+03 0.138962225187311D+02 0.127809261067130D+02
 0.562685635428722D+02 -.405702125571058D+02 -.352316881685841D+02 -.167014144622888D+02
 0.359677103396047D+03 -.215372684538226D+03 -.202631198573085D+03 -.183323679547961D+03
 0.000000000000000D+00 -.000000000000000D+00 0.000000000000000D+00 0.000000000000000D+00
 0.672813467046521D+04 0.000000000000000D+00 0.000000000000000D+00 0.672813467046521D+04
 0.169275126720054D+04 0.000000000000000D+00 0.000000000000000D+00 -.169275126720054D+04
 0.139386655379465D+04 0.108666151576465D+04 -.848824555238114D+03 0.187244167903537D+03
 0.243290232745295D+03 -.626215818243502D+02 -.234745229487056D+03 0.127809261067130D+02
 0.154835465138956D+03 0.270349176502138D+02 -.151539424729678D+03 -.167014144622888D+02
 0.995253380245472D+03 0.218537801871817D+03 -.949129968558611D+03 -.183323679547961D+03
 0.563364030574138D+04 -.126961265346233D+04 0.218423917801346D+04 0.503538340326466D+04
0.552460946597D-03 0.000000000000D+00 0.000000000000D+00 0.350782471864D-05 0.000000000000D+00  7 -2 1 -24 -11 11 23 21 0 0.77805244D-01 0.10540057D+00 0.29781619D+06 0.29781619D+06 0.29781619D+06 0.10847867D+01  1  2  2  2  7  2        1 0.254631414239D-02 0.100000000000D+01
-.304785710280D-04 0.000000000000D+00 -.212159550124D-05 0.350782471864D-05 0.000000000000D+00  7 -2 1 -24 -11 11 23 21 2 0.77805244D-01 0.10540057D+00 0.29781619D+06 0.29781619D+06 0.29781619D+06 0.10847867D+01  1  2  3  2  7  2        1 -.165307934176D-03 0.100000000000D+01
0.348611405479D-04 0.000000000000D+00 0.000000000000D+00 0.350782471864D-05 0.000000000000D+00  7 -2 1 -24 -11 11 23 21 2 0.77805244D-01 0.10540057D+00 0.29781619D+06 0.29781619D+06 0.29781619D+06 0.10847867D+01  1  2 15  2  7  2        1 0.189077864631D-03 0.100000000000D+01
  </mgrwgt>
  </event>
  <event>
  9     66 0.26562228E-05 0.48563657E+03 0.75467711E-02 0.92208906E-01
       -2 -1    0    0    0  502 0.00000000E+00 0.00000000E+00 0.13046905E+04 0.13046905E+04 0.32000000E+00 0.0000E+00 0.9000E+01
        1 -1    0    0  501    0 0.00000000E+00 0.00000000E+00 -.37767959E+03 0.37767973E+03 0.32000000E+00 0.0000E+00 0.9000E+01
       25  2    1    2    0    0 -.45425523E+03 0.14445664E+03 0.85772242E+02 0.56941759E+03 0.29943944E+03 0.0000E+00 0.0000E+00
       23  2    3    3    0    0 -.38081436E+03 0.87902479E+02 -.20670306E+02 0.40137830E+03 0.89055354E+02 0.0000E+00 0.0000E+00
      -24  1    1    2    0    0 0.32233672E+03 -.34779293E+03 0.49380500E+03 0.68932683E+03 0.80419002E+02 0.0000E+00 0.9000E+01
      -13  1    4    4    0    0 -.28699727E+02 0.20411156E+01 0.22307487E+02 0.36407082E+02 0.10565837E+00 0.0000E+00 0.9000E+01
       13  1    4    4    0    0 -.35211464E+03 0.85861363E+02 -.42977793E+02 0.36497122E+03 0.10565837E+00 0.0000E+00 0.9000E+01
       23  1    3    3    0    0 -.73440869E+02 0.56554162E+02 0.10644255E+03 0.16803929E+03 0.91188000E+02 0.0000E+00 0.9000E+01
       21  1    1    2  501  502 0.13191851E+03 0.20333629E+03 0.34743362E+03 0.42362580E+03 0.75000000E+00 0.0000E+00 0.9000E+01
#aMCatNLO 2  0  0  1  2 0.24238016D+03 0.00000000D+00  -5  7  0 0.00000000D+00 0.00000000D+00 0.00000000D+00 0.00000000D+00 0.00000000D+00
  <mgrwgt>
 0.1021665450D-03    2    2    0
 0.545385092568682D+03 0.000000000000000D+00 0.000000000000000D+00 0.545385092568682D+03
 0.545385092568682D+03 0.000000000000000D+00 0.000000000000000D+00 -.545385092568682D+03
 0.507248387694127D+03 0.383730570757477D+03 -.253161802821236D+03 0.198730122332684D+03
 0.270695954574875D+02 -.253231745563975D+02 0.724483918320838D+01 0.624596940656140D+01
 0.417432872843139D+03 -.301282451738475D+03 0.164213794507770D+03 -.237724456667566D+03
 0.139019329142611D+03 -.571249444626048D+02 0.817031691302577D+02 0.327483649283206D+02
 0.000000000000000D+00 0.000000000000000D+00 0.000000000000000D+00 0.000000000000000D+00
 0.793021191956855D+03 0.000000000000000D+00 0.000000000000000D+00 0.793021191956855D+03
 0.621363468629693D+03 0.000000000000000D+00 0.000000000000000D+00 -.621363468629693D+03
 0.520405383373899D+03 0.322336722931411D+03 -.347792930660816D+03 0.198730122332684D+03
 0.294419086663708D+02 -.286992714309281D+02 0.204099765436943D+01 0.624596940656140D+01
 0.433439902067882D+03 -.352115091225545D+03 0.858614811073724D+02 -.237724456667566D+03
 0.134088184382758D+03 -.734408687530454D+02 0.565541619899355D+02 0.327483649283206D+02
 0.297009282095638D+03 0.131918508478108D+03 0.203336289909138D+03 0.171657723327162D+03
-.164302736552D-03 0.000000000000D+00 0.000000000000D+00 0.237202189688D-05 0.000000000000D+00  7 -2 1 -24 -13 13 23 21 2 0.20686662D+00 0.50999686D-01 0.38724343D+06 0.38724343D+06 0.38724343D+06 0.10764438D+01  1  2 13  1  7  1       -2 -.181851943913D-03 0.100000000000D+01
0.277896659045D-03 0.000000000000D+00 0.000000000000D+00 0.237202189688D-05 0.267942165218D-09  7 -2 1 -24 -13 13 23 21 2 0.20072148D+00 0.58104525D-01 0.38724343D+06 0.38724343D+06 0.38724343D+06 0.10764438D+01  1  2  1  1  7  1       -2 0.284018488894D-03 0.100000000000D+01
  </mgrwgt>
  </event>
  <event>
  8     66 0.26562228E-05 0.21177248E+03 0.75467711E-02 0.99081056E-01
       -2 -1    0    0    0  501 0.00000000E+00 0.00000000E+00 0.77159952E+03 0.77159959E+03 0.32000000E+00 0.0000E+00 0.9000E+01
        1 -1    0    0  501    0 0.00000000E+00 0.00000000E+00 -.81291863E+03 0.81291869E+03 0.32000000E+00 0.0000E+00 0.9000E+01
       25  2    1    2    0    0 0.22575904E+03 0.64652845E+01 -.74899211E+03 0.83733875E+03 0.29855999E+03 0.0000E+00 0.0000E+00
       23  2    3    3    0    0 0.85027387E+02 0.99399102E+02 -.48609342E+03 0.51195734E+03 0.93293446E+02 0.0000E+00 0.0000E+00
      -24  1    1    2    0    0 -.22575904E+03 -.64652845E+01 0.70767300E+03 0.74717952E+03 0.80419002E+02 0.0000E+00 0.9000E+01
      -11  1    4    4    0    0 0.97599956E+02 0.91549458E+02 -.34429074E+03 0.36938214E+03 0.51099893E-03 0.0000E+00 0.9000E+01
       11  1    4    4    0    0 -.12572569E+02 0.78496439E+01 -.14180268E+03 0.14257520E+03 0.51099893E-03 0.0000E+00 0.9000E+01
       23  1    3    3    0    0 0.14073165E+03 -.92933818E+02 -.26289868E+03 0.32538141E+03 0.91188000E+02 0.0000E+00 0.9000E+01
#aMCatNLO 1  0  0  2  1 0.86245682D+02 0.00000000D+00  -5  7  0 0.00000000D+00 0.00000000D+00 0.00000000D+00 0.00000000D+00 0.00000000D+00
  <mgrwgt>
 0.1155076318D-02    9    2    0
 0.791989725976032D+03 0.000000000000000D+00 0.000000000000000D+00 0.791989725976032D+03
 0.791989725976032D+03 0.000000000000000D+00 0.000000000000000D+00 -.791989725976032D+03
 0.765893790243240D+03 -.225759041729358D+03 -.646528453988978D+01 0.727404383511707D+03
 0.360526756180452D+03 0.975999560277811D+02 0.915494584659031D+02 -.334772291505695D+03
 0.138924687917842D+03 -.125725691489148D+02 0.784964388543391D+01 -.138131757785592D+03
 0.318634217610530D+03 0.140731654850492D+03 -.929338178114472D+02 -.254500334220420D+03
 0.000000000000000D+00 0.000000000000000D+00 0.000000000000000D+00 -.000000000000000D+00
 0.824051343685589D+03 0.000000000000000D+00 0.000000000000000D+00 0.824051343685589D+03
 0.853365829072379D+03 0.000000000000000D+00 0.000000000000000D+00 -.853365829072379D+03
 0.779322880336571D+03 -.267794236255442D+03 -.678570099825697D+01 0.727404383511707D+03
 0.355708745628743D+03 0.781158932304652D+02 0.914009397194929D+02 -.334772291505695D+03
 0.139811750910968D+03 -.201551565301914D+02 0.779184503803091D+01 -.138131757785592D+03
 0.311482321657653D+03 0.123590323277683D+03 -.930644789114178D+02 -.254500334220420D+03
 0.910914742240334D+02 0.862431762774847D+02 0.657395152150948D+00 -.293144853867906D+02
0.543560147115D-03 0.000000000000D+00 0.000000000000D+00 0.159879877767D-05 0.000000000000D+00  7 -2 1 -24 -11 11 23 21 0 0.11870763D+00 0.12506441D+00 0.84129866D+05 0.84129866D+05 0.84129866D+05 0.11279333D+01  1  2  2  2  7  2        1 0.745777783558D-03 0.100000000000D+01
0.684876711317D-05 0.000000000000D+00 -.208741408759D-05 0.159879877767D-05 0.000000000000D+00  7 -2 1 -24 -11 11 23 21 2 0.11870763D+00 0.12506441D+00 0.84129866D+05 0.84129866D+05 0.84129866D+05 0.11279333D+01  1  2  3  2  7  2        1 0.119547651410D-04 0.100000000000D+01
0.338074300535D-04 0.000000000000D+00 0.000000000000D+00 0.159879877767D-05 0.000000000000D+00  7 -2 1 -24 -11 11 23 21 2 0.11870763D+00 0.12506441D+00 0.84129866D+05 0.84129866D+05 0.84129866D+05 0.11279333D+01  1  2 15  2  7  2        1 0.590120644539D-04 0.100000000000D+01
0.110061895335D-02 0.000000000000D+00 0.000000000000D+00 0.159879877767D-05 0.000000000000D+00  7 -2 1 -24 -11 11 23 21 2 0.11870763D+00 0.13713552D+00 0.11811754D+06 0.11811754D+06 0.11811754D+06 0.11158357D+01  1  2 12  2  7  2        1 0.159278151933D-02 0.100000000000D+01
-.110420350394D-02 0.000000000000D+00 0.000000000000D+00 0.159879877767D-05 0.000000000000D+00  7 -2 1 -24 -11 11 23 21 2 0.11870763D+00 0.12506441D+00 0.84129866D+05 0.84129866D+05 0.84129866D+05 0.11279333D+01  1  2  4  2  7  2        1 -.192742625634D-02 0.100000000000D+01
-.229700055303D-02 0.000000000000D+00 -.697819496212D-03 0.159879877767D-05 0.000000000000D+00  7 -2 1 -24 -11 11 23 21 2 0.11870763D+00 0.13854176D+00 0.84129866D+05 0.84129866D+05 0.84129866D+05 0.11279333D+01  1  2  5  2  7  2        1 -.340032688916D-02 0.100000000000D+01
0.235968750057D-02 0.000000000000D+00 0.694180871587D-03 0.159879877767D-05 0.000000000000D+00  7 -2 1 -24 -11 11 23 21 2 0.11870763D+00 0.12506441D+00 0.84129866D+05 0.84129866D+05 0.84129866D+05 0.11279333D+01  1  2  6  2  7  2        1 0.411891796135D-02 0.100000000000D+01
0.166496628366D-04 0.000000000000D+00 0.000000000000D+00 0.159879877767D-05 0.000000000000D+00  7 -2 21 -24 -11 11 23 -1 2 0.11870763D+00 0.13713552D+00 0.11811754D+06 0.11811754D+06 0.11811754D+06 0.11158357D+01  1  2 12  4  7  2        1 0.382083159334D-04 0.100000000000D+01
-.356580560562D-04 0.000000000000D+00 -.115628566585D-04 0.159879877767D-05 0.000000000000D+00  7 -2 21 -24 -11 11 23 -1 2 0.11870763D+00 0.13854176D+00 0.84129866D+05 0.84129866D+05 0.84129866D+05 0.11279333D+01  1  2  5  4  7  2        1 -.838229460783D-04 0.100000000000D+01
  </mgrwgt>
  </event>
  <event>
  8     66 0.26562228E-05 0.11545942E+03 0.75467711E-02 0.10431630E+00
       -2 -1    0    0    0  501 0.00000000E+00 0.00000000E+00 0.52958406E+02 0.52959373E+02 0.32000000E+00 0.0000E+00 0.9000E+01
        1 -1    0    0  501    0 0.00000000E+00 0.00000000E+00 -.12529774E+04 0.12529774E+04 0.32000000E+00 0.0000E+00 0.9000E+01
       25  2    1    2    0    0 -.12602189E+03 -.50671501E+02 -.98999143E+03 0.10432052E+04 0.29957451E+03 0.0000E+00 0.0000E+00
       23  2    3    3    0    0 -.11578105E+03 -.11524922E+03 -.38884883E+03 0.43168017E+03 0.91960431E+02 0.0000E+00 0.0000E+00
      -24  1    1    2    0    0 0.12602189E+03 0.50671501E+02 -.21002753E+03 0.26273161E+03 0.80419002E+02 0.0000E+00 0.9000E+01
      -13  1    4    4    0    0 -.10186638E+03 -.10798076E+03 -.24135272E+03 0.28335093E+03 0.10565837E+00 0.0000E+00 0.9000E+01
       13  1    4    4    0    0 -.13914670E+02 -.72684569E+01 -.14749611E+03 0.14832924E+03 0.10565837E+00 0.0000E+00 0.9000E+01
       23  1    3    3    0    0 -.10240839E+02 0.64577716E+02 -.60114260E+03 0.61152500E+03 0.91188000E+02 0.0000E+00 0.9000E+01
#aMCatNLO 1  0  0  2  1 0.27056505D+02 0.00000000D+00  -5  7  0 0.00000000D+00 0.00000000D+00 0.00000000D+00 0.00000000D+00 0.00000000D+00
  <mgrwgt>
 0.2108223324D-02    9    2    0
 0.257597246921654D+03 0.000000000000000D+00 0.000000000000000D+00 0.257597246921654D+03
 0.257597246921654D+03 0.000000000000000D+00 0.000000000000000D+00 -.257597246921654D+03
 0.176775664720487D+03 0.126021888949860D+03 0.506715012499361D+02 0.795820466536670D+02
 0.156078234035251D+03 -.101866495242156D+03 -.107980893069634D+03 0.482053837089465D+02
 0.324351125604579D+02 -.139145545610701D+02 -.726832436399295D+01 -.283829730492836D+02
 0.149905482527112D+03 -.102408391466333D+02 0.645777161836907D+02 -.994044573133299D+02
 0.000000000000000D+00 -.000000000000000D+00 0.000000000000000D+00 -.000000000000000D+00
 0.269626927128014D+03 0.000000000000000D+00 0.000000000000000D+00 0.269626927128014D+03
 0.273628330852115D+03 0.000000000000000D+00 0.000000000000000D+00 -.273628330852115D+03
 0.180961327622309D+03 0.133753646614434D+03 0.453480540730537D+02 0.795820466536670D+02
 0.155102932058986D+03 -.951409470950002D+02 -.112611547812088D+03 0.482053837089465D+02
 0.320943938484041D+02 -.125198804947946D+02 -.822858127359625D+01 -.283829730492836D+02
 0.147745815266311D+03 -.380771159106995D+01 0.601483980118215D+02 -.994044573133299D+02
 0.273507891841190D+02 -.222851074335694D+02 0.153436770008088D+02 -.400140372410034D+01
0.915654604552D-05 0.000000000000D+00 0.000000000000D+00 0.128808551205D-05 0.000000000000D+00  7 -2 1 -24 -13 13 23 21 0 0.81475246D-02 0.19276583D+00 0.47132860D+05 0.47132860D+05 0.47132860D+05 0.11495581D+01  1  2  2  2  7  2        1 0.841450892398D-03 0.100000000000D+01
-.490604113288D-06 0.000000000000D+00 -.351635477887D-07 0.128808551205D-05 0.000000000000D+00  7 -2 1 -24 -13 13 23 21 2 0.81475246D-02 0.19276583D+00 0.47132860D+05 0.47132860D+05 0.47132860D+05 0.11495581D+01  1  2  3  2  7  2        1 -.595785743392D-04 0.100000000000D+01
0.593262389897D-06 0.000000000000D+00 0.000000000000D+00 0.128808551205D-05 0.000000000000D+00  7 -2 1 -24 -13 13 23 21 2 0.81475246D-02 0.19276583D+00 0.47132860D+05 0.47132860D+05 0.47132860D+05 0.11495581D+01  1  2 15  2  7  2        1 0.720453140155D-04 0.100000000000D+01
0.177485546500D-04 0.000000000000D+00 0.000000000000D+00 0.128808551205D-05 0.000000000000D+00  7 -2 1 -24 -13 13 23 21 2 0.81475246D-02 0.20901976D+00 0.53196657D+05 0.53196657D+05 0.53196657D+05 0.11449355D+01  1  2 12  2  7  2        1 0.181341110917D-02 0.100000000000D+01
-.151462815712D-04 0.000000000000D+00 0.000000000000D+00 0.128808551205D-05 0.000000000000D+00  7 -2 1 -24 -13 13 23 21 2 0.81475246D-02 0.19276583D+00 0.47132860D+05 0.47132860D+05 0.47132860D+05 0.11495581D+01  1  2  4  2  7  2        1 -.183935241901D-02 0.100000000000D+01
-.612424210923D-04 0.000000000000D+00 -.123553562693D-04 0.128808551205D-05 0.000000000000D+00  7 -2 1 -24 -13 13 23 21 2 0.81475246D-02 0.21073864D+00 0.47132860D+05 0.47132860D+05 0.47132860D+05 0.11495581D+01  1  2  5  2  7  2        1 -.620628163568D-02 0.100000000000D+01
0.621456571592D-04 0.000000000000D+00 0.123064279695D-04 0.128808551205D-05 0.000000000000D+00  7 -2 1 -24 -13 13 23 21 2 0.81475246D-02 0.19276583D+00 0.47132860D+05 0.47132860D+05 0.47132860D+05 0.11495581D+01  1  2  6  2  7  2        1 0.754691930752D-02 0.100000000000D+01
0.239570503746D-06 0.000000000000D+00 0.000000000000D+00 0.128808551205D-05 0.000000000000D+00  7 -2 21 -24 -13 13 23 -1 2 0.81475246D-02 0.20901976D+00 0.53196657D+05 0.53196657D+05 0.53196657D+05 0.11449355D+01  1  2 12  4  7  2        1 0.234852274840D-04 0.100000000000D+01
-.867162258588D-06 0.000000000000D+00 -.181572537782D-06 0.128808551205D-05 0.000000000000D+00  7 -2 21 -24 -13 13 23 -1 2 0.81475246D-02 0.21073864D+00 0.47132860D+05 0.47132860D+05 0.47132860D+05 0.11495581D+01  1  2  5  4  7  2        1 -.838758978746D-04 0.100000000000D+01
  </mgrwgt>
  </event>
  <event>
  7     66 0.26562228E-05 0.28388145E+03 0.75467711E-02 0.89078234E-01
       -2 -1    0    0    0  501 0.00000000E+00 0.00000000E+00 0.26563361E+03 0.26563380E+03 0.32000000E+00 0.0000E+00 0.9000E+01
        1 -1    0    0  501    0 0.00000000E+00 0.00000000E+00 -.75216849E+03 0.75216856E+03 0.32000000E+00 0.0000E+00 0.9000E+01
       25  2    1    2    0    0 -.16146949E+03 -.11590064E+03 -.65334450E+03 0.74614446E+03 0.30061131E+03 0.0000E+00 0.0000E+00
      -24  1    1    2    0    0 0.16146949E+03 0.11590064E+03 0.16680961E+03 0.27165791E+03 0.80419002E+02 0.0000E+00 0.9000E+01
      -13  1    3    3    0    0 0.51877367E+02 0.33683053E+02 -.16953839E+03 0.18046908E+03 0.10565837E+00 0.0000E+00 0.9000E+01
       13  1    3    3    0    0 -.11825003E+03 -.65103919E+02 -.25388950E+03 0.28754388E+03 0.10565837E+00 0.0000E+00 0.9000E+01
       23  1    3    3    0    0 -.95096821E+02 -.84479775E+02 -.22991661E+03 0.27813151E+03 0.91188000E+02 0.0000E+00 0.9000E+01
#aMCatNLO 1  0  0  2  1 0.77197035D+03 0.00000000D+00  -5  7  0 0.00000000D+00 0.00000000D+00 0.00000000D+00 0.00000000D+00 0.00000000D+00
  <mgrwgt>
 0.1239292083D-02    5    2    0
 0.446991458959660D+03 0.000000000000000D+00 0.000000000000000D+00 0.446991458959660D+03
 0.446991458959660D+03 0.000000000000000D+00 0.000000000000000D+00 -.446991458959660D+03
 0.400066655208003D+03 0.161469488377319D+03 0.115900640258182D+03 0.337758432264627D+03
 0.113196443705780D+03 0.518773420403012D+02 0.336834922661678D+02 -.948029461526614D+02
 0.189191560933569D+03 -.118247639232002D+03 -.651019356758804D+02 -.132561987446598D+03
 0.191528258071969D+03 -.950991911856183D+02 -.844821968484698D+02 -.110393498665368D+03
 0.000000000000000D+00 0.000000000000000D+00 -.000000000000000D+00 -.000000000000000D+00
 0.800806939895633D+03 0.000000000000000D+00 0.000000000000000D+00 0.800806939895633D+03
 0.129926878088649D+04 0.000000000000000D+00 0.000000000000000D+00 -.129926878088649D+04
 0.417501150799681D+03 -.133639668058581D+03 0.189472096943114D+03 0.337758432264627D+03
 0.113128484435484D+03 -.298168711287976D+02 0.540500655645651D+02 -.948029461526614D+02
 0.335444358914993D+03 -.307620144612952D+03 -.178908926665190D+02 -.132561987446598D+03
 0.315088007422452D+03 -.277967324749771D+03 -.388927101308940D+02 -.110393498665368D+03
 0.918913719209517D+03 0.749044008550102D+03 -.186738559710267D+03 -.498461840990859D+03
0.768273666717D-04 0.000000000000D+00 0.000000000000D+00 0.110928589376D-08 0.000000000000D+00  7 -2 1 -24 -13 13 23 21 0 0.40866729D-01 0.11571825D+00 0.80588680D+05 0.80588680D+05 0.80588680D+05 0.11294955D+01  1  2  2  2  7  2        1 0.118532331036D-02 0.100000000000D+01
-.319863074809D-05 0.000000000000D+00 -.295037317130D-06 0.110928589376D-08 0.000000000000D+00  7 -2 1 -24 -13 13 23 21 2 0.40866729D-01 0.11571825D+00 0.80588680D+05 0.80588680D+05 0.80588680D+05 0.11294955D+01  1  2  3  2  7  2        1 -.629584407286D-04 0.100000000000D+01
0.464690237330D-05 0.000000000000D+00 0.000000000000D+00 0.110928589376D-08 0.000000000000D+00  7 -2 1 -24 -13 13 23 21 2 0.40866729D-01 0.11571825D+00 0.80588680D+05 0.80588680D+05 0.80588680D+05 0.11294955D+01  1  2 15  2  7  2        1 0.914646768201D-04 0.100000000000D+01
0.336445527633D-04 0.000000000000D+00 -.264558081342D-04 0.110928589376D-08 0.000000000000D+00  7 -2 1 -24 -13 13 23 21 2 0.40866729D-01 0.43514758D+00 0.80588680D+05 0.80588680D+05 0.80588680D+05 0.11294955D+01  1  2  5  2  7  2        1 0.242902778165D-04 0.100000000000D+01
0.584165160363D-05 0.000000000000D+00 -.414615146985D-05 0.110928589376D-08 0.000000000000D+00  7 -2 21 -24 -13 13 23 -1 2 0.40866729D-01 0.43514758D+00 0.80588680D+05 0.80588680D+05 0.80588680D+05 0.11294955D+01  1  2  5  4  7  2        1 0.117225875949D-05 0.100000000000D+01
  </mgrwgt>
  </event>
  <event>
  9     66 0.26562228E-05 0.19540219E+03 0.75467711E-02 0.10566310E+00
       -2 -1    0    0    0  501 0.00000000E+00 0.00000000E+00 0.11864135E+03 0.11864178E+03 0.32000000E+00 0.0000E+00 0.9000E+01
        1 -1    0    0  502    0 0.00000000E+00 0.00000000E+00 -.12636362E+04 0.12636362E+04 0.32000000E+00 0.0000E+00 0.9000E+01
       25  2    1    2    0    0 -.86162219E+02 0.35303965E+02 -.11700977E+04 0.12117083E+04 0.30072932E+03 0.0000E+00 0.0000E+00
       23  2    3    3    0    0 0.52165429E+02 -.15457989E+02 -.74334105E+03 0.75111326E+03 0.93032460E+02 0.0000E+00 0.0000E+00
      -24  1    1    2    0    0 0.10522663E+03 -.25734659E+02 0.44157071E+02 0.14195766E+03 0.80419002E+02 0.0000E+00 0.9000E+01
      -13  1    4    4    0    0 -.15499430E+02 -.15376597E+02 -.51044397E+02 0.55517688E+02 0.10565837E+00 0.0000E+00 0.9000E+01
       13  1    4    4    0    0 0.67664859E+02 -.81392491E-01 -.69229665E+03 0.69559557E+03 0.10565837E+00 0.0000E+00 0.9000E+01
       23  1    3    3    0    0 -.13832765E+03 0.50761954E+02 -.42675663E+03 0.46059503E+03 0.91188000E+02 0.0000E+00 0.9000E+01
       21  1    1    2  502  501 -.19064406E+02 -.95693054E+01 -.19054220E+02 0.28612043E+02 0.75000000E+00 0.0000E+00 0.9000E+01
#aMCatNLO 2  0  0  2  1 0.21331272D+02 0.00000000D+00  -5  7  0 0.00000000D+00 0.00000000D+00 0.00000000D+00 0.00000000D+00 0.00000000D+00
  <mgrwgt>
 0.8901754774D-03    2    2    0
 0.375570985727604D+03 0.000000000000000D+00 0.000000000000000D+00 0.375570985727604D+03
 0.375570985727604D+03 0.000000000000000D+00 0.000000000000000D+00 -.375570985727604D+03
 0.319675486941354D+03 0.970866376747066D+02 -.298204950458696D+02 0.292250104973567D+03
 0.241257874825939D+02 -.161041424922106D+02 -.156800955416866D+02 -.876611772961342D+01
 0.214114135609924D+03 0.622110506819791D+02 -.281894470950460D+01 -.204857759901240D+03
 0.193226561421337D+03 -.143193545864475D+03 0.483195352970608D+02 -.786262273427137D+02
 0.000000000000000D+00 -.000000000000000D+00 -.000000000000000D+00 0.000000000000000D+00
 0.391485569335998D+03 0.000000000000000D+00 0.000000000000000D+00 0.391485569335998D+03
 0.382938954450424D+03 0.000000000000000D+00 0.000000000000000D+00 -.382938954450424D+03
 0.321888575698535D+03 0.105226625216274D+03 -.257346594963644D+02 0.292250104973567D+03
 0.235270223796804D+02 -.154995368087135D+02 -.153766160360423D+02 -.876611772961342D+01
 0.215743495783469D+03 0.676649655253265D+02 -.813730563381867D-01 -.204857759901240D+03
 0.190285704145788D+03 -.138327648215986D+03 0.507619539728790D+02 -.786262273427137D+02
 0.229797257789503D+02 -.190644057169012D+02 -.956930538413410D+01 0.854661488557424D+01
-.132178737169D-04 0.000000000000D+00 0.000000000000D+00 0.140711337342D-05 0.000000000000D+00  7 -2 1 -24 -13 13 23 21 2 0.17510276D-01 0.19066210D+00 0.38182015D+05 0.38182015D+05 0.38182015D+05 0.11577411D+01  1  2  8  2  7  2        1 -.508712597722D-03 0.100000000000D+01
0.408633947418D-04 0.000000000000D+00 0.000000000000D+00 0.140711337342D-05 0.219117345540D-07  7 -2 1 -24 -13 13 23 21 2 0.18252263D-01 0.19440252D+00 0.43895744D+05 0.43895744D+05 0.43895744D+05 0.11523028D+01  1  2  1  2  7  2        1 0.139888807508D-02 0.100000000000D+01
  </mgrwgt>
  </event>
  <event>
  8     66 0.26562228E-05 0.15349642E+03 0.75467711E-02 0.96364972E-01
       -2 -1    0    0    0  501 0.00000000E+00 0.00000000E+00 0.31759696E+03 0.31759712E+03 0.32000000E+00 0.0000E+00 0.9000E+01
        1 -1    0    0  501    0 0.00000000E+00 0.00000000E+00 -.65822662E+03 0.65822670E+03 0.32000000E+00 0.0000E+00 0.9000E+01
       25  2    1    2    0    0 -.32871398E+03 0.22885521E+03 -.12904094E+03 0.51575362E+03 0.29819901E+03 0.0000E+00 0.0000E+00
       23  2    3    3    0    0 -.27884233E+03 0.15731338E+03 -.18096668E+03 0.37930967E+03 0.92878120E+02 0.0000E+00 0.0000E+00
      -24  1    1    2    0    0 0.32871398E+03 -.22885521E+03 -.21158872E+03 0.46007020E+03 0.80419002E+02 0.0000E+00 0.9000E+01
      -11  1    4    4    0    0 -.26840324E+03 0.13402269E+03 -.14004650E+03 0.33108217E+03 0.51099893E-03 0.0000E+00 0.9000E+01
       11  1    4    4    0    0 -.10439085E+02 0.23290687E+02 -.40920180E+02 0.48227500E+02 0.51099893E-03 0.0000E+00 0.9000E+01
       23  1    3    3    0    0 -.49871647E+02 0.71541837E+02 0.51925749E+02 0.13644395E+03 0.91188000E+02 0.0000E+00 0.9000E+01
#aMCatNLO 1  0  0  2  1 0.21331272D+02 0.00000000D+00  -5  7  0 0.00000000D+00 0.00000000D+00 0.00000000D+00 0.00000000D+00 0.00000000D+00
  <mgrwgt>
 0.8602148047D-05    1    2    0
 0.457220835499491D+03 0.000000000000000D+00 0.000000000000000D+00 0.457220835499491D+03
 0.457220835499491D+03 0.000000000000000D+00 0.000000000000000D+00 -.457220835499491D+03
 0.412135712148869D+03 0.328713976492828D+03 -.228855214177300D+03 -.544154562254135D+02
 0.301138814509359D+03 -.268403244908544D+03 0.134022689301752D+03 -.261190060873769D+02
 0.362220109999215D+02 -.104390846576115D+02 0.232906874917054D+02 -.257022074646006D+02
 0.164945133340833D+03 -.498716469266723D+02 0.715418373838425D+02 0.106236669777391D+03
 0.000000000000000D+00 0.000000000000000D+00 0.000000000000000D+00 0.000000000000000D+00
 0.617429833241753D+03 0.000000000000000D+00 0.000000000000000D+00 0.617429833241753D+03
 0.588516593661730D+03 0.000000000000000D+00 0.000000000000000D+00 -.588516593661730D+03
 0.380638802422010D+03 0.234919792692465D+03 -.283320191797198D+03 -.544154562254135D+02
 0.358582230948281D+03 -.346455699745737D+03 0.886987146837294D+02 -.261190060873769D+02
 0.368598220462923D+02 -.190854913662257D+02 0.182698394092746D+02 -.257022074646006D+02
 0.173245884029418D+03 -.898834659998762D+02 0.483075307130592D+02 0.106236669777391D+03
 0.256619687457482D+03 0.220504864419374D+03 0.128044106991135D+03 0.289132395800223D+02
0.540907625928D-06 0.000000000000D+00 0.000000000000D+00 0.272654999084D-06 0.000000000000D+00  7 -2 1 -24 -11 11 23 21 2 0.48861090D-01 0.10126565D+00 0.18499970D+06 0.18499970D+06 0.18499970D+06 0.11004353D+01  1  2 14  2  7  2        1 0.860214804675D-05 0.100000000000D+01
  </mgrwgt>
  </event>
  <event>
  8     66 0.26562228E-05 0.19061824E+03 0.75467711E-02 0.10420391E+00
       -2 -1    0    0    0  501 0.00000000E+00 0.00000000E+00 0.44628738E+02 0.44629885E+02 0.32000000E+00 0.0000E+00 0.9000E+01
        1 -1    0    0  501    0 0.00000000E+00 0.00000000E+00 -.16690263E+04 0.16690263E+04 0.32000000E+00 0.0000E+00 0.9000E+01
       25  2    1    2    0    0 0.12322292E+03 -.92330241E+02 -.75069430E+03 0.82285132E+03 0.29972253E+03 0.0000E+00 0.0000E+00
       23  2    3    3    0    0 -.82309276E+01 -.11964064E+03 -.48793167E+03 0.51400601E+03 0.10836621E+03 0.0000E+00 0.0000E+00
      -24  1    1    2    0    0 -.12322292E+03 0.92330241E+02 -.87370323E+03 0.89080486E+03 0.80419002E+02 0.0000E+00 0.9000E+01
      -13  1    4    4    0    0 0.17615410E+02 -.57408339E+02 -.77311761E+02 0.97893512E+02 0.10565837E+00 0.0000E+00 0.9000E+01
       13  1    4    4    0    0 -.25846337E+02 -.62232300E+02 -.41061991E+03 0.41611250E+03 0.10565837E+00 0.0000E+00 0.9000E+01
       23  1    3    3    0    0 0.13145385E+03 0.27310398E+02 -.26276263E+03 0.30884531E+03 0.91188000E+02 0.0000E+00 0.9000E+01
#aMCatNLO 1  0  0  2  1 0.15585262D+01 0.00000000D+00  -5  7  0 0.00000000D+00 0.00000000D+00 0.00000000D+00 0.00000000D+00 0.00000000D+00
  <mgrwgt>
 0.2185386883D-02   10    2    0
 0.272924065801029D+03 0.000000000000000D+00 0.000000000000000D+00 0.272924065801029D+03
 0.272924065801029D+03 0.000000000000000D+00 0.000000000000000D+00 -.272924065801029D+03
 0.196559985663107D+03 -.123222919458036D+03 0.923302415745333D+02 -.919774462601391D+02
 0.772571198424178D+02 0.176152517729891D+02 -.574083273768679D+02 0.486070922717074D+02
 0.843893956231357D+02 -.258463976242041D+02 -.622324029941065D+02 -.508002149706946D+02
 0.187641630473397D+03 0.131454065309251D+03 0.273104887964411D+02 0.941705689591264D+02
 0.000000000000000D+00 -.000000000000000D+00 0.000000000000000D+00 -.000000000000000D+00
 0.273545099529976D+03 0.000000000000000D+00 0.000000000000000D+00 0.273545099529976D+03
 0.273904739780969D+03 0.000000000000000D+00 0.000000000000000D+00 -.273904739780969D+03
 0.196241879351642D+03 -.123128852435757D+03 0.917774173444137D+02 -.919774462601391D+02
 0.774274634641743D+02 0.176522951769036D+02 -.576260284452541D+02 0.486070922717074D+02
 0.845525308519716D+02 -.258059399141548D+02 -.624701696616222D+02 -.508002149706946D+02
 0.187628482911153D+03 0.131543933879796D+03 0.267823385252837D+02 0.941705689591264D+02
 0.159948273200370D+01 -.261436706787960D+00 0.153644223717889D+01 -.359640250993437D+00
0.819705367534D-05 0.000000000000D+00 0.000000000000D+00 0.116294199030D-07 0.000000000000D+00  7 -2 1 -24 -13 13 23 21 0 0.68660503D-02 0.25677336D+00 0.53696169D+05 0.53696169D+05 0.53696169D+05 0.11445809D+01  1  2  2  2  7  2        1 0.516826169805D-03 0.100000000000D+01
-.440564197855D-06 0.000000000000D+00 -.314788444471D-07 0.116294199030D-07 0.000000000000D+00  7 -2 1 -24 -13 13 23 21 2 0.68660503D-02 0.25677336D+00 0.53696169D+05 0.53696169D+05 0.53696169D+05 0.11445809D+01  1  2  3  2  7  2        1 -.363905752680D-04 0.100000000000D+01
0.525636946363D-06 0.000000000000D+00 0.000000000000D+00 0.116294199030D-07 0.000000000000D+00  7 -2 1 -24 -13 13 23 21 2 0.68660503D-02 0.25677336D+00 0.53696169D+05 0.53696169D+05 0.53696169D+05 0.11445809D+01  1  2 15  2  7  2        1 0.434175789893D-04 0.100000000000D+01
-.252064888021D-03 0.000000000000D+00 0.000000000000D+00 0.116294199030D-07 0.000000000000D+00  7 -2 1 -24 -13 13 23 21 2 0.68660503D-02 0.25677336D+00 0.53696169D+05 0.53696169D+05 0.53696169D+05 0.11445809D+01  1  2  4  2  7  2        1 -.208205440310D-01 0.100000000000D+01
-.197070401154D-02 0.000000000000D+00 -.180122540278D-03 0.116294199030D-07 0.000000000000D+00  7 -2 1 -24 -13 13 23 21 2 0.68660503D-02 0.25801253D+00 0.53696169D+05 0.53696169D+05 0.53696169D+05 0.11445809D+01  1  2  5  2  7  2        1 -.160833412570D+00 0.100000000000D+01
0.197155041624D-02 0.000000000000D+00 0.180120452898D-03 0.116294199030D-07 0.000000000000D+00  7 -2 1 -24 -13 13 23 21 2 0.68660503D-02 0.25677336D+00 0.53696169D+05 0.53696169D+05 0.53696169D+05 0.11445809D+01  1  2  6  2  7  2        1 0.162849941430D+00 0.100000000000D+01
0.252067694541D-03 0.000000000000D+00 0.000000000000D+00 0.116294199030D-07 0.334369984733D-07  7 -2 1 -24 -13 13 23 21 2 0.68816739D-02 0.25769600D+00 0.54069075D+05 0.54069075D+05 0.54069075D+05 0.11443186D+01  1  2 11  2  7  2        1 0.205539027627D-01 0.100000000000D+01
0.624356066758D-10 0.000000000000D+00 0.000000000000D+00 0.116294199030D-07 0.000000000000D+00  7 -2 21 -24 -13 13 23 -1 2 0.68660503D-02 0.25798729D+00 0.54069075D+05 0.54069075D+05 0.54069075D+05 0.11443186D+01  1  2 12  4  7  2        1 0.364972195737D-08 0.100000000000D+01
-.176458626056D-05 0.000000000000D+00 -.161425589409D-06 0.116294199030D-07 0.000000000000D+00  7 -2 21 -24 -13 13 23 -1 2 0.68660503D-02 0.25801253D+00 0.53696169D+05 0.53696169D+05 0.53696169D+05 0.11445809D+01  1  2  5  4  7  2        1 -.103201913372D-03 0.100000000000D+01
0.253676713029D-06 0.000000000000D+00 0.000000000000D+00 0.116294199030D-07 0.223673541241D-10  7 -2 21 -24 -13 13 23 -1 2 0.68816739D-02 0.25769600D+00 0.54069075D+05 0.54069075D+05 0.54069075D+05 0.11443186D+01  1  2 11  4  7  2        1 0.148443818073D-04 0.100000000000D+01
  </mgrwgt>
  </event>
  <event>
  8     66 0.26562228E-05 0.25475530E+03 0.75467711E-02 0.91578162E-01
       -2 -1    0    0    0  501 0.00000000E+00 0.00000000E+00 0.23718717E+03 0.23718739E+03 0.32000000E+00 0.0000E+00 0.9000E+01
        1 -1    0    0  501    0 0.00000000E+00 0.00000000E+00 -.10622263E+04 0.10622264E+04 0.32000000E+00 0.0000E+00 0.9000E+01
       25  2    1    2    0    0 0.19702520E+02 -.40533871E+03 -.70789471E+03 0.86943971E+03 0.30020465E+03 0.0000E+00 0.0000E+00
       23  2    3    3    0    0 -.62390363E+02 -.34402808E+03 -.44831122E+03 0.57584633E+03 0.91477655E+02 0.0000E+00 0.0000E+00
      -24  1    1    2    0    0 -.19702520E+02 0.40533871E+03 -.11714445E+03 0.42997406E+03 0.80419002E+02 0.0000E+00 0.9000E+01
      -13  1    4    4    0    0 -.62850930E+02 -.34324211E+03 -.41366387E+03 0.54118684E+03 0.10565837E+00 0.0000E+00 0.9000E+01
       13  1    4    4    0    0 0.46056697E+00 -.78597020E+00 -.34647352E+02 0.34659487E+02 0.10565837E+00 0.0000E+00 0.9000E+01
       23  1    3    3    0    0 0.82092884E+02 -.61310621E+02 -.25958349E+03 0.29359338E+03 0.91188000E+02 0.0000E+00 0.9000E+01
#aMCatNLO 1  0  0  1  2 0.34708400D+03 0.00000000D+00  -5  7  0 0.00000000D+00 0.00000000D+00 0.00000000D+00 0.00000000D+00 0.00000000D+00
  <mgrwgt>
 0.1124502922D-02    7    2    0
 0.501942858055508D+03 0.000000000000000D+00 0.000000000000000D+00 0.501942858055508D+03
 0.501942858055508D+03 0.000000000000000D+00 0.000000000000000D+00 -.501942858055508D+03
 0.460276953092297D+03 -.197025204845996D+02 0.405338705232657D+03 0.201742415769281D+03
 0.360536260722970D+03 -.628510146941591D+02 -.343242571096518D+03 -.906679802083818D+02
 0.163874544557980D+02 0.460651430990540D+00 -.785513352231071D+00 -.163621341081609D+02
 0.166685047839952D+03 0.820928837477682D+02 -.613106207839075D+02 -.947123014527381D+02
 0.000000000000000D+00 -.000000000000000D+00 -.000000000000000D+00 0.000000000000000D+00
 0.152091503622067D+04 0.000000000000000D+00 0.000000000000000D+00 0.152091503622067D+04
 0.561523081670033D+03 0.000000000000000D+00 0.000000000000000D+00 -.561523081670033D+03
 0.558164884240495D+03 0.123368029210728D+03 0.499160444239195D+03 0.201742415769281D+03
 0.298227822569911D+03 0.296920604833914D+02 -.282555362829966D+03 -.906679802083818D+02
 0.173235155886895D+02 0.519636321955834D+01 0.232003643690000D+01 -.163621341081609D+02
 0.188476715146721D+03 0.131985952550146D+03 -.285921158967708D+02 -.947123014527381D+02
 0.102024518034489D+04 -.290242405463824D+03 -.190333001949358D+03 0.959391954550641D+03
0.145246387805D-03 0.000000000000D+00 0.000000000000D+00 0.151478621171D-04 0.000000000000D+00  7 -2 1 -24 -13 13 23 21 0 0.36490355D-01 0.16341946D+00 0.20282908D+06 0.20282908D+06 0.20282908D+06 0.10973572D+01  1  2  2  1  7  1       -2 0.151989801887D-02 0.100000000000D+01
-.795390171042D-05 0.000000000000D+00 -.557784373423D-06 0.151478621171D-04 0.000000000000D+00  7 -2 1 -24 -13 13 23 21 2 0.36490355D-01 0.16341946D+00 0.20282908D+06 0.20282908D+06 0.20282908D+06 0.10973572D+01  1  2  3  1  7  1       -2 -.100227141602D-03 0.100000000000D+01
0.926824161618D-05 0.000000000000D+00 0.000000000000D+00 0.151478621171D-04 0.000000000000D+00  7 -2 1 -24 -13 13 23 21 2 0.36490355D-01 0.16341946D+00 0.20282908D+06 0.20282908D+06 0.20282908D+06 0.10973572D+01  1  2 15  1  7  1       -2 0.116789143075D-03 0.100000000000D+01
0.294437932217D-04 0.000000000000D+00 0.000000000000D+00 0.151478621171D-04 0.000000000000D+00  7 -2 1 -24 -13 13 23 21 2 0.10774849D+00 0.16341946D+00 0.43577665D+06 0.43577665D+06 0.43577665D+06 0.10727559D+01  1  2 12  1  7  1       -2 0.345564799476D-04 0.100000000000D+01
-.218706435135D-03 0.000000000000D+00 -.461253650960D-04 0.151478621171D-04 0.000000000000D+00  7 -2 1 -24 -13 13 23 21 2 0.11723060D+00 0.16341946D+00 0.20282908D+06 0.20282908D+06 0.20282908D+06 0.10973572D+01  1  2  5  1  7  1       -2 -.226719222049D-03 0.100000000000D+01
0.361642439975D-05 0.000000000000D+00 0.000000000000D+00 0.151478621171D-04 0.000000000000D+00  7 21 1 -24 -13 13 23 2 2 0.10774849D+00 0.16341946D+00 0.43577665D+06 0.43577665D+06 0.43577665D+06 0.10727559D+01  1  2 12  3  7  1       -2 0.381073758962D-04 0.100000000000D+01
-.274431523597D-04 0.000000000000D+00 -.620404138724D-05 0.151478621171D-04 0.000000000000D+00  7 21 1 -24 -13 13 23 2 2 0.11723060D+00 0.16341946D+00 0.20282908D+06 0.20282908D+06 0.20282908D+06 0.10973572D+01  1  2  5  3  7  1       -2 -.257901732211D-03 0.100000000000D+01
  </mgrwgt>
  </event>
  <event>
  8     66 0.26562228E-05 0.22803250E+03 0.75467711E-02 0.93377979E-01
       -4 -1    0    0    0  501 0.00000000E+00 0.00000000E+00 0.39468432E+03 0.39468736E+03 0.15500000E+01 0.0000E+00 0.9000E+01
        3 -1    0    0  501    0 0.00000000E+00 0.00000000E+00 -.33966100E+03 0.33966137E+03 0.50000000E+00 0.0000E+00 0.9000E+01
       25  2    1    2    0    0 0.90365577E+02 0.13403117E+03 -.22044903E+03 0.40498188E+03 0.29880137E+03 0.0000E+00 0.0000E+00
       23  2    3    3    0    0 0.12558609E+03 0.12496784E+03 -.44997195E+02 0.20393157E+03 0.90413023E+02 0.0000E+00 0.0000E+00
      -24  1    1    2    0    0 -.90365577E+02 -.13403117E+03 0.27547235E+03 0.32936685E+03 0.80419002E+02 0.0000E+00 0.9000E+01
      -13  1    4    4    0    0 0.12173624E+03 0.11896185E+03 -.65380581E+02 0.18233558E+03 0.10565837E+00 0.0000E+00 0.9000E+01
       13  1    4    4    0    0 0.38498458E+01 0.60059850E+01 0.20383386E+02 0.21595990E+02 0.10565837E+00 0.0000E+00 0.9000E+01
       23  1    3    3    0    0 -.35220509E+02 0.90633320E+01 -.17545184E+03 0.20105031E+03 0.91188000E+02 0.0000E+00 0.9000E+01
#aMCatNLO 1  0  0  2  2 0.46040646D+03 0.00000000D+00  -5  7  0 0.00000000D+00 0.00000000D+00 0.00000000D+00 0.00000000D+00 0.00000000D+00
  <mgrwgt>
 0.1570511139D-03    3    2    0
 0.366142216678730D+03 0.000000000000000D+00 0.000000000000000D+00 0.366142216678730D+03
 0.366142216678730D+03 0.000000000000000D+00 0.000000000000000D+00 -.366142216678730D+03
 0.309596536949751D+03 -.903655766362182D+02 -.134031167695472D+03 0.251500513681980D+03
 0.187762462992059D+03 0.121736400290921D+03 0.118962004834302D+03 -.792655836971917D+02
 0.201250465861477D+02 0.384968482797419D+01 0.600583071007561D+01 0.188182736801704D+02
 0.214800386829502D+03 -.352205084826773D+02 0.906333215109500D+01 -.191053203664959D+03
 0.000000000000000D+00 -.000000000000000D+00 0.000000000000000D+00 0.000000000000000D+00
 0.978990827452909D+03 0.000000000000000D+00 0.000000000000000D+00 0.978990827452909D+03
 0.529467028254032D+03 0.000000000000000D+00 0.000000000000000D+00 -.529467028254032D+03
 0.422294465838197D+03 -.107376703764334D+02 -.329389729614912D+03 0.251500513681980D+03
 0.181417542175909D+03 0.161902259322555D+03 0.204193603362906D+02 -.792655836971917D+02
 0.211891078005373D+02 0.834456125106690D+01 -.502186843796127D+01 0.188182736801704D+02
 0.240092870547821D+03 0.142707375070542D+02 -.112358153083136D+03 -.191053203664959D+03
 0.643463869344476D+03 -.173779887704243D+03 0.426350390799719D+03 0.449523799198877D+03
0.531061564345D-04 0.000000000000D+00 0.000000000000D+00 0.100655574089D-05 0.000000000000D+00  7 -4 3 -24 -13 13 23 21 0 0.60720926D-01 0.52255801D-01 0.51998823D+05 0.51998823D+05 0.51998823D+05 0.11458010D+01  1  2  2  2  7  2        3 0.152793191249D-03 0.100000000000D+01
-.214597260609D-05 0.000000000000D+00 -.203941623881D-06 0.100655574089D-05 0.000000000000D+00  7 -4 3 -24 -13 13 23 21 2 0.60720926D-01 0.52255801D-01 0.51998823D+05 0.51998823D+05 0.51998823D+05 0.11458010D+01  1  2  3  2  7  2        3 -.810590871306D-05 0.100000000000D+01
0.327322258890D-05 0.000000000000D+00 0.000000000000D+00 0.100655574089D-05 0.000000000000D+00  7 -4 3 -24 -13 13 23 21 2 0.60720926D-01 0.52255801D-01 0.51998823D+05 0.51998823D+05 0.51998823D+05 0.11458010D+01  1  2 15  2  7  2        3 0.123638314058D-04 0.100000000000D+01
  </mgrwgt>
  </event>
  <event>
  8     66 0.26562228E-05 0.21943861E+03 0.75467711E-02 0.97314038E-01
       -2 -1    0    0    0  501 0.00000000E+00 0.00000000E+00 0.17191005E+03 0.17191034E+03 0.32000000E+00 0.0000E+00 0.9000E+01
        1 -1    0    0  501    0 0.00000000E+00 0.00000000E+00 -.18566238E+04 0.18566238E+04 0.32000000E+00 0.0000E+00 0.9000E+01
       25  2    1    2    0    0 0.80433985E+02 0.33341397E+03 -.19163920E+03 0.49446333E+03 0.30022309E+03 0.0000E+00 0.0000E+00
       23  2    3    3    0    0 0.28000882E+02 0.20454127E+03 -.23063215E+03 0.32360343E+03 0.94375901E+02 0.0000E+00 0.0000E+00
      -24  1    1    2    0    0 -.80433985E+02 -.33341397E+03 -.14930746E+04 0.15340709E+04 0.80419002E+02 0.0000E+00 0.9000E+01
      -13  1    4    4    0    0 0.36438406E+02 0.26230114E+02 -.71682845E+02 0.84582609E+02 0.10565837E+00 0.0000E+00 0.9000E+01
       13  1    4    4    0    0 -.84375241E+01 0.17831116E+03 -.15894931E+03 0.23902083E+03 0.10565837E+00 0.0000E+00 0.9000E+01
       23  1    3    3    0    0 0.52433103E+02 0.12887269E+03 0.38992957E+02 0.17085989E+03 0.91188000E+02 0.0000E+00 0.9000E+01
#aMCatNLO 1  0  0  1  2 0.51169594D+02 0.00000000D+00  -5  7  0 0.00000000D+00 0.00000000D+00 0.00000000D+00 0.00000000D+00 0.00000000D+00
  <mgrwgt>
 0.1349768016D-02    6    2    0
 0.564953638938973D+03 0.000000000000000D+00 0.000000000000000D+00 0.564953638938973D+03
 0.564953638938973D+03 0.000000000000000D+00 0.000000000000000D+00 -.564953638938973D+03
 0.527929942860998D+03 -.804339848930206D+02 -.333413965688047D+03 -.393202632459709D+03
 0.449713266061004D+02 0.364384617796474D+02 0.262299237325882D+02 -.257872465151500D+01
 0.192120218371885D+03 -.843758010645704D+01 0.178311348297583D+03 0.710214658924039D+02
 0.364885790038963D+03 0.524331032198302D+02 0.128872693657875D+03 0.324759891218820D+03
 0.000000000000000D+00 0.000000000000000D+00 -.000000000000000D+00 -.000000000000000D+00
 0.590418866492850D+03 0.000000000000000D+00 0.000000000000000D+00 0.590418866492850D+03
 0.591835669407984D+03 0.000000000000000D+00 0.000000000000000D+00 -.591835669407984D+03
 0.518217021426257D+03 -.940559361195445D+02 -.314049098150214D+03 -.393202632459709D+03
 0.450395603485832D+02 0.352664238597284D+02 0.278960843795561D+02 -.257872465151500D+01
 0.199141672834684D+03 -.135322279721559D+02 0.185553862929339D+03 0.710214658924039D+02
 0.368667076804638D+03 0.428814611319251D+02 0.142451239104501D+03 0.324759891218820D+03
 0.511892044866712D+02 0.294402791000469D+02 -.418520882631828D+02 -.141680291513409D+01
0.162582782651D-03 0.000000000000D+00 0.000000000000D+00 0.231551319718D-05 0.000000000000D+00  7 -2 1 -24 -13 13 23 21 0 0.26447724D-01 0.28563446D+00 0.13765581D+06 0.13765581D+06 0.13765581D+06 0.11105072D+01  1  2  2  1  7  1       -2 0.882740997546D-03 0.100000000000D+01
-.709064002554D-05 0.000000000000D+00 -.624360694408D-06 0.231551319718D-05 0.000000000000D+00  7 -2 1 -24 -13 13 23 21 2 0.26447724D-01 0.28563446D+00 0.13765581D+06 0.13765581D+06 0.13765581D+06 0.11105072D+01  1  2  3  1  7  1       -2 -.474774027349D-04 0.100000000000D+01
0.101120831533D-04 0.000000000000D+00 0.000000000000D+00 0.231551319718D-05 0.000000000000D+00  7 -2 1 -24 -13 13 23 21 2 0.26447724D-01 0.28563446D+00 0.13765581D+06 0.13765581D+06 0.13765581D+06 0.11105072D+01  1  2 15  1  7  1       -2 0.677083369949D-04 0.100000000000D+01
0.274660961002D-03 0.000000000000D+00 0.000000000000D+00 0.231551319718D-05 0.000000000000D+00  7 -2 1 -24 -13 13 23 21 2 0.28240646D-01 0.28563446D+00 0.15769707D+06 0.15769707D+06 0.15769707D+06 0.11058410D+01  1  2 12  1  7  1       -2 0.161750704267D-02 0.100000000000D+01
-.207642339964D-03 0.000000000000D+00 0.000000000000D+00 0.231551319718D-05 0.000000000000D+00  7 -2 1 -24 -13 13 23 21 2 0.26447724D-01 0.28563446D+00 0.13765581D+06 0.13765581D+06 0.13765581D+06 0.11105072D+01  1  2  4  1  7  1       -2 -.139032851248D-02 0.100000000000D+01
0.314299663908D-05 0.000000000000D+00 0.000000000000D+00 0.231551319718D-05 0.000000000000D+00  7 21 1 -24 -13 13 23 2 2 0.28240646D-01 0.28563446D+00 0.15769707D+06 0.15769707D+06 0.15769707D+06 0.11058410D+01  1  2 12  3  7  1       -2 0.219617553551D-03 0.100000000000D+01
  </mgrwgt>
  </event>
  <event>
  9     66 0.26562228E-05 0.18077300E+03 0.75467711E-02 0.10727182E+00
       -2 -1    0    0    0  502 0.00000000E+00 0.00000000E+00 0.59651532E+02 0.59652390E+02 0.32000000E+00 0.0000E+00 0.9000E+01
        1 -1    0    0  501    0 0.00000000E+00 0.00000000E+00 -.85738566E+03 0.85738572E+03 0.32000000E+00 0.0000E+00 0.9000E+01
       25  2    1    2    0    0 -.44311463E+02 -.12400648E+02 -.66199856E+03 0.72824575E+03 0.29997082E+03 0.0000E+00 0.0000E+00
       23  2    3    3    0    0 -.64164405E+02 0.96042366E+02 -.23175495E+03 0.27483772E+03 0.92109757E+02 0.0000E+00 0.0000E+00
      -24  1    1    2    0    0 0.51237708E+02 0.14115594E+01 -.61614443E+02 0.11353788E+03 0.80419002E+02 0.0000E+00 0.9000E+01
      -13  1    4    4    0    0 -.68942746E+02 0.75339032E+02 -.23211460E+03 0.25358681E+03 0.10565837E+00 0.0000E+00 0.9000E+01
       13  1    4    4    0    0 0.47783407E+01 0.20703334E+02 0.35964897E+00 0.21250908E+02 0.10565837E+00 0.0000E+00 0.9000E+01
       23  1    3    3    0    0 0.19852942E+02 -.10844301E+03 -.43024361E+03 0.45340803E+03 0.91188000E+02 0.0000E+00 0.9000E+01
       21  1    1    2  501  502 -.69262451E+01 0.10989088E+02 -.74121128E+02 0.75254482E+02 0.75000000E+00 0.0000E+00 0.9000E+01
#aMCatNLO 2  0  0  1  1 0.12989724D+02 0.00000000D+00  -5  7  0 0.00000000D+00 0.00000000D+00 0.00000000D+00 0.00000000D+00 0.00000000D+00
  <mgrwgt>
 0.2024023986D-03    2    2    0
 0.214950673712517D+03 0.000000000000000D+00 0.000000000000000D+00 0.214950673712517D+03
 0.214950673712517D+03 0.000000000000000D+00 0.000000000000000D+00 -.214950673712517D+03
 0.117817609269458D+03 0.493340371400397D+02 0.443190860036885D+01 0.704292841453282D+02
 0.108884379681334D+03 -.706718593684269D+02 0.780823384195282D+02 -.276485959668185D+02
 0.426685981694988D+02 0.409494523253981D+01 0.217876768977691D+02 0.364573425895398D+02
 0.160530760304743D+03 0.172428769958474D+02 -.104301923917666D+03 -.792380307680496D+02
 0.000000000000000D+00 -.000000000000000D+00 0.000000000000000D+00 -.000000000000000D+00
 0.217105088905960D+03 0.000000000000000D+00 0.000000000000000D+00 0.217105088905960D+03
 0.235562772758555D+03 0.000000000000000D+00 0.000000000000000D+00 -.235562772758555D+03
 0.118552924407152D+03 0.512377142825255D+02 0.141155977426268D+01 0.704292841453282D+02
 0.105799529930217D+03 -.689428416045369D+02 0.753391018396834D+02 -.276485959668185D+02
 0.421971121518115D+02 0.477843530385529D+01 0.207032606443612D+02 0.364573425895398D+02
 0.163547982270714D+03 0.198529370782539D+02 -.108443010517923D+03 -.792380307680496D+02
 0.225703129046205D+02 -.692624506009786D+01 0.109890882596157D+02 -.184576838525944D+02
-.127330558478D-08 0.000000000000D+00 0.000000000000D+00 0.776863904990D-06 0.000000000000D+00  7 -2 1 -24 -13 13 23 21 2 0.90859016D-02 0.12036019D+00 0.32678877D+05 0.32678877D+05 0.32678877D+05 0.11639051D+01  1  2  8  1  7  1       -2 -.301507625076D-06 0.100000000000D+01
0.100687625565D-05 0.000000000000D+00 0.000000000000D+00 0.776863904990D-06 0.332466305982D-07  7 -2 1 -24 -13 13 23 21 2 0.91769681D-02 0.13190180D+00 0.35118057D+05 0.35118057D+05 0.35118057D+05 0.11610415D+01  1  2  1  1  7  1       -2 0.202703906244D-03 0.100000000000D+01
  </mgrwgt>
  </event>
  <event>
  8     66 -.26562228E-05 0.47150409E+02 0.75467711E-02 0.10864039E+00
       -4 -1    0    0    0  501 0.00000000E+00 0.00000000E+00 0.38485056E+02 0.38516257E+02 0.15500000E+01 0.0000E+00 0.9000E+01
        3 -1    0    0  501    0 0.00000000E+00 0.00000000E+00 -.12811987E+04 0.12811988E+04 0.50000000E+00 0.0000E+00 0.9000E+01
       25  2    1    2    0    0 0.18877004E+02 0.41017661E+02 -.61765443E+03 0.68788831E+03 0.29942370E+03 0.0000E+00 0.0000E+00
       23  2    3    3    0    0 -.80256829E+01 -.21402513E+02 -.45010317E+02 0.10405909E+03 0.90993882E+02 0.0000E+00 0.0000E+00
      -24  1    1    2    0    0 -.18877004E+02 -.41017661E+02 -.62505918E+03 0.63182670E+03 0.80419002E+02 0.0000E+00 0.9000E+01
      -11  1    4    4    0    0 -.17576382E+02 0.64978302E+01 -.65514386E+02 0.68141660E+02 0.51099893E-03 0.0000E+00 0.9000E+01
       11  1    4    4    0    0 0.95506990E+01 -.27900343E+02 0.20504069E+02 0.35917431E+02 0.51099893E-03 0.0000E+00 0.9000E+01
       23  1    3    3    0    0 0.26902687E+02 0.62420174E+02 -.57264411E+03 0.58382922E+03 0.91188000E+02 0.0000E+00 0.9000E+01
#aMCatNLO 1  0  0  1  2 0.65155826D+02 0.00000000D+00  -5  7  0 0.00000000D+00 0.00000000D+00 0.00000000D+00 0.00000000D+00 0.00000000D+00
  <mgrwgt>
 -.6025925196D-04    7    2    0
 0.222098298711713D+03 0.000000000000000D+00 0.000000000000000D+00 0.222098298711713D+03
 0.222098298711713D+03 0.000000000000000D+00 0.000000000000000D+00 -.222098298711713D+03
 0.128460330321139D+03 -.188770041351229D+02 -.410176609841382D+02 -.894206391954261D+02
 0.191625792070152D+02 -.175763818154502D+02 0.649783018000506D+01 -.400667531682554D+01
 0.164074779029291D+03 0.955069896074066D+01 -.279003429075211D+02 0.161402875217621D+03
 0.132498908865980D+03 0.269026869898324D+02 0.624201737116542D+02 -.679755607053692D+02
 0.000000000000000D+00 -.000000000000000D+00 0.000000000000000D+00 0.000000000000000D+00
 0.590966761151142D+03 0.000000000000000D+00 0.000000000000000D+00 0.590966761151142D+03
 0.227370777324166D+03 0.000000000000000D+00 0.000000000000000D+00 -.227370777324166D+03
 0.131440292412989D+03 -.408835255239149D+01 -.528825980312084D+02 -.894206391954261D+02
 0.167602452409342D+02 -.155323307891785D+02 0.485788778146803D+01 -.400667531682554D+01
 0.169484219327193D+03 0.285305988820468D+02 -.431279190300764D+02 0.161402875217621D+03
 0.131265016210450D+03 0.419111650266062D+02 0.503788698725271D+02 -.679755607053692D+02
 0.369387765283741D+03 -.508210805670831D+02 0.407737594072897D+02 0.363595983826976D+03
0.515829057358D-05 0.000000000000D+00 0.000000000000D+00 0.926840103703D-06 0.000000000000D+00  7 -4 3 -24 -11 11 23 21 0 0.59231854D-02 0.19710989D+00 0.16153160D+05 0.16153160D+05 0.16153160D+05 0.11931352D+01  1  2  2  1  7  1       -4 0.404517267339D-04 0.100000000000D+01
-.178011541327D-06 0.000000000000D+00 -.198091940117D-07 0.926840103703D-06 0.000000000000D+00  7 -4 3 -24 -11 11 23 21 2 0.59231854D-02 0.19710989D+00 0.16153160D+05 0.16153160D+05 0.16153160D+05 0.11931352D+01  1  2  3  1  7  1       -4 -.198727839368D-05 0.100000000000D+01
0.318112291646D-06 0.000000000000D+00 0.000000000000D+00 0.926840103703D-06 0.000000000000D+00  7 -4 3 -24 -11 11 23 21 2 0.59231854D-02 0.19710989D+00 0.16153160D+05 0.16153160D+05 0.16153160D+05 0.11931352D+01  1  2 15  1  7  1       -4 0.355132975782D-05 0.100000000000D+01
0.230400751670D-04 0.000000000000D+00 0.000000000000D+00 0.926840103703D-06 0.000000000000D+00  7 -4 3 -24 -11 11 23 21 2 0.15695833D-01 0.19710989D+00 0.29201650D+05 0.29201650D+05 0.29201650D+05 0.11684243D+01  1  2 12  1  7  1       -4 0.494751017200D-04 0.100000000000D+01
-.364377371480D-04 0.000000000000D+00 -.161115257061D-05 0.926840103703D-06 0.000000000000D+00  7 -4 3 -24 -11 11 23 21 2 0.16014821D-01 0.19710989D+00 0.16153160D+05 0.16153160D+05 0.16153160D+05 0.11931352D+01  1  2  5  1  7  1       -4 -.787284995260D-04 0.100000000000D+01
0.249607679836D-05 0.000000000000D+00 0.000000000000D+00 0.926840103703D-06 0.000000000000D+00  7 21 3 -24 -11 11 23 4 2 0.15695833D-01 0.19710989D+00 0.29201650D+05 0.29201650D+05 0.29201650D+05 0.11684243D+01  1  2 12  3  7  1       -4 0.115694342582D-03 0.100000000000D+01
-.395005279343D-05 0.000000000000D+00 -.178798973877D-06 0.926840103703D-06 0.000000000000D+00  7 21 3 -24 -11 11 23 4 2 0.16014821D-01 0.19710989D+00 0.16153160D+05 0.16153160D+05 0.16153160D+05 0.11931352D+01  1  2  5  3  7  1       -4 -.188715974837D-03 0.100000000000D+01
  </mgrwgt>
  </event>
  <event>
  8     66 0.26562228E-05 0.21353484E+03 0.75467711E-02 0.91694362E-01
       -2 -1    0    0    0  501 0.00000000E+00 0.00000000E+00 0.42863033E+03 0.42863045E+03 0.32000000E+00 0.0000E+00 0.9000E+01
        1 -1    0    0  501    0 0.00000000E+00 0.00000000E+00 -.87429243E+03 0.87429248E+03 0.32000000E+00 0.0000E+00 0.9000E+01
       25  2    1    2    0    0 0.33634507E+03 0.30895687E+03 0.13204161E+03 0.56211854E+03 0.29993317E+03 0.0000E+00 0.0000E+00
       23  2    3    3    0    0 0.11347771E+03 0.25799158E+03 0.37771355E+02 0.29854795E+03 0.90925015E+02 0.0000E+00 0.0000E+00
      -24  1    1    2    0    0 -.33634507E+03 -.30895687E+03 -.57770371E+03 0.74080439E+03 0.80419002E+02 0.0000E+00 0.9000E+01
      -11  1    4    4    0    0 0.11913852E+03 0.25946444E+03 0.27633731E+02 0.28684387E+03 0.51099893E-03 0.0000E+00 0.9000E+01
       11  1    4    4    0    0 -.56608086E+01 -.14728631E+01 0.10137624E+02 0.11704080E+02 0.51099893E-03 0.0000E+00 0.9000E+01
       23  1    3    3    0    0 0.22286736E+03 0.50965296E+02 0.94270259E+02 0.26357059E+03 0.91188000E+02 0.0000E+00 0.9000E+01
#aMCatNLO 1  0  0  2  1 0.27343396D+03 0.00000000D+00  -5  7  0 0.00000000D+00 0.00000000D+00 0.00000000D+00 0.00000000D+00 0.00000000D+00
  <mgrwgt>
 0.1369149664D-02    9    2    0
 0.612166942726869D+03 0.000000000000000D+00 0.000000000000000D+00 0.612166942726869D+03
 0.612166942726869D+03 0.000000000000000D+00 0.000000000000000D+00 -.612166942726869D+03
 0.578069751927467D+03 -.336345071788716D+03 -.308956871633661D+03 -.345130506175415D+03
 0.315314934952088D+03 0.119138515648305D+03 0.259464439226648D+03 0.133819755902332D+03
 0.161454887493979D+02 -.566080855528022D+01 -.147286315231392D+01 0.150486785995302D+02
 0.314803709824784D+03 0.222867364695692D+03 0.509652955593269D+02 0.196262071673553D+03
 0.000000000000000D+00 0.000000000000000D+00 -.000000000000000D+00 -.000000000000000D+00
 0.672667382757867D+03 0.000000000000000D+00 0.000000000000000D+00 0.672667382757867D+03
 0.103877883812252D+04 0.000000000000000D+00 0.000000000000000D+00 -.103877883812252D+04
 0.571296282928061D+03 -.401035667744245D+03 -.199918868136748D+03 -.345130506175415D+03
 0.359342626595361D+03 0.811662784332958D+02 0.323467821373290D+03 0.133819755902332D+03
 0.169054127366212D+02 -.752103623659219D+01 0.166260823149258D+01 0.150486785995302D+02
 0.306951431067775D+03 0.187872672506263D+03 0.109949933325648D+03 0.196262071673553D+03
 0.456950467552569D+03 0.139517753041277D+03 -.235161494793682D+03 -.366111455364655D+03
0.336097168683D-03 0.000000000000D+00 0.000000000000D+00 0.273074716548D-04 0.000000000000D+00  7 -2 1 -24 -11 11 23 21 0 0.65943141D-01 0.13450654D+00 0.25061469D+06 0.25061469D+06 0.25061469D+06 0.10903789D+01  1  2  2  2  7  2        1 0.152129661187D-02 0.100000000000D+01
-.177533172945D-04 0.000000000000D+00 -.129070162416D-05 0.273074716548D-04 0.000000000000D+00  7 -2 1 -24 -11 11 23 21 2 0.65943141D-01 0.13450654D+00 0.25061469D+06 0.25061469D+06 0.25061469D+06 0.10903789D+01  1  2  3  2  7  2        1 -.955396010682D-04 0.100000000000D+01
0.216323485743D-04 0.000000000000D+00 0.000000000000D+00 0.273074716548D-04 0.000000000000D+00  7 -2 1 -24 -11 11 23 21 2 0.65943141D-01 0.13450654D+00 0.25061469D+06 0.25061469D+06 0.25061469D+06 0.10903789D+01  1  2 15  2  7  2        1 0.116414635004D-03 0.100000000000D+01
0.197767198829D-03 0.000000000000D+00 0.000000000000D+00 0.273074716548D-04 0.000000000000D+00  7 -2 1 -24 -11 11 23 21 2 0.65943141D-01 0.23092262D+00 0.42634668D+06 0.42634668D+06 0.42634668D+06 0.10734362D+01  1  2 12  2  7  2        1 0.353237902336D-03 0.100000000000D+01
-.357560200893D-03 0.000000000000D+00 0.000000000000D+00 0.273074716548D-04 0.000000000000D+00  7 -2 1 -24 -11 11 23 21 2 0.65943141D-01 0.13450654D+00 0.25061469D+06 0.25061469D+06 0.25061469D+06 0.10903789D+01  1  2  4  2  7  2        1 -.192421271949D-02 0.100000000000D+01
-.366203974511D-03 0.000000000000D+00 -.111049618069D-03 0.273074716548D-04 0.000000000000D+00  7 -2 1 -24 -11 11 23 21 2 0.65943141D-01 0.23753278D+00 0.25061469D+06 0.25061469D+06 0.25061469D+06 0.10903789D+01  1  2  5  2  7  2        1 -.649766271954D-03 0.100000000000D+01
0.381761194180D-03 0.000000000000D+00 0.952307333722D-04 0.273074716548D-04 0.000000000000D+00  7 -2 1 -24 -11 11 23 21 2 0.65943141D-01 0.13450654D+00 0.25061469D+06 0.25061469D+06 0.25061469D+06 0.10903789D+01  1  2  6  2  7  2        1 0.205445053396D-02 0.100000000000D+01
0.118748115729D-04 0.000000000000D+00 0.000000000000D+00 0.273074716548D-04 0.000000000000D+00  7 -2 21 -24 -11 11 23 -1 2 0.65943141D-01 0.23092262D+00 0.42634668D+06 0.42634668D+06 0.42634668D+06 0.10734362D+01  1  2 12  4  7  2        1 0.161775339423D-04 0.100000000000D+01
-.172196888235D-04 0.000000000000D+00 -.695848508921D-05 0.273074716548D-04 0.000000000000D+00  7 -2 21 -24 -11 11 23 -1 2 0.65943141D-01 0.23753278D+00 0.25061469D+06 0.25061469D+06 0.25061469D+06 0.10903789D+01  1  2  5  4  7  2        1 -.229089603016D-04 0.100000000000D+01
  </mgrwgt>
  </event>
  <event>
  8     66 0.26562228E-05 0.24877312E+03 0.75467711E-02 0.97772024E-01
       -4 -1    0    0    0  501 0.00000000E+00 0.00000000E+00 0.20990219E+02 0.21047370E+02 0.15500000E+01 0.0000E+00 0.9000E+01
        3 -1    0    0  501    0 0.00000000E+00 0.00000000E+00 -.33852287E+04 0.33852288E+04 0.50000000E+00 0.0000E+00 0.9000E+01
       25  2    1    2    0    0 -.78149051E+02 0.13937483E+03 -.25837426E+04 0.26055429E+04 0.29596522E+03 0.0000E+00 0.0000E+00
       23  2    3    3    0    0 -.78981326E+02 -.36785796E+02 -.68065491E+03 0.69214508E+03 0.90456927E+02 0.0000E+00 0.0000E+00
      -24  1    1    2    0    0 0.78149051E+02 -.13937483E+03 -.78049591E+03 0.80073323E+03 0.80419002E+02 0.0000E+00 0.9000E+01
      -11  1    4    4    0    0 -.39197903E+01 -.44652341E+02 -.16434329E+03 0.17034645E+03 0.51099893E-03 0.0000E+00 0.9000E+01
       11  1    4    4    0    0 -.75061536E+02 0.78665457E+01 -.51631162E+03 0.52179863E+03 0.51099893E-03 0.0000E+00 0.9000E+01
       23  1    3    3    0    0 0.83227467E+00 0.17616063E+03 -.19030877E+04 0.19133978E+04 0.91188000E+02 0.0000E+00 0.9000E+01
#aMCatNLO 1  0  0  1  2 0.22206713D+03 0.00000000D+00  -5  7  0 0.00000000D+00 0.00000000D+00 0.00000000D+00 0.00000000D+00 0.00000000D+00
  <mgrwgt>
 0.2173284308D-04    5    2    0
 0.266747240831567D+03 0.000000000000000D+00 0.000000000000000D+00 0.266747240831567D+03
 0.266747240831567D+03 0.000000000000000D+00 0.000000000000000D+00 -.266747240831567D+03
 0.190712531716410D+03 0.781490513110227D+02 -.139374833489838D+03 0.661168312018877D+02
 0.512789286595439D+02 -.391979029350054D+01 -.446523414145464D+02 0.249064685317761D+02
 0.757173170202212D+02 -.750615356796030D+02 0.786654571682466D+01 -.608238576920802D+01
 0.215785704266959D+03 0.832274662080913D+00 0.176160629187560D+03 -.849409139644558D+02
 0.000000000000000D+00 0.000000000000000D+00 0.000000000000000D+00 0.000000000000000D+00
 0.433974589455551D+03 0.000000000000000D+00 0.000000000000000D+00 0.433974589455551D+03
 0.373933151725856D+03 0.000000000000000D+00 0.000000000000000D+00 -.373933151725856D+03
 0.212404485231535D+03 0.116142104351208D+02 -.184775875427213D+03 0.661168312018877D+02
 0.673679129618540D+02 -.235025625303953D+02 -.580149383919042D+02 0.249064685317761D+02
 0.105977723131804D+03 -.105050472083190D+03 -.125968527281489D+02 -.608238576920802D+01
 0.192116792424029D+03 -.664924141235641D+02 0.130220622737724D+03 -.849409139644558D+02
 0.230040827432184D+03 0.183431238302028D+03 0.125167043809541D+03 0.600414377296949D+02
0.699349311062D-04 0.000000000000D+00 0.000000000000D+00 0.249545092100D-07 0.000000000000D+00  7 -4 3 -24 -11 11 23 21 0 0.32336635D-02 0.52080882D+00 0.61888068D+05 0.61888068D+05 0.61888068D+05 0.11392351D+01  1  2  2  1  7  1       -4 0.180032520744D-04 0.100000000000D+01
-.386228502202D-05 0.000000000000D+00 -.268568549738D-06 0.249545092100D-07 0.000000000000D+00  7 -4 3 -24 -11 11 23 21 2 0.32336635D-02 0.52080882D+00 0.61888068D+05 0.61888068D+05 0.61888068D+05 0.11392351D+01  1  2  3  1  7  1       -4 -.129041048288D-05 0.100000000000D+01
0.461521143185D-05 0.000000000000D+00 0.000000000000D+00 0.249545092100D-07 0.000000000000D+00  7 -4 3 -24 -11 11 23 21 2 0.32336635D-02 0.52080882D+00 0.61888068D+05 0.61888068D+05 0.61888068D+05 0.11392351D+01  1  2 15  1  7  1       -4 0.154196730132D-05 0.100000000000D+01
0.145043039110D-04 0.000000000000D+00 -.236351178943D-04 0.249545092100D-07 0.000000000000D+00  7 -4 3 -24 -11 11 23 21 2 0.11142049D-01 0.52080882D+00 0.61888068D+05 0.61888068D+05 0.61888068D+05 0.11392351D+01  1  2  5  1  7  1       -4 0.668027971146D-06 0.100000000000D+01
0.289886147226D-05 0.000000000000D+00 -.341176091320D-05 0.249545092100D-07 0.000000000000D+00  7 21 3 -24 -11 11 23 4 2 0.11142049D-01 0.52080882D+00 0.61888068D+05 0.61888068D+05 0.61888068D+05 0.11392351D+01  1  2  5  3  7  1       -4 0.281000621306D-05 0.100000000000D+01
  </mgrwgt>
  </event>
  <event>
  9     66 -.26562228E-05 0.34289617E+03 0.75467711E-02 0.98796234E-01
       -2 -1    0    0    0  501 0.00000000E+00 0.00000000E+00 0.28914761E+03 0.28914779E+03 0.32000000E+00 0.0000E+00 0.9000E+01
        1 -1    0    0  502    0 0.00000000E+00 0.00000000E+00 -.46209394E+03 0.46209405E+03 0.32000000E+00 0.0000E+00 0.9000E+01
       25  2    1    2    0    0 0.22568723E+03 0.18239613E+03 -.39292552E+02 0.41903293E+03 0.29973591E+03 0.0000E+00 0.0000E+00
       23  2    3    3    0    0 0.23863556E+03 0.19219322E+03 -.55181765E+02 0.32505761E+03 0.93446563E+02 0.0000E+00 0.0000E+00
      -24  1    1    2    0    0 -.20928625E+03 -.17730727E+03 -.13227715E+03 0.31496518E+03 0.80419002E+02 0.0000E+00 0.9000E+01
      -11  1    4    4    0    0 0.11541226E+03 0.11085027E+03 -.73829195E+02 0.17623428E+03 0.51099893E-03 0.0000E+00 0.9000E+01
       11  1    4    4    0    0 0.12322330E+03 0.81342952E+02 0.18647431E+02 0.14882333E+03 0.51099893E-03 0.0000E+00 0.9000E+01
       23  1    3    3    0    0 -.12948331E+02 -.97970854E+01 0.15889213E+02 0.93975319E+02 0.91188000E+02 0.0000E+00 0.9000E+01
       21  1    1    2  502  501 -.16400973E+02 -.50888608E+01 -.13766243E+01 0.17243724E+02 0.75000000E+00 0.0000E+00 0.9000E+01
#aMCatNLO 2  0  0  2  1 0.17172316D+02 0.00000000D+00  -5  7  0 0.00000000D+00 0.00000000D+00 0.00000000D+00 0.00000000D+00 0.00000000D+00
  <mgrwgt>
 -.3820865438D-03    3    2    0
 0.356728950978012D+03 0.000000000000000D+00 0.000000000000000D+00 0.356728950978012D+03
 0.356728950978012D+03 0.000000000000000D+00 0.000000000000000D+00 -.356728950978012D+03
 0.298299153183364D+03 -.216071767253559D+03 -.179412666727846D+03 -.603262401370089D+02
 0.160110077463004D+03 0.111693148689542D+03 0.109696307333738D+03 -.335648268037701D+02
 0.154179320027245D+03 0.119640840868389D+03 0.802313942626853D+02 0.549568493914434D+02
 0.100869351282411D+03 -.152622223043722D+02 -.105150348685769D+02 0.389342175493357D+02
 0.000000000000000D+00 -.000000000000000D+00 -.000000000000000D+00 0.000000000000000D+00
 0.366891017250644D+03 0.000000000000000D+00 0.000000000000000D+00 0.366891017250644D+03
 0.364161418320200D+03 0.000000000000000D+00 0.000000000000000D+00 -.364161418320200D+03
 0.292138796182203D+03 -.209286254804416D+03 -.177307271653729D+03 -.603262401370089D+02
 0.163506478803588D+03 0.115412259518471D+03 0.110850265517148D+03 -.335648268037701D+02
 0.157546541740775D+03 0.123223299817750D+03 0.813429523773807D+02 0.549568493914434D+02
 0.100472716715861D+03 -.129483312165676D+02 -.979708542336989D+01 0.389342175493357D+02
 0.173879021284167D+02 -.164009733152379D+02 -.508886081743015D+01 0.272959893044326D+01
-.263680535944D-04 0.000000000000D+00 0.000000000000D+00 0.801690121747D-06 0.000000000000D+00  7 -2 1 -24 -11 11 23 21 2 0.43251197D-01 0.72057758D-01 0.12366183D+06 0.12366183D+06 0.12366183D+06 0.11142307D+01  1  2 13  2  7  2        1 -.889860522347D-03 0.100000000000D+01
-.212367093901D-04 0.000000000000D+00 0.000000000000D+00 0.801690121747D-06 0.000000000000D+00  7 -2 1 -24 -11 11 23 21 2 0.43251197D-01 0.69638894D-01 0.11757778D+06 0.11757778D+06 0.11757778D+06 0.11159963D+01  1  2  8  2  7  2        1 -.753892387636D-03 0.100000000000D+01
0.387159629100D-04 0.000000000000D+00 0.000000000000D+00 0.801690121747D-06 0.180177792454D-07  7 -2 1 -24 -11 11 23 21 2 0.44483285D-01 0.71089824D-01 0.12366183D+06 0.12366183D+06 0.12366183D+06 0.11142307D+01  1  2  1  2  7  2        1 0.126166636620D-02 0.100000000000D+01
  </mgrwgt>
  </event>
  <event>
  8     66 0.26562228E-05 0.19849341E+03 0.75467711E-02 0.87406020E-01
       -2 -1    0    0    0  501 0.00000000E+00 0.00000000E+00 0.81129884E+03 0.81129890E+03 0.32000000E+00 0.0000E+00 0.9000E+01
        1 -1    0    0  501    0 0.00000000E+00 0.00000000E+00 -.72217573E+02 0.72218282E+02 0.32000000E+00 0.0000E+00 0.9000E+01
       25  2    1    2    0    0 -.18307231E+02 -.86928503E+02 0.32047900E+03 0.44810153E+03 0.30032727E+03 0.0000E+00 0.0000E+00
       23  2    3    3    0    0 0.40772109E+02 0.52957201E+02 0.46861579E+02 0.12215656E+03 0.90881173E+02 0.0000E+00 0.0000E+00
      -24  1    1    2    0    0 0.18307231E+02 0.86928503E+02 0.41860227E+03 0.43541565E+03 0.80419002E+02 0.0000E+00 0.9000E+01
      -13  1    4    4    0    0 0.12512030E+02 -.18985516E+02 -.11331645E+02 0.25405079E+02 0.10565837E+00 0.0000E+00 0.9000E+01
       13  1    4    4    0    0 0.28260079E+02 0.71942717E+02 0.58193225E+02 0.96751481E+02 0.10565837E+00 0.0000E+00 0.9000E+01
       23  1    3    3    0    0 -.59079340E+02 -.13988570E+03 0.27361742E+03 0.32594497E+03 0.91188000E+02 0.0000E+00 0.9000E+01
#aMCatNLO 1  0  0  1  2 0.95822996D+03 0.00000000D+00  -5  7  0 0.00000000D+00 0.00000000D+00 0.00000000D+00 0.00000000D+00 0.00000000D+00
  <mgrwgt>
 0.1381347828D-02    3    2    0
 0.242054485907040D+03 0.000000000000000D+00 0.000000000000000D+00 0.242054485907040D+03
 0.242054485907040D+03 0.000000000000000D+00 0.000000000000000D+00 -.242054485907040D+03
 0.155576794278544D+03 0.183072317736720D+02 0.869285050085954D+02 0.992229975629316D+02
 0.636650354261772D+02 0.125120082152632D+02 -.189856386081852D+02 -.594662249758379D+02
 0.877324964204067D+02 0.282600993060678D+02 0.719428371608059D+02 -.415040467499449D+02
 0.177134645688952D+03 -.590793392950030D+02 -.139885703561216D+03 0.174727416285130D+01
 0.000000000000000D+00 0.000000000000000D+00 -.000000000000000D+00 -.000000000000000D+00
 0.616428465075163D+03 0.000000000000000D+00 0.000000000000000D+00 0.616428465075163D+03
 0.341913755727991D+04 0.000000000000000D+00 0.000000000000000D+00 -.341913755727991D+04
 0.336299305614810D+03 -.280507806085980D+03 0.134536888926753D+03 0.992229975629316D+02
 0.110815570295178D+03 -.934850687228235D+02 -.209776854241878D+01 -.594662249758379D+02
 0.161723467316650D+03 -.123284554448335D+03 0.960875258229357D+02 -.415040467499449D+02
 0.464737992019858D+03 -.449017367549716D+03 -.777592473881539D+02 0.174727416285130D+01
 0.296198968710858D+04 0.946294796806856D+03 -.150767398819116D+03 -.280270909220475D+04
0.434348212989D-04 0.000000000000D+00 0.000000000000D+00 0.141474038939D-05 0.000000000000D+00  7 -2 1 -24 -13 13 23 21 0 0.12481527D+00 0.11110455D-01 0.39399634D+05 0.39399634D+05 0.39399634D+05 0.11565100D+01  1  2  2  1  7  1       -2 0.136070527723D-02 0.100000000000D+01
-.229755126376D-05 0.000000000000D+00 -.166801150439D-06 0.141474038939D-05 0.000000000000D+00  7 -2 1 -24 -13 13 23 21 2 0.12481527D+00 0.11110455D-01 0.39399634D+05 0.39399634D+05 0.39399634D+05 0.11565100D+01  1  2  3  1  7  1       -2 -.962697939411D-04 0.100000000000D+01
0.279020131910D-05 0.000000000000D+00 0.000000000000D+00 0.141474038939D-05 0.000000000000D+00  7 -2 1 -24 -13 13 23 21 2 0.12481527D+00 0.11110455D-01 0.39399634D+05 0.39399634D+05 0.39399634D+05 0.11565100D+01  1  2 15  1  7  1       -2 0.116912345017D-03 0.100000000000D+01
  </mgrwgt>
  </event>
  <event>
  8     66 0.26562228E-05 0.18848885E+03 0.75467711E-02 0.98995086E-01
       -2 -1    0    0    0  501 0.00000000E+00 0.00000000E+00 0.90399809E+02 0.90400375E+02 0.32000000E+00 0.0000E+00 0.9000E+01
        1 -1    0    0  501    0 0.00000000E+00 0.00000000E+00 -.17252024E+04 0.17252024E+04 0.32000000E+00 0.0000E+00 0.9000E+01
       25  2    1    2    0    0 -.27964422E+03 -.10640041E+03 -.12597164E+04 0.13291063E+04 0.30019383E+03 0.0000E+00 0.0000E+00
       23  2    3    3    0    0 -.20888894E+03 -.53762130E+02 -.42967754E+03 0.48942971E+03 0.91617106E+02 0.0000E+00 0.0000E+00
      -24  1    1    2    0    0 0.27964422E+03 0.10640041E+03 -.37508620E+03 0.48649647E+03 0.80419002E+02 0.0000E+00 0.9000E+01
      -11  1    4    4    0    0 -.46293023E+02 -.57274549E+01 -.30481764E+02 0.55722398E+02 0.51099893E-03 0.0000E+00 0.9000E+01
       11  1    4    4    0    0 -.16259592E+03 -.48034675E+02 -.39919578E+03 0.43370731E+03 0.51099893E-03 0.0000E+00 0.9000E+01
       23  1    3    3    0    0 -.70755281E+02 -.52638283E+02 -.83003884E+03 0.83967662E+03 0.91188000E+02 0.0000E+00 0.9000E+01
#aMCatNLO 1  0  0  1  2 0.40442489D+02 0.00000000D+00  -5  7  0 0.00000000D+00 0.00000000D+00 0.00000000D+00 0.00000000D+00 0.00000000D+00
  <mgrwgt>
 0.6818500146D-03    9    2    0
 0.394915824462412D+03 0.000000000000000D+00 0.000000000000000D+00 0.394915824462412D+03
 0.394915824462412D+03 0.000000000000000D+00 0.000000000000000D+00 -.394915824462412D+03
 0.341962060312981D+03 0.279644222441266D+03 0.106400412742208D+03 0.144737333686356D+03
 0.649987577575779D+02 -.462930231189983D+02 -.572745487890276D+01 0.452657793608187D+02
 0.170712225993037D+03 -.162595918622576D+03 -.480346752412107D+02 -.199474641308052D+02
 0.212158604861229D+03 -.707552806996920D+02 -.526382826220944D+02 -.170055648916369D+03
 0.000000000000000D+00 -.000000000000000D+00 -.000000000000000D+00 0.000000000000000D+00
 0.424914317482234D+03 0.000000000000000D+00 0.000000000000000D+00 0.424914317482234D+03
 0.409303036133654D+03 0.000000000000000D+00 0.000000000000000D+00 -.409303036133654D+03
 0.357639722393022D+03 0.296966099282816D+03 0.110910753279834D+03 0.144737333686356D+03
 0.627161146942521D+02 -.431308509431528D+02 -.490407566415977D+01 0.452657793608187D+02
 0.162259202378647D+03 -.154351671371375D+03 -.458880047089441D+02 -.199474641308052D+02
 0.208251338997971D+03 -.603460887128952D+02 -.499278950000460D+02 -.170055648916369D+03
 0.433509751519956D+02 -.391374882553934D+02 -.101907779066843D+02 0.156112813485800D+02
0.302573600216D-04 0.000000000000D+00 0.000000000000D+00 0.499140149486D-05 0.000000000000D+00  7 -2 1 -24 -11 11 23 21 0 0.13907709D-01 0.26541580D+00 0.10655837D+06 0.10655837D+06 0.10655837D+06 0.11194652D+01  1  2  2  1  7  1       -2 0.584221992685D-03 0.100000000000D+01
-.160683420304D-05 0.000000000000D+00 -.116196229429D-06 0.499140149486D-05 0.000000000000D+00  7 -2 1 -24 -11 11 23 21 2 0.13907709D-01 0.26541580D+00 0.10655837D+06 0.10655837D+06 0.10655837D+06 0.11194652D+01  1  2  3  1  7  1       -2 -.388811507911D-04 0.100000000000D+01
0.192350448957D-05 0.000000000000D+00 0.000000000000D+00 0.499140149486D-05 0.000000000000D+00  7 -2 1 -24 -11 11 23 21 2 0.13907709D-01 0.26541580D+00 0.10655837D+06 0.10655837D+06 0.10655837D+06 0.11194652D+01  1  2 15  1  7  1       -2 0.465437367244D-04 0.100000000000D+01
0.651529532304D-04 0.000000000000D+00 0.000000000000D+00 0.499140149486D-05 0.000000000000D+00  7 -2 1 -24 -11 11 23 21 2 0.15202898D-01 0.26541580D+00 0.11976091D+06 0.11976091D+06 0.11976091D+06 0.11153515D+01  1  2 12  1  7  1       -2 0.135301776241D-02 0.100000000000D+01
-.615070944442D-04 0.000000000000D+00 0.000000000000D+00 0.499140149486D-05 0.000000000000D+00  7 -2 1 -24 -11 11 23 21 2 0.13907709D-01 0.26541580D+00 0.10655837D+06 0.10655837D+06 0.10655837D+06 0.11194652D+01  1  2  4  1  7  1       -2 -.148830950280D-02 0.100000000000D+01
-.176677633783D-03 0.000000000000D+00 -.366043883637D-04 0.499140149486D-05 0.000000000000D+00  7 -2 1 -24 -11 11 23 21 2 0.15550974D-01 0.26541580D+00 0.10655837D+06 0.10655837D+06 0.10655837D+06 0.11194652D+01  1  2  5  1  7  1       -2 -.357659461841D-02 0.100000000000D+01
0.179869831824D-03 0.000000000000D+00 0.363772959435D-04 0.499140149486D-05 0.000000000000D+00  7 -2 1 -24 -11 11 23 21 2 0.13907709D-01 0.26541580D+00 0.10655837D+06 0.10655837D+06 0.10655837D+06 0.11194652D+01  1  2  6  1  7  1       -2 0.435237564689D-02 0.100000000000D+01
0.956537909293D-06 0.000000000000D+00 0.000000000000D+00 0.499140149486D-05 0.000000000000D+00  7 21 1 -24 -11 11 23 2 2 0.15202898D-01 0.26541580D+00 0.11976091D+06 0.11976091D+06 0.11976091D+06 0.11153515D+01  1  2 12  3  7  1       -2 0.267402569541D-03 0.100000000000D+01
-.300636925188D-05 0.000000000000D+00 -.653583170166D-06 0.499140149486D-05 0.000000000000D+00  7 21 1 -24 -11 11 23 2 2 0.15550974D-01 0.26541580D+00 0.10655837D+06 0.10655837D+06 0.10655837D+06 0.11194652D+01  1  2  5  3  7  1       -2 -.817926421664D-03 0.100000000000D+01
  </mgrwgt>
  </event>
  <event>
  8     66 0.26562228E-05 0.17018613E+03 0.75467711E-02 0.10413312E+00
       -2 -1    0    0    0  501 0.00000000E+00 0.00000000E+00 0.13647299E+03 0.13647336E+03 0.32000000E+00 0.0000E+00 0.9000E+01
        1 -1    0    0  501    0 0.00000000E+00 0.00000000E+00 -.58678462E+03 0.58678471E+03 0.32000000E+00 0.0000E+00 0.9000E+01
       25  2    1    2    0    0 0.49013740E+02 0.14944292E+03 -.42608852E+03 0.54496195E+03 0.30115870E+03 0.0000E+00 0.0000E+00
       23  2    3    3    0    0 0.18455448E+02 0.37276136E+01 -.33589746E+03 0.34845129E+03 0.90756278E+02 0.0000E+00 0.0000E+00
      -24  1    1    2    0    0 -.49013740E+02 -.14944292E+03 -.24223110E+02 0.17829612E+03 0.80419002E+02 0.0000E+00 0.9000E+01
      -13  1    4    4    0    0 -.14298273E+02 -.35650573E+02 -.18946246E+03 0.19331694E+03 0.10565837E+00 0.0000E+00 0.9000E+01
       13  1    4    4    0    0 0.32753721E+02 0.39378186E+02 -.14643500E+03 0.15513436E+03 0.10565837E+00 0.0000E+00 0.9000E+01
       23  1    3    3    0    0 0.30558292E+02 0.14571530E+03 -.90191064E+02 0.19651066E+03 0.91188000E+02 0.0000E+00 0.9000E+01
#aMCatNLO 1  0  0  2  1 0.28686040D+02 0.00000000D+00  -5  7  0 0.00000000D+00 0.00000000D+00 0.00000000D+00 0.00000000D+00 0.00000000D+00
  <mgrwgt>
 0.9325691971D-03    9    2    0
 0.282984835044274D+03 0.000000000000000D+00 0.000000000000000D+00 0.282984835044274D+03
 0.282984835044274D+03 0.000000000000000D+00 0.000000000000000D+00 -.282984835044274D+03
 0.208573300449864D+03 -.490137412227956D+02 -.149442919011304D+03 0.110905693428716D+03
 0.962964933643302D+02 -.142983358632264D+02 -.356506717759105D+02 -.883040306426336D+02
 0.817372067214814D+02 0.327537847365127D+02 0.393782898562604D+02 -.636985936741205D+02
 0.179362669552872D+03 0.305582923495093D+02 0.145715300930954D+03 0.410969308880377D+02
 0.000000000000000D+00 -.000000000000000D+00 -.000000000000000D+00 -.000000000000000D+00
 0.292504177948315D+03 0.000000000000000D+00 0.000000000000000D+00 0.292504177948315D+03
 0.305816436707704D+03 0.000000000000000D+00 0.000000000000000D+00 -.305816436707704D+03
 0.201024689309859D+03 -.477788737220359D+02 -.139143149844699D+03 0.110905693428716D+03
 0.945397373657237D+02 -.137229974455884D+02 -.308518954774780D+02 -.883040306426336D+02
 0.840214369187897D+02 0.332535185416553D+02 0.435464640405767D+02 -.636985936741205D+02
 0.187110312785146D+03 0.316631453690790D+02 0.154930646753557D+03 0.410969308880377D+02
 0.316244382765002D+02 -.341479274310997D+01 -.284820654719574D+02 -.133122587593883D+02
0.700070276140D-05 0.000000000000D+00 0.000000000000D+00 0.477786384606D-06 0.000000000000D+00  7 -2 1 -24 -13 13 23 21 0 0.20995880D-01 0.90274592D-01 0.48590444D+05 0.48590444D+05 0.48590444D+05 0.11483894D+01  1  2  2  2  7  2        1 0.500664419298D-03 0.100000000000D+01
-.359419694177D-06 0.000000000000D+00 -.268845419312D-07 0.477786384606D-06 0.000000000000D+00  7 -2 1 -24 -13 13 23 21 2 0.20995880D-01 0.90274592D-01 0.48590444D+05 0.48590444D+05 0.48590444D+05 0.11483894D+01  1  2  3  2  7  2        1 -.338988754137D-04 0.100000000000D+01
0.444437507839D-06 0.000000000000D+00 0.000000000000D+00 0.477786384606D-06 0.000000000000D+00  7 -2 1 -24 -13 13 23 21 2 0.20995880D-01 0.90274592D-01 0.48590444D+05 0.48590444D+05 0.48590444D+05 0.11483894D+01  1  2 15  2  7  2        1 0.419173794633D-04 0.100000000000D+01
0.180344852024D-04 0.000000000000D+00 0.000000000000D+00 0.477786384606D-06 0.000000000000D+00  7 -2 1 -24 -13 13 23 21 2 0.20995880D-01 0.98986496D-01 0.54626864D+05 0.54626864D+05 0.54626864D+05 0.11439298D+01  1  2 12  2  7  2        1 0.147856820154D-02 0.100000000000D+01
-.173891701366D-04 0.000000000000D+00 0.000000000000D+00 0.477786384606D-06 0.000000000000D+00  7 -2 1 -24 -13 13 23 21 2 0.20995880D-01 0.90274592D-01 0.48590444D+05 0.48590444D+05 0.48590444D+05 0.11483894D+01  1  2  4  2  7  2        1 -.164006959429D-02 0.100000000000D+01
-.471550381558D-04 0.000000000000D+00 -.936116163557D-05 0.477786384606D-06 0.000000000000D+00  7 -2 1 -24 -13 13 23 21 2 0.20995880D-01 0.99983871D-01 0.48590444D+05 0.48590444D+05 0.48590444D+05 0.11483894D+01  1  2  5  2  7  2        1 -.384253131026D-02 0.100000000000D+01
0.479097473084D-04 0.000000000000D+00 0.931253030002D-05 0.477786384606D-06 0.000000000000D+00  7 -2 1 -24 -13 13 23 21 2 0.20995880D-01 0.90274592D-01 0.48590444D+05 0.48590444D+05 0.48590444D+05 0.11483894D+01  1  2  6  2  7  2        1 0.451863540429D-02 0.100000000000D+01
0.272782937959D-06 0.000000000000D+00 0.000000000000D+00 0.477786384606D-06 0.000000000000D+00  7 -2 21 -24 -13 13 23 -1 2 0.20995880D-01 0.98986496D-01 0.54626864D+05 0.54626864D+05 0.54626864D+05 0.11439298D+01  1  2 12  4  7  2        1 0.531031705699D-04 0.100000000000D+01
-.747981146849D-06 0.000000000000D+00 -.154866150830D-06 0.477786384606D-06 0.000000000000D+00  7 -2 21 -24 -13 13 23 -1 2 0.20995880D-01 0.99983871D-01 0.48590444D+05 0.48590444D+05 0.48590444D+05 0.11483894D+01  1  2  5  4  7  2        1 -.143819598065D-03 0.100000000000D+01
  </mgrwgt>
  </event>
  <event>
  9     66 0.26562228E-05 0.18128616E+03 0.75467711E-02 0.10025218E+00
       21 -1    0    0  502  501 0.00000000E+00 0.00000000E+00 0.83798707E+02 0.83802064E+02 0.75000000E+00 0.0000E+00 0.9000E+01
        1 -1    0    0  501    0 0.00000000E+00 0.00000000E+00 -.21424092E+04 0.21424092E+04 0.32000000E+00 0.0000E+00 0.9000E+01
       25  2    1    2    0    0 -.40045307E+02 -.20767612E+03 -.17929681E+04 0.18300981E+04 0.29965219E+03 0.0000E+00 0.0000E+00
       23  2    3    3    0    0 0.23038822E+02 -.21868664E+03 -.14550561E+04 0.14742883E+04 0.89348216E+02 0.0000E+00 0.0000E+00
      -24  1    1    2    0    0 -.10552811E+02 0.65751035E+01 -.11002408E+03 0.13684703E+03 0.80419002E+02 0.0000E+00 0.9000E+01
      -13  1    4    4    0    0 0.12017933E+02 -.63625955E+01 -.24513627E+02 0.28032880E+02 0.10565837E+00 0.0000E+00 0.9000E+01
       13  1    4    4    0    0 0.11020890E+02 -.21232404E+03 -.14305424E+04 0.14462554E+04 0.10565837E+00 0.0000E+00 0.9000E+01
       23  1    3    3    0    0 -.63084130E+02 0.11010522E+02 -.33791199E+03 0.35580979E+03 0.91188000E+02 0.0000E+00 0.9000E+01
        2  1    1    2  502    0 0.50598119E+02 0.20110101E+03 -.15561833E+03 0.25926618E+03 0.32000000E+00 0.0000E+00 0.9000E+01
#aMCatNLO 2  0  0  1  2 0.20736872D+03 0.00000000D+00  -5  7  0 0.00000000D+00 0.00000000D+00 0.00000000D+00 0.00000000D+00 0.00000000D+00
  <mgrwgt>
 0.4455656444D-03    1    2    0
 0.226103998090295D+03 0.000000000000000D+00 0.000000000000000D+00 0.226103998090295D+03
 0.226103998090295D+03 0.000000000000000D+00 0.000000000000000D+00 -.226103998090295D+03
 0.133973590758876D+03 0.298885805183767D+01 0.603961468878450D+02 0.884594779269248D+02
 0.172892915276464D+02 0.138482821651868D+02 0.912369569214352D+00 0.103107838872943D+02
 0.177469337665444D+03 0.335838923764143D+02 -.122648210643288D+03 -.123793797947475D+03
 0.123475776228623D+03 -.504210325934388D+02 0.613396941862290D+02 0.250235361332560D+02
 0.000000000000000D+00 0.000000000000000D+00 0.000000000000000D+00 0.000000000000000D+00
 0.651880064110417D+03 0.000000000000000D+00 0.000000000000000D+00 0.651880064110417D+03
 0.275410801594059D+03 0.000000000000000D+00 0.000000000000000D+00 -.275410801594059D+03
 0.120195212143695D+03 -.105528115548767D+02 0.657510464407289D+01 0.884594779269248D+02
 0.170652262270608D+02 0.120179335007578D+02 -.636230745733354D+01 0.103107838872943D+02
 0.246024360654587D+03 0.110208882717222D+02 -.212324331264554D+03 -.123793797947475D+03
 0.114202747726277D+03 -.630841289579542D+02 0.110105202981276D+02 0.250235361332560D+02
 0.429803318952856D+03 0.505981187403510D+02 0.201101013779687D+03 0.376469262516358D+03
0.218245510564D-05 0.000000000000D+00 0.000000000000D+00 0.451239098340D-06 0.195577761176D-10  7 21 1 -24 -13 13 23 2 2 0.12892366D-01 0.32960161D+00 0.98087679D+05 0.98087679D+05 0.98087679D+05 0.11224108D+01  1  2  1  3  7  1       -2 0.445565644417D-03 0.100000000000D+01
  </mgrwgt>
  </event>
  <event>
  8     66 0.26562228E-05 0.16366691E+03 0.75467711E-02 0.10587818E+00
       -2 -1    0    0    0  501 0.00000000E+00 0.00000000E+00 0.14425847E+02 0.14429396E+02 0.32000000E+00 0.0000E+00 0.9000E+01
        1 -1    0    0  501    0 0.00000000E+00 0.00000000E+00 -.32767751E+04 0.32767751E+04 0.32000000E+00 0.0000E+00 0.9000E+01
       25  2    1    2    0    0 0.95901226E+01 -.51973461E+02 -.17933703E+04 0.18190770E+04 0.30011775E+03 0.0000E+00 0.0000E+00
       23  2    3    3    0    0 0.61025327E-01 -.10390666E+03 -.43289657E+03 0.45452871E+03 0.91653181E+02 0.0000E+00 0.0000E+00
      -24  1    1    2    0    0 -.95901226E+01 0.51973461E+02 -.14689789E+04 0.14721276E+04 0.80419002E+02 0.0000E+00 0.9000E+01
      -13  1    4    4    0    0 -.15844240E+02 -.10812205E+03 -.41892375E+03 0.43294172E+03 0.10565837E+00 0.0000E+00 0.9000E+01
       13  1    4    4    0    0 0.15905265E+02 0.42153886E+01 -.13972827E+02 0.21586987E+02 0.10565837E+00 0.0000E+00 0.9000E+01
       23  1    3    3    0    0 0.95290973E+01 0.51933197E+02 -.13604737E+04 0.13645483E+04 0.91188000E+02 0.0000E+00 0.9000E+01
#aMCatNLO 1  0  0  2  1 0.83343776D+02 0.00000000D+00  -5  7  0 0.00000000D+00 0.00000000D+00 0.00000000D+00 0.00000000D+00 0.00000000D+00
  <mgrwgt>
 0.1381329976D-02    4    2    0
 0.217430727586061D+03 0.000000000000000D+00 0.000000000000000D+00 0.217430727586061D+03
 0.217430727586061D+03 0.000000000000000D+00 0.000000000000000D+00 -.217430727586061D+03
 0.121304203869752D+03 -.959012374696731D+01 0.519734673714736D+02 -.738531119046994D+02
 0.133891414977460D+03 -.158442804819219D+02 -.108122193605734D+03 0.773657613583726D+02
 0.585540608664900D+02 0.159053067166269D+02 0.421553545719426D+01 0.561945595499758D+02
 0.121111775458420D+03 0.952909751226229D+01 0.519331907770666D+02 -.597072090036490D+02
 0.000000000000000D+00 0.000000000000000D+00 0.000000000000000D+00 0.000000000000000D+00
 0.320959777949444D+03 0.000000000000000D+00 0.000000000000000D+00 0.320959777949444D+03
 0.238828201043572D+03 0.000000000000000D+00 0.000000000000000D+00 -.238828201043572D+03
 0.120031663922434D+03 -.293268084186585D+02 0.403241932291863D+02 -.738531119046994D+02
 0.149476491368918D+03 -.390183866137616D+02 -.121800352821577D+03 0.773657613583726D+02
 0.565839180870147D+02 0.648920953583842D+01 -.134217087667425D+01 0.561945595499758D+02
 0.116684021587261D+03 -.991807669138933D+01 0.404547957294882D+02 -.597072090036490D+02
 0.117011884027390D+03 0.717740621879710D+02 0.423635347395763D+02 0.821315769058724D+02
0.597515313726D-04 0.000000000000D+00 0.000000000000D+00 0.112556407707D-05 0.000000000000D+00  7 -2 1 -24 -13 13 23 21 0 0.22196352D-02 0.50411952D+00 0.26786859D+05 0.26786859D+05 0.26786859D+05 0.11719284D+01  1  2  2  2  7  2        1 0.160292909227D-02 0.100000000000D+01
-.299388909734D-05 0.000000000000D+00 -.229461613410D-06 0.112556407707D-05 0.000000000000D+00  7 -2 1 -24 -13 13 23 21 2 0.22196352D-02 0.50411952D+00 0.26786859D+05 0.26786859D+05 0.26786859D+05 0.11719284D+01  1  2  3  2  7  2        1 -.110307021377D-03 0.100000000000D+01
0.375952245000D-05 0.000000000000D+00 0.000000000000D+00 0.112556407707D-05 0.000000000000D+00  7 -2 1 -24 -13 13 23 21 2 0.22196352D-02 0.50411952D+00 0.26786859D+05 0.26786859D+05 0.26786859D+05 0.11719284D+01  1  2 15  2  7  2        1 0.138516060474D-03 0.100000000000D+01
-.678014784495D-05 0.000000000000D+00 0.000000000000D+00 0.112556407707D-05 0.000000000000D+00  7 -2 1 -24 -13 13 23 21 2 0.22196352D-02 0.50411952D+00 0.26786859D+05 0.26786859D+05 0.26786859D+05 0.11719284D+01  1  2  4  2  7  2        1 -.249808155532D-03 0.100000000000D+01
  </mgrwgt>
  </event>
  <event>
  8     66 0.26562228E-05 0.13439401E+03 0.75467711E-02 0.95669769E-01
       -4 -1    0    0    0  501 0.00000000E+00 0.00000000E+00 0.70073176E+03 0.70073347E+03 0.15500000E+01 0.0000E+00 0.9000E+01
        3 -1    0    0  501    0 0.00000000E+00 0.00000000E+00 -.29981869E+03 0.29981911E+03 0.50000000E+00 0.0000E+00 0.9000E+01
       25  2    1    2    0    0 0.12563806E+02 -.51312579E+02 -.21740175E+03 0.37479604E+03 0.30069540E+03 0.0000E+00 0.0000E+00
       23  2    3    3    0    0 0.24519069E+02 0.23878608E+02 0.27892636E+02 0.10225021E+03 0.92226539E+02 0.0000E+00 0.0000E+00
      -24  1    1    2    0    0 -.12563806E+02 0.51312579E+02 0.61831481E+03 0.62575654E+03 0.80419002E+02 0.0000E+00 0.9000E+01
      -11  1    4    4    0    0 -.10760037E+02 0.12962360E+02 -.29518475E+02 0.33987373E+02 0.51099893E-03 0.0000E+00 0.9000E+01
       11  1    4    4    0    0 0.35279106E+02 0.10916248E+02 0.57411111E+02 0.68262841E+02 0.51099893E-03 0.0000E+00 0.9000E+01
       23  1    3    3    0    0 -.11955263E+02 -.75191188E+02 -.24529438E+03 0.27254583E+03 0.91188000E+02 0.0000E+00 0.9000E+01
#aMCatNLO 1  0  0  1  1 0.41884209D+03 0.00000000D+00  -5  7  0 0.00000000D+00 0.00000000D+00 0.00000000D+00 0.00000000D+00 0.00000000D+00
  <mgrwgt>
 0.1927715876D-03    3    2    0
 0.458359625320903D+03 0.000000000000000D+00 0.000000000000000D+00 0.458359625320903D+03
 0.458359625320903D+03 0.000000000000000D+00 0.000000000000000D+00 -.458359625320903D+03
 0.412571065606265D+03 -.125638056519163D+02 0.513125794543686D+02 0.401194264912148D+03
 0.500049455393201D+02 -.107600370740189D+02 0.129623599958880D+02 -.470817735848291D+02
 0.493975637505994D+02 0.352791058666380D+02 0.109162484579766D+02 0.328076136491030D+02
 0.404745675745621D+03 -.119552631407028D+02 -.751911879082331D+02 -.386920104976422D+03
 0.000000000000000D+00 0.000000000000000D+00 0.000000000000000D+00 -.000000000000000D+00
 0.630478754764003D+03 0.000000000000000D+00 0.000000000000000D+00 0.630478754764003D+03
 0.850513018746877D+03 0.000000000000000D+00 0.000000000000000D+00 -.850513018746877D+03
 0.432317222579794D+03 -.583470919337921D+02 -.126766492612234D+03 0.401194264912148D+03
 0.504652821045685D+02 -.162043748158772D+02 -.821398385846542D+01 -.470817735848291D+02
 0.454652630500112D+02 0.301386251455182D+02 -.907821046219186D+01 0.328076136491030D+02
 0.479622699128743D+03 -.598779187765610D+02 -.261591569786878D+03 -.386920104976422D+03
 0.473121306647764D+03 0.104290760380712D+03 0.405650256719769D+03 -.220034263982874D+03
0.200862046064D-03 0.000000000000D+00 0.000000000000D+00 0.482321149208D-05 0.000000000000D+00  7 -4 3 -24 -11 11 23 21 0 0.10780505D+00 0.46126117D-01 0.18061750D+05 0.18061750D+05 0.18061750D+05 0.11883508D+01  1  2  2  1  7  1       -4 0.167599017340D-03 0.100000000000D+01
0.926353885423D-05 0.000000000000D+00 -.771363145078D-06 0.482321149208D-05 0.000000000000D+00  7 -4 3 -24 -11 11 23 21 2 0.10780505D+00 0.46126117D-01 0.18061750D+05 0.18061750D+05 0.18061750D+05 0.11883508D+01  1  2  3  1  7  1       -4 0.109154053927D-04 0.100000000000D+01
0.120995781798D-04 0.000000000000D+00 0.000000000000D+00 0.482321149208D-05 0.000000000000D+00  7 -4 3 -24 -11 11 23 21 2 0.10780505D+00 0.46126117D-01 0.18061750D+05 0.18061750D+05 0.18061750D+05 0.11883508D+01  1  2 15  1  7  1       -4 0.142571648903D-04 0.100000000000D+01
  </mgrwgt>
  </event>
  <event>
  8     66 0.26562228E-05 0.19936323E+03 0.75467711E-02 0.85757488E-01
       -2 -1    0    0    0  501 0.00000000E+00 0.00000000E+00 0.49232751E+02 0.49233791E+02 0.32000000E+00 0.0000E+00 0.9000E+01
        1 -1    0    0  501    0 0.00000000E+00 0.00000000E+00 -.10062306E+04 0.10062307E+04 0.32000000E+00 0.0000E+00 0.9000E+01
       25  2    1    2    0    0 -.99164997E+02 0.27641697E+02 -.76112829E+03 0.82002898E+03 0.28728642E+03 0.0000E+00 0.0000E+00
       23  2    3    3    0    0 -.57582914E+02 -.84982741E+02 -.21469733E+03 0.25318210E+03 0.86419756E+02 0.0000E+00 0.0000E+00
      -24  1    1    2    0    0 0.99164997E+02 -.27641697E+02 -.19586957E+03 0.23543548E+03 0.80419002E+02 0.0000E+00 0.9000E+01
      -11  1    4    4    0    0 -.52983046E+02 -.27551712E+02 -.47405096E+02 0.76246594E+02 0.51099893E-03 0.0000E+00 0.9000E+01
       11  1    4    4    0    0 -.45998681E+01 -.57431030E+02 -.16729223E+03 0.17693550E+03 0.51099893E-03 0.0000E+00 0.9000E+01
       23  1    3    3    0    0 -.41582083E+02 0.11262444E+03 -.54643096E+03 0.56684688E+03 0.91188000E+02 0.0000E+00 0.9000E+01
#aMCatNLO 1  0  0  1  1 0.11556668D+04 0.00000000D+00  -5  7  0 0.00000000D+00 0.00000000D+00 0.00000000D+00 0.00000000D+00 0.00000000D+00
  <mgrwgt>
 0.1173575020D-01    5    2    0
 0.222576003408850D+03 0.000000000000000D+00 0.000000000000000D+00 0.222576003408850D+03
 0.222576003408850D+03 0.000000000000000D+00 0.000000000000000D+00 -.222576003408850D+03
 0.137137468402420D+03 0.991649974148640D+02 -.276416975161258D+02 0.417337888477817D+02
 0.788696761517066D+02 -.529830462621754D+02 -.275517117580794D+02 0.515182084728784D+02
 0.598690498395670D+02 -.459986814006628D+01 -.574310293758146D+02 -.162733280745175D+02
 0.169275812424007D+03 -.415820830126223D+02 0.112624438650020D+03 -.769786692461427D+02
 0.000000000000000D+00 0.000000000000000D+00 0.000000000000000D+00 0.000000000000000D+00
 0.130689810563927D+04 0.000000000000000D+00 0.000000000000000D+00 0.130689810563927D+04
 0.110475188286895D+04 0.000000000000000D+00 0.000000000000000D+00 -.110475188286895D+04
 0.375162337411356D+03 -.329447065168914D+01 -.364042581010952D+03 0.417337888477817D+02
 0.327920583259700D+03 -.134340706602766D+03 -.294669913073249D+03 0.515182084728784D+02
 0.312667118889880D+03 -.791067433143384D+02 -.302056334465074D+03 -.162733280745175D+02
 0.222686903886268D+03 -.119974249004718D+03 -.144757279178972D+03 -.769786692461427D+02
 0.117321304506101D+04 0.336716169573512D+03 0.110552610772825D+04 0.202146222770317D+03
0.747504648321D-04 0.000000000000D+00 0.000000000000D+00 0.106095947245D-09 0.000000000000D+00  7 -2 1 -24 -11 11 23 21 0 0.75743533D-02 0.15480479D+00 0.39745697D+05 0.39745697D+05 0.39745697D+05 0.11561678D+01  1  2  2  1  7  1       -2 0.114506414646D-01 0.100000000000D+01
-.409155240419D-05 0.000000000000D+00 -.287061467205D-06 0.106095947245D-09 0.000000000000D+00  7 -2 1 -24 -11 11 23 21 2 0.75743533D-02 0.15480479D+00 0.39745697D+05 0.39745697D+05 0.39745697D+05 0.11561678D+01  1  2  3  1  7  1       -2 -.837810424748D-03 0.100000000000D+01
0.488047316026D-05 0.000000000000D+00 0.000000000000D+00 0.106095947245D-09 0.000000000000D+00  7 -2 1 -24 -11 11 23 21 2 0.75743533D-02 0.15480479D+00 0.39745697D+05 0.39745697D+05 0.39745697D+05 0.11561678D+01  1  2 15  1  7  1       -2 0.999354496153D-03 0.100000000000D+01
0.101462246850D-02 0.000000000000D+00 -.223113379636D-03 0.106095947245D-09 0.000000000000D+00  7 -2 1 -24 -11 11 23 21 2 0.34572306D+00 0.15480479D+00 0.39745697D+05 0.39745697D+05 0.39745697D+05 0.11561678D+01  1  2  5  1  7  1       -2 0.387077987018D-04 0.100000000000D+01
0.284671997000D-03 0.000000000000D+00 -.782896710528D-04 0.106095947245D-09 0.000000000000D+00  7 21 1 -24 -11 11 23 2 2 0.34572306D+00 0.15480479D+00 0.39745697D+05 0.39745697D+05 0.39745697D+05 0.11561678D+01  1  2  5  3  7  1       -2 0.848568629806D-04 0.100000000000D+01
  </mgrwgt>
  </event>
  <event>
  8     66 0.26562228E-05 0.15649006E+03 0.75467711E-02 0.10541346E+00
       -2 -1    0    0    0  501 0.00000000E+00 0.00000000E+00 0.53698747E+03 0.53698757E+03 0.32000000E+00 0.0000E+00 0.9000E+01
        1 -1    0    0  501    0 0.00000000E+00 0.00000000E+00 -.16493684E+03 0.16493715E+03 0.32000000E+00 0.0000E+00 0.9000E+01
       25  2    1    2    0    0 -.35951539E+02 0.85121333E+02 0.28658920E+01 0.31294818E+03 0.29898193E+03 0.0000E+00 0.0000E+00
       23  2    3    3    0    0 0.89521972E+02 0.21463838E+02 0.50136258E+02 0.13874825E+03 0.90898578E+02 0.0000E+00 0.0000E+00
      -24  1    1    2    0    0 0.35951539E+02 -.85121333E+02 0.36918474E+03 0.38897653E+03 0.80419002E+02 0.0000E+00 0.9000E+01
      -11  1    4    4    0    0 0.11866906E+02 0.38494671E+02 0.43011080E+02 0.58928908E+02 0.51099893E-03 0.0000E+00 0.9000E+01
       11  1    4    4    0    0 0.77655066E+02 -.17030833E+02 0.71251784E+01 0.79819338E+02 0.51099893E-03 0.0000E+00 0.9000E+01
       23  1    3    3    0    0 -.12547351E+03 0.63657495E+02 -.47270366E+02 0.17419994E+03 0.91188000E+02 0.0000E+00 0.9000E+01
#aMCatNLO 1  0  0  1  2 0.15215885D+02 0.00000000D+00  -5  7  0 0.00000000D+00 0.00000000D+00 0.00000000D+00 0.00000000D+00 0.00000000D+00
  <mgrwgt>
 0.9608348908D-03    6    2    0
 0.297605709106470D+03 0.000000000000000D+00 0.000000000000000D+00 0.297605709106470D+03
 0.297605709106470D+03 0.000000000000000D+00 0.000000000000000D+00 -.297605709106470D+03
 0.227947283466958D+03 0.359515390415833D+02 -.851213326926022D+02 0.192235776188440D+03
 0.426089895593025D+02 0.118669061314738D+02 0.384946708275840D+02 0.138875069039583D+02
 0.896761008817782D+02 0.776550662225955D+02 -.170308332612842D+02 -.414902937775753D+02
 0.234979044304902D+03 -.125473511395653D+03 0.636574951263024D+02 -.164632989314823D+03
 0.000000000000000D+00 -.000000000000000D+00 0.000000000000000D+00 -.000000000000000D+00
 0.303694752413856D+03 0.000000000000000D+00 0.000000000000000D+00 0.303694752413856D+03
 0.307362912987970D+03 0.000000000000000D+00 0.000000000000000D+00 -.307362912987970D+03
 0.230371456088765D+03 0.376651751780932D+02 -.907222836910469D+02 0.192235776188440D+03
 0.417706511144121D+02 0.121823983620214D+02 0.374634971227122D+02 0.138875069039583D+02
 0.907025152161840D+02 0.783294949293482D+02 -.192351764459232D+02 -.414902937775753D+02
 0.232561252193874D+03 -.123725396212469D+03 0.579438507463532D+02 -.164632989314823D+03
 0.156517907885905D+02 -.445167225699356D+01 0.145501122679047D+02 -.366816057411456D+01
0.179950300010D-04 0.000000000000D+00 0.000000000000D+00 0.917893292274D-06 0.000000000000D+00  7 -2 1 -24 -11 11 23 21 0 0.82613488D-01 0.25374929D-01 0.42013342D+05 0.42013342D+05 0.42013342D+05 0.11540036D+01  1  2  2  1  7  1       -2 0.515858290156D-03 0.100000000000D+01
-.830702285045D-06 0.000000000000D+00 -.691056534042D-07 0.917893292274D-06 0.000000000000D+00  7 -2 1 -24 -11 11 23 21 2 0.82613488D-01 0.25374929D-01 0.42013342D+05 0.42013342D+05 0.42013342D+05 0.11540036D+01  1  2  3  1  7  1       -2 -.317130152827D-04 0.100000000000D+01
0.111191560671D-05 0.000000000000D+00 0.000000000000D+00 0.917893292274D-06 0.000000000000D+00  7 -2 1 -24 -11 11 23 21 2 0.82613488D-01 0.25374929D-01 0.42013342D+05 0.42013342D+05 0.42013342D+05 0.11540036D+01  1  2 15  1  7  1       -2 0.424486573150D-04 0.100000000000D+01
0.271158542519D-04 0.000000000000D+00 0.000000000000D+00 0.917893292274D-06 0.000000000000D+00  7 -2 1 -24 -11 11 23 21 2 0.85622923D-01 0.25374929D-01 0.45470351D+05 0.45470351D+05 0.45470351D+05 0.11509408D+01  1  2 12  1  7  1       -2 0.949600813996D-03 0.100000000000D+01
-.165478723188D-04 0.000000000000D+00 0.000000000000D+00 0.917893292274D-06 0.000000000000D+00  7 -2 1 -24 -11 11 23 21 2 0.82613488D-01 0.25374929D-01 0.42013342D+05 0.42013342D+05 0.42013342D+05 0.11540036D+01  1  2  4  1  7  1       -2 -.631734060671D-03 0.100000000000D+01
0.329798926161D-06 0.000000000000D+00 0.000000000000D+00 0.917893292274D-06 0.000000000000D+00  7 21 1 -24 -11 11 23 2 2 0.85622923D-01 0.25374929D-01 0.45470351D+05 0.45470351D+05 0.45470351D+05 0.11509408D+01  1  2 12  3  7  1       -2 0.116374205254D-03 0.100000000000D+01
  </mgrwgt>
  </event>
  <event>
  8     66 0.26562228E-05 0.27651291E+03 0.75467711E-02 0.93877079E-01
       -2 -1    0    0    0  501 0.00000000E+00 0.00000000E+00 0.53727614E+03 0.53727624E+03 0.32000000E+00 0.0000E+00 0.9000E+01
        1 -1    0    0  501    0 0.00000000E+00 0.00000000E+00 -.43801669E+03 0.43801681E+03 0.32000000E+00 0.0000E+00 0.9000E+01
       25  2    1    2    0    0 -.31488998E+03 -.23095198E+03 0.24677911E+03 0.55017685E+03 0.29883126E+03 0.0000E+00 0.0000E+00
       23  2    3    3    0    0 -.19936756E+03 -.21236669E+03 0.26193858E+03 0.40105977E+03 0.85965613E+02 0.0000E+00 0.0000E+00
      -24  1    1    2    0    0 0.31488998E+03 0.23095198E+03 -.14751966E+03 0.42511620E+03 0.80419002E+02 0.0000E+00 0.9000E+01
      -13  1    4    4    0    0 -.14875402E+03 -.16000866E+03 0.14142559E+03 0.26025322E+03 0.10565837E+00 0.0000E+00 0.9000E+01
       13  1    4    4    0    0 -.50613541E+02 -.52358030E+02 0.12051299E+03 0.14080655E+03 0.10565837E+00 0.0000E+00 0.9000E+01
       23  1    3    3    0    0 -.11552242E+03 -.18585290E+02 -.15159470E+02 0.14911708E+03 0.91188000E+02 0.0000E+00 0.9000E+01
#aMCatNLO 1  0  0  1  2 0.20272729D+03 0.00000000D+00  -5  7  0 0.00000000D+00 0.00000000D+00 0.00000000D+00 0.00000000D+00 0.00000000D+00
  <mgrwgt>
 0.1528754855D-02    9    2    0
 0.485114441628333D+03 0.000000000000000D+00 0.000000000000000D+00 0.485114441628333D+03
 0.485114441628333D+03 0.000000000000000D+00 0.000000000000000D+00 -.485114441628333D+03
 0.442427140271813D+03 0.314889981635470D+03 0.230951975118661D+03 -.191781237740107D+03
 0.247143230214424D+03 -.148754169772271D+03 -.160008817729156D+03 0.115538528054932D+03
 0.129212216613865D+03 -.506133924611696D+02 -.523578672865514D+02 0.106736756363701D+03
 0.151446296156563D+03 -.115522419402029D+03 -.185852901029538D+02 -.304940466785254D+02
 0.000000000000000D+00 0.000000000000000D+00 0.000000000000000D+00 0.000000000000000D+00
 0.615238642018691D+03 0.000000000000000D+00 0.000000000000000D+00 0.615238642018691D+03
 0.581465016720589D+03 0.000000000000000D+00 0.000000000000000D+00 -.581465016720589D+03
 0.371775563359895D+03 0.257329854188989D+03 0.169561660027092D+03 -.191781237740107D+03
 0.298129782501663D+03 -.187302290486031D+03 -.201122021986840D+03 0.115538528054932D+03
 0.147216997436323D+03 -.701555786019032D+02 -.732004369259811D+02 0.106736756363701D+03
 0.174060000658052D+03 -.138534113966183D+03 -.431282374999670D+02 -.304940466785254D+02
 0.205521314783348D+03 0.138662128865128D+03 0.147889036385696D+03 0.337736252981019D+02
0.148032772961D-03 0.000000000000D+00 0.000000000000D+00 0.882903484025D-07 0.000000000000D+00  7 -2 1 -24 -13 13 23 21 0 0.82657884D-01 0.67387200D-01 0.17570352D+06 0.17570352D+06 0.17570352D+06 0.11021718D+01  1  2  2  1  7  1       -2 0.114757356662D-02 0.100000000000D+01
-.801058327793D-05 0.000000000000D+00 -.568484826095D-06 0.882903484025D-07 0.000000000000D+00  7 -2 1 -24 -13 13 23 21 2 0.82657884D-01 0.67387200D-01 0.17570352D+06 0.17570352D+06 0.17570352D+06 0.11021718D+01  1  2  3  1  7  1       -2 -.754371708101D-04 0.100000000000D+01
0.947252394329D-05 0.000000000000D+00 0.000000000000D+00 0.882903484025D-07 0.000000000000D+00  7 -2 1 -24 -13 13 23 21 2 0.82657884D-01 0.67387200D-01 0.17570352D+06 0.17570352D+06 0.17570352D+06 0.11021718D+01  1  2 15  1  7  1       -2 0.892045412824D-04 0.100000000000D+01
0.492150024913D-04 0.000000000000D+00 0.000000000000D+00 0.882903484025D-07 0.000000000000D+00  7 -2 1 -24 -13 13 23 21 2 0.11117712D+00 0.67387200D-01 0.28558829D+06 0.28558829D+06 0.28558829D+06 0.10861373D+01  1  2 12  1  7  1       -2 0.218993286413D-03 0.100000000000D+01
-.677501053335D-04 0.000000000000D+00 0.000000000000D+00 0.882903484025D-07 0.000000000000D+00  7 -2 1 -24 -13 13 23 21 2 0.82657884D-01 0.67387200D-01 0.17570352D+06 0.17570352D+06 0.17570352D+06 0.11021718D+01  1  2  4  1  7  1       -2 -.638015496640D-03 0.100000000000D+01
-.119974450218D-03 0.000000000000D+00 -.592950346235D-04 0.882903484025D-07 0.000000000000D+00  7 -2 1 -24 -13 13 23 21 2 0.12097075D+00 0.67387200D-01 0.17570352D+06 0.17570352D+06 0.17570352D+06 0.11021718D+01  1  2  5  1  7  1       -2 -.452229703616D-03 0.100000000000D+01
0.136585571638D-03 0.000000000000D+00 0.552404017355D-04 0.882903484025D-07 0.000000000000D+00  7 -2 1 -24 -13 13 23 21 2 0.82657884D-01 0.67387200D-01 0.17570352D+06 0.17570352D+06 0.17570352D+06 0.11021718D+01  1  2  6  1  7  1       -2 0.128625204187D-02 0.100000000000D+01
0.188595506293D-05 0.000000000000D+00 0.000000000000D+00 0.882903484025D-07 0.000000000000D+00  7 21 1 -24 -13 13 23 2 2 0.11117712D+00 0.67387200D-01 0.28558829D+06 0.28558829D+06 0.28558829D+06 0.10861373D+01  1  2 12  3  7  1       -2 0.759366574747D-04 0.100000000000D+01
-.361789678473D-05 0.000000000000D+00 -.272299209839D-05 0.882903484025D-07 0.000000000000D+00  7 21 1 -24 -13 13 23 2 2 0.12097075D+00 0.67387200D-01 0.17570352D+06 0.17570352D+06 0.17570352D+06 0.11021718D+01  1  2  5  3  7  1       -2 -.123522867557D-03 0.100000000000D+01
  </mgrwgt>
  </event>
  <event>
  8     66 0.26562228E-05 0.25732885E+03 0.75467711E-02 0.10072217E+00
       -2 -1    0    0    0  501 0.00000000E+00 0.00000000E+00 0.87271442E+02 0.87272029E+02 0.32000000E+00 0.0000E+00 0.9000E+01
        1 -1    0    0  501    0 0.00000000E+00 0.00000000E+00 -.15131190E+04 0.15131191E+04 0.32000000E+00 0.0000E+00 0.9000E+01
       25  2    1    2    0    0 -.98220462E+02 0.14152884E+03 -.29959395E+03 0.45820366E+03 0.30085941E+03 0.0000E+00 0.0000E+00
       23  2    3    3    0    0 -.16375922E+03 0.71604376E+02 -.25101428E+03 0.31727816E+03 0.75584369E+02 0.0000E+00 0.0000E+00
      -24  1    1    2    0    0 0.98220462E+02 -.14152884E+03 -.11262536E+04 0.11421874E+04 0.80419002E+02 0.0000E+00 0.9000E+01
      -13  1    4    4    0    0 -.91837932E+02 0.77391037E+02 -.17713245E+03 0.21400817E+03 0.10565837E+00 0.0000E+00 0.9000E+01
       13  1    4    4    0    0 -.71921285E+02 -.57866615E+01 -.73881822E+02 0.10326999E+03 0.10565837E+00 0.0000E+00 0.9000E+01
       23  1    3    3    0    0 0.65538756E+02 0.69924463E+02 -.48579676E+02 0.14092550E+03 0.91188000E+02 0.0000E+00 0.9000E+01
#aMCatNLO 1  0  0  1  2 0.88579482D+02 0.00000000D+00  -5  7  0 0.00000000D+00 0.00000000D+00 0.00000000D+00 0.00000000D+00 0.00000000D+00
  <mgrwgt>
 0.4160482933D-02    3    2    0
 0.363390391963998D+03 0.000000000000000D+00 0.000000000000000D+00 0.363390391963998D+03
 0.363390391963998D+03 0.000000000000000D+00 0.000000000000000D+00 -.363390391963998D+03
 0.305567476894091D+03 0.982204618649247D+02 -.141528838953423D+03 -.239220809288379D+03
 0.123741496047434D+03 -.918379711944451D+02 0.773911986348810D+02 0.298051550038221D+02
 0.824569145952240D+02 -.719212462594110D+02 -.578682323010149D+01 0.399122760308251D+02
 0.215014896391248D+03 0.655387555889314D+02 0.699244635486431D+02 0.169503378253732D+03
 0.000000000000000D+00 0.000000000000000D+00 -.000000000000000D+00 -.000000000000000D+00
 0.370676602155709D+03 0.000000000000000D+00 0.000000000000000D+00 0.370676602155709D+03
 0.792773588405651D+03 0.000000000000000D+00 0.000000000000000D+00 -.792773588405651D+03
 0.289937958326493D+03 0.962024552250468D+02 -.105429102890286D+03 -.239220809288379D+03
 0.134699577461486D+03 -.927137579992540D+02 0.930579818240051D+02 0.298051550038221D+02
 0.828521396505769D+02 -.724814338737799D+02 0.423426620783072D+01 0.399122760308251D+02
 0.224669209326835D+03 0.640487852338175D+02 0.965782591797440D+02 0.169503378253732D+03
 0.431291305795969D+03 0.494395141416958D+01 -.884414043212942D+02 -.422096986249942D+03
0.143292600373D-03 0.000000000000D+00 0.000000000000D+00 0.104520045688D-07 0.000000000000D+00  7 -2 1 -24 -13 13 23 21 0 0.13426423D-01 0.23278759D+00 0.66218139D+05 0.66218139D+05 0.66218139D+05 0.11367159D+01  1  2  2  1  7  1       -2 0.407614588677D-02 0.100000000000D+01
-.680783031645D-05 0.000000000000D+00 -.550281315240D-06 0.104520045688D-07 0.000000000000D+00  7 -2 1 -24 -13 13 23 21 2 0.13426423D-01 0.23278759D+00 0.66218139D+05 0.66218139D+05 0.66218139D+05 0.11367159D+01  1  2  3  1  7  1       -2 -.250229511088D-03 0.100000000000D+01
0.910233306332D-05 0.000000000000D+00 0.000000000000D+00 0.104520045688D-07 0.000000000000D+00  7 -2 1 -24 -13 13 23 21 2 0.13426423D-01 0.23278759D+00 0.66218139D+05 0.66218139D+05 0.66218139D+05 0.11367159D+01  1  2 15  1  7  1       -2 0.334566557379D-03 0.100000000000D+01
  </mgrwgt>
  </event>
  <event>
  8     66 0.26562228E-05 0.22709386E+03 0.75467711E-02 0.89233102E-01
       -2 -1    0    0    0  501 0.00000000E+00 0.00000000E+00 0.28857558E+03 0.28857576E+03 0.32000000E+00 0.0000E+00 0.9000E+01
        1 -1    0    0  501    0 0.00000000E+00 0.00000000E+00 -.27959276E+04 0.27959277E+04 0.32000000E+00 0.0000E+00 0.9000E+01
       25  2    1    2    0    0 0.11567697E+03 -.45372327E+02 -.27668076E+04 0.27857992E+04 0.30002174E+03 0.0000E+00 0.0000E+00
       23  2    3    3    0    0 0.79706473E+02 0.87353510E+02 -.16783218E+04 0.16848784E+04 0.89818559E+02 0.0000E+00 0.0000E+00
      -24  1    1    2    0    0 -.11567697E+03 0.45372327E+02 0.25945555E+03 0.29870421E+03 0.80419002E+02 0.0000E+00 0.9000E+01
      -13  1    4    4    0    0 0.93905301E+02 0.63310329E+02 -.15113927E+04 0.15156300E+04 0.10565837E+00 0.0000E+00 0.9000E+01
       13  1    4    4    0    0 -.14198828E+02 0.24043181E+02 -.16692909E+03 0.16924838E+03 0.10565837E+00 0.0000E+00 0.9000E+01
       23  1    3    3    0    0 0.35970495E+02 -.13272584E+03 -.10884858E+04 0.11009208E+04 0.91188000E+02 0.0000E+00 0.9000E+01
#aMCatNLO 1  0  0  1  2 0.76465022D+03 0.00000000D+00  -5  7  0 0.00000000D+00 0.00000000D+00 0.00000000D+00 0.00000000D+00 0.00000000D+00
  <mgrwgt>
 0.1572512376D-02    3    2    0
 0.898240913102953D+03 0.000000000000000D+00 0.000000000000000D+00 0.898240913102953D+03
 0.898240913102953D+03 0.000000000000000D+00 0.000000000000000D+00 -.898240913102953D+03
 0.874988290363663D+03 -.115676968117069D+03 0.453723267269365D+02 0.862378967353554D+03
 0.492837382730583D+03 0.939054504266002D+02 0.633103837467310D+02 -.479648045452862D+03
 0.576104464157382D+02 -.141989777686780D+02 0.240431267086182D+02 -.503912752827169D+02
 0.371045706695921D+03 0.359704954591468D+02 -.132725837182286D+03 -.332339646617975D+03
 0.000000000000000D+00 -.000000000000000D+00 -.000000000000000D+00 -.000000000000000D+00
 0.124910963109189D+04 0.000000000000000D+00 0.000000000000000D+00 0.124910963109189D+04
 0.151187260195404D+04 0.000000000000000D+00 0.000000000000000D+00 -.151187260195404D+04
 0.964450061109454D+03 -.723678667146470D+02 0.418045587170883D+03 0.862378967353554D+03
 0.567004224021959D+03 0.118859147613892D+03 0.278036050864797D+03 -.479648045452862D+03
 0.720795125960679D+02 -.111454611443127D+02 0.503185274759584D+02 -.503912752827169D+02
 0.348910034613497D+03 0.529216676365968D+02 0.131383899467423D+02 -.332339646617975D+03
 0.808538400704952D+03 -.882674873915291D+02 -.759538555458382D+03 -.262762970862149D+03
0.253483097045D-02 0.000000000000D+00 0.000000000000D+00 0.346579384840D-04 0.000000000000D+00  7 -2 1 -24 -13 13 23 21 0 0.44396258D-01 0.43014273D+00 0.51571622D+05 0.51571622D+05 0.51571622D+05 0.11461150D+01  1  2  2  1  7  1       -2 0.133893660313D-02 0.100000000000D+01
0.182926747116D-03 0.000000000000D+00 -.973441836287D-05 0.346579384840D-04 0.000000000000D+00  7 -2 1 -24 -13 13 23 21 2 0.44396258D-01 0.43014273D+00 0.51571622D+05 0.51571622D+05 0.51571622D+05 0.11461150D+01  1  2  3  1  7  1       -2 0.126924256129D-03 0.100000000000D+01
0.153709114061D-03 0.000000000000D+00 0.000000000000D+00 0.346579384840D-04 0.000000000000D+00  7 -2 1 -24 -13 13 23 21 2 0.44396258D-01 0.43014273D+00 0.51571622D+05 0.51571622D+05 0.51571622D+05 0.11461150D+01  1  2 15  1  7  1       -2 0.106651516359D-03 0.100000000000D+01
  </mgrwgt>
  </event>
  <event>
  8     66 0.26562228E-05 0.10770067E+03 0.75467711E-02 0.10244742E+00
       -2 -1    0    0    0  501 0.00000000E+00 0.00000000E+00 0.24484139E+03 0.24484160E+03 0.32000000E+00 0.0000E+00 0.9000E+01
        1 -1    0    0  501    0 0.00000000E+00 0.00000000E+00 -.25634107E+03 0.25634127E+03 0.32000000E+00 0.0000E+00 0.9000E+01
       25  2    1    2    0    0 -.98515135E+01 -.13752727E+03 -.58118578E+02 0.33489595E+03 0.29961095E+03 0.0000E+00 0.0000E+00
       23  2    3    3    0    0 -.52958439E+02 0.31135872E+02 -.86438145E+02 0.13634442E+03 0.85698354E+02 0.0000E+00 0.0000E+00
      -24  1    1    2    0    0 0.98515135E+01 0.13752727E+03 0.46618896E+02 0.16628692E+03 0.80419002E+02 0.0000E+00 0.9000E+01
      -13  1    4    4    0    0 0.21537037E+02 0.96223462E+01 -.54274051E+01 0.24205400E+02 0.10565837E+00 0.0000E+00 0.9000E+01
       13  1    4    4    0    0 -.74495475E+02 0.21513526E+02 -.81010740E+02 0.11213902E+03 0.10565837E+00 0.0000E+00 0.9000E+01
       23  1    3    3    0    0 0.43106925E+02 -.16866314E+03 0.28319567E+02 0.19855153E+03 0.91188000E+02 0.0000E+00 0.9000E+01
#aMCatNLO 1  0  0  1  2 0.64920596D+02 0.00000000D+00  -5  7  0 0.00000000D+00 0.00000000D+00 0.00000000D+00 0.00000000D+00 0.00000000D+00
  <mgrwgt>
 0.1309444379D-02    9    2    0
 0.250525458140450D+03 0.000000000000000D+00 0.000000000000000D+00 0.250525458140450D+03
 0.250525458140450D+03 0.000000000000000D+00 0.000000000000000D+00 -.250525458140450D+03
 0.167400665248856D+03 0.985151361092105D+01 0.137527268524857D+03 0.504476447721269D+02
 0.240870765080483D+02 0.215371807243607D+02 0.962232811544573D+01 -.487318199839727D+01
 0.110309388364344D+03 -.744956195358278D+02 0.215135443799380D+02 -.784584682459533D+02
 0.199253786159652D+03 0.431069252005460D+02 -.168663141020241D+03 0.328840054722236D+02
 0.000000000000000D+00 0.000000000000000D+00 0.000000000000000D+00 0.000000000000000D+00
 0.300026100845221D+03 0.000000000000000D+00 0.000000000000000D+00 0.300026100845221D+03
 0.274845936556476D+03 0.000000000000000D+00 0.000000000000000D+00 -.274845936556476D+03
 0.161001312975912D+03 -.982206718122030D+01 0.129664061940192D+03 0.504476447721269D+02
 0.212344645852205D+02 0.188221026814613D+02 0.853715608853464D+01 -.487318199839727D+01
 0.119159861297611D+03 -.882424363087970D+02 0.160191678701680D+02 -.784584682459533D+02
 0.203843615814548D+03 0.189585648657190D+02 -.178314843371728D+03 0.328840054722236D+02
 0.696327827284050D+02 0.602838359428369D+02 0.240944574728342D+02 0.251801642887446D+02
0.115958649018D-04 0.000000000000D+00 0.000000000000D+00 0.630769024343D-07 0.000000000000D+00  7 -2 1 -24 -13 13 23 21 0 0.37667937D-01 0.39437119D-01 0.52273669D+05 0.52273669D+05 0.52273669D+05 0.11456005D+01  1  2  2  1  7  1       -2 0.910753957247D-03 0.100000000000D+01
-.637666071269D-06 0.000000000000D+00 -.445311744842D-07 0.630769024343D-07 0.000000000000D+00  7 -2 1 -24 -13 13 23 21 2 0.37667937D-01 0.39437119D-01 0.52273669D+05 0.52273669D+05 0.52273669D+05 0.11456005D+01  1  2  3  1  7  1       -2 -.657290891087D-04 0.100000000000D+01
0.749700895165D-06 0.000000000000D+00 0.000000000000D+00 0.630769024343D-07 0.000000000000D+00  7 -2 1 -24 -13 13 23 21 2 0.37667937D-01 0.39437119D-01 0.52273669D+05 0.52273669D+05 0.52273669D+05 0.11456005D+01  1  2 15  1  7  1       -2 0.772773700272D-04 0.100000000000D+01
0.100955827395D-04 0.000000000000D+00 0.000000000000D+00 0.630769024343D-07 0.000000000000D+00  7 -2 1 -24 -13 13 23 21 2 0.46655466D-01 0.39437119D-01 0.70050293D+05 0.70050293D+05 0.70050293D+05 0.11346331D+01  1  2 12  1  7  1       -2 0.683750455534D-03 0.100000000000D+01
-.101935266817D-04 0.000000000000D+00 0.000000000000D+00 0.630769024343D-07 0.000000000000D+00  7 -2 1 -24 -13 13 23 21 2 0.37667937D-01 0.39437119D-01 0.52273669D+05 0.52273669D+05 0.52273669D+05 0.11456005D+01  1  2  4  1  7  1       -2 -.105072427997D-02 0.100000000000D+01
-.209074996546D-04 0.000000000000D+00 -.645213732707D-05 0.630769024343D-07 0.000000000000D+00  7 -2 1 -24 -13 13 23 21 2 0.48952117D-01 0.39437119D-01 0.52273669D+05 0.52273669D+05 0.52273669D+05 0.11456005D+01  1  2  5  1  7  1       -2 -.131802612752D-02 0.100000000000D+01
0.220521096371D-04 0.000000000000D+00 0.623679560576D-05 0.630769024343D-07 0.000000000000D+00  7 -2 1 -24 -13 13 23 21 2 0.37667937D-01 0.39437119D-01 0.52273669D+05 0.52273669D+05 0.52273669D+05 0.11456005D+01  1  2  6  1  7  1       -2 0.227307856679D-02 0.100000000000D+01
0.304171136217D-06 0.000000000000D+00 0.000000000000D+00 0.630769024343D-07 0.000000000000D+00  7 21 1 -24 -13 13 23 2 2 0.46655466D-01 0.39437119D-01 0.70050293D+05 0.70050293D+05 0.70050293D+05 0.11346331D+01  1  2 12  3  7  1       -2 0.227087732036D-03 0.100000000000D+01
-.615727378229D-06 0.000000000000D+00 -.226040049295D-06 0.630769024343D-07 0.000000000000D+00  7 21 1 -24 -13 13 23 2 2 0.48952117D-01 0.39437119D-01 0.52273669D+05 0.52273669D+05 0.52273669D+05 0.11456005D+01  1  2  5  3  7  1       -2 -.428024205988D-03 0.100000000000D+01
  </mgrwgt>
  </event>
  <event>
  8     66 0.26562228E-05 0.36275765E+03 0.75467711E-02 0.84929747E-01
       -2 -1    0    0    0  501 0.00000000E+00 0.00000000E+00 0.80707873E+03 0.80707879E+03 0.32000000E+00 0.0000E+00 0.9000E+01
        1 -1    0    0  501    0 0.00000000E+00 0.00000000E+00 -.72422481E+03 0.72422488E+03 0.32000000E+00 0.0000E+00 0.9000E+01
       25  2    1    2    0    0 0.83973404E+02 0.31698108E+03 -.61309434E+03 0.75777944E+03 0.30135770E+03 0.0000E+00 0.0000E+00
       23  2    3    3    0    0 0.10553461E+03 0.16468884E+03 -.15349257E+03 0.26461937E+03 0.90573020E+02 0.0000E+00 0.0000E+00
      -24  1    1    2    0    0 -.83973404E+02 -.31698108E+03 0.69594827E+03 0.77352424E+03 0.80419002E+02 0.0000E+00 0.9000E+01
      -11  1    4    4    0    0 0.67937801E+02 0.15647763E+03 -.96922957E+02 0.19620105E+03 0.51099893E-03 0.0000E+00 0.9000E+01
       11  1    4    4    0    0 0.37596813E+02 0.82112063E+01 -.56569616E+02 0.68418314E+02 0.51099893E-03 0.0000E+00 0.9000E+01
       23  1    3    3    0    0 -.21561210E+02 0.15229224E+03 -.45960177E+03 0.49316007E+03 0.91188000E+02 0.0000E+00 0.9000E+01
#aMCatNLO 1  0  0  2  2 0.12050989D+04 0.00000000D+00  -5  7  0 0.00000000D+00 0.00000000D+00 0.00000000D+00 0.00000000D+00 0.00000000D+00
  <mgrwgt>
 0.1640520150D-02    3    2    0
 0.764530274802125D+03 0.000000000000000D+00 0.000000000000000D+00 0.764530274802125D+03
 0.764530274802125D+03 0.000000000000000D+00 0.000000000000000D+00 -.764530274802125D+03
 0.736948226208954D+03 -.839734040724813D+02 -.316981081677811D+03 0.655054908709947D+03
 0.201740763036458D+03 0.679378010737575D+02 0.156477631984033D+03 -.107696524291476D+03
 0.715839739138966D+02 0.375968130466860D+02 0.821120624791484D+01 -.603599292742477D+02
 0.518787586444941D+03 -.215612100479622D+02 0.152292243445864D+03 -.486998455144223D+03
 0.000000000000000D+00 -.000000000000000D+00 0.000000000000000D+00 0.000000000000000D+00
 0.163778634246474D+04 0.000000000000000D+00 0.000000000000000D+00 0.163778634246474D+04
 0.151992856045501D+04 0.000000000000000D+00 0.000000000000000D+00 -.151992856045501D+04
 0.107789460192678D+04 0.340889443998806D+03 -.781080668339517D+03 0.655054908709947D+03
 0.202055859672430D+03 0.162468402019458D+03 0.532169844010721D+02 -.107696524291476D+03
 0.106378608151685D+03 0.792586519091577D+02 -.372981676204151D+02 -.603599292742477D+02
 0.560537492573741D+03 0.231113633171215D+03 -.123717510831722D+03 -.486998455144223D+03
 0.121084834059512D+04 -.813730131098636D+03 0.888879362390583D+03 0.117857782009734D+03
0.108893903082D-02 0.000000000000D+00 0.000000000000D+00 0.568342367802D-05 0.000000000000D+00  7 -2 1 -24 -11 11 23 21 0 0.12416597D+00 0.11141921D+00 0.13159311D+06 0.13159311D+06 0.13159311D+06 0.11120670D+01  1  2  2  2  7  2        1 0.155858412411D-02 0.100000000000D+01
-.196139753897D-04 0.000000000000D+00 -.418181260256D-05 0.568342367802D-05 0.000000000000D+00  7 -2 1 -24 -11 11 23 21 2 0.12416597D+00 0.11141921D+00 0.13159311D+06 0.13159311D+06 0.13159311D+06 0.11120670D+01  1  2  3  2  7  2        1 -.347179585034D-04 0.100000000000D+01
0.659038861153D-04 0.000000000000D+00 0.000000000000D+00 0.568342367802D-05 0.000000000000D+00  7 -2 1 -24 -11 11 23 21 2 0.12416597D+00 0.11141921D+00 0.13159311D+06 0.13159311D+06 0.13159311D+06 0.11120670D+01  1  2 15  2  7  2        1 0.116653984616D-03 0.100000000000D+01
  </mgrwgt>
  </event>
  <event>
  8     66 0.26562228E-05 0.32914171E+03 0.75467711E-02 0.83643752E-01
       -2 -1    0    0    0  501 0.00000000E+00 0.00000000E+00 0.27365068E+03 0.27365087E+03 0.32000000E+00 0.0000E+00 0.9000E+01
        1 -1    0    0  501    0 0.00000000E+00 0.00000000E+00 -.45023376E+03 0.45023388E+03 0.32000000E+00 0.0000E+00 0.9000E+01
       25  2    1    2    0    0 -.25127033E+03 0.94025869E+02 -.23159005E+02 0.40453571E+03 0.30188600E+03 0.0000E+00 0.0000E+00
       23  2    3    3    0    0 0.21485761E+02 -.16844498E+02 -.12565678E+02 0.96127548E+02 0.91308456E+02 0.0000E+00 0.0000E+00
      -24  1    1    2    0    0 0.25127033E+03 -.94025869E+02 -.15342408E+03 0.31934904E+03 0.80419002E+02 0.0000E+00 0.9000E+01
      -11  1    4    4    0    0 -.23162356E+02 -.38818479E+01 0.26494690E+02 0.35405255E+02 0.51099893E-03 0.0000E+00 0.9000E+01
       11  1    4    4    0    0 0.44648117E+02 -.12962650E+02 -.39060368E+02 0.60722294E+02 0.51099893E-03 0.0000E+00 0.9000E+01
       23  1    3    3    0    0 -.27275609E+03 0.11087037E+03 -.10593327E+02 0.30840816E+03 0.91188000E+02 0.0000E+00 0.9000E+01
#aMCatNLO 1  0  0  1  2 0.14426886D+04 0.00000000D+00  -5  7  0 0.00000000D+00 0.00000000D+00 0.00000000D+00 0.00000000D+00 0.00000000D+00
  <mgrwgt>
 0.1618852006D-02    3    2    0
 0.351008383477939D+03 0.000000000000000D+00 0.000000000000000D+00 0.351008383477939D+03
 0.351008383477939D+03 0.000000000000000D+00 0.000000000000000D+00 -.351008383477939D+03
 0.290705022018342D+03 0.251270331687348D+03 -.940258690932584D+02 -.778752221653432D+02
 0.431725266488080D+02 -.231623557616886D+02 -.388184787644815D+01 0.362257310468005D+02
 0.527886852031873D+02 0.446481168843206D+02 -.129626499990977D+02 -.250032127768843D+02
 0.315350533085541D+03 -.272756092809980D+03 0.110870366968804D+03 0.666527038954270D+02
 0.000000000000000D+00 0.000000000000000D+00 -.000000000000000D+00 -.000000000000000D+00
 0.952173018058540D+03 0.000000000000000D+00 0.000000000000000D+00 0.952173018058540D+03
 0.427203650141242D+04 0.000000000000000D+00 0.000000000000000D+00 -.427203650141242D+04
 0.123354628680567D+03 0.307067246342009D+02 0.417336231052098D+02 -.778752221653432D+02
 0.135023800624917D+03 -.118084970512423D+03 0.545441370305058D+02 0.362257310468005D+02
 0.285431571204672D+02 0.132381691714595D+01 0.137039657766431D+02 -.250032127768843D+02
 0.131750287567040D+04 -.114255356526673D+04 0.646240933101170D+03 0.666527038954270D+02
 0.361978505737461D+04 0.122860799422781D+04 -.756222659013529D+03 -.331986348335388D+04
0.529145229912D-04 0.000000000000D+00 0.000000000000D+00 0.426409693982D-06 0.000000000000D+00  7 -2 1 -24 -11 11 23 21 0 0.42100128D-01 0.69266756D-01 0.10833427D+06 0.10833427D+06 0.10833427D+06 0.11188802D+01  1  2  2  1  7  1       -2 0.160072170217D-02 0.100000000000D+01
-.292490807753D-05 0.000000000000D+00 -.203205701000D-06 0.426409693982D-06 0.000000000000D+00  7 -2 1 -24 -11 11 23 21 2 0.42100128D-01 0.69266756D-01 0.10833427D+06 0.10833427D+06 0.10833427D+06 0.11188802D+01  1  2  3  1  7  1       -2 -.110769542640D-03 0.100000000000D+01
0.340364503204D-05 0.000000000000D+00 0.000000000000D+00 0.426409693982D-06 0.000000000000D+00  7 -2 1 -24 -11 11 23 21 2 0.42100128D-01 0.69266756D-01 0.10833427D+06 0.10833427D+06 0.10833427D+06 0.11188802D+01  1  2 15  1  7  1       -2 0.128899846940D-03 0.100000000000D+01
  </mgrwgt>
  </event>
  <event>
  8     66 0.26562228E-05 0.32684284E+03 0.75467711E-02 0.99422983E-01
       -2 -1    0    0    0  501 0.00000000E+00 0.00000000E+00 0.73019118E+03 0.73019125E+03 0.32000000E+00 0.0000E+00 0.9000E+01
        1 -1    0    0  501    0 0.00000000E+00 0.00000000E+00 -.19670531E+03 0.19670557E+03 0.32000000E+00 0.0000E+00 0.9000E+01
       25  2    1    2    0    0 0.19220494E+03 -.16265455E+03 0.74848879E+02 0.39754405E+03 0.29839517E+03 0.0000E+00 0.0000E+00
       23  2    3    3    0    0 0.10110870E+03 -.21198978E+03 0.38354526E+02 0.25478699E+03 0.91009365E+02 0.0000E+00 0.0000E+00
      -24  1    1    2    0    0 -.19220494E+03 0.16265455E+03 0.45863699E+03 0.52935276E+03 0.80419002E+02 0.0000E+00 0.9000E+01
      -13  1    4    4    0    0 0.96323697E+02 -.98538580E+02 0.12766125E+02 0.13838747E+03 0.10565837E+00 0.0000E+00 0.9000E+01
       13  1    4    4    0    0 0.47850031E+01 -.11345120E+03 0.25588401E+02 0.11639952E+03 0.10565837E+00 0.0000E+00 0.9000E+01
       23  1    3    3    0    0 0.91096237E+02 0.49335233E+02 0.36494353E+02 0.14275706E+03 0.91188000E+02 0.0000E+00 0.9000E+01
#aMCatNLO 1  0  0  1  2 0.14579752D+02 0.00000000D+00  -5  7  0 0.00000000D+00 0.00000000D+00 0.00000000D+00 0.00000000D+00 0.00000000D+00
  <mgrwgt>
 0.1014150568D-02    4    2    0
 0.378988961846307D+03 0.000000000000000D+00 0.000000000000000D+00 0.378988961846307D+03
 0.378988961846307D+03 0.000000000000000D+00 0.000000000000000D+00 -.378988961846307D+03
 0.324520051141101D+03 -.192204936848132D+03 0.162654549427126D+03 0.188273225499848D+03
 0.160242652820865D+03 0.963238203217624D+02 -.985385595617917D+02 -.817898630710201D+02
 0.124329822426420D+03 0.478487989122750D+01 -.113451222748685D+03 -.506342742205313D+02
 0.148885397304229D+03 0.910962366351419D+02 0.493352328833499D+02 -.558490882082965D+02
 0.000000000000000D+00 0.000000000000000D+00 -.000000000000000D+00 -.000000000000000D+00
 0.379876936952077D+03 0.000000000000000D+00 0.000000000000000D+00 0.379876936952077D+03
 0.444035437193589D+03 0.000000000000000D+00 0.000000000000000D+00 -.444035437193589D+03
 0.329022128374978D+03 -.194987166033566D+03 0.168290055107580D+03 0.188273225499848D+03
 0.157752530969963D+03 0.949700661052782D+02 -.957964815126948D+02 -.817898630710201D+02
 0.122355312112521D+03 0.373470347960692D+01 -.111324052505431D+03 -.506342742205313D+02
 0.148988160472433D+03 0.898281432633738D+02 0.519038017982900D+02 -.558490882082965D+02
 0.657942422157701D+02 0.645425318530668D+01 -.130733228877438D+02 -.641585002415127D+02
0.981124629881D-04 0.000000000000D+00 0.000000000000D+00 0.616495493384D-06 0.000000000000D+00  7 -2 1 -24 -13 13 23 21 0 0.11233713D+00 0.30262380D-01 0.10682624D+06 0.10682624D+06 0.10682624D+06 0.11193763D+01  1  2  2  1  7  1       -2 0.107122424745D-02 0.100000000000D+01
-.530547494553D-05 0.000000000000D+00 -.376777691479D-06 0.616495493384D-06 0.000000000000D+00  7 -2 1 -24 -13 13 23 21 2 0.11233713D+00 0.30262380D-01 0.10682624D+06 0.10682624D+06 0.10682624D+06 0.11193763D+01  1  2  3  1  7  1       -2 -.725826242195D-04 0.100000000000D+01
0.631389493952D-05 0.000000000000D+00 0.000000000000D+00 0.616495493384D-06 0.000000000000D+00  7 -2 1 -24 -13 13 23 21 2 0.11233713D+00 0.30262380D-01 0.10682624D+06 0.10682624D+06 0.10682624D+06 0.11193763D+01  1  2 15  1  7  1       -2 0.863785181275D-04 0.100000000000D+01
-.518025838060D-05 0.000000000000D+00 0.000000000000D+00 0.616495493384D-06 0.000000000000D+00  7 -2 1 -24 -13 13 23 21 2 0.11233713D+00 0.30262380D-01 0.10682624D+06 0.10682624D+06 0.10682624D+06 0.11193763D+01  1  2  4  1  7  1       -2 -.708695736498D-04 0.100000000000D+01
  </mgrwgt>
  </event>
  <event>
  8     66 0.26562228E-05 0.25046611E+03 0.75467711E-02 0.10310254E+00
       -2 -1    0    0    0  501 0.00000000E+00 0.00000000E+00 0.71046774E+02 0.71047495E+02 0.32000000E+00 0.0000E+00 0.9000E+01
        1 -1    0    0  501    0 0.00000000E+00 0.00000000E+00 -.11308409E+04 0.11308409E+04 0.32000000E+00 0.0000E+00 0.9000E+01
       25  2    1    2    0    0 0.11650605E+02 0.14790644E+03 -.40697935E+03 0.52761372E+03 0.30121752E+03 0.0000E+00 0.0000E+00
       23  2    3    3    0    0 -.85948531E+02 0.15362265E+03 -.28009561E+03 0.34329606E+03 0.91714576E+02 0.0000E+00 0.0000E+00
      -24  1    1    2    0    0 -.11650605E+02 -.14790644E+03 -.65281477E+03 0.67427472E+03 0.80419002E+02 0.0000E+00 0.9000E+01
      -11  1    4    4    0    0 -.42113307E+02 0.14849146E+03 -.21913272E+03 0.26803431E+03 0.51099893E-03 0.0000E+00 0.9000E+01
       11  1    4    4    0    0 -.43835224E+02 0.51311886E+01 -.60962892E+02 0.75261744E+02 0.51099893E-03 0.0000E+00 0.9000E+01
       23  1    3    3    0    0 0.97599136E+02 -.57162039E+01 -.12688374E+03 0.18431767E+03 0.91188000E+02 0.0000E+00 0.9000E+01
#aMCatNLO 1  0  0  1  2 0.32093563D+01 0.00000000D+00  -5  7  0 0.00000000D+00 0.00000000D+00 0.00000000D+00 0.00000000D+00 0.00000000D+00
  <mgrwgt>
 0.1328661991D-02    6    2    0
 0.283448511339272D+03 0.000000000000000D+00 0.000000000000000D+00 0.283448511339272D+03
 0.283448511339272D+03 0.000000000000000D+00 0.000000000000000D+00 -.283448511339272D+03
 0.209127449804000D+03 -.116506054791134D+02 -.147906443799539D+03 -.123511220468821D+03
 0.158603361091332D+03 -.421133067516915D+02 0.148491459057485D+03 0.364935902712331D+02
 0.455957689973668D+02 -.438352239909341D+02 0.513118860301863D+01 0.114506852042192D+02
 0.153570442785845D+03 0.975991362217390D+02 -.571620386096372D+01 0.755669449933686D+02
 0.000000000000000D+00 -.000000000000000D+00 -.000000000000000D+00 -.000000000000000D+00
 0.283504594672689D+03 0.000000000000000D+00 0.000000000000000D+00 0.283504594672689D+03
 0.333413014881051D+03 0.000000000000000D+00 0.000000000000000D+00 -.333413014881051D+03
 0.208712091211321D+03 -.105821687255619D+02 -.147399176343690D+03 -.123511220468821D+03
 0.158751076706721D+03 -.413018154686450D+02 0.148876735132298D+03 0.364935902712331D+02
 0.453847789926423D+02 -.436025821469033D+02 0.524164122078323D+01 0.114506852042192D+02
 0.154058160209178D+03 0.983857580552900D+02 -.534273518825582D+01 0.755669449933686D+02
 0.500115024338778D+02 -.289919171417986D+01 -.137646482113605D+01 -.499084202083614D+02
0.159494213692D-04 0.000000000000D+00 0.000000000000D+00 0.447260242218D-06 0.000000000000D+00  7 -2 1 -24 -11 11 23 21 0 0.10930332D-01 0.17397558D+00 0.62733272D+05 0.62733272D+05 0.62733272D+05 0.11387285D+01  1  2  2  1  7  1       -2 0.113604318125D-02 0.100000000000D+01
-.869591967218D-06 0.000000000000D+00 -.612499776368D-07 0.447260242218D-06 0.000000000000D+00  7 -2 1 -24 -11 11 23 21 2 0.10930332D-01 0.17397558D+00 0.62733272D+05 0.62733272D+05 0.62733272D+05 0.11387285D+01  1  2  3  1  7  1       -2 -.803166848480D-04 0.100000000000D+01
0.103463368141D-05 0.000000000000D+00 0.000000000000D+00 0.447260242218D-06 0.000000000000D+00  7 -2 1 -24 -11 11 23 21 2 0.10930332D-01 0.17397558D+00 0.62733272D+05 0.62733272D+05 0.62733272D+05 0.11387285D+01  1  2 15  1  7  1       -2 0.955601597707D-04 0.100000000000D+01
-.197648794204D-06 0.000000000000D+00 0.000000000000D+00 0.447260242218D-06 0.000000000000D+00  7 -2 1 -24 -11 11 23 21 2 0.10930332D-01 0.17397558D+00 0.62733272D+05 0.62733272D+05 0.62733272D+05 0.11387285D+01  1  2  4  1  7  1       -2 -.182551087327D-04 0.100000000000D+01
0.195360089897D-06 0.000000000000D+00 0.000000000000D+00 0.447260242218D-06 0.304097116236D-06  7 -2 1 -24 -11 11 23 21 2 0.10932495D-01 0.20464289D+00 0.63534321D+05 0.63534321D+05 0.63534321D+05 0.11382551D+01  1  2 11  1  7  1       -2 0.131340026293D-04 0.100000000000D+01
0.187363585414D-06 0.000000000000D+00 0.000000000000D+00 0.447260242218D-06 0.123246475027D-10  7 21 1 -24 -11 11 23 2 2 0.10932495D-01 0.20464289D+00 0.63534321D+05 0.63534321D+05 0.63534321D+05 0.11382551D+01  1  2 11  3  7  1       -2 0.182496441408D-03 0.100000000000D+01
  </mgrwgt>
  </event>
  <event>
  8     66 0.26562228E-05 0.20949797E+03 0.75467711E-02 0.93085093E-01
       -2 -1    0    0    0  501 0.00000000E+00 0.00000000E+00 0.56262874E+03 0.56262883E+03 0.32000000E+00 0.0000E+00 0.9000E+01
        1 -1    0    0  501    0 0.00000000E+00 0.00000000E+00 -.11491356E+03 0.11491401E+03 0.32000000E+00 0.0000E+00 0.9000E+01
       25  2    1    2    0    0 0.81331606E+01 -.93390735E+02 0.12618365E+03 0.33310458E+03 0.29368072E+03 0.0000E+00 0.0000E+00
       23  2    3    3    0    0 -.10017265E+03 -.70673065E+02 0.10853582E+03 0.18862988E+03 0.93658776E+02 0.0000E+00 0.0000E+00
      -24  1    1    2    0    0 -.81331606E+01 0.93390735E+02 0.32153152E+03 0.34443826E+03 0.80419002E+02 0.0000E+00 0.9000E+01
      -11  1    4    4    0    0 -.80459753E+02 -.18290911E+01 0.41552157E+02 0.90574275E+02 0.51099893E-03 0.0000E+00 0.9000E+01
       11  1    4    4    0    0 -.19712895E+02 -.68843974E+02 0.66983659E+02 0.98055605E+02 0.51099893E-03 0.0000E+00 0.9000E+01
       23  1    3    3    0    0 0.10830581E+03 -.22717670E+02 0.17647833E+02 0.14447470E+03 0.91188000E+02 0.0000E+00 0.9000E+01
#aMCatNLO 1  0  0  2  2 0.49797977D+03 0.00000000D+00  -5  7  0 0.00000000D+00 0.00000000D+00 0.00000000D+00 0.00000000D+00 0.00000000D+00
  <mgrwgt>
 0.1132072071D-01    3    2    0
 0.254271222333637D+03 0.000000000000000D+00 0.000000000000000D+00 0.254271222333637D+03
 0.254271222333637D+03 0.000000000000000D+00 0.000000000000000D+00 -.254271222333637D+03
 0.175830225914402D+03 -.813316059357679D+01 0.933907349615021D+02 0.125144215658770D+03
 0.840921347975024D+02 -.804597534656320D+02 -.182909115598986D+01 -.243796971390975D+02
 0.716700683883898D+02 -.197128954029931D+02 -.688439738568268D+02 0.291679982646823D+01
 0.176950015566979D+03 0.108305809462202D+03 -.227176699486855D+02 -.103681318346141D+03
 0.000000000000000D+00 -.000000000000000D+00 0.000000000000000D+00 0.000000000000000D+00
 0.609710027962340D+03 0.000000000000000D+00 0.000000000000000D+00 0.609710027962340D+03
 0.600119945802629D+03 0.000000000000000D+00 0.000000000000000D+00 -.600119945802629D+03
 0.226153092534231D+03 0.154479062580793D+03 0.717854429514528D+02 0.125144215658770D+03
 0.398293412072963D+02 -.303304426525399D+02 -.848946623257932D+01 -.243796971390975D+02
 0.900532659389000D+02 0.457082047452039D+02 -.775360755004088D+02 0.291679982646823D+01
 0.355722171722358D+03 0.323784921711339D+03 -.513470623235545D+02 -.103681318346141D+03
 0.498072102362185D+03 -.493641746384796D+03 0.655871611050898D+02 0.959008215971109D+01
0.272173365815D-03 0.000000000000D+00 0.000000000000D+00 0.315177323798D-08 0.000000000000D+00  7 -2 1 -24 -11 11 23 21 0 0.86558308D-01 0.17679051D-01 0.43889399D+05 0.43889399D+05 0.43889399D+05 0.11523083D+01  1  2  2  2  7  2        1 0.111920409451D-01 0.100000000000D+01
-.144310467031D-04 0.000000000000D+00 -.104521738962D-05 0.315177323798D-08 0.000000000000D+00  7 -2 1 -24 -11 11 23 21 2 0.86558308D-01 0.17679051D-01 0.43889399D+05 0.43889399D+05 0.43889399D+05 0.11523083D+01  1  2  3  2  7  2        1 -.787950462882D-03 0.100000000000D+01
0.167877731521D-04 0.000000000000D+00 0.000000000000D+00 0.315177323798D-08 0.000000000000D+00  7 -2 1 -24 -11 11 23 21 2 0.86558308D-01 0.17679051D-01 0.43889399D+05 0.43889399D+05 0.43889399D+05 0.11523083D+01  1  2 15  2  7  2        1 0.916630227739D-03 0.100000000000D+01
  </mgrwgt>
  </event>
  <event>
  8     66 0.26562228E-05 0.30302969E+03 0.75467711E-02 0.86240838E-01
       -2 -1    0    0    0  501 0.00000000E+00 0.00000000E+00 0.53541861E+03 0.53541871E+03 0.32000000E+00 0.0000E+00 0.9000E+01
        1 -1    0    0  501    0 0.00000000E+00 0.00000000E+00 -.20473876E+03 0.20473901E+03 0.32000000E+00 0.0000E+00 0.9000E+01
       25  2    1    2    0    0 -.17237644E+03 0.18931153E+03 0.19925302E+03 0.44133884E+03 0.29920848E+03 0.0000E+00 0.0000E+00
       23  2    3    3    0    0 -.67541663E+02 -.26126188E+02 0.13287957E+03 0.17652867E+03 0.90889689E+02 0.0000E+00 0.0000E+00
      -24  1    1    2    0    0 0.17237644E+03 -.18931153E+03 0.13142683E+03 0.29881888E+03 0.80419002E+02 0.0000E+00 0.9000E+01
      -11  1    4    4    0    0 -.56047417E+02 -.35637650E+02 0.14356048E+03 0.15818017E+03 0.51099893E-03 0.0000E+00 0.9000E+01
       11  1    4    4    0    0 -.11494246E+02 0.95114616E+01 -.10680906E+02 0.18348497E+02 0.51099893E-03 0.0000E+00 0.9000E+01
       23  1    3    3    0    0 -.10483477E+03 0.21543772E+03 0.66373450E+02 0.26481017E+03 0.91188000E+02 0.0000E+00 0.9000E+01
#aMCatNLO 1  0  0  1  2 0.10481471D+04 0.00000000D+00  -5  7  0 0.00000000D+00 0.00000000D+00 0.00000000D+00 0.00000000D+00 0.00000000D+00
  <mgrwgt>
 0.1119693061D-02    3    2    0
 0.331090727384473D+03 0.000000000000000D+00 0.000000000000000D+00 0.331090727384473D+03
 0.331090727384473D+03 0.000000000000000D+00 0.000000000000000D+00 -.331090727384473D+03
 0.268374914243678D+03 0.172376436167664D+03 -.189311533519283D+03 -.232081271185255D+01
 0.105115772812377D+03 -.560474172931299D+02 -.356376499675596D+02 0.814737418651112D+02
 0.258429803069727D+02 -.114942461773699D+02 0.951146157673579D+01 -.211015173538510D+02
 0.262847787405919D+03 -.104834772697164D+03 0.215437721910107D+03 -.580514117994077D+02
 0.000000000000000D+00 -.000000000000000D+00 -.000000000000000D+00 -.000000000000000D+00
 0.112043827582155D+04 0.000000000000000D+00 0.000000000000000D+00 0.112043827582155D+04
 0.116861229557502D+04 0.000000000000000D+00 0.000000000000000D+00 -.116861229557502D+04
 0.233422105386225D+03 0.201680779892932D+03 0.856629451904525D+02 -.232081271185255D+01
 0.131313977886524D+03 -.422402035984968D+02 0.939210060361218D+02 0.814737418651112D+02
 0.614282096320991D+02 -.639771342160754D+01 0.573342843937659D+02 -.211015173538510D+02
 0.813632706819969D+03 -.419696037497509D+02 0.805326962303122D+03 -.580514117994077D+02
 0.104925357167176D+04 -.111073259123077D+03 -.104224519792346D+04 -.481740197534713D+02
0.512036612887D-04 0.000000000000D+00 0.000000000000D+00 0.150740382156D-05 0.000000000000D+00  7 -2 1 -24 -11 11 23 21 0 0.82372121D-01 0.31498297D-01 0.91826991D+05 0.91826991D+05 0.91826991D+05 0.11247735D+01  1  2  2  1  7  1       -2 0.110738802872D-02 0.100000000000D+01
-.281752086470D-05 0.000000000000D+00 -.196635541582D-06 0.150740382156D-05 0.000000000000D+00  7 -2 1 -24 -11 11 23 21 2 0.82372121D-01 0.31498297D-01 0.91826991D+05 0.91826991D+05 0.91826991D+05 0.11247735D+01  1  2  3  1  7  1       -2 -.770896517870D-04 0.100000000000D+01
0.326725289632D-05 0.000000000000D+00 0.000000000000D+00 0.150740382156D-05 0.000000000000D+00  7 -2 1 -24 -11 11 23 21 2 0.82372121D-01 0.31498297D-01 0.91826991D+05 0.91826991D+05 0.91826991D+05 0.11247735D+01  1  2 15  1  7  1       -2 0.893946842534D-04 0.100000000000D+01
  </mgrwgt>
  </event>
  <event>
  8     66 0.26562228E-05 0.39494067E+03 0.75467711E-02 0.87421503E-01
       -2 -1    0    0    0  501 0.00000000E+00 0.00000000E+00 0.52289716E+03 0.52289725E+03 0.32000000E+00 0.0000E+00 0.9000E+01
        1 -1    0    0  501    0 0.00000000E+00 0.00000000E+00 -.85961886E+03 0.85961892E+03 0.32000000E+00 0.0000E+00 0.9000E+01
       25  2    1    2    0    0 0.24276045E+03 -.27364126E+03 0.35826277E+03 0.59303355E+03 0.29920629E+03 0.0000E+00 0.0000E+00
       23  2    3    3    0    0 0.14429515E+03 -.73573257E+02 0.36454434E+02 0.19104042E+03 0.94516668E+02 0.0000E+00 0.0000E+00
      -24  1    1    2    0    0 -.24276045E+03 0.27364126E+03 -.69498448E+03 0.78948263E+03 0.80419002E+02 0.0000E+00 0.9000E+01
      -13  1    4    4    0    0 0.61538158E+02 0.30991753E+01 0.47337850E+02 0.77700920E+02 0.10565837E+00 0.0000E+00 0.9000E+01
       13  1    4    4    0    0 0.82756994E+02 -.76672432E+02 -.10883416E+02 0.11333950E+03 0.10565837E+00 0.0000E+00 0.9000E+01
       23  1    3    3    0    0 0.98465301E+02 -.20006801E+03 0.32180834E+03 0.40199313E+03 0.91188000E+02 0.0000E+00 0.9000E+01
#aMCatNLO 1  0  0  2  2 0.88813114D+03 0.00000000D+00  -5  7  0 0.00000000D+00 0.00000000D+00 0.00000000D+00 0.00000000D+00 0.00000000D+00
  <mgrwgt>
 0.1485140125D-02    5    2    0
 0.670441919424481D+03 0.000000000000000D+00 0.000000000000000D+00 0.670441919424481D+03
 0.670441919424481D+03 0.000000000000000D+00 0.000000000000000D+00 -.670441919424481D+03
 0.639470860049331D+03 -.242760452324235D+03 0.273641262077950D+03 -.518308390221093D+03
 0.920008277937348D+02 0.615381313127866D+02 0.309927488107674D+01 0.683198741544084D+02
 0.114125503472286D+03 0.827570201634043D+02 -.766725313117051D+02 0.172403334866869D+02
 0.495286647533611D+03 0.984653008480437D+02 -.200068005647322D+03 0.432748182579997D+03
 0.000000000000000D+00 0.000000000000000D+00 -.000000000000000D+00 -.000000000000000D+00
 0.101366257162734D+04 0.000000000000000D+00 0.000000000000000D+00 0.101366257162734D+04
 0.174545507237876D+04 0.000000000000000D+00 0.000000000000000D+00 -.174545507237876D+04
 0.984881043107469D+03 -.374536946241534D+03 0.744716014091662D+03 -.518308390221093D+03
 0.101347817118192D+03 0.458526099176761D+02 0.591718936141623D+02 0.683198741544084D+02
 0.732160499062271D+02 0.675588275665518D+02 -.223420160901353D+02 0.172403334866869D+02
 0.448891616923510D+03 0.218682893991832D+02 0.737510731628073D+02 0.432748182579997D+03
 0.115078111695070D+04 0.239257219358123D+03 -.855296964778496D+03 -.731792500751418D+03
0.462088477254D-03 0.000000000000D+00 0.000000000000D+00 0.123846441630D-05 0.000000000000D+00  7 -2 1 -24 -13 13 23 21 0 0.80445728D-01 0.13224907D+00 0.15597813D+06 0.15597813D+06 0.15597813D+06 0.11062150D+01  1  2  2  2  7  2        1 0.142033738977D-02 0.100000000000D+01
-.169302759497D-04 0.000000000000D+00 -.177454142335D-05 0.123846441630D-05 0.000000000000D+00  7 -2 1 -24 -13 13 23 21 2 0.80445728D-01 0.13224907D+00 0.15597813D+06 0.15597813D+06 0.15597813D+06 0.11062150D+01  1  2  3  2  7  2        1 -.636809476527D-04 0.100000000000D+01
0.278804490071D-04 0.000000000000D+00 0.000000000000D+00 0.123846441630D-05 0.000000000000D+00  7 -2 1 -24 -13 13 23 21 2 0.80445728D-01 0.13224907D+00 0.15597813D+06 0.15597813D+06 0.15597813D+06 0.11062150D+01  1  2 15  2  7  2        1 0.104868545500D-03 0.100000000000D+01
0.100614336871D-03 0.000000000000D+00 -.143555986686D-03 0.123846441630D-05 0.000000000000D+00  7 -2 1 -24 -13 13 23 21 2 0.80445728D-01 0.40759877D+00 0.15597813D+06 0.15597813D+06 0.15597813D+06 0.11062150D+01  1  2  5  2  7  2        1 0.222562781614D-04 0.100000000000D+01
0.197453761920D-04 0.000000000000D+00 -.184792482901D-04 0.123846441630D-05 0.000000000000D+00  7 -2 21 -24 -13 13 23 -1 2 0.80445728D-01 0.40759877D+00 0.15597813D+06 0.15597813D+06 0.15597813D+06 0.11062150D+01  1  2  5  4  7  2        1 0.135885898522D-05 0.100000000000D+01
  </mgrwgt>
  </event>
  <event>
  8     66 0.26562228E-05 0.28997140E+03 0.75467711E-02 0.96001750E-01
       -2 -1    0    0    0  501 0.00000000E+00 0.00000000E+00 0.42414934E+02 0.42416141E+02 0.32000000E+00 0.0000E+00 0.9000E+01
        1 -1    0    0  501    0 0.00000000E+00 0.00000000E+00 -.24792584E+04 0.24792584E+04 0.32000000E+00 0.0000E+00 0.9000E+01
       25  2    1    2    0    0 0.14812798E+03 -.16562819E+03 -.10353178E+04 0.11003667E+04 0.29924799E+03 0.0000E+00 0.0000E+00
       23  2    3    3    0    0 0.31765754E+02 0.33933940E+02 -.50009667E+03 0.51033102E+03 0.90446086E+02 0.0000E+00 0.0000E+00
      -24  1    1    2    0    0 -.14812798E+03 0.16562819E+03 -.14015257E+04 0.14213079E+04 0.80419002E+02 0.0000E+00 0.9000E+01
      -13  1    4    4    0    0 0.76034658E+01 0.59568199E+02 -.22076186E+03 0.22878373E+03 0.10565837E+00 0.0000E+00 0.9000E+01
       13  1    4    4    0    0 0.24162288E+02 -.25634259E+02 -.27933481E+03 0.28154730E+03 0.10565837E+00 0.0000E+00 0.9000E+01
       23  1    3    3    0    0 0.11636223E+03 -.19956213E+03 -.53522113E+03 0.59003569E+03 0.91188000E+02 0.0000E+00 0.9000E+01
#aMCatNLO 1  0  0  1  2 0.26350359D+03 0.00000000D+00  -5  7  0 0.00000000D+00 0.00000000D+00 0.00000000D+00 0.00000000D+00 0.00000000D+00
  <mgrwgt>
 0.1533550280D-02    3    2    0
 0.324282484261969D+03 0.000000000000000D+00 0.000000000000000D+00 0.324282484261969D+03
 0.324282484261969D+03 0.000000000000000D+00 0.000000000000000D+00 -.324282484261969D+03
 0.260231735022888D+03 -.148127980340559D+03 0.165628185731951D+03 -.108989657720453D+03
 0.600649427113015D+02 0.760344320069480D+01 0.595683152280588D+02 0.126523329720560D+01
 0.451387761654317D+02 0.241623106390107D+02 -.256343751209728D+02 -.282235835863228D+02
 0.283129514624317D+03 0.116362226500853D+03 -.199562125839037D+03 0.135948008009570D+03
 0.000000000000000D+00 0.000000000000000D+00 -.000000000000000D+00 -.000000000000000D+00
 0.469252455625423D+03 0.000000000000000D+00 0.000000000000000D+00 0.469252455625423D+03
 0.495617281270791D+03 0.000000000000000D+00 0.000000000000000D+00 -.495617281270791D+03
 0.350393336696325D+03 -.152604817343458D+03 0.284853117729755D+03 -.108989657720453D+03
 0.889020006987429D+02 0.651128247006968D+01 0.886542052783616D+02 0.126523329720560D+01
 0.379461208323992D+02 0.235531683707204D+02 -.941199635961392D+01 -.282235835863228D+02
 0.222809010703671D+03 0.112652905648692D+03 -.100777308328241D+03 0.135948008009570D+03
 0.264819267965077D+03 0.988746085397585D+01 -.263318018320262D+03 -.263648256453680D+02
0.767098011003D-04 0.000000000000D+00 0.000000000000D+00 0.106489658985D-05 0.000000000000D+00  7 -2 1 -24 -13 13 23 21 0 0.65254689D-02 0.38142446D+00 0.84083414D+05 0.84083414D+05 0.84083414D+05 0.11279533D+01  1  2  2  1  7  1       -2 0.151543328792D-02 0.100000000000D+01
-.419685226801D-05 0.000000000000D+00 -.294585834380D-06 0.106489658985D-05 0.000000000000D+00  7 -2 1 -24 -13 13 23 21 2 0.65254689D-02 0.38142446D+00 0.84083414D+05 0.84083414D+05 0.84083414D+05 0.11279533D+01  1  2  3  1  7  1       -2 -.105485285234D-03 0.100000000000D+01
0.491765745908D-05 0.000000000000D+00 0.000000000000D+00 0.106489658985D-05 0.000000000000D+00  7 -2 1 -24 -13 13 23 21 2 0.65254689D-02 0.38142446D+00 0.84083414D+05 0.84083414D+05 0.84083414D+05 0.11279533D+01  1  2 15  1  7  1       -2 0.123602277761D-03 0.100000000000D+01
  </mgrwgt>
  </event>
  <event>
  8     66 0.26562228E-05 0.25595731E+03 0.75467711E-02 0.96752796E-01
       -2 -1    0    0    0  501 0.00000000E+00 0.00000000E+00 0.27746719E+03 0.27746737E+03 0.32000000E+00 0.0000E+00 0.9000E+01
        1 -1    0    0  501    0 0.00000000E+00 0.00000000E+00 -.32893464E+03 0.32893480E+03 0.32000000E+00 0.0000E+00 0.9000E+01
       25  2    1    2    0    0 0.21509806E+03 -.37542411E+02 -.25691591E+02 0.37229061E+03 0.30043906E+03 0.0000E+00 0.0000E+00
       23  2    3    3    0    0 0.93018134E+02 -.27858274E+02 0.10638034E+03 0.17041060E+03 0.91074358E+02 0.0000E+00 0.0000E+00
      -24  1    1    2    0    0 -.21509806E+03 0.37542411E+02 -.25775861E+02 0.23411156E+03 0.80419002E+02 0.0000E+00 0.9000E+01
      -11  1    4    4    0    0 0.60850563E+02 0.24085891E+02 0.28387262E+02 0.71335530E+02 0.51099893E-03 0.0000E+00 0.9000E+01
       11  1    4    4    0    0 0.32167571E+02 -.51944165E+02 0.77993080E+02 0.99075070E+02 0.51099893E-03 0.0000E+00 0.9000E+01
       23  1    3    3    0    0 0.12207993E+03 -.96841369E+01 -.13207193E+03 0.20188001E+03 0.91188000E+02 0.0000E+00 0.9000E+01
#aMCatNLO 1  0  0  2  2 0.24580318D+03 0.00000000D+00  -5  7  0 0.00000000D+00 0.00000000D+00 0.00000000D+00 0.00000000D+00 0.00000000D+00
  <mgrwgt>
 0.9087511408D-03    3    2    0
 0.302107055064276D+03 0.000000000000000D+00 0.000000000000000D+00 0.302107055064276D+03
 0.302107055064276D+03 0.000000000000000D+00 0.000000000000000D+00 -.302107055064276D+03
 0.232763742841687D+03 -.215098064666257D+03 0.375424113668176D+02 -.592739005768819D+01
 0.740119094055803D+02 0.608505630994275D+02 0.240858908905210D+02 0.345664803581783D+02
 0.106077367995936D+03 0.321675708107081D+02 -.519441653763187D+02 0.867148146076604D+02
 0.191361089885348D+03 0.122079930756121D+03 -.968413688101985D+01 -.115353904908151D+03
 0.000000000000000D+00 -.000000000000000D+00 0.000000000000000D+00 0.000000000000000D+00
 0.555428734269314D+03 0.000000000000000D+00 0.000000000000000D+00 0.555428734269314D+03
 0.392028954113319D+03 0.000000000000000D+00 0.000000000000000D+00 -.392028954113319D+03
 0.165033872068377D+03 -.143857660137861D+03 0.622917669314945D+01 -.592739005768819D+01
 0.986215073565468D+02 0.917669738175601D+02 0.104967930956240D+02 0.345664803581783D+02
 0.135002437885802D+03 0.753418439860890D+02 -.709211231400396D+02 0.867148146076604D+02
 0.253641113372283D+03 0.201774066135159D+03 -.447131513814107D+02 -.115353904908151D+03
 0.295158757699625D+03 -.225025223800947D+03 0.989083047326769D+02 0.163399780155995D+03
0.199062014136D-04 0.000000000000D+00 0.000000000000D+00 0.173788529807D-05 0.000000000000D+00  7 -2 1 -24 -11 11 23 21 0 0.42687286D-01 0.50605355D-01 0.65514142D+05 0.65514142D+05 0.65514142D+05 0.11371129D+01  1  2  2  2  7  2        1 0.896311678893D-03 0.100000000000D+01
-.106895016808D-05 0.000000000000D+00 -.764450548514D-07 0.173788529807D-05 0.000000000000D+00  7 -2 1 -24 -11 11 23 21 2 0.42687286D-01 0.50605355D-01 0.65514142D+05 0.65514142D+05 0.65514142D+05 0.11371129D+01  1  2  3  2  7  2        1 -.622350862136D-04 0.100000000000D+01
0.128261043076D-05 0.000000000000D+00 0.000000000000D+00 0.173788529807D-05 0.000000000000D+00  7 -2 1 -24 -11 11 23 21 2 0.42687286D-01 0.50605355D-01 0.65514142D+05 0.65514142D+05 0.65514142D+05 0.11371129D+01  1  2 15  2  7  2        1 0.746745480941D-04 0.100000000000D+01
  </mgrwgt>
  </event>
  <event>
  8     66 0.26562228E-05 0.18589528E+03 0.75467711E-02 0.10666073E+00
       -2 -1    0    0    0  501 0.00000000E+00 0.00000000E+00 0.87961570E+02 0.87962152E+02 0.32000000E+00 0.0000E+00 0.9000E+01
        1 -1    0    0  501    0 0.00000000E+00 0.00000000E+00 -.44352313E+03 0.44352324E+03 0.32000000E+00 0.0000E+00 0.9000E+01
       25  2    1    2    0    0 -.22955387E+02 -.37082853E+02 -.28180394E+03 0.41397161E+03 0.30009489E+03 0.0000E+00 0.0000E+00
       23  2    3    3    0    0 -.42257152E+02 0.82731523E+02 -.52252578E+02 0.13876783E+03 0.88859471E+02 0.0000E+00 0.0000E+00
      -24  1    1    2    0    0 0.22955387E+02 0.37082853E+02 -.73757613E+02 0.11751378E+03 0.80419002E+02 0.0000E+00 0.9000E+01
      -13  1    4    4    0    0 -.25306760E+01 0.88348423E+02 -.37683319E+02 0.96082735E+02 0.10565837E+00 0.0000E+00 0.9000E+01
       13  1    4    4    0    0 -.39726476E+02 -.56169002E+01 -.14569259E+02 0.42685090E+02 0.10565837E+00 0.0000E+00 0.9000E+01
       23  1    3    3    0    0 0.19301765E+02 -.11981438E+03 -.22955136E+03 0.27520379E+03 0.91188000E+02 0.0000E+00 0.9000E+01
#aMCatNLO 1  0  0  2  2 0.18743270D+02 0.00000000D+00  -5  7  0 0.00000000D+00 0.00000000D+00 0.00000000D+00 0.00000000D+00 0.00000000D+00
  <mgrwgt>
 0.2699635458D-02    4    2    0
 0.197517532921684D+03 0.000000000000000D+00 0.000000000000000D+00 0.197517532921684D+03
 0.197517532921684D+03 0.000000000000000D+00 0.000000000000000D+00 -.197517532921684D+03
 0.917172634597253D+02 0.229555172410918D+02 0.370830641306962D+02 0.653689873278919D+01
 0.953530551505439D+02 -.253063434542772D+01 0.883484183638366D+02 0.357820903380576D+02
 0.443155959396027D+02 -.397265526496923D+02 -.561707159280043D+01 0.188181179923687D+02
 0.163649151293497D+03 0.193016697540283D+02 -.119814410901732D+03 -.611371070632154D+02
 0.000000000000000D+00 0.000000000000000D+00 -.000000000000000D+00 0.000000000000000D+00
 0.277789902496119D+03 0.000000000000000D+00 0.000000000000000D+00 0.277789902496119D+03
 0.198836892702998D+03 0.000000000000000D+00 0.000000000000000D+00 -.198836892702998D+03
 0.933692809947874D+02 0.222098717569701D+02 0.414076953066605D+02 0.653689873278919D+01
 0.996116511328870D+02 -.331607530350377D+01 0.929038572775133D+02 0.357820903380576D+02
 0.444230789691344D+02 -.400840480711323D+02 -.354365214918227D+01 0.188181179923687D+02
 0.158075461720880D+03 0.180055598421384D+02 -.112297169193981D+03 -.611371070632154D+02
 0.811473223814284D+02 0.318469177552751D+01 -.184707312410104D+02 0.789530097931214D+02
0.131759089009D-04 0.000000000000D+00 0.000000000000D+00 0.160207599985D-06 0.000000000000D+00  7 -2 1 -24 -13 13 23 21 0 0.13532603D-01 0.68234381D-01 0.34557055D+05 0.34557055D+05 0.34557055D+05 0.11616802D+01  1  2  2  2  7  2        1 0.279029535169D-02 0.100000000000D+01
-.728721810354D-06 0.000000000000D+00 -.505989594761D-07 0.160207599985D-06 0.000000000000D+00  7 -2 1 -24 -13 13 23 21 2 0.13532603D-01 0.68234381D-01 0.34557055D+05 0.34557055D+05 0.34557055D+05 0.11616802D+01  1  2  3  2  7  2        1 -.208259369492D-03 0.100000000000D+01
0.864887621330D-06 0.000000000000D+00 0.000000000000D+00 0.160207599985D-06 0.000000000000D+00  7 -2 1 -24 -13 13 23 21 2 0.13532603D-01 0.68234381D-01 0.34557055D+05 0.34557055D+05 0.34557055D+05 0.11616802D+01  1  2 15  2  7  2        1 0.247173816044D-03 0.100000000000D+01
-.453394477648D-06 0.000000000000D+00 0.000000000000D+00 0.160207599985D-06 0.000000000000D+00  7 -2 1 -24 -13 13 23 21 2 0.13532603D-01 0.68234381D-01 0.34557055D+05 0.34557055D+05 0.34557055D+05 0.11616802D+01  1  2  4  2  7  2        1 -.129574340584D-03 0.100000000000D+01
  </mgrwgt>
  </event>
  <event>
  8     66 0.26562228E-05 0.12662671E+03 0.75467711E-02 0.10434904E+00
       -2 -1    0    0    0  501 0.00000000E+00 0.00000000E+00 0.37474541E+02 0.37475907E+02 0.32000000E+00 0.0000E+00 0.9000E+01
        1 -1    0    0  501    0 0.00000000E+00 0.00000000E+00 -.11728089E+04 0.11728090E+04 0.32000000E+00 0.0000E+00 0.9000E+01
       25  2    1    2    0    0 0.19131101E+02 -.50375691E+02 -.98687552E+03 0.10330535E+04 0.30062024E+03 0.0000E+00 0.0000E+00
       23  2    3    3    0    0 0.80981134E+02 -.12385816E+03 -.59202788E+03 0.61658620E+03 0.88219876E+02 0.0000E+00 0.0000E+00
      -24  1    1    2    0    0 -.19131101E+02 0.50375691E+02 -.14845885E+03 0.17723136E+03 0.80419002E+02 0.0000E+00 0.9000E+01
      -13  1    4    4    0    0 0.92931346E+02 -.71643889E+02 -.36858118E+03 0.38680897E+03 0.10565837E+00 0.0000E+00 0.9000E+01
       13  1    4    4    0    0 -.11950212E+02 -.52214268E+02 -.22344670E+03 0.22977723E+03 0.10565837E+00 0.0000E+00 0.9000E+01
       23  1    3    3    0    0 -.61850032E+02 0.73482466E+02 -.39484764E+03 0.41646730E+03 0.91188000E+02 0.0000E+00 0.9000E+01
#aMCatNLO 1  0  0  2  1 0.55819841D+02 0.00000000D+00  -5  7  0 0.00000000D+00 0.00000000D+00 0.00000000D+00 0.00000000D+00 0.00000000D+00
  <mgrwgt>
 0.1489857223D-02    9    2    0
 0.209645720384491D+03 0.000000000000000D+00 0.000000000000000D+00 0.209645720384491D+03
 0.209645720384491D+03 0.000000000000000D+00 0.000000000000000D+00 -.209645720384491D+03
 0.109589693224273D+03 -.191311208696014D+02 0.503757421952746D+02 0.513709034295452D+02
 0.118500367118142D+03 0.929314819947158D+02 -.716439113817689D+02 -.165295681529001D+02
 0.582152415951510D+02 -.119503616574958D+02 -.522142416096488D+02 -.228007934810627D+02
 0.132986138831416D+03 -.618499994676186D+02 0.734824107961432D+02 -.120405417955824D+02
 0.000000000000000D+00 0.000000000000000D+00 -.000000000000000D+00 -.000000000000000D+00
 0.224043906008396D+03 0.000000000000000D+00 0.000000000000000D+00 0.224043906008396D+03
 0.273571432862598D+03 0.000000000000000D+00 0.000000000000000D+00 -.273571432862598D+03
 0.116663451307358D+03 -.310180606376150D+02 0.595151670726653D+02 0.513709034295452D+02
 0.103924277470710D+03 0.812456848376297D+02 -.626591375599141D+02 -.165295681529001D+02
 0.557531361359340D+02 -.179380585107355D+02 -.476105247029620D+02 -.228007934810627D+02
 0.146649876107615D+03 -.765415807644387D+02 0.847782199962265D+02 -.120405417955824D+02
 0.746245978493776D+02 0.442520150751595D+02 -.340237248060157D+02 -.495275268542020D+02
0.579122668290D-05 0.000000000000D+00 0.000000000000D+00 0.628405875330D-07 0.000000000000D+00  7 -2 1 -24 -13 13 23 21 0 0.57654224D-02 0.18043225D+00 0.40029946D+05 0.40029946D+05 0.40029946D+05 0.11558891D+01  1  2  2  2  7  2        1 0.101210044190D-02 0.100000000000D+01
-.320880684083D-06 0.000000000000D+00 -.222398353273D-07 0.628405875330D-07 0.000000000000D+00  7 -2 1 -24 -13 13 23 21 2 0.57654224D-02 0.18043225D+00 0.40029946D+05 0.40029946D+05 0.40029946D+05 0.11558891D+01  1  2  3  2  7  2        1 -.749253835850D-04 0.100000000000D+01
0.375875270979D-06 0.000000000000D+00 0.000000000000D+00 0.628405875330D-07 0.000000000000D+00  7 -2 1 -24 -13 13 23 21 2 0.57654224D-02 0.18043225D+00 0.40029946D+05 0.40029946D+05 0.40029946D+05 0.11558891D+01  1  2 15  2  7  2        1 0.877665757250D-04 0.100000000000D+01
0.697996974149D-05 0.000000000000D+00 0.000000000000D+00 0.628405875330D-07 0.000000000000D+00  7 -2 1 -24 -13 13 23 21 2 0.57654224D-02 0.24023671D+00 0.52945543D+05 0.52945543D+05 0.52945543D+05 0.11451152D+01  1  2 12  2  7  2        1 0.879554644960D-03 0.100000000000D+01
-.736259005628D-05 0.000000000000D+00 0.000000000000D+00 0.628405875330D-07 0.000000000000D+00  7 -2 1 -24 -13 13 23 21 2 0.57654224D-02 0.18043225D+00 0.40029946D+05 0.40029946D+05 0.40029946D+05 0.11558891D+01  1  2  4  2  7  2        1 -.171915890083D-02 0.100000000000D+01
-.112908255679D-04 0.000000000000D+00 -.274116265916D-05 0.628405875330D-07 0.000000000000D+00  7 -2 1 -24 -13 13 23 21 2 0.57654224D-02 0.24276706D+00 0.40029946D+05 0.40029946D+05 0.40029946D+05 0.11558891D+01  1  2  5  2  7  2        1 -.141681177490D-02 0.100000000000D+01
0.117016648065D-04 0.000000000000D+00 0.262474611357D-05 0.628405875330D-07 0.000000000000D+00  7 -2 1 -24 -13 13 23 21 2 0.57654224D-02 0.18043225D+00 0.40029946D+05 0.40029946D+05 0.40029946D+05 0.11558891D+01  1  2  6  2  7  2        1 0.273232939126D-02 0.100000000000D+01
0.260816196028D-06 0.000000000000D+00 0.000000000000D+00 0.628405875330D-07 0.000000000000D+00  7 -2 21 -24 -13 13 23 -1 2 0.57654224D-02 0.24023671D+00 0.52945543D+05 0.52945543D+05 0.52945543D+05 0.11451152D+01  1  2 12  4  7  2        1 0.260715708249D-04 0.100000000000D+01
-.372595240428D-06 0.000000000000D+00 -.105128605869D-06 0.628405875330D-07 0.000000000000D+00  7 -2 21 -24 -13 13 23 -1 2 0.57654224D-02 0.24276706D+00 0.40029946D+05 0.40029946D+05 0.40029946D+05 0.11558891D+01  1  2  5  4  7  2        1 -.370693423449D-04 0.100000000000D+01
  </mgrwgt>
  </event>
  <event>
  8     66 0.26562228E-05 0.16623868E+03 0.75467711E-02 0.88551636E-01
       -2 -1    0    0    0  501 0.00000000E+00 0.00000000E+00 0.70290841E+02 0.70291570E+02 0.32000000E+00 0.0000E+00 0.9000E+01
        1 -1    0    0  501    0 0.00000000E+00 0.00000000E+00 -.87898326E+03 0.87898332E+03 0.32000000E+00 0.0000E+00 0.9000E+01
       25  2    1    2    0    0 -.42538303E+02 0.65566765E+02 -.77131946E+03 0.83106972E+03 0.29939048E+03 0.0000E+00 0.0000E+00
       23  2    3    3    0    0 -.76357649E+02 0.91760838E+02 -.19263215E+03 0.24368216E+03 0.89572940E+02 0.0000E+00 0.0000E+00
      -24  1    1    2    0    0 0.42538303E+02 -.65566765E+02 -.37372954E+02 0.11820517E+03 0.80419002E+02 0.0000E+00 0.9000E+01
      -13  1    4    4    0    0 -.35929067E+02 0.37344671E+02 -.16050551E+03 0.16866403E+03 0.10565837E+00 0.0000E+00 0.9000E+01
       13  1    4    4    0    0 -.40428582E+02 0.54416167E+02 -.32126631E+02 0.75018138E+02 0.10565837E+00 0.0000E+00 0.9000E+01
       23  1    3    3    0    0 0.33819346E+02 -.26194073E+02 -.57868732E+03 0.58738755E+03 0.91188000E+02 0.0000E+00 0.9000E+01
#aMCatNLO 1  0  0  1  2 0.87299151D+03 0.00000000D+00  -5  7  0 0.00000000D+00 0.00000000D+00 0.00000000D+00 0.00000000D+00 0.00000000D+00
  <mgrwgt>
 0.1014607798D-02    3    2    0
 0.248565577348017D+03 0.000000000000000D+00 0.000000000000000D+00 0.248565577348017D+03
 0.248565577348017D+03 0.000000000000000D+00 0.000000000000000D+00 -.248565577348017D+03
 0.164918195052645D+03 0.425383037598141D+02 -.655667656927463D+02 0.120922649056668D+03
 0.609676348032303D+02 -.359290607326913D+02 0.373446472933666D+02 -.321174782151508D+02
 0.909866367630615D+02 -.404285883508449D+02 0.544161902669870D+02 0.606875238433592D+02
 0.180258688077097D+03 0.338193453237221D+02 -.261940718676073D+02 -.149492694684876D+03
 0.000000000000000D+00 -.000000000000000D+00 0.000000000000000D+00 -.000000000000000D+00
 0.769887015681507D+03 0.000000000000000D+00 0.000000000000000D+00 0.769887015681507D+03
 0.121435412861248D+04 0.000000000000000D+00 0.000000000000000D+00 -.121435412861248D+04
 0.463366837687832D+03 0.328584512640547D+03 -.292662845801006D+03 0.120922649056668D+03
 0.330146745050468D+02 0.685929467699999D+01 0.337437435794904D+01 -.321174782151508D+02
 0.688493317848675D+02 0.323416838399311D+02 -.335714512382324D+01 0.606875238433592D+02
 0.439385278580247D+03 0.315931441397427D+03 -.250166804875147D+03 -.149492694684876D+03
 0.979625021735989D+03 -.683716932554905D+03 0.542812421442027D+03 -.444467112930969D+03
0.887629374342D-05 0.000000000000D+00 0.000000000000D+00 0.392526423206D-06 0.000000000000D+00  7 -2 1 -24 -13 13 23 21 0 0.10814036D-01 0.13522825D+00 0.27635300D+05 0.27635300D+05 0.27635300D+05 0.11706588D+01  1  2  2  1  7  1       -2 0.991598545863D-03 0.100000000000D+01
-.396098319276D-06 0.000000000000D+00 -.340873051565D-07 0.392526423206D-06 0.000000000000D+00  7 -2 1 -24 -13 13 23 21 2 0.10814036D-01 0.13522825D+00 0.27635300D+05 0.27635300D+05 0.27635300D+05 0.11706588D+01  1  2  3  1  7  1       -2 -.606412094091D-04 0.100000000000D+01
0.546390939229D-06 0.000000000000D+00 0.000000000000D+00 0.392526423206D-06 0.000000000000D+00  7 -2 1 -24 -13 13 23 21 2 0.10814036D-01 0.13522825D+00 0.27635300D+05 0.27635300D+05 0.27635300D+05 0.11706588D+01  1  2 15  1  7  1       -2 0.836504618994D-04 0.100000000000D+01
  </mgrwgt>
  </event>
  <event>
  8     66 0.26562228E-05 0.15613230E+03 0.75467711E-02 0.10028332E+00
       -4 -1    0    0    0  501 0.00000000E+00 0.00000000E+00 0.48722968E+03 0.48723214E+03 0.15500000E+01 0.0000E+00 0.9000E+01
        3 -1    0    0  501    0 0.00000000E+00 0.00000000E+00 -.63952800E+03 0.63952819E+03 0.50000000E+00 0.0000E+00 0.9000E+01
       25  2    1    2    0    0 -.12757747E+03 -.15766109E+03 0.39502941E+03 0.53755079E+03 0.30295146E+03 0.0000E+00 0.0000E+00
       23  2    3    3    0    0 -.14521603E+03 -.79940673E+01 0.27638290E+03 0.32517475E+03 0.90551147E+02 0.0000E+00 0.0000E+00
      -24  1    1    2    0    0 0.12757747E+03 0.15766109E+03 -.54732773E+03 0.58920954E+03 0.80419002E+02 0.0000E+00 0.9000E+01
      -11  1    4    4    0    0 -.86798640E+02 0.35551974E+01 0.73691041E+02 0.11391669E+03 0.51099893E-03 0.0000E+00 0.9000E+01
       11  1    4    4    0    0 -.58417390E+02 -.11549265E+02 0.20269186E+03 0.21125806E+03 0.51099893E-03 0.0000E+00 0.9000E+01
       23  1    3    3    0    0 0.17638562E+02 -.14966702E+03 0.11864650E+03 0.21237604E+03 0.91188000E+02 0.0000E+00 0.9000E+01
#aMCatNLO 1  0  0  1  2 0.74997959D+02 0.00000000D+00  -5  7  0 0.00000000D+00 0.00000000D+00 0.00000000D+00 0.00000000D+00 0.00000000D+00
  <mgrwgt>
 0.5716086275D-04    9    2    0
 0.558210101823113D+03 0.000000000000000D+00 0.000000000000000D+00 0.558210101823113D+03
 0.558210101823113D+03 0.000000000000000D+00 0.000000000000000D+00 -.558210101823113D+03
 0.520002098292711D+03 0.127577468100740D+03 0.157661091003774D+03 -.472018999925804D+03
 0.125024459336134D+03 -.867986400864004D+02 0.355519738296590D+01 0.899136924111807D+02
 0.240865252702283D+03 -.584173904803673D+02 -.115492647164275D+02 0.233388287909460D+03
 0.230528393315097D+03 0.176385624660272D+02 -.149667023670312D+03 0.148717019605163D+03
 0.000000000000000D+00 -.000000000000000D+00 -.000000000000000D+00 0.000000000000000D+00
 0.766325825049703D+03 0.000000000000000D+00 0.000000000000000D+00 0.766325825049703D+03
 0.566266006669776D+03 0.000000000000000D+00 0.000000000000000D+00 -.566266006669776D+03
 0.534784014303948D+03 0.148546835171104D+03 0.186168277293335D+03 -.472018999925804D+03
 0.122043591834819D+03 -.818868758960197D+02 0.102325842738402D+02 0.899136924111807D+02
 0.238457832723992D+03 -.488883479535756D+02 0.140516493139545D+01 0.233388287909460D+03
 0.223651004825618D+03 0.266677432655012D+02 -.137392140111403D+03 0.148717019605163D+03
 0.213655388031102D+03 -.444393545870101D+02 -.604138863871671D+02 0.200059818379927D+03
0.163798472180D-03 0.000000000000D+00 0.000000000000D+00 0.549519386506D-06 0.000000000000D+00  7 -4 3 -24 -11 11 23 21 0 0.74958616D-01 0.98389127D-01 0.73099393D+05 0.73099393D+05 0.73099393D+05 0.11330636D+01  1  2  2  1  7  1       -4 0.720139209164D-04 0.100000000000D+01
-.328514902574D-05 0.000000000000D+00 -.629029262301D-06 0.549519386506D-06 0.000000000000D+00  7 -4 3 -24 -11 11 23 21 2 0.74958616D-01 0.98389127D-01 0.73099393D+05 0.73099393D+05 0.73099393D+05 0.11330636D+01  1  2  3  1  7  1       -4 -.185425829634D-05 0.100000000000D+01
0.101591624987D-04 0.000000000000D+00 0.000000000000D+00 0.549519386506D-06 0.000000000000D+00  7 -4 3 -24 -11 11 23 21 2 0.74958616D-01 0.98389127D-01 0.73099393D+05 0.73099393D+05 0.73099393D+05 0.11330636D+01  1  2 15  1  7  1       -4 0.573420298423D-05 0.100000000000D+01
0.835786961993D-03 0.000000000000D+00 0.000000000000D+00 0.549519386506D-06 0.000000000000D+00  7 -4 3 -24 -11 11 23 21 2 0.10329659D+00 0.98389127D-01 0.97610131D+05 0.97610131D+05 0.97610131D+05 0.11225851D+01  1  2 12  1  7  1       -4 0.197703567082D-03 0.100000000000D+01
-.858540957328D-03 0.000000000000D+00 0.000000000000D+00 0.549519386506D-06 0.000000000000D+00  7 -4 3 -24 -11 11 23 21 2 0.74958616D-01 0.98389127D-01 0.73099393D+05 0.73099393D+05 0.73099393D+05 0.11330636D+01  1  2  4  1  7  1       -4 -.484591925785D-03 0.100000000000D+01
-.877625571305D-03 0.000000000000D+00 -.743807895837D-04 0.549519386506D-06 0.000000000000D+00  7 -4 3 -24 -11 11 23 21 2 0.10357527D+00 0.98389127D-01 0.73099393D+05 0.73099393D+05 0.73099393D+05 0.11330636D+01  1  2  5  1  7  1       -4 -.210768800609D-03 0.100000000000D+01
0.860045984823D-03 0.000000000000D+00 0.706545548428D-04 0.549519386506D-06 0.000000000000D+00  7 -4 3 -24 -11 11 23 21 2 0.74958616D-01 0.98389127D-01 0.73099393D+05 0.73099393D+05 0.73099393D+05 0.11330636D+01  1  2  6  1  7  1       -4 0.485441418364D-03 0.100000000000D+01
0.338980693587D-04 0.000000000000D+00 0.000000000000D+00 0.549519386506D-06 0.000000000000D+00  7 21 3 -24 -11 11 23 4 2 0.10329659D+00 0.98389127D-01 0.97610131D+05 0.97610131D+05 0.97610131D+05 0.11225851D+01  1  2 12  3  7  1       -4 0.190430642319D-03 0.100000000000D+01
-.339396639166D-04 0.000000000000D+00 -.303499357497D-05 0.549519386506D-06 0.000000000000D+00  7 21 3 -24 -11 11 23 4 2 0.10357527D+00 0.98389127D-01 0.73099393D+05 0.73099393D+05 0.73099393D+05 0.11330636D+01  1  2  5  3  7  1       -4 -.196947904221D-03 0.100000000000D+01
  </mgrwgt>
  </event>
  <event>
  8     66 0.26562228E-05 0.15060829E+03 0.75467711E-02 0.97713174E-01
       -2 -1    0    0    0  501 0.00000000E+00 0.00000000E+00 0.35313044E+03 0.35313059E+03 0.32000000E+00 0.0000E+00 0.9000E+01
        1 -1    0    0  501    0 0.00000000E+00 0.00000000E+00 -.40825479E+03 0.40825492E+03 0.32000000E+00 0.0000E+00 0.9000E+01
       25  2    1    2    0    0 0.93473356E+02 -.29881218E+03 0.12187620E+01 0.43325786E+03 0.29947437E+03 0.0000E+00 0.0000E+00
       23  2    3    3    0    0 0.93030745E+02 -.95287940E+01 -.82834699E+01 0.12979350E+03 0.89622650E+02 0.0000E+00 0.0000E+00
      -24  1    1    2    0    0 -.93473356E+02 0.29881218E+03 -.56343114E+02 0.32812764E+03 0.80419002E+02 0.0000E+00 0.9000E+01
      -13  1    4    4    0    0 0.24712791E+02 -.30702618E+02 0.29191919E+02 0.49046428E+02 0.10565837E+00 0.0000E+00 0.9000E+01
       13  1    4    4    0    0 0.68317954E+02 0.21173824E+02 -.37475389E+02 0.80747072E+02 0.10565837E+00 0.0000E+00 0.9000E+01
       23  1    3    3    0    0 0.44261133E+00 -.28928339E+03 0.95022319E+01 0.30346436E+03 0.91188000E+02 0.0000E+00 0.9000E+01
#aMCatNLO 1  0  0  1  2 0.30504321D+02 0.00000000D+00  -5  7  0 0.00000000D+00 0.00000000D+00 0.00000000D+00 0.00000000D+00 0.00000000D+00
  <mgrwgt>
 0.9997770779D-03    9    2    0
 0.379693689981797D+03 0.000000000000000D+00 0.000000000000000D+00 0.379693689981797D+03
 0.379693689981797D+03 0.000000000000000D+00 0.000000000000000D+00 -.379693689981797D+03
 0.324901046526372D+03 -.934733563553626D+02 0.298812182061798D+03 -.326723978717685D+02
 0.512945007049384D+02 0.247127304505223D+02 -.307026903301265D+02 0.328291267435049D+02
 0.782392141835826D+02 0.683180145273086D+02 0.211738964425826D+02 -.317126100557766D+02
 0.304952618548700D+03 0.442611377531669D+00 -.289283388174255D+03 0.315558811840402D+02
 0.000000000000000D+00 0.000000000000000D+00 0.000000000000000D+00 0.000000000000000D+00
 0.397031033469975D+03 0.000000000000000D+00 0.000000000000000D+00 0.397031033469975D+03
 0.393658914928033D+03 0.000000000000000D+00 0.000000000000000D+00 -.393658914928033D+03
 0.321378750692252D+03 -.104117297337728D+03 0.291391812264068D+03 -.326723978717685D+02
 0.512268452888622D+02 0.230242494537667D+02 -.318798063450617D+02 0.328291267435049D+02
 0.755646507252551D+02 0.657849332396143D+02 0.194079715926098D+02 -.317126100557766D+02
 0.311829560169374D+03 -.971551694011598D+01 -.296365076121851D+03 0.315558811840402D+02
 0.306901415222650D+02 0.250236315844632D+02 0.174450986102346D+02 0.337211854194108D+01
0.249604287508D-04 0.000000000000D+00 0.000000000000D+00 0.121940482427D-05 0.000000000000D+00  7 -2 1 -24 -13 13 23 21 0 0.54327781D-01 0.62808451D-01 0.13597897D+06 0.13597897D+06 0.13597897D+06 0.11109310D+01  1  2  2  1  7  1       -2 0.523172087995D-03 0.100000000000D+01
-.138524926930D-05 0.000000000000D+00 -.958546186350D-07 0.121940482427D-05 0.000000000000D+00  7 -2 1 -24 -13 13 23 21 2 0.54327781D-01 0.62808451D-01 0.13597897D+06 0.13597897D+06 0.13597897D+06 0.11109310D+01  1  2  3  1  7  1       -2 -.358339430661D-04 0.100000000000D+01
0.159510791899D-05 0.000000000000D+00 0.000000000000D+00 0.121940482427D-05 0.000000000000D+00  7 -2 1 -24 -13 13 23 21 2 0.54327781D-01 0.62808451D-01 0.13597897D+06 0.13597897D+06 0.13597897D+06 0.11109310D+01  1  2 15  1  7  1       -2 0.412626143324D-04 0.100000000000D+01
0.537508086894D-04 0.000000000000D+00 0.000000000000D+00 0.121940482427D-05 0.000000000000D+00  7 -2 1 -24 -13 13 23 21 2 0.57766733D-01 0.62808451D-01 0.14759413D+06 0.14759413D+06 0.14759413D+06 0.11081065D+01  1  2 12  1  7  1       -2 0.121987336152D-02 0.100000000000D+01
-.446254455253D-04 0.000000000000D+00 0.000000000000D+00 0.121940482427D-05 0.000000000000D+00  7 -2 1 -24 -13 13 23 21 2 0.54327781D-01 0.62808451D-01 0.13597897D+06 0.13597897D+06 0.13597897D+06 0.11109310D+01  1  2  4  1  7  1       -2 -.115438117146D-02 0.100000000000D+01
-.227942032633D-03 0.000000000000D+00 -.414134451799D-04 0.121940482427D-05 0.000000000000D+00  7 -2 1 -24 -13 13 23 21 2 0.58646929D-01 0.62808451D-01 0.13597897D+06 0.13597897D+06 0.13597897D+06 0.11109310D+01  1  2  5  1  7  1       -2 -.504948584865D-02 0.100000000000D+01
0.230556068630D-03 0.000000000000D+00 0.412925606621D-04 0.121940482427D-05 0.000000000000D+00  7 -2 1 -24 -13 13 23 21 2 0.54327781D-01 0.62808451D-01 0.13597897D+06 0.13597897D+06 0.13597897D+06 0.11109310D+01  1  2  6  1  7  1       -2 0.596407680549D-02 0.100000000000D+01
0.612604631211D-06 0.000000000000D+00 0.000000000000D+00 0.121940482427D-05 0.000000000000D+00  7 21 1 -24 -13 13 23 2 2 0.57766733D-01 0.62808451D-01 0.14759413D+06 0.14759413D+06 0.14759413D+06 0.11081065D+01  1  2 12  3  7  1       -2 0.144195417311D-03 0.100000000000D+01
-.284321232616D-05 0.000000000000D+00 -.531543588389D-06 0.121940482427D-05 0.000000000000D+00  7 21 1 -24 -13 13 23 2 2 0.58646929D-01 0.62808451D-01 0.13597897D+06 0.13597897D+06 0.13597897D+06 0.11109310D+01  1  2  5  3  7  1       -2 -.653102245581D-03 0.100000000000D+01
  </mgrwgt>
  </event>
  <event>
  8     66 0.26562228E-05 0.18809333E+03 0.75467711E-02 0.98774167E-01
       -2 -1    0    0    0  501 0.00000000E+00 0.00000000E+00 0.82513796E+02 0.82514416E+02 0.32000000E+00 0.0000E+00 0.9000E+01
        1 -1    0    0  501    0 0.00000000E+00 0.00000000E+00 -.18926376E+04 0.18926376E+04 0.32000000E+00 0.0000E+00 0.9000E+01
       25  2    1    2    0    0 0.19639048E+02 -.30174292E+03 -.67965696E+03 0.80218274E+03 0.30021506E+03 0.0000E+00 0.0000E+00
       23  2    3    3    0    0 -.93605403E+02 -.95457788E+02 -.17252443E+03 0.23572311E+03 0.89031135E+02 0.0000E+00 0.0000E+00
      -24  1    1    2    0    0 -.19639048E+02 0.30174292E+03 -.11304668E+04 0.11729693E+04 0.80419002E+02 0.0000E+00 0.9000E+01
      -11  1    4    4    0    0 -.19956718E+02 -.16361937E+01 -.86178541E+02 0.88474226E+02 0.51099893E-03 0.0000E+00 0.9000E+01
       11  1    4    4    0    0 -.73648684E+02 -.93821594E+02 -.86345894E+02 0.14724888E+03 0.51099893E-03 0.0000E+00 0.9000E+01
       23  1    3    3    0    0 0.11324445E+03 -.20628513E+03 -.50713252E+03 0.56645963E+03 0.91188000E+02 0.0000E+00 0.9000E+01
#aMCatNLO 1  0  0  1  2 0.30504321D+02 0.00000000D+00  -5  7  0 0.00000000D+00 0.00000000D+00 0.00000000D+00 0.00000000D+00 0.00000000D+00
  <mgrwgt>
 0.6570219844D-05    1    2    0
 0.395182678187245D+03 0.000000000000000D+00 0.000000000000000D+00 0.395182678187245D+03
 0.395182678187245D+03 0.000000000000000D+00 0.000000000000000D+00 -.395182678187245D+03
 0.342256608697369D+03 -.196390484072153D+02 0.301742922720616D+03 -.138700708752092D+03
 0.237310751792144D+02 -.199567183642905D+02 -.163619374082045D+01 -.127364120274281D+02
 0.170227821549358D+03 -.736486844764667D+02 -.938215939888425D+02 0.121453246172010D+03
 0.254149850948548D+03 0.113244451247973D+03 -.206285134990953D+03 0.299838746075103D+02
 0.000000000000000D+00 -.000000000000000D+00 -.000000000000000D+00 0.000000000000000D+00
 0.570722078114261D+03 0.000000000000000D+00 0.000000000000000D+00 0.570722078114261D+03
 0.420750022309709D+03 0.000000000000000D+00 0.000000000000000D+00 -.420750022309709D+03
 0.391931823843428D+03 -.188503631055174D+02 0.357141590674235D+03 -.138700708752092D+03
 0.237114503434230D+02 -.199057543053423D+02 0.194361302515391D+01 -.127364120274281D+02
 0.157778753509849D+03 -.732963308392482D+02 -.690716435225514D+02 0.121453246172010D+03
 0.225996687300923D+03 0.113760237796213D+03 -.170055364181967D+03 0.299838746075103D+02
 0.192053385426347D+03 -.170778954610546D+01 -.119958195994870D+03 0.149972055804551D+03
0.306738440272D-06 0.000000000000D+00 0.000000000000D+00 0.154300945776D-05 0.000000000000D+00  7 -2 1 -24 -11 11 23 21 2 0.12694480D-01 0.29117506D+00 0.12410349D+06 0.12410349D+06 0.12410349D+06 0.11141063D+01  1  2 14  1  7  1       -2 0.657021984416D-05 0.100000000000D+01
  </mgrwgt>
  </event>
  <event>
  8     66 0.26562228E-05 0.18031401E+03 0.75467711E-02 0.10623461E+00
       -2 -1    0    0    0  501 0.00000000E+00 0.00000000E+00 0.46208302E+03 0.46208313E+03 0.32000000E+00 0.0000E+00 0.9000E+01
        1 -1    0    0  501    0 0.00000000E+00 0.00000000E+00 -.10403162E+03 0.10403212E+03 0.32000000E+00 0.0000E+00 0.9000E+01
       25  2    1    2    0    0 -.86407238E+01 -.17635079E+02 0.13720311E+03 0.33026182E+03 0.29977078E+03 0.0000E+00 0.0000E+00
       23  2    3    3    0    0 -.15056192E+02 -.12168147E+03 0.31785799E+02 0.15620760E+03 0.91418859E+02 0.0000E+00 0.0000E+00
      -24  1    1    2    0    0 0.86407238E+01 0.17635079E+02 0.22084828E+03 0.23585342E+03 0.80419002E+02 0.0000E+00 0.9000E+01
      -13  1    4    4    0    0 0.23878826E+02 -.22552198E+02 -.19291183E+02 0.38091480E+02 0.10565837E+00 0.0000E+00 0.9000E+01
       13  1    4    4    0    0 -.38935018E+02 -.99129274E+02 0.51076982E+02 0.11811612E+03 0.10565837E+00 0.0000E+00 0.9000E+01
       23  1    3    3    0    0 0.64154679E+01 0.10404639E+03 0.10541731E+03 0.17405422E+03 0.91188000E+02 0.0000E+00 0.9000E+01
#aMCatNLO 1  0  0  1  1 0.40302120D+02 0.00000000D+00  -5  7  0 0.00000000D+00 0.00000000D+00 0.00000000D+00 0.00000000D+00 0.00000000D+00
  <mgrwgt>
 0.5003459776D-03    4    2    0
 0.219251949887649D+03 0.000000000000000D+00 0.000000000000000D+00 0.219251949887649D+03
 0.219251949887649D+03 0.000000000000000D+00 0.000000000000000D+00 -.219251949887649D+03
 0.124161236142753D+03 0.864072447626164D+01 0.176350800344441D+02 0.925372273132825D+02
 0.649284433864975D+02 0.238789087900459D+02 -.225520966822262D+02 -.560080655872509D+02
 0.110783912562696D+03 -.389351005723584D+02 -.991293737214731D+02 -.305041061450397D+02
 0.138630307683351D+03 0.641546730605082D+01 0.104046390369255D+03 -.602505558099193D+01
 0.000000000000000D+00 0.000000000000000D+00 0.000000000000000D+00 -.000000000000000D+00
 0.229726942621615D+03 0.000000000000000D+00 0.000000000000000D+00 0.229726942621615D+03
 0.262691866799887D+03 0.000000000000000D+00 0.000000000000000D+00 -.262691866799887D+03
 0.123002507878754D+03 0.301876065284056D+00 0.995848493012897D+01 0.925372273132825D+02
 0.649912715979566D+02 0.194956574635144D+02 -.265872396679097D+02 -.560080655872509D+02
 0.120054208239317D+03 -.467231525961836D+02 -.106298915496515D+03 -.305041061450397D+02
 0.132304065725675D+03 -.272535825525990D+01 0.956315094054783D+02 -.602505558099193D+01
 0.520667559797985D+02 0.296509773226450D+02 0.272961608288176D+02 -.329649241782716D+02
0.977472642354D-05 0.000000000000D+00 0.000000000000D+00 0.122416274236D-05 0.000000000000D+00  7 -2 1 -24 -13 13 23 21 0 0.71089741D-01 0.16004912D-01 0.32513141D+05 0.32513141D+05 0.32513141D+05 0.11641082D+01  1  2  2  1  7  1       -2 0.703931596798D-03 0.100000000000D+01
-.517799527943D-06 0.000000000000D+00 -.375375232110D-07 0.122416274236D-05 0.000000000000D+00  7 -2 1 -24 -13 13 23 21 2 0.71089741D-01 0.16004912D-01 0.32513141D+05 0.32513141D+05 0.32513141D+05 0.11641082D+01  1  2  3  1  7  1       -2 -.505328933194D-04 0.100000000000D+01
0.621682836513D-06 0.000000000000D+00 0.000000000000D+00 0.122416274236D-05 0.000000000000D+00  7 -2 1 -24 -13 13 23 21 2 0.71089741D-01 0.16004912D-01 0.32513141D+05 0.32513141D+05 0.32513141D+05 0.11641082D+01  1  2 15  1  7  1       -2 0.606710334033D-04 0.100000000000D+01
-.218998071172D-05 0.000000000000D+00 0.000000000000D+00 0.122416274236D-05 0.000000000000D+00  7 -2 1 -24 -13 13 23 21 2 0.71089741D-01 0.16004912D-01 0.32513141D+05 0.32513141D+05 0.32513141D+05 0.11641082D+01  1  2  4  1  7  1       -2 -.213723759302D-03 0.100000000000D+01
  </mgrwgt>
  </event>
  <event>
  8     66 0.26562228E-05 0.19143050E+03 0.75467711E-02 0.10050395E+00
       -2 -1    0    0    0  501 0.00000000E+00 0.00000000E+00 0.55996215E+03 0.55996224E+03 0.32000000E+00 0.0000E+00 0.9000E+01
        1 -1    0    0  501    0 0.00000000E+00 0.00000000E+00 -.22932742E+03 0.22932765E+03 0.32000000E+00 0.0000E+00 0.9000E+01
       25  2    1    2    0    0 -.24506514E+03 -.34939521E+02 0.27441227E+02 0.38970108E+03 0.29972691E+03 0.0000E+00 0.0000E+00
       23  2    3    3    0    0 -.46656791E+02 0.71144578E+02 0.71780700E+02 0.14291990E+03 0.89639405E+02 0.0000E+00 0.0000E+00
      -24  1    1    2    0    0 0.24506514E+03 0.34939521E+02 0.30319350E+03 0.39958880E+03 0.80419002E+02 0.0000E+00 0.9000E+01
      -11  1    4    4    0    0 -.23217820E+02 0.69493367E+02 0.87894559E+02 0.11442836E+03 0.51099893E-03 0.0000E+00 0.9000E+01
       11  1    4    4    0    0 -.23438970E+02 0.16512109E+01 -.16113859E+02 0.28491547E+02 0.51099893E-03 0.0000E+00 0.9000E+01
       23  1    3    3    0    0 -.19840835E+03 -.10608410E+03 -.44339473E+02 0.24678118E+03 0.91188000E+02 0.0000E+00 0.9000E+01
#aMCatNLO 1  0  0  1  2 0.14268954D+02 0.00000000D+00  -5  7  0 0.00000000D+00 0.00000000D+00 0.00000000D+00 0.00000000D+00 0.00000000D+00
  <mgrwgt>
 0.9844370462D-03    6    2    0
 0.358350107210862D+03 0.000000000000000D+00 0.000000000000000D+00 0.358350107210862D+03
 0.358350107210862D+03 0.000000000000000D+00 0.000000000000000D+00 -.358350107210862D+03
 0.300188409016439D+03 0.245065143955614D+03 0.349395214278993D+02 0.149559921148193D+03
 0.854696975716435D+02 -.232178202993886D+02 0.694933668096128D+02 0.440076583448621D+02
 0.388110549378329D+02 -.234389702275223D+02 0.165121087563332D+01 -.308899038960142D+02
 0.292231052895809D+03 -.198408353428703D+03 -.106084099113145D+03 -.162677675597041D+03
 0.000000000000000D+00 -.000000000000000D+00 0.000000000000000D+00 -.000000000000000D+00
 0.365460591340210D+03 0.000000000000000D+00 0.000000000000000D+00 0.365460591340210D+03
 0.365651887073676D+03 0.000000000000000D+00 0.000000000000000D+00 -.365651887073676D+03
 0.301164872926415D+03 0.246997774838213D+03 0.292744588597400D+02 0.149559921148193D+03
 0.840279277651633D+02 -.226730883504837D+02 0.678966104909557D+02 0.440076583448621D+02
 0.386369610846971D+02 -.231900675740312D+02 0.921610040779753D+00 -.308899038960142D+02
 0.293012480558700D+03 -.196527496101474D+03 -.111597399421275D+03 -.162677675597041D+03
 0.142702360789102D+02 -.460712281222369D+01 0.135047200297998D+02 -.191295733466287D+00
0.375023425490D-04 0.000000000000D+00 0.000000000000D+00 0.241228976409D-05 0.000000000000D+00  7 -2 1 -24 -11 11 23 21 0 0.86148047D-01 0.35281166D-01 0.89943057D+05 0.89943057D+05 0.89943057D+05 0.11255192D+01  1  2  2  1  7  1       -2 0.632864601962D-03 0.100000000000D+01
-.200316187239D-05 0.000000000000D+00 -.144018869982D-06 0.241228976409D-05 0.000000000000D+00  7 -2 1 -24 -11 11 23 21 2 0.86148047D-01 0.35281166D-01 0.89943057D+05 0.89943057D+05 0.89943057D+05 0.11255192D+01  1  2  3  1  7  1       -2 -.428227233420D-04 0.100000000000D+01
0.236465488324D-05 0.000000000000D+00 0.000000000000D+00 0.241228976409D-05 0.000000000000D+00  7 -2 1 -24 -11 11 23 21 2 0.86148047D-01 0.35281166D-01 0.89943057D+05 0.89943057D+05 0.89943057D+05 0.11255192D+01  1  2 15  1  7  1       -2 0.505505637163D-04 0.100000000000D+01
0.466226235602D-04 0.000000000000D+00 0.000000000000D+00 0.241228976409D-05 0.000000000000D+00  7 -2 1 -24 -11 11 23 21 2 0.88717636D-01 0.35281166D-01 0.94300897D+05 0.94300897D+05 0.94300897D+05 0.11238193D+01  1  2 12  1  7  1       -2 0.928285999255D-03 0.100000000000D+01
-.350331241297D-04 0.000000000000D+00 0.000000000000D+00 0.241228976409D-05 0.000000000000D+00  7 -2 1 -24 -11 11 23 21 2 0.86148047D-01 0.35281166D-01 0.89943057D+05 0.89943057D+05 0.89943057D+05 0.11255192D+01  1  2  4  1  7  1       -2 -.748922891898D-03 0.100000000000D+01
0.845858180602D-06 0.000000000000D+00 0.000000000000D+00 0.241228976409D-05 0.000000000000D+00  7 21 1 -24 -11 11 23 2 2 0.88717636D-01 0.35281166D-01 0.94300897D+05 0.94300897D+05 0.94300897D+05 0.11238193D+01  1  2 12  3  7  1       -2 0.164481496504D-03 0.100000000000D+01
  </mgrwgt>
  </event>
  <event>
  8     66 0.26562228E-05 0.36141663E+03 0.75467711E-02 0.91181460E-01
       -2 -1    0    0    0  501 0.00000000E+00 0.00000000E+00 0.44124527E+03 0.44124539E+03 0.32000000E+00 0.0000E+00 0.9000E+01
        1 -1    0    0  501    0 0.00000000E+00 0.00000000E+00 -.27012802E+04 0.27012802E+04 0.32000000E+00 0.0000E+00 0.9000E+01
       25  2    1    2    0    0 -.55690408E+03 -.32209220E+03 -.23795880E+04 0.24832490E+04 0.30033458E+03 0.0000E+00 0.0000E+00
       23  2    3    3    0    0 -.45459318E+03 -.19919942E+03 -.19823306E+04 0.20454147E+04 0.88041523E+02 0.0000E+00 0.0000E+00
      -24  1    1    2    0    0 0.55690408E+03 0.32209220E+03 0.11955306E+03 0.65927664E+03 0.80419002E+02 0.0000E+00 0.9000E+01
      -13  1    4    4    0    0 -.44695714E+03 -.17745889E+03 -.18815146E+04 0.19419988E+04 0.10565837E+00 0.0000E+00 0.9000E+01
       13  1    4    4    0    0 -.76360383E+01 -.21740534E+02 -.10081607E+03 0.10341591E+03 0.10565837E+00 0.0000E+00 0.9000E+01
       23  1    3    3    0    0 -.10231090E+03 -.12289278E+03 -.39725738E+03 0.43783425E+03 0.91188000E+02 0.0000E+00 0.9000E+01
#aMCatNLO 1  0  0  2  1 0.34495960D+02 0.00000000D+00  -5  7  0 0.00000000D+00 0.00000000D+00 0.00000000D+00 0.00000000D+00 0.00000000D+00
  <mgrwgt>
 0.3805397511D-02    9    2    0
 0.109175424468048D+04 0.000000000000000D+00 0.000000000000000D+00 0.109175424468048D+04
 0.109175424468048D+04 0.000000000000000D+00 0.000000000000000D+00 -.109175424468048D+04
 0.107258013895722D+04 0.556904077846621D+03 0.322092204554380D+03 0.854444496953560D+03
 0.847486926335842D+03 -.446957769877237D+03 -.177459111429694D+03 -.697833150564748D+03
 0.444865629633233D+02 -.763540555367470D+01 -.217403101338774D+02 -.380540902085898D+02
 0.218954861104579D+03 -.102310902415709D+03 -.122892782990808D+03 -.118557256180222D+03
 0.000000000000000D+00 -.000000000000000D+00 0.000000000000000D+00 -.000000000000000D+00
 0.109914393132820D+04 0.000000000000000D+00 0.000000000000000D+00 0.109914393132820D+04
 0.113290445684733D+04 0.000000000000000D+00 0.000000000000000D+00 -.113290445684733D+04
 0.107011979185982D+04 0.561357381229332D+03 0.305764035067675D+03 0.854444496953560D+03
 0.848439464342210D+03 -.443433023073538D+03 -.190382700563991D+03 -.697833150564748D+03
 0.447917332299950D+02 -.744985304922825D+01 -.224206439177931D+02 -.380540902085898D+02
 0.220429973567957D+03 -.101397702231952D+03 -.126241058662654D+03 -.118557256180222D+03
 0.482674251755468D+02 -.907680287461401D+01 0.332803680767634D+02 -.337605255191260D+02
0.454284008145D-02 0.000000000000D+00 0.000000000000D+00 0.117731705305D-04 0.000000000000D+00  7 -2 1 -24 -13 13 23 21 0 0.67883898D-01 0.41558158D+00 0.44646873D+06 0.44646873D+06 0.44646873D+06 0.10720036D+01  1  2  2  2  7  2        1 0.100701042813D-02 0.100000000000D+01
-.178408943406D-03 0.000000000000D+00 -.174457020700D-04 0.117731705305D-04 0.000000000000D+00  7 -2 1 -24 -13 13 23 21 2 0.67883898D-01 0.41558158D+00 0.44646873D+06 0.44646873D+06 0.44646873D+06 0.10720036D+01  1  2  3  2  7  2        1 -.454480850686D-04 0.100000000000D+01
0.277762942808D-03 0.000000000000D+00 0.000000000000D+00 0.117731705305D-04 0.000000000000D+00  7 -2 1 -24 -13 13 23 21 2 0.67883898D-01 0.41558158D+00 0.44646873D+06 0.44646873D+06 0.44646873D+06 0.10720036D+01  1  2 15  2  7  2        1 0.707576291446D-04 0.100000000000D+01
0.123791192902D-01 0.000000000000D+00 0.000000000000D+00 0.117731705305D-04 0.000000000000D+00  7 -2 1 -24 -13 13 23 21 2 0.67883898D-01 0.43261964D+00 0.46977077D+06 0.46977077D+06 0.46977077D+06 0.10704298D+01  1  2 12  2  7  2        1 0.260635233112D-02 0.100000000000D+01
-.125670251765D-01 0.000000000000D+00 0.000000000000D+00 0.117731705305D-04 0.000000000000D+00  7 -2 1 -24 -13 13 23 21 2 0.67883898D-01 0.41558158D+00 0.44646873D+06 0.44646873D+06 0.44646873D+06 0.10720036D+01  1  2  4  2  7  2        1 -.320133743509D-02 0.100000000000D+01
-.793109383777D-01 0.000000000000D+00 -.984933826745D-02 0.117731705305D-04 0.000000000000D+00  7 -2 1 -24 -13 13 23 21 2 0.67883898D-01 0.43213421D+00 0.44646873D+06 0.44646873D+06 0.44646873D+06 0.10720036D+01  1  2  5  2  7  2        1 -.169035440214D-01 0.100000000000D+01
0.796423804897D-01 0.000000000000D+00 0.984183060547D-02 0.117731705305D-04 0.000000000000D+00  7 -2 1 -24 -13 13 23 21 2 0.67883898D-01 0.41558158D+00 0.44646873D+06 0.44646873D+06 0.44646873D+06 0.10720036D+01  1  2  6  2  7  2        1 0.202881851910D-01 0.100000000000D+01
0.244845141024D-03 0.000000000000D+00 0.000000000000D+00 0.117731705305D-04 0.000000000000D+00  7 -2 21 -24 -13 13 23 -1 2 0.67883898D-01 0.43261964D+00 0.46977077D+06 0.46977077D+06 0.46977077D+06 0.10704298D+01  1  2 12  4  7  2        1 0.131985680901D-04 0.100000000000D+01
-.542885400473D-03 0.000000000000D+00 -.680850044316D-04 0.117731705305D-04 0.000000000000D+00  7 -2 21 -24 -13 13 23 -1 2 0.67883898D-01 0.43213421D+00 0.44646873D+06 0.44646873D+06 0.44646873D+06 0.10720036D+01  1  2  5  4  7  2        1 -.297770954051D-04 0.100000000000D+01
  </mgrwgt>
  </event>
  <event>
  8     66 0.26562228E-05 0.17275042E+03 0.75467711E-02 0.93080921E-01
       -2 -1    0    0    0  501 0.00000000E+00 0.00000000E+00 0.43940064E+03 0.43940076E+03 0.32000000E+00 0.0000E+00 0.9000E+01
        1 -1    0    0  501    0 0.00000000E+00 0.00000000E+00 -.39567246E+03 0.39567259E+03 0.32000000E+00 0.0000E+00 0.9000E+01
       25  2    1    2    0    0 -.10613578E+03 0.33654134E+03 0.83551596E+02 0.47096073E+03 0.30049669E+03 0.0000E+00 0.0000E+00
       23  2    3    3    0    0 0.35313191E+02 0.14359087E+03 -.16377934E+02 0.19611740E+03 0.12778278E+03 0.0000E+00 0.0000E+00
      -24  1    1    2    0    0 0.10613578E+03 -.33654134E+03 -.39823412E+02 0.36411262E+03 0.80419002E+02 0.0000E+00 0.9000E+01
      -11  1    4    4    0    0 0.35651412E+02 -.11670742E+02 -.16184127E+02 0.40855298E+02 0.51099893E-03 0.0000E+00 0.9000E+01
       11  1    4    4    0    0 -.33822063E+00 0.15526161E+03 -.19380648E+00 0.15526210E+03 0.51099893E-03 0.0000E+00 0.9000E+01
       23  1    3    3    0    0 -.14144897E+03 0.19295047E+03 0.99929530E+02 0.27484333E+03 0.91188000E+02 0.0000E+00 0.9000E+01
#aMCatNLO 1  0  0  1  2 0.28920102D+03 0.00000000D+00  -5  7  0 0.00000000D+00 0.00000000D+00 0.00000000D+00 0.00000000D+00 0.00000000D+00
  <mgrwgt>
 0.7552940354D-03    7    2    0
 0.416963830506077D+03 0.000000000000000D+00 0.000000000000000D+00 0.416963830506077D+03
 0.416963830506077D+03 0.000000000000000D+00 0.000000000000000D+00 -.416963830506077D+03
 0.366701049118072D+03 0.106135777549272D+03 -.336541341740962D+03 -.589708868267091D+02
 0.417600641595138D+02 0.356514117868208D+02 -.116707411947558D+02 -.183486674224119D+02
 0.155485568335009D+03 -.338219485451773D+00 0.155261610289635D+03 -.833546269321104D+01
 0.269980979399560D+03 -.141448969850641D+03 0.192950472646083D+03 0.856550169423320D+02
 0.000000000000000D+00 0.000000000000000D+00 0.000000000000000D+00 0.000000000000000D+00
 0.934144573563265D+03 0.000000000000000D+00 0.000000000000000D+00 0.934144573563265D+03
 0.483753393366351D+03 0.000000000000000D+00 0.000000000000000D+00 -.483753393366351D+03
 0.471608744032187D+03 0.366268822605455D+02 -.459487211460765D+03 -.589708868267091D+02
 0.416383711051891D+02 0.287363868742836D+02 -.239018915888820D+02 -.183486674224119D+02
 0.117756230595440D+03 -.229942062645011D+02 0.115188178143428D+03 -.833546269321104D+01
 0.251647533104865D+03 -.184700070996713D+03 0.116448836061946D+03 0.856550169423320D+02
 0.535247088091936D+03 0.142331008126385D+03 0.251752088844273D+03 0.450391180196914D+03
0.614244408863D-04 0.000000000000D+00 0.000000000000D+00 0.442165619572D-08 0.000000000000D+00  7 -2 1 -24 -11 11 23 21 0 0.67600118D-01 0.60872705D-01 0.16432339D+06 0.16432339D+06 0.16432339D+06 0.11044398D+01  1  2  2  1  7  1       -2 0.851286601300D-03 0.100000000000D+01
-.340916858145D-05 0.000000000000D+00 -.235886026430D-06 0.442165619572D-08 0.000000000000D+00  7 -2 1 -24 -11 11 23 21 2 0.67600118D-01 0.60872705D-01 0.16432339D+06 0.16432339D+06 0.16432339D+06 0.11044398D+01  1  2  3  1  7  1       -2 -.576324557788D-04 0.100000000000D+01
0.390673511816D-05 0.000000000000D+00 0.000000000000D+00 0.442165619572D-08 0.000000000000D+00  7 -2 1 -24 -11 11 23 21 2 0.67600118D-01 0.60872705D-01 0.16432339D+06 0.16432339D+06 0.16432339D+06 0.11044398D+01  1  2 15  1  7  1       -2 0.660438853512D-04 0.100000000000D+01
0.106911234447D-04 0.000000000000D+00 0.000000000000D+00 0.442165619572D-08 0.000000000000D+00  7 -2 1 -24 -11 11 23 21 2 0.15041757D+00 0.60872705D-01 0.32980219D+06 0.32980219D+06 0.32980219D+06 0.10815218D+01  1  2 12  1  7  1       -2 0.243646928044D-04 0.100000000000D+01
-.470085195648D-04 0.000000000000D+00 -.178139485663D-04 0.442165619572D-08 0.000000000000D+00  7 -2 1 -24 -11 11 23 21 2 0.16401607D+00 0.60872705D-01 0.16432339D+06 0.16432339D+06 0.16432339D+06 0.11044398D+01  1  2  5  1  7  1       -2 -.902618202408D-04 0.100000000000D+01
0.927630017215D-06 0.000000000000D+00 0.000000000000D+00 0.442165619572D-08 0.000000000000D+00  7 21 1 -24 -11 11 23 2 2 0.15041757D+00 0.60872705D-01 0.32980219D+06 0.32980219D+06 0.32980219D+06 0.10815218D+01  1  2 12  3  7  1       -2 0.179279017720D-04 0.100000000000D+01
-.345017623813D-05 0.000000000000D+00 -.173016718451D-05 0.442165619572D-08 0.000000000000D+00  7 21 1 -24 -11 11 23 2 2 0.16401607D+00 0.60872705D-01 0.16432339D+06 0.16432339D+06 0.16432339D+06 0.11044398D+01  1  2  5  3  7  1       -2 -.564347697828D-04 0.100000000000D+01
  </mgrwgt>
  </event>
  <event>
  8     66 0.26562228E-05 0.39727772E+03 0.75467711E-02 0.92591503E-01
       -2 -1    0    0    0  501 0.00000000E+00 0.00000000E+00 0.12105559E+03 0.12105602E+03 0.32000000E+00 0.0000E+00 0.9000E+01
        1 -1    0    0  501    0 0.00000000E+00 0.00000000E+00 -.13449044E+04 0.13449044E+04 0.32000000E+00 0.0000E+00 0.9000E+01
       25  2    1    2    0    0 -.26276047E+03 -.21588558E+03 -.75944323E+03 0.88476393E+03 0.30067181E+03 0.0000E+00 0.0000E+00
       23  2    3    3    0    0 -.13868727E+03 -.23760717E+03 -.57178373E+03 0.64104826E+03 0.91186147E+02 0.0000E+00 0.0000E+00
      -24  1    1    2    0    0 0.26276047E+03 0.21588558E+03 -.46440558E+03 0.58119653E+03 0.80419002E+02 0.0000E+00 0.9000E+01
      -11  1    4    4    0    0 -.14653242E+03 -.24017410E+03 -.55939613E+03 0.62616242E+03 0.51099893E-03 0.0000E+00 0.9000E+01
       11  1    4    4    0    0 0.78451488E+01 0.25669361E+01 -.12387601E+02 0.14885839E+02 0.51099893E-03 0.0000E+00 0.9000E+01
       23  1    3    3    0    0 -.12407320E+03 0.21721587E+02 -.18765950E+03 0.24371567E+03 0.91188000E+02 0.0000E+00 0.9000E+01
#aMCatNLO 1  0  0  2  1 0.34065973D+03 0.00000000D+00  -5  7  0 0.00000000D+00 0.00000000D+00 0.00000000D+00 0.00000000D+00 0.00000000D+00
  <mgrwgt>
 0.1476502848D-02    3    2    0
 0.403495398427227D+03 0.000000000000000D+00 0.000000000000000D+00 0.403495398427227D+03
 0.403495398427227D+03 0.000000000000000D+00 0.000000000000000D+00 -.403495398427227D+03
 0.351489650890712D+03 0.262760470370720D+03 0.215885578761561D+03 0.377903535607691D+02
 0.289114898267533D+03 -.146532420228042D+03 -.240174101809793D+03 -.665738315122219D+02
 0.825474027292162D+01 0.784514883067846D+01 0.256693608531524D+01 0.722214082170112D-01
 0.158131507423287D+03 -.124073198973356D+03 0.217215869629166D+02 0.287112565432358D+02
 0.000000000000000D+00 -.000000000000000D+00 -.000000000000000D+00 0.000000000000000D+00
 0.683095468654133D+03 0.000000000000000D+00 0.000000000000000D+00 0.683095468654133D+03
 0.556331998716123D+03 0.000000000000000D+00 0.000000000000000D+00 -.556331998716123D+03
 0.498124991691281D+03 0.307003526297579D+03 0.382075928856651D+03 0.377903535607691D+02
 0.199932511127343D+03 -.121065637053275D+03 -.144513132580925D+03 -.665738315122219D+02
 0.108591898730895D+02 0.884049264662550D+01 0.630574964084094D+01 0.722214082170112D-01
 0.167030336453905D+03 -.107140635758321D+03 0.853254350643227D+02 0.287112565432358D+02
 0.363480438224637D+03 -.876377461326077D+02 -.329193980980889D+03 0.126763469938011D+03
0.684705473747D-04 0.000000000000D+00 0.000000000000D+00 0.341043137345D-05 0.000000000000D+00  7 -2 1 -24 -11 11 23 21 0 0.18623973D-01 0.20690840D+00 0.15782959D+06 0.15782959D+06 0.15782959D+06 0.11058123D+01  1  2  2  2  7  2        1 0.146065518234D-02 0.100000000000D+01
-.380280390557D-05 0.000000000000D+00 -.262944930628D-06 0.341043137345D-05 0.000000000000D+00  7 -2 1 -24 -11 11 23 21 2 0.18623973D-01 0.20690840D+00 0.15782959D+06 0.15782959D+06 0.15782959D+06 0.11058123D+01  1  2  3  2  7  2        1 -.991997760973D-04 0.100000000000D+01
0.441032104013D-05 0.000000000000D+00 0.000000000000D+00 0.341043137345D-05 0.000000000000D+00  7 -2 1 -24 -11 11 23 21 2 0.18623973D-01 0.20690840D+00 0.15782959D+06 0.15782959D+06 0.15782959D+06 0.11058123D+01  1  2 15  2  7  2        1 0.115047441457D-03 0.100000000000D+01
  </mgrwgt>
  </event>
  <event>
  8     66 0.26562228E-05 0.32554153E+03 0.75467711E-02 0.96447192E-01
       -2 -1    0    0    0  501 0.00000000E+00 0.00000000E+00 0.37375363E+03 0.37375377E+03 0.32000000E+00 0.0000E+00 0.9000E+01
        1 -1    0    0  501    0 0.00000000E+00 0.00000000E+00 -.28866492E+03 0.28866510E+03 0.32000000E+00 0.0000E+00 0.9000E+01
       25  2    1    2    0    0 -.16204460E+03 0.19313920E+03 0.47276044E+02 0.39510218E+03 0.30051540E+03 0.0000E+00 0.0000E+00
       23  2    3    3    0    0 -.19324863E+03 0.55339449E+02 0.51648109E+02 0.22688557E+03 0.91662680E+02 0.0000E+00 0.0000E+00
      -24  1    1    2    0    0 0.16204460E+03 -.19313920E+03 0.37812667E+02 0.26731669E+03 0.80419002E+02 0.0000E+00 0.9000E+01
      -11  1    4    4    0    0 -.18691258E+03 0.26517468E+02 0.56323765E+02 0.19700725E+03 0.51099893E-03 0.0000E+00 0.9000E+01
       11  1    4    4    0    0 -.63360420E+01 0.28821981E+02 -.46756553E+01 0.29878316E+02 0.51099893E-03 0.0000E+00 0.9000E+01
       23  1    3    3    0    0 0.31204029E+02 0.13779975E+03 -.43720650E+01 0.16821661E+03 0.91188000E+02 0.0000E+00 0.9000E+01
#aMCatNLO 1  0  0  1  1 0.17992892D+03 0.00000000D+00  -5  7  0 0.00000000D+00 0.00000000D+00 0.00000000D+00 0.00000000D+00 0.00000000D+00
  <mgrwgt>
 0.1478398492D-02    3    2    0
 0.328465626573872D+03 0.000000000000000D+00 0.000000000000000D+00 0.328465626573872D+03
 0.328465626573872D+03 0.000000000000000D+00 0.000000000000000D+00 -.328465626573872D+03
 0.264652032039097D+03 0.162044598203598D+03 -.193139196021727D+03 0.350446303563871D+01
 0.191357624659168D+03 -.186912584830990D+03 0.265174681700428D+02 0.312769888072329D+02
 0.307335138335939D+02 -.633604197085990D+01 0.288219808545268D+02 -.858468778258688D+01
 0.170188082615885D+03 0.312040285982522D+02 0.137799746997158D+03 -.261967640602848D+02
 0.000000000000000D+00 -.000000000000000D+00 0.000000000000000D+00 -.000000000000000D+00
 0.366534176825614D+03 0.000000000000000D+00 0.000000000000000D+00 0.366534176825614D+03
 0.652203108457505D+03 0.000000000000000D+00 0.000000000000000D+00 -.652203108457505D+03
 0.337729962059227D+03 0.234526933669108D+03 -.229301433577626D+03 0.350446303563871D+01
 0.149353691019105D+03 -.145916087389440D+03 0.606386288925590D+01 0.312769888072329D+02
 0.267883685239002D+02 0.585347470543227D+00 0.253688232321982D+02 -.858468778258688D+01
 0.167254314567401D+03 0.718071895037102D+02 0.117542381657678D+03 -.261967640602848D+02
 0.337610949113486D+03 -.161003383253922D+03 0.803263657984934D+02 -.285668931631891D+03
0.491838457001D-04 0.000000000000D+00 0.000000000000D+00 0.242754922535D-05 0.000000000000D+00  7 -2 1 -24 -11 11 23 21 0 0.57500583D-01 0.44410012D-01 0.10597729D+06 0.10597729D+06 0.10597729D+06 0.11196589D+01  1  2  2  1  7  1       -2 0.146152516162D-02 0.100000000000D+01
-.273217021842D-05 0.000000000000D+00 -.188878917893D-06 0.242754922535D-05 0.000000000000D+00  7 -2 1 -24 -11 11 23 21 2 0.57500583D-01 0.44410012D-01 0.10597729D+06 0.10597729D+06 0.10597729D+06 0.11196589D+01  1  2  3  1  7  1       -2 -.101780138370D-03 0.100000000000D+01
0.318511528122D-05 0.000000000000D+00 0.000000000000D+00 0.242754922535D-05 0.000000000000D+00  7 -2 1 -24 -11 11 23 21 2 0.57500583D-01 0.44410012D-01 0.10597729D+06 0.10597729D+06 0.10597729D+06 0.11196589D+01  1  2 15  1  7  1       -2 0.118653468903D-03 0.100000000000D+01
  </mgrwgt>
  </event>
  <event>
  9     66 -.26562228E-05 0.18204835E+03 0.75467711E-02 0.10715378E+00
       -2 -1    0    0    0  501 0.00000000E+00 0.00000000E+00 0.29682782E+02 0.29684507E+02 0.32000000E+00 0.0000E+00 0.9000E+01
        1 -1    0    0  502    0 0.00000000E+00 0.00000000E+00 -.20742428E+04 0.20742429E+04 0.32000000E+00 0.0000E+00 0.9000E+01
       25  2    1    2    0    0 0.10854154E+03 0.32497691E+02 -.15860867E+04 0.16182188E+04 0.30020595E+03 0.0000E+00 0.0000E+00
       23  2    3    3    0    0 0.10580623E+03 0.36479570E+02 -.34843820E+03 0.37720612E+03 0.91375931E+02 0.0000E+00 0.0000E+00
      -24  1    1    2    0    0 -.11629590E+03 -.20454151E+02 -.38070133E+03 0.40662492E+03 0.80419002E+02 0.0000E+00 0.9000E+01
      -11  1    4    4    0    0 0.55112071E+02 -.14960241E+02 -.74278543E+02 0.93693389E+02 0.51099893E-03 0.0000E+00 0.9000E+01
       11  1    4    4    0    0 0.50694164E+02 0.51439811E+02 -.27415965E+03 0.28351273E+03 0.51099893E-03 0.0000E+00 0.9000E+01
       23  1    3    3    0    0 0.27353078E+01 -.39818794E+01 -.12376485E+04 0.12410127E+04 0.91188000E+02 0.0000E+00 0.9000E+01
       21  1    1    2  502  501 0.77543591E+01 -.12043540E+02 -.77771992E+02 0.79083640E+02 0.75000000E+00 0.0000E+00 0.9000E+01
#aMCatNLO 2  0  0  2  1 0.14323999D+02 0.00000000D+00  -5  7  0 0.00000000D+00 0.00000000D+00 0.00000000D+00 0.00000000D+00 0.00000000D+00
  <mgrwgt>
 -.2917993900D-03    3    2    0
 0.240588684853015D+03 0.000000000000000D+00 0.000000000000000D+00 0.240588684853015D+03
 0.240588684853015D+03 0.000000000000000D+00 0.000000000000000D+00 -.240588684853015D+03
 0.153659830493726D+03 -.113809741852497D+03 -.243154844812670D+02 0.600018951942288D+02
 0.919242146674481D+02 0.565826422133706D+02 -.172442315854766D+02 0.703640698041780D+02
 0.719664403317553D+02 0.518572064980666D+02 0.496334530227438D+02 0.514966108399995D+01
 0.163626884213102D+03 0.536989314105995D+01 -.807373695600020D+01 -.135515626082407D+03
 0.000000000000000D+00 0.000000000000000D+00 -.000000000000000D+00 -.000000000000000D+00
 0.246123887034967D+03 0.000000000000000D+00 0.000000000000000D+00 0.246123887034967D+03
 0.250144108487069D+03 0.000000000000000D+00 0.000000000000000D+00 -.250144108487069D+03
 0.154953387992374D+03 -.116295901783152D+03 -.204541511065353D+02 0.600018951942288D+02
 0.906214735669816D+02 0.551120708041855D+02 -.149602407640506D+02 0.703640698041780D+02
 0.724049129925846D+02 0.506941640479405D+02 0.514398109217382D+02 0.514966108399995D+01
 0.163410750957914D+03 0.273530779061141D+01 -.398187938206404D+01 -.135515626082407D+03
 0.148774700121820D+02 0.775435914041435D+01 -.120435396690882D+02 -.402022145210264D+01
-.208477112568D-04 0.000000000000D+00 0.000000000000D+00 0.134445081278D-05 0.000000000000D+00  7 -2 1 -24 -11 11 23 21 2 0.44638430D-02 0.32252130D+00 0.35689369D+05 0.35689369D+05 0.35689369D+05 0.11604026D+01  1  2 13  2  7  2        1 -.178183590927D-02 0.100000000000D+01
-.850097837712D-05 0.000000000000D+00 0.000000000000D+00 0.134445081278D-05 0.000000000000D+00  7 -2 1 -24 -11 11 23 21 2 0.44638430D-02 0.30691264D+00 0.33141601D+05 0.33141601D+05 0.33141601D+05 0.11633441D+01  1  2  8  2  7  2        1 -.850185059079D-03 0.100000000000D+01
0.273878644512D-04 0.000000000000D+00 0.000000000000D+00 0.134445081278D-05 0.471067913462D-07  7 -2 1 -24 -11 11 23 21 2 0.45665422D-02 0.31910224D+00 0.35689369D+05 0.35689369D+05 0.35689369D+05 0.11604026D+01  1  2  1  2  7  2        1 0.234022157833D-02 0.100000000000D+01
  </mgrwgt>
  </event>
  <event>
  9     66 0.26562228E-05 0.27004794E+03 0.75467711E-02 0.99022117E-01
       -4 -1    0    0    0  501 0.00000000E+00 0.00000000E+00 0.42515670E+03 0.42515953E+03 0.15500000E+01 0.0000E+00 0.9000E+01
        3 -1    0    0  502    0 0.00000000E+00 0.00000000E+00 -.33732309E+03 0.33732346E+03 0.50000000E+00 0.0000E+00 0.9000E+01
       25  2    1    2    0    0 0.24249957E+03 -.19520165E+02 -.32445754E+02 0.39276820E+03 0.30663831E+03 0.0000E+00 0.0000E+00
       23  2    3    3    0    0 0.95800014E+02 0.67626404E+02 0.80973451E+02 0.16850395E+03 0.89921685E+02 0.0000E+00 0.0000E+00
      -24  1    1    2    0    0 -.15856120E+03 0.12296876E+03 0.68179328E+02 0.22666850E+03 0.80419002E+02 0.0000E+00 0.9000E+01
      -11  1    4    4    0    0 0.10134007E+03 0.83275247E+02 0.71382656E+02 0.14933205E+03 0.51099893E-03 0.0000E+00 0.9000E+01
       11  1    4    4    0    0 -.55400603E+01 -.15648843E+02 0.95907945E+01 0.19171904E+02 0.51099893E-03 0.0000E+00 0.9000E+01
       23  1    3    3    0    0 0.14669956E+03 -.87146569E+02 -.11341920E+03 0.22426425E+03 0.91188000E+02 0.0000E+00 0.9000E+01
       21  1    1    2  502  501 -.83938369E+02 -.10344860E+03 0.52100041E+02 0.14304628E+03 0.75000000E+00 0.0000E+00 0.9000E+01
#aMCatNLO 2  0  0  2  1 0.13321885D+03 0.00000000D+00  -5  7  0 0.00000000D+00 0.00000000D+00 0.00000000D+00 0.00000000D+00 0.00000000D+00
  <mgrwgt>
 0.2079508988D-04    1    2    0
 0.301942739985169D+03 0.000000000000000D+00 0.000000000000000D+00 0.301942739985169D+03
 0.301942739985169D+03 0.000000000000000D+00 0.000000000000000D+00 -.301942739985169D+03
 0.229445686567181D+03 -.189639352514201D+03 0.846669596319433D+02 0.551953716772724D+02
 0.120602280465374D+03 0.830690251594252D+02 0.607573621683676D+02 0.628728085491123D+02
 0.225488811457273D+02 -.836929020728736D+01 -.191356855928461D+02 0.849897401114307D+01
 0.231288631792055D+03 0.114939617562063D+03 -.126288636207465D+03 -.126567154237528D+03
 0.000000000000000D+00 -.000000000000000D+00 -.000000000000000D+00 0.000000000000000D+00
 0.401299306395305D+03 0.000000000000000D+00 0.000000000000000D+00 0.401299306395305D+03
 0.357378182626797D+03 0.000000000000000D+00 0.000000000000000D+00 -.357378182626797D+03
 0.223106963525399D+03 -.158561202713316D+03 0.122968764971709D+03 0.551953716772724D+02
 0.145456410838202D+03 0.101340074643874D+03 0.832752464436619D+02 0.628728085491123D+02
 0.186496947824422D+02 -.554006025135442D+01 -.156488430450154D+02 0.849897401114307D+01
 0.231192085700631D+03 0.146699557571955D+03 -.871465686244415D+02 -.126567154237528D+03
 0.140272334175428D+03 -.839383692511586D+02 -.103448599745914D+03 0.439211237685088D+02
0.675806166324D-05 0.000000000000D+00 0.000000000000D+00 0.122423436731D-07 0.484400586964D-11  7 -4 3 -24 -11 11 23 21 2 0.65408793D-01 0.51895965D-01 0.11924142D+06 0.11924142D+06 0.11924142D+06 0.11155038D+01  1  2  1  2  7  2        3 0.207950898783D-04 0.100000000000D+01
  </mgrwgt>
  </event>
  <event>
  8     66 0.26562228E-05 0.33119440E+03 0.75467711E-02 0.99519115E-01
       -2 -1    0    0    0  501 0.00000000E+00 0.00000000E+00 0.82599541E+02 0.82600161E+02 0.32000000E+00 0.0000E+00 0.9000E+01
        1 -1    0    0  501    0 0.00000000E+00 0.00000000E+00 -.15565102E+04 0.15565102E+04 0.32000000E+00 0.0000E+00 0.9000E+01
       25  2    1    2    0    0 0.16558061E+03 -.20871340E+03 -.11140702E+04 0.11842142E+04 0.30038724E+03 0.0000E+00 0.0000E+00
       23  2    3    3    0    0 0.18494600E+03 -.20935491E+03 -.96174600E+03 0.10056271E+04 0.91081992E+02 0.0000E+00 0.0000E+00
      -24  1    1    2    0    0 -.16558061E+03 0.20871340E+03 -.35984042E+03 0.45489622E+03 0.80419002E+02 0.0000E+00 0.9000E+01
      -11  1    4    4    0    0 -.73869509E+01 -.12307863E+01 -.94353001E+01 0.12046027E+02 0.51099893E-03 0.0000E+00 0.9000E+01
       11  1    4    4    0    0 0.19233295E+03 -.20812412E+03 -.95231070E+03 0.99358104E+03 0.51099893E-03 0.0000E+00 0.9000E+01
       23  1    3    3    0    0 -.19365391E+02 0.64150458E+00 -.15232423E+03 0.17858710E+03 0.91188000E+02 0.0000E+00 0.9000E+01
#aMCatNLO 1  0  0  1  1 0.13137628D+01 0.00000000D+00  -5  7  0 0.00000000D+00 0.00000000D+00 0.00000000D+00 0.00000000D+00 0.00000000D+00
  <mgrwgt>
 0.1318111128D-02    6    2    0
 0.358563191368767D+03 0.000000000000000D+00 0.000000000000000D+00 0.358563191368767D+03
 0.358563191368767D+03 0.000000000000000D+00 0.000000000000000D+00 -.358563191368767D+03
 0.300159763395613D+03 -.165580612862093D+03 0.208713404272881D+03 0.112474188720696D+03
 0.814079472691224D+01 -.738695091026414D+01 -.123078633130590D+01 0.319228132246210D+01
 0.313707771411633D+03 0.192332954486438D+03 -.208124122524891D+03 -.134554636062141D+03
 0.951180532033751D+02 -.193653907140809D+02 0.641504583316404D+00 0.188881660189829D+02
 0.000000000000000D+00 -.000000000000000D+00 -.000000000000000D+00 -.000000000000000D+00
 0.358724200661538D+03 0.000000000000000D+00 0.000000000000000D+00 0.358724200661538D+03
 0.361253772755645D+03 0.000000000000000D+00 0.000000000000000D+00 -.361253772755645D+03
 0.299918305146816D+03 -.165037281968733D+03 0.208796614531371D+03 0.112474188720696D+03
 0.812709025226103D+01 -.737222141931596D+01 -.122853053329366D+01 0.319228132246210D+01
 0.313998868187423D+03 0.192901301218537D+03 -.208037081130654D+03 -.134554636062141D+03
 0.950833225450881D+02 -.191931759826634D+02 0.667878994365418D+00 0.188881660189829D+02
 0.285038728559536D+01 -.129862184782481D+01 -.198881861788734D+00 -.252957209410746D+01
0.401091946255D-04 0.000000000000D+00 0.000000000000D+00 0.512409640139D-05 0.000000000000D+00  7 -2 1 -24 -11 11 23 21 0 0.12707672D-01 0.23946316D+00 0.10968973D+06 0.10968973D+06 0.10968973D+06 0.11184408D+01  1  2  2  1  7  1       -2 0.115217303413D-02 0.100000000000D+01
-.221120861076D-05 0.000000000000D+00 -.154029868355D-06 0.512409640139D-05 0.000000000000D+00  7 -2 1 -24 -11 11 23 21 2 0.12707672D-01 0.23946316D+00 0.10968973D+06 0.10968973D+06 0.10968973D+06 0.11184408D+01  1  2  3  1  7  1       -2 -.794565084924D-04 0.100000000000D+01
0.256318236677D-05 0.000000000000D+00 0.000000000000D+00 0.512409640139D-05 0.000000000000D+00  7 -2 1 -24 -11 11 23 21 2 0.12707672D-01 0.23946316D+00 0.10968973D+06 0.10968973D+06 0.10968973D+06 0.11184408D+01  1  2 15  1  7  1       -2 0.921041644385D-04 0.100000000000D+01
-.699186578013D-04 0.000000000000D+00 0.000000000000D+00 0.512409640139D-05 0.000000000000D+00  7 -2 1 -24 -11 11 23 21 2 0.12707672D-01 0.23946316D+00 0.10968973D+06 0.10968973D+06 0.10968973D+06 0.11184408D+01  1  2  4  1  7  1       -2 -.251242347752D-02 0.100000000000D+01
0.699203796961D-04 0.000000000000D+00 0.000000000000D+00 0.512409640139D-05 0.198020048503D-04  7 -2 1 -24 -11 11 23 21 2 0.12713378D-01 0.24126004D+00 0.11012906D+06 0.11012906D+06 0.11012906D+06 0.11182996D+01  1  2 11  1  7  1       -2 0.246570182963D-02 0.100000000000D+01
0.406882158698D-06 0.000000000000D+00 0.000000000000D+00 0.512409640139D-05 0.167117128088D-08  7 21 1 -24 -11 11 23 2 2 0.12713378D-01 0.24126004D+00 0.11012906D+06 0.11012906D+06 0.11012906D+06 0.11182996D+01  1  2 11  3  7  1       -2 0.200012085421D-03 0.100000000000D+01
  </mgrwgt>
  </event>
  <event>
  8     66 0.26562228E-05 0.14237261E+03 0.75467711E-02 0.10394315E+00
       -2 -1    0    0    0  501 0.00000000E+00 0.00000000E+00 0.23174807E+02 0.23177016E+02 0.32000000E+00 0.0000E+00 0.9000E+01
        1 -1    0    0  501    0 0.00000000E+00 0.00000000E+00 -.22569095E+04 0.22569095E+04 0.32000000E+00 0.0000E+00 0.9000E+01
       25  2    1    2    0    0 0.41731324E+02 0.91860228E+02 -.18042415E+04 0.18316320E+04 0.29901304E+03 0.0000E+00 0.0000E+00
       23  2    3    3    0    0 -.22965772E+02 0.10752556E+03 -.15058985E+04 0.15126416E+04 0.90912811E+02 0.0000E+00 0.0000E+00
      -24  1    1    2    0    0 -.41731324E+02 -.91860228E+02 -.42949324E+03 0.44845453E+03 0.80419002E+02 0.0000E+00 0.9000E+01
      -13  1    4    4    0    0 0.32152219E+02 0.66539525E+02 -.80597177E+03 0.80935269E+03 0.10565837E+00 0.0000E+00 0.9000E+01
       13  1    4    4    0    0 -.55117990E+02 0.40986035E+02 -.69992669E+03 0.70328886E+03 0.10565837E+00 0.0000E+00 0.9000E+01
       23  1    3    3    0    0 0.64697096E+02 -.15665332E+02 -.29834303E+03 0.31899048E+03 0.91188000E+02 0.0000E+00 0.9000E+01
#aMCatNLO 1  0  0  2  1 0.85685641D+02 0.00000000D+00  -5  7  0 0.00000000D+00 0.00000000D+00 0.00000000D+00 0.00000000D+00 0.00000000D+00
  <mgrwgt>
 0.2153216175D-02    8    2    0
 0.228705021260343D+03 0.000000000000000D+00 0.000000000000000D+00 0.228705021260343D+03
 0.228705021260343D+03 0.000000000000000D+00 0.000000000000000D+00 -.228705021260343D+03
 0.138040662971298D+03 -.417313265473121D+02 -.918602325683906D+02 0.490734422704156D+02
 0.985266489143533D+02 0.321523365113578D+02 0.665395598970345D+02 -.651629862104371D+02
 0.876870575453543D+02 -.551181057995152D+02 0.409860007019912D+02 -.545083683528694D+02
 0.133155673089681D+03 0.646970958354695D+02 -.156653280306351D+02 0.705979122928909D+02
 0.000000000000000D+00 0.000000000000000D+00 0.000000000000000D+00 -.000000000000000D+00
 0.241459482672488D+03 0.000000000000000D+00 0.000000000000000D+00 0.241459482672488D+03
 0.441828441468899D+03 0.000000000000000D+00 0.000000000000000D+00 -.441828441468899D+03
 0.159251155666181D+03 -.506292945191898D+02 -.117992315117828D+03 0.490734422704156D+02
 0.864996430627802D+02 0.266144847550825D+02 0.502756668712435D+02 -.651629862104371D+02
 0.852723686045055D+02 -.602947952939290D+02 0.257827905276709D+02 -.545083683528694D+02
 0.134343329100818D+03 0.566908292489586D+02 -.391786088170747D+02 0.705979122928909D+02
 0.217921427707102D+03 0.276187758090777D+02 0.811124665359886D+02 -.200368958796411D+03
0.106817177765D-04 0.000000000000D+00 0.000000000000D+00 0.257208891458D-06 0.000000000000D+00  7 -2 1 -24 -13 13 23 21 0 0.35655266D-02 0.34721702D+00 0.36962048D+05 0.36962048D+05 0.36962048D+05 0.11590189D+01  1  2  2  2  7  2        1 0.740763696501D-03 0.100000000000D+01
-.571681859062D-06 0.000000000000D+00 -.410206088227D-07 0.257208891458D-06 0.000000000000D+00  7 -2 1 -24 -13 13 23 21 2 0.35655266D-02 0.34721702D+00 0.36962048D+05 0.36962048D+05 0.36962048D+05 0.11590189D+01  1  2  3  2  7  2        1 -.532566760879D-04 0.100000000000D+01
0.695013131247D-06 0.000000000000D+00 0.000000000000D+00 0.257208891458D-06 0.000000000000D+00  7 -2 1 -24 -13 13 23 21 2 0.35655266D-02 0.34721702D+00 0.36962048D+05 0.36962048D+05 0.36962048D+05 0.11590189D+01  1  2 15  2  7  2        1 0.647459572504D-04 0.100000000000D+01
0.128136766837D-04 0.000000000000D+00 0.000000000000D+00 0.257208891458D-06 0.000000000000D+00  7 -2 1 -24 -13 13 23 21 2 0.35655266D-02 0.67193805D+00 0.56156439D+05 0.56156439D+05 0.56156439D+05 0.11428859D+01  1  2 12  2  7  2        1 0.240909562648D-04 0.100000000000D+01
-.164469458373D-04 0.000000000000D+00 -.250580655179D-05 0.257208891458D-06 0.000000000000D+00  7 -2 1 -24 -13 13 23 21 2 0.35655266D-02 0.67525880D+00 0.36962048D+05 0.36962048D+05 0.36962048D+05 0.11590189D+01  1  2  5  2  7  2        1 -.310198082040D-04 0.100000000000D+01
0.151131291473D-04 0.000000000000D+00 0.203809203235D-05 0.257208891458D-06 0.000000000000D+00  7 -2 1 -24 -13 13 23 21 2 0.35655266D-02 0.34721702D+00 0.36962048D+05 0.36962048D+05 0.36962048D+05 0.11590189D+01  1  2  6  2  7  2        1 0.140790723181D-02 0.100000000000D+01
0.917401207925D-06 0.000000000000D+00 0.000000000000D+00 0.257208891458D-06 0.000000000000D+00  7 -2 21 -24 -13 13 23 -1 2 0.35655266D-02 0.67193805D+00 0.56156439D+05 0.56156439D+05 0.56156439D+05 0.11428859D+01  1  2 12  4  7  2        1 0.110773150400D-06 0.100000000000D+01
-.103914672172D-05 0.000000000000D+00 -.180664692055D-06 0.257208891458D-06 0.000000000000D+00  7 -2 21 -24 -13 13 23 -1 2 0.35655266D-02 0.67525880D+00 0.36962048D+05 0.36962048D+05 0.36962048D+05 0.11590189D+01  1  2  5  4  7  2        1 -.125955652553D-06 0.100000000000D+01
  </mgrwgt>
  </event>
  <event>
  8     66 0.26562228E-05 0.23065545E+03 0.75467711E-02 0.96962157E-01
       -2 -1    0    0    0  501 0.00000000E+00 0.00000000E+00 0.63074004E+02 0.63074815E+02 0.32000000E+00 0.0000E+00 0.9000E+01
        1 -1    0    0  501    0 0.00000000E+00 0.00000000E+00 -.16590282E+04 0.16590282E+04 0.32000000E+00 0.0000E+00 0.9000E+01
       25  2    1    2    0    0 -.13767260E+03 -.22055033E+02 -.14968985E+04 0.15331072E+04 0.30045378E+03 0.0000E+00 0.0000E+00
       23  2    3    3    0    0 0.51701661E+02 -.39283102E+02 -.37518860E+03 0.39174498E+03 0.92094634E+02 0.0000E+00 0.0000E+00
      -24  1    1    2    0    0 0.13767260E+03 0.22055033E+02 -.99055679E+02 0.18899580E+03 0.80419002E+02 0.0000E+00 0.9000E+01
      -13  1    4    4    0    0 -.13762851E+02 -.12959538E+02 -.13478999E+02 0.23217672E+02 0.10565837E+00 0.0000E+00 0.9000E+01
       13  1    4    4    0    0 0.65464512E+02 -.26323565E+02 -.36170960E+03 0.36852731E+03 0.10565837E+00 0.0000E+00 0.9000E+01
       23  1    3    3    0    0 -.18937426E+03 0.17228069E+02 -.11217099E+04 0.11413622E+04 0.91188000E+02 0.0000E+00 0.9000E+01
#aMCatNLO 1  0  0  2  1 0.28509933D+03 0.00000000D+00  -5  7  0 0.00000000D+00 0.00000000D+00 0.00000000D+00 0.00000000D+00 0.00000000D+00
  <mgrwgt>
 0.1167251318D-02    3    2    0
 0.323484580532400D+03 0.000000000000000D+00 0.000000000000000D+00 0.323484580532400D+03
 0.323484580532400D+03 0.000000000000000D+00 0.000000000000000D+00 -.323484580532400D+03
 0.258716998030986D+03 0.137672603764756D+03 0.220550332111903D+02 0.202551471973127D+03
 0.285505189984691D+02 -.137629548581652D+02 -.129595200338125D+02 0.213954212192064D+02
 0.886751696691025D+02 0.654646157830586D+02 -.263235823615609D+02 -.537097645486810D+02
 0.271026474366243D+03 -.189374264689650D+03 0.172280691841831D+02 -.170237128643652D+03
 0.000000000000000D+00 -.000000000000000D+00 0.000000000000000D+00 0.000000000000000D+00
 0.755289794690048D+03 0.000000000000000D+00 0.000000000000000D+00 0.755289794690048D+03
 0.404075408796741D+03 0.000000000000000D+00 0.000000000000000D+00 -.404075408796741D+03
 0.338460497418836D+03 0.258676707309489D+03 -.121472077316494D+02 0.202551471973127D+03
 0.269167985422968D+02 -.252379550237631D+01 -.161363084651201D+02 0.213954212192064D+02
 0.127819073758155D+03 0.109332129291380D+03 -.387228913322704D+02 -.537097645486810D+02
 0.213804849842985D+03 -.911344947663824D+02 -.105397517628361D+02 -.170237128643652D+03
 0.452363983924517D+03 -.274350546332110D+03 0.775461592918762D+02 0.351214385893306D+03
0.301754280738D-04 0.000000000000D+00 0.000000000000D+00 0.225141079801D-05 0.000000000000D+00  7 -2 1 -24 -13 13 23 21 0 0.97037577D-02 0.25523517D+00 0.53201937D+05 0.53201937D+05 0.53201937D+05 0.11449317D+01  1  2  2  2  7  2        1 0.114560353587D-02 0.100000000000D+01
-.144324009876D-05 0.000000000000D+00 -.115881589176D-06 0.225141079801D-05 0.000000000000D+00  7 -2 1 -24 -13 13 23 21 2 0.97037577D-02 0.25523517D+00 0.53201937D+05 0.53201937D+05 0.53201937D+05 0.11449317D+01  1  2  3  2  7  2        1 -.718255050403D-04 0.100000000000D+01
0.187822411568D-05 0.000000000000D+00 0.000000000000D+00 0.225141079801D-05 0.000000000000D+00  7 -2 1 -24 -13 13 23 21 2 0.97037577D-02 0.25523517D+00 0.53201937D+05 0.53201937D+05 0.53201937D+05 0.11449317D+01  1  2 15  2  7  2        1 0.934732868102D-04 0.100000000000D+01
  </mgrwgt>
  </event>
  <event>
  9     66 0.26562228E-05 0.26409262E+03 0.75467711E-02 0.10185237E+00
       -2 -1    0    0    0  501 0.00000000E+00 0.00000000E+00 0.48301404E+03 0.48301415E+03 0.32000000E+00 0.0000E+00 0.9000E+01
        1 -1    0    0  502    0 0.00000000E+00 0.00000000E+00 -.27674189E+03 0.27674207E+03 0.32000000E+00 0.0000E+00 0.9000E+01
       25  2    1    2    0    0 -.52842459E+02 -.20616957E+03 0.24332991E+03 0.44107640E+03 0.30006788E+03 0.0000E+00 0.0000E+00
       23  2    3    3    0    0 -.65205124E+02 -.14947946E+02 0.19416819E+03 0.22324466E+03 0.87531367E+02 0.0000E+00 0.0000E+00
      -24  1    1    2    0    0 0.37674803E+02 0.18575507E+03 -.11559612E+03 0.23612289E+03 0.80419002E+02 0.0000E+00 0.9000E+01
      -13  1    4    4    0    0 0.14742793E+02 -.25514368E+02 0.55178810E+02 0.62554338E+02 0.10565837E+00 0.0000E+00 0.9000E+01
       13  1    4    4    0    0 -.79947918E+02 0.10566422E+02 0.13898938E+03 0.16069032E+03 0.10565837E+00 0.0000E+00 0.9000E+01
       23  1    3    3    0    0 0.12362665E+02 -.19122162E+03 0.49161716E+02 0.21783175E+03 0.91188000E+02 0.0000E+00 0.9000E+01
       21  1    1    2  502  501 0.15167656E+02 0.20414491E+02 0.78538367E+02 0.82556931E+02 0.75000000E+00 0.0000E+00 0.9000E+01
#aMCatNLO 2  0  0  2  1 0.25432445D+02 0.00000000D+00  -5  7  0 0.00000000D+00 0.00000000D+00 0.00000000D+00 0.00000000D+00 0.00000000D+00
  <mgrwgt>
 0.1073973659D-03    1    2    0
 0.332278552395855D+03 0.000000000000000D+00 0.000000000000000D+00 0.332278552395855D+03
 0.332278552395855D+03 0.000000000000000D+00 0.000000000000000D+00 -.332278552395855D+03
 0.269399444446054D+03 0.437441504477034D+02 0.193923946725602D+03 -.163060715383708D+03
 0.526910700272443D+02 0.159497555739206D+02 -.238901275497205D+02 0.441725702603577D+02
 0.135532212307469D+03 -.768398705680281D+02 0.147498505938152D+02 0.110666421156129D+03
 0.206934378010943D+03 0.171459645464040D+02 -.184783669769696D+03 0.822172396722110D+01
 0.000000000000000D+00 0.000000000000000D+00 0.000000000000000D+00 0.000000000000000D+00
 0.399068628758751D+03 0.000000000000000D+00 0.000000000000000D+00 0.399068628758751D+03
 0.334951688858397D+03 0.000000000000000D+00 0.000000000000000D+00 -.334951688858397D+03
 0.262641107961978D+03 0.376748034620610D+02 0.185755075084837D+03 -.163060715383708D+03
 0.530994878482548D+02 0.147429310177002D+02 -.255144200668575D+02 0.441725702603577D+02
 0.136932095298410D+03 -.799480554922379D+02 0.105664740721414D+02 0.110666421156129D+03
 0.212370882474670D+03 0.123626654026188D+02 -.191221620477967D+03 0.822172396722110D+01
 0.689767440338358D+02 0.151676556098579D+02 0.204144913878458D+02 0.641169399003541D+02
0.455631041969D-05 0.000000000000D+00 0.000000000000D+00 0.588202168169D-06 0.628904838799D-08  7 -2 1 -24 -13 13 23 21 2 0.74309426D-01 0.42575440D-01 0.76631283D+05 0.76631283D+05 0.76631283D+05 0.11313331D+01  1  2  1  2  7  2        1 0.107397365855D-03 0.100000000000D+01
  </mgrwgt>
  </event>
  <event>
  9     66 0.26562228E-05 0.24403590E+03 0.75467711E-02 0.99081995E-01
       -2 -1    0    0    0  501 0.00000000E+00 0.00000000E+00 0.21957074E+04 0.21957074E+04 0.32000000E+00 0.0000E+00 0.9000E+01
       21 -1    0    0  501  502 0.00000000E+00 0.00000000E+00 -.84931474E+02 0.84934786E+02 0.75000000E+00 0.0000E+00 0.9000E+01
       25  2    1    2    0    0 0.61136513E+02 0.25963984E+02 0.15934528E+04 0.16228452E+04 0.30020512E+03 0.0000E+00 0.0000E+00
       23  2    3    3    0    0 0.70807961E+02 0.12479882E+03 0.77077221E+03 0.78919038E+03 0.90239345E+02 0.0000E+00 0.0000E+00
      -24  1    1    2    0    0 -.13082893E+03 -.16859432E+03 0.20148623E+03 0.30430934E+03 0.80419002E+02 0.0000E+00 0.9000E+01
      -13  1    4    4    0    0 0.89860882E+01 0.97833621E+02 0.53566232E+03 0.54459738E+03 0.10565837E+00 0.0000E+00 0.9000E+01
       13  1    4    4    0    0 0.61821873E+02 0.26965197E+02 0.23510989E+03 0.24459300E+03 0.10565837E+00 0.0000E+00 0.9000E+01
       23  1    3    3    0    0 -.96714476E+01 -.98834835E+02 0.82268054E+03 0.83365484E+03 0.91188000E+02 0.0000E+00 0.9000E+01
       -1  1    1    2    0  502 0.69692418E+02 0.14263034E+03 0.31583691E+03 0.35348763E+03 0.32000000E+00 0.0000E+00 0.9000E+01
#aMCatNLO 2  0  0  2  1 0.15874649D+03 0.00000000D+00  -5  7  0 0.00000000D+00 0.00000000D+00 0.00000000D+00 0.00000000D+00 0.00000000D+00
  <mgrwgt>
 0.7760428933D-04    2    2    0
 0.341657086441596D+03 0.000000000000000D+00 0.000000000000000D+00 0.341657086441596D+03
 0.341657086441596D+03 0.000000000000000D+00 0.000000000000000D+00 -.341657086441596D+03
 0.280443737414355D+03 -.100588769605151D+03 -.106705745861964D+03 -.225116097003135D+03
 0.150183469497857D+03 0.228601728911491D+02 0.126228136879930D+03 0.780957391003004D+02
 0.841708308328657D+02 0.695989841215720D+02 0.428813469984849D+02 0.200474500108020D+02
 0.168516135138115D+03 0.812961259243004D+01 -.624037380164509D+02 0.126972907892032D+03
 0.000000000000000D+00 0.000000000000000D+00 0.000000000000000D+00 -.000000000000000D+00
 0.413830298526492D+03 0.000000000000000D+00 0.000000000000000D+00 0.413830298526492D+03
 0.450639625184525D+03 0.000000000000000D+00 0.000000000000000D+00 -.450639625184525D+03
 0.320444578891739D+03 -.130828931890073D+03 -.168594322672240D+03 -.225116097003135D+03
 0.125503503440647D+03 0.898601595504993D+01 0.978337182545464D+02 0.780957391003004D+02
 0.703631277931363D+02 0.618219449271518D+02 0.269651001541221D+02 0.200474500108020D+02
 0.185200518662167D+03 -.967144747736025D+01 -.988348346175058D+02 0.126972907892032D+03
 0.162958194923328D+03 0.696924184852312D+02 0.142630338881077D+03 -.368093266580332D+02
-.185550659277D-05 0.000000000000D+00 0.000000000000D+00 0.334463982445D-05 0.000000000000D+00  7 -2 21 -24 -13 13 23 -1 2 0.27888774D+00 0.13837109D-01 0.11809972D+06 0.11809972D+06 0.11809972D+06 0.11158410D+01  1  2 13  4  7  2        1 -.437621579093D-04 0.100000000000D+01
0.110901411874D-04 0.000000000000D+00 0.000000000000D+00 0.334463982445D-05 0.443762032699D-10  7 -2 21 -24 -13 13 23 -1 2 0.33780127D+00 0.13066632D-01 0.11809972D+06 0.11809972D+06 0.11809972D+06 0.11158410D+01  1  2  1  4  7  2        1 0.121366447244D-03 0.100000000000D+01
  </mgrwgt>
  </event>
  <event>
  8     66 0.26562228E-05 0.29801295E+03 0.75467711E-02 0.92678910E-01
       -4 -1    0    0    0  501 0.00000000E+00 0.00000000E+00 0.43294279E+03 0.43294556E+03 0.15500000E+01 0.0000E+00 0.9000E+01
        3 -1    0    0  501    0 0.00000000E+00 0.00000000E+00 -.23410697E+03 0.23410751E+03 0.50000000E+00 0.0000E+00 0.9000E+01
       25  2    1    2    0    0 0.99130084E+02 0.21606654E+03 0.14813734E+03 0.41102753E+03 0.30081130E+03 0.0000E+00 0.0000E+00
       23  2    3    3    0    0 0.90396931E+02 -.61874560E+01 0.10627268E+03 0.16701727E+03 0.91602382E+02 0.0000E+00 0.0000E+00
      -24  1    1    2    0    0 -.99130084E+02 -.21606654E+03 0.50698473E+02 0.25602554E+03 0.80419002E+02 0.0000E+00 0.9000E+01
      -13  1    4    4    0    0 0.46380651E+02 0.23093734E+02 0.10147088E+03 0.11393347E+03 0.10565837E+00 0.0000E+00 0.9000E+01
       13  1    4    4    0    0 0.44016280E+02 -.29281190E+02 0.48017975E+01 0.53083796E+02 0.10565837E+00 0.0000E+00 0.9000E+01
       23  1    3    3    0    0 0.87331533E+01 0.22225400E+03 0.41864659E+02 0.24401026E+03 0.91188000E+02 0.0000E+00 0.9000E+01
#aMCatNLO 1  0  0  1  2 0.46419345D+03 0.00000000D+00  -5  7  0 0.00000000D+00 0.00000000D+00 0.00000000D+00 0.00000000D+00 0.00000000D+00
  <mgrwgt>
 0.1770230839D-03    3    2    0
 0.318364616981486D+03 0.000000000000000D+00 0.000000000000000D+00 0.318364616981486D+03
 0.318364616981486D+03 0.000000000000000D+00 0.000000000000000D+00 -.318364616981486D+03
 0.252386634380938D+03 -.991300843881897D+02 -.216066542791016D+03 -.268378969983678D+02
 0.876725199340041D+02 0.463806536929405D+02 0.230938039581657D+02 0.707246911151662D+02
 0.541123434898591D+02 0.440162765368052D+02 -.292812589723502D+02 -.115464709237999D+02
 0.242557736158171D+03 0.873315415844402D+01 0.222253997805201D+03 -.323403231929985D+02
 0.000000000000000D+00 0.000000000000000D+00 0.000000000000000D+00 -.000000000000000D+00
 0.435890528715822D+03 0.000000000000000D+00 0.000000000000000D+00 0.435890528715822D+03
 0.167949871813944D+04 0.000000000000000D+00 0.000000000000000D+00 -.167949871813944D+04
 0.475139423716130D+03 -.265847178138059D+03 -.384571529335781D+03 -.268378969983678D+02
 0.727478263034035D+02 0.961933964048896D+01 -.140617425454816D+02 0.707246911151662D+02
 0.595713960465766D+02 0.179649448337104D+02 -.556119680758168D+02 -.115464709237999D+02
 0.180513227017859D+03 -.882161724610779D+02 0.124264975743332D+03 -.323403231929985D+02
 0.132741737377129D+04 0.326479066124938D+03 0.329980264213747D+03 -.124360818942362D+04
0.362057918135D-04 0.000000000000D+00 0.000000000000D+00 0.842188670022D-06 0.000000000000D+00  7 -4 3 -24 -13 13 23 21 0 0.66606837D-01 0.36016712D-01 0.88811719D+05 0.88811719D+05 0.88811719D+05 0.11259753D+01  1  2  2  1  7  1       -4 0.174902803994D-03 0.100000000000D+01
-.200076030665D-05 0.000000000000D+00 -.139039773768D-06 0.842188670022D-06 0.000000000000D+00  7 -4 3 -24 -13 13 23 21 2 0.66606837D-01 0.36016712D-01 0.88811719D+05 0.88811719D+05 0.88811719D+05 0.11259753D+01  1  2  3  1  7  1       -4 -.122538213161D-04 0.100000000000D+01
0.234695206216D-05 0.000000000000D+00 0.000000000000D+00 0.842188670022D-06 0.000000000000D+00  7 -4 3 -24 -13 13 23 21 2 0.66606837D-01 0.36016712D-01 0.88811719D+05 0.88811719D+05 0.88811719D+05 0.11259753D+01  1  2 15  1  7  1       -4 0.143741012412D-04 0.100000000000D+01
  </mgrwgt>
  </event>
  <event>
  8     66 0.26562228E-05 0.31076138E+03 0.75467711E-02 0.91573393E-01
       -2 -1    0    0    0  501 0.00000000E+00 0.00000000E+00 0.33323498E+03 0.33323514E+03 0.32000000E+00 0.0000E+00 0.9000E+01
        1 -1    0    0  501    0 0.00000000E+00 0.00000000E+00 -.99321390E+03 0.99321395E+03 0.32000000E+00 0.0000E+00 0.9000E+01
       25  2    1    2    0    0 -.21743733E+03 0.83115313E+02 0.19938804E+03 0.43248827E+03 0.30512844E+03 0.0000E+00 0.0000E+00
       23  2    3    3    0    0 -.22488669E+03 -.21308582E+02 0.10906106E+03 0.26685598E+03 0.91047889E+02 0.0000E+00 0.0000E+00
      -24  1    1    2    0    0 0.21743733E+03 -.83115313E+02 -.85936697E+03 0.89396082E+03 0.80419002E+02 0.0000E+00 0.9000E+01
      -11  1    4    4    0    0 -.68919015E+02 0.25628053E+02 0.64958990E+02 0.98113700E+02 0.51099893E-03 0.0000E+00 0.9000E+01
       11  1    4    4    0    0 -.15596767E+03 -.46936635E+02 0.44102073E+02 0.16874228E+03 0.51099893E-03 0.0000E+00 0.9000E+01
       23  1    3    3    0    0 0.74493618E+01 0.10442390E+03 0.90326982E+02 0.16563230E+03 0.91188000E+02 0.0000E+00 0.9000E+01
#aMCatNLO 1  0  0  1  2 0.52240172D+03 0.00000000D+00  -5  7  0 0.00000000D+00 0.00000000D+00 0.00000000D+00 0.00000000D+00 0.00000000D+00
  <mgrwgt>
 0.1389696516D-02    5    2    0
 0.575303183510488D+03 0.000000000000000D+00 0.000000000000000D+00 0.575303183510488D+03
 0.575303183510488D+03 0.000000000000000D+00 0.000000000000000D+00 -.575303183510488D+03
 0.537655142444145D+03 0.217437326580153D+03 -.831153128018718D+02 -.477931679249018D+03
 0.150368011825747D+03 -.689190153650846D+02 0.256280529365128D+02 0.131163680964734D+03
 0.219827113552589D+03 -.155967672971290D+03 -.469366352375108D+02 0.147631287718304D+03
 0.242756099198494D+03 0.744936175622152D+01 0.104423895102870D+03 0.199136710565980D+03
 0.000000000000000D+00 -.000000000000000D+00 0.000000000000000D+00 0.000000000000000D+00
 0.120379997588364D+04 0.000000000000000D+00 0.000000000000000D+00 0.120379997588364D+04
 0.751103202088183D+03 0.000000000000000D+00 0.000000000000000D+00 -.751103202088183D+03
 0.644546542325361D+03 0.261205206248950D+03 -.335150980108764D+03 -.477931679249018D+03
 0.148322655173064D+03 -.578607861815037D+02 -.380503384456343D+02 0.131163680964734D+03
 0.250303720094093D+03 -.138562326641022D+03 -.147164658853286D+03 0.147631287718304D+03
 0.220472037753689D+03 0.245991540619879D+02 0.566746959935291D+01 0.199136710565980D+03
 0.691258222625612D+03 -.893812474884121D+02 0.514698507808332D+03 0.452696773795453D+03
0.202934061019D-03 0.000000000000D+00 0.000000000000D+00 0.309110663914D-06 0.000000000000D+00  7 -2 1 -24 -11 11 23 21 0 0.51266936D-01 0.15280215D+00 0.96572633D+05 0.96572633D+05 0.96572633D+05 0.11229671D+01  1  2  2  1  7  1       -2 0.128455799324D-02 0.100000000000D+01
-.607481737268D-05 0.000000000000D+00 -.779320228080D-06 0.309110663914D-06 0.000000000000D+00  7 -2 1 -24 -11 11 23 21 2 0.51266936D-01 0.15280215D+00 0.96572633D+05 0.96572633D+05 0.96572633D+05 0.11229671D+01  1  2  3  1  7  1       -2 -.484915464426D-04 0.100000000000D+01
0.126234419201D-04 0.000000000000D+00 0.000000000000D+00 0.309110663914D-06 0.000000000000D+00  7 -2 1 -24 -11 11 23 21 2 0.51266936D-01 0.15280215D+00 0.96572633D+05 0.96572633D+05 0.96572633D+05 0.11229671D+01  1  2 15  1  7  1       -2 0.100765205369D-03 0.100000000000D+01
0.107093158359D-04 0.000000000000D+00 -.600106162871D-04 0.309110663914D-06 0.000000000000D+00  7 -2 1 -24 -11 11 23 21 2 0.13021206D+00 0.15280215D+00 0.96572633D+05 0.96572633D+05 0.96572633D+05 0.11229671D+01  1  2  5  1  7  1       -2 0.104280373171D-04 0.100000000000D+01
0.477651251199D-05 0.000000000000D+00 -.617317017979D-05 0.309110663914D-06 0.000000000000D+00  7 21 1 -24 -11 11 23 2 2 0.13021206D+00 0.15280215D+00 0.96572633D+05 0.96572633D+05 0.96572633D+05 0.11229671D+01  1  2  5  3  7  1       -2 0.424368267905D-04 0.100000000000D+01
  </mgrwgt>
  </event>
  <event>
  8     66 0.26562228E-05 0.43051481E+03 0.75467711E-02 0.94699194E-01
       -2 -1    0    0    0  501 0.00000000E+00 0.00000000E+00 0.29208758E+04 0.29208758E+04 0.32000000E+00 0.0000E+00 0.9000E+01
        1 -1    0    0  501    0 0.00000000E+00 0.00000000E+00 -.77477665E+02 0.77478326E+02 0.32000000E+00 0.0000E+00 0.9000E+01
       25  2    1    2    0    0 0.35916292E+03 -.13738016E+03 0.21174536E+04 0.21729246E+04 0.30020003E+03 0.0000E+00 0.0000E+00
       23  2    3    3    0    0 0.31798113E+03 -.17294404E+03 0.17924042E+04 0.18309697E+04 0.93358204E+02 0.0000E+00 0.0000E+00
      -24  1    1    2    0    0 -.35916292E+03 0.13738016E+03 0.72594450E+03 0.82542956E+03 0.80419002E+02 0.0000E+00 0.9000E+01
      -13  1    4    4    0    0 0.24162075E+03 -.13288079E+03 0.15331499E+04 0.15577504E+04 0.10565837E+00 0.0000E+00 0.9000E+01
       13  1    4    4    0    0 0.76360380E+02 -.40063244E+02 0.25925432E+03 0.27321930E+03 0.10565837E+00 0.0000E+00 0.9000E+01
       23  1    3    3    0    0 0.41181797E+02 0.35563872E+02 0.32504944E+03 0.34195485E+03 0.91188000E+02 0.0000E+00 0.9000E+01
#aMCatNLO 1  0  0  1  1 0.12672972D+03 0.00000000D+00  -5  7  0 0.00000000D+00 0.00000000D+00 0.00000000D+00 0.00000000D+00 0.00000000D+00
  <mgrwgt>
 0.2094527324D-03    4    2    0
 0.475713836405227D+03 0.000000000000000D+00 0.000000000000000D+00 0.475713836405227D+03
 0.475713836405227D+03 0.000000000000000D+00 0.000000000000000D+00 -.475713836405227D+03
 0.431752089644445D+03 -.359162924274895D+03 0.137380164872122D+03 -.179084714825103D+03
 0.327226441560339D+03 0.241620958968595D+03 -.132880912220158D+03 0.176179225253370D+03
 0.862332179401588D+02 0.763601678506399D+02 -.400631248369184D+02 0.488539085963552D+00
 0.106215923665510D+03 0.411817974556610D+02 0.355638721849536D+02 0.241695048576926D+01
 0.000000000000000D+00 0.000000000000000D+00 -.000000000000000D+00 -.000000000000000D+00
 0.506592326001717D+03 0.000000000000000D+00 0.000000000000000D+00 0.506592326001717D+03
 0.630423729624435D+03 0.000000000000000D+00 0.000000000000000D+00 -.630423729624435D+03
 0.485275903233563D+03 -.409045296577809D+03 0.172151376899413D+03 -.179084714825103D+03
 0.293592696861858D+03 0.207851072295495D+03 -.109341135833474D+03 0.176179225253370D+03
 0.755992341958693D+02 0.675571796203594D+02 -.339268775796695D+02 0.488539085963552D+00
 0.105362899856080D+03 0.296728209268273D+02 0.435863667983025D+02 0.241695048576926D+01
 0.177185321478781D+03 0.103964223735128D+03 -.724697302845724D+02 -.123831403622718D+03
0.169859252496D-02 0.000000000000D+00 0.000000000000D+00 0.262469315968D-05 0.000000000000D+00  7 -2 1 -24 -13 13 23 21 0 0.44936556D+00 0.11919693D-01 0.18534300D+06 0.18534300D+06 0.18534300D+06 0.11003731D+01  1  2  2  1  7  1       -2 0.245988849537D-03 0.100000000000D+01
-.932226838159D-04 0.000000000000D+00 -.652304254554D-05 0.262469315968D-05 0.000000000000D+00  7 -2 1 -24 -13 13 23 21 2 0.44936556D+00 0.11919693D-01 0.18534300D+06 0.18534300D+06 0.18534300D+06 0.11003731D+01  1  2  3  1  7  1       -2 -.163466104343D-04 0.100000000000D+01
0.109837880063D-03 0.000000000000D+00 0.000000000000D+00 0.262469315968D-05 0.000000000000D+00  7 -2 1 -24 -13 13 23 21 2 0.44936556D+00 0.11919693D-01 0.18534300D+06 0.18534300D+06 0.18534300D+06 0.11003731D+01  1  2 15  1  7  1       -2 0.192600873825D-04 0.100000000000D+01
-.224976122859D-03 0.000000000000D+00 0.000000000000D+00 0.262469315968D-05 0.000000000000D+00  7 -2 1 -24 -13 13 23 21 2 0.44936556D+00 0.11919693D-01 0.18534300D+06 0.18534300D+06 0.18534300D+06 0.11003731D+01  1  2  4  1  7  1       -2 -.394495940995D-04 0.100000000000D+01
  </mgrwgt>
  </event>
  <event>
  8     66 0.26562228E-05 0.21957962E+03 0.75467711E-02 0.98723814E-01
       -2 -1    0    0    0  501 0.00000000E+00 0.00000000E+00 0.13436926E+03 0.13436964E+03 0.32000000E+00 0.0000E+00 0.9000E+01
        1 -1    0    0  501    0 0.00000000E+00 0.00000000E+00 -.38803443E+03 0.38803456E+03 0.32000000E+00 0.0000E+00 0.9000E+01
       25  2    1    2    0    0 -.63140065E+02 0.87495036E+02 -.13284906E+03 0.34155676E+03 0.29558433E+03 0.0000E+00 0.0000E+00
       23  2    3    3    0    0 0.81830595E+02 0.75635602E+01 -.30321978E+02 0.12653912E+03 0.91319614E+02 0.0000E+00 0.0000E+00
      -24  1    1    2    0    0 0.63140065E+02 -.87495036E+02 -.12081612E+03 0.18084745E+03 0.80419002E+02 0.0000E+00 0.9000E+01
      -13  1    4    4    0    0 -.53442978E+01 0.25951309E+02 -.26334151E+02 0.37356802E+02 0.10565837E+00 0.0000E+00 0.9000E+01
       13  1    4    4    0    0 0.87174892E+02 -.18387749E+02 -.39878268E+01 0.89182314E+02 0.10565837E+00 0.0000E+00 0.9000E+01
       23  1    3    3    0    0 -.14497066E+03 0.79931476E+02 -.10252708E+03 0.21501764E+03 0.91188000E+02 0.0000E+00 0.9000E+01
#aMCatNLO 1  0  0  1  1 0.21928694D+03 0.00000000D+00  -5  7  0 0.00000000D+00 0.00000000D+00 0.00000000D+00 0.00000000D+00 0.00000000D+00
  <mgrwgt>
 0.1833101773D-02    3    2    0
 0.228341921509306D+03 0.000000000000000D+00 0.000000000000000D+00 0.228341921509306D+03
 0.228341921509306D+03 0.000000000000000D+00 0.000000000000000D+00 -.228341921509306D+03
 0.139765472503966D+03 0.631400762938531D+02 -.874950514031638D+02 -.377507363563998D+02
 0.281053312200160D+02 -.534442435332108D+01 0.259513713937173D+02 -.937406497224034D+01
 0.998013836152344D+02 0.871750003893229D+02 -.183878012409213D+02 0.449747067156765D+02
 0.189011655679395D+03 -.144970652329855D+03 0.799314812503677D+02 0.215009461296357D+01
 0.000000000000000D+00 0.000000000000000D+00 0.000000000000000D+00 -.000000000000000D+00
 0.273969393744559D+03 0.000000000000000D+00 0.000000000000000D+00 0.273969393744559D+03
 0.834965945960780D+03 0.000000000000000D+00 0.000000000000000D+00 -.834965945960780D+03
 0.166034585503762D+03 0.166175029559942D+02 -.139280322117278D+03 -.377507363563998D+02
 0.236227231572412D+02 -.132140180318477D+02 0.171915584725144D+02 -.937406497224034D+01
 0.893043746803834D+02 0.584055928024317D+02 -.504116437173965D+02 0.449747067156765D+02
 0.227641609156131D+03 -.208357762836156D+03 0.937393376657336D+01 0.215009461296357D+01
 0.602332047207821D+03 0.146548685109577D+03 0.163126473595587D+03 -.560996552216221D+03
0.140535448310D-04 0.000000000000D+00 0.000000000000D+00 0.242504353985D-07 0.000000000000D+00  7 -2 1 -24 -13 13 23 21 0 0.20672233D-01 0.59697644D-01 0.48215211D+05 0.48215211D+05 0.48215211D+05 0.11486865D+01  1  2  2  1  7  1       -2 0.180895623650D-02 0.100000000000D+01
-.779299048325D-06 0.000000000000D+00 -.539693125343D-07 0.242504353985D-07 0.000000000000D+00  7 -2 1 -24 -13 13 23 21 2 0.20672233D-01 0.59697644D-01 0.48215211D+05 0.48215211D+05 0.48215211D+05 0.11486865D+01  1  2  3  1  7  1       -2 -.132357745162D-03 0.100000000000D+01
0.921463703832D-06 0.000000000000D+00 0.000000000000D+00 0.242504353985D-07 0.000000000000D+00  7 -2 1 -24 -13 13 23 21 2 0.20672233D-01 0.59697644D-01 0.48215211D+05 0.48215211D+05 0.48215211D+05 0.11486865D+01  1  2 15  1  7  1       -2 0.156503281185D-03 0.100000000000D+01
  </mgrwgt>
  </event>
  <event>
  8     66 0.26562228E-05 0.26506231E+03 0.75467711E-02 0.94570017E-01
       -2 -1    0    0    0  501 0.00000000E+00 0.00000000E+00 0.16289834E+03 0.16289865E+03 0.32000000E+00 0.0000E+00 0.9000E+01
        1 -1    0    0  501    0 0.00000000E+00 0.00000000E+00 -.12873244E+04 0.12873245E+04 0.32000000E+00 0.0000E+00 0.9000E+01
       25  2    1    2    0    0 -.10700876E+02 0.36340827E+03 -.33578367E+03 0.57809689E+03 0.29877293E+03 0.0000E+00 0.0000E+00
       23  2    3    3    0    0 -.10908896E+02 0.23822630E+03 -.60212316E+02 0.26198711E+03 0.90227218E+02 0.0000E+00 0.0000E+00
      -24  1    1    2    0    0 0.10700876E+02 -.36340827E+03 -.78864242E+03 0.87212623E+03 0.80419002E+02 0.0000E+00 0.9000E+01
      -13  1    4    4    0    0 0.28749397E+02 0.16162180E+03 -.15672017E+02 0.16490529E+03 0.10565837E+00 0.0000E+00 0.9000E+01
       13  1    4    4    0    0 -.39658294E+02 0.76604501E+02 -.44540299E+02 0.97081817E+02 0.10565837E+00 0.0000E+00 0.9000E+01
       23  1    3    3    0    0 0.20801997E+00 0.12518197E+03 -.27557135E+03 0.31610978E+03 0.91188000E+02 0.0000E+00 0.9000E+01
#aMCatNLO 1  0  0  2  1 0.19746839D+03 0.00000000D+00  -5  7  0 0.00000000D+00 0.00000000D+00 0.00000000D+00 0.00000000D+00 0.00000000D+00
  <mgrwgt>
 0.1284962892D-02    9    2    0
 0.457933692908883D+03 0.000000000000000D+00 0.000000000000000D+00 0.457933692908883D+03
 0.457933692908883D+03 0.000000000000000D+00 0.000000000000000D+00 -.457933692908883D+03
 0.412731709363650D+03 0.107008764940235D+02 -.363408270533459D+03 -.178045410246963D+03
 0.241877402320921D+03 0.287494907913229D+02 0.161621911715390D+03 0.177641499054188D+03
 0.990403672239267D+02 -.396583872574080D+02 0.766043843563646D+02 0.486618429303091D+02
 0.162217906909268D+03 0.208019972061577D+00 0.125181974461705D+03 -.482579317375335D+02
 0.000000000000000D+00 0.000000000000000D+00 -.000000000000000D+00 -.000000000000000D+00
 0.538699116063004D+03 0.000000000000000D+00 0.000000000000000D+00 0.538699116063004D+03
 0.607239626658285D+03 0.000000000000000D+00 0.000000000000000D+00 -.607239626658285D+03
 0.344627607816272D+03 -.314336580193272D+01 -.283885405148312D+03 -.178045410246963D+03
 0.280703089854811D+03 0.191969167505626D+02 0.216492957980373D+03 0.177641499054188D+03
 0.119054576645143D+03 -.436450804662394D+02 0.995043929375770D+02 0.486618429303091D+02
 0.192528187472504D+03 -.627660466087030D+01 0.162430378580468D+03 -.482579317375335D+02
 0.209025280932559D+03 0.338681341784798D+02 -.194542324350106D+03 -.685405105952805D+02
0.703325223356D-04 0.000000000000D+00 0.000000000000D+00 0.101724000316D-05 0.000000000000D+00  7 -2 1 -24 -13 13 23 21 0 0.25061310D-01 0.19804994D+00 0.15118396D+06 0.15118396D+06 0.15118396D+06 0.11072825D+01  1  2  2  2  7  2        1 0.999126747105D-03 0.100000000000D+01
-.378021082483D-05 0.000000000000D+00 -.270095404747D-06 0.101724000316D-05 0.000000000000D+00  7 -2 1 -24 -13 13 23 21 2 0.25061310D-01 0.19804994D+00 0.15118396D+06 0.15118396D+06 0.15118396D+06 0.11072825D+01  1  2  3  2  7  2        1 -.658411375214D-04 0.100000000000D+01
0.454497198367D-05 0.000000000000D+00 0.000000000000D+00 0.101724000316D-05 0.000000000000D+00  7 -2 1 -24 -13 13 23 21 2 0.25061310D-01 0.19804994D+00 0.15118396D+06 0.15118396D+06 0.15118396D+06 0.11072825D+01  1  2 15  2  7  2        1 0.791612265227D-04 0.100000000000D+01
0.249710042523D-04 0.000000000000D+00 0.000000000000D+00 0.101724000316D-05 0.000000000000D+00  7 -2 1 -24 -13 13 23 21 2 0.25061310D-01 0.27549288D+00 0.25246669D+06 0.25246669D+06 0.25246669D+06 0.10901385D+01  1  2 12  2  7  2        1 0.190492184861D-03 0.100000000000D+01
-.393382286241D-04 0.000000000000D+00 0.000000000000D+00 0.101724000316D-05 0.000000000000D+00  7 -2 1 -24 -13 13 23 21 2 0.25061310D-01 0.19804994D+00 0.15118396D+06 0.15118396D+06 0.15118396D+06 0.11072825D+01  1  2  4  2  7  2        1 -.685166473700D-03 0.100000000000D+01
-.635049141217D-04 0.000000000000D+00 -.278192673043D-04 0.101724000316D-05 0.000000000000D+00  7 -2 1 -24 -13 13 23 21 2 0.25061310D-01 0.28601598D+00 0.15118396D+06 0.15118396D+06 0.15118396D+06 0.11072825D+01  1  2  5  2  7  2        1 -.460172563915D-03 0.100000000000D+01
0.706802968593D-04 0.000000000000D+00 0.260406331000D-04 0.101724000316D-05 0.000000000000D+00  7 -2 1 -24 -13 13 23 21 2 0.25061310D-01 0.19804994D+00 0.15118396D+06 0.15118396D+06 0.15118396D+06 0.11072825D+01  1  2  6  2  7  2        1 0.123106127177D-02 0.100000000000D+01
0.103402135587D-05 0.000000000000D+00 0.000000000000D+00 0.101724000316D-05 0.000000000000D+00  7 -2 21 -24 -13 13 23 -1 2 0.25061310D-01 0.27549288D+00 0.25246669D+06 0.25246669D+06 0.25246669D+06 0.10901385D+01  1  2 12  4  7  2        1 0.476363159870D-05 0.100000000000D+01
-.199786090240D-05 0.000000000000D+00 -.124496549174D-05 0.101724000316D-05 0.000000000000D+00  7 -2 21 -24 -13 13 23 -1 2 0.25061310D-01 0.28601598D+00 0.15118396D+06 0.15118396D+06 0.15118396D+06 0.11072825D+01  1  2  5  4  7  2        1 -.846199518083D-05 0.100000000000D+01
  </mgrwgt>
  </event>
  <event>
  8     66 0.26562228E-05 0.21415689E+03 0.75467711E-02 0.10377138E+00
       -2 -1    0    0    0  501 0.00000000E+00 0.00000000E+00 0.15332208E+03 0.15332242E+03 0.32000000E+00 0.0000E+00 0.9000E+01
        1 -1    0    0  501    0 0.00000000E+00 0.00000000E+00 -.46994644E+03 0.46994655E+03 0.32000000E+00 0.0000E+00 0.9000E+01
       25  2    1    2    0    0 -.15193817E+03 0.57530670E+02 -.13076434E+03 0.36364203E+03 0.29789466E+03 0.0000E+00 0.0000E+00
       23  2    3    3    0    0 -.12258167E+03 0.24173042E+02 -.19081276E+03 0.24576243E+03 0.91537210E+02 0.0000E+00 0.0000E+00
      -24  1    1    2    0    0 0.15193817E+03 -.57530670E+02 -.18586002E+03 0.25962694E+03 0.80419002E+02 0.0000E+00 0.9000E+01
      -11  1    4    4    0    0 -.55014900E+02 0.48940249E+02 -.54458364E+02 0.91583298E+02 0.51099893E-03 0.0000E+00 0.9000E+01
       11  1    4    4    0    0 -.67566765E+02 -.24767207E+02 -.13635440E+03 0.15417913E+03 0.51099893E-03 0.0000E+00 0.9000E+01
       23  1    3    3    0    0 -.29356506E+02 0.33357628E+02 0.60048419E+02 0.11787960E+03 0.91188000E+02 0.0000E+00 0.9000E+01
#aMCatNLO 1  0  0  1  1 0.47334065D+02 0.00000000D+00  -5  7  0 0.00000000D+00 0.00000000D+00 0.00000000D+00 0.00000000D+00 0.00000000D+00
  <mgrwgt>
 0.9504017468D-03    4    2    0
 0.268427467359803D+03 0.000000000000000D+00 0.000000000000000D+00 0.268427467359803D+03
 0.268427467359803D+03 0.000000000000000D+00 0.000000000000000D+00 -.268427467359803D+03
 0.191801544456993D+03 0.151938171118326D+03 -.575306699943152D+02 -.626548535146402D+02
 0.742066071586718D+02 -.550148997668056D+02 0.489402488314496D+02 -.921050454457125D+01
 0.985777353834199D+02 -.675667654941241D+02 -.247672069309153D+02 -.673712666856340D+02
 0.172269047720521D+03 -.293565058573960D+02 0.333576280937809D+02 0.139236624744845D+03
 0.000000000000000D+00 0.000000000000000D+00 0.000000000000000D+00 -.000000000000000D+00
 0.279038310214043D+03 0.000000000000000D+00 0.000000000000000D+00 0.279038310214043D+03
 0.328001405974797D+03 0.000000000000000D+00 0.000000000000000D+00 -.328001405974797D+03
 0.186002958734282D+03 0.139601034408554D+03 -.686717207200843D+02 -.626548535146402D+02
 0.752024649891287D+02 -.598938255953693D+02 0.445343350913320D+02 -.921050454457125D+01
 0.104845025973724D+03 -.742094984301892D+02 -.307659265965423D+02 -.673712666856340D+02
 0.172887148426509D+03 -.406275180928826D+02 0.231793410243949D+02 0.139236624744845D+03
 0.681021180651963D+02 0.351298077098874D+02 0.317239712008998D+02 -.489630957607539D+02
0.149581125145D-04 0.000000000000D+00 0.000000000000D+00 0.123961283704D-06 0.000000000000D+00  7 -2 1 -24 -11 11 23 21 0 0.23588047D-01 0.72299487D-01 0.45863174D+05 0.45863174D+05 0.45863174D+05 0.11506091D+01  1  2  2  1  7  1       -2 0.119773009389D-02 0.100000000000D+01
-.779458464923D-06 0.000000000000D+00 -.574430906170D-07 0.123961283704D-06 0.000000000000D+00  7 -2 1 -24 -11 11 23 21 2 0.23588047D-01 0.72299487D-01 0.45863174D+05 0.45863174D+05 0.45863174D+05 0.11506091D+01  1  2  3  1  7  1       -2 -.826286641664D-04 0.100000000000D+01
0.985876479339D-06 0.000000000000D+00 0.000000000000D+00 0.123961283704D-06 0.000000000000D+00  7 -2 1 -24 -11 11 23 21 2 0.23588047D-01 0.72299487D-01 0.45863174D+05 0.45863174D+05 0.45863174D+05 0.11506091D+01  1  2 15  1  7  1       -2 0.104510580341D-03 0.100000000000D+01
-.253953298990D-05 0.000000000000D+00 0.000000000000D+00 0.123961283704D-06 0.000000000000D+00  7 -2 1 -24 -11 11 23 21 2 0.23588047D-01 0.72299487D-01 0.45863174D+05 0.45863174D+05 0.45863174D+05 0.11506091D+01  1  2  4  1  7  1       -2 -.269210263286D-03 0.100000000000D+01
  </mgrwgt>
  </event>
  <event>
  8     66 0.26562228E-05 0.38224332E+03 0.75467711E-02 0.91170105E-01
       -4 -1    0    0    0  501 0.00000000E+00 0.00000000E+00 0.33288675E+03 0.33289036E+03 0.15500000E+01 0.0000E+00 0.9000E+01
        3 -1    0    0  501    0 0.00000000E+00 0.00000000E+00 -.66001896E+03 0.66001915E+03 0.50000000E+00 0.0000E+00 0.9000E+01
       25  2    1    2    0    0 0.32070049E+03 0.61146889E+02 0.96215820E+02 0.45228162E+03 0.29784801E+03 0.0000E+00 0.0000E+00
       23  2    3    3    0    0 0.58670236E+02 0.11573385E+03 0.28521328E+02 0.16152848E+03 0.91877438E+02 0.0000E+00 0.0000E+00
      -24  1    1    2    0    0 -.32070049E+03 -.61146889E+02 -.42334803E+03 0.54062789E+03 0.80419002E+02 0.0000E+00 0.9000E+01
      -13  1    4    4    0    0 0.39561592E+02 0.13986707E+02 -.20823226E+02 0.46844054E+02 0.10565837E+00 0.0000E+00 0.9000E+01
       13  1    4    4    0    0 0.19108643E+02 0.10174715E+03 0.49344554E+02 0.11468443E+03 0.10565837E+00 0.0000E+00 0.9000E+01
       23  1    3    3    0    0 0.26203025E+03 -.54586966E+02 0.67694492E+02 0.29075314E+03 0.91188000E+02 0.0000E+00 0.9000E+01
#aMCatNLO 1  0  0  2  1 0.48489368D+03 0.00000000D+00  -5  7  0 0.00000000D+00 0.00000000D+00 0.00000000D+00 0.00000000D+00 0.00000000D+00
  <mgrwgt>
 0.1389257985D-03    5    2    0
 0.468736017144439D+03 0.000000000000000D+00 0.000000000000000D+00 0.468736017144439D+03
 0.468736017144439D+03 0.000000000000000D+00 0.000000000000000D+00 -.468736017144439D+03
 0.424870058865071D+03 -.320700488077131D+03 -.611468885923397D+02 -.259729871074169D+03
 0.423477588934843D+02 0.395616190447319D+02 0.139865905160286D+02 -.570843828004791D+01
 0.138685282853328D+03 0.191086164695401D+02 0.101747263705321D+03 0.922819743243914D+02
 0.331568933676995D+03 0.262030252562859D+03 -.545869656290095D+02 0.173156335029825D+03
 0.000000000000000D+00 -.000000000000000D+00 -.000000000000000D+00 -.000000000000000D+00
 0.729781488885751D+03 0.000000000000000D+00 0.000000000000000D+00 0.729781488885751D+03
 0.818636651124139D+03 0.000000000000000D+00 0.000000000000000D+00 -.818636651124139D+03
 0.364767690559728D+03 -.220402480457508D+03 0.102719972750582D+03 -.259729871074169D+03
 0.645298701354431D+02 0.531369746537047D+02 0.361660033284240D+02 -.570843828004791D+01
 0.206184922954812D+03 0.629132529058327D+02 0.173315268448804D+03 0.922819743243914D+02
 0.419967987728545D+03 0.357488778861111D+03 0.101373152265248D+03 0.173156335029825D+03
 0.492967668631362D+03 -.253136525963141D+03 -.413574396793059D+03 -.888551622383879D+02
0.133481184377D-03 0.000000000000D+00 0.000000000000D+00 0.635798715484D-06 0.000000000000D+00  7 -4 3 -24 -13 13 23 21 0 0.51213638D-01 0.10154167D+00 0.14610996D+06 0.14610996D+06 0.14610996D+06 0.11084535D+01  1  2  2  2  7  2        3 0.133945404320D-03 0.100000000000D+01
-.704046326360D-05 0.000000000000D+00 -.512602894410D-06 0.635798715484D-06 0.000000000000D+00  7 -4 3 -24 -13 13 23 21 2 0.51213638D-01 0.10154167D+00 0.14610996D+06 0.14610996D+06 0.14610996D+06 0.11084535D+01  1  2  3  2  7  2        3 -.868048516381D-05 0.100000000000D+01
0.860577757892D-05 0.000000000000D+00 0.000000000000D+00 0.635798715484D-06 0.000000000000D+00  7 -4 3 -24 -13 13 23 21 2 0.51213638D-01 0.10154167D+00 0.14610996D+06 0.14610996D+06 0.14610996D+06 0.11084535D+01  1  2 15  2  7  2        3 0.106104274392D-04 0.100000000000D+01
-.307172290184D-06 0.000000000000D+00 -.411328643987D-04 0.635798715484D-06 0.000000000000D+00  7 -4 3 -24 -13 13 23 21 2 0.51213638D-01 0.23926090D+00 0.14610996D+06 0.14610996D+06 0.14610996D+06 0.11084535D+01  1  2  5  2  7  2        3 -.254047142644D-07 0.100000000000D+01
0.256674464572D-05 0.000000000000D+00 -.384775124660D-05 0.635798715484D-06 0.000000000000D+00  7 -4 21 -24 -13 13 23 -3 2 0.51213638D-01 0.23926090D+00 0.14610996D+06 0.14610996D+06 0.14610996D+06 0.11084535D+01  1  2  5  4  7  2        3 0.307585665147D-05 0.100000000000D+01
  </mgrwgt>
  </event>
  <event>
  8     66 0.26562228E-05 0.15399921E+03 0.75467711E-02 0.97536329E-01
       -2 -1    0    0    0  501 0.00000000E+00 0.00000000E+00 0.99826665E+03 0.99826670E+03 0.32000000E+00 0.0000E+00 0.9000E+01
        1 -1    0    0  501    0 0.00000000E+00 0.00000000E+00 -.12148367E+03 0.12148409E+03 0.32000000E+00 0.0000E+00 0.9000E+01
       25  2    1    2    0    0 -.27574255E+03 -.26384816E+02 0.50196259E+03 0.64679450E+03 0.29941038E+03 0.0000E+00 0.0000E+00
       23  2    3    3    0    0 -.44424222E+02 0.86783327E+02 0.17291418E+03 0.21912254E+03 0.92792883E+02 0.0000E+00 0.0000E+00
      -24  1    1    2    0    0 0.27574255E+03 0.26384816E+02 0.37482039E+03 0.47295629E+03 0.80419002E+02 0.0000E+00 0.9000E+01
      -11  1    4    4    0    0 -.26570160E+02 0.27810977E+02 0.14756611E+03 0.15249650E+03 0.51099893E-03 0.0000E+00 0.9000E+01
       11  1    4    4    0    0 -.17854061E+02 0.58972351E+02 0.25348063E+02 0.66626045E+02 0.51099893E-03 0.0000E+00 0.9000E+01
       23  1    3    3    0    0 -.23131832E+03 -.11316814E+03 0.32904841E+03 0.42767196E+03 0.91188000E+02 0.0000E+00 0.9000E+01
#aMCatNLO 1  0  0  1  2 0.10541922D+03 0.00000000D+00  -5  7  0 0.00000000D+00 0.00000000D+00 0.00000000D+00 0.00000000D+00 0.00000000D+00
  <mgrwgt>
 0.8571476366D-03    9    2    0
 0.348243249024754D+03 0.000000000000000D+00 0.000000000000000D+00 0.348243249024754D+03
 0.348243249024754D+03 0.000000000000000D+00 0.000000000000000D+00 -.348243249024754D+03
 0.288529699854198D+03 0.275742546086762D+03 0.263848160516255D+02 0.721536576309198D+01
 0.594047652072929D+02 -.265701601399724D+02 0.278109766181996D+02 0.452714291690883D+02
 0.752057897170705D+02 -.178540614193346D+02 0.589723505061877D+02 -.431208206505651D+02
 0.273346243270946D+03 -.231318324527455D+03 -.113168143176013D+03 -.936597428161518D+01
 0.000000000000000D+00 0.000000000000000D+00 -.000000000000000D+00 0.000000000000000D+00
 0.421891527533091D+03 0.000000000000000D+00 0.000000000000000D+00 0.421891527533091D+03
 0.392080948791426D+03 0.000000000000000D+00 0.000000000000000D+00 -.392080948791426D+03
 0.281838728806131D+03 0.261604353698024D+03 0.669100420253137D+02 0.721536576309198D+01
 0.653806105509625D+02 -.296633181079107D+02 0.366770977018868D+02 0.452714291690883D+02
 0.853803481436518D+02 -.218346423876254D+02 0.703821502041356D+02 -.431208206505651D+02
 0.271819685960372D+03 -.244831801788742D+03 -.744335790502486D+02 -.936597428161518D+01
 0.109553102863400D+03 0.347254085862539D+02 -.995357108810875D+02 0.298105787416643D+02
0.590418377402D-04 0.000000000000D+00 0.000000000000D+00 0.673848860331D-06 0.000000000000D+00  7 -2 1 -24 -11 11 23 21 0 0.15357952D+00 0.18689832D-01 0.10946314D+06 0.10946314D+06 0.10946314D+06 0.11185138D+01  1  2  2  1  7  1       -2 0.533048849386D-03 0.100000000000D+01
-.326963534473D-05 0.000000000000D+00 -.226736202995D-06 0.673848860331D-06 0.000000000000D+00  7 -2 1 -24 -11 11 23 21 2 0.15357952D+00 0.18689832D-01 0.10946314D+06 0.10946314D+06 0.10946314D+06 0.11185138D+01  1  2  3  1  7  1       -2 -.369308397227D-04 0.100000000000D+01
0.377883233477D-05 0.000000000000D+00 0.000000000000D+00 0.673848860331D-06 0.000000000000D+00  7 -2 1 -24 -11 11 23 21 2 0.15357952D+00 0.18689832D-01 0.10946314D+06 0.10946314D+06 0.10946314D+06 0.11185138D+01  1  2 15  1  7  1       -2 0.426822677701D-04 0.100000000000D+01
0.386783397254D-04 0.000000000000D+00 0.000000000000D+00 0.673848860331D-06 0.000000000000D+00  7 -2 1 -24 -11 11 23 21 2 0.19406101D+00 0.18689832D-01 0.15197768D+06 0.15197768D+06 0.15197768D+06 0.11071033D+01  1  2 12  1  7  1       -2 0.215546963699D-03 0.100000000000D+01
-.392379461625D-04 0.000000000000D+00 0.000000000000D+00 0.673848860331D-06 0.000000000000D+00  7 -2 1 -24 -11 11 23 21 2 0.15357952D+00 0.18689832D-01 0.10946314D+06 0.10946314D+06 0.10946314D+06 0.11185138D+01  1  2  4  1  7  1       -2 -.443196304173D-03 0.100000000000D+01
-.885753513495D-04 0.000000000000D+00 -.284373218450D-04 0.673848860331D-06 0.000000000000D+00  7 -2 1 -24 -11 11 23 21 2 0.20063745D+00 0.18689832D-01 0.10946314D+06 0.10946314D+06 0.10946314D+06 0.11185138D+01  1  2  5  1  7  1       -2 -.458916651149D-03 0.100000000000D+01
0.937922826918D-04 0.000000000000D+00 0.274509345637D-04 0.673848860331D-06 0.000000000000D+00  7 -2 1 -24 -11 11 23 21 2 0.15357952D+00 0.18689832D-01 0.10946314D+06 0.10946314D+06 0.10946314D+06 0.11185138D+01  1  2  6  1  7  1       -2 0.105939268271D-02 0.100000000000D+01
0.124616487455D-05 0.000000000000D+00 0.000000000000D+00 0.673848860331D-06 0.000000000000D+00  7 21 1 -24 -11 11 23 2 2 0.19406101D+00 0.18689832D-01 0.15197768D+06 0.15197768D+06 0.15197768D+06 0.11071033D+01  1  2 12  3  7  1       -2 0.567668099755D-04 0.100000000000D+01
-.261723186096D-05 0.000000000000D+00 -.101081676944D-05 0.673848860331D-06 0.000000000000D+00  7 21 1 -24 -11 11 23 2 2 0.20063745D+00 0.18689832D-01 0.10946314D+06 0.10946314D+06 0.10946314D+06 0.11185138D+01  1  2  5  3  7  1       -2 -.111246141857D-03 0.100000000000D+01
  </mgrwgt>
  </event>
  <event>
  8     66 0.26562228E-05 0.43953142E+03 0.75467711E-02 0.91385775E-01
       -2 -1    0    0    0  501 0.00000000E+00 0.00000000E+00 0.67114301E+03 0.67114309E+03 0.32000000E+00 0.0000E+00 0.9000E+01
        1 -1    0    0  501    0 0.00000000E+00 0.00000000E+00 -.46165934E+03 0.46165945E+03 0.32000000E+00 0.0000E+00 0.9000E+01
       25  2    1    2    0    0 -.35695660E+03 0.18899616E+03 0.43327960E+03 0.66409219E+03 0.30024933E+03 0.0000E+00 0.0000E+00
       23  2    3    3    0    0 -.21685982E+03 0.12612640E+02 0.10846006E+03 0.25843070E+03 0.88518836E+02 0.0000E+00 0.0000E+00
      -24  1    1    2    0    0 0.35695660E+03 -.18899616E+03 -.22379593E+03 0.46871035E+03 0.80419002E+02 0.0000E+00 0.9000E+01
      -13  1    4    4    0    0 -.21206122E+03 0.14435814E+01 0.11826377E+03 0.24281346E+03 0.10565837E+00 0.0000E+00 0.9000E+01
       13  1    4    4    0    0 -.47985938E+01 0.11169059E+02 -.98037091E+01 0.15617242E+02 0.10565837E+00 0.0000E+00 0.9000E+01
       23  1    3    3    0    0 -.14009678E+03 0.17638352E+03 0.32481955E+03 0.40566149E+03 0.91188000E+02 0.0000E+00 0.9000E+01
#aMCatNLO 1  0  0  1  1 0.39755491D+03 0.00000000D+00  -5  7  0 0.00000000D+00 0.00000000D+00 0.00000000D+00 0.00000000D+00 0.00000000D+00
  <mgrwgt>
 0.1539137077D-02    6    2    0
 0.556632325770107D+03 0.000000000000000D+00 0.000000000000000D+00 0.556632325770107D+03
 0.556632325770107D+03 0.000000000000000D+00 0.000000000000000D+00 -.556632325770107D+03
 0.519048071636423D+03 0.356956595519022D+03 -.188996159371502D+03 -.315921074595238D+03
 0.224821386627519D+03 -.212061517257316D+03 0.144356756660096D+01 0.746490783354122D+02
 0.177358006566714D+02 -.479829854287474D+01 0.111690723726233D+02 -.129145955554843D+02
 0.351659392619601D+03 -.140096779718832D+03 0.176383519432278D+03 0.254186591815310D+03
 0.000000000000000D+00 0.000000000000000D+00 -.000000000000000D+00 0.000000000000000D+00
 0.823992168232948D+03 0.000000000000000D+00 0.000000000000000D+00 0.823992168232948D+03
 0.760690976731685D+03 0.000000000000000D+00 0.000000000000000D+00 -.760690976731685D+03
 0.419609338418891D+03 0.257131387308396D+03 -.606803528452054D+02 -.315921074595238D+03
 0.285633394724878D+03 -.266347835444064D+03 0.712234641111533D+02 0.746490783354122D+02
 0.230330017170433D+02 -.913401692303870D+01 0.167422257954319D+02 -.129145955554843D+02
 0.453844433881846D+03 -.225761247216323D+03 0.286497041203187D+03 0.254186591815310D+03
 0.402562976221975D+03 0.244111712275030D+03 -.313782378264567D+03 0.633011915012626D+02
0.252479359501D-03 0.000000000000D+00 0.000000000000D+00 0.289638516272D-05 0.000000000000D+00  7 -2 1 -24 -13 13 23 21 0 0.10325279D+00 0.71024528D-01 0.19318787D+06 0.19318787D+06 0.19318787D+06 0.10989831D+01  1  2  2  1  7  1       -2 0.107780955867D-02 0.100000000000D+01
-.130751965954D-04 0.000000000000D+00 -.969587219825D-06 0.289638516272D-05 0.000000000000D+00  7 -2 1 -24 -13 13 23 21 2 0.10325279D+00 0.71024528D-01 0.19318787D+06 0.19318787D+06 0.19318787D+06 0.10989831D+01  1  2  3  1  7  1       -2 -.674134328674D-04 0.100000000000D+01
0.159761154640D-04 0.000000000000D+00 0.000000000000D+00 0.289638516272D-05 0.000000000000D+00  7 -2 1 -24 -13 13 23 21 2 0.10325279D+00 0.71024528D-01 0.19318787D+06 0.19318787D+06 0.19318787D+06 0.10989831D+01  1  2 15  1  7  1       -2 0.823700645306D-04 0.100000000000D+01
-.564349309469D-04 0.000000000000D+00 -.758672433000D-04 0.289638516272D-05 0.000000000000D+00  7 -2 1 -24 -13 13 23 21 2 0.19108240D+00 0.71024528D-01 0.19318787D+06 0.19318787D+06 0.19318787D+06 0.10989831D+01  1  2  5  1  7  1       -2 -.551435775402D-04 0.100000000000D+01
0.966457404623D-04 0.000000000000D+00 0.634610927848D-04 0.289638516272D-05 0.000000000000D+00  7 -2 1 -24 -13 13 23 21 2 0.10325279D+00 0.71024528D-01 0.19318787D+06 0.19318787D+06 0.19318787D+06 0.10989831D+01  1  2  6  1  7  1       -2 0.498288579374D-03 0.100000000000D+01
0.405798551154D-06 0.000000000000D+00 -.509375700245D-05 0.289638516272D-05 0.000000000000D+00  7 21 1 -24 -13 13 23 2 2 0.19108240D+00 0.71024528D-01 0.19318787D+06 0.19318787D+06 0.19318787D+06 0.10989831D+01  1  2  5  3  7  1       -2 0.322588500444D-05 0.100000000000D+01
  </mgrwgt>
  </event>
  <event>
  9     66 0.26562228E-05 0.20675092E+03 0.75467711E-02 0.10256713E+00
       -2 -1    0    0    0  501 0.00000000E+00 0.00000000E+00 0.14785625E+03 0.14785660E+03 0.32000000E+00 0.0000E+00 0.9000E+01
       21 -1    0    0  501  502 0.00000000E+00 0.00000000E+00 -.70650196E+03 0.70650236E+03 0.75000000E+00 0.0000E+00 0.9000E+01
       25  2    1    2    0    0 0.37995586E+02 0.14390858E+03 -.13651603E+03 0.36047623E+03 0.29858523E+03 0.0000E+00 0.0000E+00
       23  2    3    3    0    0 0.21347241E+02 0.20102991E+03 -.69491158E+02 0.23261850E+03 0.91725756E+02 0.0000E+00 0.0000E+00
      -24  1    1    2    0    0 -.11972360E+02 -.43685971E+02 -.36319457E+03 0.37473899E+03 0.80419002E+02 0.0000E+00 0.9000E+01
      -13  1    4    4    0    0 0.35837676E+02 0.20219890E+03 -.56154243E+02 0.21288975E+03 0.10565837E+00 0.0000E+00 0.9000E+01
       13  1    4    4    0    0 -.14490435E+02 -.11689857E+01 -.13336915E+02 0.19728753E+02 0.10565837E+00 0.0000E+00 0.9000E+01
       23  1    3    3    0    0 0.16648345E+02 -.57121332E+02 -.67024869E+02 0.12785773E+03 0.91188000E+02 0.0000E+00 0.9000E+01
       -1  1    1    2    0  502 -.26023226E+02 -.10022261E+03 -.58935112E+02 0.11914374E+03 0.32000000E+00 0.0000E+00 0.9000E+01
#aMCatNLO 2  0  0  2  1 0.10354603D+03 0.00000000D+00  -5  7  0 0.00000000D+00 0.00000000D+00 0.00000000D+00 0.00000000D+00 0.00000000D+00
  <mgrwgt>
 0.5085411033D-04    1    2    0
 0.264626603950275D+03 0.000000000000000D+00 0.000000000000000D+00 0.264626603950275D+03
 0.264626603950275D+03 0.000000000000000D+00 0.000000000000000D+00 -.264626603950275D+03
 0.186510948681985D+03 -.207606251660987D+02 -.775320004616966D+02 -.147908429005935D+03
 0.202665807361014D+03 0.251008618650927D+02 0.160848483639030D+03 0.120710983418850D+03
 0.157474660163922D+02 -.152280716819583D+02 -.400984187548824D+01 0.984221527352283D-01
 0.124328985841159D+03 0.108878349829643D+02 -.793066413018448D+02 0.270990234343497D+02
 0.000000000000000D+00 -.000000000000000D+00 -.000000000000000D+00 0.000000000000000D+00
 0.338579903324872D+03 0.000000000000000D+00 0.000000000000000D+00 0.338579903324872D+03
 0.308526561946232D+03 0.000000000000000D+00 0.000000000000000D+00 -.308526561946232D+03
 0.174344259658573D+03 -.119723600978123D+02 -.436859719384822D+02 -.147908429005935D+03
 0.238201572105714D+03 0.358377427557182D+02 0.202199168222480D+03 0.120710983418850D+03
 0.145379322246034D+02 -.144905013177548D+02 -.116925532163072D+01 0.984221527352283D-01
 0.112203485944750D+03 0.166483450470168D+02 -.571213309566027D+02 0.270990234343497D+02
 0.107819215337464D+03 -.260232263871680D+02 -.100222610005764D+03 0.300533413786404D+02
0.389980148764D-06 0.000000000000D+00 0.000000000000D+00 0.446553308686D-06 0.781634886829D-11  7 -2 21 -24 -13 13 23 -1 2 0.22747156D-01 0.10869259D+00 0.68805116D+05 0.68805116D+05 0.68805116D+05 0.11352958D+01  1  2  1  4  7  2        1 0.508541103286D-04 0.100000000000D+01
  </mgrwgt>
  </event>
  <event>
  8     66 0.26562228E-05 0.85687780E+02 0.75467711E-02 0.97691192E-01
       -2 -1    0    0    0  501 0.00000000E+00 0.00000000E+00 0.42247135E+02 0.42248347E+02 0.32000000E+00 0.0000E+00 0.9000E+01
        1 -1    0    0  501    0 0.00000000E+00 0.00000000E+00 -.19405879E+04 0.19405879E+04 0.32000000E+00 0.0000E+00 0.9000E+01
       25  2    1    2    0    0 -.13143408E+03 0.14697782E+03 -.12414910E+04 0.12923319E+04 0.29990757E+03 0.0000E+00 0.0000E+00
       23  2    3    3    0    0 -.13840185E+03 0.11048399E+02 -.87810185E+03 0.89371899E+03 0.91616828E+02 0.0000E+00 0.0000E+00
      -24  1    1    2    0    0 0.13143408E+03 -.14697782E+03 -.65684973E+03 0.69050430E+03 0.80419002E+02 0.0000E+00 0.9000E+01
      -13  1    4    4    0    0 -.41775791E+02 0.45400332E+02 -.26399266E+03 0.27110615E+03 0.10565837E+00 0.0000E+00 0.9000E+01
       13  1    4    4    0    0 -.96626061E+02 -.34351933E+02 -.61410919E+03 0.62261285E+03 0.10565837E+00 0.0000E+00 0.9000E+01
       23  1    3    3    0    0 0.69677709E+01 0.13592942E+03 -.36338914E+03 0.39861294E+03 0.91188000E+02 0.0000E+00 0.9000E+01
#aMCatNLO 1  0  0  2  1 0.20052889D+03 0.00000000D+00  -5  7  0 0.00000000D+00 0.00000000D+00 0.00000000D+00 0.00000000D+00 0.00000000D+00
  <mgrwgt>
 0.1003226596D-02    7    2    0
 0.286331112188348D+03 0.000000000000000D+00 0.000000000000000D+00 0.286331112188348D+03
 0.286331112188348D+03 0.000000000000000D+00 0.000000000000000D+00 -.286331112188348D+03
 0.213445793957355D+03 0.131434081452721D+03 -.146977820885384D+03 0.146455933365058D+02
 0.635820345663610D+02 -.417757177503502D+02 0.454004375946601D+02 -.153709073334781D+02
 0.120054843985820D+03 -.966261343359572D+02 -.343520382241931D+02 -.624218967798368D+02
 0.175579551867161D+03 0.696777063358610D+01 0.135929421514917D+03 0.631472107768091D+02
 0.000000000000000D+00 -.000000000000000D+00 -.000000000000000D+00 -.000000000000000D+00
 0.338846425568804D+03 0.000000000000000D+00 0.000000000000000D+00 0.338846425568804D+03
 0.586815776768627D+03 0.000000000000000D+00 0.000000000000000D+00 -.586815776768627D+03
 0.267638668466603D+03 0.212933946316906D+03 -.140028147191686D+03 0.146455933365058D+02
 0.541425747018853D+02 -.218321517116370D+02 0.471010695710291D+02 -.153709073334781D+02
 0.924673359144555D+02 -.606230407102674D+02 -.312819748188220D+02 -.624218967798368D+02
 0.192508256236292D+03 0.693250258802720D+02 0.141246762557400D+03 0.631472107768091D+02
 0.318905367018195D+03 -.199803779775274D+03 -.170377101179214D+02 -.247969351199823D+03
0.221500116815D-04 0.000000000000D+00 0.000000000000D+00 0.257391994752D-05 0.000000000000D+00  7 -2 1 -24 -13 13 23 21 0 0.64996545D-02 0.29855207D+00 0.73175856D+05 0.73175856D+05 0.73175856D+05 0.11330251D+01  1  2  2  2  7  2        1 0.100546738384D-02 0.100000000000D+01
-.122572263803D-05 0.000000000000D+00 -.850618770890D-07 0.257391994752D-05 0.000000000000D+00  7 -2 1 -24 -13 13 23 21 2 0.64996545D-02 0.29855207D+00 0.73175856D+05 0.73175856D+05 0.73175856D+05 0.11330251D+01  1  2  3  2  7  2        1 -.714274785830D-04 0.100000000000D+01
0.142957028112D-05 0.000000000000D+00 0.000000000000D+00 0.257391994752D-05 0.000000000000D+00  7 -2 1 -24 -13 13 23 21 2 0.64996545D-02 0.29855207D+00 0.73175856D+05 0.73175856D+05 0.73175856D+05 0.11330251D+01  1  2 15  2  7  2        1 0.833064491671D-04 0.100000000000D+01
0.213544433823D-05 0.000000000000D+00 0.000000000000D+00 0.257391994752D-05 0.000000000000D+00  7 -2 1 -24 -13 13 23 21 2 0.64996545D-02 0.61317041D+00 0.14813117D+06 0.14813117D+06 0.14813117D+06 0.11079818D+01  1  2 12  2  7  2        1 0.340667991559D-05 0.100000000000D+01
-.125484085621D-04 0.000000000000D+00 -.541951165267D-05 0.257391994752D-05 0.000000000000D+00  7 -2 1 -24 -13 13 23 21 2 0.64996545D-02 0.62936695D+00 0.73175856D+05 0.73175856D+05 0.73175856D+05 0.11330251D+01  1  2  5  2  7  2        1 -.174735703708D-04 0.100000000000D+01
0.166186569382D-06 0.000000000000D+00 0.000000000000D+00 0.257391994752D-05 0.000000000000D+00  7 -2 21 -24 -13 13 23 -1 2 0.64996545D-02 0.61317041D+00 0.14813117D+06 0.14813117D+06 0.14813117D+06 0.11079818D+01  1  2 12  4  7  2        1 0.224991420024D-07 0.100000000000D+01
-.675927860035D-06 0.000000000000D+00 -.437156601030D-06 0.257391994752D-05 0.000000000000D+00  7 -2 21 -24 -13 13 23 -1 2 0.64996545D-02 0.62936695D+00 0.73175856D+05 0.73175856D+05 0.73175856D+05 0.11330251D+01  1  2  5  4  7  2        1 -.753672926391D-07 0.100000000000D+01
  </mgrwgt>
  </event>
  <event>
  9     66 0.26562228E-05 0.21856964E+03 0.75467711E-02 0.10267577E+00
       21 -1    0    0  502  501 0.00000000E+00 0.00000000E+00 0.11839909E+03 0.11840147E+03 0.75000000E+00 0.0000E+00 0.9000E+01
        1 -1    0    0  501    0 0.00000000E+00 0.00000000E+00 -.12976318E+04 0.12976318E+04 0.32000000E+00 0.0000E+00 0.9000E+01
       25  2    1    2    0    0 -.15107986E+03 0.35183360E+02 -.90365501E+03 0.96457733E+03 0.29958983E+03 0.0000E+00 0.0000E+00
       23  2    3    3    0    0 0.33149392E+02 -.44550167E+02 -.41271652E+03 0.42640106E+03 0.91647896E+02 0.0000E+00 0.0000E+00
      -24  1    1    2    0    0 0.74671360E+02 -.41873698E+02 -.33463634E+03 0.35465182E+03 0.80419002E+02 0.0000E+00 0.9000E+01
      -13  1    4    4    0    0 0.32848351E+02 -.71548681E+02 -.33503748E+03 0.34416326E+03 0.10565837E+00 0.0000E+00 0.9000E+01
       13  1    4    4    0    0 0.30104160E+00 0.26998515E+02 -.77679047E+02 0.82237801E+02 0.10565837E+00 0.0000E+00 0.9000E+01
       23  1    3    3    0    0 -.18422925E+03 0.79733527E+02 -.49093848E+03 0.53817627E+03 0.91188000E+02 0.0000E+00 0.9000E+01
        2  1    1    2  502    0 0.76408499E+02 0.66903376E+01 0.59058636E+02 0.96804154E+02 0.32000000E+00 0.0000E+00 0.9000E+01
#aMCatNLO 2  0  0  1  2 0.76700843D+02 0.00000000D+00  -5  7  0 0.00000000D+00 0.00000000D+00 0.00000000D+00 0.00000000D+00 0.00000000D+00
  <mgrwgt>
 0.5338181531D-03    2    2    0
 0.224230395497481D+03 0.000000000000000D+00 0.000000000000000D+00 0.224230395497481D+03
 0.224230395497481D+03 0.000000000000000D+00 0.000000000000000D+00 -.224230395497481D+03
 0.131371836120386D+03 0.957255310544635D+02 -.400301942256052D+02 -.505466377439812D+01
 0.918417937359213D+02 0.478947973234809D+02 -.702313442238691D+02 -.347643747891805D+02
 0.278838323420410D+02 0.494598030560496D+01 0.274053593861487D+02 -.141126248857212D+01
 0.197363328796614D+03 -.148566308683549D+03 0.828561790633257D+02 0.412303010521508D+02
 0.000000000000000D+00 0.000000000000000D+00 0.000000000000000D+00 0.000000000000000D+00
 0.665558962857223D+03 0.000000000000000D+00 0.000000000000000D+00 0.665558962857223D+03
 0.230843649376517D+03 0.000000000000000D+00 0.000000000000000D+00 -.230843649376517D+03
 0.117566938175462D+03 0.746713643030065D+02 -.418736996793667D+02 -.505466377439812D+01
 0.860628302272579D+02 0.328483923214037D+02 -.715488093132398D+02 -.347643747891805D+02
 0.270371790232876D+02 0.300998282555051D+00 0.269986441837280D+02 -.141126248857212D+01
 0.224305689518954D+03 -.184229253721546D+03 0.797335271697192D+02 0.412303010521508D+02
 0.441429975288779D+03 0.764084988145810D+02 0.669033763915931D+01 0.434715313480706D+03
-.621099719701D-05 0.000000000000D+00 0.000000000000D+00 0.807330336067D-06 0.000000000000D+00  7 21 1 -24 -13 13 23 2 2 0.18090062D-01 0.19391659D+00 0.67696793D+05 0.67696793D+05 0.67696793D+05 0.11358969D+01  1  2 13  3  7  1       -2 -.275620302456D-02 0.100000000000D+01
0.795806366674D-05 0.000000000000D+00 0.000000000000D+00 0.807330336067D-06 0.208129337159D-09  7 21 1 -24 -13 13 23 2 2 0.18215426D-01 0.19963580D+00 0.67696793D+05 0.67696793D+05 0.67696793D+05 0.11358969D+01  1  2  1  3  7  1       -2 0.329002117769D-02 0.100000000000D+01
  </mgrwgt>
  </event>
  <event>
  8     66 0.26562228E-05 0.17969256E+03 0.75467711E-02 0.92620270E-01
       -2 -1    0    0    0  501 0.00000000E+00 0.00000000E+00 0.75861417E+02 0.75862092E+02 0.32000000E+00 0.0000E+00 0.9000E+01
        1 -1    0    0  501    0 0.00000000E+00 0.00000000E+00 -.90330173E+03 0.90330179E+03 0.32000000E+00 0.0000E+00 0.9000E+01
       25  2    1    2    0    0 0.56383196E+02 0.99489390E+02 -.75813726E+03 0.82312756E+03 0.29948235E+03 0.0000E+00 0.0000E+00
       23  2    3    3    0    0 -.30582009E+02 0.87775980E+02 -.63080749E+03 0.64360521E+03 0.87576847E+02 0.0000E+00 0.0000E+00
      -24  1    1    2    0    0 -.56383196E+02 -.99489390E+02 -.69303058E+02 0.15603632E+03 0.80419002E+02 0.0000E+00 0.9000E+01
      -11  1    4    4    0    0 -.26641167E+01 0.11575102E+02 -.55628694E+01 0.13115869E+02 0.51099893E-03 0.0000E+00 0.9000E+01
       11  1    4    4    0    0 -.27917892E+02 0.76200878E+02 -.62524462E+03 0.63048935E+03 0.51099893E-03 0.0000E+00 0.9000E+01
       23  1    3    3    0    0 0.86965204E+02 0.11713411E+02 -.12732977E+03 0.17952234E+03 0.91188000E+02 0.0000E+00 0.9000E+01
#aMCatNLO 1  0  0  1  1 0.54026096D+03 0.00000000D+00  -5  7  0 0.00000000D+00 0.00000000D+00 0.00000000D+00 0.00000000D+00 0.00000000D+00
  <mgrwgt>
 0.1432749012D-02    5    2    0
 0.261774917383744D+03 0.000000000000000D+00 0.000000000000000D+00 0.261774917383744D+03
 0.261774917383744D+03 0.000000000000000D+00 0.000000000000000D+00 -.261774917383744D+03
 0.182295893919423D+03 -.563831955069191D+02 -.994893904832365D+02 0.116993048644839D+03
 0.157380294305424D+02 -.266411672433183D+01 0.115751018737544D+02 0.103249730773480D+02
 0.191003384478688D+03 -.279178922630369D+02 0.762008777588081D+02 -.172905495582674D+03
 0.134512526938834D+03 0.869652044942877D+02 0.117134108506740D+02 0.455874738604871D+02
 0.000000000000000D+00 0.000000000000000D+00 0.000000000000000D+00 0.000000000000000D+00
 0.848663818908687D+03 0.000000000000000D+00 0.000000000000000D+00 0.848663818908687D+03
 0.530594045727151D+03 0.000000000000000D+00 0.000000000000000D+00 -.530594045727151D+03
 0.352022712312560D+03 -.268704715599009D+03 -.177660283724762D+03 0.116993048644839D+03
 0.210679440911693D+02 -.172896606515934D+02 0.619038235761060D+01 0.103249730773480D+02
 0.274331574021686D+03 -.212827466042493D+03 0.812230265732795D+01 -.172905495582674D+03
 0.104898404911710D+03 -.816921976924196D+01 -.233124448396620D+02 0.455874738604871D+02
 0.626937229298713D+03 0.506991062062338D+03 0.186660043549485D+03 0.318069773181536D+03
0.126710125570D-04 0.000000000000D+00 0.000000000000D+00 0.186902223074D-06 0.000000000000D+00  7 -2 1 -24 -11 11 23 21 0 0.11671043D-01 0.13896955D+00 0.32289418D+05 0.32289418D+05 0.32289418D+05 0.11643841D+01  1  2  2  1  7  1       -2 0.120520760357D-02 0.100000000000D+01
-.582789187029D-06 0.000000000000D+00 -.486600245732D-07 0.186902223074D-06 0.000000000000D+00  7 -2 1 -24 -11 11 23 21 2 0.11671043D-01 0.13896955D+00 0.32289418D+05 0.32289418D+05 0.32289418D+05 0.11643841D+01  1  2  3  1  7  1       -2 -.751544281385D-04 0.100000000000D+01
0.805806702303D-06 0.000000000000D+00 0.000000000000D+00 0.186902223074D-06 0.000000000000D+00  7 -2 1 -24 -11 11 23 21 2 0.11671043D-01 0.13896955D+00 0.32289418D+05 0.32289418D+05 0.32289418D+05 0.11643841D+01  1  2 15  1  7  1       -2 0.103913976528D-03 0.100000000000D+01
0.141840082537D-04 0.000000000000D+00 -.635766074895D-05 0.186902223074D-06 0.000000000000D+00  7 -2 1 -24 -11 11 23 21 2 0.76079014D-01 0.13896955D+00 0.32289418D+05 0.32289418D+05 0.32289418D+05 0.11643841D+01  1  2  5  1  7  1       -2 0.659759633571D-04 0.100000000000D+01
0.274677131388D-05 0.000000000000D+00 -.145976097641D-05 0.186902223074D-06 0.000000000000D+00  7 21 1 -24 -11 11 23 2 2 0.76079014D-01 0.13896955D+00 0.32289418D+05 0.32289418D+05 0.32289418D+05 0.11643841D+01  1  2  5  3  7  1       -2 0.132805896843D-03 0.100000000000D+01
  </mgrwgt>
  </event>
  <event>
  8     66 0.26562228E-05 0.13564836E+03 0.75467711E-02 0.10333733E+00
       -2 -1    0    0    0  501 0.00000000E+00 0.00000000E+00 0.34205169E+02 0.34206666E+02 0.32000000E+00 0.0000E+00 0.9000E+01
        1 -1    0    0  501    0 0.00000000E+00 0.00000000E+00 -.20157223E+04 0.20157223E+04 0.32000000E+00 0.0000E+00 0.9000E+01
       25  2    1    2    0    0 0.10123435E+03 0.99224423E+02 -.16159462E+04 0.16496751E+04 0.30008639E+03 0.0000E+00 0.0000E+00
       23  2    3    3    0    0 0.74608424E+02 -.37209452E+02 -.11152201E+04 0.11220720E+04 0.91535228E+02 0.0000E+00 0.0000E+00
      -24  1    1    2    0    0 -.10123435E+03 -.99224423E+02 -.36557093E+03 0.40025392E+03 0.80419002E+02 0.0000E+00 0.9000E+01
      -13  1    4    4    0    0 0.25316370E+02 0.30196008E+02 -.42362563E+03 0.42545435E+03 0.10565837E+00 0.0000E+00 0.9000E+01
       13  1    4    4    0    0 0.49292054E+02 -.67405460E+02 -.69159452E+03 0.69661768E+03 0.10565837E+00 0.0000E+00 0.9000E+01
       23  1    3    3    0    0 0.26625922E+02 0.13643388E+03 -.50072607E+03 0.52760306E+03 0.91188000E+02 0.0000E+00 0.9000E+01
#aMCatNLO 1  0  0  2  1 0.40589099D+02 0.00000000D+00  -5  7  0 0.00000000D+00 0.00000000D+00 0.00000000D+00 0.00000000D+00 0.00000000D+00
  <mgrwgt>
 0.1878359592D-02    9    2    0
 0.262582717444668D+03 0.000000000000000D+00 0.000000000000000D+00 0.262582717444668D+03
 0.262582717444668D+03 0.000000000000000D+00 0.000000000000000D+00 -.262582717444668D+03
 0.183003387528552D+03 -.101234346647705D+03 -.992244236786664D+02 0.832414842311428D+02
 0.623227011696427D+02 0.253163382082884D+02 0.301961373273722D+02 -.482845253814368D+02
 0.109699574625563D+03 0.492920856736520D+02 -.674055893411852D+02 -.711391136333480D+02
 0.170139771565577D+03 0.266259227657646D+02 0.136433875692479D+03 0.361821547836420D+02
 0.000000000000000D+00 -.000000000000000D+00 0.000000000000000D+00 -.000000000000000D+00
 0.268641410063300D+03 0.000000000000000D+00 0.000000000000000D+00 0.268641410063300D+03
 0.341436381092866D+03 0.000000000000000D+00 0.000000000000000D+00 -.341436381092866D+03
 0.190177086135490D+03 -.994298373999812D+02 -.113510664143176D+03 0.832414842311428D+02
 0.604383559919656D+02 0.259099476775446D+02 0.254965506499970D+02 -.482845253814368D+02
 0.115672733298642D+03 0.503818704896609D+02 -.760333799472533D+02 -.711391136333480D+02
 0.160443453534954D+03 0.282244535811076D+02 0.123778359713980D+03 0.361821547836420D+02
 0.833461621951136D+02 -.508643434833181D+01 0.402691337264523D+02 -.727949710295663D+02
0.224563515719D-04 0.000000000000D+00 0.000000000000D+00 0.231340318581D-05 0.000000000000D+00  7 -2 1 -24 -13 13 23 21 0 0.52624508D-02 0.31011124D+00 0.51106329D+05 0.51106329D+05 0.51106329D+05 0.11464603D+01  1  2  2  2  7  2        1 0.125486261336D-02 0.100000000000D+01
-.121356631377D-05 0.000000000000D+00 -.862383029291D-07 0.231340318581D-05 0.000000000000D+00  7 -2 1 -24 -13 13 23 21 2 0.52624508D-02 0.31011124D+00 0.51106329D+05 0.51106329D+05 0.51106329D+05 0.11464603D+01  1  2  3  2  7  2        1 -.891330019981D-04 0.100000000000D+01
0.146051256597D-05 0.000000000000D+00 0.000000000000D+00 0.231340318581D-05 0.000000000000D+00  7 -2 1 -24 -13 13 23 21 2 0.52624508D-02 0.31011124D+00 0.51106329D+05 0.51106329D+05 0.51106329D+05 0.11464603D+01  1  2 15  2  7  2        1 0.107270503461D-03 0.100000000000D+01
0.623855639677D-04 0.000000000000D+00 0.000000000000D+00 0.231340318581D-05 0.000000000000D+00  7 -2 1 -24 -13 13 23 21 2 0.52624508D-02 0.40604949D+00 0.61368453D+05 0.61368453D+05 0.61368453D+05 0.11395504D+01  1  2 12  2  7  2        1 0.172968050181D-02 0.100000000000D+01
-.624564412406D-04 0.000000000000D+00 0.000000000000D+00 0.231340318581D-05 0.000000000000D+00  7 -2 1 -24 -13 13 23 21 2 0.52624508D-02 0.31011124D+00 0.51106329D+05 0.51106329D+05 0.51106329D+05 0.11464603D+01  1  2  4  2  7  2        1 -.458724837590D-02 0.100000000000D+01
-.765037246065D-04 0.000000000000D+00 -.966678000273D-05 0.231340318581D-05 0.000000000000D+00  7 -2 1 -24 -13 13 23 21 2 0.52624508D-02 0.40582490D+00 0.51106329D+05 0.51106329D+05 0.51106329D+05 0.11464603D+01  1  2  5  2  7  2        1 -.216337417621D-02 0.100000000000D+01
0.766535474595D-04 0.000000000000D+00 0.932729746686D-05 0.231340318581D-05 0.000000000000D+00  7 -2 1 -24 -13 13 23 21 2 0.52624508D-02 0.31011124D+00 0.51106329D+05 0.51106329D+05 0.51106329D+05 0.11464603D+01  1  2  6  2  7  2        1 0.562998554042D-02 0.100000000000D+01
0.223122003055D-05 0.000000000000D+00 0.000000000000D+00 0.231340318581D-05 0.000000000000D+00  7 -2 21 -24 -13 13 23 -1 2 0.52624508D-02 0.40604949D+00 0.61368453D+05 0.61368453D+05 0.61368453D+05 0.11395504D+01  1  2 12  4  7  2        1 0.204891994637D-04 0.100000000000D+01
-.254961574946D-05 0.000000000000D+00 -.345214123964D-06 0.231340318581D-05 0.000000000000D+00  7 -2 21 -24 -13 13 23 -1 2 0.52624508D-02 0.40582490D+00 0.51106329D+05 0.51106329D+05 0.51106329D+05 0.11464603D+01  1  2  5  4  7  2        1 -.241732122624D-04 0.100000000000D+01
  </mgrwgt>
  </event>
  <event>
  9     66 0.26562228E-05 0.16646729E+03 0.75467711E-02 0.10582813E+00
       -2 -1    0    0    0  502 0.00000000E+00 0.00000000E+00 0.60589558E+02 0.60590403E+02 0.32000000E+00 0.0000E+00 0.9000E+01
        1 -1    0    0  501    0 0.00000000E+00 0.00000000E+00 -.32987539E+04 0.32987539E+04 0.32000000E+00 0.0000E+00 0.9000E+01
       25  2    1    2    0    0 -.81447770E+02 -.33162515E+02 -.38332487E+03 0.49416935E+03 0.29921881E+03 0.0000E+00 0.0000E+00
       23  2    3    3    0    0 -.96159995E+01 -.73259440E+02 -.27486480E+02 0.11773373E+03 0.87443186E+02 0.0000E+00 0.0000E+00
      -24  1    1    2    0    0 0.12296538E+03 -.83547403E+01 -.25769839E+04 0.25811826E+04 0.80419002E+02 0.0000E+00 0.9000E+01
      -11  1    4    4    0    0 -.10952727E+02 0.12101189E+01 -.40633143E+02 0.42100819E+02 0.51099893E-03 0.0000E+00 0.9000E+01
       11  1    4    4    0    0 0.13367277E+01 -.74469559E+02 0.13146663E+02 0.75632908E+02 0.51099893E-03 0.0000E+00 0.9000E+01
       23  1    3    3    0    0 -.71831770E+02 0.40096925E+02 -.35583839E+03 0.37643562E+03 0.91188000E+02 0.0000E+00 0.9000E+01
       21  1    1    2  501  502 -.41517607E+02 0.41517255E+02 -.27785551E+03 0.28399232E+03 0.75000000E+00 0.0000E+00 0.9000E+01
#aMCatNLO 2  0  0  1  2 0.58714514D+02 0.00000000D+00  -5  7  0 0.00000000D+00 0.00000000D+00 0.00000000D+00 0.00000000D+00 0.00000000D+00
  <mgrwgt>
 0.7036256300D-03    1    2    0
 0.415606214257423D+03 0.000000000000000D+00 0.000000000000000D+00 0.415606214257423D+03
 0.415606214257423D+03 0.000000000000000D+00 0.000000000000000D+00 -.415606214257423D+03
 0.365640237225501D+03 0.104584479410519D+03 0.100260011330729D+02 -.340862337449682D+03
 0.116614669540745D+02 -.115186338050286D+02 0.177602072776707D+01 -.395774128974566D+00
 0.322864187871946D+03 -.148438997926117D+02 -.582890687894702D+02 0.317211801339129D+03
 0.131046536463323D+03 -.782219458128782D+02 0.464870469286303D+02 0.240463102395279D+02
 0.000000000000000D+00 -.000000000000000D+00 0.000000000000000D+00 -.000000000000000D+00
 0.438864678023650D+03 0.000000000000000D+00 0.000000000000000D+00 0.438864678023650D+03
 0.455423788170865D+03 0.000000000000000D+00 0.000000000000000D+00 -.455423788170865D+03
 0.371274338684524D+03 0.122965376564839D+03 -.835474032310399D+01 -.340862337449682D+03
 0.110264798714091D+02 -.109527272116804D+02 0.121011892801542D+01 -.395774128974566D+00
 0.325838654855754D+03 0.133672768536738D+01 -.744695592070198D+02 0.317211801339129D+03
 0.125144089049603D+03 -.718317702166921D+02 0.400969254613840D+02 0.240463102395279D+02
 0.610049037332243D+02 -.415176068218337D+02 0.415172551407244D+02 -.165591101472144D+02
0.173300923718D-03 0.000000000000D+00 0.000000000000D+00 0.540762399169D-06 0.111591996358D-08  7 -2 1 -24 -11 11 23 21 2 0.93214884D-02 0.50749803D+00 0.42888846D+05 0.42888846D+05 0.42888846D+05 0.11532023D+01  1  2  1  1  7  1       -2 0.703625630041D-03 0.100000000000D+01
  </mgrwgt>
  </event>
  <event>
  8     66 0.26562228E-05 0.13478956E+03 0.75467711E-02 0.98893942E-01
       -4 -1    0    0    0  501 0.00000000E+00 0.00000000E+00 0.57111854E+03 0.57112065E+03 0.15500000E+01 0.0000E+00 0.9000E+01
        3 -1    0    0  501    0 0.00000000E+00 0.00000000E+00 -.14383392E+03 0.14383479E+03 0.50000000E+00 0.0000E+00 0.9000E+01
       25  2    1    2    0    0 -.12941912E+03 -.15023440E+03 0.26042066E+03 0.44360606E+03 0.29941231E+03 0.0000E+00 0.0000E+00
       23  2    3    3    0    0 0.47987354E+02 -.68521004E+02 0.16857095E+03 0.20929482E+03 0.91598268E+02 0.0000E+00 0.0000E+00
      -24  1    1    2    0    0 0.12941912E+03 0.15023440E+03 0.16686396E+03 0.27134937E+03 0.80419002E+02 0.0000E+00 0.9000E+01
      -13  1    4    4    0    0 0.44054262E+01 -.96962099E+01 -.11037821E+02 0.15338479E+02 0.10565837E+00 0.0000E+00 0.9000E+01
       13  1    4    4    0    0 0.43581928E+02 -.58824794E+02 0.17960877E+03 0.19395634E+03 0.10565837E+00 0.0000E+00 0.9000E+01
       23  1    3    3    0    0 -.17740647E+03 -.81713395E+02 0.91849713E+02 0.23431124E+03 0.91188000E+02 0.0000E+00 0.9000E+01
#aMCatNLO 1  0  0  1  2 0.15291205D+03 0.00000000D+00  -5  7  0 0.00000000D+00 0.00000000D+00 0.00000000D+00 0.00000000D+00 0.00000000D+00
  <mgrwgt>
 0.2108121747D-03    9    2    0
 0.286613467158551D+03 0.000000000000000D+00 0.000000000000000D+00 0.286613467158551D+03
 0.286613467158551D+03 0.000000000000000D+00 0.000000000000000D+00 -.286613467158551D+03
 0.214058855026230D+03 0.129419119622592D+03 0.150234399744386D+03 0.585611392710618D+01
 0.273583763927547D+02 0.440537422241939D+01 -.969614455859602D+01 -.252003614558777D+02
 0.108030749357607D+03 0.435819801004913D+02 -.588248596148473D+02 0.794411084299554D+02
 0.223778953540510D+03 -.177406473945503D+03 -.817133955709423D+02 -.600968609011838D+02
 0.000000000000000D+00 -.000000000000000D+00 0.000000000000000D+00 0.000000000000000D+00
 0.504731872553343D+03 0.000000000000000D+00 0.000000000000000D+00 0.504731872553343D+03
 0.324726317711024D+03 0.000000000000000D+00 0.000000000000000D+00 -.324726317711024D+03
 0.216336147311233D+03 0.168331332361400D+03 0.109381813635565D+03 0.585611392710618D+01
 0.309984356343581D+02 0.968144079388292D+01 -.152353043430413D+02 -.252003614558777D+02
 0.131189123193688D+03 0.652099602617663D+02 -.815313278341980D+02 0.794411084299554D+02
 0.214747913455826D+03 -.137759055533184D+03 -.123337848684254D+03 -.600968609011838D+02
 0.236186570669263D+03 -.105463677883866D+03 0.110722667225929D+03 0.180005554842319D+03
0.378512522460D-04 0.000000000000D+00 0.000000000000D+00 0.127587591724D-05 0.000000000000D+00  7 -4 3 -24 -13 13 23 21 0 0.87864620D-01 0.22128523D-01 0.65894219D+05 0.65894219D+05 0.65894219D+05 0.11368980D+01  1  2  2  1  7  1       -4 0.220848648216D-03 0.100000000000D+01
-.207178024717D-05 0.000000000000D+00 -.145358775088D-06 0.127587591724D-05 0.000000000000D+00  7 -4 3 -24 -13 13 23 21 2 0.87864620D-01 0.22128523D-01 0.65894219D+05 0.65894219D+05 0.65894219D+05 0.11368980D+01  1  2  3  1  7  1       -4 -.156243214483D-04 0.100000000000D+01
0.245216906995D-05 0.000000000000D+00 0.000000000000D+00 0.127587591724D-05 0.000000000000D+00  7 -4 3 -24 -13 13 23 21 2 0.87864620D-01 0.22128523D-01 0.65894219D+05 0.65894219D+05 0.65894219D+05 0.11368980D+01  1  2 15  1  7  1       -4 0.184930220504D-04 0.100000000000D+01
0.132231756851D-04 0.000000000000D+00 0.000000000000D+00 0.127587591724D-05 0.000000000000D+00  7 -4 3 -24 -13 13 23 21 2 0.15673603D+00 0.22128523D-01 0.12172744D+06 0.12172744D+06 0.12172744D+06 0.11147816D+01  1  2 12  1  7  1       -4 0.176807896400D-04 0.100000000000D+01
-.301110360471D-04 0.000000000000D+00 0.000000000000D+00 0.127587591724D-05 0.000000000000D+00  7 -4 3 -24 -13 13 23 21 2 0.87864620D-01 0.22128523D-01 0.65894219D+05 0.65894219D+05 0.65894219D+05 0.11368980D+01  1  2  4  1  7  1       -4 -.227082243391D-03 0.100000000000D+01
-.305513157080D-04 0.000000000000D+00 -.114353802029D-04 0.127587591724D-05 0.000000000000D+00  7 -4 3 -24 -13 13 23 21 2 0.16580413D+00 0.22128523D-01 0.65894219D+05 0.65894219D+05 0.65894219D+05 0.11368980D+01  1  2  5  1  7  1       -4 -.349948526612D-04 0.100000000000D+01
0.329219533075D-04 0.000000000000D+00 0.946257081714D-05 0.127587591724D-05 0.000000000000D+00  7 -4 3 -24 -13 13 23 21 2 0.87864620D-01 0.22128523D-01 0.65894219D+05 0.65894219D+05 0.65894219D+05 0.11368980D+01  1  2  6  1  7  1       -4 0.248280763312D-03 0.100000000000D+01
0.841117331884D-06 0.000000000000D+00 0.000000000000D+00 0.127587591724D-05 0.000000000000D+00  7 21 3 -24 -13 13 23 4 2 0.15673603D+00 0.22128523D-01 0.12172744D+06 0.12172744D+06 0.12172744D+06 0.11147816D+01  1  2 12  3  7  1       -4 0.292595982929D-04 0.100000000000D+01
-.146202912887D-05 0.000000000000D+00 -.789727895925D-06 0.127587591724D-05 0.000000000000D+00  7 21 3 -24 -13 13 23 4 2 0.16580413D+00 0.22128523D-01 0.65894219D+05 0.65894219D+05 0.65894219D+05 0.11368980D+01  1  2  5  3  7  1       -4 -.460492293275D-04 0.100000000000D+01
  </mgrwgt>
  </event>
  <event>
  8     66 0.26562228E-05 0.17531839E+03 0.75467711E-02 0.98901803E-01
       -4 -1    0    0    0  501 0.00000000E+00 0.00000000E+00 0.37808825E+03 0.37809143E+03 0.15500000E+01 0.0000E+00 0.9000E+01
        3 -1    0    0  501    0 0.00000000E+00 0.00000000E+00 -.78597320E+03 0.78597335E+03 0.50000000E+00 0.0000E+00 0.9000E+01
       25  2    1    2    0    0 -.27412047E+03 -.11642340E+03 -.64755983E+03 0.77341442E+03 0.30023273E+03 0.0000E+00 0.0000E+00
       23  2    3    3    0    0 -.13101577E+03 -.11451460E+03 -.14689959E+03 0.24477605E+03 0.89761350E+02 0.0000E+00 0.0000E+00
      -24  1    1    2    0    0 0.27412047E+03 0.11642340E+03 0.23967488E+03 0.39065036E+03 0.80419002E+02 0.0000E+00 0.9000E+01
      -11  1    4    4    0    0 -.56898384E+02 -.15443637E+01 -.22789060E+02 0.61311927E+02 0.51099893E-03 0.0000E+00 0.9000E+01
       11  1    4    4    0    0 -.74117385E+02 -.11297023E+03 -.12411053E+03 0.18346412E+03 0.51099893E-03 0.0000E+00 0.9000E+01
       23  1    3    3    0    0 -.14310470E+03 -.19088070E+01 -.50066024E+03 0.52863837E+03 0.91188000E+02 0.0000E+00 0.9000E+01
#aMCatNLO 1  0  0  2  1 0.27114028D+02 0.00000000D+00  -5  7  0 0.00000000D+00 0.00000000D+00 0.00000000D+00 0.00000000D+00 0.00000000D+00
  <mgrwgt>
 0.1047029189D-03    6    2    0
 0.545132250845277D+03 0.000000000000000D+00 0.000000000000000D+00 0.545132250845277D+03
 0.545132250845277D+03 0.000000000000000D+00 0.000000000000000D+00 -.545132250845277D+03
 0.506759693745388D+03 0.274120470121594D+03 0.116423402997131D+03 0.402046925551525D+03
 0.569364046705736D+02 -.568983842919197D+02 -.154436368762781D+01 -.139390910057969D+01
 0.149451169355477D+03 -.741173854570382D+02 -.112970232322967D+03 -.638748135310549D+02
 0.377117233919115D+03 -.143104700372636D+03 -.190880698653619D+01 -.336778202919890D+03
 0.000000000000000D+00 0.000000000000000D+00 0.000000000000000D+00 0.000000000000000D+00
 0.561601427222542D+03 0.000000000000000D+00 0.000000000000000D+00 0.561601427222542D+03
 0.556575989262376D+03 0.000000000000000D+00 0.000000000000000D+00 -.556575989262376D+03
 0.499553621720851D+03 0.262141942959389D+03 0.112811685636249D+03 0.402046925551525D+03
 0.583198715380243D+02 -.582703232436959D+02 -.195802520570114D+01 -.139390910057969D+01
 0.152073184463249D+03 -.777065436315083D+02 -.114052420868699D+03 -.638748135310549D+02
 0.380654924223948D+03 -.152124748343355D+03 -.462849559354823D+01 -.336778202919890D+03
 0.275758145388452D+02 0.259596722591703D+02 0.782725603169954D+01 0.502543796016580D+01
0.115009442251D-03 0.000000000000D+00 0.000000000000D+00 0.689355243596D-05 0.000000000000D+00  7 -4 3 -24 -11 11 23 21 0 0.58167680D-01 0.12091921D+00 0.11229811D+06 0.11229811D+06 0.11229811D+06 0.11176117D+01  1  2  2  2  7  2        3 0.559158997795D-04 0.100000000000D+01
-.455017864890D-05 0.000000000000D+00 -.441666540927D-06 0.689355243596D-05 0.000000000000D+00  7 -4 3 -24 -11 11 23 21 2 0.58167680D-01 0.12091921D+00 0.11229811D+06 0.11229811D+06 0.11229811D+06 0.11176117D+01  1  2  3  2  7  2        3 -.276319886701D-05 0.100000000000D+01
0.691384739655D-05 0.000000000000D+00 0.000000000000D+00 0.689355243596D-05 0.000000000000D+00  7 -4 3 -24 -11 11 23 21 2 0.58167680D-01 0.12091921D+00 0.11229811D+06 0.11229811D+06 0.11229811D+06 0.11176117D+01  1  2 15  2  7  2        3 0.419859015809D-05 0.100000000000D+01
0.187816311728D-03 0.000000000000D+00 0.000000000000D+00 0.689355243596D-05 0.000000000000D+00  7 -4 3 -24 -11 11 23 21 2 0.58167680D-01 0.12523847D+00 0.12157331D+06 0.12157331D+06 0.12157331D+06 0.11148259D+01  1  2 12  2  7  2        3 0.103481361969D-03 0.100000000000D+01
-.121167035524D-03 0.000000000000D+00 0.000000000000D+00 0.689355243596D-05 0.000000000000D+00  7 -4 3 -24 -11 11 23 21 2 0.58167680D-01 0.12091921D+00 0.11229811D+06 0.11229811D+06 0.11229811D+06 0.11176117D+01  1  2  4  2  7  2        3 -.735814219868D-04 0.100000000000D+01
0.241606358557D-05 0.000000000000D+00 0.000000000000D+00 0.689355243596D-05 0.000000000000D+00  7 -4 21 -24 -11 11 23 -3 2 0.58167680D-01 0.12523847D+00 0.12157331D+06 0.12157331D+06 0.12157331D+06 0.11148259D+01  1  2 12  4  7  2        3 0.174516878278D-04 0.100000000000D+01
  </mgrwgt>
  </event>
  <event>
  8     66 0.26562228E-05 0.42792559E+03 0.75467711E-02 0.93296159E-01
       -2 -1    0    0    0  501 0.00000000E+00 0.00000000E+00 0.45949349E+03 0.45949360E+03 0.32000000E+00 0.0000E+00 0.9000E+01
        1 -1    0    0  501    0 0.00000000E+00 0.00000000E+00 -.64773758E+03 0.64773766E+03 0.32000000E+00 0.0000E+00 0.9000E+01
       25  2    1    2    0    0 0.28912048E+03 -.24385791E+03 -.43380178E+03 0.64916671E+03 0.30029334E+03 0.0000E+00 0.0000E+00
       23  2    3    3    0    0 0.29539580E+03 -.19658791E+03 -.27442550E+03 0.45945671E+03 0.99426488E+02 0.0000E+00 0.0000E+00
      -24  1    1    2    0    0 -.28912048E+03 0.24385791E+03 0.24555769E+03 0.45806455E+03 0.80419002E+02 0.0000E+00 0.9000E+01
      -13  1    4    4    0    0 0.21265017E+03 -.18660876E+03 -.18983895E+03 0.34070773E+03 0.10565837E+00 0.0000E+00 0.9000E+01
       13  1    4    4    0    0 0.82745633E+02 -.99791530E+01 -.84586551E+02 0.11874898E+03 0.10565837E+00 0.0000E+00 0.9000E+01
       23  1    3    3    0    0 -.62753162E+01 -.47270005E+02 -.15937629E+03 0.18971000E+03 0.91188000E+02 0.0000E+00 0.9000E+01
#aMCatNLO 1  0  0  1  2 0.25516349D+03 0.00000000D+00  -5  7  0 0.00000000D+00 0.00000000D+00 0.00000000D+00 0.00000000D+00 0.00000000D+00
  <mgrwgt>
 0.1595592723D-02    3    2    0
 0.545555958751327D+03 0.000000000000000D+00 0.000000000000000D+00 0.545555958751327D+03
 0.545555958751327D+03 0.000000000000000D+00 0.000000000000000D+00 -.545555958751327D+03
 0.507196523046721D+03 -.289120482355824D+03 0.243857914307766D+03 0.328212981687370D+03
 0.312989379463705D+03 0.212650313364759D+03 -.186608952624779D+03 -.133862969798326D+03
 0.105909760980341D+03 0.827454865663111D+02 -.997895612988204D+01 -.653489277522999D+02
 0.165016254011888D+03 -.627531757524581D+01 -.472700055531043D+02 -.129001084136744D+03
 0.000000000000000D+00 -.000000000000000D+00 0.000000000000000D+00 -.000000000000000D+00
 0.580355881892070D+03 0.000000000000000D+00 0.000000000000000D+00 0.580355881892070D+03
 0.137086423351114D+04 0.000000000000000D+00 0.000000000000000D+00 -.137086423351114D+04
 0.434540767749395D+03 -.192836685430770D+03 0.193516702860046D+03 0.328212981687370D+03
 0.385723316582534D+03 0.284087126999060D+03 -.223959118022961D+03 -.133862969798326D+03
 0.126996659741376D+03 0.106557981552417D+03 -.224291282614028D+02 -.653489277522999D+02
 0.173289845470843D+03 0.283133050687253D+02 -.653543896531715D+02 -.129001084136744D+03
 0.830669525859064D+03 -.226121728189432D+03 0.118225933077490D+03 -.790508351619073D+03
0.250060788821D-03 0.000000000000D+00 0.000000000000D+00 0.328694283371D-06 0.000000000000D+00  7 -2 1 -24 -13 13 23 21 0 0.70691320D-01 0.99651950D-01 0.18312031D+06 0.18312031D+06 0.18312031D+06 0.11007786D+01  1  2  2  1  7  1       -2 0.157378270411D-02 0.100000000000D+01
-.128960523991D-04 0.000000000000D+00 -.960299271592D-06 0.328694283371D-06 0.000000000000D+00  7 -2 1 -24 -13 13 23 21 2 0.70691320D-01 0.99651950D-01 0.18312031D+06 0.18312031D+06 0.18312031D+06 0.11007786D+01  1  2  3  1  7  1       -2 -.983458202107D-04 0.100000000000D+01
0.157559924182D-04 0.000000000000D+00 0.000000000000D+00 0.328694283371D-06 0.000000000000D+00  7 -2 1 -24 -13 13 23 21 2 0.70691320D-01 0.99651950D-01 0.18312031D+06 0.18312031D+06 0.18312031D+06 0.11007786D+01  1  2 15  1  7  1       -2 0.120155839140D-03 0.100000000000D+01
  </mgrwgt>
  </event>
  <event>
  8     66 0.26562228E-05 0.15422904E+03 0.75467711E-02 0.10253762E+00
       -2 -1    0    0    0  501 0.00000000E+00 0.00000000E+00 0.12319578E+03 0.12319620E+03 0.32000000E+00 0.0000E+00 0.9000E+01
        1 -1    0    0  501    0 0.00000000E+00 0.00000000E+00 -.82381295E+03 0.82381301E+03 0.32000000E+00 0.0000E+00 0.9000E+01
       25  2    1    2    0    0 0.17167370E+03 0.46940689E+02 -.66136105E+03 0.74780191E+03 0.30022321E+03 0.0000E+00 0.0000E+00
       23  2    3    3    0    0 -.23370824E+01 0.71266650E+02 -.99994361E+02 0.15255464E+03 0.90496679E+02 0.0000E+00 0.0000E+00
      -24  1    1    2    0    0 -.17167370E+03 -.46940689E+02 -.39256123E+02 0.19920730E+03 0.80419002E+02 0.0000E+00 0.9000E+01
      -11  1    4    4    0    0 0.34572120E+02 0.62064136E+02 -.40036634E+02 0.81548271E+02 0.51099893E-03 0.0000E+00 0.9000E+01
       11  1    4    4    0    0 -.36909202E+02 0.92025134E+01 -.59957727E+02 0.71006369E+02 0.51099893E-03 0.0000E+00 0.9000E+01
       23  1    3    3    0    0 0.17401079E+03 -.24325960E+02 -.56136669E+03 0.59524727E+03 0.91188000E+02 0.0000E+00 0.9000E+01
#aMCatNLO 1  0  0  2  1 0.23359787D+02 0.00000000D+00  -5  7  0 0.00000000D+00 0.00000000D+00 0.00000000D+00 0.00000000D+00 0.00000000D+00
  <mgrwgt>
 0.9465895253D-03    9    2    0
 0.318575746423842D+03 0.000000000000000D+00 0.000000000000000D+00 0.318575746423842D+03
 0.318575746423842D+03 0.000000000000000D+00 0.000000000000000D+00 -.318575746423842D+03
 0.252918865290120D+03 -.171673703007758D+03 -.469406894946658D+02 0.160702980154822D+03
 0.771819753687660D+02 0.345721196965584D+02 0.620641364104734D+02 0.301640321100112D+02
 0.396079628963771D+02 -.369092021217883D+02 0.920251341765516D+01 -.110369955301086D+02
 0.267442689292420D+03 0.174010785432988D+03 -.243259603334628D+02 -.179830016734724D+03
 0.000000000000000D+00 -.000000000000000D+00 -.000000000000000D+00 -.000000000000000D+00
 0.323021930200902D+03 0.000000000000000D+00 0.000000000000000D+00 0.323021930200902D+03
 0.351023996911702D+03 0.000000000000000D+00 0.000000000000000D+00 -.351023996911702D+03
 0.249443816858343D+03 -.168727172419560D+03 -.382190433049667D+02 0.160702980154822D+03
 0.797952680751604D+02 0.354928454309628D+02 0.647894582263713D+02 0.301640321100112D+02
 0.395210995747375D+02 -.364450828484589D+02 0.105762931802047D+02 -.110369955301086D+02
 0.268819382686041D+03 0.177156147647429D+03 -.150157782221075D+02 -.179830016734724D+03
 0.364663599183217D+02 -.747673781037229D+01 -.221309298795018D+02 -.280020667108002D+02
0.112404081167D-04 0.000000000000D+00 0.000000000000D+00 0.275036559561D-05 0.000000000000D+00  7 -2 1 -24 -11 11 23 21 0 0.18953234D-01 0.12674049D+00 0.63086422D+05 0.63086422D+05 0.63086422D+05 0.11385190D+01  1  2  2  2  7  2        1 0.572913655235D-03 0.100000000000D+01
-.581557119648D-06 0.000000000000D+00 -.431661268356D-07 0.275036559561D-05 0.000000000000D+00  7 -2 1 -24 -11 11 23 21 2 0.18953234D-01 0.12674049D+00 0.63086422D+05 0.63086422D+05 0.63086422D+05 0.11385190D+01  1  2  3  2  7  2        1 -.384220038887D-04 0.100000000000D+01
0.735137364728D-06 0.000000000000D+00 0.000000000000D+00 0.275036559561D-05 0.000000000000D+00  7 -2 1 -24 -11 11 23 21 2 0.18953234D-01 0.12674049D+00 0.63086422D+05 0.63086422D+05 0.63086422D+05 0.11385190D+01  1  2 15  2  7  2        1 0.485686611547D-04 0.100000000000D+01
0.600075633070D-04 0.000000000000D+00 0.000000000000D+00 0.275036559561D-05 0.000000000000D+00  7 -2 1 -24 -11 11 23 21 2 0.18953234D-01 0.14047728D+00 0.69109743D+05 0.69109743D+05 0.69109743D+05 0.11351325D+01  1  2 12  2  7  2        1 0.333482677018D-02 0.100000000000D+01
-.611098600557D-04 0.000000000000D+00 0.000000000000D+00 0.275036559561D-05 0.000000000000D+00  7 -2 1 -24 -11 11 23 21 2 0.18953234D-01 0.12674049D+00 0.63086422D+05 0.63086422D+05 0.63086422D+05 0.11385190D+01  1  2  4  2  7  2        1 -.403737346061D-02 0.100000000000D+01
-.104024562004D-03 0.000000000000D+00 -.141513299713D-04 0.275036559561D-05 0.000000000000D+00  7 -2 1 -24 -11 11 23 21 2 0.18953234D-01 0.14067084D+00 0.63086422D+05 0.63086422D+05 0.63086422D+05 0.11385190D+01  1  2  5  2  7  2        1 -.580888493654D-02 0.100000000000D+01
0.105005415046D-03 0.000000000000D+00 0.140747324132D-04 0.275036559561D-05 0.000000000000D+00  7 -2 1 -24 -11 11 23 21 2 0.18953234D-01 0.12674049D+00 0.63086422D+05 0.63086422D+05 0.63086422D+05 0.11385190D+01  1  2  6  2  7  2        1 0.693744144626D-02 0.100000000000D+01
0.999015763622D-06 0.000000000000D+00 0.000000000000D+00 0.275036559561D-05 0.000000000000D+00  7 -2 21 -24 -11 11 23 -1 2 0.18953234D-01 0.14047728D+00 0.69109743D+05 0.69109743D+05 0.69109743D+05 0.11351325D+01  1  2 12  4  7  2        1 0.873946272956D-04 0.100000000000D+01
-.170125007704D-05 0.000000000000D+00 -.238301020849D-06 0.275036559561D-05 0.000000000000D+00  7 -2 21 -24 -11 11 23 -1 2 0.18953234D-01 0.14067084D+00 0.63086422D+05 0.63086422D+05 0.63086422D+05 0.11385190D+01  1  2  5  4  7  2        1 -.149875233790D-03 0.100000000000D+01
  </mgrwgt>
  </event>
  <event>
  8     66 0.26562228E-05 0.40371329E+03 0.75467711E-02 0.95365395E-01
       -2 -1    0    0    0  501 0.00000000E+00 0.00000000E+00 0.30340756E+03 0.30340773E+03 0.32000000E+00 0.0000E+00 0.9000E+01
        1 -1    0    0  501    0 0.00000000E+00 0.00000000E+00 -.58330926E+03 0.58330935E+03 0.32000000E+00 0.0000E+00 0.9000E+01
       25  2    1    2    0    0 0.14269092E+03 0.32912170E+03 -.20350223E+03 0.51123620E+03 0.30210513E+03 0.0000E+00 0.0000E+00
       23  2    3    3    0    0 0.14792732E+03 0.29428394E+03 -.75892083E+02 0.35048581E+03 0.92710125E+02 0.0000E+00 0.0000E+00
      -24  1    1    2    0    0 -.14269092E+03 -.32912170E+03 -.76399473E+02 0.37548087E+03 0.80419002E+02 0.0000E+00 0.9000E+01
      -13  1    4    4    0    0 0.16020869E+03 0.28379220E+03 -.70256284E+02 0.33337786E+03 0.10565837E+00 0.0000E+00 0.9000E+01
       13  1    4    4    0    0 -.12281375E+02 0.10491739E+02 -.56357986E+01 0.17107955E+02 0.10565837E+00 0.0000E+00 0.9000E+01
       23  1    3    3    0    0 -.52364012E+01 0.34837759E+02 -.12761014E+03 0.16075039E+03 0.91188000E+02 0.0000E+00 0.9000E+01
#aMCatNLO 1  0  0  1  1 0.12194154D+03 0.00000000D+00  -5  7  0 0.00000000D+00 0.00000000D+00 0.00000000D+00 0.00000000D+00 0.00000000D+00
  <mgrwgt>
 0.7564670982D-03    4    2    0
 0.420690566903685D+03 0.000000000000000D+00 0.000000000000000D+00 0.420690566903685D+03
 0.420690566903685D+03 0.000000000000000D+00 0.000000000000000D+00 -.420690566903685D+03
 0.370297058816819D+03 -.142690917226268D+03 -.329121698404289D+03 0.443948825273618D+02
 0.327969469095021D+03 0.160208915835834D+03 0.283792554073789D+03 0.368627480995673D+02
 0.161545168764967D+02 -.122815984697170D+02 0.104913839767449D+02 -.248227303421151D+00
 0.126960089019034D+03 -.523640013984845D+01 0.348377603537551D+02 -.810094033235079D+02
 0.000000000000000D+00 -.000000000000000D+00 0.000000000000000D+00 -.000000000000000D+00
 0.472273671476772D+03 0.000000000000000D+00 0.000000000000000D+00 0.472273671476772D+03
 0.503865418541515D+03 0.000000000000000D+00 0.000000000000000D+00 -.503865418541515D+03
 0.396402783168752D+03 -.106257402814766D+03 -.370683705201624D+03 0.443948825273618D+02
 0.315772866957980D+03 0.190799499521285D+03 0.248895946716369D+03 0.368627480995673D+02
 0.140065612908169D+02 -.108483464773474D+02 0.885638307136002D+01 -.248227303421151D+00
 0.123989507899116D+03 0.668870438632450D+01 0.212340418165380D+02 -.810094033235079D+02
 0.125967370701622D+03 -.803824546154960D+02 0.916973335973570D+02 -.315917470647432D+02
0.759546447937D-04 0.000000000000D+00 0.000000000000D+00 0.244050846826D-06 0.000000000000D+00  7 -2 1 -24 -13 13 23 21 0 0.46678106D-01 0.89739906D-01 0.16298442D+06 0.16298442D+06 0.16298442D+06 0.11047179D+01  1  2  2  1  7  1       -2 0.130482908561D-02 0.100000000000D+01
-.421099681959D-05 0.000000000000D+00 -.291685835325D-06 0.244050846826D-06 0.000000000000D+00  7 -2 1 -24 -13 13 23 21 2 0.46678106D-01 0.89739906D-01 0.16298442D+06 0.16298442D+06 0.16298442D+06 0.11047179D+01  1  2  3  1  7  1       -2 -.882850057901D-04 0.100000000000D+01
0.485620130473D-05 0.000000000000D+00 0.000000000000D+00 0.244050846826D-06 0.000000000000D+00  7 -2 1 -24 -13 13 23 21 2 0.46678106D-01 0.89739906D-01 0.16298442D+06 0.16298442D+06 0.16298442D+06 0.11047179D+01  1  2 15  1  7  1       -2 0.101811941133D-03 0.100000000000D+01
-.268008417244D-04 0.000000000000D+00 0.000000000000D+00 0.244050846826D-06 0.000000000000D+00  7 -2 1 -24 -13 13 23 21 2 0.46678106D-01 0.89739906D-01 0.16298442D+06 0.16298442D+06 0.16298442D+06 0.11047179D+01  1  2  4  1  7  1       -2 -.561888922786D-03 0.100000000000D+01
  </mgrwgt>
  </event>
  <event>
  8     66 0.26562228E-05 0.10880276E+03 0.75467711E-02 0.95748115E-01
       -4 -1    0    0    0  501 0.00000000E+00 0.00000000E+00 0.13944648E+04 0.13944656E+04 0.15500000E+01 0.0000E+00 0.9000E+01
        3 -1    0    0  501    0 0.00000000E+00 0.00000000E+00 -.14847631E+03 0.14847715E+03 0.50000000E+00 0.0000E+00 0.9000E+01
       25  2    1    2    0    0 -.34528373E+03 -.14726820E+03 0.44648060E+03 0.65604436E+03 0.30023407E+03 0.0000E+00 0.0000E+00
       23  2    3    3    0    0 -.46016022E+01 -.34778193E+02 0.15622346E+03 0.18563733E+03 0.93940148E+02 0.0000E+00 0.0000E+00
      -24  1    1    2    0    0 0.34528373E+03 0.14726820E+03 0.79950786E+03 0.88689842E+03 0.80419002E+02 0.0000E+00 0.9000E+01
      -13  1    4    4    0    0 -.29252916E+02 -.57981681E+02 0.11707458E+03 0.13388083E+03 0.10565837E+00 0.0000E+00 0.9000E+01
       13  1    4    4    0    0 0.24651314E+02 0.23203489E+02 0.39148874E+02 0.51756494E+02 0.10565837E+00 0.0000E+00 0.9000E+01
       23  1    3    3    0    0 -.34068212E+03 -.11249000E+03 0.29025715E+03 0.47040703E+03 0.91188000E+02 0.0000E+00 0.9000E+01
#aMCatNLO 1  0  0  1  2 0.52203186D+02 0.00000000D+00  -5  7  0 0.00000000D+00 0.00000000D+00 0.00000000D+00 0.00000000D+00 0.00000000D+00
  <mgrwgt>
 0.9468704325D-04    9    2    0
 0.455023395541208D+03 0.000000000000000D+00 0.000000000000000D+00 0.455023395541208D+03
 0.455023395541208D+03 0.000000000000000D+00 0.000000000000000D+00 -.455023395541208D+03
 0.409051429853036D+03 0.345283726475272D+03 0.147268196141516D+03 0.141234142285130D+03
 0.666964847275943D+02 -.292529832877424D+02 -.579817831144012D+02 0.151920002191884D+02
 0.341501401934258D+02 0.246513824489330D+02 0.232035908486812D+02 -.448718066430050D+01
 0.400148736308360D+03 -.340682125636463D+03 -.112490003875796D+03 -.151938961840018D+03
 0.000000000000000D+00 0.000000000000000D+00 -.000000000000000D+00 0.000000000000000D+00
 0.482695518838809D+03 0.000000000000000D+00 0.000000000000000D+00 0.482695518838809D+03
 0.481075626263430D+03 0.000000000000000D+00 0.000000000000000D+00 -.481075626263430D+03
 0.389977383824137D+03 0.322385697450259D+03 0.147429722486483D+03 0.141234142285130D+03
 0.684606691477471D+02 -.331262258784985D+02 -.579544606440623D+02 0.151920002191884D+02
 0.328016225215888D+02 0.227327239729402D+02 0.232171253712608D+02 -.448718066430050D+01
 0.420303156520210D+03 -.364194082820032D+03 -.112324146783784D+03 -.151938961840018D+03
 0.522283130885577D+02 0.522018872753316D+02 -.368240429897636D+00 0.161989257537887D+01
0.179106375218D-03 0.000000000000D+00 0.000000000000D+00 0.127218853229D-05 0.000000000000D+00  7 -4 3 -24 -13 13 23 21 0 0.21453317D+00 0.22842640D-01 0.18184832D+06 0.18184832D+06 0.18184832D+06 0.11010131D+01  1  2  2  1  7  1       -4 0.584982852194D-04 0.100000000000D+01
-.989942051063D-05 0.000000000000D+00 -.687815640629D-06 0.127218853229D-05 0.000000000000D+00  7 -4 3 -24 -13 13 23 21 2 0.21453317D+00 0.22842640D-01 0.18184832D+06 0.18184832D+06 0.18184832D+06 0.11010131D+01  1  2  3  1  7  1       -4 -.391946534547D-05 0.100000000000D+01
0.114571597130D-04 0.000000000000D+00 0.000000000000D+00 0.127218853229D-05 0.000000000000D+00  7 -4 3 -24 -13 13 23 21 2 0.21453317D+00 0.22842640D-01 0.18184832D+06 0.18184832D+06 0.18184832D+06 0.11010131D+01  1  2 15  1  7  1       -4 0.453621910537D-05 0.100000000000D+01
0.266608612798D-03 0.000000000000D+00 0.000000000000D+00 0.127218853229D-05 0.000000000000D+00  7 -4 3 -24 -13 13 23 21 2 0.23336733D+00 0.22842640D-01 0.20558678D+06 0.20558678D+06 0.20558678D+06 0.10969076D+01  1  2 12  1  7  1       -4 0.740591884113D-04 0.100000000000D+01
-.211671182542D-03 0.000000000000D+00 0.000000000000D+00 0.127218853229D-05 0.000000000000D+00  7 -4 3 -24 -13 13 23 21 2 0.21453317D+00 0.22842640D-01 0.18184832D+06 0.18184832D+06 0.18184832D+06 0.11010131D+01  1  2  4  1  7  1       -4 -.838067100712D-04 0.100000000000D+01
-.100450260368D-02 0.000000000000D+00 -.203468350776D-03 0.127218853229D-05 0.000000000000D+00  7 -4 3 -24 -13 13 23 21 2 0.23561359D+00 0.22842640D-01 0.18184832D+06 0.18184832D+06 0.18184832D+06 0.11010131D+01  1  2  5  1  7  1       -4 -.270170044001D-03 0.100000000000D+01
0.101998033533D-02 0.000000000000D+00 0.202577868020D-03 0.127218853229D-05 0.000000000000D+00  7 -4 3 -24 -13 13 23 21 2 0.21453317D+00 0.22842640D-01 0.18184832D+06 0.18184832D+06 0.18184832D+06 0.11010131D+01  1  2  6  1  7  1       -4 0.403839555364D-03 0.100000000000D+01
0.372421394105D-05 0.000000000000D+00 0.000000000000D+00 0.127218853229D-05 0.000000000000D+00  7 21 3 -24 -13 13 23 4 2 0.23336733D+00 0.22842640D-01 0.20558678D+06 0.20558678D+06 0.20558678D+06 0.10969076D+01  1  2 12  3  7  1       -4 0.304304915630D-04 0.100000000000D+01
-.148294426983D-04 0.000000000000D+00 -.312420393126D-05 0.127218853229D-05 0.000000000000D+00  7 21 3 -24 -13 13 23 4 2 0.23561359D+00 0.22842640D-01 0.18184832D+06 0.18184832D+06 0.18184832D+06 0.11010131D+01  1  2  5  3  7  1       -4 -.118780476995D-03 0.100000000000D+01
  </mgrwgt>
  </event>
  <event>
  8     66 0.26562228E-05 0.22161579E+03 0.75467711E-02 0.10147622E+00
       -2 -1    0    0    0  501 0.00000000E+00 0.00000000E+00 0.16878785E+03 0.16878815E+03 0.32000000E+00 0.0000E+00 0.9000E+01
        1 -1    0    0  501    0 0.00000000E+00 0.00000000E+00 -.54968622E+03 0.54968631E+03 0.32000000E+00 0.0000E+00 0.9000E+01
       25  2    1    2    0    0 0.26721394E+02 0.15759958E+03 -.51039661E+02 0.34320704E+03 0.29938998E+03 0.0000E+00 0.0000E+00
       23  2    3    3    0    0 -.42631375E+02 0.12499708E+03 -.12486614E+03 0.20307021E+03 0.90577319E+02 0.0000E+00 0.0000E+00
      -24  1    1    2    0    0 -.26721394E+02 -.15759958E+03 -.32985870E+03 0.37526743E+03 0.80419002E+02 0.0000E+00 0.9000E+01
      -11  1    4    4    0    0 0.13928813E+02 0.45720253E+02 -.41577101E+01 0.47975410E+02 0.51099893E-03 0.0000E+00 0.9000E+01
       11  1    4    4    0    0 -.56560189E+02 0.79276832E+02 -.12070843E+03 0.15509480E+03 0.51099893E-03 0.0000E+00 0.9000E+01
       23  1    3    3    0    0 0.69352769E+02 0.32602498E+02 0.73826483E+02 0.14013683E+03 0.91188000E+02 0.0000E+00 0.9000E+01
#aMCatNLO 1  0  0  2  2 0.11666075D+03 0.00000000D+00  -5  7  0 0.00000000D+00 0.00000000D+00 0.00000000D+00 0.00000000D+00 0.00000000D+00
  <mgrwgt>
 0.1169995532D-02    4    2    0
 0.304598912851462D+03 0.000000000000000D+00 0.000000000000000D+00 0.304598912851462D+03
 0.304598912851462D+03 0.000000000000000D+00 0.000000000000000D+00 -.304598912851462D+03
 0.236339357295452D+03 -.267213935791847D+02 -.157599583015237D+03 -.154393699389147D+03
 0.539815480616976D+02 0.139288133090140D+02 0.457202529543519D+02 0.250929105671319D+02
 0.107442944553695D+03 -.565601887412437D+02 0.792768317615808D+02 -.453884933630672D+02
 0.211433975792081D+03 0.693527690114145D+02 0.326024982993042D+02 0.174689282185082D+03
 0.000000000000000D+00 0.000000000000000D+00 -.000000000000000D+00 0.000000000000000D+00
 0.440511611236467D+03 0.000000000000000D+00 0.000000000000000D+00 0.440511611236467D+03
 0.336230433834159D+03 0.000000000000000D+00 0.000000000000000D+00 -.336230433834159D+03
 0.211545943614287D+03 -.330224976093982D+02 -.115570630117948D+03 -.154393699389147D+03
 0.632255730586123D+02 0.122798771600473D+02 0.567188112075174D+02 0.250929105671319D+02
 0.126014812405918D+03 -.598446046626299D+02 0.101184192978464D+03 -.453884933630672D+02
 0.219481131383969D+03 0.632904112760931D+02 0.730389910920920D+02 0.174689282185082D+03
 0.156474584607839D+03 0.172968138358878D+02 -.115371365160125D+03 0.104281177402308D+03
0.253335203716D-04 0.000000000000D+00 0.000000000000D+00 0.178190350227D-05 0.000000000000D+00  7 -2 1 -24 -11 11 23 21 0 0.25967392D-01 0.84567141D-01 0.49113559D+05 0.49113559D+05 0.49113559D+05 0.11479793D+01  1  2  2  2  7  2        1 0.139117348392D-02 0.100000000000D+01
-.123431777118D-05 0.000000000000D+00 -.972873886961D-07 0.178190350227D-05 0.000000000000D+00  7 -2 1 -24 -11 11 23 21 2 0.25967392D-01 0.84567141D-01 0.49113559D+05 0.49113559D+05 0.49113559D+05 0.11479793D+01  1  2  3  2  7  2        1 -.893266139163D-04 0.100000000000D+01
0.163231079063D-05 0.000000000000D+00 0.000000000000D+00 0.178190350227D-05 0.000000000000D+00  7 -2 1 -24 -11 11 23 21 2 0.25967392D-01 0.84567141D-01 0.49113559D+05 0.49113559D+05 0.49113559D+05 0.11479793D+01  1  2 15  2  7  2        1 0.118129058165D-03 0.100000000000D+01
-.345423644857D-05 0.000000000000D+00 0.000000000000D+00 0.178190350227D-05 0.000000000000D+00  7 -2 1 -24 -11 11 23 21 2 0.25967392D-01 0.84567141D-01 0.49113559D+05 0.49113559D+05 0.49113559D+05 0.11479793D+01  1  2  4  2  7  2        1 -.249980396314D-03 0.100000000000D+01
  </mgrwgt>
  </event>
  <event>
  8     66 0.26562228E-05 0.19724635E+03 0.75467711E-02 0.10409923E+00
       -2 -1    0    0    0  501 0.00000000E+00 0.00000000E+00 0.27196711E+03 0.27196730E+03 0.32000000E+00 0.0000E+00 0.9000E+01
        1 -1    0    0  501    0 0.00000000E+00 0.00000000E+00 -.17919508E+03 0.17919536E+03 0.32000000E+00 0.0000E+00 0.9000E+01
       25  2    1    2    0    0 0.15632348E+02 -.57586400E+02 -.12162519E+02 0.30611426E+03 0.29999574E+03 0.0000E+00 0.0000E+00
       23  2    3    3    0    0 0.77045666E+02 0.69325093E+02 -.71578526E+01 0.13813086E+03 0.91032395E+02 0.0000E+00 0.0000E+00
      -24  1    1    2    0    0 -.15632348E+02 0.57586400E+02 0.10493456E+03 0.14504841E+03 0.80419002E+02 0.0000E+00 0.9000E+01
      -11  1    4    4    0    0 0.68502501E+02 0.84652609E+02 -.26438102E+02 0.11206083E+03 0.51099893E-03 0.0000E+00 0.9000E+01
       11  1    4    4    0    0 0.85431646E+01 -.15327516E+02 0.19280249E+02 0.26070029E+02 0.51099893E-03 0.0000E+00 0.9000E+01
       23  1    3    3    0    0 -.61413318E+02 -.12691149E+03 -.50046668E+01 0.16798339E+03 0.91188000E+02 0.0000E+00 0.9000E+01
#aMCatNLO 1  0  0  2  2 0.67872162D+02 0.00000000D+00  -5  7  0 0.00000000D+00 0.00000000D+00 0.00000000D+00 0.00000000D+00 0.00000000D+00
  <mgrwgt>
 0.4388716701D-03    4    2    0
 0.220760672763851D+03 0.000000000000000D+00 0.000000000000000D+00 0.220760672763851D+03
 0.220760672763851D+03 0.000000000000000D+00 0.000000000000000D+00 -.220760672763851D+03
 0.126167023313470D+03 -.156323480671226D+02 0.575864002887213D+02 0.767485375307345D+02
 0.120063006309415D+03 0.685025012638409D+02 0.846526088021004D+02 -.505615330824787D+02
 0.225881623617977D+02 0.854316458422252D+01 -.153275160275769D+02 0.142234549317032D+02
 0.172703153543021D+03 -.614133177809408D+02 -.126911493063245D+03 -.404104593799590D+02
 0.000000000000000D+00 0.000000000000000D+00 -.000000000000000D+00 0.000000000000000D+00
 0.267041397682519D+03 0.000000000000000D+00 0.000000000000000D+00 0.267041397682519D+03
 0.249715046486825D+03 0.000000000000000D+00 0.000000000000000D+00 -.249715046486825D+03
 0.133945892548369D+03 -.331549872418059D+02 0.669678653093983D+02 0.767485375307345D+02
 0.118331879556825D+03 0.524429082510020D+02 0.932507719323401D+02 -.505615330824787D+02
 0.205835781793090D+02 0.563487827503104D+01 -.137704454283481D+02 0.142234549317032D+02
 0.173846304656794D+03 -.847587986929413D+02 -.114412530413643D+03 -.404104593799590D+02
 0.700487892280475D+02 0.598359994087142D+02 -.320356613997471D+02 0.173263511956941D+02
0.847113853189D-05 0.000000000000D+00 0.000000000000D+00 0.181562985243D-05 0.000000000000D+00  7 -2 1 -24 -11 11 23 21 0 0.41841131D-01 0.27568510D-01 0.38906121D+05 0.38906121D+05 0.38906121D+05 0.11570039D+01  1  2  2  2  7  2        1 0.868045254360D-03 0.100000000000D+01
-.463360653718D-06 0.000000000000D+00 -.325314024645D-07 0.181562985243D-05 0.000000000000D+00  7 -2 1 -24 -11 11 23 21 2 0.41841131D-01 0.27568510D-01 0.38906121D+05 0.38906121D+05 0.38906121D+05 0.11570039D+01  1  2  3  2  7  2        1 -.635608013182D-04 0.100000000000D+01
0.525971666876D-06 0.000000000000D+00 0.000000000000D+00 0.181562985243D-05 0.000000000000D+00  7 -2 1 -24 -11 11 23 21 2 0.41841131D-01 0.27568510D-01 0.38906121D+05 0.38906121D+05 0.38906121D+05 0.11570039D+01  1  2 15  2  7  2        1 0.721493729541D-04 0.100000000000D+01
-.319130272955D-05 0.000000000000D+00 0.000000000000D+00 0.181562985243D-05 0.000000000000D+00  7 -2 1 -24 -11 11 23 21 2 0.41841131D-01 0.27568510D-01 0.38906121D+05 0.38906121D+05 0.38906121D+05 0.11570039D+01  1  2  4  2  7  2        1 -.437762155918D-03 0.100000000000D+01
  </mgrwgt>
  </event>
  <event>
  8     66 0.26562228E-05 0.20357261E+03 0.75467711E-02 0.10343309E+00
       -2 -1    0    0    0  501 0.00000000E+00 0.00000000E+00 0.53721710E+02 0.53722663E+02 0.32000000E+00 0.0000E+00 0.9000E+01
        1 -1    0    0  501    0 0.00000000E+00 0.00000000E+00 -.10766028E+04 0.10766029E+04 0.32000000E+00 0.0000E+00 0.9000E+01
       25  2    1    2    0    0 0.10782242E+02 -.74217844E+02 -.44438005E+03 0.54146627E+03 0.30014586E+03 0.0000E+00 0.0000E+00
       23  2    3    3    0    0 -.43365825E+02 -.14938254E+03 -.25594968E+03 0.31254924E+03 0.89336756E+02 0.0000E+00 0.0000E+00
      -24  1    1    2    0    0 -.10782242E+02 0.74217844E+02 -.57850107E+03 0.58885928E+03 0.80419002E+02 0.0000E+00 0.9000E+01
      -13  1    4    4    0    0 -.48358772E+02 -.57311574E+02 -.60172998E+02 0.96145661E+02 0.10565837E+00 0.0000E+00 0.9000E+01
       13  1    4    4    0    0 0.49929463E+01 -.92070963E+02 -.19577668E+03 0.21640358E+03 0.10565837E+00 0.0000E+00 0.9000E+01
       23  1    3    3    0    0 0.54148068E+02 0.75164694E+02 -.18843038E+03 0.22891702E+03 0.91188000E+02 0.0000E+00 0.9000E+01
#aMCatNLO 1  0  0  2  2 0.77362902D+02 0.00000000D+00  -5  7  0 0.00000000D+00 0.00000000D+00 0.00000000D+00 0.00000000D+00 0.00000000D+00
  <mgrwgt>
 0.1036780346D-02    3    2    0
 0.240494304831858D+03 0.000000000000000D+00 0.000000000000000D+00 0.240494304831858D+03
 0.240494304831858D+03 0.000000000000000D+00 0.000000000000000D+00 -.240494304831858D+03
 0.153568834750221D+03 -.107822426343251D+02 0.742178450472199D+02 -.107199000799875D+03
 0.979775317046571D+02 -.483588451911745D+02 -.573115260605501D+02 0.630587645876764D+02
 0.922063926611548D+02 0.499302045359563D+01 -.920710108842009D+02 0.132472994979910D+00
 0.137235850547682D+03 0.541480673719040D+02 0.751646918975311D+02 0.440077632172189D+02
 0.000000000000000D+00 -.000000000000000D+00 -.000000000000000D+00 0.000000000000000D+00
 0.637745863004303D+03 0.000000000000000D+00 0.000000000000000D+00 0.637745863004303D+03
 0.247381285092375D+03 0.000000000000000D+00 0.000000000000000D+00 -.247381285092375D+03
 0.165713885459237D+03 -.302223760154575D+00 0.974790170648726D+02 -.107199000799875D+03
 0.876372855516832D+02 -.422662925253240D+02 -.437886577061575D+02 0.630587645876764D+02
 0.802195702429110D+02 0.106526670027298D+02 -.795090094680590D+02 0.132472994979910D+00
 0.153599722950165D+03 0.636943475387044D+02 0.963533622381870D+02 0.440077632172189D+02
 0.397956683892682D+03 -.317784982559557D+02 -.705347121288432D+02 0.390364577911928D+03
0.858260693141D-05 0.000000000000D+00 0.000000000000D+00 0.508770571336D-06 0.000000000000D+00  7 -2 1 -24 -13 13 23 21 0 0.82649554D-02 0.16563128D+00 0.41441806D+05 0.41441806D+05 0.41441806D+05 0.11545366D+01  1  2  2  2  7  2        1 0.102501375693D-02 0.100000000000D+01
-.460706438403D-06 0.000000000000D+00 -.329594704689D-07 0.508770571336D-06 0.000000000000D+00  7 -2 1 -24 -13 13 23 21 2 0.82649554D-02 0.16563128D+00 0.41441806D+05 0.41441806D+05 0.41441806D+05 0.11545366D+01  1  2  3  2  7  2        1 -.733415694687D-04 0.100000000000D+01
0.534620091657D-06 0.000000000000D+00 0.000000000000D+00 0.508770571336D-06 0.000000000000D+00  7 -2 1 -24 -13 13 23 21 2 0.82649554D-02 0.16563128D+00 0.41441806D+05 0.41441806D+05 0.41441806D+05 0.11545366D+01  1  2 15  2  7  2        1 0.851081585218D-04 0.100000000000D+01
  </mgrwgt>
  </event>
  <event>
  8     66 0.26562228E-05 0.19968234E+03 0.75467711E-02 0.92812356E-01
       -2 -1    0    0    0  501 0.00000000E+00 0.00000000E+00 0.26388121E+03 0.26388140E+03 0.32000000E+00 0.0000E+00 0.9000E+01
        1 -1    0    0  501    0 0.00000000E+00 0.00000000E+00 -.11962989E+04 0.11962989E+04 0.32000000E+00 0.0000E+00 0.9000E+01
       25  2    1    2    0    0 0.30859050E+03 -.26068634E+03 -.91917713E+03 0.10480784E+04 0.30065986E+03 0.0000E+00 0.0000E+00
       23  2    3    3    0    0 0.29980692E+03 -.17783504E+03 -.79587830E+03 0.87355239E+03 0.90343877E+02 0.0000E+00 0.0000E+00
      -24  1    1    2    0    0 -.30859050E+03 0.26068634E+03 -.13240570E+02 0.41210192E+03 0.80419002E+02 0.0000E+00 0.9000E+01
      -11  1    4    4    0    0 0.10364259E+03 -.83699786E+02 -.40298728E+03 0.42443632E+03 0.51099893E-03 0.0000E+00 0.9000E+01
       11  1    4    4    0    0 0.19616433E+03 -.94135257E+02 -.39289102E+03 0.44911607E+03 0.51099893E-03 0.0000E+00 0.9000E+01
       23  1    3    3    0    0 0.87835811E+01 -.82851298E+02 -.12329882E+03 0.17452604E+03 0.91188000E+02 0.0000E+00 0.9000E+01
#aMCatNLO 1  0  0  1  2 0.25645968D+03 0.00000000D+00  -5  7  0 0.00000000D+00 0.00000000D+00 0.00000000D+00 0.00000000D+00 0.00000000D+00
  <mgrwgt>
 0.1018424360D-02    9    2    0
 0.561854942681425D+03 0.000000000000000D+00 0.000000000000000D+00 0.561854942681425D+03
 0.561854942681425D+03 0.000000000000000D+00 0.000000000000000D+00 -.561854942681425D+03
 0.524510278895908D+03 -.308590498048171D+03 0.260686340361001D+03 0.324743519067992D+03
 0.217138876668134D+03 0.103642587440313D+03 -.836997855159554D+02 -.171469681675681D+03
 0.257585989748712D+03 0.196164329537492D+03 -.941352571373153D+02 -.137871865496996D+03
 0.124474740050095D+03 0.878358107036613D+01 -.828512977077299D+02 -.154019718953155D+02
 0.000000000000000D+00 0.000000000000000D+00 0.000000000000000D+00 0.000000000000000D+00
 0.726492287426168D+03 0.000000000000000D+00 0.000000000000000D+00 0.726492287426168D+03
 0.685782200894538D+03 0.000000000000000D+00 0.000000000000000D+00 -.685782200894538D+03
 0.511855358914484D+03 -.355555867281986D+03 0.153786750273865D+03 0.324743519067992D+03
 0.230696781065929D+03 0.833478514376927D+02 -.129893374430501D+03 -.171469681675681D+03
 0.265870898130269D+03 0.172442637964273D+03 -.148129064632493D+03 -.137871865496996D+03
 0.144180741325073D+03 -.339117986259108D+01 -.110562715170726D+03 -.154019718953155D+02
 0.259670708884950D+03 0.103156557742612D+03 0.234798403959854D+03 0.407100865316299D+02
0.125951106758D-03 0.000000000000D+00 0.000000000000D+00 0.448945339303D-05 0.000000000000D+00  7 -2 1 -24 -11 11 23 21 0 0.40597128D-01 0.18404600D+00 0.19634150D+06 0.19634150D+06 0.19634150D+06 0.10984417D+01  1  2  2  1  7  1       -2 0.865748778303D-03 0.100000000000D+01
-.651764674709D-05 0.000000000000D+00 -.483685413638D-06 0.448945339303D-05 0.000000000000D+00  7 -2 1 -24 -11 11 23 21 2 0.40597128D-01 0.18404600D+00 0.19634150D+06 0.19634150D+06 0.19634150D+06 0.10984417D+01  1  2  3  1  7  1       -2 -.540548601902D-04 0.100000000000D+01
0.796023269773D-05 0.000000000000D+00 0.000000000000D+00 0.448945339303D-05 0.000000000000D+00  7 -2 1 -24 -11 11 23 21 2 0.40597128D-01 0.18404600D+00 0.19634150D+06 0.19634150D+06 0.19634150D+06 0.10984417D+01  1  2 15  1  7  1       -2 0.660191142991D-04 0.100000000000D+01
0.257189382947D-04 0.000000000000D+00 0.000000000000D+00 0.448945339303D-05 0.000000000000D+00  7 -2 1 -24 -11 11 23 21 2 0.55862497D-01 0.18404600D+00 0.34640740D+06 0.34640740D+06 0.34640740D+06 0.10799604D+01  1  2 12  1  7  1       -2 0.107894753239D-03 0.100000000000D+01
-.522343555711D-04 0.000000000000D+00 0.000000000000D+00 0.448945339303D-05 0.000000000000D+00  7 -2 1 -24 -11 11 23 21 2 0.40597128D-01 0.18404600D+00 0.19634150D+06 0.19634150D+06 0.19634150D+06 0.10984417D+01  1  2  4  1  7  1       -2 -.433211693896D-03 0.100000000000D+01
-.701436099318D-04 0.000000000000D+00 -.475148102574D-04 0.448945339303D-05 0.000000000000D+00  7 -2 1 -24 -11 11 23 21 2 0.63539817D-01 0.18404600D+00 0.19634150D+06 0.19634150D+06 0.19634150D+06 0.10984417D+01  1  2  5  1  7  1       -2 -.239154624196D-03 0.100000000000D+01
0.869558968447D-04 0.000000000000D+00 0.431158103181D-04 0.448945339303D-05 0.000000000000D+00  7 -2 1 -24 -11 11 23 21 2 0.40597128D-01 0.18404600D+00 0.19634150D+06 0.19634150D+06 0.19634150D+06 0.10984417D+01  1  2  6  1  7  1       -2 0.721178828655D-03 0.100000000000D+01
0.103966274977D-05 0.000000000000D+00 0.000000000000D+00 0.448945339303D-05 0.000000000000D+00  7 21 1 -24 -11 11 23 2 2 0.55862497D-01 0.18404600D+00 0.34640740D+06 0.34640740D+06 0.34640740D+06 0.10799604D+01  1  2 12  3  7  1       -2 0.444048712217D-04 0.100000000000D+01
-.175239720564D-05 0.000000000000D+00 -.246066843264D-05 0.448945339303D-05 0.000000000000D+00  7 21 1 -24 -11 11 23 2 2 0.63539817D-01 0.18404600D+00 0.19634150D+06 0.19634150D+06 0.19634150D+06 0.10984417D+01  1  2  5  3  7  1       -2 -.604008071113D-04 0.100000000000D+01
  </mgrwgt>
  </event>
  <event>
  8     66 -.26562228E-05 0.84979012E+02 0.75467711E-02 0.10618121E+00
       -2 -1    0    0    0  501 0.00000000E+00 0.00000000E+00 0.18515720E+03 0.18515748E+03 0.32000000E+00 0.0000E+00 0.9000E+01
        1 -1    0    0  501    0 0.00000000E+00 0.00000000E+00 -.27391017E+04 0.27391017E+04 0.32000000E+00 0.0000E+00 0.9000E+01
       25  2    1    2    0    0 -.54396664E+01 0.67433873E+02 -.27148279E+04 0.27320936E+04 0.29911156E+03 0.0000E+00 0.0000E+00
       23  2    3    3    0    0 -.45939883E+02 0.31515806E+02 -.49985541E+03 0.51458397E+03 0.10880031E+03 0.0000E+00 0.0000E+00
      -24  1    1    2    0    0 0.54396664E+01 -.67433873E+02 0.16088345E+03 0.19216560E+03 0.80419002E+02 0.0000E+00 0.9000E+01
      -13  1    4    4    0    0 -.34729101E+02 0.62729815E+02 -.19207730E+03 0.20502400E+03 0.10565837E+00 0.0000E+00 0.9000E+01
       13  1    4    4    0    0 -.11210782E+02 -.31214009E+02 -.30777811E+03 0.30955997E+03 0.10565837E+00 0.0000E+00 0.9000E+01
       23  1    3    3    0    0 0.40500216E+02 0.35918067E+02 -.22149725E+04 0.22175096E+04 0.91188000E+02 0.0000E+00 0.9000E+01
#aMCatNLO 1  0  0  1  2 0.80950410D+02 0.00000000D+00  -5  7  0 0.00000000D+00 0.00000000D+00 0.00000000D+00 0.00000000D+00 0.00000000D+00
  <mgrwgt>
 -.2827884672D-02    9    2    0
 0.712155066331872D+03 0.000000000000000D+00 0.000000000000000D+00 0.712155066331872D+03
 0.712155066331872D+03 0.000000000000000D+00 0.000000000000000D+00 -.712155066331872D+03
 0.683017975806216D+03 0.543966642965753D+01 -.674338725729814D+02 0.674884747330235D+03
 0.765202261711142D+02 -.347291235581742D+02 0.627298978414220D+02 -.267243878688418D+02
 0.836793556052859D+02 -.112107615040204D+02 -.312140933280355D+02 -.768259966334609D+02
 0.581092575081129D+03 0.405002186325372D+02 0.359180680595949D+02 -.571334362827933D+03
 0.000000000000000D+00 0.000000000000000D+00 0.000000000000000D+00 0.000000000000000D+00
 0.932411665382023D+03 0.000000000000000D+00 0.000000000000000D+00 0.932411665382023D+03
 0.720781233403419D+03 0.000000000000000D+00 0.000000000000000D+00 -.720781233403419D+03
 0.685448640735940D+03 -.298271080238293D+02 -.837469078851078D+02 0.674884747330235D+03
 0.769383968869778D+02 -.386839081191651D+02 0.609005686443222D+02 -.267243878688418D+02
 0.851374748259531D+02 -.155613426660328D+02 -.332265026062864D+02 -.768259966334609D+02
 0.579084166528995D+03 0.106012857846674D+02 0.220879870584113D+02 -.571334362827933D+03
 0.226584219807575D+03 0.734710730243598D+02 0.339848547886607D+02 0.211630431978604D+03
0.919994528416D-03 0.000000000000D+00 0.000000000000D+00 0.702770581403D-07 0.000000000000D+00  7 -2 1 -24 -13 13 23 21 0 0.28485746D-01 0.42140028D+00 0.24964720D+05 0.24964720D+05 0.24964720D+05 0.11748126D+01  1  2  2  1  7  1       -2 0.124338402441D-02 0.100000000000D+01
0.897736857927D-04 0.000000000000D+00 -.353302122924D-05 0.702770581403D-07 0.000000000000D+00  7 -2 1 -24 -13 13 23 21 2 0.28485746D-01 0.42140028D+00 0.24964720D+05 0.24964720D+05 0.24964720D+05 0.11748126D+01  1  2  3  1  7  1       -2 0.167458141631D-03 0.100000000000D+01
0.570628265310D-04 0.000000000000D+00 0.000000000000D+00 0.702770581403D-07 0.000000000000D+00  7 -2 1 -24 -13 13 23 21 2 0.28485746D-01 0.42140028D+00 0.24964720D+05 0.24964720D+05 0.24964720D+05 0.11748126D+01  1  2 15  1  7  1       -2 0.106441378704D-03 0.100000000000D+01
0.346301006513D-02 0.000000000000D+00 0.000000000000D+00 0.702770581403D-07 0.000000000000D+00  7 -2 1 -24 -13 13 23 21 2 0.37430543D-01 0.42140028D+00 0.40821582D+05 0.40821582D+05 0.40821582D+05 0.11551244D+01  1  2 12  1  7  1       -2 0.373330068666D-02 0.100000000000D+01
-.582786994407D-02 0.000000000000D+00 0.000000000000D+00 0.702770581403D-07 0.000000000000D+00  7 -2 1 -24 -13 13 23 21 2 0.28485746D-01 0.42140028D+00 0.24964720D+05 0.24964720D+05 0.24964720D+05 0.11748126D+01  1  2  4  1  7  1       -2 -.108709390941D-01 0.100000000000D+01
-.526728314485D-02 0.000000000000D+00 -.494674979706D-03 0.702770581403D-07 0.000000000000D+00  7 -2 1 -24 -13 13 23 21 2 0.37567821D-01 0.42140028D+00 0.24964720D+05 0.24964720D+05 0.24964720D+05 0.11748126D+01  1  2  5  1  7  1       -2 -.604713796778D-02 0.100000000000D+01
0.522131568210D-02 0.000000000000D+00 0.476318313352D-03 0.702770581403D-07 0.000000000000D+00  7 -2 1 -24 -13 13 23 21 2 0.28485746D-01 0.42140028D+00 0.24964720D+05 0.24964720D+05 0.24964720D+05 0.11748126D+01  1  2  6  1  7  1       -2 0.973951123062D-02 0.100000000000D+01
0.125038851431D-03 0.000000000000D+00 0.000000000000D+00 0.702770581403D-07 0.000000000000D+00  7 21 1 -24 -13 13 23 2 2 0.37430543D-01 0.42140028D+00 0.40821582D+05 0.40821582D+05 0.40821582D+05 0.11551244D+01  1  2 12  3  7  1       -2 0.157255807885D-02 0.100000000000D+01
-.182269444418D-03 0.000000000000D+00 -.180353073045D-04 0.702770581403D-07 0.000000000000D+00  7 21 1 -24 -13 13 23 2 2 0.37567821D-01 0.42140028D+00 0.24964720D+05 0.24964720D+05 0.24964720D+05 0.11748126D+01  1  2  5  3  7  1       -2 -.247246115054D-02 0.100000000000D+01
  </mgrwgt>
  </event>
  <event>
  8     66 0.26562228E-05 0.16549818E+03 0.75467711E-02 0.10098646E+00
       -2 -1    0    0    0  501 0.00000000E+00 0.00000000E+00 0.47320964E+02 0.47322046E+02 0.32000000E+00 0.0000E+00 0.9000E+01
        1 -1    0    0  501    0 0.00000000E+00 0.00000000E+00 -.12623463E+04 0.12623463E+04 0.32000000E+00 0.0000E+00 0.9000E+01
       25  2    1    2    0    0 0.61106548E+02 0.11284830E+03 -.94998510E+03 0.10044106E+04 0.29983378E+03 0.0000E+00 0.0000E+00
       23  2    3    3    0    0 0.10472533E+03 -.32284649E+02 -.52536838E+03 0.54443154E+03 0.91564541E+02 0.0000E+00 0.0000E+00
      -24  1    1    2    0    0 -.61106548E+02 -.11284830E+03 -.26504024E+03 0.30525775E+03 0.80419002E+02 0.0000E+00 0.9000E+01
      -11  1    4    4    0    0 0.90664795E+02 -.51355756E+02 -.29526953E+03 0.31311598E+03 0.51099893E-03 0.0000E+00 0.9000E+01
       11  1    4    4    0    0 0.14060532E+02 0.19071108E+02 -.23009885E+03 0.23131556E+03 0.51099893E-03 0.0000E+00 0.9000E+01
       23  1    3    3    0    0 -.43618778E+02 0.14513295E+03 -.42461671E+03 0.45997910E+03 0.91188000E+02 0.0000E+00 0.9000E+01
#aMCatNLO 1  0  0  1  2 0.11861195D+03 0.00000000D+00  -5  7  0 0.00000000D+00 0.00000000D+00 0.00000000D+00 0.00000000D+00 0.00000000D+00
  <mgrwgt>
 0.1411821412D-02    9    2    0
 0.244409858115274D+03 0.000000000000000D+00 0.000000000000000D+00 0.244409858115274D+03
 0.244409858115274D+03 0.000000000000000D+00 0.000000000000000D+00 -.244409858115274D+03
 0.159068497143606D+03 -.611065482385460D+02 -.112848298967613D+03 0.486499949808971D+02
 0.104983765461573D+03 0.906647948751680D+02 -.513557561348267D+02 -.128090707139320D+02
 0.478105481755822D+02 0.140605315431949D+02 0.190711075308999D+02 -.415264111995888D+02
 0.176956905449786D+03 -.436187781798169D+02 0.145132947571540D+03 0.568548693262361D+01
 0.000000000000000D+00 0.000000000000000D+00 -.000000000000000D+00 0.000000000000000D+00
 0.322485231113563D+03 0.000000000000000D+00 0.000000000000000D+00 0.322485231113563D+03
 0.301052125720329D+03 0.000000000000000D+00 0.000000000000000D+00 -.301052125720329D+03
 0.143481149684194D+03 -.741398511415385D+02 -.790954159316257D+02 0.486499949808971D+02
 0.884806295211963D+02 0.823306914075486D+02 -.297725840374614D+02 -.128090707139320D+02
 0.522858929148341D+02 0.974855415395852D+01 0.302380135374582D+02 -.415264111995888D+02
 0.218756811461516D+03 -.606654242078305D+02 0.189279351121120D+03 0.568548693262361D+01
 0.120532873252150D+03 0.427260297878619D+02 -.110649364689492D+03 0.214331053932341D+02
0.106594597514D-04 0.000000000000D+00 0.000000000000D+00 0.160212409537D-05 0.000000000000D+00  7 -2 1 -24 -11 11 23 21 0 0.72802346D-02 0.19420721D+00 0.52030798D+05 0.52030798D+05 0.52030798D+05 0.11457776D+01  1  2  2  1  7  1       -2 0.114270969010D-02 0.100000000000D+01
-.588759125412D-06 0.000000000000D+00 -.409351321454D-07 0.160212409537D-05 0.000000000000D+00  7 -2 1 -24 -11 11 23 21 2 0.72802346D-02 0.19420721D+00 0.52030798D+05 0.52030798D+05 0.52030798D+05 0.11457776D+01  1  2  3  1  7  1       -2 -.828588766597D-04 0.100000000000D+01
0.699442878937D-06 0.000000000000D+00 0.000000000000D+00 0.160212409537D-05 0.000000000000D+00  7 -2 1 -24 -11 11 23 21 2 0.72802346D-02 0.19420721D+00 0.52030798D+05 0.52030798D+05 0.52030798D+05 0.11457776D+01  1  2 15  1  7  1       -2 0.984359286080D-04 0.100000000000D+01
0.272588125782D-05 0.000000000000D+00 0.000000000000D+00 0.160212409537D-05 0.000000000000D+00  7 -2 1 -24 -11 11 23 21 2 0.10224021D-01 0.19420721D+00 0.87496334D+05 0.87496334D+05 0.87496334D+05 0.11265138D+01  1  2 12  1  7  1       -2 0.220549622599D-03 0.100000000000D+01
-.430125265801D-05 0.000000000000D+00 0.000000000000D+00 0.160212409537D-05 0.000000000000D+00  7 -2 1 -24 -11 11 23 21 2 0.72802346D-02 0.19420721D+00 0.52030798D+05 0.52030798D+05 0.52030798D+05 0.11457776D+01  1  2  4  1  7  1       -2 -.605335778401D-03 0.100000000000D+01
-.622308019180D-05 0.000000000000D+00 -.390910602172D-05 0.160212409537D-05 0.000000000000D+00  7 -2 1 -24 -11 11 23 21 2 0.11997209D-01 0.19420721D+00 0.52030798D+05 0.52030798D+05 0.52030798D+05 0.11457776D+01  1  2  5  1  7  1       -2 -.409011707783D-03 0.100000000000D+01
0.764377763843D-05 0.000000000000D+00 0.346745226092D-05 0.160212409537D-05 0.000000000000D+00  7 -2 1 -24 -11 11 23 21 2 0.72802346D-02 0.19420721D+00 0.52030798D+05 0.52030798D+05 0.52030798D+05 0.11457776D+01  1  2  6  1  7  1       -2 0.107574524321D-02 0.100000000000D+01
0.115215386003D-06 0.000000000000D+00 0.000000000000D+00 0.160212409537D-05 0.000000000000D+00  7 21 1 -24 -11 11 23 2 2 0.10224021D-01 0.19420721D+00 0.87496334D+05 0.87496334D+05 0.87496334D+05 0.11265138D+01  1  2 12  3  7  1       -2 0.135745558220D-03 0.100000000000D+01
-.174477874665D-06 0.000000000000D+00 -.220234605752D-06 0.160212409537D-05 0.000000000000D+00  7 21 1 -24 -11 11 23 2 2 0.11997209D-01 0.19420721D+00 0.52030798D+05 0.52030798D+05 0.52030798D+05 0.11457776D+01  1  2  5  3  7  1       -2 -.164158267419D-03 0.100000000000D+01
  </mgrwgt>
  </event>
  <event>
  8     66 0.26562228E-05 0.24994157E+03 0.75467711E-02 0.94969466E-01
       -2 -1    0    0    0  501 0.00000000E+00 0.00000000E+00 0.21463639E+03 0.21463663E+03 0.32000000E+00 0.0000E+00 0.9000E+01
        1 -1    0    0  501    0 0.00000000E+00 0.00000000E+00 -.31444371E+03 0.31444387E+03 0.32000000E+00 0.0000E+00 0.9000E+01
       25  2    1    2    0    0 0.10309038E+03 0.11398880E+03 -.11376017E+03 0.35506047E+03 0.29917467E+03 0.0000E+00 0.0000E+00
       23  2    3    3    0    0 0.35451565E+02 0.17550114E+03 -.10075529E+03 0.22527928E+03 0.92421108E+02 0.0000E+00 0.0000E+00
      -24  1    1    2    0    0 -.10309038E+03 -.11398880E+03 0.13952852E+02 0.17402003E+03 0.80419002E+02 0.0000E+00 0.9000E+01
      -11  1    4    4    0    0 0.19530561E+02 0.17975743E+03 -.77376188E+02 0.19667549E+03 0.51099893E-03 0.0000E+00 0.9000E+01
       11  1    4    4    0    0 0.15921004E+02 -.42562820E+01 -.23379103E+02 0.28603789E+02 0.51099893E-03 0.0000E+00 0.9000E+01
       23  1    3    3    0    0 0.67638818E+02 -.61512344E+02 -.13004879E+02 0.12978119E+03 0.91188000E+02 0.0000E+00 0.9000E+01
#aMCatNLO 1  0  0  2  2 0.35599777D+03 0.00000000D+00  -5  7  0 0.00000000D+00 0.00000000D+00 0.00000000D+00 0.00000000D+00 0.00000000D+00
  <mgrwgt>
 0.1380012171D-02    5    2    0
 0.259790624318774D+03 0.000000000000000D+00 0.000000000000000D+00 0.259790624318774D+03
 0.259790624318774D+03 0.000000000000000D+00 0.000000000000000D+00 -.259790624318774D+03
 0.179881784027206D+03 -.103090382652861D+03 -.113988799285654D+03 0.476357734516974D+02
 0.185407879735789D+03 0.195305607636701D+02 0.179757425040932D+03 -.410110620080845D+02
 0.246358035567779D+02 0.159210041495502D+02 -.425628195446023D+01 -.183119771647491D+02
 0.129655781317776D+03 0.676388177396413D+02 -.615123438008187D+02 0.116872657211363D+02
 0.000000000000000D+00 -.000000000000000D+00 0.000000000000000D+00 -.000000000000000D+00
 0.363010897872050D+03 0.000000000000000D+00 0.000000000000000D+00 0.363010897872050D+03
 0.973751271109527D+03 0.000000000000000D+00 0.000000000000000D+00 -.973751271109527D+03
 0.213909429476477D+03 -.948266205685833D+01 -.192174244560907D+03 0.476357734516974D+02
 0.156069546855046D+03 0.100702822718819D+03 0.111958643011474D+03 -.410110620080845D+02
 0.401054246888410D+02 0.313105776007650D+02 -.171103568664268D+02 -.183119771647491D+02
 0.219756121821750D+03 0.150697176281957D+03 -.130886479877580D+03 0.116872657211363D+02
 0.706921646139462D+03 -.273227914544683D+03 0.228212438293440D+03 -.610740373237477D+03
0.186572310523D-04 0.000000000000D+00 0.000000000000D+00 0.403092818362D-06 0.000000000000D+00  7 -2 1 -24 -11 11 23 21 0 0.33021014D-01 0.48375986D-01 0.62470790D+05 0.62470790D+05 0.62470790D+05 0.11388850D+01  1  2  2  2  7  2        1 0.142404617482D-02 0.100000000000D+01
-.103463036208D-05 0.000000000000D+00 -.716486798026D-07 0.403092818362D-06 0.000000000000D+00  7 -2 1 -24 -11 11 23 21 2 0.33021014D-01 0.48375986D-01 0.62470790D+05 0.62470790D+05 0.62470790D+05 0.11388850D+01  1  2  3  2  7  2        1 -.102428744480D-03 0.100000000000D+01
0.119473461111D-05 0.000000000000D+00 0.000000000000D+00 0.403092818362D-06 0.000000000000D+00  7 -2 1 -24 -11 11 23 21 2 0.33021014D-01 0.48375986D-01 0.62470790D+05 0.62470790D+05 0.62470790D+05 0.11388850D+01  1  2 15  2  7  2        1 0.118279117537D-03 0.100000000000D+01
-.534664502570D-05 0.000000000000D+00 -.767406278548D-05 0.403092818362D-06 0.000000000000D+00  7 -2 1 -24 -11 11 23 21 2 0.33021014D-01 0.21864520D+00 0.62470790D+05 0.62470790D+05 0.62470790D+05 0.11388850D+01  1  2  5  2  7  2        1 -.509315231157D-04 0.100000000000D+01
-.104888339527D-05 0.000000000000D+00 -.140024094225D-05 0.403092818362D-06 0.000000000000D+00  7 -2 21 -24 -11 11 23 -1 2 0.33021014D-01 0.21864520D+00 0.62470790D+05 0.62470790D+05 0.62470790D+05 0.11388850D+01  1  2  5  4  7  2        1 -.895285337410D-05 0.100000000000D+01
  </mgrwgt>
  </event>
  <event>
  8     66 0.26562228E-05 0.95391075E+03 0.75467711E-02 0.84300406E-01
       -2 -1    0    0    0  501 0.00000000E+00 0.00000000E+00 0.19146944E+04 0.19146944E+04 0.32000000E+00 0.0000E+00 0.9000E+01
        1 -1    0    0  501    0 0.00000000E+00 0.00000000E+00 -.53504816E+03 0.53504826E+03 0.32000000E+00 0.0000E+00 0.9000E+01
       25  2    1    2    0    0 -.90093274E+03 0.23773616E+03 0.30520403E+03 0.10252808E+04 0.29975485E+03 0.0000E+00 0.0000E+00
       23  2    3    3    0    0 -.36848115E+03 0.21585980E+03 0.10633696E+03 0.44921951E+03 0.90093326E+02 0.0000E+00 0.0000E+00
      -24  1    1    2    0    0 0.90093274E+03 -.23773616E+03 0.10744422E+04 0.14244618E+04 0.80419002E+02 0.0000E+00 0.9000E+01
      -11  1    4    4    0    0 -.10244036E+03 0.27811769E+02 0.54527526E+02 0.11933471E+03 0.51099893E-03 0.0000E+00 0.9000E+01
       11  1    4    4    0    0 -.26604079E+03 0.18804803E+03 0.51809438E+02 0.32988480E+03 0.51099893E-03 0.0000E+00 0.9000E+01
       23  1    3    3    0    0 -.53245159E+03 0.21876364E+02 0.19886706E+03 0.57606131E+03 0.91188000E+02 0.0000E+00 0.9000E+01
#aMCatNLO 1  0  0  1  2 0.74960879D+03 0.00000000D+00  -5  7  0 0.00000000D+00 0.00000000D+00 0.00000000D+00 0.00000000D+00 0.00000000D+00
  <mgrwgt>
 0.1482113062D-02    3    2    0
 0.101215307373804D+04 0.000000000000000D+00 0.000000000000000D+00 0.101215307373804D+04
 0.101215307373804D+04 0.000000000000000D+00 0.000000000000000D+00 -.101215307373804D+04
 0.991556940788809D+03 0.900932742488757D+03 -.237736161992188D+03 0.329423225752228D+03
 0.107251879189325D+03 -.102440362516849D+03 0.278117692453116D+02 -.153441587747144D+02
 0.363904519117324D+03 -.266040785282070D+03 0.188048028545014D+03 -.162131855478324D+03
 0.561592808380613D+03 -.532451594689838D+03 0.218763642018617D+02 -.151947211499189D+03
 0.000000000000000D+00 -.000000000000000D+00 0.000000000000000D+00 -.000000000000000D+00
 0.110162460847810D+04 0.000000000000000D+00 0.000000000000000D+00 0.110162460847810D+04
 0.737756313669291D+04 0.000000000000000D+00 0.000000000000000D+00 -.737756313669291D+04
 0.140140342183065D+04 0.130608554834664D+04 -.378266061786313D+03 0.329423225752228D+03
 0.751548440880995D+02 -.715570278416797D+02 0.170996826832544D+02 -.153441587747144D+02
 0.272157867207341D+03 -.158348880081432D+03 0.150694387085123D+03 -.162131855478324D+03
 0.409924345585135D+03 -.367963746492713D+03 -.351773214453301D+02 -.151947211499189D+03
 0.632054726645979D+04 -.708215893930815D+03 0.245649313463265D+03 -.627593852821481D+04
0.117486704464D-01 0.000000000000D+00 0.000000000000D+00 0.321721367473D-04 0.000000000000D+00  7 -2 1 -24 -11 11 23 21 0 0.29456837D+00 0.82315111D-01 0.90994571D+06 0.90994571D+06 0.90994571D+06 0.10506031D+01  1  2  2  1  7  1       -2 0.146941264278D-02 0.100000000000D+01
-.649916547108D-03 0.000000000000D+00 -.451179880100D-04 0.321721367473D-04 0.000000000000D+00  7 -2 1 -24 -11 11 23 21 2 0.29456837D+00 0.82315111D-01 0.90994571D+06 0.90994571D+06 0.90994571D+06 0.10506031D+01  1  2  3  1  7  1       -2 -.897201523837D-04 0.100000000000D+01
0.741916086624D-03 0.000000000000D+00 0.000000000000D+00 0.321721367473D-04 0.000000000000D+00  7 -2 1 -24 -11 11 23 21 2 0.29456837D+00 0.82315111D-01 0.90994571D+06 0.90994571D+06 0.90994571D+06 0.10506031D+01  1  2 15  1  7  1       -2 0.102420571755D-03 0.100000000000D+01
  </mgrwgt>
  </event>
  <event>
  8     66 0.26562228E-05 0.34643392E+03 0.75467711E-02 0.93402962E-01
       -2 -1    0    0    0  501 0.00000000E+00 0.00000000E+00 0.54153638E+02 0.54154583E+02 0.32000000E+00 0.0000E+00 0.9000E+01
        1 -1    0    0  501    0 0.00000000E+00 0.00000000E+00 -.23631487E+04 0.23631487E+04 0.32000000E+00 0.0000E+00 0.9000E+01
       25  2    1    2    0    0 -.28116772E+03 0.33469634E+02 -.11552824E+04 0.12266331E+04 0.29962601E+03 0.0000E+00 0.0000E+00
       23  2    3    3    0    0 -.27389968E+03 -.34728358E+02 -.72108318E+03 0.77769208E+03 0.92827406E+02 0.0000E+00 0.0000E+00
      -24  1    1    2    0    0 0.28116772E+03 -.33469634E+02 -.11537126E+04 0.11906702E+04 0.80419002E+02 0.0000E+00 0.9000E+01
      -11  1    4    4    0    0 -.23171594E+03 -.31771630E+01 -.64314672E+03 0.68362276E+03 0.51099893E-03 0.0000E+00 0.9000E+01
       11  1    4    4    0    0 -.42183744E+02 -.31551195E+02 -.77936463E+02 0.94069328E+02 0.51099893E-03 0.0000E+00 0.9000E+01
       23  1    3    3    0    0 -.72680351E+01 0.68197992E+02 -.43419925E+03 0.44894101E+03 0.91188000E+02 0.0000E+00 0.9000E+01
#aMCatNLO 1  0  0  2  2 0.34199275D+03 0.00000000D+00  -5  7  0 0.00000000D+00 0.00000000D+00 0.00000000D+00 0.00000000D+00 0.00000000D+00
  <mgrwgt>
 0.1007049438D-02    3    2    0
 0.357734910481394D+03 0.000000000000000D+00 0.000000000000000D+00 0.357734910481394D+03
 0.357734910481394D+03 0.000000000000000D+00 0.000000000000000D+00 -.357734910481394D+03
 0.299515451468803D+03 0.281167716611356D+03 -.334696337334014D+02 -.553785921408130D+02
 0.234113224803272D+03 -.231715937339462D+03 -.317716300737250D+01 0.332660795091091D+02
 0.663049468784468D+02 -.421837441598687D+02 -.315511953037094D+02 0.402666087983031D+02
 0.115536197812267D+03 -.726803511202546D+01 0.681979920444833D+02 -.181540961665992D+02
 0.000000000000000D+00 0.000000000000000D+00 0.000000000000000D+00 0.000000000000000D+00
 0.720316767482590D+03 0.000000000000000D+00 0.000000000000000D+00 0.720316767482590D+03
 0.486800105795019D+03 0.000000000000000D+00 0.000000000000000D+00 -.486800105795019D+03
 0.200042134598196D+03 0.168554095078396D+03 -.455232712470973D+02 -.553785921408130D+02
 0.369776005844859D+03 -.367848697935591D+03 -.177481796182203D+02 0.332660795091091D+02
 0.951446149495430D+02 -.785787872128654D+02 -.354467511901505D+02 0.402666087983031D+02
 0.128041725596890D+03 -.621770042591868D+02 0.623207917436575D+02 -.181540961665992D+02
 0.414112392288121D+03 0.340050394329248D+03 0.363974103118107D+02 0.233516661687571D+03
0.614921341836D-04 0.000000000000D+00 0.000000000000D+00 0.118091965743D-05 0.000000000000D+00  7 -2 1 -24 -11 11 23 21 0 0.83314033D-02 0.36356141D+00 0.12001646D+06 0.12001646D+06 0.12001646D+06 0.11152768D+01  1  2  2  2  7  2        1 0.995073518413D-03 0.100000000000D+01
-.341194968953D-05 0.000000000000D+00 -.236145986516D-06 0.118091965743D-05 0.000000000000D+00  7 -2 1 -24 -11 11 23 21 2 0.83314033D-02 0.36356141D+00 0.12001646D+06 0.12001646D+06 0.12001646D+06 0.11152768D+01  1  2  3  2  7  2        1 -.686757786924D-04 0.100000000000D+01
0.400693724630D-05 0.000000000000D+00 0.000000000000D+00 0.118091965743D-05 0.000000000000D+00  7 -2 1 -24 -11 11 23 21 2 0.83314033D-02 0.36356141D+00 0.12001646D+06 0.12001646D+06 0.12001646D+06 0.11152768D+01  1  2 15  2  7  2        1 0.806516978857D-04 0.100000000000D+01
  </mgrwgt>
  </event>
  <event>
  8     66 0.26562228E-05 0.11913089E+03 0.75467711E-02 0.10188655E+00
       -2 -1    0    0    0  501 0.00000000E+00 0.00000000E+00 0.58237667E+02 0.58238546E+02 0.32000000E+00 0.0000E+00 0.9000E+01
        1 -1    0    0  501    0 0.00000000E+00 0.00000000E+00 -.12435172E+04 0.12435173E+04 0.32000000E+00 0.0000E+00 0.9000E+01
       25  2    1    2    0    0 -.79209609E+02 -.14487152E+03 -.89449851E+03 0.95783322E+03 0.30009159E+03 0.0000E+00 0.0000E+00
       23  2    3    3    0    0 -.13250327E+03 -.14924885E+03 -.44313347E+03 0.49425472E+03 0.89933946E+02 0.0000E+00 0.0000E+00
      -24  1    1    2    0    0 0.79209609E+02 0.14487152E+03 -.29078104E+03 0.34392259E+03 0.80419002E+02 0.0000E+00 0.9000E+01
      -13  1    4    4    0    0 -.99897387E+02 -.48671958E+02 -.19321365E+03 0.22289005E+03 0.10565837E+00 0.0000E+00 0.9000E+01
       13  1    4    4    0    0 -.32605882E+02 -.10057689E+03 -.24991983E+03 0.27136467E+03 0.10565837E+00 0.0000E+00 0.9000E+01
       23  1    3    3    0    0 0.53293660E+02 0.43773331E+01 -.45136504E+03 0.46357850E+03 0.91188000E+02 0.0000E+00 0.9000E+01
#aMCatNLO 1  0  0  2  1 0.45092363D+02 0.00000000D+00  -5  7  0 0.00000000D+00 0.00000000D+00 0.00000000D+00 0.00000000D+00 0.00000000D+00
  <mgrwgt>
 0.1208462184D-02    9    2    0
 0.269109904114708D+03 0.000000000000000D+00 0.000000000000000D+00 0.269109904114708D+03
 0.269109904114708D+03 0.000000000000000D+00 0.000000000000000D+00 -.269109904114708D+03
 0.191457850862241D+03 0.792096097256335D+02 0.144871517207478D+03 0.541015150576556D+02
 0.113589706189582D+03 -.998974792859859D+02 -.486718863482340D+02 0.235406555525984D+02
 0.105952385449130D+03 -.326057900173095D+02 -.100576963426873D+03 -.685892612131480D+01
 0.127219865728464D+03 0.532936595776619D+02 0.437733256762831D+01 -.707832444889392D+02
 0.000000000000000D+00 0.000000000000000D+00 0.000000000000000D+00 -.000000000000000D+00
 0.286635468968293D+03 0.000000000000000D+00 0.000000000000000D+00 0.286635468968293D+03
 0.300706880211353D+03 0.000000000000000D+00 0.000000000000000D+00 -.300706880211353D+03
 0.178746258268060D+03 0.685855747472837D+02 0.133611578448547D+03 0.541015150576556D+02
 0.122697322443842D+03 -.106678391748112D+03 -.558586717088624D+02 0.235406555525984D+02
 0.114327202806197D+03 -.389273245246895D+02 -.107276874671576D+03 -.685892612131480D+01
 0.124334653610826D+03 0.460746040714953D+02 -.327382097830866D+01 -.707832444889392D+02
 0.472369120507218D+02 0.309455374540222D+02 0.327977889101999D+02 -.140714112430593D+02
0.740652481236D-05 0.000000000000D+00 0.000000000000D+00 0.956415654083D-06 0.000000000000D+00  7 -2 1 -24 -13 13 23 21 0 0.89597119D-02 0.19131041D+00 0.64064369D+05 0.64064369D+05 0.64064369D+05 0.11379455D+01  1  2  2  2  7  2        1 0.597267775711D-03 0.100000000000D+01
-.409593778394D-06 0.000000000000D+00 -.284430054622D-07 0.956415654083D-06 0.000000000000D+00  7 -2 1 -24 -13 13 23 21 2 0.89597119D-02 0.19131041D+00 0.64064369D+05 0.64064369D+05 0.64064369D+05 0.11379455D+01  1  2  3  2  7  2        1 -.427711468286D-04 0.100000000000D+01
0.482400041268D-06 0.000000000000D+00 0.000000000000D+00 0.956415654083D-06 0.000000000000D+00  7 -2 1 -24 -13 13 23 21 2 0.89597119D-02 0.19131041D+00 0.64064369D+05 0.64064369D+05 0.64064369D+05 0.11379455D+01  1  2 15  2  7  2        1 0.503738193389D-04 0.100000000000D+01
0.100538254854D-04 0.000000000000D+00 0.000000000000D+00 0.956415654083D-06 0.000000000000D+00  7 -2 1 -24 -13 13 23 21 2 0.89597119D-02 0.21942087D+00 0.76234857D+05 0.76234857D+05 0.76234857D+05 0.11315229D+01  1  2 12  2  7  2        1 0.780298930427D-03 0.100000000000D+01
-.937885674372D-05 0.000000000000D+00 0.000000000000D+00 0.956415654083D-06 0.000000000000D+00  7 -2 1 -24 -13 13 23 21 2 0.89597119D-02 0.19131041D+00 0.64064369D+05 0.64064369D+05 0.64064369D+05 0.11379455D+01  1  2  4  2  7  2        1 -.979371465169D-03 0.100000000000D+01
-.273520916108D-04 0.000000000000D+00 -.625253776867D-05 0.956415654083D-06 0.000000000000D+00  7 -2 1 -24 -13 13 23 21 2 0.89597119D-02 0.22181285D+00 0.64064369D+05 0.64064369D+05 0.64064369D+05 0.11379455D+01  1  2  5  2  7  2        1 -.210098003994D-02 0.100000000000D+01
0.280375081627D-04 0.000000000000D+00 0.618473692586D-05 0.956415654083D-06 0.000000000000D+00  7 -2 1 -24 -13 13 23 21 2 0.89597119D-02 0.19131041D+00 0.64064369D+05 0.64064369D+05 0.64064369D+05 0.11379455D+01  1  2  6  2  7  2        1 0.292777000431D-02 0.100000000000D+01
0.213103934414D-06 0.000000000000D+00 0.000000000000D+00 0.956415654083D-06 0.000000000000D+00  7 -2 21 -24 -13 13 23 -1 2 0.89597119D-02 0.21942087D+00 0.76234857D+05 0.76234857D+05 0.76234857D+05 0.11315229D+01  1  2 12  4  7  2        1 0.146105323124D-04 0.100000000000D+01
-.574633786589D-06 0.000000000000D+00 -.141034210982D-06 0.956415654083D-06 0.000000000000D+00  7 -2 21 -24 -13 13 23 -1 2 0.89597119D-02 0.22181285D+00 0.64064369D+05 0.64064369D+05 0.64064369D+05 0.11379455D+01  1  2  5  4  7  2        1 -.387362265173D-04 0.100000000000D+01
  </mgrwgt>
  </event>
  <event>
  8     66 0.26562228E-05 0.22299499E+03 0.75467711E-02 0.10183199E+00
       -2 -1    0    0    0  501 0.00000000E+00 0.00000000E+00 0.29271135E+03 0.29271152E+03 0.32000000E+00 0.0000E+00 0.9000E+01
        1 -1    0    0  501    0 0.00000000E+00 0.00000000E+00 -.59417385E+03 0.59417394E+03 0.32000000E+00 0.0000E+00 0.9000E+01
       25  2    1    2    0    0 -.96149935E+02 -.57037386E+02 -.53041227E+03 0.61970896E+03 0.30033971E+03 0.0000E+00 0.0000E+00
       23  2    3    3    0    0 -.15819603E+03 -.88991660E+02 -.38068401E+03 0.43101716E+03 0.88938016E+02 0.0000E+00 0.0000E+00
      -24  1    1    2    0    0 0.96149935E+02 0.57037386E+02 0.22894976E+03 0.26717650E+03 0.80419002E+02 0.0000E+00 0.9000E+01
      -11  1    4    4    0    0 -.10477517E+03 -.92698222E+02 -.21166488E+03 0.25371799E+03 0.51099893E-03 0.0000E+00 0.9000E+01
       11  1    4    4    0    0 -.53420865E+02 0.37065620E+01 -.16901914E+03 0.17729917E+03 0.51099893E-03 0.0000E+00 0.9000E+01
       23  1    3    3    0    0 0.62046098E+02 0.31954275E+02 -.14972826E+03 0.18869180E+03 0.91188000E+02 0.0000E+00 0.9000E+01
#aMCatNLO 1  0  0  1  1 0.95034991D+02 0.00000000D+00  -5  7  0 0.00000000D+00 0.00000000D+00 0.00000000D+00 0.00000000D+00 0.00000000D+00
  <mgrwgt>
 0.8872672963D-03    4    2    0
 0.417039020492996D+03 0.000000000000000D+00 0.000000000000000D+00 0.417039020492996D+03
 0.417039020492996D+03 0.000000000000000D+00 0.000000000000000D+00 -.417039020492996D+03
 0.366841842471852D+03 0.961499353823634D+02 0.570373857457383D+02 0.340011246853736D+03
 0.193278999542494D+03 -.104775168184643D+03 -.926982224298088D+02 -.133364070702648D+03
 0.127435465809698D+03 -.534208652808364D+02 0.370656196028303D+01 -.115638533790497D+03
 0.146521733161947D+03 0.620460980831163D+02 0.319542747237875D+02 -.910086423605906D+02
 0.000000000000000D+00 -.000000000000000D+00 -.000000000000000D+00 -.000000000000000D+00
 0.440582969271167D+03 0.000000000000000D+00 0.000000000000000D+00 0.440582969271167D+03
 0.528053371733924D+03 0.000000000000000D+00 0.000000000000000D+00 -.528053371733924D+03
 0.380627710573281D+03 0.138476239967813D+03 0.602239244755049D+02 0.340011246853736D+03
 0.181832230254081D+03 -.835340726763242D+02 -.910990851046193D+02 -.133364070702648D+03
 0.122222104281791D+03 -.392837244291375D+02 0.477087757425682D+01 -.115638533790497D+03
 0.154792688296094D+03 0.791083662740607D+02 0.332388087491557D+02 -.910086423605906D+02
 0.129161607599845D+03 -.947668091364115D+02 -.713452569429809D+01 -.874704024627565D+02
0.581706890288D-04 0.000000000000D+00 0.000000000000D+00 0.196846094696D-05 0.000000000000D+00  7 -2 1 -24 -11 11 23 21 0 0.45032535D-01 0.91411382D-01 0.49726768D+05 0.49726768D+05 0.49726768D+05 0.11475048D+01  1  2  2  1  7  1       -2 0.106948298017D-02 0.100000000000D+01
-.169176374014D-05 0.000000000000D+00 -.223390762565D-06 0.196846094696D-05 0.000000000000D+00  7 -2 1 -24 -11 11 23 21 2 0.45032535D-01 0.91411382D-01 0.49726768D+05 0.49726768D+05 0.49726768D+05 0.11475048D+01  1  2  3  1  7  1       -2 -.409560798834D-04 0.100000000000D+01
0.357402452715D-05 0.000000000000D+00 0.000000000000D+00 0.196846094696D-05 0.000000000000D+00  7 -2 1 -24 -11 11 23 21 2 0.45032535D-01 0.91411382D-01 0.49726768D+05 0.49726768D+05 0.49726768D+05 0.11475048D+01  1  2 15  1  7  1       -2 0.865239220858D-04 0.100000000000D+01
-.940900376936D-05 0.000000000000D+00 0.000000000000D+00 0.196846094696D-05 0.000000000000D+00  7 -2 1 -24 -11 11 23 21 2 0.45032535D-01 0.91411382D-01 0.49726768D+05 0.49726768D+05 0.49726768D+05 0.11475048D+01  1  2  4  1  7  1       -2 -.227783526067D-03 0.100000000000D+01
  </mgrwgt>
  </event>
  <event>
  8     66 0.26562228E-05 0.29318352E+03 0.75467711E-02 0.94022993E-01
       -2 -1    0    0    0  501 0.00000000E+00 0.00000000E+00 0.23546246E+03 0.23546268E+03 0.32000000E+00 0.0000E+00 0.9000E+01
        1 -1    0    0  501    0 0.00000000E+00 0.00000000E+00 -.15733176E+04 0.15733176E+04 0.32000000E+00 0.0000E+00 0.9000E+01
       25  2    1    2    0    0 -.90232564E+01 -.44500645E+03 -.18026119E+03 0.56595967E+03 0.29950643E+03 0.0000E+00 0.0000E+00
       23  2    3    3    0    0 -.90741780E+02 -.14469525E+03 -.14051386E+03 0.23921844E+03 0.91162117E+02 0.0000E+00 0.0000E+00
      -24  1    1    2    0    0 0.90232564E+01 0.44500645E+03 -.11575939E+04 0.12428206E+04 0.80419002E+02 0.0000E+00 0.9000E+01
      -13  1    4    4    0    0 -.10350124E+03 -.91025500E+02 -.10868197E+03 0.17552758E+03 0.10565837E+00 0.0000E+00 0.9000E+01
       13  1    4    4    0    0 0.12759459E+02 -.53669752E+02 -.31831890E+02 0.63690866E+02 0.10565837E+00 0.0000E+00 0.9000E+01
       23  1    3    3    0    0 0.81718524E+02 -.30031120E+03 -.39747330E+02 0.32674123E+03 0.91188000E+02 0.0000E+00 0.9000E+01
#aMCatNLO 1  0  0  2  1 0.81970884D+02 0.00000000D+00  -5  7  0 0.00000000D+00 0.00000000D+00 0.00000000D+00 0.00000000D+00 0.00000000D+00
  <mgrwgt>
 0.1381842948D-02    9    2    0
 0.608652161480189D+03 0.000000000000000D+00 0.000000000000000D+00 0.608652161480189D+03
 0.608652161480189D+03 0.000000000000000D+00 0.000000000000000D+00 -.608652161480189D+03
 0.574463141569834D+03 0.902325641581428D+01 0.445006447087935D+03 -.354158902135383D+03
 0.141369926980797D+03 -.103501395323852D+03 -.910255502053860D+02 0.314207993274906D+02
 0.596532774846044D+02 0.127596150813506D+02 -.536697013390085D+02 0.226995351452980D+02
 0.441817976925141D+03 0.817185238266873D+02 -.300311195543540D+03 0.300038567662595D+03
 0.000000000000000D+00 -.000000000000000D+00 0.000000000000000D+00 -.000000000000000D+00
 0.617023105956195D+03 0.000000000000000D+00 0.000000000000000D+00 0.617023105956195D+03
 0.850258023689514D+03 0.000000000000000D+00 0.000000000000000D+00 -.850258023689514D+03
 0.550774504306294D+03 0.292731298336063D+02 0.413037400906357D+03 -.354158902135383D+03
 0.143138718388340D+03 -.983813532810828D+02 -.991087049560274D+02 0.314207993274906D+02
 0.633012022579823D+02 0.149723144698422D+02 -.571629522585172D+02 0.226995351452980D+02
 0.462846655682576D+03 0.979989463338777D+02 -.326013557639822D+03 0.300038567662595D+03
 0.247220049010516D+03 -.438630373562433D+02 0.692478139480100D+02 -.233234917733320D+03
0.240370678442D-03 0.000000000000D+00 0.000000000000D+00 0.163285180997D-04 0.000000000000D+00  7 -2 1 -24 -13 13 23 21 0 0.36225013D-01 0.24204888D+00 0.23504010D+06 0.23504010D+06 0.23504010D+06 0.10924809D+01  1  2  2  2  7  2        1 0.112089354349D-02 0.100000000000D+01
-.125136546743D-04 0.000000000000D+00 -.923086696269D-06 0.163285180997D-04 0.000000000000D+00  7 -2 1 -24 -13 13 23 21 2 0.36225013D-01 0.24204888D+00 0.23504010D+06 0.23504010D+06 0.23504010D+06 0.10924809D+01  1  2  3  2  7  2        1 -.696457657971D-04 0.100000000000D+01
0.152694488503D-04 0.000000000000D+00 0.000000000000D+00 0.163285180997D-04 0.000000000000D+00  7 -2 1 -24 -13 13 23 21 2 0.36225013D-01 0.24204888D+00 0.23504010D+06 0.23504010D+06 0.23504010D+06 0.10924809D+01  1  2 15  2  7  2        1 0.849833630670D-04 0.100000000000D+01
0.124431176158D-02 0.000000000000D+00 0.000000000000D+00 0.163285180997D-04 0.000000000000D+00  7 -2 1 -24 -13 13 23 21 2 0.36225013D-01 0.33929799D+00 0.27822763D+06 0.27822763D+06 0.27822763D+06 0.10869810D+01  1  2 12  2  7  2        1 0.258190476699D-02 0.100000000000D+01
-.120589524004D-02 0.000000000000D+00 0.000000000000D+00 0.163285180997D-04 0.000000000000D+00  7 -2 1 -24 -13 13 23 21 2 0.36225013D-01 0.24204888D+00 0.23504010D+06 0.23504010D+06 0.23504010D+06 0.10924809D+01  1  2  4  2  7  2        1 -.671150832029D-02 0.100000000000D+01
-.132731967457D-02 0.000000000000D+00 -.953467147579D-04 0.163285180997D-04 0.000000000000D+00  7 -2 1 -24 -13 13 23 21 2 0.36225013D-01 0.33947801D+00 0.23504010D+06 0.23504010D+06 0.23504010D+06 0.10924809D+01  1  2  5  2  7  2        1 -.280368722617D-02 0.100000000000D+01
0.129025311426D-02 0.000000000000D+00 0.901401505363D-04 0.163285180997D-04 0.000000000000D+00  7 -2 1 -24 -13 13 23 21 2 0.36225013D-01 0.24204888D+00 0.23504010D+06 0.23504010D+06 0.23504010D+06 0.10924809D+01  1  2  6  2  7  2        1 0.718100895013D-02 0.100000000000D+01
0.523883320180D-04 0.000000000000D+00 0.000000000000D+00 0.163285180997D-04 0.000000000000D+00  7 -2 21 -24 -13 13 23 -1 2 0.36225013D-01 0.33929799D+00 0.27822763D+06 0.27822763D+06 0.27822763D+06 0.10869810D+01  1  2 12  4  7  2        1 0.467356543137D-04 0.100000000000D+01
-.533816107414D-04 0.000000000000D+00 -.401885344787D-05 0.163285180997D-04 0.000000000000D+00  7 -2 21 -24 -13 13 23 -1 2 0.36225013D-01 0.33947801D+00 0.23504010D+06 0.23504010D+06 0.23504010D+06 0.10924809D+01  1  2  5  4  7  2        1 -.488420173142D-04 0.100000000000D+01
  </mgrwgt>
  </event>
  <event>
  8     66 0.26562228E-05 0.15643515E+03 0.75467711E-02 0.99961006E-01
       -2 -1    0    0    0  501 0.00000000E+00 0.00000000E+00 0.68093692E+02 0.68094444E+02 0.32000000E+00 0.0000E+00 0.9000E+01
        1 -1    0    0  501    0 0.00000000E+00 0.00000000E+00 -.11587056E+04 0.11587057E+04 0.32000000E+00 0.0000E+00 0.9000E+01
       25  2    1    2    0    0 0.20892558E+01 0.18986423E+03 -.69329450E+03 0.77916058E+03 0.30063459E+03 0.0000E+00 0.0000E+00
       23  2    3    3    0    0 -.90103066E+02 0.16858117E+03 -.52320081E+03 0.56421987E+03 0.89815410E+02 0.0000E+00 0.0000E+00
      -24  1    1    2    0    0 -.20892558E+01 -.18986423E+03 -.39731744E+03 0.44763954E+03 0.80419002E+02 0.0000E+00 0.9000E+01
      -13  1    4    4    0    0 -.86361125E+02 0.16712206E+03 -.41164946E+03 0.45259619E+03 0.10565837E+00 0.0000E+00 0.9000E+01
       13  1    4    4    0    0 -.37419410E+01 0.14591071E+01 -.11155135E+03 0.11162368E+03 0.10565837E+00 0.0000E+00 0.9000E+01
       23  1    3    3    0    0 0.92192322E+02 0.21283064E+02 -.17009369E+03 0.21494071E+03 0.91188000E+02 0.0000E+00 0.9000E+01
#aMCatNLO 1  0  0  1  2 0.99380945D+02 0.00000000D+00  -5  7  0 0.00000000D+00 0.00000000D+00 0.00000000D+00 0.00000000D+00 0.00000000D+00
  <mgrwgt>
 0.1347397915D-02    9    2    0
 0.280893276277730D+03 0.000000000000000D+00 0.000000000000000D+00 0.280893276277730D+03
 0.280893276277730D+03 0.000000000000000D+00 0.000000000000000D+00 -.280893276277730D+03
 0.206208380391775D+03 -.208925577771274D+01 -.189864233329924D+03 0.137408215332153D+01
 0.189209541363609D+03 -.863612382716525D+02 0.167122289149834D+03 -.203009245241107D+02
 0.271999812793899D+02 -.374182645186752D+01 0.145887805182684D+01 -.269018473572572D+02
 0.139168649520686D+03 0.921923205012328D+02 0.212830661282637D+02 0.458286897280464D+02
 0.000000000000000D+00 0.000000000000000D+00 -.000000000000000D+00 0.000000000000000D+00
 0.380228864587069D+03 0.000000000000000D+00 0.000000000000000D+00 0.380228864587069D+03
 0.311252597796754D+03 0.000000000000000D+00 0.000000000000000D+00 -.311252597796754D+03
 0.200973947616394D+03 -.365810346707421D+02 -.180508314120985D+03 0.137408215332153D+01
 0.214631583662879D+03 -.120569989079832D+03 0.176401436792309D+03 -.203009245241107D+02
 0.283287155316199D+02 -.844557561011928D+01 0.273477330907642D+01 -.269018473572572D+02
 0.126574914311306D+03 0.696815983616541D+02 0.273891152922090D+02 0.458286897280464D+02
 0.120972301261626D+03 0.959150009990393D+02 -.260170112726094D+02 0.689762667903151D+02
0.152998230276D-04 0.000000000000D+00 0.000000000000D+00 0.519938591840D-06 0.000000000000D+00  7 -2 1 -24 -13 13 23 21 0 0.10476014D-01 0.17826247D+00 0.70157094D+05 0.70157094D+05 0.70157094D+05 0.11345769D+01  1  2  2  1  7  1       -2 0.111112090498D-02 0.100000000000D+01
-.846425688879D-06 0.000000000000D+00 -.587553489619D-07 0.519938591840D-06 0.000000000000D+00  7 -2 1 -24 -13 13 23 21 2 0.10476014D-01 0.17826247D+00 0.70157094D+05 0.70157094D+05 0.70157094D+05 0.11345769D+01  1  2  3  1  7  1       -2 -.791282565069D-04 0.100000000000D+01
0.995764151656D-06 0.000000000000D+00 0.000000000000D+00 0.519938591840D-06 0.000000000000D+00  7 -2 1 -24 -13 13 23 21 2 0.10476014D-01 0.17826247D+00 0.70157094D+05 0.70157094D+05 0.70157094D+05 0.11345769D+01  1  2 15  1  7  1       -2 0.930891893380D-04 0.100000000000D+01
0.111836712938D-04 0.000000000000D+00 0.000000000000D+00 0.519938591840D-06 0.000000000000D+00  7 -2 1 -24 -13 13 23 21 2 0.14591963D-01 0.17826247D+00 0.10268304D+06 0.10268304D+06 0.10268304D+06 0.11207797D+01  1  2 12  1  7  1       -2 0.604152521309D-03 0.100000000000D+01
-.130495539479D-04 0.000000000000D+00 0.000000000000D+00 0.519938591840D-06 0.000000000000D+00  7 -2 1 -24 -13 13 23 21 2 0.10476014D-01 0.17826247D+00 0.70157094D+05 0.70157094D+05 0.70157094D+05 0.11345769D+01  1  2  4  1  7  1       -2 -.121993987855D-02 0.100000000000D+01
-.183675061883D-04 0.000000000000D+00 -.633711138073D-05 0.519938591840D-06 0.000000000000D+00  7 -2 1 -24 -13 13 23 21 2 0.15717084D-01 0.17826247D+00 0.70157094D+05 0.70157094D+05 0.70157094D+05 0.11345769D+01  1  2  5  1  7  1       -2 -.908289686688D-03 0.100000000000D+01
0.197764810178D-04 0.000000000000D+00 0.584920269972D-05 0.519938591840D-06 0.000000000000D+00  7 -2 1 -24 -13 13 23 21 2 0.10476014D-01 0.17826247D+00 0.70157094D+05 0.70157094D+05 0.70157094D+05 0.11345769D+01  1  2  6  1  7  1       -2 0.184880785560D-02 0.100000000000D+01
0.464456965864D-06 0.000000000000D+00 0.000000000000D+00 0.519938591840D-06 0.000000000000D+00  7 21 1 -24 -13 13 23 2 2 0.14591963D-01 0.17826247D+00 0.10268304D+06 0.10268304D+06 0.10268304D+06 0.11207797D+01  1  2 12  3  7  1       -2 0.341510946076D-03 0.100000000000D+01
-.662924267257D-06 0.000000000000D+00 -.304776612326D-06 0.519938591840D-06 0.000000000000D+00  7 21 1 -24 -13 13 23 2 2 0.15717084D-01 0.17826247D+00 0.70157094D+05 0.70157094D+05 0.70157094D+05 0.11345769D+01  1  2  5  3  7  1       -2 -.443925680467D-03 0.100000000000D+01
  </mgrwgt>
  </event>
  <event>
  8     66 0.26562228E-05 0.13726330E+03 0.75467711E-02 0.95996575E-01
       -2 -1    0    0    0  501 0.00000000E+00 0.00000000E+00 0.76066759E+02 0.76067432E+02 0.32000000E+00 0.0000E+00 0.9000E+01
        1 -1    0    0  501    0 0.00000000E+00 0.00000000E+00 -.24771200E+04 0.24771200E+04 0.32000000E+00 0.0000E+00 0.9000E+01
       25  2    1    2    0    0 -.35056915E+03 -.34946316E+02 -.17347384E+04 0.17951883E+04 0.29877062E+03 0.0000E+00 0.0000E+00
       23  2    3    3    0    0 -.56351795E+02 -.75238018E+02 -.78689609E+03 0.79773781E+03 0.91344759E+02 0.0000E+00 0.0000E+00
      -24  1    1    2    0    0 0.35056915E+03 0.34946316E+02 -.66631484E+03 0.75799911E+03 0.80419002E+02 0.0000E+00 0.9000E+01
      -13  1    4    4    0    0 -.70121032E+02 -.77007600E+02 -.76320637E+03 0.77027988E+03 0.10565837E+00 0.0000E+00 0.9000E+01
       13  1    4    4    0    0 0.13769237E+02 0.17695815E+01 -.23689726E+02 0.27457924E+02 0.10565837E+00 0.0000E+00 0.9000E+01
       23  1    3    3    0    0 -.29421735E+03 0.40291702E+02 -.94784229E+03 0.99745052E+03 0.91188000E+02 0.0000E+00 0.9000E+01
#aMCatNLO 1  0  0  1  2 0.93836948D+02 0.00000000D+00  -5  7  0 0.00000000D+00 0.00000000D+00 0.00000000D+00 0.00000000D+00 0.00000000D+00
  <mgrwgt>
 0.1312980934D-02    6    2    0
 0.434082220159729D+03 0.000000000000000D+00 0.000000000000000D+00 0.434082220159729D+03
 0.434082220159729D+03 0.000000000000000D+00 0.000000000000000D+00 -.434082220159729D+03
 0.386397320204330D+03 0.350569146646811D+03 0.349463156851152D+02 0.136805341803893D+03
 0.154544424933461D+03 -.701211441913971D+02 -.770077049368139D+02 -.114178885069299D+03
 0.152330268577084D+02 0.137693497028567D+02 0.176968692564877D+01 0.627043253638018D+01
 0.311989668323958D+03 -.294217352158270D+03 0.402917023260499D+02 -.288968892709741D+02
 0.000000000000000D+00 -.000000000000000D+00 -.000000000000000D+00 -.000000000000000D+00
 0.480753081866179D+03 0.000000000000000D+00 0.000000000000000D+00 0.480753081866179D+03
 0.486479399063080D+03 0.000000000000000D+00 0.000000000000000D+00 -.486479399063080D+03
 0.426679695274652D+03 0.394329786533168D+03 0.371034272261468D+02 0.136805341803893D+03
 0.147464791312980D+03 -.538666980529390D+02 -.762064677188619D+02 -.114178885069299D+03
 0.168176448403704D+02 0.154943497650823D+02 0.185471807583694D+01 0.627043253638018D+01
 0.282258841914534D+03 -.262234287129392D+03 0.418682569392942D+02 -.288968892709741D+02
 0.940115075867225D+02 -.937231511159194D+02 -.461993452241609D+01 -.572631719690059D+01
0.139391156827D-03 0.000000000000D+00 0.000000000000D+00 0.136819747508D-05 0.000000000000D+00  7 -2 1 -24 -13 13 23 21 0 0.11702632D-01 0.38109544D+00 0.15604450D+06 0.15604450D+06 0.15604450D+06 0.11062005D+01  1  2  2  1  7  1       -2 0.110424561119D-02 0.100000000000D+01
-.766025111215D-05 0.000000000000D+00 -.535298744749D-06 0.136819747508D-05 0.000000000000D+00  7 -2 1 -24 -13 13 23 21 2 0.11702632D-01 0.38109544D+00 0.15604450D+06 0.15604450D+06 0.15604450D+06 0.11062005D+01  1  2  3  1  7  1       -2 -.742576431052D-04 0.100000000000D+01
0.898511825993D-05 0.000000000000D+00 0.000000000000D+00 0.136819747508D-05 0.000000000000D+00  7 -2 1 -24 -13 13 23 21 2 0.11702632D-01 0.38109544D+00 0.15604450D+06 0.15604450D+06 0.15604450D+06 0.11062005D+01  1  2 15  1  7  1       -2 0.871007614810D-04 0.100000000000D+01
0.910926612384D-04 0.000000000000D+00 0.000000000000D+00 0.136819747508D-05 0.000000000000D+00  7 -2 1 -24 -13 13 23 21 2 0.13591634D-01 0.38109544D+00 0.19699981D+06 0.19699981D+06 0.19699981D+06 0.10983299D+01  1  2 12  1  7  1       -2 0.680083817874D-03 0.100000000000D+01
-.716701471967D-04 0.000000000000D+00 0.000000000000D+00 0.136819747508D-05 0.000000000000D+00  7 -2 1 -24 -13 13 23 21 2 0.11702632D-01 0.38109544D+00 0.15604450D+06 0.15604450D+06 0.15604450D+06 0.11062005D+01  1  2  4  1  7  1       -2 -.694762630351D-03 0.100000000000D+01
0.207388055883D-05 0.000000000000D+00 0.000000000000D+00 0.136819747508D-05 0.000000000000D+00  7 21 1 -24 -13 13 23 2 2 0.13591634D-01 0.38109544D+00 0.19699981D+06 0.19699981D+06 0.19699981D+06 0.10983299D+01  1  2 12  3  7  1       -2 0.210571016642D-03 0.100000000000D+01
  </mgrwgt>
  </event>
  <event>
  8     66 0.26562228E-05 0.17969007E+03 0.75467711E-02 0.89881913E-01
       -2 -1    0    0    0  501 0.00000000E+00 0.00000000E+00 0.28846321E+03 0.28846339E+03 0.32000000E+00 0.0000E+00 0.9000E+01
        1 -1    0    0  501    0 0.00000000E+00 0.00000000E+00 -.16004023E+03 0.16004055E+03 0.32000000E+00 0.0000E+00 0.9000E+01
       25  2    1    2    0    0 0.18671340E+02 0.84094799E+02 0.97779110E+02 0.32673853E+03 0.29962770E+03 0.0000E+00 0.0000E+00
       23  2    3    3    0    0 0.10400662E+01 -.28160765E+02 0.14475303E+03 0.17365693E+03 0.91701580E+02 0.0000E+00 0.0000E+00
      -24  1    1    2    0    0 -.18671340E+02 -.84094799E+02 0.30643871E+02 0.12176542E+03 0.80419002E+02 0.0000E+00 0.9000E+01
      -13  1    4    4    0    0 -.43299875E+02 0.19683833E-01 0.61541709E+02 0.75248074E+02 0.10565837E+00 0.0000E+00 0.9000E+01
       13  1    4    4    0    0 0.44339942E+02 -.28180448E+02 0.83211324E+02 0.98408860E+02 0.10565837E+00 0.0000E+00 0.9000E+01
       23  1    3    3    0    0 0.17631274E+02 0.11225556E+03 -.46973923E+02 0.15308159E+03 0.91188000E+02 0.0000E+00 0.9000E+01
#aMCatNLO 1  0  0  1  2 0.74102927D+03 0.00000000D+00  -5  7  0 0.00000000D+00 0.00000000D+00 0.00000000D+00 0.00000000D+00 0.00000000D+00
  <mgrwgt>
 0.8767543512D-03    5    2    0
 0.214862354887599D+03 0.000000000000000D+00 0.000000000000000D+00 0.214862354887599D+03
 0.214862354887599D+03 0.000000000000000D+00 0.000000000000000D+00 -.214862354887599D+03
 0.117928745771146D+03 -.186713426714247D+02 -.840948087582951D+02 -.440649833054150D+01
 0.601447304306134D+02 -.432999881373755D+02 0.197233593263721D-01 0.417432537886470D+02
 0.778417507616004D+02 0.443400554492935D+02 -.281804814525052D+02 0.574382982816317D+02
 0.173809482811838D+03 0.176312753595066D+02 0.112255566851474D+03 -.947750537397372D+02
 0.000000000000000D+00 -.000000000000000D+00 0.000000000000000D+00 0.000000000000000D+00
 0.827664687948808D+03 0.000000000000000D+00 0.000000000000000D+00 0.827664687948808D+03
 0.772061811067998D+03 0.000000000000000D+00 0.000000000000000D+00 -.772061811067998D+03
 0.264534052564196D+03 0.182678584194680D+03 -.173551625347493D+03 -.440649833054150D+01
 0.516425743028238D+02 0.155511360258202D+02 -.261269671425086D+02 0.417432537886470D+02
 0.244775660989906D+03 0.214184005095193D+03 -.103639654886235D+03 0.574382982816317D+02
 0.295661801993732D+03 0.264787362886889D+03 0.244774553776800D+01 -.947750537397372D+02
 0.743112409166148D+03 -.677201088202582D+03 0.300870501838469D+03 0.556028768808104D+02
0.808357955975D-05 0.000000000000D+00 0.000000000000D+00 0.516195542835D-06 0.000000000000D+00  7 -2 1 -24 -13 13 23 21 0 0.44378994D-01 0.24621613D-01 0.32288522D+05 0.32288522D+05 0.32288522D+05 0.11643852D+01  1  2  2  1  7  1       -2 0.856583937199D-03 0.100000000000D+01
-.431638648796D-06 0.000000000000D+00 -.310430739648D-07 0.516195542835D-06 0.000000000000D+00  7 -2 1 -24 -13 13 23 21 2 0.44378994D-01 0.24621613D-01 0.32288522D+05 0.32288522D+05 0.32288522D+05 0.11643852D+01  1  2  3  1  7  1       -2 -.620125953829D-04 0.100000000000D+01
0.513958381691D-06 0.000000000000D+00 0.000000000000D+00 0.516195542835D-06 0.000000000000D+00  7 -2 1 -24 -13 13 23 21 2 0.44378994D-01 0.24621613D-01 0.32288522D+05 0.32288522D+05 0.32288522D+05 0.11643852D+01  1  2 15  1  7  1       -2 0.738392941790D-04 0.100000000000D+01
0.139597305538D-04 0.000000000000D+00 -.508450045062D-05 0.516195542835D-06 0.000000000000D+00  7 -2 1 -24 -13 13 23 21 2 0.39793518D+00 0.24621613D-01 0.32288522D+05 0.32288522D+05 0.32288522D+05 0.11643852D+01  1  2  5  1  7  1       -2 0.306698441175D-05 0.100000000000D+01
0.296907215396D-05 0.000000000000D+00 -.134164913922D-05 0.516195542835D-06 0.000000000000D+00  7 21 1 -24 -13 13 23 2 2 0.39793518D+00 0.24621613D-01 0.32288522D+05 0.32288522D+05 0.32288522D+05 0.11643852D+01  1  2  5  3  7  1       -2 0.527673082129D-05 0.100000000000D+01
  </mgrwgt>
  </event>
  <event>
  8     66 -.26562228E-05 0.18534877E+03 0.75467711E-02 0.10743311E+00
       -2 -1    0    0    0  501 0.00000000E+00 0.00000000E+00 0.26168021E+03 0.26168041E+03 0.32000000E+00 0.0000E+00 0.9000E+01
        1 -1    0    0  501    0 0.00000000E+00 0.00000000E+00 -.70706935E+03 0.70706943E+03 0.32000000E+00 0.0000E+00 0.9000E+01
       25  2    1    2    0    0 0.45845797E+02 0.93535662E+02 -.65132317E+03 0.72435917E+03 0.29937197E+03 0.0000E+00 0.0000E+00
       23  2    3    3    0    0 -.33250158E+02 0.61266498E+02 -.80077223E+02 0.13960738E+03 0.90657063E+02 0.0000E+00 0.0000E+00
      -24  1    1    2    0    0 -.45845797E+02 -.93535662E+02 0.20593403E+03 0.24439066E+03 0.80419002E+02 0.0000E+00 0.9000E+01
      -13  1    4    4    0    0 -.29651066E+02 0.85062344E+02 -.66558403E+02 0.11200366E+03 0.10565837E+00 0.0000E+00 0.9000E+01
       13  1    4    4    0    0 -.35990924E+01 -.23795846E+02 -.13518820E+02 0.27603721E+02 0.10565837E+00 0.0000E+00 0.9000E+01
       23  1    3    3    0    0 0.79095955E+02 0.32269164E+02 -.57124595E+03 0.58475179E+03 0.91188000E+02 0.0000E+00 0.9000E+01
#aMCatNLO 1  0  0  2  2 0.28304794D+03 0.00000000D+00  -5  7  0 0.00000000D+00 0.00000000D+00 0.00000000D+00 0.00000000D+00 0.00000000D+00
  <mgrwgt>
 -.7151806582D-04    1    2    0
 0.430146705759437D+03 0.000000000000000D+00 0.000000000000000D+00 0.430146705759437D+03
 0.430146705759437D+03 0.000000000000000D+00 0.000000000000000D+00 -.430146705759437D+03
 0.381816472681651D+03 -.458457972487424D+02 -.935356616131140D+02 0.358421324334799D+03
 0.916654909019031D+02 -.296511010605833D+02 0.850624920854898D+02 -.169631031473593D+02
 0.240846733061033D+02 -.359905697293406D+01 -.237959941843753D+02 -.932168409932703D+00
 0.362726774629217D+03 0.790959552822597D+02 0.322691637119995D+02 -.340526052777507D+03
 0.000000000000000D+00 -.000000000000000D+00 0.000000000000000D+00 0.000000000000000D+00
 0.523887427383084D+04 0.000000000000000D+00 0.000000000000000D+00 0.523887427383084D+04
 0.606053604862169D+03 0.000000000000000D+00 0.000000000000000D+00 -.606053604862169D+03
 0.544302195181908D+03 0.190545286504621D+03 -.353587770968445D+03 0.358421324334799D+03
 0.490160006818927D+02 0.625774238844287D+01 0.455594349686125D+02 -.169631031473593D+02
 0.456533313999986D+02 0.142015155490544D+02 -.433782743557601D+02 -.932168409932703D+00
 0.510765440338238D+03 0.302054177064593D+03 -.213005552034485D+03 -.340526052777507D+03
 0.469519091109097D+04 -.513058721506711D+03 0.564412162390078D+03 0.463282066896867D+04
-.298355277161D-05 0.000000000000D+00 0.000000000000D+00 0.491490977443D-05 0.000000000000D+00  7 -2 1 -24 -13 13 23 21 2 0.40258515D-01 0.10877992D+00 0.34354166D+05 0.34354166D+05 0.34354166D+05 0.11619140D+01  1  2 14  2  7  2        1 -.715180658186D-04 0.100000000000D+01
  </mgrwgt>
  </event>
  <event>
  8     66 0.26562228E-05 0.18280904E+03 0.75467711E-02 0.10076897E+00
       -2 -1    0    0    0  501 0.00000000E+00 0.00000000E+00 0.26514408E+03 0.26514427E+03 0.32000000E+00 0.0000E+00 0.9000E+01
        1 -1    0    0  501    0 0.00000000E+00 0.00000000E+00 -.29644682E+03 0.29644699E+03 0.32000000E+00 0.0000E+00 0.9000E+01
       25  2    1    2    0    0 -.13228154E+03 0.13617683E+03 -.10376690E+02 0.35435311E+03 0.29902494E+03 0.0000E+00 0.0000E+00
       23  2    3    3    0    0 -.17384465E+03 0.14688009E+03 -.41437148E+02 0.24889196E+03 0.91839242E+02 0.0000E+00 0.0000E+00
      -24  1    1    2    0    0 0.13228154E+03 -.13617683E+03 -.20926050E+02 0.20723815E+03 0.80419002E+02 0.0000E+00 0.9000E+01
      -13  1    4    4    0    0 -.57255354E+02 0.10293149E+03 -.64162456E+00 0.11778578E+03 0.10565837E+00 0.0000E+00 0.9000E+01
       13  1    4    4    0    0 -.11658930E+03 0.43948595E+02 -.40795524E+02 0.13110617E+03 0.10565837E+00 0.0000E+00 0.9000E+01
       23  1    3    3    0    0 0.41563111E+02 -.10703258E+02 0.31060459E+02 0.10546116E+03 0.91188000E+02 0.0000E+00 0.9000E+01
#aMCatNLO 1  0  0  1  2 0.50173684D+02 0.00000000D+00  -5  7  0 0.00000000D+00 0.00000000D+00 0.00000000D+00 0.00000000D+00 0.00000000D+00
  <mgrwgt>
 0.5475603118D-03    7    2    0
 0.280359092231179D+03 0.000000000000000D+00 0.000000000000000D+00 0.280359092231179D+03
 0.280359092231179D+03 0.000000000000000D+00 0.000000000000000D+00 -.280359092231179D+03
 0.206392612018695D+03 0.132281540003586D+03 -.136176830250287D+03 -.938932472508993D+01
 0.117933347986193D+03 -.572552756396447D+02 0.102931569582511D+03 0.593295558231128D+01
 0.129032873013700D+03 -.116589374579427D+03 0.439485181182299D+02 -.335399434787746D+02
 0.107359351443770D+03 0.415631102154855D+02 -.107032574504536D+02 0.369963126215533D+02
 0.000000000000000D+00 -.000000000000000D+00 0.000000000000000D+00 0.000000000000000D+00
 0.100466628791528D+04 0.000000000000000D+00 0.000000000000000D+00 0.100466628791528D+04
 0.282349498267087D+03 0.000000000000000D+00 0.000000000000000D+00 -.282349498267087D+03
 0.223994831406087D+03 0.143343769156619D+03 -.151890990409080D+03 -.938932472508993D+01
 0.107923984936656D+03 -.514500747425091D+02 0.946851433523554D+02 0.593295558231128D+01
 0.120327383676985D+03 -.110180079086926D+03 0.348439611179277D+02 -.335399434787746D+02
 0.110712307257035D+03 0.471681962773234D+02 -.186654157877173D+02 0.369963126215533D+02
 0.724057278905603D+03 -.288818116045077D+02 0.410273017265145D+02 0.722316789648191D+03
0.102610862929D-04 0.000000000000D+00 0.000000000000D+00 0.383423844767D-06 0.000000000000D+00  7 -2 1 -24 -13 13 23 21 0 0.40791425D-01 0.45607231D-01 0.75444698D+05 0.75444698D+05 0.75444698D+05 0.11319045D+01  1  2  2  1  7  1       -2 0.575762579359D-03 0.100000000000D+01
-.569769250093D-06 0.000000000000D+00 -.394052731706D-07 0.383423844767D-06 0.000000000000D+00  7 -2 1 -24 -13 13 23 21 2 0.40791425D-01 0.45607231D-01 0.75444698D+05 0.75444698D+05 0.75444698D+05 0.11319045D+01  1  2  3  1  7  1       -2 -.409608247066D-04 0.100000000000D+01
0.676691906156D-06 0.000000000000D+00 0.000000000000D+00 0.383423844767D-06 0.000000000000D+00  7 -2 1 -24 -13 13 23 21 2 0.40791425D-01 0.45607231D-01 0.75444698D+05 0.75444698D+05 0.75444698D+05 0.11319045D+01  1  2 15  1  7  1       -2 0.486475157161D-04 0.100000000000D+01
0.393513870490D-03 0.000000000000D+00 0.000000000000D+00 0.383423844767D-06 0.000000000000D+00  7 -2 1 -24 -13 13 23 21 2 0.14582079D+00 0.45607231D-01 0.90492304D+05 0.90492304D+05 0.90492304D+05 0.11253000D+01  1  2 12  1  7  1       -2 0.163091427654D-02 0.100000000000D+01
-.392375691639D-03 0.000000000000D+00 -.339919158133D-05 0.383423844767D-06 0.000000000000D+00  7 -2 1 -24 -13 13 23 21 2 0.14638685D+00 0.45607231D-01 0.75444698D+05 0.75444698D+05 0.75444698D+05 0.11319045D+01  1  2  5  1  7  1       -2 -.163869724958D-02 0.100000000000D+01
0.588517802906D-04 0.000000000000D+00 0.000000000000D+00 0.383423844767D-06 0.000000000000D+00  7 21 1 -24 -13 13 23 2 2 0.14582079D+00 0.45607231D-01 0.90492304D+05 0.90492304D+05 0.90492304D+05 0.11253000D+01  1  2 12  3  7  1       -2 0.218140627101D-02 0.100000000000D+01
-.588000729446D-04 0.000000000000D+00 -.510228482957D-06 0.383423844767D-06 0.000000000000D+00  7 21 1 -24 -13 13 23 2 2 0.14638685D+00 0.45607231D-01 0.75444698D+05 0.75444698D+05 0.75444698D+05 0.11319045D+01  1  2  5  3  7  1       -2 -.220951225657D-02 0.100000000000D+01
  </mgrwgt>
  </event>
  <event>
  9     66 0.26562228E-05 0.19569579E+03 0.75467711E-02 0.10636874E+00
       21 -1    0    0  502  501 0.00000000E+00 0.00000000E+00 0.79848203E+02 0.79851725E+02 0.75000000E+00 0.0000E+00 0.9000E+01
        1 -1    0    0  501    0 0.00000000E+00 0.00000000E+00 -.90365579E+03 0.90365584E+03 0.32000000E+00 0.0000E+00 0.9000E+01
       25  2    1    2    0    0 -.27463745E+02 -.70767866E+02 -.67988252E+03 0.74775672E+03 0.30188990E+03 0.0000E+00 0.0000E+00
       23  2    3    3    0    0 -.11637135E+03 -.70636949E+02 -.24773587E+03 0.29723418E+03 0.91887022E+02 0.0000E+00 0.0000E+00
      -24  1    1    2    0    0 0.31416784E+02 0.76378942E+02 -.26700849E+02 0.11832543E+03 0.80419002E+02 0.0000E+00 0.9000E+01
      -11  1    4    4    0    0 -.86966158E+02 -.17628234E+02 -.20406616E+03 0.22252385E+03 0.51099893E-03 0.0000E+00 0.9000E+01
       11  1    4    4    0    0 -.29405188E+02 -.53008714E+02 -.43669714E+02 0.74710326E+02 0.51099893E-03 0.0000E+00 0.9000E+01
       23  1    3    3    0    0 0.88907601E+02 -.13091759E+00 -.43214665E+03 0.45052254E+03 0.91188000E+02 0.0000E+00 0.9000E+01
        2  1    1    2  502    0 -.39530383E+01 -.56110756E+01 -.11722421E+03 0.11742542E+03 0.32000000E+00 0.0000E+00 0.9000E+01
#aMCatNLO 2  0  0  1  2 0.68637221D+01 0.00000000D+00  -5  7  0 0.00000000D+00 0.00000000D+00 0.00000000D+00 0.00000000D+00 0.00000000D+00
  <mgrwgt>
 0.1450098508D-03    1    2    0
 0.250395246609334D+03 0.000000000000000D+00 0.000000000000000D+00 0.250395246609334D+03
 0.250395246609334D+03 0.000000000000000D+00 0.000000000000000D+00 -.250395246609334D+03
 0.165858601593371D+03 0.301033298653939D+02 0.745145814352871D+02 0.120761030356142D+03
 0.977991304858057D+02 -.877345837425713D+02 -.187189641137770D+02 -.389475688818252D+02
 0.684171569215130D+02 -.299419353526679D+02 -.537705909028439D+02 0.298849698430264D+02
 0.168715604217980D+03 0.875731892298453D+02 -.202502641866622D+01 -.111698431317344D+03
 0.000000000000000D+00 -.000000000000000D+00 -.000000000000000D+00 -.000000000000000D+00
 0.250733986791178D+03 0.000000000000000D+00 0.000000000000000D+00 0.250733986791178D+03
 0.287781727449180D+03 0.000000000000000D+00 0.000000000000000D+00 -.287781727449180D+03
 0.166946696486436D+03 0.314167836100939D+02 0.763789419164923D+02 0.120761030356142D+03
 0.969060388631773D+02 -.869661577731850D+02 -.176282344129129D+02 -.389475688818252D+02
 0.675847638672433D+02 -.294051883922768D+02 -.530087141900947D+02 0.298849698430264D+02
 0.169400028110505D+03 0.889076008091855D+02 -.130917681131191D+00 -.111698431317344D+03
 0.376781869129969D+02 -.395303825381758D+01 -.561107563235346D+01 -.370477406580023D+02
0.861690450279D-07 0.000000000000D+00 0.000000000000D+00 0.121851269201D-06 0.510900269166D-11  7 21 1 -24 -11 11 23 2 2 0.12284581D-01 0.13902387D+00 0.39769830D+05 0.39769830D+05 0.39769830D+05 0.11561440D+01  1  2  1  3  7  1       -2 0.145009850802D-03 0.100000000000D+01
  </mgrwgt>
  </event>
  <event>
  8     66 0.26562228E-05 0.19919980E+03 0.75467711E-02 0.98195863E-01
       -2 -1    0    0    0  501 0.00000000E+00 0.00000000E+00 0.28721462E+03 0.28721479E+03 0.32000000E+00 0.0000E+00 0.9000E+01
        1 -1    0    0  501    0 0.00000000E+00 0.00000000E+00 -.46607531E+03 0.46607542E+03 0.32000000E+00 0.0000E+00 0.9000E+01
       25  2    1    2    0    0 -.14842976E+03 0.25522351E+03 -.62878251E+02 0.42604478E+03 0.30064937E+03 0.0000E+00 0.0000E+00
       23  2    3    3    0    0 -.25610167E+02 0.19031152E+03 0.58859044E+02 0.22005099E+03 0.89909385E+02 0.0000E+00 0.0000E+00
      -24  1    1    2    0    0 0.14842976E+03 -.25522351E+03 -.11598245E+03 0.32724544E+03 0.80419002E+02 0.0000E+00 0.9000E+01
      -13  1    4    4    0    0 -.42742884E+01 0.16447655E+03 0.15509109E+02 0.16526146E+03 0.10565837E+00 0.0000E+00 0.9000E+01
       13  1    4    4    0    0 -.21335879E+02 0.25834968E+02 0.43349935E+02 0.54789537E+02 0.10565837E+00 0.0000E+00 0.9000E+01
       23  1    3    3    0    0 -.12281959E+03 0.64911996E+02 -.12173730E+03 0.20599378E+03 0.91188000E+02 0.0000E+00 0.9000E+01
#aMCatNLO 1  0  0  1  2 0.62678359D+02 0.00000000D+00  -5  7  0 0.00000000D+00 0.00000000D+00 0.00000000D+00 0.00000000D+00 0.00000000D+00
  <mgrwgt>
 0.9550624176D-03    9    2    0
 0.365873954577396D+03 0.000000000000000D+00 0.000000000000000D+00 0.365873954577396D+03
 0.365873954577396D+03 0.000000000000000D+00 0.000000000000000D+00 -.365873954577396D+03
 0.308529871390207D+03 0.148429756064285D+03 -.255223514637639D+03 -.394085102026766D+02
 0.173917703998159D+03 -.427426509197810D+01 0.164476741917653D+03 0.563604452614446D+02
 0.669983648239096D+02 -.213359023445717D+02 0.258347762707877D+02 0.580183117236181D+02
 0.182301968942518D+03 -.122819588627735D+03 0.649119964491983D+02 -.749702467823862D+02
 0.000000000000000D+00 -.000000000000000D+00 -.000000000000000D+00 0.000000000000000D+00
 0.400870992700253D+03 0.000000000000000D+00 0.000000000000000D+00 0.400870992700253D+03
 0.396394407145567D+03 0.000000000000000D+00 0.000000000000000D+00 -.396394407145567D+03
 0.290503925986406D+03 0.153131093033634D+03 -.230050326513732D+03 -.394085102026766D+02
 0.188336248986956D+03 -.143122366606802D+01 0.179699734254745D+03 0.563604452614446D+02
 0.690834698109564D+02 -.202679049079871D+02 0.315533411305869D+02 0.580183117236181D+02
 0.186503737083730D+03 -.119925127734474D+03 0.804103130043365D+02 -.749702467823862D+02
 0.628380179777712D+02 -.115068367251054D+02 -.616130618759370D+02 0.447658555468575D+01
0.217972742556D-04 0.000000000000D+00 0.000000000000D+00 0.918131520589D-06 0.000000000000D+00  7 -2 1 -24 -13 13 23 21 0 0.44186886D-01 0.71703917D-01 0.11229672D+06 0.11229672D+06 0.11229672D+06 0.11176121D+01  1  2  2  1  7  1       -2 0.573613301570D-03 0.100000000000D+01
-.119959949795D-05 0.000000000000D+00 -.837072724954D-07 0.918131520589D-06 0.000000000000D+00  7 -2 1 -24 -13 13 23 21 2 0.44186886D-01 0.71703917D-01 0.11229672D+06 0.11229672D+06 0.11229672D+06 0.11176121D+01  1  2  3  1  7  1       -2 -.394307932893D-04 0.100000000000D+01
0.139766629963D-05 0.000000000000D+00 0.000000000000D+00 0.918131520589D-06 0.000000000000D+00  7 -2 1 -24 -13 13 23 21 2 0.44186886D-01 0.71703917D-01 0.11229672D+06 0.11229672D+06 0.11229672D+06 0.11176121D+01  1  2 15  1  7  1       -2 0.459412420916D-04 0.100000000000D+01
0.234673722586D-04 0.000000000000D+00 0.000000000000D+00 0.918131520589D-06 0.000000000000D+00  7 -2 1 -24 -13 13 23 21 2 0.50095870D-01 0.71703917D-01 0.13633685D+06 0.13633685D+06 0.13633685D+06 0.11108400D+01  1  2 12  1  7  1       -2 0.595631887469D-03 0.100000000000D+01
-.195693843565D-04 0.000000000000D+00 0.000000000000D+00 0.918131520589D-06 0.000000000000D+00  7 -2 1 -24 -13 13 23 21 2 0.44186886D-01 0.71703917D-01 0.11229672D+06 0.11229672D+06 0.11229672D+06 0.11176121D+01  1  2  4  1  7  1       -2 -.643244975247D-03 0.100000000000D+01
-.683454732242D-04 0.000000000000D+00 -.179803287197D-04 0.918131520589D-06 0.000000000000D+00  7 -2 1 -24 -13 13 23 21 2 0.52063945D-01 0.71703917D-01 0.11229672D+06 0.11229672D+06 0.11229672D+06 0.11176121D+01  1  2  5  1  7  1       -2 -.163340115785D-02 0.100000000000D+01
0.705824560175D-04 0.000000000000D+00 0.177410810097D-04 0.918131520589D-06 0.000000000000D+00  7 -2 1 -24 -13 13 23 21 2 0.44186886D-01 0.71703917D-01 0.11229672D+06 0.11229672D+06 0.11229672D+06 0.11176121D+01  1  2  6  1  7  1       -2 0.232004284584D-02 0.100000000000D+01
0.462332233505D-06 0.000000000000D+00 0.000000000000D+00 0.918131520589D-06 0.000000000000D+00  7 21 1 -24 -13 13 23 2 2 0.50095870D-01 0.71703917D-01 0.13633685D+06 0.13633685D+06 0.13633685D+06 0.11108400D+01  1  2 12  3  7  1       -2 0.125188568574D-03 0.100000000000D+01
-.152876415898D-05 0.000000000000D+00 -.440708485537D-06 0.918131520589D-06 0.000000000000D+00  7 21 1 -24 -13 13 23 2 2 0.52063945D-01 0.71703917D-01 0.11229672D+06 0.11229672D+06 0.11229672D+06 0.11176121D+01  1  2  5  3  7  1       -2 -.389278501536D-03 0.100000000000D+01
  </mgrwgt>
  </event>
  <event>
  8     66 0.26562228E-05 0.10924594E+03 0.75467711E-02 0.10226487E+00
       -2 -1    0    0    0  501 0.00000000E+00 0.00000000E+00 0.88456041E+03 0.88456046E+03 0.32000000E+00 0.0000E+00 0.9000E+01
        1 -1    0    0  501    0 0.00000000E+00 0.00000000E+00 -.56996061E+02 0.56996959E+02 0.32000000E+00 0.0000E+00 0.9000E+01
       25  2    1    2    0    0 0.27251855E+02 0.60699731E+02 0.41775640E+03 0.51866631E+03 0.30011200E+03 0.0000E+00 0.0000E+00
       23  2    3    3    0    0 -.21860871E+02 0.12768732E+03 0.13442699E+03 0.20965142E+03 0.95399965E+02 0.0000E+00 0.0000E+00
      -24  1    1    2    0    0 -.27251855E+02 -.60699731E+02 0.40980795E+03 0.42289111E+03 0.80419002E+02 0.0000E+00 0.9000E+01
      -11  1    4    4    0    0 0.14876152E+02 0.21682501E+02 -.87884068E+01 0.27724842E+02 0.51099893E-03 0.0000E+00 0.9000E+01
       11  1    4    4    0    0 -.36737023E+02 0.10600482E+03 0.14321540E+03 0.18192658E+03 0.51099893E-03 0.0000E+00 0.9000E+01
       23  1    3    3    0    0 0.49112726E+02 -.66987592E+02 0.28332941E+03 0.30901489E+03 0.91188000E+02 0.0000E+00 0.9000E+01
#aMCatNLO 1  0  0  2  1 0.14016483D+03 0.00000000D+00  -5  7  0 0.00000000D+00 0.00000000D+00 0.00000000D+00 0.00000000D+00 0.00000000D+00
  <mgrwgt>
 0.4694435994D-03    9    2    0
 0.224537098843136D+03 0.000000000000000D+00 0.000000000000000D+00 0.224537098843136D+03
 0.224537098843136D+03 0.000000000000000D+00 0.000000000000000D+00 -.224537098843136D+03
 0.131456712846484D+03 -.272518552182771D+02 -.606997314461554D+02 0.799157705810253D+02
 0.743251399775565D+02 0.148761514347017D+02 0.216825015498347D+02 -.695183118157843D+02
 0.117518146154087D+03 -.367370226834919D+02 0.106004822460445D+03 -.349840457205222D+02
 0.125774198708144D+03 0.491127264670673D+02 -.669875925641242D+02 0.245865869552812D+02
 0.000000000000000D+00 -.000000000000000D+00 0.000000000000000D+00 -.000000000000000D+00
 0.271803811832137D+03 0.000000000000000D+00 0.000000000000000D+00 0.271803811832137D+03
 0.369474653059357D+03 0.000000000000000D+00 0.000000000000000D+00 -.369474653059357D+03
 0.132797401073993D+03 0.123558634689815D+02 -.680348148230987D+02 0.799157705810253D+02
 0.811945038246530D+02 0.381862078447005D+02 0.173656357227808D+02 -.695183118157843D+02
 0.105809841078559D+03 -.326351507344865D+01 0.998057537592880D+02 -.349840457205222D+02
 0.150638276858443D+03 0.905428007673855D+02 -.746601639562137D+02 0.245865869552812D+02
 0.170838442055847D+03 -.137821357007619D+03 0.255235892972435D+02 -.976708412272208D+02
0.170097318651D-04 0.000000000000D+00 0.000000000000D+00 0.110299022774D-06 0.000000000000D+00  7 -2 1 -24 -11 11 23 21 0 0.13608629D+00 0.87686983D-02 0.33527229D+05 0.33527229D+05 0.33527229D+05 0.11628831D+01  1  2  2  2  7  2        1 0.582818942966D-03 0.100000000000D+01
-.897177150906D-06 0.000000000000D+00 -.653218491272D-07 0.110299022774D-06 0.000000000000D+00  7 -2 1 -24 -11 11 23 21 2 0.13608629D+00 0.87686983D-02 0.33527229D+05 0.33527229D+05 0.33527229D+05 0.11628831D+01  1  2  3  2  7  2        1 -.415706198391D-04 0.100000000000D+01
0.104725479487D-05 0.000000000000D+00 0.000000000000D+00 0.110299022774D-06 0.000000000000D+00  7 -2 1 -24 -11 11 23 21 2 0.13608629D+00 0.87686983D-02 0.33527229D+05 0.33527229D+05 0.33527229D+05 0.11628831D+01  1  2 15  2  7  2        1 0.485244535132D-04 0.100000000000D+01
0.117904555376D-05 0.000000000000D+00 0.000000000000D+00 0.110299022774D-06 0.000000000000D+00  7 -2 1 -24 -11 11 23 21 2 0.13608629D+00 0.14862835D-01 0.71998601D+05 0.71998601D+05 0.71998601D+05 0.11336218D+01  1  2 12  2  7  2        1 0.257732717546D-04 0.100000000000D+01
-.996388287371D-05 0.000000000000D+00 0.000000000000D+00 0.110299022774D-06 0.000000000000D+00  7 -2 1 -24 -11 11 23 21 2 0.13608629D+00 0.87686983D-02 0.33527229D+05 0.33527229D+05 0.33527229D+05 0.11628831D+01  1  2  4  2  7  2        1 -.461675586194D-03 0.100000000000D+01
-.757347708685D-05 0.000000000000D+00 -.599961121660D-05 0.110299022774D-06 0.000000000000D+00  7 -2 1 -24 -11 11 23 21 2 0.13608629D+00 0.17434920D-01 0.33527229D+05 0.33527229D+05 0.33527229D+05 0.11628831D+01  1  2  5  2  7  2        1 -.143003928836D-03 0.100000000000D+01
0.103401806183D-04 0.000000000000D+00 0.481654255317D-05 0.110299022774D-06 0.000000000000D+00  7 -2 1 -24 -11 11 23 21 2 0.13608629D+00 0.87686983D-02 0.33527229D+05 0.33527229D+05 0.33527229D+05 0.11628831D+01  1  2  6  2  7  2        1 0.479111307191D-03 0.100000000000D+01
0.694176997759D-07 0.000000000000D+00 0.000000000000D+00 0.110299022774D-06 0.000000000000D+00  7 -2 21 -24 -11 11 23 -1 2 0.13608629D+00 0.14862835D-01 0.71998601D+05 0.71998601D+05 0.71998601D+05 0.11336218D+01  1  2 12  4  7  2        1 0.146340978000D-04 0.100000000000D+01
-.205109140382D-06 0.000000000000D+00 -.446289198948D-06 0.110299022774D-06 0.000000000000D+00  7 -2 21 -24 -11 11 23 -1 2 0.13608629D+00 0.17434920D-01 0.33527229D+05 0.33527229D+05 0.33527229D+05 0.11628831D+01  1  2  5  4  7  2        1 -.351683390036D-04 0.100000000000D+01
  </mgrwgt>
  </event>
  <event>
  8     66 0.26562228E-05 0.50649611E+03 0.75467711E-02 0.93968734E-01
       -2 -1    0    0    0  501 0.00000000E+00 0.00000000E+00 0.13332798E+03 0.13332836E+03 0.32000000E+00 0.0000E+00 0.9000E+01
        1 -1    0    0  501    0 0.00000000E+00 0.00000000E+00 -.21872942E+04 0.21872942E+04 0.32000000E+00 0.0000E+00 0.9000E+01
       25  2    1    2    0    0 0.46335563E+03 0.28573477E+01 -.72669739E+03 0.91249746E+03 0.29975975E+03 0.0000E+00 0.0000E+00
       23  2    3    3    0    0 0.44662490E+03 -.17476937E+02 -.60209709E+03 0.75586449E+03 0.95031457E+02 0.0000E+00 0.0000E+00
      -24  1    1    2    0    0 -.46335563E+03 -.28573477E+01 -.13272688E+04 0.14081251E+04 0.80419002E+02 0.0000E+00 0.9000E+01
      -13  1    4    4    0    0 0.26983488E+03 0.27082724E+01 -.28658930E+03 0.39363897E+03 0.10565837E+00 0.0000E+00 0.9000E+01
       13  1    4    4    0    0 0.17679002E+03 -.20185209E+02 -.31550779E+03 0.36222553E+03 0.10565837E+00 0.0000E+00 0.9000E+01
       23  1    3    3    0    0 0.16730735E+02 0.20334285E+02 -.12460030E+03 0.15663297E+03 0.91188000E+02 0.0000E+00 0.9000E+01
#aMCatNLO 1  0  0  1  2 0.46089616D+02 0.00000000D+00  -5  7  0 0.00000000D+00 0.00000000D+00 0.00000000D+00 0.00000000D+00 0.00000000D+00
  <mgrwgt>
 0.6557310510D-03    4    2    0
 0.540025911458785D+03 0.000000000000000D+00 0.000000000000000D+00 0.540025911458785D+03
 0.540025911458785D+03 0.000000000000000D+00 0.000000000000000D+00 -.540025911458785D+03
 0.501421888666418D+03 -.463355631557423D+03 -.285734769212878D+01 -.173925526440528D+03
 0.300766027923782D+03 0.269834995664029D+03 0.270830038141084D+01 0.132822979100331D+03
 0.178274984134232D+03 0.176789901209671D+03 -.201852374924410D+02 0.109479215246165D+02
 0.995889221931375D+02 0.167307346837232D+02 0.203342848031590D+02 0.301546258155805D+02
 0.000000000000000D+00 -.000000000000000D+00 -.000000000000000D+00 -.000000000000000D+00
 0.549968942136831D+03 0.000000000000000D+00 0.000000000000000D+00 0.549968942136831D+03
 0.596705318199776D+03 0.000000000000000D+00 0.000000000000000D+00 -.596705318199776D+03
 0.482107012682272D+03 -.442384476091056D+03 -.241708276242190D+01 -.173925526440528D+03
 0.312554454161802D+03 0.282912434631899D+03 0.298284594744649D+01 0.132822979100331D+03
 0.185961738595771D+03 0.184556287056042D+03 -.200221912871801D+02 0.109479215246165D+02
 0.100411573317118D+03 0.209952168752934D+02 0.204238126289060D+02 0.301546258155805D+02
 0.656394815796443D+02 -.460794624721781D+02 -.967384526750573D+00 -.467363760629447D+02
0.182649733133D-03 0.000000000000D+00 0.000000000000D+00 0.997386116870D-06 0.000000000000D+00  7 -2 1 -24 -13 13 23 21 0 0.20512028D-01 0.33650683D+00 0.25653831D+06 0.25653831D+06 0.25653831D+06 0.10896166D+01  1  2  2  1  7  1       -2 0.897101378325D-03 0.100000000000D+01
-.100965140995D-04 0.000000000000D+00 -.701423068011D-06 0.997386116870D-06 0.000000000000D+00  7 -2 1 -24 -13 13 23 21 2 0.20512028D-01 0.33650683D+00 0.25653831D+06 0.25653831D+06 0.25653831D+06 0.10896166D+01  1  2  3  1  7  1       -2 -.588764171959D-04 0.100000000000D+01
0.117334341376D-04 0.000000000000D+00 0.000000000000D+00 0.997386116870D-06 0.000000000000D+00  7 -2 1 -24 -13 13 23 21 2 0.20512028D-01 0.33650683D+00 0.25653831D+06 0.25653831D+06 0.25653831D+06 0.10896166D+01  1  2 15  1  7  1       -2 0.684218886461D-04 0.100000000000D+01
-.430286865354D-04 0.000000000000D+00 0.000000000000D+00 0.997386116870D-06 0.000000000000D+00  7 -2 1 -24 -13 13 23 21 2 0.20512028D-01 0.33650683D+00 0.25653831D+06 0.25653831D+06 0.25653831D+06 0.10896166D+01  1  2  4  1  7  1       -2 -.250915798748D-03 0.100000000000D+01
  </mgrwgt>
  </event>
  <event>
  8     66 0.26562228E-05 0.17487178E+03 0.75467711E-02 0.98515881E-01
       -2 -1    0    0    0  501 0.00000000E+00 0.00000000E+00 0.39959677E+03 0.39959689E+03 0.32000000E+00 0.0000E+00 0.9000E+01
        1 -1    0    0  501    0 0.00000000E+00 0.00000000E+00 -.26800481E+03 0.26800500E+03 0.32000000E+00 0.0000E+00 0.9000E+01
       25  2    1    2    0    0 -.55848220E+02 0.23586894E+03 0.11959306E+02 0.38558706E+03 0.29963507E+03 0.0000E+00 0.0000E+00
       23  2    3    3    0    0 -.30484516E+02 0.12188117E+03 -.11334854E+03 0.19154109E+03 0.89753969E+02 0.0000E+00 0.0000E+00
      -24  1    1    2    0    0 0.55848220E+02 -.23586894E+03 0.11963265E+03 0.28201483E+03 0.80419002E+02 0.0000E+00 0.9000E+01
      -11  1    4    4    0    0 0.11945519E+02 0.10321785E+01 -.44583711E+02 0.46167826E+02 0.51099893E-03 0.0000E+00 0.9000E+01
       11  1    4    4    0    0 -.42430035E+02 0.12084899E+03 -.68764829E+02 0.14537327E+03 0.51099893E-03 0.0000E+00 0.9000E+01
       23  1    3    3    0    0 -.25363703E+02 0.11398777E+03 0.12530785E+03 0.19404597E+03 0.91188000E+02 0.0000E+00 0.9000E+01
#aMCatNLO 1  0  0  1  2 0.14702293D+03 0.00000000D+00  -5  7  0 0.00000000D+00 0.00000000D+00 0.00000000D+00 0.00000000D+00 0.00000000D+00
  <mgrwgt>
 0.7456878235D-03    9    2    0
 0.327252139046700D+03 0.000000000000000D+00 0.000000000000000D+00 0.327252139046700D+03
 0.327252139046700D+03 0.000000000000000D+00 0.000000000000000D+00 -.327252139046700D+03
 0.263605525936922D+03 0.558482196783395D+02 -.235868939881047D+03 0.653259283000403D+02
 0.560555322652121D+02 0.119455186447090D+02 0.103217850321187D+01 -.547582129856577D+02
 0.162107981944948D+03 -.424300349938863D+02 0.120848986663638D+03 -.993690714611596D+02
 0.172735237946317D+03 -.253637033291622D+02 0.113987774714196D+03 0.888013561467770D+02
 0.000000000000000D+00 0.000000000000000D+00 -.000000000000000D+00 0.000000000000000D+00
 0.429828359532800D+03 0.000000000000000D+00 0.000000000000000D+00 0.429828359532800D+03
 0.392639231192884D+03 0.000000000000000D+00 0.000000000000000D+00 -.392639231192884D+03
 0.215880590928799D+03 0.475299118204834D+02 -.183332059824440D+03 0.653259283000403D+02
 0.572617750814151D+02 0.997964681865047D+01 0.134482580829978D+02 -.547582129856577D+02
 0.194450745963159D+03 -.486157516680895D+02 0.159916818791279D+03 -.993690714611596D+02
 0.203221014329398D+03 -.318859356472901D+02 0.155180976847871D+03 0.888013561467770D+02
 0.151653464422912D+03 0.229921286762457D+02 -.145213993897708D+03 0.371891283399164D+02
0.212396649178D-04 0.000000000000D+00 0.000000000000D+00 0.100264095929D-05 0.000000000000D+00  7 -2 1 -24 -11 11 23 21 0 0.61476450D-01 0.41231534D-01 0.73879419D+05 0.73879419D+05 0.73879419D+05 0.11326736D+01  1  2  2  1  7  1       -2 0.609318072264D-03 0.100000000000D+01
-.113054100637D-05 0.000000000000D+00 -.815659058164D-07 0.100264095929D-05 0.000000000000D+00  7 -2 1 -24 -11 11 23 21 2 0.61476450D-01 0.41231534D-01 0.73879419D+05 0.73879419D+05 0.73879419D+05 0.11326736D+01  1  2  3  1  7  1       -2 -.416094779324D-04 0.100000000000D+01
0.136379102681D-05 0.000000000000D+00 0.000000000000D+00 0.100264095929D-05 0.000000000000D+00  7 -2 1 -24 -11 11 23 21 2 0.61476450D-01 0.41231534D-01 0.73879419D+05 0.73879419D+05 0.73879419D+05 0.11326736D+01  1  2 15  1  7  1       -2 0.501942276440D-04 0.100000000000D+01
0.574473735950D-05 0.000000000000D+00 0.000000000000D+00 0.100264095929D-05 0.000000000000D+00  7 -2 1 -24 -11 11 23 21 2 0.85303813D-01 0.41231534D-01 0.12940740D+06 0.12940740D+06 0.12940740D+06 0.11126487D+01  1  2 12  1  7  1       -2 0.994702262248D-04 0.100000000000D+01
-.100786746893D-04 0.000000000000D+00 0.000000000000D+00 0.100264095929D-05 0.000000000000D+00  7 -2 1 -24 -11 11 23 21 2 0.61476450D-01 0.41231534D-01 0.73879419D+05 0.73879419D+05 0.73879419D+05 0.11326736D+01  1  2  4  1  7  1       -2 -.370944874810D-03 0.100000000000D+01
-.147142680573D-04 0.000000000000D+00 -.812174380161D-05 0.100264095929D-05 0.000000000000D+00  7 -2 1 -24 -11 11 23 21 2 0.93846353D-01 0.41231534D-01 0.73879419D+05 0.73879419D+05 0.73879419D+05 0.11326736D+01  1  2  5  1  7  1       -2 -.214478124793D-03 0.100000000000D+01
0.172586932027D-04 0.000000000000D+00 0.744561821326D-05 0.100264095929D-05 0.000000000000D+00  7 -2 1 -24 -11 11 23 21 2 0.61476450D-01 0.41231534D-01 0.73879419D+05 0.73879419D+05 0.73879419D+05 0.11326736D+01  1  2  6  1  7  1       -2 0.635204923939D-03 0.100000000000D+01
0.236595558096D-06 0.000000000000D+00 0.000000000000D+00 0.100264095929D-05 0.000000000000D+00  7 21 1 -24 -11 11 23 2 2 0.85303813D-01 0.41231534D-01 0.12940740D+06 0.12940740D+06 0.12940740D+06 0.11126487D+01  1  2 12  3  7  1       -2 0.398575969592D-04 0.100000000000D+01
-.431285728616D-06 0.000000000000D+00 -.402895066061D-06 0.100264095929D-05 0.000000000000D+00  7 21 1 -24 -11 11 23 2 2 0.93846353D-01 0.41231534D-01 0.73879419D+05 0.73879419D+05 0.73879419D+05 0.11326736D+01  1  2  5  3  7  1       -2 -.613247460296D-04 0.100000000000D+01
  </mgrwgt>
  </event>
  <event>
  8     66 0.26562228E-05 0.17674178E+03 0.75467711E-02 0.99840290E-01
       -2 -1    0    0    0  501 0.00000000E+00 0.00000000E+00 0.12914891E+03 0.12914931E+03 0.32000000E+00 0.0000E+00 0.9000E+01
        1 -1    0    0  501    0 0.00000000E+00 0.00000000E+00 -.38988074E+03 0.38988087E+03 0.32000000E+00 0.0000E+00 0.9000E+01
       25  2    1    2    0    0 -.11430488E+02 0.60589788E+02 -.28796422E+03 0.41409878E+03 0.29112305E+03 0.0000E+00 0.0000E+00
       23  2    3    3    0    0 -.57929936E+02 0.11529688E+03 -.81839307E+02 0.17754478E+03 0.90416963E+02 0.0000E+00 0.0000E+00
      -24  1    1    2    0    0 0.11430488E+02 -.60589788E+02 0.27232395E+02 0.10493140E+03 0.80419002E+02 0.0000E+00 0.9000E+01
      -13  1    4    4    0    0 -.61031304E+02 0.11741522E+03 -.95619655E+02 0.16326140E+03 0.10565837E+00 0.0000E+00 0.9000E+01
       13  1    4    4    0    0 0.31013678E+01 -.21183366E+01 0.13780348E+02 0.14283382E+02 0.10565837E+00 0.0000E+00 0.9000E+01
       23  1    3    3    0    0 0.46499449E+02 -.54707094E+02 -.20612491E+03 0.23655400E+03 0.91188000E+02 0.0000E+00 0.9000E+01
#aMCatNLO 1  0  0  1  2 0.22682105D+03 0.00000000D+00  -5  7  0 0.00000000D+00 0.00000000D+00 0.00000000D+00 0.00000000D+00 0.00000000D+00
  <mgrwgt>
 0.9244139889D-02    5    2    0
 0.224394316826618D+03 0.000000000000000D+00 0.000000000000000D+00 0.224394316826618D+03
 0.224394316826618D+03 0.000000000000000D+00 0.000000000000000D+00 -.224394316826618D+03
 0.137175778937533D+03 0.114304928378915D+02 -.605898147990712D+02 0.924564575832625D+02
 0.133262211114192D+03 -.610313817405656D+02 0.117415372222495D+03 -.157358736565102D+02
 0.245247076573681D+02 0.310146024990684D+01 -.211850543328710D+01 0.242353907483818D+02
 0.153825935944143D+03 0.464994286527673D+02 -.547070519901368D+02 -.100955974675134D+03
 0.000000000000000D+00 0.000000000000000D+00 0.000000000000000D+00 0.000000000000000D+00
 0.389534808235882D+03 0.000000000000000D+00 0.000000000000000D+00 0.389534808235882D+03
 0.344554168395171D+03 0.000000000000000D+00 0.000000000000000D+00 -.344554168395171D+03
 0.158359039460514D+03 -.550585006974944D+02 -.838494745158513D+02 0.924564575832625D+02
 0.158835648852021D+03 -.126747133367623D+03 0.944262135722849D+02 -.157358736565102D+02
 0.263529938664732D+02 -.834493102828689D+01 -.612276466416585D+01 0.242353907483818D+02
 0.159303217949777D+03 -.239479128883987D+02 -.793514495824578D+02 -.100955974675134D+03
 0.231238076502269D+03 0.214098477981803D+03 0.748974751901900D+02 0.449806398407112D+02
0.605390058532D-04 0.000000000000D+00 0.000000000000D+00 0.439033291680D-08 0.000000000000D+00  7 -2 1 -24 -13 13 23 21 0 0.19869104D-01 0.59981692D-01 0.31237657D+05 0.31237657D+05 0.31237657D+05 0.11657104D+01  1  2  2  1  7  1       -2 0.823807312849D-02 0.100000000000D+01
-.313025236885D-05 0.000000000000D+00 -.232485722763D-06 0.439033291680D-08 0.000000000000D+00  7 -2 1 -24 -13 13 23 21 2 0.19869104D-01 0.59981692D-01 0.31237657D+05 0.31237657D+05 0.31237657D+05 0.11657104D+01  1  2  3  1  7  1       -2 -.578830058963D-03 0.100000000000D+01
0.385175754676D-05 0.000000000000D+00 0.000000000000D+00 0.439033291680D-08 0.000000000000D+00  7 -2 1 -24 -13 13 23 21 2 0.19869104D-01 0.59981692D-01 0.31237657D+05 0.31237657D+05 0.31237657D+05 0.11657104D+01  1  2 15  1  7  1       -2 0.712247060362D-03 0.100000000000D+01
0.592966680725D-05 0.000000000000D+00 -.185309588611D-04 0.439033291680D-08 0.000000000000D+00  7 -2 1 -24 -13 13 23 21 2 0.51488901D-01 0.59981692D-01 0.31237657D+05 0.31237657D+05 0.31237657D+05 0.11657104D+01  1  2  5  1  7  1       -2 0.204512828785D-03 0.100000000000D+01
0.174432309113D-05 0.000000000000D+00 -.195392594044D-05 0.439033291680D-08 0.000000000000D+00  7 21 1 -24 -13 13 23 2 2 0.51488901D-01 0.59981692D-01 0.31237657D+05 0.31237657D+05 0.31237657D+05 0.11657104D+01  1  2  5  3  7  1       -2 0.668136930257D-03 0.100000000000D+01
  </mgrwgt>
  </event>
  <event>
  8     66 0.26562228E-05 0.19086547E+03 0.75467711E-02 0.96606139E-01
       -2 -1    0    0    0  501 0.00000000E+00 0.00000000E+00 0.42944778E+02 0.42945970E+02 0.32000000E+00 0.0000E+00 0.9000E+01
        1 -1    0    0  501    0 0.00000000E+00 0.00000000E+00 -.22344568E+04 0.22344569E+04 0.32000000E+00 0.0000E+00 0.9000E+01
       25  2    1    2    0    0 -.17933138E+02 -.50856139E+02 -.21508632E+04 0.21723910E+04 0.30026982E+03 0.0000E+00 0.0000E+00
       23  2    3    3    0    0 -.12095085E+03 -.48368472E+02 -.10359758E+04 0.10490441E+04 0.10138623E+03 0.0000E+00 0.0000E+00
      -24  1    1    2    0    0 0.17933138E+02 0.50856139E+02 -.40648810E+02 0.10501184E+03 0.80419002E+02 0.0000E+00 0.9000E+01
      -13  1    4    4    0    0 -.10339022E+03 -.65806512E+02 -.60120004E+03 0.61356461E+03 0.10565837E+00 0.0000E+00 0.9000E+01
       13  1    4    4    0    0 -.17560629E+02 0.17438040E+02 -.43477574E+03 0.43547953E+03 0.10565837E+00 0.0000E+00 0.9000E+01
       23  1    3    3    0    0 0.10301771E+03 -.24876670E+01 -.11148875E+04 0.11233468E+04 0.91188000E+02 0.0000E+00 0.9000E+01
#aMCatNLO 1  0  0  2  2 0.32038399D+03 0.00000000D+00  -5  7  0 0.00000000D+00 0.00000000D+00 0.00000000D+00 0.00000000D+00 0.00000000D+00
  <mgrwgt>
 0.1336855133D-02    3    2    0
 0.309773523294173D+03 0.000000000000000D+00 0.000000000000000D+00 0.309773523294173D+03
 0.309773523294173D+03 0.000000000000000D+00 0.000000000000000D+00 -.309773523294173D+03
 0.242228413429240D+03 0.179331379292278D+02 0.508561391293970D+02 0.222034781047787D+03
 0.128798434330356D+03 -.103390321646333D+03 -.658065754986656D+02 -.396102599960809D+02
 0.628619841886880D+02 -.175605645099681D+02 0.174381009997725D+02 -.577855368042198D+02
 0.185658214640063D+03 0.103017748227073D+03 -.248766463050390D+01 -.124638984247487D+03
 0.000000000000000D+00 0.000000000000000D+00 -.000000000000000D+00 0.000000000000000D+00
 0.528530388292935D+03 0.000000000000000D+00 0.000000000000000D+00 0.528530388292935D+03
 0.491473880828922D+03 0.000000000000000D+00 0.000000000000000D+00 -.491473880828922D+03
 0.296579778330492D+03 -.857828309996941D+01 0.179218631911727D+03 0.222034781047787D+03
 0.122488364870404D+03 -.115754591964743D+03 -.594148725018182D+01 -.396102599960809D+02
 0.814379451380127D+02 -.246606721909024D+02 0.518152669745413D+02 -.577855368042198D+02
 0.196978280252366D+03 0.841905711863929D+02 0.886694021421328D+02 -.124638984247487D+03
 0.322519900530582D+03 0.648029760692214D+02 -.313761813778219D+03 0.370565074640129D+02
0.448360705867D-04 0.000000000000D+00 0.000000000000D+00 0.778910099829D-07 0.000000000000D+00  7 -2 1 -24 -13 13 23 21 0 0.66069824D-02 0.34376268D+00 0.36429629D+05 0.36429629D+05 0.36429629D+05 0.11595913D+01  1  2  2  2  7  2        1 0.129578186426D-02 0.100000000000D+01
-.178063447548D-05 0.000000000000D+00 -.172182316661D-06 0.778910099829D-07 0.000000000000D+00  7 -2 1 -24 -13 13 23 21 2 0.66069824D-02 0.34376268D+00 0.36429629D+05 0.36429629D+05 0.36429629D+05 0.11595913D+01  1  2  3  2  7  2        1 -.691972754223D-04 0.100000000000D+01
0.283756160489D-05 0.000000000000D+00 0.000000000000D+00 0.778910099829D-07 0.000000000000D+00  7 -2 1 -24 -13 13 23 21 2 0.66069824D-02 0.34376268D+00 0.36429629D+05 0.36429629D+05 0.36429629D+05 0.11595913D+01  1  2 15  2  7  2        1 0.110270543789D-03 0.100000000000D+01
  </mgrwgt>
  </event>
  <event>
  8     66 0.26562228E-05 0.17431680E+03 0.75467711E-02 0.10205481E+00
       -2 -1    0    0    0  501 0.00000000E+00 0.00000000E+00 0.59609783E+03 0.59609791E+03 0.32000000E+00 0.0000E+00 0.9000E+01
        1 -1    0    0  501    0 0.00000000E+00 0.00000000E+00 -.18102105E+03 0.18102134E+03 0.32000000E+00 0.0000E+00 0.9000E+01
       25  2    1    2    0    0 -.17730145E+03 -.42280831E+02 0.45448347E+03 0.57403410E+03 0.29956043E+03 0.0000E+00 0.0000E+00
       23  2    3    3    0    0 -.58959187E+02 -.11167930E+03 0.33925485E+03 0.37300195E+03 0.89934158E+02 0.0000E+00 0.0000E+00
      -24  1    1    2    0    0 0.17730145E+03 0.42280831E+02 -.39406700E+02 0.20308515E+03 0.80419002E+02 0.0000E+00 0.9000E+01
      -11  1    4    4    0    0 -.78403232E+02 -.78890340E+02 0.20251445E+03 0.23104730E+03 0.51099893E-03 0.0000E+00 0.9000E+01
       11  1    4    4    0    0 0.19444045E+02 -.32788961E+02 0.13674040E+03 0.14195465E+03 0.51099893E-03 0.0000E+00 0.9000E+01
       23  1    3    3    0    0 -.11834226E+03 0.69398470E+02 0.11522863E+03 0.20103215E+03 0.91188000E+02 0.0000E+00 0.9000E+01
#aMCatNLO 1  0  0  2  1 0.28677973D+02 0.00000000D+00  -5  7  0 0.00000000D+00 0.00000000D+00 0.00000000D+00 0.00000000D+00 0.00000000D+00
  <mgrwgt>
 0.8699603381D-03    9    2    0
 0.328491096659499D+03 0.000000000000000D+00 0.000000000000000D+00 0.328491096659499D+03
 0.328491096659499D+03 0.000000000000000D+00 0.000000000000000D+00 -.328491096659499D+03
 0.265118574895795D+03 0.177301449389127D+03 0.422808313321087D+02 -.174920468061309D+03
 0.145349846584429D+03 -.784032323456905D+02 -.788903403187023D+02 0.935725668359268D+02
 0.815211272765971D+02 0.194440452865968D+02 -.327889613518138D+02 0.720590543152571D+02
 0.164992644562177D+03 -.118342262330033D+03 0.693984703384074D+02 0.928884691012489D+01
 0.000000000000000D+00 -.000000000000000D+00 0.000000000000000D+00 -.000000000000000D+00
 0.330464977027242D+03 0.000000000000000D+00 0.000000000000000D+00 0.330464977027242D+03
 0.452583231094786D+03 0.000000000000000D+00 0.000000000000000D+00 -.452583231094786D+03
 0.265201767537802D+03 0.179745029449587D+03 0.309728234454613D+02 -.174920468061309D+03
 0.148131344158313D+03 -.770509463245129D+02 -.851482326791432D+02 0.935725668359268D+02
 0.831770100280778D+02 0.202029320426013D+02 -.363008157660928D+02 0.720590543152571D+02
 0.161097685766226D+03 -.116839721760983D+03 0.624452540801139D+02 0.928884691012489D+01
 0.125440400631610D+03 -.605729340669310D+01 0.280309709196608D+02 -.122118254067543D+03
0.403818923168D-04 0.000000000000D+00 0.000000000000D+00 0.133220861615D-05 0.000000000000D+00  7 -2 1 -24 -11 11 23 21 0 0.91707387D-01 0.27849421D-01 0.65869417D+05 0.65869417D+05 0.65869417D+05 0.11369120D+01  1  2  2  2  7  2        1 0.805827146879D-03 0.100000000000D+01
-.207730073228D-05 0.000000000000D+00 -.155077099293D-06 0.133220861615D-05 0.000000000000D+00  7 -2 1 -24 -11 11 23 21 2 0.91707387D-01 0.27849421D-01 0.65869417D+05 0.65869417D+05 0.65869417D+05 0.11369120D+01  1  2  3  2  7  2        1 -.535806859624D-04 0.100000000000D+01
0.260452628718D-05 0.000000000000D+00 0.000000000000D+00 0.133220861615D-05 0.000000000000D+00  7 -2 1 -24 -11 11 23 21 2 0.91707387D-01 0.27849421D-01 0.65869417D+05 0.65869417D+05 0.65869417D+05 0.11369120D+01  1  2 15  2  7  2        1 0.671796350454D-04 0.100000000000D+01
0.591862261065D-03 0.000000000000D+00 0.000000000000D+00 0.133220861615D-05 0.000000000000D+00  7 -2 1 -24 -11 11 23 21 2 0.91707387D-01 0.38430197D-01 0.74316912D+05 0.74316912D+05 0.74316912D+05 0.11324568D+01  1  2 12  2  7  2        1 0.996757805049D-02 0.100000000000D+01
-.567750915304D-03 0.000000000000D+00 0.000000000000D+00 0.133220861615D-05 0.000000000000D+00  7 -2 1 -24 -11 11 23 21 2 0.91707387D-01 0.27849421D-01 0.65869417D+05 0.65869417D+05 0.65869417D+05 0.11369120D+01  1  2  4  2  7  2        1 -.146442366409D-01 0.100000000000D+01
-.609872583311D-03 0.000000000000D+00 -.212369547016D-04 0.133220861615D-05 0.000000000000D+00  7 -2 1 -24 -11 11 23 21 2 0.91707387D-01 0.38483635D-01 0.65869417D+05 0.65869417D+05 0.65869417D+05 0.11369120D+01  1  2  5  2  7  2        1 -.103588373846D-01 0.100000000000D+01
0.586844569538D-03 0.000000000000D+00 0.201726837711D-04 0.133220861615D-05 0.000000000000D+00  7 -2 1 -24 -11 11 23 21 2 0.91707387D-01 0.27849421D-01 0.65869417D+05 0.65869417D+05 0.65869417D+05 0.11369120D+01  1  2  6  2  7  2        1 0.151367272444D-01 0.100000000000D+01
0.240783751874D-04 0.000000000000D+00 0.000000000000D+00 0.133220861615D-05 0.000000000000D+00  7 -2 21 -24 -11 11 23 -1 2 0.91707387D-01 0.38430197D-01 0.74316912D+05 0.74316912D+05 0.74316912D+05 0.11324568D+01  1  2 12  4  7  2        1 0.223613468678D-02 0.100000000000D+01
-.243539506512D-04 0.000000000000D+00 -.866654144117D-06 0.133220861615D-05 0.000000000000D+00  7 -2 21 -24 -11 11 23 -1 2 0.91707387D-01 0.38483635D-01 0.65869417D+05 0.65869417D+05 0.65869417D+05 0.11369120D+01  1  2  5  4  7  2        1 -.228683171403D-02 0.100000000000D+01
  </mgrwgt>
  </event>
  <event>
  8     66 0.26562228E-05 0.21880276E+03 0.75467711E-02 0.90635506E-01
       -2 -1    0    0    0  501 0.00000000E+00 0.00000000E+00 0.94766205E+03 0.94766210E+03 0.32000000E+00 0.0000E+00 0.9000E+01
        1 -1    0    0  501    0 0.00000000E+00 0.00000000E+00 -.48177816E+03 0.48177827E+03 0.32000000E+00 0.0000E+00 0.9000E+01
       25  2    1    2    0    0 0.10178378E+03 0.61296319E+03 0.80034761E+02 0.69362071E+03 0.29769166E+03 0.0000E+00 0.0000E+00
       23  2    3    3    0    0 0.11985940E+03 0.14876106E+03 0.55884906E+02 0.21958610E+03 0.92729745E+02 0.0000E+00 0.0000E+00
      -24  1    1    2    0    0 -.10178378E+03 -.61296319E+03 0.38584913E+03 0.73581966E+03 0.80419002E+02 0.0000E+00 0.9000E+01
      -11  1    4    4    0    0 0.47942198E+02 0.71782094E+02 -.21397353E+02 0.88932390E+02 0.51099893E-03 0.0000E+00 0.9000E+01
       11  1    4    4    0    0 0.71917204E+02 0.76978963E+02 0.77282260E+02 0.13065371E+03 0.51099893E-03 0.0000E+00 0.9000E+01
       23  1    3    3    0    0 -.18075626E+02 0.46420213E+03 0.24149855E+02 0.47403461E+03 0.91188000E+02 0.0000E+00 0.9000E+01
#aMCatNLO 1  0  0  1  2 0.14637886D+03 0.00000000D+00  -5  7  0 0.00000000D+00 0.00000000D+00 0.00000000D+00 0.00000000D+00 0.00000000D+00
  <mgrwgt>
 0.1297188574D-02    9    2    0
 0.675694454014905D+03 0.000000000000000D+00 0.000000000000000D+00 0.675694454014905D+03
 0.675694454014905D+03 0.000000000000000D+00 0.000000000000000D+00 -.675694454014905D+03
 0.645298647772388D+03 -.101783775094855D+03 -.612963186679374D+03 0.154464635971503D+03
 0.101445431571901D+03 0.479421975693709D+02 0.717820937230610D+02 -.532921410694144D+02
 0.111557176913385D+03 0.719172036768610D+02 0.769789625522900D+02 0.367036627676095D+02
 0.493087651772134D+03 -.180756261513773D+02 0.464202130404023D+03 -.137876157669698D+03
 0.000000000000000D+00 0.000000000000000D+00 0.000000000000000D+00 0.000000000000000D+00
 0.860346268835350D+03 0.000000000000000D+00 0.000000000000000D+00 0.860346268835350D+03
 0.709290936285359D+03 0.000000000000000D+00 0.000000000000000D+00 -.709290936285359D+03
 0.686641119230499D+03 -.167232163324674D+03 -.642793038580601D+03 0.154464635971503D+03
 0.940888572076896D+02 0.383341023977065D+02 0.674029475931787D+02 -.532921410694144D+02
 0.101663249862557D+03 0.614400532712080D+02 0.722037212759110D+02 0.367036627676095D+02
 0.476900248978850D+03 -.657385507665266D+02 0.442478478822922D+03 -.137876157669698D+03
 0.210343729841112D+03 0.133196558422286D+03 0.607078908885901D+02 0.151055332549991D+03
0.554774638333D-03 0.000000000000D+00 0.000000000000D+00 0.418751300603D-06 0.000000000000D+00  7 -2 1 -24 -11 11 23 21 0 0.14579417D+00 0.74119730D-01 0.41707325D+06 0.41707325D+06 0.41707325D+06 0.10741215D+01  1  2  2  1  7  1       -2 0.889368523353D-03 0.100000000000D+01
-.307441433124D-04 0.000000000000D+00 -.213048068672D-05 0.418751300603D-06 0.000000000000D+00  7 -2 1 -24 -11 11 23 21 2 0.14579417D+00 0.74119730D-01 0.41707325D+06 0.41707325D+06 0.41707325D+06 0.10741215D+01  1  2  3  1  7  1       -2 -.568636003228D-04 0.100000000000D+01
0.356405990027D-04 0.000000000000D+00 0.000000000000D+00 0.418751300603D-06 0.000000000000D+00  7 -2 1 -24 -11 11 23 21 2 0.14579417D+00 0.74119730D-01 0.41707325D+06 0.41707325D+06 0.41707325D+06 0.10741215D+01  1  2 15  1  7  1       -2 0.659199625880D-04 0.100000000000D+01
0.844667573784D-03 0.000000000000D+00 0.000000000000D+00 0.418751300603D-06 0.000000000000D+00  7 -2 1 -24 -11 11 23 21 2 0.18854292D+00 0.74119730D-01 0.52150282D+06 0.52150282D+06 0.52150282D+06 0.10672204D+01  1  2 12  1  7  1       -2 0.726597021888D-03 0.100000000000D+01
-.868242746974D-03 0.000000000000D+00 0.000000000000D+00 0.418751300603D-06 0.000000000000D+00  7 -2 1 -24 -11 11 23 21 2 0.14579417D+00 0.74119730D-01 0.41707325D+06 0.41707325D+06 0.41707325D+06 0.10741215D+01  1  2  4  1  7  1       -2 -.160588011985D-02 0.100000000000D+01
-.131160624576D-02 0.000000000000D+00 -.270990189169D-03 0.418751300603D-06 0.000000000000D+00  7 -2 1 -24 -11 11 23 21 2 0.19015674D+00 0.74119730D-01 0.41707325D+06 0.41707325D+06 0.41707325D+06 0.10741215D+01  1  2  5  1  7  1       -2 -.112611416655D-02 0.100000000000D+01
0.134514028612D-02 0.000000000000D+00 0.261701433038D-03 0.418751300603D-06 0.000000000000D+00  7 -2 1 -24 -11 11 23 21 2 0.14579417D+00 0.74119730D-01 0.41707325D+06 0.41707325D+06 0.41707325D+06 0.10741215D+01  1  2  6  1  7  1       -2 0.248793790840D-02 0.100000000000D+01
0.291842238181D-04 0.000000000000D+00 0.000000000000D+00 0.418751300603D-06 0.000000000000D+00  7 21 1 -24 -11 11 23 2 2 0.18854292D+00 0.74119730D-01 0.52150282D+06 0.52150282D+06 0.52150282D+06 0.10672204D+01  1  2 12  3  7  1       -2 0.197827189756D-03 0.100000000000D+01
-.414011790630D-04 0.000000000000D+00 -.958952392844D-05 0.418751300603D-06 0.000000000000D+00  7 21 1 -24 -11 11 23 2 2 0.19015674D+00 0.74119730D-01 0.41707325D+06 0.41707325D+06 0.41707325D+06 0.10741215D+01  1  2  5  3  7  1       -2 -.281604145563D-03 0.100000000000D+01
  </mgrwgt>
  </event>
  <event>
  8     66 0.26562228E-05 0.22835575E+03 0.75467711E-02 0.97777077E-01
       -2 -1    0    0    0  501 0.00000000E+00 0.00000000E+00 0.43534293E+02 0.43535469E+02 0.32000000E+00 0.0000E+00 0.9000E+01
        1 -1    0    0  501    0 0.00000000E+00 0.00000000E+00 -.13762600E+04 0.13762600E+04 0.32000000E+00 0.0000E+00 0.9000E+01
       25  2    1    2    0    0 -.29159970E+02 -.11909025E+03 -.10815883E+04 0.11289863E+04 0.29957300E+03 0.0000E+00 0.0000E+00
       23  2    3    3    0    0 -.66717262E+02 -.17683810E+03 -.71521060E+03 0.74519827E+03 0.89840742E+02 0.0000E+00 0.0000E+00
      -24  1    1    2    0    0 0.29159970E+02 0.11909025E+03 -.25113739E+03 0.29080921E+03 0.80419002E+02 0.0000E+00 0.9000E+01
      -11  1    4    4    0    0 -.13367093E+02 -.10742258E+03 -.52158237E+03 0.53269734E+03 0.51099893E-03 0.0000E+00 0.9000E+01
       11  1    4    4    0    0 -.53350169E+02 -.69415513E+02 -.19362823E+03 0.21250093E+03 0.51099893E-03 0.0000E+00 0.9000E+01
       23  1    3    3    0    0 0.37557292E+02 0.57747847E+02 -.36637768E+03 0.38378799E+03 0.91188000E+02 0.0000E+00 0.9000E+01
#aMCatNLO 1  0  0  2  2 0.25264249D+03 0.00000000D+00  -5  7  0 0.00000000D+00 0.00000000D+00 0.00000000D+00 0.00000000D+00 0.00000000D+00
  <mgrwgt>
 0.7734787141D-03    5    2    0
 0.244776155126579D+03 0.000000000000000D+00 0.000000000000000D+00 0.244776155126579D+03
 0.244776155126579D+03 0.000000000000000D+00 0.000000000000000D+00 -.244776155126579D+03
 0.159722155680443D+03 0.291599703154612D+02 0.119090248250513D+03 0.633337190102528D+02
 0.125002087465433D+03 -.133670932191594D+02 -.107422582953298D+03 -.625078503967921D+02
 0.891723820464154D+02 -.533501688607151D+02 -.694155127888543D+02 0.169398874442969D+02
 0.115655685060868D+03 0.375572917644134D+02 0.577478474916392D+02 -.177657560577576D+02
 0.000000000000000D+00 -.000000000000000D+00 -.000000000000000D+00 -.000000000000000D+00
 0.375592698668808D+03 0.000000000000000D+00 0.000000000000000D+00 0.375592698668808D+03
 0.434791883295080D+03 0.000000000000000D+00 0.000000000000000D+00 -.434791883295080D+03
 0.242233199522066D+03 0.372638345335573D+02 0.216356080729228D+03 0.633337190102528D+02
 0.848475750583936D+02 -.913629208839800D+01 -.566428088898976D+02 -.625078503967921D+02
 0.623612886755493D+02 -.502950825778571D+02 -.327471404421252D+02 0.169398874442969D+02
 0.161456924441146D+03 0.431441882479675D+02 0.124804022523772D+03 -.177657560577576D+02
 0.259485594266733D+03 -.209766481152697D+02 -.251770153920977D+03 -.591991846262714D+02
0.766237258967D-05 0.000000000000D+00 0.000000000000D+00 0.424051359033D-06 0.000000000000D+00  7 -2 1 -24 -11 11 23 21 0 0.66976769D-02 0.21173239D+00 0.52146346D+05 0.52146346D+05 0.52146346D+05 0.11456932D+01  1  2  2  2  7  2        1 0.780043803254D-03 0.100000000000D+01
-.423191710176D-06 0.000000000000D+00 -.294255282934D-07 0.424051359033D-06 0.000000000000D+00  7 -2 1 -24 -11 11 23 21 2 0.66976769D-02 0.21173239D+00 0.52146346D+05 0.52146346D+05 0.52146346D+05 0.11456932D+01  1  2  3  2  7  2        1 -.565496052201D-04 0.100000000000D+01
0.495901857227D-06 0.000000000000D+00 0.000000000000D+00 0.424051359033D-06 0.000000000000D+00  7 -2 1 -24 -11 11 23 21 2 0.66976769D-02 0.21173239D+00 0.52146346D+05 0.52146346D+05 0.52146346D+05 0.11456932D+01  1  2 15  2  7  2        1 0.662656039327D-04 0.100000000000D+01
-.133585596422D-05 0.000000000000D+00 -.210112142671D-05 0.424051359033D-06 0.000000000000D+00  7 -2 1 -24 -11 11 23 21 2 0.66976769D-02 0.45106097D+00 0.52146346D+05 0.52146346D+05 0.52146346D+05 0.11456932D+01  1  2  5  2  7  2        1 -.163501816776D-04 0.100000000000D+01
0.216744617722D-07 0.000000000000D+00 -.171929933994D-06 0.424051359033D-06 0.000000000000D+00  7 -2 21 -24 -11 11 23 -1 2 0.66976769D-02 0.45106097D+00 0.52146346D+05 0.52146346D+05 0.52146346D+05 0.11456932D+01  1  2  5  4  7  2        1 0.690937675339D-07 0.100000000000D+01
  </mgrwgt>
  </event>
  <event>
  8     66 0.26562228E-05 0.43529139E+03 0.75467711E-02 0.94095921E-01
       -2 -1    0    0    0  501 0.00000000E+00 0.00000000E+00 0.38980975E+03 0.38980988E+03 0.32000000E+00 0.0000E+00 0.9000E+01
        1 -1    0    0  501    0 0.00000000E+00 0.00000000E+00 -.10641685E+04 0.10641685E+04 0.32000000E+00 0.0000E+00 0.9000E+01
       25  2    1    2    0    0 -.10813941E+03 0.37035251E+03 -.88181592E+03 0.10086012E+04 0.30136688E+03 0.0000E+00 0.0000E+00
       23  2    3    3    0    0 -.17944118E+03 0.26372158E+03 -.58180339E+03 0.66981387E+03 0.91690963E+02 0.0000E+00 0.0000E+00
      -24  1    1    2    0    0 0.10813941E+03 -.37035251E+03 0.20745721E+03 0.44537717E+03 0.80419002E+02 0.0000E+00 0.9000E+01
      -13  1    4    4    0    0 -.13383907E+03 0.20305469E+03 -.51145196E+03 0.56632784E+03 0.10565837E+00 0.0000E+00 0.9000E+01
       13  1    4    4    0    0 -.45602109E+02 0.60666893E+02 -.70351422E+02 0.10348603E+03 0.10565837E+00 0.0000E+00 0.9000E+01
       23  1    3    3    0    0 0.71301771E+02 0.10663092E+03 -.30001253E+03 0.33878735E+03 0.91188000E+02 0.0000E+00 0.9000E+01
#aMCatNLO 1  0  0  1  1 0.16642709D+03 0.00000000D+00  -5  7  0 0.00000000D+00 0.00000000D+00 0.00000000D+00 0.00000000D+00 0.00000000D+00
  <mgrwgt>
 0.1411629362D-02    4    2    0
 0.644067832572099D+03 0.000000000000000D+00 0.000000000000000D+00 0.644067832572099D+03
 0.644067832572099D+03 0.000000000000000D+00 0.000000000000000D+00 -.644067832572099D+03
 0.611324860367362D+03 0.108139410156094D+03 -.370352505311938D+03 0.467328320058892D+03
 0.371487935438147D+03 -.133839189094706D+03 0.203054876603396D+03 -.280818579738144D+03
 0.799790413243843D+02 -.456019919096447D+02 0.606667037532464D+02 -.252320518538645D+02
 0.225343828014305D+03 0.713017708482566D+02 0.106630924955296D+03 -.161277688466884D+03
 0.000000000000000D+00 -.000000000000000D+00 -.000000000000000D+00 -.000000000000000D+00
 0.670847813596632D+03 0.000000000000000D+00 0.000000000000000D+00 0.670847813596632D+03
 0.972593418287389D+03 0.000000000000000D+00 0.000000000000000D+00 -.972593418287389D+03
 0.591462765383051D+03 0.161595749600838D+03 -.314407445621239D+03 0.467328320058892D+03
 0.381597415622815D+03 -.100369285268532D+03 0.238083009596542D+03 -.280818579738144D+03
 0.822405347733189D+02 -.383923527856548D+02 0.682119957678061D+02 -.252320518538645D+02
 0.243541640642854D+03 0.921407786968839D+02 0.128440116345804D+03 -.161277688466884D+03
 0.344598875461981D+03 -.114974890243535D+03 -.120327676088913D+03 -.301745604690757D+03
0.372926233217D-03 0.000000000000D+00 0.000000000000D+00 0.335083955465D-05 0.000000000000D+00  7 -2 1 -24 -13 13 23 21 0 0.59970745D-01 0.16371824D+00 0.18947859D+06 0.18947859D+06 0.18947859D+06 0.10996325D+01  1  2  2  1  7  1       -2 0.148312899397D-02 0.100000000000D+01
-.168514723947D-04 0.000000000000D+00 -.143213492929D-05 0.335083955465D-05 0.000000000000D+00  7 -2 1 -24 -13 13 23 21 2 0.59970745D-01 0.16371824D+00 0.18947859D+06 0.18947859D+06 0.18947859D+06 0.10996325D+01  1  2  3  1  7  1       -2 -.810380477218D-04 0.100000000000D+01
0.228954727248D-04 0.000000000000D+00 0.000000000000D+00 0.335083955465D-05 0.000000000000D+00  7 -2 1 -24 -13 13 23 21 2 0.59970745D-01 0.16371824D+00 0.18947859D+06 0.18947859D+06 0.18947859D+06 0.10996325D+01  1  2 15  1  7  1       -2 0.110103400334D-03 0.100000000000D+01
-.209120050559D-04 0.000000000000D+00 0.000000000000D+00 0.335083955465D-05 0.000000000000D+00  7 -2 1 -24 -13 13 23 21 2 0.59970745D-01 0.16371824D+00 0.18947859D+06 0.18947859D+06 0.18947859D+06 0.10996325D+01  1  2  4  1  7  1       -2 -.100564984708D-03 0.100000000000D+01
  </mgrwgt>
  </event>
  <event>
  8     66 0.26562228E-05 0.72967397E+02 0.75467711E-02 0.10007894E+00
       -2 -1    0    0    0  501 0.00000000E+00 0.00000000E+00 0.75840916E+03 0.75840922E+03 0.32000000E+00 0.0000E+00 0.9000E+01
        1 -1    0    0  501    0 0.00000000E+00 0.00000000E+00 -.18638110E+03 0.18638138E+03 0.32000000E+00 0.0000E+00 0.9000E+01
       25  2    1    2    0    0 -.18455356E+03 -.12345977E+03 0.60052879E+03 0.70692123E+03 0.29966726E+03 0.0000E+00 0.0000E+00
       23  2    3    3    0    0 -.37203864E+02 -.13065474E+03 0.44429447E+03 0.47349434E+03 0.91348345E+02 0.0000E+00 0.0000E+00
      -24  1    1    2    0    0 0.18455356E+03 0.12345977E+03 -.28500741E+02 0.23786937E+03 0.80419002E+02 0.0000E+00 0.9000E+01
      -11  1    4    4    0    0 -.21487745E+02 0.40013779E+01 0.12046725E+03 0.12243404E+03 0.51099893E-03 0.0000E+00 0.9000E+01
       11  1    4    4    0    0 -.15716119E+02 -.13465612E+03 0.32382722E+03 0.35106030E+03 0.51099893E-03 0.0000E+00 0.9000E+01
       23  1    3    3    0    0 -.14734970E+03 0.71949752E+01 0.15623432E+03 0.23342689E+03 0.91188000E+02 0.0000E+00 0.9000E+01
#aMCatNLO 1  0  0  1  2 0.63552511D+02 0.00000000D+00  -5  7  0 0.00000000D+00 0.00000000D+00 0.00000000D+00 0.00000000D+00 0.00000000D+00
  <mgrwgt>
 0.1064190252D-02    9    2    0
 0.375969810343719D+03 0.000000000000000D+00 0.000000000000000D+00 0.375969810343719D+03
 0.375969810343719D+03 0.000000000000000D+00 0.000000000000000D+00 -.375969810343719D+03
 0.320557614975015D+03 0.184553560162308D+03 0.123459765061561D+03 -.216766322122374D+03
 0.621910028854710D+02 -.214877449992985D+02 0.400137788545382D+01 0.582235916941199D+02
 0.194749972523525D+03 -.157161188928743D+02 -.134656118106173D+03 0.139815182514044D+03
 0.174441030303427D+03 -.147349696270135D+03 0.719497515915810D+01 0.187275479142107D+02
 0.000000000000000D+00 -.000000000000000D+00 0.000000000000000D+00 0.000000000000000D+00
 0.465497546060447D+03 0.000000000000000D+00 0.000000000000000D+00 0.465497546060447D+03
 0.388760095656530D+03 0.000000000000000D+00 0.000000000000000D+00 -.388760095656530D+03
 0.337237738293611D+03 0.212301434349815D+03 0.123298575586136D+03 -.216766322122374D+03
 0.605946950717677D+02 -.163082585799846D+02 0.397128986165574D+01 0.582235916941199D+02
 0.194182151564724D+03 0.690259767379386D+00 -.134751423986256D+03 0.139815182514044D+03
 0.162605925520113D+03 -.133131996982657D+03 0.711238348116462D+01 0.187275479142107D+02
 0.996371312667605D+02 -.635514385545521D+02 0.369175057299345D+00 0.767374504039176D+02
0.724810605816D-04 0.000000000000D+00 0.000000000000D+00 0.619346438640D-05 0.000000000000D+00  7 -2 1 -24 -11 11 23 21 0 0.11667836D+00 0.28674042D-01 0.80376757D+05 0.80376757D+05 0.80376757D+05 0.11295913D+01  1  2  2  1  7  1       -2 0.776976194749D-03 0.100000000000D+01
-.363664086479D-05 0.000000000000D+00 -.278346357335D-06 0.619346438640D-05 0.000000000000D+00  7 -2 1 -24 -11 11 23 21 2 0.11667836D+00 0.28674042D-01 0.80376757D+05 0.80376757D+05 0.80376757D+05 0.11295913D+01  1  2  3  1  7  1       -2 -.497423487786D-04 0.100000000000D+01
0.462574740587D-05 0.000000000000D+00 0.000000000000D+00 0.619346438640D-05 0.000000000000D+00  7 -2 1 -24 -11 11 23 21 2 0.11667836D+00 0.28674042D-01 0.80376757D+05 0.80376757D+05 0.80376757D+05 0.11295913D+01  1  2 15  1  7  1       -2 0.632714500494D-04 0.100000000000D+01
0.156655083343D-03 0.000000000000D+00 0.000000000000D+00 0.619346438640D-05 0.000000000000D+00  7 -2 1 -24 -11 11 23 21 2 0.14611626D+00 0.28674042D-01 0.10079307D+06 0.10079307D+06 0.10079307D+06 0.11214406D+01  1  2 12  1  7  1       -2 0.116893654657D-02 0.100000000000D+01
-.161731290111D-03 0.000000000000D+00 0.000000000000D+00 0.619346438640D-05 0.000000000000D+00  7 -2 1 -24 -11 11 23 21 2 0.11667836D+00 0.28674042D-01 0.80376757D+05 0.80376757D+05 0.80376757D+05 0.11295913D+01  1  2  4  1  7  1       -2 -.221217726474D-02 0.100000000000D+01
-.219912187961D-03 0.000000000000D+00 -.410463017445D-04 0.619346438640D-05 0.000000000000D+00  7 -2 1 -24 -11 11 23 21 2 0.14701427D+00 0.28674042D-01 0.80376757D+05 0.80376757D+05 0.80376757D+05 0.11295913D+01  1  2  5  1  7  1       -2 -.164760542803D-02 0.100000000000D+01
0.224449838294D-03 0.000000000000D+00 0.399740120805D-04 0.619346438640D-05 0.000000000000D+00  7 -2 1 -24 -11 11 23 21 2 0.11667836D+00 0.28674042D-01 0.80376757D+05 0.80376757D+05 0.80376757D+05 0.11295913D+01  1  2  6  1  7  1       -2 0.307004803466D-02 0.100000000000D+01
0.490170168538D-05 0.000000000000D+00 0.000000000000D+00 0.619346438640D-05 0.000000000000D+00  7 21 1 -24 -11 11 23 2 2 0.14611626D+00 0.28674042D-01 0.10079307D+06 0.10079307D+06 0.10079307D+06 0.11214406D+01  1  2 12  3  7  1       -2 0.325633601276D-03 0.100000000000D+01
-.641682562821D-05 0.000000000000D+00 -.131043398456D-05 0.619346438640D-05 0.000000000000D+00  7 21 1 -24 -11 11 23 2 2 0.14701427D+00 0.28674042D-01 0.80376757D+05 0.80376757D+05 0.80376757D+05 0.11295913D+01  1  2  5  3  7  1       -2 -.431150533451D-03 0.100000000000D+01
  </mgrwgt>
  </event>
  <event>
  8     66 0.26562228E-05 0.26655246E+03 0.75467711E-02 0.97035152E-01
       -2 -1    0    0    0  501 0.00000000E+00 0.00000000E+00 0.42321621E+03 0.42321633E+03 0.32000000E+00 0.0000E+00 0.9000E+01
        1 -1    0    0  501    0 0.00000000E+00 0.00000000E+00 -.23345873E+03 0.23345895E+03 0.32000000E+00 0.0000E+00 0.9000E+01
       25  2    1    2    0    0 -.18584131E+03 -.13265690E+03 0.17159613E+03 0.41391636E+03 0.29957748E+03 0.0000E+00 0.0000E+00
       23  2    3    3    0    0 -.95011997E+02 -.52658361E+02 0.21481636E+03 0.25633155E+03 0.88088676E+02 0.0000E+00 0.0000E+00
      -24  1    1    2    0    0 0.18584131E+03 0.13265690E+03 0.18161339E+02 0.24275893E+03 0.80419002E+02 0.0000E+00 0.9000E+01
      -13  1    4    4    0    0 -.10393596E+03 -.20276868E+02 0.17078822E+03 0.20095388E+03 0.10565837E+00 0.0000E+00 0.9000E+01
       13  1    4    4    0    0 0.89239655E+01 -.32381493E+02 0.44028136E+02 0.55377668E+02 0.10565837E+00 0.0000E+00 0.9000E+01
       23  1    3    3    0    0 -.90829315E+02 -.79998541E+02 -.43220223E+02 0.15758480E+03 0.91188000E+02 0.0000E+00 0.9000E+01
#aMCatNLO 1  0  0  2  1 0.25148797D+03 0.00000000D+00  -5  7  0 0.00000000D+00 0.00000000D+00 0.00000000D+00 0.00000000D+00 0.00000000D+00
  <mgrwgt>
 0.7832899284D-03    5    2    0
 0.314330450972626D+03 0.000000000000000D+00 0.000000000000000D+00 0.314330450972626D+03
 0.314330450972626D+03 0.000000000000000D+00 0.000000000000000D+00 -.314330450972626D+03
 0.248094860028070D+03 0.185841312338094D+03 0.132656902647908D+03 -.543046630253395D+02
 0.158357566112575D+03 -.103936124716599D+03 -.202768507239562D+02 0.117742303564660D+03
 0.445556183214821D+02 0.892412748683635D+01 -.323815103363019D+02 0.292745770413213D+02
 0.177652857483125D+03 -.908293151083310D+02 -.799985415876494D+02 -.927122175806414D+02
 0.000000000000000D+00 -.000000000000000D+00 0.000000000000000D+00 -.000000000000000D+00
 0.437890094853892D+03 0.000000000000000D+00 0.000000000000000D+00 0.437890094853892D+03
 0.497712307340743D+03 0.000000000000000D+00 0.000000000000000D+00 -.497712307340743D+03
 0.330308850585336D+03 0.295273338148989D+03 0.111809571024542D+03 -.543046630253395D+02
 0.131232702935961D+03 -.491466252448629D+02 -.307145160829006D+02 0.117742303564660D+03
 0.539195762162310D+02 0.275553012373566D+02 -.359308392903398D+02 0.292745770413213D+02
 0.161636152477761D+03 -.266369819436338D+02 -.922274923655008D+02 -.927122175806414D+02
 0.258505119979345D+03 -.247045032197849D+03 0.470632767141990D+02 -.598222124868512D+02
0.271438583079D-04 0.000000000000D+00 0.000000000000D+00 0.292469012444D-06 0.000000000000D+00  7 -2 1 -24 -13 13 23 21 0 0.65110212D-01 0.35916755D-01 0.71050215D+05 0.71050215D+05 0.71050215D+05 0.11341102D+01  1  2  2  2  7  2        1 0.827052613458D-03 0.100000000000D+01
-.145815149145D-05 0.000000000000D+00 -.104239563044D-06 0.292469012444D-06 0.000000000000D+00  7 -2 1 -24 -13 13 23 21 2 0.65110212D-01 0.35916755D-01 0.71050215D+05 0.71050215D+05 0.71050215D+05 0.11341102D+01  1  2  3  2  7  2        1 -.571445410612D-04 0.100000000000D+01
0.170465548362D-05 0.000000000000D+00 0.000000000000D+00 0.292469012444D-06 0.000000000000D+00  7 -2 1 -24 -13 13 23 21 2 0.65110212D-01 0.35916755D-01 0.71050215D+05 0.71050215D+05 0.71050215D+05 0.11341102D+01  1  2 15  2  7  2        1 0.668049622074D-04 0.100000000000D+01
-.433958695510D-05 0.000000000000D+00 -.911292195040D-05 0.292469012444D-06 0.000000000000D+00  7 -2 1 -24 -13 13 23 21 2 0.65110212D-01 0.76193850D-01 0.71050215D+05 0.71050215D+05 0.71050215D+05 0.11341102D+01  1  2  5  2  7  2        1 -.629962072757D-04 0.100000000000D+01
0.214008131361D-06 0.000000000000D+00 -.741434779698D-06 0.292469012444D-06 0.000000000000D+00  7 -2 21 -24 -13 13 23 -1 2 0.65110212D-01 0.76193850D-01 0.71050215D+05 0.71050215D+05 0.71050215D+05 0.11341102D+01  1  2  5  4  7  2        1 0.957310107692D-05 0.100000000000D+01
  </mgrwgt>
  </event>
  <event>
  8     66 0.26562228E-05 0.44748675E+03 0.75467711E-02 0.89769170E-01
       -2 -1    0    0    0  501 0.00000000E+00 0.00000000E+00 0.41984261E+03 0.41984273E+03 0.32000000E+00 0.0000E+00 0.9000E+01
        1 -1    0    0  501    0 0.00000000E+00 0.00000000E+00 -.15021744E+04 0.15021744E+04 0.32000000E+00 0.0000E+00 0.9000E+01
       25  2    1    2    0    0 -.40852390E+03 -.85559417E+02 0.21470256E+03 0.55710783E+03 0.30009957E+03 0.0000E+00 0.0000E+00
       23  2    3    3    0    0 -.29223213E+03 0.10409252E+02 0.35922878E+02 0.30608754E+03 0.83013006E+02 0.0000E+00 0.0000E+00
      -24  1    1    2    0    0 0.40852390E+03 0.85559417E+02 -.12970343E+04 0.13649093E+04 0.80419002E+02 0.0000E+00 0.9000E+01
      -11  1    4    4    0    0 -.20973232E+01 -.25210492E+01 -.11375204E+02 0.11838484E+02 0.51099893E-03 0.0000E+00 0.9000E+01
       11  1    4    4    0    0 -.29013481E+03 0.12930301E+02 0.47298082E+02 0.29424906E+03 0.51099893E-03 0.0000E+00 0.9000E+01
       23  1    3    3    0    0 -.11629178E+03 -.95968669E+02 0.17877968E+03 0.25102029E+03 0.91188000E+02 0.0000E+00 0.9000E+01
#aMCatNLO 1  0  0  1  2 0.54980320D+03 0.00000000D+00  -5  7  0 0.00000000D+00 0.00000000D+00 0.00000000D+00 0.00000000D+00 0.00000000D+00
  <mgrwgt>
 0.3543203995D-02    3    2    0
 0.794151727092972D+03 0.000000000000000D+00 0.000000000000000D+00 0.794151727092972D+03
 0.794151727092972D+03 0.000000000000000D+00 0.000000000000000D+00 -.794151727092972D+03
 0.767836686942959D+03 0.408523904598533D+03 0.855594166994318D+02 -.639448017783143D+03
 0.657432658785915D+01 -.209732319407017D+01 -.252104919087744D+01 -.569800987017598D+01
 0.388303598990631D+03 -.290134806008838D+03 0.129303014257108D+02 0.257748494925443D+03
 0.425588841664495D+03 -.116291775395624D+03 -.959686689342652D+02 0.387397532727876D+03
 0.000000000000000D+00 0.000000000000000D+00 -.000000000000000D+00 -.000000000000000D+00
 0.946372710156108D+03 0.000000000000000D+00 0.000000000000000D+00 0.946372710156108D+03
 0.155340475386329D+04 0.000000000000000D+00 0.000000000000000D+00 -.155340475386329D+04
 0.750714058379507D+03 0.254242299236463D+03 0.289087300527757D+03 -.639448017783143D+03
 0.670019027026505D+01 -.344598656774121D+01 -.741896052070920D+00 -.569800987017598D+01
 0.475147014855926D+03 -.377859597073903D+03 0.128656612691746D+03 0.257748494925443D+03
 0.448209815332568D+03 -.205067906176885D+03 0.211445668916999D+02 0.387397532727876D+03
 0.819006385181135D+03 0.332131190582066D+03 -.438146584059132D+03 -.607032043707186D+03
0.203281774024D-02 0.000000000000D+00 0.000000000000D+00 0.121088173221D-05 0.000000000000D+00  7 -2 1 -24 -11 11 23 21 0 0.64591183D-01 0.23110376D+00 0.20024439D+06 0.20024439D+06 0.20024439D+06 0.10977847D+01  1  2  2  1  7  1       -2 0.342186112807D-02 0.100000000000D+01
-.677521033149D-04 0.000000000000D+00 -.780655537572D-05 0.121088173221D-05 0.000000000000D+00  7 -2 1 -24 -11 11 23 21 2 0.64591183D-01 0.23110376D+00 0.20024439D+06 0.20024439D+06 0.20024439D+06 0.10977847D+01  1  2  3  1  7  1       -2 -.137442494747D-03 0.100000000000D+01
0.127567915689D-03 0.000000000000D+00 0.000000000000D+00 0.121088173221D-05 0.000000000000D+00  7 -2 1 -24 -11 11 23 21 2 0.64591183D-01 0.23110376D+00 0.20024439D+06 0.20024439D+06 0.20024439D+06 0.10977847D+01  1  2 15  1  7  1       -2 0.258785361990D-03 0.100000000000D+01
  </mgrwgt>
  </event>
  <event>
  8     66 0.26562228E-05 0.14416652E+03 0.75467711E-02 0.10351840E+00
       -2 -1    0    0    0  501 0.00000000E+00 0.00000000E+00 0.14697678E+04 0.14697678E+04 0.32000000E+00 0.0000E+00 0.9000E+01
        1 -1    0    0  501    0 0.00000000E+00 0.00000000E+00 -.64905989E+02 0.64906777E+02 0.32000000E+00 0.0000E+00 0.9000E+01
       25  2    1    2    0    0 -.11455027E+03 0.11677873E+02 0.36957562E+03 0.48990533E+03 0.30027147E+03 0.0000E+00 0.0000E+00
       23  2    3    3    0    0 -.10882426E+03 -.68492665E+02 0.32086426E+03 0.35895439E+03 0.96749226E+02 0.0000E+00 0.0000E+00
      -24  1    1    2    0    0 0.11455027E+03 -.11677873E+02 0.10352862E+04 0.10447693E+04 0.80419002E+02 0.0000E+00 0.9000E+01
      -11  1    4    4    0    0 0.58239411E+01 0.10439704E+02 0.78983331E+02 0.79882866E+02 0.51099893E-03 0.0000E+00 0.9000E+01
       11  1    4    4    0    0 -.11464821E+03 -.78932368E+02 0.24188093E+03 0.27907152E+03 0.51099893E-03 0.0000E+00 0.9000E+01
       23  1    3    3    0    0 -.57260039E+01 0.80170537E+02 0.48711361E+02 0.13095095E+03 0.91188000E+02 0.0000E+00 0.9000E+01
#aMCatNLO 1  0  0  1  2 0.62360414D+02 0.00000000D+00  -5  7  0 0.00000000D+00 0.00000000D+00 0.00000000D+00 0.00000000D+00 0.00000000D+00
  <mgrwgt>
 0.2081279836D-02    9    2    0
 0.308864638119376D+03 0.000000000000000D+00 0.000000000000000D+00 0.308864638119376D+03
 0.308864638119376D+03 0.000000000000000D+00 0.000000000000000D+00 -.308864638119376D+03
 0.241119959488995D+03 0.114550268167950D+03 -.116778726945072D+02 0.195993577092683D+03
 0.188327498594646D+02 0.582394103395662D+01 0.104397036593672D+02 0.145522082725185D+02
 0.143225683296712D+03 -.114648205315777D+03 -.789323682263708D+02 -.337500610348800D+02
 0.214550883593581D+03 -.572600388613024D+01 0.801705372615107D+02 -.176795724330322D+03
 0.000000000000000D+00 -.000000000000000D+00 -.000000000000000D+00 0.000000000000000D+00
 0.379936689572558D+03 0.000000000000000D+00 0.000000000000000D+00 0.379936689572558D+03
 0.324422607656538D+03 0.000000000000000D+00 0.000000000000000D+00 -.324422607656538D+03
 0.248512674610003D+03 0.129681386035222D+03 0.778391558566150D+01 0.195993577092683D+03
 0.201213574327450D+02 0.702773985740999D+01 0.119880412005506D+02 0.145522082725185D+02
 0.130558981013440D+03 -.106187437512684D+03 -.680500478905005D+02 -.337500610348800D+02
 0.221675958550546D+03 0.775471472956501D+01 0.975095662654865D+02 -.176795724330322D+03
 0.834903256223628D+02 -.382764031095122D+02 -.492314751611980D+02 0.555140819160205D+02
0.221835529784D-03 0.000000000000D+00 0.000000000000D+00 0.227398194586D-06 0.000000000000D+00  7 -2 1 -24 -11 11 23 21 0 0.22611819D+00 0.99856001D-02 0.42672740D+05 0.42672740D+05 0.42672740D+05 0.11533984D+01  1  2  2  1  7  1       -2 0.146199617752D-02 0.100000000000D+01
-.989969651237D-05 0.000000000000D+00 -.851906845005D-06 0.227398194586D-06 0.000000000000D+00  7 -2 1 -24 -11 11 23 21 2 0.22611819D+00 0.99856001D-02 0.42672740D+05 0.42672740D+05 0.42672740D+05 0.11533984D+01  1  2  3  1  7  1       -2 -.867951934303D-04 0.100000000000D+01
0.140245998216D-04 0.000000000000D+00 0.000000000000D+00 0.227398194586D-06 0.000000000000D+00  7 -2 1 -24 -11 11 23 21 2 0.22611819D+00 0.99856001D-02 0.42672740D+05 0.42672740D+05 0.42672740D+05 0.11533984D+01  1  2 15  1  7  1       -2 0.122960118300D-03 0.100000000000D+01
0.290585519176D-03 0.000000000000D+00 0.000000000000D+00 0.227398194586D-06 0.000000000000D+00  7 -2 1 -24 -11 11 23 21 2 0.28290444D+00 0.99856001D-02 0.59755307D+05 0.59755307D+05 0.59755307D+05 0.11405484D+01  1  2 12  1  7  1       -2 0.108204769749D-02 0.100000000000D+01
-.315881787926D-03 0.000000000000D+00 0.000000000000D+00 0.227398194586D-06 0.000000000000D+00  7 -2 1 -24 -11 11 23 21 2 0.22611819D+00 0.99856001D-02 0.42672740D+05 0.42672740D+05 0.42672740D+05 0.11533984D+01  1  2  4  1  7  1       -2 -.276948094822D-02 0.100000000000D+01
-.452130099627D-03 0.000000000000D+00 -.111503756773D-03 0.227398194586D-06 0.000000000000D+00  7 -2 1 -24 -11 11 23 21 2 0.28389499D+00 0.99856001D-02 0.42672740D+05 0.42672740D+05 0.42672740D+05 0.11533984D+01  1  2  5  1  7  1       -2 -.171688423500D-02 0.100000000000D+01
0.468155755917D-03 0.000000000000D+00 0.108678059051D-03 0.227398194586D-06 0.000000000000D+00  7 -2 1 -24 -11 11 23 21 2 0.22611819D+00 0.99856001D-02 0.42672740D+05 0.42672740D+05 0.42672740D+05 0.11533984D+01  1  2  6  1  7  1       -2 0.410453687540D-02 0.100000000000D+01
0.906411220414D-05 0.000000000000D+00 0.000000000000D+00 0.227398194586D-06 0.000000000000D+00  7 21 1 -24 -11 11 23 2 2 0.28290444D+00 0.99856001D-02 0.59755307D+05 0.59755307D+05 0.59755307D+05 0.11405484D+01  1  2 12  3  7  1       -2 0.262288955796D-03 0.100000000000D+01
-.126690268316D-04 0.000000000000D+00 -.351871345223D-05 0.227398194586D-06 0.000000000000D+00  7 21 1 -24 -11 11 23 2 2 0.28389499D+00 0.99856001D-02 0.42672740D+05 0.42672740D+05 0.42672740D+05 0.11533984D+01  1  2  5  3  7  1       -2 -.379389612044D-03 0.100000000000D+01
  </mgrwgt>
  </event>
  <event>
  9     66 0.26562228E-05 0.32627473E+03 0.75467711E-02 0.96627915E-01
       21 -1    0    0  502  501 0.00000000E+00 0.00000000E+00 0.54199874E+03 0.54199926E+03 0.75000000E+00 0.0000E+00 0.9000E+01
        1 -1    0    0  501    0 0.00000000E+00 0.00000000E+00 -.15447672E+04 0.15447672E+04 0.32000000E+00 0.0000E+00 0.9000E+01
       25  2    1    2    0    0 0.69007864E+02 -.17242845E+03 0.39582035E+03 0.53036498E+03 0.30019928E+03 0.0000E+00 0.0000E+00
       23  2    3    3    0    0 0.11850667E+03 -.59635697E+02 0.82421567E+02 0.18150056E+03 0.92460202E+02 0.0000E+00 0.0000E+00
      -24  1    1    2    0    0 -.11715598E+03 0.33135293E+03 -.13278113E+04 0.13758890E+04 0.80419002E+02 0.0000E+00 0.9000E+01
      -13  1    4    4    0    0 0.64285773E+02 -.80771027E+02 0.47529236E+02 0.11364708E+03 0.10565837E+00 0.0000E+00 0.9000E+01
       13  1    4    4    0    0 0.54220902E+02 0.21135329E+02 0.34892332E+02 0.67853477E+02 0.10565837E+00 0.0000E+00 0.9000E+01
       23  1    3    3    0    0 -.49498811E+02 -.11279275E+03 0.31339878E+03 0.34886442E+03 0.91188000E+02 0.0000E+00 0.9000E+01
        2  1    1    2  502    0 0.48148115E+02 -.15892448E+03 -.70777487E+02 0.18051257E+03 0.32000000E+00 0.0000E+00 0.9000E+01
#aMCatNLO 2  0  0  1  2 0.16605792D+03 0.00000000D+00  -5  7  0 0.00000000D+00 0.00000000D+00 0.00000000D+00 0.00000000D+00 0.00000000D+00
  <mgrwgt>
 0.9030976506D-04    2    2    0
 0.827287985066442D+03 0.000000000000000D+00 0.000000000000000D+00 0.827287985066442D+03
 0.827287985066442D+03 0.000000000000000D+00 0.000000000000000D+00 -.827287985066442D+03
 0.802008882934915D+03 -.934253580485207D+02 0.253024282750201D+03 -.751000297712585D+03
 0.167335257339591D+03 0.689918461446111D+02 -.963046471401823D+02 0.118180491002832D+03
 0.973765243528160D+02 0.570469097057602D+02 0.118074977347223D+02 0.780283319397636D+02
 0.587855305505562D+03 -.326133978018505D+02 -.168527133344741D+03 0.554791474769989D+03
 0.000000000000000D+00 0.000000000000000D+00 -.000000000000000D+00 0.000000000000000D+00
 0.925092725824094D+03 0.000000000000000D+00 0.000000000000000D+00 0.925092725824094D+03
 0.905057573311673D+03 0.000000000000000D+00 0.000000000000000D+00 -.905057573311673D+03
 0.833059992364585D+03 -.117155979666226D+03 0.331352929952590D+03 -.751000297712585D+03
 0.156918039013059D+03 0.642857861123516D+02 -.807711595679440D+02 0.118180491002832D+03
 0.973397818563364D+02 0.542208887012320D+02 0.211354624975617D+02 0.780283319397636D+02
 0.575570298716706D+03 -.494988105274102D+02 -.112792751095761D+03 0.554791474769989D+03
 0.167262187185082D+03 0.481481153800526D+02 -.158924481786447D+03 0.200351525124209D+02
-.928235572145D-05 0.000000000000D+00 0.000000000000D+00 0.225573339444D-04 0.000000000000D+00  7 21 1 -24 -13 13 23 2 2 0.86524966D-01 0.21723520D+00 0.17693715D+06 0.17693715D+06 0.17693715D+06 0.11019357D+01  1  2 13  3  7  1       -2 -.110970422861D-03 0.100000000000D+01
0.188706786516D-04 0.000000000000D+00 0.000000000000D+00 0.225573339444D-04 0.982721882299D-10  7 21 1 -24 -13 13 23 2 2 0.83384450D-01 0.23765650D+00 0.17693715D+06 0.17693715D+06 0.17693715D+06 0.11019357D+01  1  2  1  3  7  1       -2 0.201280187926D-03 0.100000000000D+01
  </mgrwgt>
  </event>
  <event>
  8     66 0.26562228E-05 0.31332327E+03 0.75467711E-02 0.92228487E-01
       -2 -1    0    0    0  501 0.00000000E+00 0.00000000E+00 0.26746482E+03 0.26746501E+03 0.32000000E+00 0.0000E+00 0.9000E+01
        1 -1    0    0  501    0 0.00000000E+00 0.00000000E+00 -.63325173E+03 0.63325181E+03 0.32000000E+00 0.0000E+00 0.9000E+01
       25  2    1    2    0    0 -.86939651E+02 -.23149323E+03 -.47834671E+03 0.61737155E+03 0.30196762E+03 0.0000E+00 0.0000E+00
       23  2    3    3    0    0 -.14891953E+03 -.13242103E+03 -.38369779E+03 0.44150093E+03 0.89368459E+02 0.0000E+00 0.0000E+00
      -24  1    1    2    0    0 0.86939651E+02 0.23149323E+03 0.11255980E+03 0.28334527E+03 0.80419002E+02 0.0000E+00 0.9000E+01
      -11  1    4    4    0    0 -.15815250E+03 -.10597212E+03 -.33606758E+03 0.38624309E+03 0.51099893E-03 0.0000E+00 0.9000E+01
       11  1    4    4    0    0 0.92329662E+01 -.26448909E+02 -.47630208E+02 0.55257843E+02 0.51099893E-03 0.0000E+00 0.9000E+01
       23  1    3    3    0    0 0.61979884E+02 -.99072200E+02 -.94648919E+02 0.17587062E+03 0.91188000E+02 0.0000E+00 0.9000E+01
#aMCatNLO 1  0  0  1  2 0.49275321D+03 0.00000000D+00  -5  7  0 0.00000000D+00 0.00000000D+00 0.00000000D+00 0.00000000D+00 0.00000000D+00
  <mgrwgt>
 0.1281685767D-02    5    2    0
 0.411549126938055D+03 0.000000000000000D+00 0.000000000000000D+00 0.411549126938055D+03
 0.411549126938055D+03 0.000000000000000D+00 0.000000000000000D+00 -.411549126938055D+03
 0.360086724139238D+03 0.869396505483064D+02 0.231493228905834D+03 0.249093586991409D+03
 0.273316733232512D+03 -.158152501001665D+03 -.105972119960558D+03 -.196111531743739D+03
 0.393017018245305D+02 0.923296622779390D+01 -.264489092597875D+02 -.275650376366196D+02
 0.150393094679830D+03 0.619798842255649D+02 -.990721996854888D+02 -.254170176110498D+02
 0.000000000000000D+00 -.000000000000000D+00 -.000000000000000D+00 0.000000000000000D+00
 0.852455915927371D+03 0.000000000000000D+00 0.000000000000000D+00 0.852455915927371D+03
 0.642488109830225D+03 0.000000000000000D+00 0.000000000000000D+00 -.642488109830225D+03
 0.559003694564087D+03 0.251414901698552D+03 0.425159789615139D+03 0.249093586991409D+03
 0.208906907827978D+03 -.718564708614448D+02 -.436014342764925D+01 -.196111531743739D+03
 0.373153855375762D+02 0.229439291862169D+02 -.103045044231908D+02 -.275650376366196D+02
 0.154094845046506D+03 0.116469333075837D+03 -.349118832854370D+02 -.254170176110498D+02
 0.535623192781449D+03 -.318971693099161D+03 -.375583258478862D+03 0.209967806097146D+03
0.607865332370D-04 0.000000000000D+00 0.000000000000D+00 0.284433829690D-06 0.000000000000D+00  7 -2 1 -24 -11 11 23 21 0 0.41148455D-01 0.97423364D-01 0.98171470D+05 0.98171470D+05 0.98171470D+05 0.11223803D+01  1  2  2  1  7  1       -2 0.119189347932D-02 0.100000000000D+01
-.307170337282D-05 0.000000000000D+00 -.233436293092D-06 0.284433829690D-06 0.000000000000D+00  7 -2 1 -24 -11 11 23 21 2 0.41148455D-01 0.97423364D-01 0.98171470D+05 0.98171470D+05 0.98171470D+05 0.11223803D+01  1  2  3  1  7  1       -2 -.758733818910D-04 0.100000000000D+01
0.383011784470D-05 0.000000000000D+00 0.000000000000D+00 0.284433829690D-06 0.000000000000D+00  7 -2 1 -24 -11 11 23 21 2 0.41148455D-01 0.97423364D-01 0.98171470D+05 0.98171470D+05 0.98171470D+05 0.11223803D+01  1  2 15  1  7  1       -2 0.946067893435D-04 0.100000000000D+01
0.104800526743D-04 0.000000000000D+00 -.187619218145D-04 0.284433829690D-06 0.000000000000D+00  7 -2 1 -24 -11 11 23 21 2 0.12320468D+00 0.97423364D-01 0.98171470D+05 0.98171470D+05 0.98171470D+05 0.11223803D+01  1  2  5  1  7  1       -2 0.238703839720D-04 0.100000000000D+01
0.224875868018D-05 0.000000000000D+00 -.234020699109D-05 0.284433829690D-06 0.000000000000D+00  7 21 1 -24 -11 11 23 2 2 0.12320468D+00 0.97423364D-01 0.98171470D+05 0.98171470D+05 0.98171470D+05 0.11223803D+01  1  2  5  3  7  1       -2 0.471884964573D-04 0.100000000000D+01
  </mgrwgt>
  </event>
  <event>
  9     66 -.26562228E-05 0.21968790E+03 0.75467711E-02 0.10474365E+00
       -2 -1    0    0    0  502 0.00000000E+00 0.00000000E+00 0.23647444E+03 0.23647466E+03 0.32000000E+00 0.0000E+00 0.9000E+01
        1 -1    0    0  501    0 0.00000000E+00 0.00000000E+00 -.32239310E+03 0.32239326E+03 0.32000000E+00 0.0000E+00 0.9000E+01
       25  2    1    2    0    0 0.14268652E+03 -.89291315E+02 -.20952929E+02 0.34431889E+03 0.29963994E+03 0.0000E+00 0.0000E+00
       23  2    3    3    0    0 0.58712726E+02 -.17590371E+02 -.12672823E+03 0.16628438E+03 0.88509019E+02 0.0000E+00 0.0000E+00
      -24  1    1    2    0    0 -.15104587E+03 0.93345218E+02 -.64077603E+02 0.20518611E+03 0.80419002E+02 0.0000E+00 0.9000E+01
      -13  1    4    4    0    0 0.56953486E+02 -.44901927E+02 -.11616964E+03 0.13694991E+03 0.10565837E+00 0.0000E+00 0.9000E+01
       13  1    4    4    0    0 0.17592407E+01 0.27311556E+02 -.10558587E+02 0.29334466E+02 0.10565837E+00 0.0000E+00 0.9000E+01
       23  1    3    3    0    0 0.83973791E+02 -.71700944E+02 0.10577530E+03 0.17803451E+03 0.91188000E+02 0.0000E+00 0.9000E+01
       21  1    1    2  501  502 0.83593524E+01 -.40539032E+01 -.88812321E+00 0.93629144E+01 0.75000000E+00 0.0000E+00 0.9000E+01
#aMCatNLO 2  0  0  1  2 0.92904738D+01 0.00000000D+00  -5  7  0 0.00000000D+00 0.00000000D+00 0.00000000D+00 0.00000000D+00 0.00000000D+00
  <mgrwgt>
 -.2931186069D-03    3    2    0
 0.271403410819847D+03 0.000000000000000D+00 0.000000000000000D+00 0.271403410819847D+03
 0.271403410819847D+03 0.000000000000000D+00 0.000000000000000D+00 -.271403410819847D+03
 0.194657066371876D+03 -.148025269695766D+03 0.918803657095000D+02 -.327211775875908D+02
 0.121654498625079D+03 0.588174634465446D+02 -.458059350713584D+02 -.961360460060237D+02
 0.278654359687384D+02 0.218959533394715D+01 0.271029176268190D+02 -.609262259747606D+01
 0.198629820674000D+03 0.870182109152739D+02 -.731773482649606D+02 0.134949846191091D+03
 0.000000000000000D+00 0.000000000000000D+00 -.000000000000000D+00 0.000000000000000D+00
 0.276380806699152D+03 0.000000000000000D+00 0.000000000000000D+00 0.276380806699152D+03
 0.275813305544588D+03 0.000000000000000D+00 0.000000000000000D+00 -.275813305544588D+03
 0.197651400126446D+03 -.151045869697554D+03 0.933452184215382D+02 -.327211775875908D+02
 0.120424416141528D+03 0.569535639062064D+02 -.449020291271703D+02 -.961360460060237D+02
 0.280382125652802D+02 0.175916220470809D+01 0.273116579884504D+02 -.609262259747606D+01
 0.196772293081232D+03 0.839737912111139D+02 -.717009440877836D+02 0.134949846191091D+03
 0.930779032925403D+01 0.835935237552587D+01 -.405390319503467D+01 0.567501154564954D+00
-.923060940215D-05 0.000000000000D+00 0.000000000000D+00 0.275381382527D-06 0.000000000000D+00  7 -2 1 -24 -13 13 23 21 2 0.36663962D-01 0.48803278D-01 0.50022386D+05 0.50022386D+05 0.50022386D+05 0.11472783D+01  1  2 13  1  7  1       -2 -.760361395117D-03 0.100000000000D+01
-.283605808076D-04 0.000000000000D+00 0.000000000000D+00 0.275381382527D-06 0.000000000000D+00  7 -2 1 -24 -13 13 23 21 2 0.35723573D-01 0.48803278D-01 0.48262772D+05 0.48262772D+05 0.48262772D+05 0.11486487D+01  1  2  8  1  7  1       -2 -.245430672970D-02 0.100000000000D+01
0.357122579676D-04 0.000000000000D+00 0.000000000000D+00 0.275381382527D-06 0.224084320769D-07  7 -2 1 -24 -13 13 23 21 2 0.36378725D-01 0.49596258D-01 0.50022386D+05 0.50022386D+05 0.50022386D+05 0.11472783D+01  1  2  1  1  7  1       -2 0.292154951786D-02 0.100000000000D+01
  </mgrwgt>
  </event>
  <event>
  8     66 0.26562228E-05 0.36730972E+03 0.75467711E-02 0.89447765E-01
       -2 -1    0    0    0  501 0.00000000E+00 0.00000000E+00 0.69913900E+02 0.69914632E+02 0.32000000E+00 0.0000E+00 0.9000E+01
        1 -1    0    0  501    0 0.00000000E+00 0.00000000E+00 -.23887951E+04 0.23887951E+04 0.32000000E+00 0.0000E+00 0.9000E+01
       25  2    1    2    0    0 0.18575651E+03 0.28135951E+03 -.10404322E+04 0.11341088E+04 0.30005820E+03 0.0000E+00 0.0000E+00
       23  2    3    3    0    0 0.37696031E+02 0.18849708E+02 -.94169712E+02 0.13683187E+03 0.89881721E+02 0.0000E+00 0.0000E+00
      -24  1    1    2    0    0 -.18575651E+03 -.28135951E+03 -.12784490E+04 0.13246009E+04 0.80419002E+02 0.0000E+00 0.9000E+01
      -13  1    4    4    0    0 0.44214167E+02 -.84956443E+01 -.98581468E+02 0.10837613E+03 0.10565837E+00 0.0000E+00 0.9000E+01
       13  1    4    4    0    0 -.65181363E+01 0.27345352E+02 0.44117557E+01 0.28455740E+02 0.10565837E+00 0.0000E+00 0.9000E+01
       23  1    3    3    0    0 0.14806048E+03 0.26250981E+03 -.94626250E+03 0.99727693E+03 0.91188000E+02 0.0000E+00 0.9000E+01
#aMCatNLO 1  0  0  2  2 0.64287719D+03 0.00000000D+00  -5  7  0 0.00000000D+00 0.00000000D+00 0.00000000D+00 0.00000000D+00 0.00000000D+00
  <mgrwgt>
 0.1300647409D-02    3    2    0
 0.408669679641737D+03 0.000000000000000D+00 0.000000000000000D+00 0.408669679641737D+03
 0.408669679641737D+03 0.000000000000000D+00 0.000000000000000D+00 -.408669679641737D+03
 0.357547886355772D+03 -.185756510768838D+03 -.281359512988908D+03 -.877759547982285D+02
 0.463291973775589D+02 0.442142373800771D+02 -.849569384507427D+01 0.109233204035114D+02
 0.981168955178110D+02 -.651820636992550D+01 0.273454016202762D+02 0.940035487734261D+02
 0.315345380032332D+03 0.148060479758686D+03 0.262509805213706D+03 -.171509143787090D+02
 0.000000000000000D+00 0.000000000000000D+00 0.000000000000000D+00 0.000000000000000D+00
 0.103250124774500D+04 0.000000000000000D+00 0.000000000000000D+00 0.103250124774500D+04
 0.721516049659924D+03 0.000000000000000D+00 0.000000000000000D+00 -.721516049659924D+03
 0.720038587689056D+03 -.385811005981499D+03 -.596182523418528D+03 -.877759547982285D+02
 0.459312836147894D+02 0.270860305980070D+02 -.354501175217837D+02 0.109233204035114D+02
 0.109427014785463D+03 -.450488423887070D+02 -.332897308835247D+02 0.940035487734261D+02
 0.164475559809224D+03 0.589814701158146D+02 0.122327391656607D+03 -.171509143787090D+02
 0.714144851506396D+03 0.344792347656384D+03 0.542594980167229D+03 0.310985198085080D+03
0.123070577452D-03 0.000000000000D+00 0.000000000000D+00 0.316961219436D-05 0.000000000000D+00  7 -2 1 -24 -13 13 23 21 0 0.10756043D-01 0.36750699D+00 0.13491643D+06 0.13491643D+06 0.13491643D+06 0.11112025D+01  1  2  2  2  7  2        1 0.128532653311D-02 0.100000000000D+01
-.674260736009D-05 0.000000000000D+00 -.472623422644D-06 0.316961219436D-05 0.000000000000D+00  7 -2 1 -24 -13 13 23 21 2 0.10756043D-01 0.36750699D+00 0.13491643D+06 0.13491643D+06 0.13491643D+06 0.11112025D+01  1  2  3  2  7  2        1 -.869507808604D-04 0.100000000000D+01
0.793066626755D-05 0.000000000000D+00 0.000000000000D+00 0.316961219436D-05 0.000000000000D+00  7 -2 1 -24 -13 13 23 21 2 0.10756043D-01 0.36750699D+00 0.13491643D+06 0.13491643D+06 0.13491643D+06 0.11112025D+01  1  2 15  2  7  2        1 0.102271656628D-03 0.100000000000D+01
  </mgrwgt>
  </event>
  <event>
  8     66 0.26562228E-05 0.16922187E+03 0.75467711E-02 0.10019704E+00
       -2 -1    0    0    0  501 0.00000000E+00 0.00000000E+00 0.10886625E+04 0.10886626E+04 0.32000000E+00 0.0000E+00 0.9000E+01
        1 -1    0    0  501    0 0.00000000E+00 0.00000000E+00 -.12312887E+03 0.12312928E+03 0.32000000E+00 0.0000E+00 0.9000E+01
       25  2    1    2    0    0 -.19782219E+03 0.17737531E+03 0.33472113E+03 0.52259864E+03 0.30079143E+03 0.0000E+00 0.0000E+00
       23  2    3    3    0    0 -.45810366E+01 0.23347043E+02 0.21130740E+03 0.23171542E+03 0.92060546E+02 0.0000E+00 0.0000E+00
      -24  1    1    2    0    0 0.19782219E+03 -.17737531E+03 0.63081253E+03 0.68919322E+03 0.80419002E+02 0.0000E+00 0.9000E+01
      -11  1    4    4    0    0 -.85263102E+01 0.49605411E+02 0.19301900E+03 0.19947363E+03 0.51099893E-03 0.0000E+00 0.9000E+01
       11  1    4    4    0    0 0.39452736E+01 -.26258367E+02 0.18288407E+02 0.32241787E+02 0.51099893E-03 0.0000E+00 0.9000E+01
       23  1    3    3    0    0 -.19324116E+03 0.15402827E+03 0.12341372E+03 0.29088322E+03 0.91188000E+02 0.0000E+00 0.9000E+01
#aMCatNLO 1  0  0  1  2 0.11301202D+02 0.00000000D+00  -5  7  0 0.00000000D+00 0.00000000D+00 0.00000000D+00 0.00000000D+00 0.00000000D+00
  <mgrwgt>
 0.8790806930D-03    9    2    0
 0.366123015039016D+03 0.000000000000000D+00 0.000000000000000D+00 0.366123015039016D+03
 0.366123015039016D+03 0.000000000000000D+00 0.000000000000000D+00 -.366123015039016D+03
 0.308759598931799D+03 0.197822193549240D+03 -.177375309558408D+03 0.135165281328381D+03
 0.755950536562537D+02 -.852631024627543D+01 0.496054106546911D+02 0.564022819100042D+02
 0.292418970734876D+02 0.394527364722531D+01 -.262583672119577D+02 -.122483268925571D+02
 0.318649480416492D+03 -.193241156950190D+03 0.154028266115675D+03 -.179319236345829D+03
 0.000000000000000D+00 0.000000000000000D+00 0.000000000000000D+00 0.000000000000000D+00
 0.407939921150085D+03 0.000000000000000D+00 0.000000000000000D+00 0.407939921150085D+03
 0.366930963809645D+03 0.000000000000000D+00 0.000000000000000D+00 -.366930963809645D+03
 0.309009582442088D+03 0.194828725658236D+03 -.181085119400988D+03 0.135165281328381D+03
 0.750908781401464D+02 -.925647535010171D+01 0.487005158011256D+02 0.564022819100042D+02
 0.295225335125392D+02 0.366052419484701D+01 -.266112576920183D+02 -.122483268925571D+02
 0.318710239976955D+03 -.196329552932932D+03 0.150200811727741D+03 -.179319236345829D+03
 0.425376508880017D+02 0.709677842995080D+01 0.879504956413997D+01 0.410089573404398D+02
0.847695422773D-04 0.000000000000D+00 0.000000000000D+00 0.119308755742D-05 0.000000000000D+00  7 -2 1 -24 -11 11 23 21 0 0.16748658D+00 0.18942938D-01 0.95447848D+05 0.95447848D+05 0.95447848D+05 0.11233863D+01  1  2  2  1  7  1       -2 0.591582281285D-03 0.100000000000D+01
-.454432432522D-05 0.000000000000D+00 -.325537362678D-06 0.119308755742D-05 0.000000000000D+00  7 -2 1 -24 -11 11 23 21 2 0.16748658D+00 0.18942938D-01 0.95447848D+05 0.95447848D+05 0.95447848D+05 0.11233863D+01  1  2  3  1  7  1       -2 -.400223745226D-04 0.100000000000D+01
0.553796446507D-05 0.000000000000D+00 0.000000000000D+00 0.119308755742D-05 0.000000000000D+00  7 -2 1 -24 -11 11 23 21 2 0.16748658D+00 0.18942938D-01 0.95447848D+05 0.95447848D+05 0.95447848D+05 0.11233863D+01  1  2 15  1  7  1       -2 0.487734747901D-04 0.100000000000D+01
0.224065430077D-02 0.000000000000D+00 0.000000000000D+00 0.119308755742D-05 0.000000000000D+00  7 -2 1 -24 -11 11 23 21 2 0.18678851D+00 0.18942938D-01 0.98939727D+05 0.98939727D+05 0.98939727D+05 0.11221021D+01  1  2 12  1  7  1       -2 0.143172202225D-01 0.100000000000D+01
-.224590365049D-02 0.000000000000D+00 0.000000000000D+00 0.119308755742D-05 0.000000000000D+00  7 -2 1 -24 -11 11 23 21 2 0.16748658D+00 0.18942938D-01 0.95447848D+05 0.95447848D+05 0.95447848D+05 0.11233863D+01  1  2  4  1  7  1       -2 -.197799255970D-01 0.100000000000D+01
-.252105310616D-02 0.000000000000D+00 -.885455958039D-04 0.119308755742D-05 0.000000000000D+00  7 -2 1 -24 -11 11 23 21 2 0.18677966D+00 0.18942938D-01 0.95447848D+05 0.95447848D+05 0.95447848D+05 0.11233863D+01  1  2  5  1  7  1       -2 -.161639990911D-01 0.100000000000D+01
0.251626066458D-02 0.000000000000D+00 0.880219294036D-04 0.119308755742D-05 0.000000000000D+00  7 -2 1 -24 -11 11 23 21 2 0.16748658D+00 0.18942938D-01 0.95447848D+05 0.95447848D+05 0.95447848D+05 0.11233863D+01  1  2  6  1  7  1       -2 0.221609901730D-01 0.100000000000D+01
0.392110304924D-04 0.000000000000D+00 0.000000000000D+00 0.119308755742D-05 0.000000000000D+00  7 21 1 -24 -11 11 23 2 2 0.18678851D+00 0.18942938D-01 0.98939727D+05 0.98939727D+05 0.98939727D+05 0.11221021D+01  1  2 12  3  7  1       -2 0.210435425983D-02 0.100000000000D+01
-.437585998298D-04 0.000000000000D+00 -.154895755946D-05 0.119308755742D-05 0.000000000000D+00  7 21 1 -24 -11 11 23 2 2 0.18677966D+00 0.18942938D-01 0.95447848D+05 0.95447848D+05 0.95447848D+05 0.11233863D+01  1  2  5  3  7  1       -2 -.235989265576D-02 0.100000000000D+01
  </mgrwgt>
  </event>
  <event>
  8     66 0.26562228E-05 0.20351305E+03 0.75467711E-02 0.96941893E-01
       -2 -1    0    0    0  501 0.00000000E+00 0.00000000E+00 0.10481989E+03 0.10482038E+03 0.32000000E+00 0.0000E+00 0.9000E+01
        1 -1    0    0  501    0 0.00000000E+00 0.00000000E+00 -.13478006E+04 0.13478006E+04 0.32000000E+00 0.0000E+00 0.9000E+01
       25  2    1    2    0    0 0.28068217E+03 0.10299330E+03 -.87090192E+03 0.96857562E+03 0.30046377E+03 0.0000E+00 0.0000E+00
       23  2    3    3    0    0 0.11752909E+03 -.15812184E+02 -.19872824E+03 0.26085649E+03 0.12037474E+03 0.0000E+00 0.0000E+00
      -24  1    1    2    0    0 -.28068217E+03 -.10299330E+03 -.37207879E+03 0.48404540E+03 0.80419002E+02 0.0000E+00 0.9000E+01
      -11  1    4    4    0    0 0.18833932E+01 0.39988391E+02 -.38684245E+02 0.55669466E+02 0.51099893E-03 0.0000E+00 0.9000E+01
       11  1    4    4    0    0 0.11564570E+03 -.55800575E+02 -.16004400E+03 0.20518702E+03 0.51099893E-03 0.0000E+00 0.9000E+01
       23  1    3    3    0    0 0.16315308E+03 0.11880549E+03 -.67217367E+03 0.70771913E+03 0.91188000E+02 0.0000E+00 0.9000E+01
#aMCatNLO 1  0  0  2  1 0.11023065D+03 0.00000000D+00  -5  7  0 0.00000000D+00 0.00000000D+00 0.00000000D+00 0.00000000D+00 0.00000000D+00
  <mgrwgt>
 0.1210774530D-02    9    2    0
 0.375867920707110D+03 0.000000000000000D+00 0.000000000000000D+00 0.375867920707110D+03
 0.375867920707110D+03 0.000000000000000D+00 0.000000000000000D+00 -.375867920707110D+03
 0.320122766561105D+03 -.280682174164973D+03 -.102993304111913D+03 0.813711627697449D+02
 0.436095542488735D+02 0.188339321283526D+01 0.399883902906125D+02 0.172966671285810D+02
 0.131864637939156D+03 0.115645697482399D+03 -.558005752475053D+02 0.300108512821881D+02
 0.256138882665085D+03 0.163153083469738D+03 0.118805489068806D+03 -.128678681180514D+03
 0.000000000000000D+00 -.000000000000000D+00 0.000000000000000D+00 -.000000000000000D+00
 0.389089479193747D+03 0.000000000000000D+00 0.000000000000000D+00 0.389089479193747D+03
 0.709995331728053D+03 0.000000000000000D+00 0.000000000000000D+00 -.709995331728053D+03
 0.295010078649829D+03 -.241538409251683D+03 -.124906610218491D+03 0.813711627697449D+02
 0.414525796765387D+02 0.729629255534607D+01 0.369581626035393D+02 0.172966671285810D+02
 0.152068505884608D+03 0.133713684453762D+03 -.659153235378192D+02 0.300108512821881D+02
 0.271243520180423D+03 0.196712879466831D+03 0.100018178134672D+03 -.128678681180514D+03
 0.339310126530400D+03 -.961844472242561D+02 0.538455930180989D+02 -.320905852534306D+03
0.429828960123D-04 0.000000000000D+00 0.000000000000D+00 0.665016107552D-08 0.000000000000D+00  7 -2 1 -24 -11 11 23 21 0 0.16126178D-01 0.20735398D+00 0.12233036D+06 0.12233036D+06 0.12233036D+06 0.11146088D+01  1  2  2  2  7  2        1 0.116128238927D-02 0.100000000000D+01
-.237288854288D-05 0.000000000000D+00 -.165065638344D-06 0.665016107552D-08 0.000000000000D+00  7 -2 1 -24 -11 11 23 21 2 0.16126178D-01 0.20735398D+00 0.12233036D+06 0.12233036D+06 0.12233036D+06 0.11146088D+01  1  2  3  2  7  2        1 -.796460936788D-04 0.100000000000D+01
0.276040927725D-05 0.000000000000D+00 0.000000000000D+00 0.665016107552D-08 0.000000000000D+00  7 -2 1 -24 -11 11 23 21 2 0.16126178D-01 0.20735398D+00 0.12233036D+06 0.12233036D+06 0.12233036D+06 0.11146088D+01  1  2 15  2  7  2        1 0.926532417831D-04 0.100000000000D+01
0.117272602781D-03 0.000000000000D+00 0.000000000000D+00 0.665016107552D-08 0.000000000000D+00  7 -2 1 -24 -11 11 23 21 2 0.16126178D-01 0.39227363D+00 0.16782284D+06 0.16782284D+06 0.16782284D+06 0.11037245D+01  1  2 12  2  7  2        1 0.602780222142D-03 0.100000000000D+01
-.109332748310D-03 0.000000000000D+00 0.000000000000D+00 0.665016107552D-08 0.000000000000D+00  7 -2 1 -24 -11 11 23 21 2 0.16126178D-01 0.20735398D+00 0.12233036D+06 0.12233036D+06 0.12233036D+06 0.11146088D+01  1  2  4  2  7  2        1 -.366975783172D-02 0.100000000000D+01
-.125742476022D-03 0.000000000000D+00 -.123750721611D-04 0.665016107552D-08 0.000000000000D+00  7 -2 1 -24 -11 11 23 21 2 0.16126178D-01 0.39485869D+00 0.12233036D+06 0.12233036D+06 0.12233036D+06 0.11146088D+01  1  2  5  2  7  2        1 -.651675403457D-03 0.100000000000D+01
0.111879605618D-03 0.000000000000D+00 0.101877258503D-04 0.665016107552D-08 0.000000000000D+00  7 -2 1 -24 -11 11 23 21 2 0.16126178D-01 0.20735398D+00 0.12233036D+06 0.12233036D+06 0.12233036D+06 0.11146088D+01  1  2  6  2  7  2        1 0.375524319359D-02 0.100000000000D+01
0.812829016450D-05 0.000000000000D+00 0.000000000000D+00 0.665016107552D-08 0.000000000000D+00  7 -2 21 -24 -11 11 23 -1 2 0.16126178D-01 0.39227363D+00 0.16782284D+06 0.16782284D+06 0.16782284D+06 0.11037245D+01  1  2 12  4  7  2        1 0.140391165578D-04 0.100000000000D+01
-.808944791218D-05 0.000000000000D+00 -.865853496805D-06 0.665016107552D-08 0.000000000000D+00  7 -2 21 -24 -11 11 23 -1 2 0.16126178D-01 0.39485869D+00 0.12233036D+06 0.12233036D+06 0.12233036D+06 0.11146088D+01  1  2  5  4  7  2        1 -.141443042207D-04 0.100000000000D+01
  </mgrwgt>
  </event>
  <event>
  8     66 0.26562228E-05 0.22210419E+03 0.75467711E-02 0.10200383E+00
       -2 -1    0    0    0  501 0.00000000E+00 0.00000000E+00 0.54773498E+02 0.54774433E+02 0.32000000E+00 0.0000E+00 0.9000E+01
        1 -1    0    0  501    0 0.00000000E+00 0.00000000E+00 -.24495749E+04 0.24495749E+04 0.32000000E+00 0.0000E+00 0.9000E+01
       25  2    1    2    0    0 0.56814507E+02 -.10994767E+03 -.23129390E+04 0.23355742E+04 0.29983947E+03 0.0000E+00 0.0000E+00
       23  2    3    3    0    0 0.13772727E+03 -.53435057E+02 -.92074142E+03 0.93690703E+03 0.90586440E+02 0.0000E+00 0.0000E+00
      -24  1    1    2    0    0 -.56814507E+02 0.10994767E+03 -.81862399E+02 0.16877514E+03 0.80419002E+02 0.0000E+00 0.9000E+01
      -11  1    4    4    0    0 0.39909236E+02 -.50520758E+02 -.53858654E+03 0.54242101E+03 0.51099893E-03 0.0000E+00 0.9000E+01
       11  1    4    4    0    0 0.97818033E+02 -.29142992E+01 -.38215488E+03 0.39448601E+03 0.51099893E-03 0.0000E+00 0.9000E+01
       23  1    3    3    0    0 -.80912762E+02 -.56512617E+02 -.13921976E+04 0.13986672E+04 0.91188000E+02 0.0000E+00 0.9000E+01
#aMCatNLO 1  0  0  2  1 0.93137661D+02 0.00000000D+00  -5  7  0 0.00000000D+00 0.00000000D+00 0.00000000D+00 0.00000000D+00 0.00000000D+00
  <mgrwgt>
 0.1902646369D-02    4    2    0
 0.366296304707587D+03 0.000000000000000D+00 0.000000000000000D+00 0.366296304707587D+03
 0.366296304707587D+03 0.000000000000000D+00 0.000000000000000D+00 -.366296304707587D+03
 0.309350269644198D+03 -.568145069276752D+02 0.109947673651840D+03 0.271871282476986D+03
 0.936453781945399D+02 0.399092360074895D+02 -.505207578174597D+02 -.680026673597918D+02
 0.992990430327270D+02 0.978180331238961D+02 -.291429921157445D+01 -.168356527373653D+02
 0.230297918543709D+03 -.809127622037104D+02 -.565126166228058D+02 -.187032962379829D+03
 0.000000000000000D+00 0.000000000000000D+00 0.000000000000000D+00 0.000000000000000D+00
 0.631792046754097D+03 0.000000000000000D+00 0.000000000000000D+00 0.631792046754097D+03
 0.377504743131710D+03 0.000000000000000D+00 0.000000000000000D+00 -.377504743131710D+03
 0.304379806007830D+03 -.787493473831948D+02 0.778742345197268D+02 0.271871282476986D+03
 0.968366016881326D+02 0.331013704585525D+02 -.604753167186846D+02 -.680026673597918D+02
 0.933839318510255D+02 0.909315035561871D+02 -.129838817722187D+02 -.168356527373653D+02
 0.243889034241987D+03 -.978603024466958D+02 -.812935536679008D+02 -.187032962379829D+03
 0.270807416096832D+03 0.525767758151511D+02 0.768785176390772D+02 0.254287303622387D+03
0.135877833580D-03 0.000000000000D+00 0.000000000000D+00 0.660103512902D-05 0.000000000000D+00  7 -2 1 -24 -11 11 23 21 0 0.84267655D-02 0.37685775D+00 0.49330273D+05 0.49330273D+05 0.49330273D+05 0.11478109D+01  1  2  2  2  7  2        1 0.194632517486D-02 0.100000000000D+01
-.525150079489D-05 0.000000000000D+00 -.521806658404D-06 0.660103512902D-05 0.000000000000D+00  7 -2 1 -24 -11 11 23 21 2 0.84267655D-02 0.37685775D+00 0.49330273D+05 0.49330273D+05 0.49330273D+05 0.11478109D+01  1  2  3  2  7  2        1 -.991039339751D-04 0.100000000000D+01
0.842910553294D-05 0.000000000000D+00 0.000000000000D+00 0.660103512902D-05 0.000000000000D+00  7 -2 1 -24 -11 11 23 21 2 0.84267655D-02 0.37685775D+00 0.49330273D+05 0.49330273D+05 0.49330273D+05 0.11478109D+01  1  2 15  2  7  2        1 0.159070245028D-03 0.100000000000D+01
-.549213729036D-05 0.000000000000D+00 0.000000000000D+00 0.660103512902D-05 0.000000000000D+00  7 -2 1 -24 -11 11 23 21 2 0.84267655D-02 0.37685775D+00 0.49330273D+05 0.49330273D+05 0.49330273D+05 0.11478109D+01  1  2  4  2  7  2        1 -.103645116447D-03 0.100000000000D+01
  </mgrwgt>
  </event>
  <event>
  8     66 0.26562228E-05 0.39308827E+03 0.75467711E-02 0.86579113E-01
       -2 -1    0    0    0  501 0.00000000E+00 0.00000000E+00 0.52454040E+03 0.52454049E+03 0.32000000E+00 0.0000E+00 0.9000E+01
        1 -1    0    0  501    0 0.00000000E+00 0.00000000E+00 -.11041522E+04 0.11041523E+04 0.32000000E+00 0.0000E+00 0.9000E+01
       25  2    1    2    0    0 0.18482824E+03 -.32172522E+03 0.37145627E+03 0.60464866E+03 0.29991939E+03 0.0000E+00 0.0000E+00
       23  2    3    3    0    0 0.78524388E+01 -.11851388E+03 0.12054850E+02 0.14628208E+03 0.84533591E+02 0.0000E+00 0.0000E+00
      -24  1    1    2    0    0 -.18482824E+03 0.32172522E+03 -.95106810E+03 0.10240441E+04 0.80419002E+02 0.0000E+00 0.9000E+01
      -11  1    4    4    0    0 -.79522326E+01 -.12224827E+02 0.33651463E+02 0.36675678E+02 0.51099893E-03 0.0000E+00 0.9000E+01
       11  1    4    4    0    0 0.15804671E+02 -.10628905E+03 -.21596612E+02 0.10960641E+03 0.51099893E-03 0.0000E+00 0.9000E+01
       23  1    3    3    0    0 0.17697581E+03 -.20321134E+03 0.35940142E+03 0.45836657E+03 0.91188000E+02 0.0000E+00 0.9000E+01
#aMCatNLO 1  0  0  1  2 0.97808472D+03 0.00000000D+00  -5  7  0 0.00000000D+00 0.00000000D+00 0.00000000D+00 0.00000000D+00 0.00000000D+00
  <mgrwgt>
 0.4318126327D-02    3    2    0
 0.761033880169357D+03 0.000000000000000D+00 0.000000000000000D+00 0.761033880169357D+03
 0.761033880169357D+03 0.000000000000000D+00 0.000000000000000D+00 -.761033880169357D+03
 0.733609205999256D+03 -.184828244093836D+03 0.321725223321978D+03 -.627731353395783D+03
 0.520595728124182D+02 -.795223259740826D+01 -.122248268893965D+02 0.499751410768642D+02
 0.109060526361099D+03 0.158046713919492D+02 -.106289054857212D+03 0.186292133465969D+02
 0.627338455165941D+03 0.176975805299295D+03 -.203211341575369D+03 0.559126998972322D+03
 0.000000000000000D+00 0.000000000000000D+00 -.000000000000000D+00 -.000000000000000D+00
 0.107783701950517D+04 0.000000000000000D+00 0.000000000000000D+00 0.107783701950517D+04
 0.228531814664727D+04 0.000000000000000D+00 0.000000000000000D+00 -.228531814664727D+04
 0.109208402842189D+04 -.252398747732602D+03 0.853480245399222D+03 -.627731353395783D+03
 0.547328176963861D+02 -.119047123872321D+02 0.188797359703635D+02 0.499751410768642D+02
 0.606000230785042D+02 0.952538604590993D+01 -.568733876947611D+02 0.186292133465969D+02
 0.601820538097501D+03 0.131483555746613D+03 0.154795937674083D+03 0.559126998972322D+03
 0.155391775885816D+04 0.123294518327311D+03 -.970282531348908D+03 -.120748112714210D+04
0.209095148581D-02 0.000000000000D+00 0.000000000000D+00 0.178723363725D-05 0.000000000000D+00  7 -2 1 -24 -11 11 23 21 0 0.80698533D-01 0.16986959D+00 0.15451838D+06 0.15451838D+06 0.15451838D+06 0.11065362D+01  1  2  2  1  7  1       -2 0.414189356191D-02 0.100000000000D+01
-.545204351637D-04 0.000000000000D+00 -.802980426567D-05 0.178723363725D-05 0.000000000000D+00  7 -2 1 -24 -11 11 23 21 2 0.80698533D-01 0.16986959D+00 0.15451838D+06 0.15451838D+06 0.15451838D+06 0.11065362D+01  1  2  3  1  7  1       -2 -.132234737160D-03 0.100000000000D+01
0.127181274896D-03 0.000000000000D+00 0.000000000000D+00 0.178723363725D-05 0.000000000000D+00  7 -2 1 -24 -11 11 23 21 2 0.80698533D-01 0.16986959D+00 0.15451838D+06 0.15451838D+06 0.15451838D+06 0.11065362D+01  1  2 15  1  7  1       -2 0.308467502269D-03 0.100000000000D+01
  </mgrwgt>
  </event>
  <event>
  9     66 -.26562228E-05 0.36189495E+03 0.75467711E-02 0.97208407E-01
       -2 -1    0    0    0  501 0.00000000E+00 0.00000000E+00 0.79629100E+03 0.79629107E+03 0.32000000E+00 0.0000E+00 0.9000E+01
        1 -1    0    0  502    0 0.00000000E+00 0.00000000E+00 -.45745780E+03 0.45745791E+03 0.32000000E+00 0.0000E+00 0.9000E+01
       25  2    1    2    0    0 -.16099928E+03 -.30577405E+03 0.60784290E+03 0.76092532E+03 0.30019296E+03 0.0000E+00 0.0000E+00
       23  2    3    3    0    0 -.53395801E+02 -.11238802E+03 0.76141845E+02 0.17783190E+03 0.10170756E+03 0.0000E+00 0.0000E+00
      -24  1    1    2    0    0 0.20546458E+03 0.24671245E+03 -.25441406E+03 0.41746432E+03 0.80419002E+02 0.0000E+00 0.9000E+01
      -11  1    4    4    0    0 -.49435481E+02 -.12991869E+03 0.78604411E+02 0.15969154E+03 0.51099893E-03 0.0000E+00 0.9000E+01
       11  1    4    4    0    0 -.39603197E+01 0.17530674E+02 -.24625660E+01 0.18140367E+02 0.51099893E-03 0.0000E+00 0.9000E+01
       23  1    3    3    0    0 -.10760348E+03 -.19338603E+03 0.53170106E+03 0.58309341E+03 0.91188000E+02 0.0000E+00 0.9000E+01
       21  1    1    2  502  501 -.44465301E+02 0.59061596E+02 -.14595635E+02 0.75359340E+02 0.75000000E+00 0.0000E+00 0.9000E+01
#aMCatNLO 2  0  0  2  1 0.73928581D+02 0.00000000D+00  -5  7  0 0.00000000D+00 0.00000000D+00 0.00000000D+00 0.00000000D+00 0.00000000D+00
  <mgrwgt>
 -.1074770419D-03    2    2    0
 0.560853090165756D+03 0.000000000000000D+00 0.000000000000000D+00 0.560853090165756D+03
 0.560853090165756D+03 0.000000000000000D+00 0.000000000000000D+00 -.560853090165756D+03
 0.523566768750878D+03 0.184850647283194D+03 0.274093167395878D+03 -.397942356594199D+03
 0.138113480301128D+03 -.549949828264880D+02 -.122534214194643D+03 0.321908629350878D+02
 0.209130062366115D+02 -.476619550020186D+01 0.186010888753238D+02 -.828472709017696D+01
 0.439112925042895D+03 -.125089468956504D+03 -.170160042076559D+03 0.374036220749288D+03
 0.000000000000000D+00 -.000000000000000D+00 0.000000000000000D+00 -.000000000000000D+00
 0.584364240276418D+03 0.000000000000000D+00 0.000000000000000D+00 0.584364240276418D+03
 0.623357065436195D+03 0.000000000000000D+00 0.000000000000000D+00 -.623357065436195D+03
 0.517598359740665D+03 0.205464581484234D+03 0.246712449291924D+03 -.397942356594199D+03
 0.142684915751836D+03 -.494354807824849D+02 -.129918692906015D+03 0.321908629350878D+02
 0.197900321777099D+02 -.396031972440550D+01 0.175306742116944D+02 -.828472709017696D+01
 0.444066447920999D+03 -.107603480438649D+03 -.193386026874365D+03 0.374036220749288D+03
 0.835815501214024D+02 -.444653005386946D+02 0.590615962767610D+02 -.389928251597773D+02
-.362400043384D-03 0.000000000000D+00 0.000000000000D+00 0.243495269962D-06 0.000000000000D+00  7 -2 1 -24 -11 11 23 21 2 0.11757710D+00 0.71597566D-01 0.16049953D+06 0.16049953D+06 0.16049953D+06 0.11052406D+01  1  2 13  2  7  2        1 -.136385736633D-02 0.100000000000D+01
0.362048076608D-03 0.000000000000D+00 0.000000000000D+00 0.243495269962D-06 0.291941574291D-09  7 -2 1 -24 -11 11 23 21 2 0.12250598D+00 0.70377937D-01 0.16049953D+06 0.16049953D+06 0.16049953D+06 0.11052406D+01  1  2  1  2  7  2        1 0.125638032445D-02 0.100000000000D+01
  </mgrwgt>
  </event>
  <event>
  8     66 0.26562228E-05 0.16896451E+03 0.75467711E-02 0.10275465E+00
       -2 -1    0    0    0  501 0.00000000E+00 0.00000000E+00 0.42529014E+02 0.42530217E+02 0.32000000E+00 0.0000E+00 0.9000E+01
        1 -1    0    0  501    0 0.00000000E+00 0.00000000E+00 -.90168782E+03 0.90168788E+03 0.32000000E+00 0.0000E+00 0.9000E+01
       25  2    1    2    0    0 -.85995632E+01 0.37628583E+02 -.67052520E+03 0.73555637E+03 0.29991543E+03 0.0000E+00 0.0000E+00
       23  2    3    3    0    0 -.92173904E+02 0.32235325E+02 -.54468358E+03 0.55901991E+03 0.79296323E+02 0.0000E+00 0.0000E+00
      -24  1    1    2    0    0 0.85995632E+01 -.37628583E+02 -.18863361E+03 0.20866173E+03 0.80419002E+02 0.0000E+00 0.9000E+01
      -11  1    4    4    0    0 0.87112599E+01 0.21820185E+02 -.13061139E+03 0.13270773E+03 0.51099893E-03 0.0000E+00 0.9000E+01
       11  1    4    4    0    0 -.10088516E+03 0.10415140E+02 -.41407220E+03 0.42631218E+03 0.51099893E-03 0.0000E+00 0.9000E+01
       23  1    3    3    0    0 0.83574341E+02 0.53932574E+01 -.12584162E+03 0.17653646E+03 0.91188000E+02 0.0000E+00 0.9000E+01
#aMCatNLO 1  0  0  2  1 0.14610141D+03 0.00000000D+00  -5  7  0 0.00000000D+00 0.00000000D+00 0.00000000D+00 0.00000000D+00 0.00000000D+00
  <mgrwgt>
 0.4809340289D-02    3    2    0
 0.195827701553735D+03 0.000000000000000D+00 0.000000000000000D+00 0.195827701553735D+03
 0.195827701553735D+03 0.000000000000000D+00 0.000000000000000D+00 -.195827701553735D+03
 0.892518109959854D+02 0.859956363356851D+01 -.376285845415692D+02 0.296764930588829D+01
 0.334199763131185D+02 0.871125982847672D+01 0.218201855748898D+02 -.237673782830067D+02
 0.119436372377829D+03 -.100885163855817D+03 0.104151406237632D+02 -.630773779286025D+02
 0.149547243420536D+03 0.835743403937716D+02 0.539325834291620D+01 0.838771069057209D+02
 0.000000000000000D+00 0.000000000000000D+00 -.000000000000000D+00 0.000000000000000D+00
 0.473809844980925D+03 0.000000000000000D+00 0.000000000000000D+00 0.473809844980925D+03
 0.229161863924315D+03 0.000000000000000D+00 0.000000000000000D+00 -.229161863924315D+03
 0.809436452320297D+02 0.500271542317201D+01 -.712907042118042D+01 0.296764930588829D+01
 0.433726456389288D+02 0.708835278406169D+01 0.355816437799216D+02 -.237673782830067D+02
 0.135742043978272D+03 -.106278010706984D+03 0.561438450519503D+02 -.630773779286025D+02
 0.157960296785757D+03 0.770755890746258D+02 0.604994919199326D+02 0.838771069057209D+02
 0.284953077270254D+03 0.171113534251248D+02 -.145095910330624D+03 0.244647981056610D+03
0.207863937499D-04 0.000000000000D+00 0.000000000000D+00 0.764052652209D-08 0.000000000000D+00  7 -2 1 -24 -11 11 23 21 0 0.65430221D-02 0.13872130D+00 0.28549004D+05 0.28549004D+05 0.28549004D+05 0.11693388D+01  1  2  2  2  7  2        1 0.473971104823D-02 0.100000000000D+01
-.112423312025D-05 0.000000000000D+00 -.798252251829D-07 0.764052652209D-08 0.000000000000D+00  7 -2 1 -24 -11 11 23 21 2 0.65430221D-02 0.13872130D+00 0.28549004D+05 0.28549004D+05 0.28549004D+05 0.11693388D+01  1  2  3  2  7  2        1 -.350517596581D-03 0.100000000000D+01
0.134755856710D-05 0.000000000000D+00 0.000000000000D+00 0.764052652209D-08 0.000000000000D+00  7 -2 1 -24 -11 11 23 21 2 0.65430221D-02 0.13872130D+00 0.28549004D+05 0.28549004D+05 0.28549004D+05 0.11693388D+01  1  2 15  2  7  2        1 0.420146837595D-03 0.100000000000D+01
  </mgrwgt>
  </event>
  <event>
  8     66 0.26562228E-05 0.10522312E+03 0.75467711E-02 0.10290873E+00
       -2 -1    0    0    0  501 0.00000000E+00 0.00000000E+00 0.50609794E+02 0.50610806E+02 0.32000000E+00 0.0000E+00 0.9000E+01
        1 -1    0    0  501    0 0.00000000E+00 0.00000000E+00 -.83809308E+03 0.83809314E+03 0.32000000E+00 0.0000E+00 0.9000E+01
       25  2    1    2    0    0 -.18405272E+02 -.62502088E+02 -.61610824E+03 0.68849933E+03 0.30032766E+03 0.0000E+00 0.0000E+00
       23  2    3    3    0    0 0.52489538E+02 0.62429959E+02 -.37203159E+03 0.39097160E+03 0.88309883E+02 0.0000E+00 0.0000E+00
      -24  1    1    2    0    0 0.18405272E+02 0.62502088E+02 -.17137505E+03 0.20020461E+03 0.80419002E+02 0.0000E+00 0.9000E+01
      -11  1    4    4    0    0 0.14560753E+02 0.47147294E+02 -.66992517E+02 0.83203847E+02 0.51099893E-03 0.0000E+00 0.9000E+01
       11  1    4    4    0    0 0.37928784E+02 0.15282665E+02 -.30503908E+03 0.30776775E+03 0.51099893E-03 0.0000E+00 0.9000E+01
       23  1    3    3    0    0 -.70894810E+02 -.12493205E+03 -.24407665E+03 0.29752773E+03 0.91188000E+02 0.0000E+00 0.9000E+01
#aMCatNLO 1  0  0  1  2 0.13087177D+03 0.00000000D+00  -5  7  0 0.00000000D+00 0.00000000D+00 0.00000000D+00 0.00000000D+00 0.00000000D+00
  <mgrwgt>
 0.6881514461D-03    7    2    0
 0.205951924322044D+03 0.000000000000000D+00 0.000000000000000D+00 0.205951924322044D+03
 0.205951924322044D+03 0.000000000000000D+00 0.000000000000000D+00 -.205951924322044D+03
 0.104314748557724D+03 0.184052723420524D+02 0.625020884806446D+02 0.130032956539173D+02
 0.514394317870578D+02 0.145607534249623D+02 0.471472935648467D+02 0.145303926919743D+02
 0.808471301338862D+02 0.379287842605145D+02 0.152826652392646D+02 -.697431424484834D+02
 0.175302538165421D+03 -.708948100275293D+02 -.124932047284756D+03 0.422094541025917D+02
 0.000000000000000D+00 0.000000000000000D+00 0.000000000000000D+00 0.000000000000000D+00
 0.353564654959698D+03 0.000000000000000D+00 0.000000000000000D+00 0.353564654959698D+03
 0.247245478613633D+03 0.000000000000000D+00 0.000000000000000D+00 -.247245478613633D+03
 0.887856960125900D+02 0.116032606600549D+02 0.333461018150719D+02 0.130032956539173D+02
 0.383342171241370D+02 0.113984540838692D+02 0.335924862913632D+02 0.145303926919743D+02
 0.773631313226700D+02 0.323557880458553D+02 -.860529775143930D+01 -.697431424484834D+02
 0.227711588131569D+03 -.850910838951637D+02 -.185782629573674D+03 0.422094541025917D+02
 0.168615500982365D+03 0.297335811053843D+02 0.127449339218678D+03 0.106319176346066D+03
0.434055645101D-05 0.000000000000D+00 0.000000000000D+00 0.841689361157D-07 0.000000000000D+00  7 -2 1 -24 -11 11 23 21 0 0.77862047D-02 0.12893748D+00 0.33102650D+05 0.33102650D+05 0.33102650D+05 0.11633909D+01  1  2  2  1  7  1       -2 0.859911639011D-03 0.100000000000D+01
-.236636900964D-06 0.000000000000D+00 -.166688796667D-07 0.841689361157D-07 0.000000000000D+00  7 -2 1 -24 -11 11 23 21 2 0.77862047D-02 0.12893748D+00 0.33102650D+05 0.33102650D+05 0.33102650D+05 0.11633909D+01  1  2  3  1  7  1       -2 -.634515514726D-04 0.100000000000D+01
0.281325187896D-06 0.000000000000D+00 0.000000000000D+00 0.841689361157D-07 0.000000000000D+00  7 -2 1 -24 -11 11 23 21 2 0.77862047D-02 0.12893748D+00 0.33102650D+05 0.33102650D+05 0.33102650D+05 0.11633909D+01  1  2 15  1  7  1       -2 0.754342182796D-04 0.100000000000D+01
0.455429007564D-06 0.000000000000D+00 0.000000000000D+00 0.841689361157D-07 0.000000000000D+00  7 -2 1 -24 -11 11 23 21 2 0.13680547D-01 0.12893748D+00 0.65387515D+05 0.65387515D+05 0.65387515D+05 0.11371848D+01  1  2 12  1  7  1       -2 0.492519707456D-04 0.100000000000D+01
-.206093940458D-05 0.000000000000D+00 -.137329064817D-05 0.841689361157D-07 0.000000000000D+00  7 -2 1 -24 -11 11 23 21 2 0.16007321D-01 0.12893748D+00 0.33102650D+05 0.33102650D+05 0.33102650D+05 0.11633909D+01  1  2  5  1  7  1       -2 -.182478370455D-03 0.100000000000D+01
0.283215683373D-07 0.000000000000D+00 0.000000000000D+00 0.841689361157D-07 0.000000000000D+00  7 21 1 -24 -11 11 23 2 2 0.13680547D-01 0.12893748D+00 0.65387515D+05 0.65387515D+05 0.65387515D+05 0.11371848D+01  1  2 12  3  7  1       -2 0.426121789564D-04 0.100000000000D+01
-.765740592333D-07 0.000000000000D+00 -.107020545349D-06 0.841689361157D-07 0.000000000000D+00  7 21 1 -24 -11 11 23 2 2 0.16007321D-01 0.12893748D+00 0.33102650D+05 0.33102650D+05 0.33102650D+05 0.11633909D+01  1  2  5  3  7  1       -2 -.931286389811D-04 0.100000000000D+01
  </mgrwgt>
  </event>
  <event>
  8     66 0.26562228E-05 0.23263031E+03 0.75467711E-02 0.10054521E+00
       -2 -1    0    0    0  501 0.00000000E+00 0.00000000E+00 0.25929574E+03 0.25929593E+03 0.32000000E+00 0.0000E+00 0.9000E+01
        1 -1    0    0  501    0 0.00000000E+00 0.00000000E+00 -.10566694E+04 0.10566695E+04 0.32000000E+00 0.0000E+00 0.9000E+01
       25  2    1    2    0    0 0.93347895E+02 -.14010538E+03 0.13198173E+03 0.36806665E+03 0.29951717E+03 0.0000E+00 0.0000E+00
       23  2    3    3    0    0 0.10350118E+03 -.38879247E+02 -.40154629E+02 0.14830315E+03 0.90317998E+02 0.0000E+00 0.0000E+00
      -24  1    1    2    0    0 -.93347895E+02 0.14010538E+03 -.92935541E+03 0.94789875E+03 0.80419002E+02 0.0000E+00 0.9000E+01
      -13  1    4    4    0    0 0.57234031E+02 -.66846693E+02 -.17708126E+02 0.89765270E+02 0.10565837E+00 0.0000E+00 0.9000E+01
       13  1    4    4    0    0 0.46267148E+02 0.27967447E+02 -.22446503E+02 0.58537883E+02 0.10565837E+00 0.0000E+00 0.9000E+01
       23  1    3    3    0    0 -.10153284E+02 -.10122613E+03 0.17213636E+03 0.21976350E+03 0.91188000E+02 0.0000E+00 0.9000E+01
#aMCatNLO 1  0  0  1  1 0.14613553D+03 0.00000000D+00  -5  7  0 0.00000000D+00 0.00000000D+00 0.00000000D+00 0.00000000D+00 0.00000000D+00
  <mgrwgt>
 0.1704905385D-02    4    2    0
 0.523440576818975D+03 0.000000000000000D+00 0.000000000000000D+00 0.523440576818975D+03
 0.523440576818975D+03 0.000000000000000D+00 0.000000000000000D+00 -.523440576818975D+03
 0.483682806559165D+03 -.933478952406781D+02 0.140105375874305D+03 -.446249364718691D+03
 0.993503959912367D+02 0.572340462735041D+02 -.668468230887758D+02 0.461114668354397D+02
 0.564873251198621D+02 0.462671329521313D+02 0.279675762448183D+02 0.163702469919391D+02
 0.407360625967685D+03 -.101532839849573D+02 -.101226129030348D+03 0.383767650891312D+03
 0.000000000000000D+00 -.000000000000000D+00 0.000000000000000D+00 -.000000000000000D+00
 0.545072707575183D+03 0.000000000000000D+00 0.000000000000000D+00 0.545072707575183D+03
 0.850972974042891D+03 0.000000000000000D+00 0.000000000000000D+00 -.850972974042891D+03
 0.465083032952538D+03 -.644757917754815D+02 0.808664847081278D+02 -.446249364718691D+03
 0.112201986203183D+03 0.636718436863722D+02 -.800556972101403D+02 0.461114668354397D+02
 0.563551993238160D+02 0.497010688142072D+02 0.209219325822301D+02 0.163702469919391D+02
 0.423391353209819D+03 0.151275135499479D+02 -.153096489482945D+03 0.383767650891312D+03
 0.339014109928719D+03 -.640246342750459D+02 0.131363769402727D+03 -.305900266467708D+03
0.181105735420D-03 0.000000000000D+00 0.000000000000D+00 0.686889780089D-05 0.000000000000D+00  7 -2 1 -24 -13 13 23 21 0 0.39891671D-01 0.16256454D+00 0.54116859D+05 0.54116859D+05 0.54116859D+05 0.11442851D+01  1  2  2  1  7  1       -2 0.169323127885D-02 0.100000000000D+01
-.201591237742D-05 0.000000000000D+00 -.695493710248D-06 0.686889780089D-05 0.000000000000D+00  7 -2 1 -24 -13 13 23 21 2 0.39891671D-01 0.16256454D+00 0.54116859D+05 0.54116859D+05 0.54116859D+05 0.11442851D+01  1  2  3  1  7  1       -2 -.246788093405D-04 0.100000000000D+01
0.109962975747D-04 0.000000000000D+00 0.000000000000D+00 0.686889780089D-05 0.000000000000D+00  7 -2 1 -24 -13 13 23 21 2 0.39891671D-01 0.16256454D+00 0.54116859D+05 0.54116859D+05 0.54116859D+05 0.11442851D+01  1  2 15  1  7  1       -2 0.134616729545D-03 0.100000000000D+01
-.802677454949D-05 0.000000000000D+00 0.000000000000D+00 0.686889780089D-05 0.000000000000D+00  7 -2 1 -24 -13 13 23 21 2 0.39891671D-01 0.16256454D+00 0.54116859D+05 0.54116859D+05 0.54116859D+05 0.11442851D+01  1  2  4  1  7  1       -2 -.982638139161D-04 0.100000000000D+01
  </mgrwgt>
  </event>
  <event>
  8     66 0.26562228E-05 0.23586616E+03 0.75467711E-02 0.10400751E+00
       -2 -1    0    0    0  501 0.00000000E+00 0.00000000E+00 0.29220197E+03 0.29220214E+03 0.32000000E+00 0.0000E+00 0.9000E+01
        1 -1    0    0  501    0 0.00000000E+00 0.00000000E+00 -.22431298E+03 0.22431321E+03 0.32000000E+00 0.0000E+00 0.9000E+01
       25  2    1    2    0    0 0.15771443E+02 0.12839964E+03 -.42313642E+02 0.32850726E+03 0.29898389E+03 0.0000E+00 0.0000E+00
       23  2    3    3    0    0 0.27395351E+01 -.61677809E+02 0.12263611E+02 0.11034861E+03 0.90635332E+02 0.0000E+00 0.0000E+00
      -24  1    1    2    0    0 -.15771443E+02 -.12839964E+03 0.11020263E+03 0.18800809E+03 0.80419002E+02 0.0000E+00 0.9000E+01
      -11  1    4    4    0    0 -.12453173E+02 -.81929456E+02 0.16227893E+01 0.82886373E+02 0.51099893E-03 0.0000E+00 0.9000E+01
       11  1    4    4    0    0 0.15192709E+02 0.20251648E+02 0.10640821E+02 0.27462241E+02 0.51099893E-03 0.0000E+00 0.9000E+01
       23  1    3    3    0    0 0.13031908E+02 0.19007745E+03 -.54577252E+02 0.21815864E+03 0.91188000E+02 0.0000E+00 0.9000E+01
#aMCatNLO 1  0  0  1  1 0.14613553D+03 0.00000000D+00  -5  7  0 0.00000000D+00 0.00000000D+00 0.00000000D+00 0.00000000D+00 0.00000000D+00
  <mgrwgt>
 0.9898408623D-05    1    2    0
 0.256017182014147D+03 0.000000000000000D+00 0.000000000000000D+00 0.256017182014147D+03
 0.256017182014147D+03 0.000000000000000D+00 0.000000000000000D+00 -.256017182014147D+03
 0.175041998212780D+03 -.157714429222145D+02 -.128399638338168D+03 0.862396639994110D+02
 0.833965788283018D+02 -.124531734250488D+02 -.819294564174329D+02 -.935264684753901D+01
 0.262917404205587D+02 0.151927085079989D+02 0.202516477392852D+02 0.709281230379897D+01
 0.227304046566653D+03 0.130319078392644D+02 0.190077447016316D+03 -.839798294556710D+02
 0.000000000000000D+00 0.000000000000000D+00 0.000000000000000D+00 -.000000000000000D+00
 0.462126104266444D+03 0.000000000000000D+00 0.000000000000000D+00 0.462126104266444D+03
 0.114517974235877D+04 0.000000000000000D+00 0.000000000000000D+00 -.114517974235877D+04
 0.319362564929965D+03 -.210784967404437D+03 -.208944130795422D+03 0.862396639994110D+02
 0.165188659910853D+03 -.110505430937852D+03 -.122427003121567D+03 -.935264684753901D+01
 0.152790502735248D+02 -.120452366403784D+01 0.134792623546969D+02 0.709281230379897D+01
 0.240243248237009D+03 -.171388003745301D+03 0.113908328915256D+03 -.839798294556710D+02
 0.867232323273868D+03 0.493882925751628D+03 0.203983542647036D+03 -.683053638092330D+03
0.112766244156D-06 0.000000000000D+00 0.000000000000D+00 0.515535892636D-06 0.000000000000D+00  7 -2 1 -24 -11 11 23 21 2 0.44954180D-01 0.34509720D-01 0.55632848D+05 0.55632848D+05 0.55632848D+05 0.11432397D+01  1  2 14  1  7  1       -2 0.989840862275D-05 0.100000000000D+01
  </mgrwgt>
  </event>
  <event>
  8     66 0.26562228E-05 0.60165260E+03 0.75467711E-02 0.85522386E-01
       -2 -1    0    0    0  501 0.00000000E+00 0.00000000E+00 0.33867555E+03 0.33867570E+03 0.32000000E+00 0.0000E+00 0.9000E+01
        1 -1    0    0  501    0 0.00000000E+00 0.00000000E+00 -.11431957E+04 0.11431958E+04 0.32000000E+00 0.0000E+00 0.9000E+01
       25  2    1    2    0    0 -.32072082E+03 -.47841345E+03 -.31499377E+03 0.72171057E+03 0.29983962E+03 0.0000E+00 0.0000E+00
       23  2    3    3    0    0 -.26197159E+03 -.23053198E+03 -.94527709E+02 0.37268732E+03 0.90477857E+02 0.0000E+00 0.0000E+00
      -24  1    1    2    0    0 0.32072082E+03 0.47841345E+03 -.48952642E+03 0.76016091E+03 0.80419002E+02 0.0000E+00 0.9000E+01
      -13  1    4    4    0    0 -.19383584E+03 -.19230273E+03 -.36726722E+02 0.27550234E+03 0.10565837E+00 0.0000E+00 0.9000E+01
       13  1    4    4    0    0 -.68135741E+02 -.38229248E+02 -.57800987E+02 0.97184978E+02 0.10565837E+00 0.0000E+00 0.9000E+01
       23  1    3    3    0    0 -.58749237E+02 -.24788147E+03 -.22046606E+03 0.34902325E+03 0.91188000E+02 0.0000E+00 0.9000E+01
#aMCatNLO 1  0  0  1  1 0.91729377D+03 0.00000000D+00  -5  7  0 0.00000000D+00 0.00000000D+00 0.00000000D+00 0.00000000D+00 0.00000000D+00
  <mgrwgt>
 0.1632469260D-02    3    2    0
 0.622231940885832D+03 0.000000000000000D+00 0.000000000000000D+00 0.622231940885832D+03
 0.622231940885832D+03 0.000000000000000D+00 0.000000000000000D+00 -.622231940885832D+03
 0.588708838626446D+03 0.320720822336426D+03 0.478413452729506D+03 -.914855348664879D+02
 0.304317433518119D+03 -.193836015075165D+03 -.192302944175038D+03 0.134373647953932D+03
 0.783575994425167D+02 -.681355699844225D+02 -.382290374838856D+02 -.599984886038078D+01
 0.273080010184582D+03 -.587492372768385D+02 -.247881471070582D+03 -.368882642270633D+02
 0.000000000000000D+00 0.000000000000000D+00 0.000000000000000D+00 -.000000000000000D+00
 0.977901211728198D+03 0.000000000000000D+00 0.000000000000000D+00 0.977901211728198D+03
 0.179962841921352D+04 0.000000000000000D+00 0.000000000000000D+00 -.179962841921352D+04
 0.403712997213907D+03 0.820385095346006D+01 0.384811722670699D+03 -.914855348664879D+02
 0.555593016743549D+03 -.464624705802412D+03 -.273406667343305D+03 0.134373647953932D+03
 0.153539872424434D+03 -.141160863223622D+03 -.601007897762261D+02 -.599984886038078D+01
 0.433154830334139D+03 -.281144962031476D+03 -.314491052312194D+03 -.368882642270633D+02
 0.123152891422569D+04 0.878726680104049D+03 0.263186786761026D+03 -.821727207485322D+03
0.358236262171D-03 0.000000000000D+00 0.000000000000D+00 0.131032004661D-04 0.000000000000D+00  7 -2 1 -24 -13 13 23 21 0 0.52103945D-01 0.17587628D+00 0.36198586D+06 0.36198586D+06 0.36198586D+06 0.10785680D+01  1  2  2  1  7  1       -2 0.161706131236D-02 0.100000000000D+01
-.198746428331D-04 0.000000000000D+00 -.137572157251D-05 0.131032004661D-04 0.000000000000D+00  7 -2 1 -24 -13 13 23 21 2 0.52103945D-01 0.17587628D+00 0.36198586D+06 0.36198586D+06 0.36198586D+06 0.10785680D+01  1  2  3  1  7  1       -2 -.104364155558D-03 0.100000000000D+01
0.228088634295D-04 0.000000000000D+00 0.000000000000D+00 0.131032004661D-04 0.000000000000D+00  7 -2 1 -24 -13 13 23 21 2 0.52103945D-01 0.17587628D+00 0.36198586D+06 0.36198586D+06 0.36198586D+06 0.10785680D+01  1  2 15  1  7  1       -2 0.119772103129D-03 0.100000000000D+01
  </mgrwgt>
  </event>
  <event>
  8     66 0.26562228E-05 0.51660786E+03 0.75467711E-02 0.93249111E-01
       -2 -1    0    0    0  501 0.00000000E+00 0.00000000E+00 0.73828292E+03 0.73828299E+03 0.32000000E+00 0.0000E+00 0.9000E+01
        1 -1    0    0  501    0 0.00000000E+00 0.00000000E+00 -.76373199E+03 0.76373206E+03 0.32000000E+00 0.0000E+00 0.9000E+01
       25  2    1    2    0    0 -.41138228E+03 0.29745554E+03 -.52169583E+03 0.78756195E+03 0.30061953E+03 0.0000E+00 0.0000E+00
       23  2    3    3    0    0 -.56820881E+02 0.23032461E+02 -.27032263E+02 0.11374513E+03 0.91913567E+02 0.0000E+00 0.0000E+00
      -24  1    1    2    0    0 0.41138228E+03 -.29745554E+03 0.49624675E+03 0.71445310E+03 0.80419002E+02 0.0000E+00 0.9000E+01
      -13  1    4    4    0    0 -.13916934E+02 0.25331026E+01 0.33737580E+02 0.36583236E+02 0.10565837E+00 0.0000E+00 0.9000E+01
       13  1    4    4    0    0 -.42903946E+02 0.20499358E+02 -.60769843E+02 0.77161890E+02 0.10565837E+00 0.0000E+00 0.9000E+01
       23  1    3    3    0    0 -.35456140E+03 0.27442308E+03 -.49466357E+03 0.67381682E+03 0.91188000E+02 0.0000E+00 0.9000E+01
#aMCatNLO 1  0  0  1  2 0.95586104D+02 0.00000000D+00  -5  7  0 0.00000000D+00 0.00000000D+00 0.00000000D+00 0.00000000D+00 0.00000000D+00
  <mgrwgt>
 0.1595494774D-02    4    2    0
 0.750899718623952D+03 0.000000000000000D+00 0.000000000000000D+00 0.750899718623952D+03
 0.750899718623952D+03 0.000000000000000D+00 0.000000000000000D+00 -.750899718623952D+03
 0.722964934401254D+03 0.411382279127717D+03 -.297455539857431D+03 0.508424923314395D+03
 0.371601441028550D+02 -.139168960284470D+02 0.253307885347495D+01 0.343624770090927D+02
 0.761432308706647D+02 -.429039846410882D+02 0.204993819381262D+02 -.594711278646659D+02
 0.665531127873131D+03 -.354561398458181D+03 0.274423079065829D+03 -.483316272458822D+03
 0.000000000000000D+00 -.000000000000000D+00 -.000000000000000D+00 -.000000000000000D+00
 0.767184472153462D+03 0.000000000000000D+00 0.000000000000000D+00 0.767184472153462D+03
 0.907117722721324D+03 0.000000000000000D+00 0.000000000000000D+00 -.907117722721324D+03
 0.737726130454285D+03 0.451668471242018D+03 -.274358008884981D+03 0.508424923314395D+03
 0.365470883932943D+02 -.118840337757797D+02 0.369859230558997D+01 0.343624770090927D+02
 0.745772653979194D+02 -.387470790404919D+02 0.228826862620223D+02 -.594711278646659D+02
 0.655987797126705D+03 -.318113605645473D+03 0.295319916895039D+03 -.483316272458822D+03
 0.169463913502583D+03 -.829237527802732D+02 -.475431865776707D+02 -.139933250567862D+03
0.114474482993D-02 0.000000000000D+00 0.000000000000D+00 0.176353427200D-04 0.000000000000D+00  7 -2 1 -24 -13 13 23 21 0 0.11358200D+00 0.11749724D+00 0.26688368D+06 0.26688368D+06 0.26688368D+06 0.10883303D+01  1  2  2  1  7  1       -2 0.183004151766D-02 0.100000000000D+01
-.527817717598D-04 0.000000000000D+00 -.439612156518D-05 0.176353427200D-04 0.000000000000D+00  7 -2 1 -24 -13 13 23 21 2 0.11358200D+00 0.11749724D+00 0.26688368D+06 0.26688368D+06 0.26688368D+06 0.10883303D+01  1  2  3  1  7  1       -2 -.999442219614D-04 0.100000000000D+01
0.730824687868D-04 0.000000000000D+00 0.000000000000D+00 0.176353427200D-04 0.000000000000D+00  7 -2 1 -24 -13 13 23 21 2 0.11358200D+00 0.11749724D+00 0.26688368D+06 0.26688368D+06 0.26688368D+06 0.10883303D+01  1  2 15  1  7  1       -2 0.138384336834D-03 0.100000000000D+01
-.144167714678D-03 0.000000000000D+00 0.000000000000D+00 0.176353427200D-04 0.000000000000D+00  7 -2 1 -24 -13 13 23 21 2 0.11358200D+00 0.11749724D+00 0.26688368D+06 0.26688368D+06 0.26688368D+06 0.10883303D+01  1  2  4  1  7  1       -2 -.272986858816D-03 0.100000000000D+01
  </mgrwgt>
  </event>
  <event>
  9     66 0.26562228E-05 0.18196610E+03 0.75467711E-02 0.10700031E+00
       21 -1    0    0  502  501 0.00000000E+00 0.00000000E+00 0.79445179E+02 0.79448719E+02 0.75000000E+00 0.0000E+00 0.9000E+01
        1 -1    0    0  501    0 0.00000000E+00 0.00000000E+00 -.84817707E+03 0.84817713E+03 0.32000000E+00 0.0000E+00 0.9000E+01
       25  2    1    2    0    0 0.29732716E+02 0.96505806E+02 -.55492883E+03 0.63932051E+03 0.30097727E+03 0.0000E+00 0.0000E+00
       23  2    3    3    0    0 0.36884536E+02 0.11315099E+03 -.11362169E+03 0.18832667E+03 0.91615670E+02 0.0000E+00 0.0000E+00
      -24  1    1    2    0    0 -.13276673E+02 -.88769902E+02 -.62206238E+02 0.13562152E+03 0.80419002E+02 0.0000E+00 0.9000E+01
      -11  1    4    4    0    0 -.20125612E+02 -.34020013E+01 -.14168873E+02 0.24846948E+02 0.51099893E-03 0.0000E+00 0.9000E+01
       11  1    4    4    0    0 0.57010149E+02 0.11655299E+03 -.99452820E+02 0.16347972E+03 0.51099893E-03 0.0000E+00 0.9000E+01
       23  1    3    3    0    0 -.71518205E+01 -.16645181E+02 -.44130713E+03 0.45099384E+03 0.91188000E+02 0.0000E+00 0.9000E+01
        2  1    1    2  502    0 -.16456043E+02 -.77359040E+01 -.15159682E+03 0.15268381E+03 0.32000000E+00 0.0000E+00 0.9000E+01
#aMCatNLO 2  0  0  1  1 0.18183662D+02 0.00000000D+00  -5  7  0 0.00000000D+00 0.00000000D+00 0.00000000D+00 0.00000000D+00 0.00000000D+00
  <mgrwgt>
 0.2046069262D-03    1    2    0
 0.234173456125885D+03 0.000000000000000D+00 0.000000000000000D+00 0.234173456125885D+03
 0.234173456125885D+03 0.000000000000000D+00 0.000000000000000D+00 -.234173456125885D+03
 0.144368125973048D+03 -.183115192580101D+02 -.911367583829237D+02 0.757213270916148D+02
 0.232057517134229D+02 -.209269708266622D+02 -.377871585708386D+01 0.928924706725387D+01
 0.135522794980459D+03 0.521830099402501D+02 0.114283774627746D+03 0.508190937515185D+02
 0.165250239584841D+03 -.129445198555778D+02 -.193683003877389D+02 -.135829667910387D+03
 0.000000000000000D+00 -.000000000000000D+00 -.000000000000000D+00 -.000000000000000D+00
 0.235963619471863D+03 0.000000000000000D+00 0.000000000000000D+00 0.235963619471863D+03
 0.285573571804455D+03 0.000000000000000D+00 0.000000000000000D+00 -.285573571804455D+03
 0.142328145111167D+03 -.132766728192072D+02 -.887699020994794D+02 0.757213270916148D+02
 0.224255212016937D+02 -.201256124725201D+02 -.340200127822916D+01 0.928924706725387D+01
 0.139346103269133D+03 0.570101487385889D+02 0.116552988581891D+03 0.508190937515185D+02
 0.164600001889045D+03 -.715182046907176D+01 -.166451812007484D+02 -.135829667910387D+03
 0.528374198052786D+02 -.164560429777898D+02 -.773590400343373D+01 -.496099523325919D+02
0.108011394029D-06 0.000000000000D+00 0.000000000000D+00 0.414923055032D-06 0.142809155049D-10  7 21 1 -24 -11 11 23 2 2 0.12222587D-01 0.13048879D+00 0.36448088D+05 0.36448088D+05 0.36448088D+05 0.11595713D+01  1  2  1  3  7  1       -2 0.204606926198D-03 0.100000000000D+01
  </mgrwgt>
  </event>
  <event>
  8     66 0.26562228E-05 0.18942311E+03 0.75467711E-02 0.99122343E-01
       -2 -1    0    0    0  501 0.00000000E+00 0.00000000E+00 0.15875317E+03 0.15875349E+03 0.32000000E+00 0.0000E+00 0.9000E+01
        1 -1    0    0  501    0 0.00000000E+00 0.00000000E+00 -.62283944E+03 0.62283952E+03 0.32000000E+00 0.0000E+00 0.9000E+01
       25  2    1    2    0    0 -.31702265E+02 0.19570455E+03 -.12518297E+03 0.38080883E+03 0.30006547E+03 0.0000E+00 0.0000E+00
       23  2    3    3    0    0 -.34571034E+02 -.29378490E+02 0.11999193E+02 0.10187371E+03 0.90421347E+02 0.0000E+00 0.0000E+00
      -24  1    1    2    0    0 0.31702265E+02 -.19570455E+03 -.33890330E+03 0.40078418E+03 0.80419002E+02 0.0000E+00 0.9000E+01
      -13  1    4    4    0    0 0.19868176E+02 -.39835477E+02 -.24637777E+01 0.44583528E+02 0.10565837E+00 0.0000E+00 0.9000E+01
       13  1    4    4    0    0 -.54439210E+02 0.10456987E+02 0.14462971E+02 0.57290181E+02 0.10565837E+00 0.0000E+00 0.9000E+01
       23  1    3    3    0    0 0.28687691E+01 0.22508304E+03 -.13718216E+03 0.27893512E+03 0.91188000E+02 0.0000E+00 0.9000E+01
#aMCatNLO 1  0  0  2  1 0.11774889D+03 0.00000000D+00  -5  7  0 0.00000000D+00 0.00000000D+00 0.00000000D+00 0.00000000D+00 0.00000000D+00
  <mgrwgt>
 0.8871524726D-03    9    2    0
 0.314448554410932D+03 0.000000000000000D+00 0.000000000000000D+00 0.314448554410932D+03
 0.314448554410932D+03 0.000000000000000D+00 0.000000000000000D+00 -.314448554410932D+03
 0.248005199328467D+03 0.317022646709340D+02 -.195704545927215D+03 -.125435481653872D+03
 0.535902358922336D+02 0.198682772828487D+02 -.398355454192099D+02 0.298377992142708D+02
 0.818730037779812D+02 -.544393110415347D+02 0.104570558036392D+02 0.602511422702668D+02
 0.245428669823181D+03 0.286876908775197D+01 0.225083035542786D+03 0.353465401693342D+02
 0.000000000000000D+00 -.000000000000000D+00 0.000000000000000D+00 -.000000000000000D+00
 0.356373440448076D+03 0.000000000000000D+00 0.000000000000000D+00 0.356373440448076D+03
 0.414979116122293D+03 0.000000000000000D+00 0.000000000000000D+00 -.414979116122293D+03
 0.273766387010819D+03 0.751885848851762D+02 -.217010219454783D+03 -.125435481653872D+03
 0.611435205729767D+02 0.294306011112388D+02 -.445205072336113D+02 0.298377992142708D+02
 0.732810973507169D+02 -.415082103436747D+02 0.412159654970876D+01 0.602511422702668D+02
 0.231634264576255D+03 0.426289094840322D+02 0.205602965338640D+03 0.353465401693342D+02
 0.131527287059601D+03 -.105739885136773D+03 0.518061648000447D+02 -.586056756742171D+02
0.137444922190D-04 0.000000000000D+00 0.000000000000D+00 0.259747148859D-05 0.000000000000D+00  7 -2 1 -24 -13 13 23 21 0 0.24423596D-01 0.95821483D-01 0.77496841D+05 0.77496841D+05 0.77496841D+05 0.11309224D+01  1  2  2  2  7  2        1 0.699145250536D-03 0.100000000000D+01
-.749804296894D-06 0.000000000000D+00 -.527824691289D-07 0.259747148859D-05 0.000000000000D+00  7 -2 1 -24 -13 13 23 21 2 0.24423596D-01 0.95821483D-01 0.77496841D+05 0.77496841D+05 0.77496841D+05 0.11309224D+01  1  2  3  2  7  2        1 -.487811748790D-04 0.100000000000D+01
0.881894280112D-06 0.000000000000D+00 0.000000000000D+00 0.259747148859D-05 0.000000000000D+00  7 -2 1 -24 -13 13 23 21 2 0.24423596D-01 0.95821483D-01 0.77496841D+05 0.77496841D+05 0.77496841D+05 0.11309224D+01  1  2 15  2  7  2        1 0.573747566946D-04 0.100000000000D+01
0.825481841741D-05 0.000000000000D+00 0.000000000000D+00 0.259747148859D-05 0.000000000000D+00  7 -2 1 -24 -13 13 23 21 2 0.24423596D-01 0.13123967D+00 0.11733736D+06 0.11733736D+06 0.11733736D+06 0.11160681D+01  1  2 12  2  7  2        1 0.322163834908D-03 0.100000000000D+01
-.104150420043D-04 0.000000000000D+00 0.000000000000D+00 0.259747148859D-05 0.000000000000D+00  7 -2 1 -24 -13 13 23 21 2 0.24423596D-01 0.95821483D-01 0.77496841D+05 0.77496841D+05 0.77496841D+05 0.11309224D+01  1  2  4  2  7  2        1 -.677587455138D-03 0.100000000000D+01
-.161721228344D-04 0.000000000000D+00 -.616069608898D-05 0.259747148859D-05 0.000000000000D+00  7 -2 1 -24 -13 13 23 21 2 0.24423596D-01 0.13801443D+00 0.77496841D+05 0.77496841D+05 0.77496841D+05 0.11309224D+01  1  2  5  2  7  2        1 -.601346528221D-03 0.100000000000D+01
0.176223793974D-04 0.000000000000D+00 0.577218569813D-05 0.259747148859D-05 0.000000000000D+00  7 -2 1 -24 -13 13 23 21 2 0.24423596D-01 0.95821483D-01 0.77496841D+05 0.77496841D+05 0.77496841D+05 0.11309224D+01  1  2  6  2  7  2        1 0.114648632280D-02 0.100000000000D+01
0.330176704426D-06 0.000000000000D+00 0.000000000000D+00 0.259747148859D-05 0.000000000000D+00  7 -2 21 -24 -13 13 23 -1 2 0.24423596D-01 0.13123967D+00 0.11733736D+06 0.11733736D+06 0.11733736D+06 0.11160681D+01  1  2 12  4  7  2        1 0.215367913858D-04 0.100000000000D+01
-.534933047417D-06 0.000000000000D+00 -.274258060461D-06 0.259747148859D-05 0.000000000000D+00  7 -2 21 -24 -13 13 23 -1 2 0.24423596D-01 0.13801443D+00 0.77496841D+05 0.77496841D+05 0.77496841D+05 0.11309224D+01  1  2  5  4  7  2        1 -.318393254534D-04 0.100000000000D+01
  </mgrwgt>
  </event>
  <event>
  8     66 0.26562228E-05 0.15370674E+03 0.75467711E-02 0.10346525E+00
       -2 -1    0    0    0  501 0.00000000E+00 0.00000000E+00 0.35351990E+03 0.35352004E+03 0.32000000E+00 0.0000E+00 0.9000E+01
        1 -1    0    0  501    0 0.00000000E+00 0.00000000E+00 -.28655840E+03 0.28655858E+03 0.32000000E+00 0.0000E+00 0.9000E+01
       25  2    1    2    0    0 0.98876275E+02 0.51832020E+02 0.25349715E+03 0.40829027E+03 0.29996177E+03 0.0000E+00 0.0000E+00
       23  2    3    3    0    0 0.12318764E+03 0.10830188E+03 0.83268718E+02 0.20562587E+03 0.91890299E+02 0.0000E+00 0.0000E+00
      -24  1    1    2    0    0 -.98876275E+02 -.51832020E+02 -.18653565E+03 0.23178836E+03 0.80419002E+02 0.0000E+00 0.9000E+01
      -13  1    4    4    0    0 0.85611300E+02 0.11332600E+03 0.88516229E+02 0.16735355E+03 0.10565837E+00 0.0000E+00 0.9000E+01
       13  1    4    4    0    0 0.37576341E+02 -.50241144E+01 -.52475117E+01 0.38272323E+02 0.10565837E+00 0.0000E+00 0.9000E+01
       23  1    3    3    0    0 -.24311366E+02 -.56469862E+02 0.17022843E+03 0.20266440E+03 0.91188000E+02 0.0000E+00 0.9000E+01
#aMCatNLO 1  0  0  2  1 0.63279658D+02 0.00000000D+00  -5  7  0 0.00000000D+00 0.00000000D+00 0.00000000D+00 0.00000000D+00 0.00000000D+00
  <mgrwgt>
 0.8224747195D-03    9    2    0
 0.318283209656474D+03 0.000000000000000D+00 0.000000000000000D+00 0.318283209656474D+03
 0.318283209656474D+03 0.000000000000000D+00 0.000000000000000D+00 -.318283209656474D+03
 0.252689231999866D+03 -.988762753249350D+02 -.518320199896739D+02 -.211947059182168D+03
 0.158965895696969D+03 0.856113633504036D+02 0.113326152896481D+03 0.714005149120662D+02
 0.390353232259845D+02 0.375762775742453D+02 -.502427054052289D+01 -.930250119892407D+01
 0.185875968390129D+03 -.243113655997139D+02 -.564698623662843D+02 0.149849045469026D+03
 0.000000000000000D+00 -.000000000000000D+00 0.000000000000000D+00 -.000000000000000D+00
 0.326656679658976D+03 0.000000000000000D+00 0.000000000000000D+00 0.326656679658976D+03
 0.466967462386157D+03 0.000000000000000D+00 0.000000000000000D+00 -.466967462386157D+03
 0.247594371544726D+03 -.768728079355509D+02 -.632832708572492D+02 -.211947059182168D+03
 0.162097935176902D+03 0.997323888697103D+02 0.105977156355735D+03 0.714005149120662D+02
 0.427717984190678D+02 0.411743174072175D+02 -.689679617613118D+01 -.930250119892407D+01
 0.187239827420950D+03 -.790099118922946D+01 -.650103033286011D+02 0.149849045469026D+03
 0.153920209483487D+03 -.561329071521474D+02 0.292132140062469D+02 -.140310782727180D+03
0.264049255923D-04 0.000000000000D+00 0.000000000000D+00 0.447661371236D-05 0.000000000000D+00  7 -2 1 -24 -13 13 23 21 0 0.54387702D-01 0.44085933D-01 0.45690042D+05 0.45690042D+05 0.45690042D+05 0.11507549D+01  1  2  2  2  7  2        1 0.894479114024D-03 0.100000000000D+01
-.118423749737D-05 0.000000000000D+00 -.101401866851D-06 0.447661371236D-05 0.000000000000D+00  7 -2 1 -24 -13 13 23 21 2 0.54387702D-01 0.44085933D-01 0.45690042D+05 0.45690042D+05 0.45690042D+05 0.11507549D+01  1  2  3  2  7  2        1 -.531238701158D-04 0.100000000000D+01
0.166148549509D-05 0.000000000000D+00 0.000000000000D+00 0.447661371236D-05 0.000000000000D+00  7 -2 1 -24 -13 13 23 21 2 0.54387702D-01 0.44085933D-01 0.45690042D+05 0.45690042D+05 0.45690042D+05 0.11507549D+01  1  2 15  2  7  2        1 0.745328026150D-04 0.100000000000D+01
0.897404365781D-04 0.000000000000D+00 0.000000000000D+00 0.447661371236D-05 0.000000000000D+00  7 -2 1 -24 -13 13 23 21 2 0.54387702D-01 0.65047344D-01 0.60223795D+05 0.60223795D+05 0.60223795D+05 0.11402555D+01  1  2 12  2  7  2        1 0.236290176861D-02 0.100000000000D+01
-.922575628041D-04 0.000000000000D+00 0.000000000000D+00 0.447661371236D-05 0.000000000000D+00  7 -2 1 -24 -13 13 23 21 2 0.54387702D-01 0.44085933D-01 0.45690042D+05 0.45690042D+05 0.45690042D+05 0.11507549D+01  1  2  4  2  7  2        1 -.413859449183D-02 0.100000000000D+01
-.982045311881D-04 0.000000000000D+00 -.117925151212D-04 0.447661371236D-05 0.000000000000D+00  7 -2 1 -24 -13 13 23 21 2 0.54387702D-01 0.65634769D-01 0.45690042D+05 0.45690042D+05 0.45690042D+05 0.11507549D+01  1  2  5  2  7  2        1 -.261509659362D-02 0.100000000000D+01
0.960653176267D-04 0.000000000000D+00 0.109165832085D-04 0.447661371236D-05 0.000000000000D+00  7 -2 1 -24 -13 13 23 21 2 0.54387702D-01 0.44085933D-01 0.45690042D+05 0.45690042D+05 0.45690042D+05 0.11507549D+01  1  2  6  2  7  2        1 0.430940708058D-02 0.100000000000D+01
0.418511735970D-05 0.000000000000D+00 0.000000000000D+00 0.447661371236D-05 0.000000000000D+00  7 -2 21 -24 -13 13 23 -1 2 0.54387702D-01 0.65047344D-01 0.60223795D+05 0.60223795D+05 0.60223795D+05 0.11402555D+01  1  2 12  4  7  2        1 0.397078423791D-03 0.100000000000D+01
-.425732972992D-05 0.000000000000D+00 -.559224555656D-06 0.447661371236D-05 0.000000000000D+00  7 -2 21 -24 -13 13 23 -1 2 0.54387702D-01 0.65634769D-01 0.45690042D+05 0.45690042D+05 0.45690042D+05 0.11507549D+01  1  2  5  4  7  2        1 -.409109514578D-03 0.100000000000D+01
  </mgrwgt>
  </event>
  <event>
  8     66 0.26562228E-05 0.14365906E+03 0.75467711E-02 0.10582480E+00
       -2 -1    0    0    0  501 0.00000000E+00 0.00000000E+00 0.25449957E+03 0.25449978E+03 0.32000000E+00 0.0000E+00 0.9000E+01
        1 -1    0    0  501    0 0.00000000E+00 0.00000000E+00 -.22425564E+03 0.22425587E+03 0.32000000E+00 0.0000E+00 0.9000E+01
       25  2    1    2    0    0 -.75138481E+02 0.10292671E+03 0.38013182E+02 0.32786735E+03 0.29968700E+03 0.0000E+00 0.0000E+00
       23  2    3    3    0    0 0.96616250E+01 0.37072277E+02 0.12723240E+03 0.16112448E+03 0.91133501E+02 0.0000E+00 0.0000E+00
      -24  1    1    2    0    0 0.75138481E+02 -.10292671E+03 -.77692472E+01 0.15088829E+03 0.80419002E+02 0.0000E+00 0.9000E+01
      -11  1    4    4    0    0 -.27863867E+02 -.16800843E+02 0.51253340E+02 0.60708882E+02 0.51099893E-03 0.0000E+00 0.9000E+01
       11  1    4    4    0    0 0.37525492E+02 0.53873120E+02 0.75979057E+02 0.10041560E+03 0.51099893E-03 0.0000E+00 0.9000E+01
       23  1    3    3    0    0 -.84800106E+02 0.65854436E+02 -.89219215E+02 0.16674287E+03 0.91188000E+02 0.0000E+00 0.9000E+01
#aMCatNLO 1  0  0  1  2 0.22408254D+02 0.00000000D+00  -5  7  0 0.00000000D+00 0.00000000D+00 0.00000000D+00 0.00000000D+00 0.00000000D+00
  <mgrwgt>
 0.5150953557D-03    9    2    0
 0.238899701437724D+03 0.000000000000000D+00 0.000000000000000D+00 0.238899701437724D+03
 0.238899701437724D+03 0.000000000000000D+00 0.000000000000000D+00 -.238899701437724D+03
 0.151682051579003D+03 0.751384806431326D+02 -.102926712674336D+03 -.173357826919101D+02
 0.575861266461305D+02 -.278638668965441D+02 -.168008433643403D+02 0.475131409814460D+02
 0.958072134663584D+02 0.375254919098748D+02 0.538731202128606D+02 0.697749706387682D+02
 0.172724011183957D+03 -.848001056564634D+02 0.658544358258153D+02 -.999523289283042D+02
 0.000000000000000D+00 0.000000000000000D+00 -.000000000000000D+00 0.000000000000000D+00
 0.264341505171136D+03 0.000000000000000D+00 0.000000000000000D+00 0.264341505171136D+03
 0.244147846144380D+03 0.000000000000000D+00 0.000000000000000D+00 -.244147846144380D+03
 0.146396799663654D+03 0.690693406901967D+02 -.994670991457479D+02 -.173357826919101D+02
 0.583945022109177D+02 -.302253315406423D+02 -.154547292372387D+02 0.475131409814460D+02
 0.956348078935985D+02 0.336275688748700D+02 0.560950672053291D+02 0.697749706387682D+02
 0.177898465432897D+03 -.919390786911534D+02 0.699238901278353D+02 -.999523289283042D+02
 0.301647761144491D+02 0.194675006667290D+02 -.110971289501779D+02 0.201936590267555D+02
0.477297095132D-05 0.000000000000D+00 0.000000000000D+00 0.100071009307D-05 0.000000000000D+00  7 -2 1 -24 -11 11 23 21 0 0.39153814D-01 0.34500901D-01 0.37975302D+05 0.37975302D+05 0.37975302D+05 0.11579545D+01  1  2  2  1  7  1       -2 0.414705598079D-03 0.100000000000D+01
-.251787643697D-06 0.000000000000D+00 -.183294652052D-07 0.100071009307D-05 0.000000000000D+00  7 -2 1 -24 -11 11 23 21 2 0.39153814D-01 0.34500901D-01 0.37975302D+05 0.37975302D+05 0.37975302D+05 0.11579545D+01  1  2  3  1  7  1       -2 -.293338100778D-04 0.100000000000D+01
0.309981175999D-06 0.000000000000D+00 0.000000000000D+00 0.100071009307D-05 0.000000000000D+00  7 -2 1 -24 -11 11 23 21 2 0.39153814D-01 0.34500901D-01 0.37975302D+05 0.37975302D+05 0.37975302D+05 0.11579545D+01  1  2 15  1  7  1       -2 0.361134836125D-04 0.100000000000D+01
0.163080859937D-04 0.000000000000D+00 0.000000000000D+00 0.100071009307D-05 0.000000000000D+00  7 -2 1 -24 -11 11 23 21 2 0.43723392D-01 0.34500901D-01 0.42908886D+05 0.42908886D+05 0.42908886D+05 0.11531841D+01  1  2 12  1  7  1       -2 0.153572794916D-02 0.100000000000D+01
-.165181165356D-04 0.000000000000D+00 0.000000000000D+00 0.100071009307D-05 0.000000000000D+00  7 -2 1 -24 -11 11 23 21 2 0.39153814D-01 0.34500901D-01 0.37975302D+05 0.37975302D+05 0.37975302D+05 0.11579545D+01  1  2  4  1  7  1       -2 -.192439663116D-02 0.100000000000D+01
-.318240341071D-04 0.000000000000D+00 -.531640528203D-05 0.100071009307D-05 0.000000000000D+00  7 -2 1 -24 -11 11 23 21 2 0.44088172D-01 0.34500901D-01 0.37975302D+05 0.37975302D+05 0.37975302D+05 0.11579545D+01  1  2  5  1  7  1       -2 -.297493943595D-02 0.100000000000D+01
0.322647456599D-04 0.000000000000D+00 0.527917458515D-05 0.100071009307D-05 0.000000000000D+00  7 -2 1 -24 -11 11 23 21 2 0.39153814D-01 0.34500901D-01 0.37975302D+05 0.37975302D+05 0.37975302D+05 0.11579545D+01  1  2  6  1  7  1       -2 0.375891329495D-02 0.100000000000D+01
0.288311328893D-06 0.000000000000D+00 0.000000000000D+00 0.100071009307D-05 0.000000000000D+00  7 21 1 -24 -11 11 23 2 2 0.43723392D-01 0.34500901D-01 0.42908886D+05 0.42908886D+05 0.42908886D+05 0.11531841D+01  1  2 12  3  7  1       -2 0.307385110459D-03 0.100000000000D+01
-.574187419940D-06 0.000000000000D+00 -.999473369434D-07 0.100071009307D-05 0.000000000000D+00  7 21 1 -24 -11 11 23 2 2 0.44088172D-01 0.34500901D-01 0.37975302D+05 0.37975302D+05 0.37975302D+05 0.11579545D+01  1  2  5  3  7  1       -2 -.609080203408D-03 0.100000000000D+01
  </mgrwgt>
  </event>
  <event>
  8     66 0.26562228E-05 0.13162763E+04 0.75467711E-02 0.79183784E-01
       -2 -1    0    0    0  501 0.00000000E+00 0.00000000E+00 0.11919736E+04 0.11919736E+04 0.32000000E+00 0.0000E+00 0.9000E+01
        1 -1    0    0  501    0 0.00000000E+00 0.00000000E+00 -.19150591E+04 0.19150591E+04 0.32000000E+00 0.0000E+00 0.9000E+01
       25  2    1    2    0    0 0.93435124E+03 0.91163932E+03 -.11138496E+04 0.17420191E+04 0.29978490E+03 0.0000E+00 0.0000E+00
       23  2    3    3    0    0 0.15842346E+03 0.13430618E+03 -.11360778E+03 0.25369461E+03 0.91203524E+02 0.0000E+00 0.0000E+00
      -24  1    1    2    0    0 -.93435124E+03 -.91163932E+03 0.39076415E+03 0.13650137E+04 0.80419002E+02 0.0000E+00 0.9000E+01
      -13  1    4    4    0    0 0.10166023E+03 0.13084630E+03 -.10503505E+03 0.19618341E+03 0.10565837E+00 0.0000E+00 0.9000E+01
       13  1    4    4    0    0 0.56763228E+02 0.34598772E+01 -.85727305E+01 0.57511196E+02 0.10565837E+00 0.0000E+00 0.9000E+01
       23  1    3    3    0    0 0.77592777E+03 0.77733314E+03 -.10002418E+04 0.14883245E+04 0.91188000E+02 0.0000E+00 0.9000E+01
#aMCatNLO 1  0  0  1  2 0.18946914D+04 0.00000000D+00  -5  7  0 0.00000000D+00 0.00000000D+00 0.00000000D+00 0.00000000D+00 0.00000000D+00
  <mgrwgt>
 0.1094889823D-02    5    2    0
 0.151086066522343D+04 0.000000000000000D+00 0.000000000000000D+00 0.151086066522343D+04
 0.151086066522343D+04 0.000000000000000D+00 0.000000000000000D+00 -.151086066522343D+04
 0.149705996040571D+04 -.934351235790193D+03 -.911639321644437D+03 0.728438620958956D+03
 0.176587906407522D+03 0.101660293219498D+03 0.130846471596150D+03 -.610546832172249D+02
 0.570833138390357D+02 0.567631677343281D+02 0.345970619814223D+01 0.494751863391524D+01
 0.129099014979459D+04 0.775927774836368D+03 0.777333143850145D+03 -.672331456375646D+03
 0.000000000000000D+00 -.000000000000000D+00 0.000000000000000D+00 0.000000000000000D+00
 0.294707738638378D+04 0.000000000000000D+00 0.000000000000000D+00 0.294707738638378D+04
 0.255446684739423D+04 0.000000000000000D+00 0.000000000000000D+00 -.255446684739423D+04
 0.212857591039710D+04 -.610746137131786D+03 -.190282277730809D+04 0.728438620958956D+03
 0.150221582190476D+03 0.130829581192380D+03 0.415026516993903D+02 -.610546832172249D+02
 0.763608084572761D+02 0.686736849235572D+02 -.330215100598971D+02 0.494751863391524D+01
 0.121144446103261D+04 0.999281864430488D+03 0.932126547777485D+02 -.672331456375646D+03
 0.193494147170055D+04 -.588038993414639D+03 0.180112898089085D+04 0.392610538989556D+03
0.194876642469D-01 0.000000000000D+00 0.000000000000D+00 0.133992839576D-03 0.000000000000D+00  7 -2 1 -24 -13 13 23 21 0 0.18338056D+00 0.29462448D+00 0.17325832D+07 0.17325832D+07 0.17325832D+07 0.10323350D+01  1  2  2  1  7  1       -2 0.108152422190D-02 0.100000000000D+01
-.105762581382D-02 0.000000000000D+00 -.748377619278D-04 0.133992839576D-03 0.000000000000D+00  7 -2 1 -24 -13 13 23 21 2 0.18338056D+00 0.29462448D+00 0.17325832D+07 0.17325832D+07 0.17325832D+07 0.10323350D+01  1  2  3  1  7  1       -2 -.625532452949D-04 0.100000000000D+01
0.125456755902D-02 0.000000000000D+00 0.000000000000D+00 0.133992839576D-03 0.000000000000D+00  7 -2 1 -24 -13 13 23 21 2 0.18338056D+00 0.29462448D+00 0.17325832D+07 0.17325832D+07 0.17325832D+07 0.10323350D+01  1  2 15  1  7  1       -2 0.742013585835D-04 0.100000000000D+01
0.486106571024D-03 0.000000000000D+00 -.496576059779D-02 0.133992839576D-03 0.000000000000D+00  7 -2 1 -24 -13 13 23 21 2 0.47140165D+00 0.29462448D+00 0.17325832D+07 0.17325832D+07 0.17325832D+07 0.10323350D+01  1  2  5  1  7  1       -2 0.236695484126D-06 0.100000000000D+01
0.352408838691D-03 0.000000000000D+00 -.518453016727D-03 0.133992839576D-03 0.000000000000D+00  7 21 1 -24 -13 13 23 2 2 0.47140165D+00 0.29462448D+00 0.17325832D+07 0.17325832D+07 0.17325832D+07 0.10323350D+01  1  2  5  3  7  1       -2 0.148079201845D-05 0.100000000000D+01
  </mgrwgt>
  </event>
  <event>
  9     66 0.26562228E-05 0.41089638E+03 0.75467711E-02 0.96490735E-01
       -2 -1    0    0    0  501 0.00000000E+00 0.00000000E+00 0.23933916E+03 0.23933937E+03 0.32000000E+00 0.0000E+00 0.9000E+01
        1 -1    0    0  502    0 0.00000000E+00 0.00000000E+00 -.88431037E+03 0.88431043E+03 0.32000000E+00 0.0000E+00 0.9000E+01
       25  2    1    2    0    0 0.37747337E+03 -.13403821E+03 -.33963753E+03 0.60416093E+03 0.29867105E+03 0.0000E+00 0.0000E+00
       23  2    3    3    0    0 0.10669442E+03 -.83024333E+02 -.92366890E+01 0.16438415E+03 0.93059616E+02 0.0000E+00 0.0000E+00
      -24  1    1    2    0    0 -.35183865E+03 0.14749911E+03 -.29430386E+03 0.48849606E+03 0.80419002E+02 0.0000E+00 0.9000E+01
      -11  1    4    4    0    0 -.25310973E+01 0.22969867E+01 0.22036359E+02 0.22299859E+02 0.51099893E-03 0.0000E+00 0.9000E+01
       11  1    4    4    0    0 0.10922552E+03 -.85321319E+02 -.31273048E+02 0.14208429E+03 0.51099893E-03 0.0000E+00 0.9000E+01
       23  1    3    3    0    0 0.27077894E+03 -.51013880E+02 -.33040084E+03 0.43977678E+03 0.91188000E+02 0.0000E+00 0.9000E+01
       21  1    1    2  502  501 -.25634718E+02 -.13460899E+02 -.11029823E+02 0.30992807E+02 0.75000000E+00 0.0000E+00 0.9000E+01
#aMCatNLO 2  0  0  2  1 0.28954008D+02 0.00000000D+00  -5  7  0 0.00000000D+00 0.00000000D+00 0.00000000D+00 0.00000000D+00 0.00000000D+00
  <mgrwgt>
 0.6394418643D-03    2    2    0
 0.444741295292122D+03 0.000000000000000D+00 0.000000000000000D+00 0.444741295292122D+03
 0.444741295292122D+03 0.000000000000000D+00 0.000000000000000D+00 -.444741295292122D+03
 0.398232695452782D+03 -.363195702049251D+03 0.141535474542613D+03 -.133661973712302D+02
 0.431372366344793D+02 -.377309627511889D+01 0.164480781544457D+01 0.429404184447240D+02
 0.150393780421036D+03 0.104866762149714D+03 -.876101218666062D+02 0.628149499091151D+02
 0.297718878075947D+03 0.262102036174656D+03 -.555701604914518D+02 -.923891709826089D+02
 0.000000000000000D+00 -.000000000000000D+00 -.000000000000000D+00 0.000000000000000D+00
 0.464337226579689D+03 0.000000000000000D+00 0.000000000000000D+00 0.464337226579689D+03
 0.455802251895427D+03 0.000000000000000D+00 0.000000000000000D+00 -.455802251895427D+03
 0.390118306457600D+03 -.351838647309790D+03 0.147499112221146D+03 -.133661973712302D+02
 0.430762363479550D+02 -.253109730566507D+01 0.229698674923072D+01 0.429404184447240D+02
 0.152169838690343D+03 0.109225520591183D+03 -.853213192967951D+02 0.628149499091151D+02
 0.304589332761753D+03 0.270778941898039D+03 -.510138804441928D+02 -.923891709826089D+02
 0.301857642174646D+02 -.256347178737671D+02 -.134608992293885D+02 0.853497468426129D+01
-.107505058502D-04 0.000000000000D+00 0.000000000000D+00 0.295165235339D-06 0.000000000000D+00  7 -2 1 -24 -11 11 23 21 2 0.35267136D-01 0.13274495D+00 0.16883583D+06 0.16883583D+06 0.16883583D+06 0.11035205D+01  1  2  8  2  7  2        1 -.209424191673D-03 0.100000000000D+01
0.493923761732D-04 0.000000000000D+00 0.000000000000D+00 0.295165235339D-06 0.228060226998D-08  7 -2 1 -24 -11 11 23 21 2 0.36821056D-01 0.13604639D+00 0.18109305D+06 0.18109305D+06 0.18109305D+06 0.11011532D+01  1  2  1  2  7  2        1 0.848866055928D-03 0.100000000000D+01
  </mgrwgt>
  </event>
  <event>
  8     66 0.26562228E-05 0.22220983E+03 0.75467711E-02 0.98327076E-01
       -4 -1    0    0    0  501 0.00000000E+00 0.00000000E+00 0.20797967E+03 0.20798544E+03 0.15500000E+01 0.0000E+00 0.9000E+01
        3 -1    0    0  501    0 0.00000000E+00 0.00000000E+00 -.28587810E+03 0.28587854E+03 0.50000000E+00 0.0000E+00 0.9000E+01
       25  2    1    2    0    0 0.10468263E+03 0.73512042E+02 -.92218745E+02 0.34209191E+03 0.30357882E+03 0.0000E+00 0.0000E+00
       23  2    3    3    0    0 -.72103136E+00 -.53243109E+02 0.38574149E+02 0.11274755E+03 0.91589831E+02 0.0000E+00 0.0000E+00
      -24  1    1    2    0    0 -.10468263E+03 -.73512042E+02 0.14320312E+02 0.15177207E+03 0.80419002E+02 0.0000E+00 0.9000E+01
      -11  1    4    4    0    0 -.28364711E+02 0.14434097E+02 0.19003881E+02 0.37068146E+02 0.51099893E-03 0.0000E+00 0.9000E+01
       11  1    4    4    0    0 0.27643679E+02 -.67677206E+02 0.19570268E+02 0.75679407E+02 0.51099893E-03 0.0000E+00 0.9000E+01
       23  1    3    3    0    0 0.10540366E+03 0.12675515E+03 -.13079289E+03 0.22934435E+03 0.91188000E+02 0.0000E+00 0.9000E+01
#aMCatNLO 1  0  0  1  2 0.23110870D+03 0.00000000D+00  -5  7  0 0.00000000D+00 0.00000000D+00 0.00000000D+00 0.00000000D+00 0.00000000D+00
  <mgrwgt>
 0.1040602465D-03    5    2    0
 0.243840861587919D+03 0.000000000000000D+00 0.000000000000000D+00 0.243840861587919D+03
 0.243840861587919D+03 0.000000000000000D+00 0.000000000000000D+00 -.243840861587919D+03
 0.155983472199920D+03 -.104682633362039D+03 -.735120426593090D+02 0.387447222420999D+02
 0.405735824211171D+02 -.283647103614776D+02 0.144340973279179D+02 0.251657630705063D+02
 0.797647812117295D+02 0.276436794641592D+02 -.676772058995705D+02 0.319067878211681D+02
 0.211359887343071D+03 0.105403664259358D+03 0.126755151230962D+03 -.958172731337743D+02
 0.000000000000000D+00 -.000000000000000D+00 -.000000000000000D+00 0.000000000000000D+00
 0.116558009047368D+04 0.000000000000000D+00 0.000000000000000D+00 0.116558009047368D+04
 0.284742391512845D+03 0.000000000000000D+00 0.000000000000000D+00 -.284742391512845D+03
 0.119652419591820D+03 -.430124540398061D+02 -.670690752557571D+02 0.387447222420999D+02
 0.322406193987747D+02 -.120734180546294D+02 0.161361235981240D+02 0.251657630705063D+02
 0.979647617699484D+02 0.674085036867611D+02 -.635227917387895D+02 0.319067878211681D+02
 0.289813111194345D+03 0.217535028902597D+03 0.138470030857584D+03 -.958172731337743D+02
 0.910651570031635D+03 -.229857660494922D+03 -.240142874611613D+02 0.880837698960833D+03
0.904991890181D-05 0.000000000000D+00 0.000000000000D+00 0.311007873736D-07 0.000000000000D+00  7 -4 3 -24 -11 11 23 21 0 0.31997350D-01 0.43981724D-01 0.49377207D+05 0.49377207D+05 0.49377207D+05 0.11477745D+01  1  2  2  1  7  1       -4 0.145916422265D-03 0.100000000000D+01
-.497498225803D-06 0.000000000000D+00 -.347540714813D-07 0.311007873736D-07 0.000000000000D+00  7 -4 3 -24 -11 11 23 21 2 0.31997350D-01 0.43981724D-01 0.49377207D+05 0.49377207D+05 0.49377207D+05 0.11477745D+01  1  2  3  1  7  1       -4 -.105673031617D-04 0.100000000000D+01
0.584499214230D-06 0.000000000000D+00 0.000000000000D+00 0.311007873736D-07 0.000000000000D+00  7 -4 3 -24 -11 11 23 21 2 0.31997350D-01 0.43981724D-01 0.49377207D+05 0.49377207D+05 0.49377207D+05 0.11477745D+01  1  2 15  1  7  1       -4 0.124152812496D-04 0.100000000000D+01
-.191571498688D-04 0.000000000000D+00 -.372890018945D-05 0.311007873736D-07 0.000000000000D+00  7 -4 3 -24 -11 11 23 21 2 0.16391253D+00 0.43981724D-01 0.49377207D+05 0.49377207D+05 0.49377207D+05 0.11477745D+01  1  2  5  1  7  1       -4 -.648069247479D-05 0.100000000000D+01
-.394263460593D-05 0.000000000000D+00 -.743440547299D-06 0.311007873736D-07 0.000000000000D+00  7 21 3 -24 -11 11 23 4 2 0.16391253D+00 0.43981724D-01 0.49377207D+05 0.49377207D+05 0.49377207D+05 0.11477745D+01  1  2  5  3  7  1       -4 -.372234614154D-04 0.100000000000D+01
  </mgrwgt>
  </event>
  <event>
  8     66 0.26562228E-05 0.21291242E+03 0.75467711E-02 0.97282654E-01
       -2 -1    0    0    0  501 0.00000000E+00 0.00000000E+00 0.70040658E+03 0.70040665E+03 0.32000000E+00 0.0000E+00 0.9000E+01
        1 -1    0    0  501    0 0.00000000E+00 0.00000000E+00 -.20465583E+03 0.20465608E+03 0.32000000E+00 0.0000E+00 0.9000E+01
       25  2    1    2    0    0 -.13111596E+03 0.94528174E+02 -.37613790E+02 0.34197134E+03 0.29900272E+03 0.0000E+00 0.0000E+00
       23  2    3    3    0    0 -.67369784E+02 0.11723057E+02 0.97193697E+02 0.14855838E+03 0.89145157E+02 0.0000E+00 0.0000E+00
      -24  1    1    2    0    0 0.13111596E+03 -.94528174E+02 0.53336454E+03 0.56309140E+03 0.80419002E+02 0.0000E+00 0.9000E+01
      -13  1    4    4    0    0 0.19044401E+02 -.17943495E+01 0.19208299E+01 0.19225235E+02 0.10565837E+00 0.0000E+00 0.9000E+01
       13  1    4    4    0    0 -.86414185E+02 0.13517407E+02 0.95272867E+02 0.12933314E+03 0.10565837E+00 0.0000E+00 0.9000E+01
       23  1    3    3    0    0 -.63746178E+02 0.82805116E+02 -.13480749E+03 0.19341296E+03 0.91188000E+02 0.0000E+00 0.9000E+01
#aMCatNLO 1  0  0  1  2 0.29225664D+03 0.00000000D+00  -5  7  0 0.00000000D+00 0.00000000D+00 0.00000000D+00 0.00000000D+00 0.00000000D+00
  <mgrwgt>
 0.1114548087D-02    6    2    0
 0.378605910968312D+03 0.000000000000000D+00 0.000000000000000D+00 0.378605910968312D+03
 0.378605910968312D+03 0.000000000000000D+00 0.000000000000000D+00 -.378605910968312D+03
 0.323842231950796D+03 0.131115961729902D+03 -.945281735889988D+02 0.268848664155270D+03
 0.217214191502553D+02 0.190445488487634D+02 -.179437104260830D+01 -.102910369550202D+02
 0.922107731436886D+02 -.864143325666684D+02 0.135174283834747D+02 0.292004955559263D+02
 0.319437397691884D+03 -.637461780119971D+02 0.828051162481324D+02 -.287758122756176D+03
 0.000000000000000D+00 0.000000000000000D+00 0.000000000000000D+00 0.000000000000000D+00
 0.564556003278856D+03 0.000000000000000D+00 0.000000000000000D+00 0.564556003278856D+03
 0.540355778695982D+03 0.000000000000000D+00 0.000000000000000D+00 -.540355778695982D+03
 0.312851175242751D+03 0.203017370298073D+02 -.136809638373542D+03 0.268848664155270D+03
 0.166624722913038D+02 0.123639689605285D+02 -.434336422510980D+01 -.102910369550202D+02
 0.128142394051495D+03 -.124766018177136D+03 -.111576017111236D+01 0.292004955559263D+02
 0.353998864995207D+03 -.180955366125851D+03 0.380836360133250D+02 -.287758122756176D+03
 0.293256875394081D+03 0.273055678312652D+03 0.104185126756439D+03 0.242002245828742D+02
0.730175106759D-04 0.000000000000D+00 0.000000000000D+00 0.610005311625D-06 0.000000000000D+00  7 -2 1 -24 -13 13 23 21 0 0.10775488D+00 0.31485537D-01 0.45331697D+05 0.45331697D+05 0.45331697D+05 0.11510586D+01  1  2  2  1  7  1       -2 0.854157797890D-03 0.100000000000D+01
-.242234733217D-05 0.000000000000D+00 -.280406466947D-06 0.610005311625D-06 0.000000000000D+00  7 -2 1 -24 -13 13 23 21 2 0.10775488D+00 0.31485537D-01 0.45331697D+05 0.45331697D+05 0.45331697D+05 0.11510586D+01  1  2  3  1  7  1       -2 -.375441567712D-04 0.100000000000D+01
0.454001048416D-05 0.000000000000D+00 0.000000000000D+00 0.610005311625D-06 0.000000000000D+00  7 -2 1 -24 -13 13 23 21 2 0.10775488D+00 0.31485537D-01 0.45331697D+05 0.45331697D+05 0.45331697D+05 0.11510586D+01  1  2 15  1  7  1       -2 0.703659888476D-04 0.100000000000D+01
0.303318827905D-05 0.000000000000D+00 -.213759006325D-04 0.610005311625D-06 0.000000000000D+00  7 -2 1 -24 -13 13 23 21 2 0.20692671D+00 0.31485537D-01 0.45331697D+05 0.45331697D+05 0.45331697D+05 0.11510586D+01  1  2  5  1  7  1       -2 0.793244480789D-05 0.100000000000D+01
0.121070475579D-04 0.000000000000D+00 0.175134364173D-04 0.610005311625D-06 0.000000000000D+00  7 -2 1 -24 -13 13 23 21 2 0.10775488D+00 0.31485537D-01 0.45331697D+05 0.45331697D+05 0.45331697D+05 0.11510586D+01  1  2  6  1  7  1       -2 0.187648107071D-03 0.100000000000D+01
0.144977894779D-05 0.000000000000D+00 -.151370254934D-05 0.610005311625D-06 0.000000000000D+00  7 21 1 -24 -13 13 23 2 2 0.20692671D+00 0.31485537D-01 0.45331697D+05 0.45331697D+05 0.45331697D+05 0.11510586D+01  1  2  5  3  7  1       -2 0.319879050605D-04 0.100000000000D+01
  </mgrwgt>
  </event>
  <event>
  8     66 0.26562228E-05 0.39730190E+02 0.75467711E-02 0.10620044E+00
       -2 -1    0    0    0  501 0.00000000E+00 0.00000000E+00 0.32572527E+02 0.32574098E+02 0.32000000E+00 0.0000E+00 0.9000E+01
        1 -1    0    0  501    0 0.00000000E+00 0.00000000E+00 -.15928449E+04 0.15928450E+04 0.32000000E+00 0.0000E+00 0.9000E+01
       25  2    1    2    0    0 -.14451021E+02 0.10135717E+03 -.95184407E+03 0.10032178E+04 0.29992797E+03 0.0000E+00 0.0000E+00
       23  2    3    3    0    0 0.74207892E+02 0.64385659E+02 -.74955973E+03 0.76142971E+03 0.91011446E+02 0.0000E+00 0.0000E+00
      -24  1    1    2    0    0 0.14451021E+02 -.10135717E+03 -.60842835E+03 0.62220124E+03 0.80419002E+02 0.0000E+00 0.9000E+01
      -11  1    4    4    0    0 0.82947655E+02 0.21097650E+02 -.57677283E+03 0.58308861E+03 0.51099893E-03 0.0000E+00 0.9000E+01
       11  1    4    4    0    0 -.87397629E+01 0.43288009E+02 -.17278690E+03 0.17834110E+03 0.51099893E-03 0.0000E+00 0.9000E+01
       23  1    3    3    0    0 -.88658912E+02 0.36971511E+02 -.20228433E+03 0.24178813E+03 0.91188000E+02 0.0000E+00 0.9000E+01
#aMCatNLO 1  0  0  1  2 0.11272513D+02 0.00000000D+00  -5  7  0 0.00000000D+00 0.00000000D+00 0.00000000D+00 0.00000000D+00 0.00000000D+00
  <mgrwgt>
 0.1298956499D-02    6    2    0
 0.227781227855572D+03 0.000000000000000D+00 0.000000000000000D+00 0.227781227855572D+03
 0.227781227855572D+03 0.000000000000000D+00 0.000000000000000D+00 -.227781227855572D+03
 0.136147717496650D+03 0.144510207094789D+02 -.101357170464043D+03 -.398356250252747D+02
 0.105014368354494D+03 0.829476546559739D+02 0.210976500168890D+02 -.608489384601866D+02
 0.445260395672117D+02 -.873976287049164D+01 0.432880094854426D+02 -.568620957200001D+01
 0.169874330292788D+03 -.886589124949611D+02 0.369715109617114D+02 0.106370773057461D+03
 0.000000000000000D+00 -.000000000000000D+00 0.000000000000000D+00 -.000000000000000D+00
 0.233136760037369D+03 0.000000000000000D+00 0.000000000000000D+00 0.233136760037369D+03
 0.233860885896007D+03 0.000000000000000D+00 0.000000000000000D+00 -.233860885896007D+03
 0.137761988168095D+03 0.173777579242569D+02 -.103064474665267D+03 -.398356250252747D+02
 0.106556334736251D+03 0.852082968949544D+02 0.197789105097728D+02 -.608489384601866D+02
 0.438131516417220D+02 -.779585473913454D+01 0.427373832419597D+02 -.568620957200001D+01
 0.167570424284644D+03 -.850533004968152D+02 0.348681870003616D+02 0.106370773057461D+03
 0.112957471026641D+02 -.973689958326160D+01 0.567999391317245D+01 -.724125858638449D+00
0.616041462133D-05 0.000000000000D+00 0.000000000000D+00 0.147436040014D-05 0.000000000000D+00  7 -2 1 -24 -11 11 23 21 0 0.50112813D-02 0.24505319D+00 0.38492087D+05 0.38492087D+05 0.38492087D+05 0.11574236D+01  1  2  2  1  7  1       -2 0.696224595172D-03 0.100000000000D+01
-.332972010053D-06 0.000000000000D+00 -.236576142203D-07 0.147436040014D-05 0.000000000000D+00  7 -2 1 -24 -11 11 23 21 2 0.50112813D-02 0.24505319D+00 0.38492087D+05 0.38492087D+05 0.38492087D+05 0.11574236D+01  1  2  3  1  7  1       -2 -.504117513029D-04 0.100000000000D+01
0.393159341679D-06 0.000000000000D+00 0.000000000000D+00 0.147436040014D-05 0.000000000000D+00  7 -2 1 -24 -11 11 23 21 2 0.50112813D-02 0.24505319D+00 0.38492087D+05 0.38492087D+05 0.38492087D+05 0.11574236D+01  1  2 15  1  7  1       -2 0.595240751677D-04 0.100000000000D+01
0.901541120476D-05 0.000000000000D+00 0.000000000000D+00 0.147436040014D-05 0.000000000000D+00  7 -2 1 -24 -11 11 23 21 2 0.51943306D-02 0.24505319D+00 0.40712304D+05 0.40712304D+05 0.40712304D+05 0.11552290D+01  1  2 12  1  7  1       -2 0.128936358537D-02 0.100000000000D+01
-.651119211843D-05 0.000000000000D+00 0.000000000000D+00 0.147436040014D-05 0.000000000000D+00  7 -2 1 -24 -11 11 23 21 2 0.50112813D-02 0.24505319D+00 0.38492087D+05 0.38492087D+05 0.38492087D+05 0.11574236D+01  1  2  4  1  7  1       -2 -.985790360300D-03 0.100000000000D+01
0.123026390654D-06 0.000000000000D+00 0.000000000000D+00 0.147436040014D-05 0.000000000000D+00  7 21 1 -24 -11 11 23 2 2 0.51943306D-02 0.24505319D+00 0.40712304D+05 0.40712304D+05 0.40712304D+05 0.11552290D+01  1  2 12  3  7  1       -2 0.290046355370D-03 0.100000000000D+01
  </mgrwgt>
  </event>
  <event>
  8     66 0.26562228E-05 0.90552583E+02 0.75467711E-02 0.10419353E+00
       -2 -1    0    0    0  501 0.00000000E+00 0.00000000E+00 0.94720729E+02 0.94721270E+02 0.32000000E+00 0.0000E+00 0.9000E+01
        1 -1    0    0  501    0 0.00000000E+00 0.00000000E+00 -.42931620E+03 0.42931631E+03 0.32000000E+00 0.0000E+00 0.9000E+01
       25  2    1    2    0    0 0.10819954E+02 -.12606786E+02 -.32292900E+03 0.44109589E+03 0.30001074E+03 0.0000E+00 0.0000E+00
       23  2    3    3    0    0 0.82332605E+02 -.81216930E+02 -.10567947E+03 0.18549068E+03 0.99316644E+02 0.0000E+00 0.0000E+00
      -24  1    1    2    0    0 -.10819954E+02 0.12606786E+02 -.11666466E+02 0.82941695E+02 0.80419002E+02 0.0000E+00 0.9000E+01
      -11  1    4    4    0    0 0.78084320E+02 -.58866256E+02 -.23983035E+02 0.10068557E+03 0.51099893E-03 0.0000E+00 0.9000E+01
       11  1    4    4    0    0 0.42482850E+01 -.22350674E+02 -.81696435E+02 0.84805118E+02 0.51099893E-03 0.0000E+00 0.9000E+01
       23  1    3    3    0    0 -.71512652E+02 0.68610144E+02 -.21724953E+03 0.25560521E+03 0.91188000E+02 0.0000E+00 0.9000E+01
#aMCatNLO 1  0  0  2  1 0.10869660D+03 0.00000000D+00  -5  7  0 0.00000000D+00 0.00000000D+00 0.00000000D+00 0.00000000D+00 0.00000000D+00
  <mgrwgt>
 0.1829246656D-02    9    2    0
 0.201656430728203D+03 0.000000000000000D+00 0.000000000000000D+00 0.201656430728203D+03
 0.201656430728203D+03 0.000000000000000D+00 0.000000000000000D+00 -.201656430728203D+03
 0.980901503594438D+02 -.108199538931363D+02 0.126067860602117D+02 0.536512738539376D+02
 0.110927298088497D+03 0.780843204556290D+02 -.588662569626306D+02 0.523685798108605D+02
 0.424132569586937D+02 0.424828566813561D+01 -.223506739666330D+02 -.357950249051927D+02
 0.151882156049771D+03 -.715126522306283D+02 0.686101448690518D+02 -.702248287596053D+02
 0.000000000000000D+00 0.000000000000000D+00 0.000000000000000D+00 -.000000000000000D+00
 0.237158716663210D+03 0.000000000000000D+00 0.000000000000000D+00 0.237158716663210D+03
 0.313198435525441D+03 0.000000000000000D+00 0.000000000000000D+00 -.313198435525441D+03
 0.100463328462218D+03 -.258170647755048D+02 -.898244908496850D+01 0.536512738539376D+02
 0.115908902109016D+03 0.609509634039865D+02 -.835307458175548D+02 0.523685798108605D+02
 0.482206043982188D+02 -.259745723465027D+01 -.322055289737696D+02 -.357950249051927D+02
 0.153110667663605D+03 -.945493233718301D+02 0.354474834650944D+02 -.702248287596053D+02
 0.132653649555594D+03 0.620128819779987D+02 0.892712404111984D+02 -.760397188622309D+02
0.102928606179D-04 0.000000000000D+00 0.000000000000D+00 0.255840016809D-07 0.000000000000D+00  7 -2 1 -24 -11 11 23 21 0 0.14572471D-01 0.66048696D-01 0.28447524D+05 0.28447524D+05 0.28447524D+05 0.11694831D+01  1  2  2  2  7  2        1 0.202181984576D-02 0.100000000000D+01
-.549634115153D-06 0.000000000000D+00 -.395272949451D-07 0.255840016809D-07 0.000000000000D+00  7 -2 1 -24 -11 11 23 21 2 0.14572471D-01 0.66048696D-01 0.28447524D+05 0.28447524D+05 0.28447524D+05 0.11694831D+01  1  2  3  2  7  2        1 -.147661725048D-03 0.100000000000D+01
0.642543178038D-06 0.000000000000D+00 0.000000000000D+00 0.255840016809D-07 0.000000000000D+00  7 -2 1 -24 -11 11 23 21 2 0.14572471D-01 0.66048696D-01 0.28447524D+05 0.28447524D+05 0.28447524D+05 0.11694831D+01  1  2 15  2  7  2        1 0.172622170770D-03 0.100000000000D+01
0.213444559477D-05 0.000000000000D+00 0.000000000000D+00 0.255840016809D-07 0.000000000000D+00  7 -2 1 -24 -11 11 23 21 2 0.14572471D-01 0.10578906D+00 0.54150446D+05 0.54150446D+05 0.54150446D+05 0.11442616D+01  1  2 12  2  7  2        1 0.286491616736D-03 0.100000000000D+01
-.676645841337D-05 0.000000000000D+00 0.000000000000D+00 0.255840016809D-07 0.000000000000D+00  7 -2 1 -24 -11 11 23 21 2 0.14572471D-01 0.66048696D-01 0.28447524D+05 0.28447524D+05 0.28447524D+05 0.11694831D+01  1  2  4  2  7  2        1 -.181784007623D-02 0.100000000000D+01
-.684040682235D-05 0.000000000000D+00 -.370156182780D-05 0.255840016809D-07 0.000000000000D+00  7 -2 1 -24 -11 11 23 21 2 0.14572471D-01 0.11540876D+00 0.28447524D+05 0.28447524D+05 0.28447524D+05 0.11694831D+01  1  2  5  2  7  2        1 -.842057241092D-03 0.100000000000D+01
0.811875470856D-05 0.000000000000D+00 0.319150970926D-05 0.255840016809D-07 0.000000000000D+00  7 -2 1 -24 -11 11 23 21 2 0.14572471D-01 0.66048696D-01 0.28447524D+05 0.28447524D+05 0.28447524D+05 0.11694831D+01  1  2  6  2  7  2        1 0.218114067606D-02 0.100000000000D+01
0.114864235464D-06 0.000000000000D+00 0.000000000000D+00 0.255840016809D-07 0.000000000000D+00  7 -2 21 -24 -11 11 23 -1 2 0.14572471D-01 0.10578906D+00 0.54150446D+05 0.54150446D+05 0.54150446D+05 0.11442616D+01  1  2 12  4  7  2        1 0.340340680270D-04 0.100000000000D+01
-.234382744914D-06 0.000000000000D+00 -.228279314618D-06 0.255840016809D-07 0.000000000000D+00  7 -2 21 -24 -11 11 23 -1 2 0.14572471D-01 0.11540876D+00 0.28447524D+05 0.28447524D+05 0.28447524D+05 0.11694831D+01  1  2  5  4  7  2        1 -.593026789487D-04 0.100000000000D+01
  </mgrwgt>
  </event>
  <event>
  8     66 0.26562228E-05 0.17342118E+03 0.75467711E-02 0.10561935E+00
       -2 -1    0    0    0  501 0.00000000E+00 0.00000000E+00 0.15909797E+04 0.15909798E+04 0.32000000E+00 0.0000E+00 0.9000E+01
        1 -1    0    0  501    0 0.00000000E+00 0.00000000E+00 -.65440523E+02 0.65441305E+02 0.32000000E+00 0.0000E+00 0.9000E+01
       25  2    1    2    0    0 -.89953556E+02 0.64221997E+02 0.14772105E+04 0.15114418E+04 0.30014875E+03 0.0000E+00 0.0000E+00
       23  2    3    3    0    0 0.45144776E+02 0.87111222E+02 0.92961800E+03 0.93964786E+03 0.95509546E+02 0.0000E+00 0.0000E+00
      -24  1    1    2    0    0 0.89953556E+02 -.64221997E+02 0.48328662E+02 0.14497925E+03 0.80419002E+02 0.0000E+00 0.9000E+01
      -11  1    4    4    0    0 -.71063299E+00 0.66791673E+02 0.75558359E+03 0.75853029E+03 0.51099893E-03 0.0000E+00 0.9000E+01
       11  1    4    4    0    0 0.45855409E+02 0.20319550E+02 0.17403440E+03 0.18111758E+03 0.51099893E-03 0.0000E+00 0.9000E+01
       23  1    3    3    0    0 -.13509833E+03 -.22889226E+02 0.54759255E+03 0.57179395E+03 0.91188000E+02 0.0000E+00 0.9000E+01
#aMCatNLO 1  0  0  1  1 0.23130480D+01 0.00000000D+00  -5  7  0 0.00000000D+00 0.00000000D+00 0.00000000D+00 0.00000000D+00 0.00000000D+00
  <mgrwgt>
 0.2194411637D-02   10    2    0
 0.322668901630774D+03 0.000000000000000D+00 0.000000000000000D+00 0.322668901630774D+03
 0.322668901630774D+03 0.000000000000000D+00 0.000000000000000D+00 -.322668901630774D+03
 0.257879536021406D+03 0.899535557186325D+02 -.642219965381741D+02 -.218674488952120D+03
 0.160804394606210D+03 -.710632947879187D+00 0.667916726173689D+02 0.146275154399021D+03
 0.534768952501601D+02 0.458554087258346D+02 0.203195497988962D+02 0.185519732684538D+02
 0.173176977383772D+03 -.135098331496588D+03 -.228892258780910D+02 0.538473612846451D+02
 0.000000000000000D+00 0.000000000000000D+00 -.000000000000000D+00 0.000000000000000D+00
 0.324387789693414D+03 0.000000000000000D+00 0.000000000000000D+00 0.324387789693414D+03
 0.323450060759375D+03 0.000000000000000D+00 0.000000000000000D+00 -.323450060759375D+03
 0.257514379400194D+03 0.890548119812991D+02 -.640089680279361D+02 -.218674488952120D+03
 0.160863120299085D+03 -.127155665278604D+01 0.669246279151360D+02 0.146275154399021D+03
 0.533341104177854D+02 0.456691517298749D+02 0.203636981458860D+02 0.185519732684538D+02
 0.173630338395027D+03 -.135703093977850D+03 -.227458795101782D+02 0.538473612846451D+02
 0.249590194069697D+01 0.225068691946180D+01 -.533478522907670D+00 0.937728934039426D+00
0.130027898638D-03 0.000000000000D+00 0.000000000000D+00 0.384018146182D-06 0.000000000000D+00  7 -2 1 -24 -11 11 23 21 0 0.24476617D+00 0.10067835D-01 0.43729250D+05 0.43729250D+05 0.43729250D+05 0.11524499D+01  1  2  2  1  7  1       -2 0.645142081898D-03 0.100000000000D+01
-.557140921852D-05 0.000000000000D+00 -.499341367902D-06 0.384018146182D-06 0.000000000000D+00  7 -2 1 -24 -11 11 23 21 2 0.24476617D+00 0.10067835D-01 0.43729250D+05 0.43729250D+05 0.43729250D+05 0.11524499D+01  1  2  3  1  7  1       -2 -.367136870051D-04 0.100000000000D+01
0.814478047491D-05 0.000000000000D+00 0.000000000000D+00 0.384018146182D-06 0.000000000000D+00  7 -2 1 -24 -11 11 23 21 2 0.24476617D+00 0.10067835D-01 0.43729250D+05 0.43729250D+05 0.43729250D+05 0.11524499D+01  1  2 15  1  7  1       -2 0.536713261139D-04 0.100000000000D+01
-.343050029206D-02 0.000000000000D+00 0.000000000000D+00 0.384018146182D-06 0.000000000000D+00  7 -2 1 -24 -11 11 23 21 2 0.24476617D+00 0.10067835D-01 0.43729250D+05 0.43729250D+05 0.43729250D+05 0.11524499D+01  1  2  4  1  7  1       -2 -.226058271891D-01 0.100000000000D+01
-.195092295372D-01 0.000000000000D+00 -.193352468319D-02 0.384018146182D-06 0.000000000000D+00  7 -2 1 -24 -11 11 23 21 2 0.24637835D+00 0.10067835D-01 0.43729250D+05 0.43729250D+05 0.43729250D+05 0.11524499D+01  1  2  5  1  7  1       -2 -.125588992180D+00 0.100000000000D+01
0.195215440984D-01 0.000000000000D+00 0.193348301730D-02 0.384018146182D-06 0.000000000000D+00  7 -2 1 -24 -11 11 23 21 2 0.24476617D+00 0.10067835D-01 0.43729250D+05 0.43729250D+05 0.43729250D+05 0.11524499D+01  1  2  6  1  7  1       -2 0.128640319132D+00 0.100000000000D+01
0.343053148998D-02 0.000000000000D+00 0.000000000000D+00 0.384018146182D-06 0.508087485260D-06  7 -2 1 -24 -11 11 23 21 2 0.24607007D+00 0.10092209D-01 0.44167141D+05 0.44167141D+05 0.44167141D+05 0.11520642D+01  1  2 11  1  7  1       -2 0.220912627394D-01 0.100000000000D+01
0.136479670137D-07 0.000000000000D+00 0.000000000000D+00 0.384018146182D-06 0.000000000000D+00  7 21 1 -24 -11 11 23 2 2 0.24636520D+00 0.10067835D-01 0.44167141D+05 0.44167141D+05 0.44167141D+05 0.11520642D+01  1  2 12  3  7  1       -2 0.709762131152D-06 0.100000000000D+01
-.237488644821D-04 0.000000000000D+00 -.235677905832D-05 0.384018146182D-06 0.000000000000D+00  7 21 1 -24 -11 11 23 2 2 0.24637835D+00 0.10067835D-01 0.43729250D+05 0.43729250D+05 0.43729250D+05 0.11524499D+01  1  2  5  3  7  1       -2 -.123651712796D-02 0.100000000000D+01
0.444273925918D-05 0.000000000000D+00 0.000000000000D+00 0.384018146182D-06 0.503434278902D-09  7 21 1 -24 -11 11 23 2 2 0.24607007D+00 0.10092209D-01 0.44167141D+05 0.44167141D+05 0.44167141D+05 0.11520642D+01  1  2 11  3  7  1       -2 0.231356779272D-03 0.100000000000D+01
  </mgrwgt>
  </event>
  <event>
  8     66 0.26562228E-05 0.23772397E+03 0.75467711E-02 0.96486598E-01
       -2 -1    0    0    0  501 0.00000000E+00 0.00000000E+00 0.12987436E+03 0.12987475E+03 0.32000000E+00 0.0000E+00 0.9000E+01
        1 -1    0    0  501    0 0.00000000E+00 0.00000000E+00 -.11439165E+04 0.11439166E+04 0.32000000E+00 0.0000E+00 0.9000E+01
       25  2    1    2    0    0 -.16835270E+03 0.20306598E+03 -.27674188E+03 0.48660814E+03 0.30103653E+03 0.0000E+00 0.0000E+00
       23  2    3    3    0    0 0.43674482E+02 0.30702821E+02 -.31429724E+02 0.10824603E+03 0.88765144E+02 0.0000E+00 0.0000E+00
      -24  1    1    2    0    0 0.16835270E+03 -.20306598E+03 -.73730029E+03 0.78718318E+03 0.80419002E+02 0.0000E+00 0.9000E+01
      -13  1    4    4    0    0 0.44281991E+02 0.54958598E+02 -.26849721E+01 0.70629756E+02 0.10565837E+00 0.0000E+00 0.9000E+01
       13  1    4    4    0    0 -.60750877E+00 -.24255777E+02 -.28744752E+02 0.37616269E+02 0.10565837E+00 0.0000E+00 0.9000E+01
       23  1    3    3    0    0 -.21202719E+03 0.17236316E+03 -.24531216E+03 0.37836212E+03 0.91188000E+02 0.0000E+00 0.9000E+01
#aMCatNLO 1  0  0  2  1 0.17982173D+03 0.00000000D+00  -5  7  0 0.00000000D+00 0.00000000D+00 0.00000000D+00 0.00000000D+00 0.00000000D+00
  <mgrwgt>
 0.9352602491D-03    7    2    0
 0.385442215753061D+03 0.000000000000000D+00 0.000000000000000D+00 0.385442215753061D+03
 0.385442215753061D+03 0.000000000000000D+00 0.000000000000000D+00 -.385442215753061D+03
 0.330858304923671D+03 0.168352705117589D+03 -.203065977799279D+03 -.182815692221994D+03
 0.113175190326335D+03 0.442820540645590D+02 0.549587102984261D+02 0.884718235121175D+02
 0.243444915695590D+02 -.607572523034177D+00 -.242558890833638D+02 0.198417997800919D+01
 0.302506444686558D+03 -.212027186659114D+03 0.172363156584217D+03 0.923596887318675D+02
 0.000000000000000D+00 0.000000000000000D+00 0.000000000000000D+00 -.000000000000000D+00
 0.417187563980532D+03 0.000000000000000D+00 0.000000000000000D+00 0.417187563980532D+03
 0.773586900948337D+03 0.000000000000000D+00 0.000000000000000D+00 -.773586900948337D+03
 0.342410246948418D+03 0.110903187818366D+03 -.255061692282521D+03 -.182815692221994D+03
 0.999522418807261D+02 0.260960448272749D+02 0.384991369487263D+02 0.884718235121175D+02
 0.288999269337549D+02 -.515088014283576D+01 -.283678910098262D+02 0.198417997800919D+01
 0.320317434661032D+03 -.265172296632626D+03 0.124263223037856D+03 0.923596887318675D+02
 0.399194614504938D+03 0.133323944129821D+03 0.120667223305765D+03 -.356399336967804D+03
0.392389330753D-04 0.000000000000D+00 0.000000000000D+00 0.301029071201D-06 0.000000000000D+00  7 -2 1 -24 -13 13 23 21 0 0.19980704D-01 0.17598719D+00 0.10846095D+06 0.10846095D+06 0.10846095D+06 0.11188389D+01  1  2  2  2  7  2        1 0.103689089184D-02 0.100000000000D+01
-.211434341156D-05 0.000000000000D+00 -.150687834858D-06 0.301029071201D-06 0.000000000000D+00  7 -2 1 -24 -13 13 23 21 2 0.19980704D-01 0.17598719D+00 0.10846095D+06 0.10846095D+06 0.10846095D+06 0.11188389D+01  1  2  3  2  7  2        1 -.699401418664D-04 0.100000000000D+01
0.255281627258D-05 0.000000000000D+00 0.000000000000D+00 0.301029071201D-06 0.000000000000D+00  7 -2 1 -24 -13 13 23 21 2 0.19980704D-01 0.17598719D+00 0.10846095D+06 0.10846095D+06 0.10846095D+06 0.11188389D+01  1  2 15  2  7  2        1 0.844443392149D-04 0.100000000000D+01
0.306020609808D-04 0.000000000000D+00 0.000000000000D+00 0.301029071201D-06 0.000000000000D+00  7 -2 1 -24 -13 13 23 21 2 0.19980704D-01 0.35351339D+00 0.18122008D+06 0.18122008D+06 0.18122008D+06 0.11011296D+01  1  2 12  2  7  2        1 0.163036385617D-03 0.100000000000D+01
-.529845497761D-04 0.000000000000D+00 -.113717330023D-04 0.301029071201D-06 0.000000000000D+00  7 -2 1 -24 -13 13 23 21 2 0.19980704D-01 0.36099646D+00 0.10846095D+06 0.10846095D+06 0.10846095D+06 0.11188389D+01  1  2  5  2  7  2        1 -.276968381992D-03 0.100000000000D+01
0.230920254627D-05 0.000000000000D+00 0.000000000000D+00 0.301029071201D-06 0.000000000000D+00  7 -2 21 -24 -13 13 23 -1 2 0.19980704D-01 0.35351339D+00 0.18122008D+06 0.18122008D+06 0.18122008D+06 0.11011296D+01  1  2 12  4  7  2        1 0.502655327368D-05 0.100000000000D+01
-.342146220170D-05 0.000000000000D+00 -.883462802860D-06 0.301029071201D-06 0.000000000000D+00  7 -2 21 -24 -13 13 23 -1 2 0.19980704D-01 0.36099646D+00 0.10846095D+06 0.10846095D+06 0.10846095D+06 0.11188389D+01  1  2  5  4  7  2        1 -.722939698769D-05 0.100000000000D+01
  </mgrwgt>
  </event>
  <event>
  8     66 0.26562228E-05 0.11387975E+03 0.75467711E-02 0.10036499E+00
       -2 -1    0    0    0  501 0.00000000E+00 0.00000000E+00 0.20947826E+03 0.20947850E+03 0.32000000E+00 0.0000E+00 0.9000E+01
        1 -1    0    0  501    0 0.00000000E+00 0.00000000E+00 -.35945675E+03 0.35945689E+03 0.32000000E+00 0.0000E+00 0.9000E+01
       25  2    1    2    0    0 -.94887500E+02 -.33566701E+01 -.25612882E+03 0.40538109E+03 0.29952788E+03 0.0000E+00 0.0000E+00
       23  2    3    3    0    0 -.14338875E+03 0.65835332E+02 -.19459403E+03 0.26666668E+03 0.91376466E+02 0.0000E+00 0.0000E+00
      -24  1    1    2    0    0 0.94887500E+02 0.33566701E+01 0.10615032E+03 0.16355431E+03 0.80419002E+02 0.0000E+00 0.9000E+01
      -11  1    4    4    0    0 -.64207137E+01 -.15402575E+02 -.20686468E+01 0.16814999E+02 0.51099893E-03 0.0000E+00 0.9000E+01
       11  1    4    4    0    0 -.13696804E+03 0.81237907E+02 -.19252538E+03 0.24985169E+03 0.51099893E-03 0.0000E+00 0.9000E+01
       23  1    3    3    0    0 0.48501254E+02 -.69192002E+02 -.61534785E+02 0.13871440E+03 0.91188000E+02 0.0000E+00 0.9000E+01
#aMCatNLO 1  0  0  1  2 0.16645476D+03 0.00000000D+00  -5  7  0 0.00000000D+00 0.00000000D+00 0.00000000D+00 0.00000000D+00 0.00000000D+00
  <mgrwgt>
 0.5182827190D-03    7    2    0
 0.274405692782211D+03 0.000000000000000D+00 0.000000000000000D+00 0.274405692782211D+03
 0.274405692782211D+03 0.000000000000000D+00 0.000000000000000D+00 -.274405692782211D+03
 0.198560203393249D+03 0.948874997184590D+02 0.335667007233859D+01 0.154738597577989D+03
 0.168662601964978D+02 -.642071367738943D+01 -.154025754285327D+02 0.245068134552628D+01
 0.206400238594504D+03 -.136968039694249D+03 0.812379074024343D+02 -.131305814780063D+03
 0.126984683380171D+03 0.485012536531795D+02 -.691920020462402D+02 -.258834641434528D+02
 0.000000000000000D+00 0.000000000000000D+00 -.000000000000000D+00 0.000000000000000D+00
 0.168106939848117D+04 0.000000000000000D+00 0.000000000000000D+00 0.168106939848117D+04
 0.291717377735174D+03 0.000000000000000D+00 0.000000000000000D+00 -.291717377735174D+03
 0.189113693681331D+03 0.566505526554614D+02 0.462974565916299D+02 0.154738597577989D+03
 0.154311438633247D+02 -.960626250754472D+01 -.118251461939992D+02 0.245068134552628D+01
 0.261712853597118D+03 -.183138843714577D+03 0.133088559484946D+03 -.131305814780063D+03
 0.107241328384320D+03 0.253991369509736D+02 -.432479051020265D+02 -.258834641434528D+02
 0.139928775669025D+04 0.110695416615686D+03 -.124312964780551D+03 0.138935202074600D+04
0.170707804537D-04 0.000000000000D+00 0.000000000000D+00 0.266328541573D-05 0.000000000000D+00  7 -2 1 -24 -11 11 23 21 0 0.32227454D-01 0.55301068D-01 0.45088476D+05 0.45088476D+05 0.45088476D+05 0.11512662D+01  1  2  2  1  7  1       -2 0.114240412264D-02 0.100000000000D+01
-.872561742714D-06 0.000000000000D+00 -.655562917818D-07 0.266328541573D-05 0.000000000000D+00  7 -2 1 -24 -11 11 23 21 2 0.32227454D-01 0.55301068D-01 0.45088476D+05 0.45088476D+05 0.45088476D+05 0.11512662D+01  1  2  3  1  7  1       -2 -.773952102957D-04 0.100000000000D+01
0.105865371530D-05 0.000000000000D+00 0.000000000000D+00 0.266328541573D-05 0.000000000000D+00  7 -2 1 -24 -11 11 23 21 2 0.32227454D-01 0.55301068D-01 0.45088476D+05 0.45088476D+05 0.45088476D+05 0.11512662D+01  1  2 15  1  7  1       -2 0.939013515203D-04 0.100000000000D+01
0.174151177439D-04 0.000000000000D+00 0.000000000000D+00 0.266328541573D-05 0.000000000000D+00  7 -2 1 -24 -11 11 23 21 2 0.19070407D+00 0.55301068D-01 0.96370044D+05 0.96370044D+05 0.96370044D+05 0.11230422D+01  1  2 12  1  7  1       -2 0.259205083335D-04 0.100000000000D+01
-.173614257002D-03 0.000000000000D+00 -.808054994193D-05 0.266328541573D-05 0.000000000000D+00  7 -2 1 -24 -11 11 23 21 2 0.20010131D+00 0.55301068D-01 0.45088476D+05 0.45088476D+05 0.45088476D+05 0.11512662D+01  1  2  5  1  7  1       -2 -.243321937929D-03 0.100000000000D+01
0.379439911298D-05 0.000000000000D+00 0.000000000000D+00 0.266328541573D-05 0.000000000000D+00  7 21 1 -24 -11 11 23 2 2 0.19070407D+00 0.55301068D-01 0.96370044D+05 0.96370044D+05 0.96370044D+05 0.11230422D+01  1  2 12  3  7  1       -2 0.472172858111D-04 0.100000000000D+01
-.394228277613D-04 0.000000000000D+00 -.180828855418D-05 0.266328541573D-05 0.000000000000D+00  7 21 1 -24 -11 11 23 2 2 0.20010131D+00 0.55301068D-01 0.45088476D+05 0.45088476D+05 0.45088476D+05 0.11512662D+01  1  2  5  3  7  1       -2 -.470443401064D-03 0.100000000000D+01
  </mgrwgt>
  </event>
  <event>
  8     66 0.26562228E-05 0.14481315E+03 0.75467711E-02 0.99082515E-01
       -2 -1    0    0    0  501 0.00000000E+00 0.00000000E+00 0.13548373E+04 0.13548373E+04 0.32000000E+00 0.0000E+00 0.9000E+01
        1 -1    0    0  501    0 0.00000000E+00 0.00000000E+00 -.29522019E+02 0.29523753E+02 0.32000000E+00 0.0000E+00 0.9000E+01
       25  2    1    2    0    0 0.13631138E+02 -.47377056E+02 0.10725245E+04 0.11145449E+04 0.29911718E+03 0.0000E+00 0.0000E+00
       23  2    3    3    0    0 0.17682208E+02 -.38802906E+02 0.97543033E+03 0.98100666E+03 0.95348974E+02 0.0000E+00 0.0000E+00
      -24  1    1    2    0    0 -.13631138E+02 0.47377056E+02 0.25279073E+03 0.26981616E+03 0.80419002E+02 0.0000E+00 0.9000E+01
      -11  1    4    4    0    0 0.22913878E+02 0.28243322E+02 0.40363509E+03 0.40527030E+03 0.51099893E-03 0.0000E+00 0.9000E+01
       11  1    4    4    0    0 -.52316696E+01 -.67046228E+02 0.57179524E+03 0.57573637E+03 0.51099893E-03 0.0000E+00 0.9000E+01
       23  1    3    3    0    0 -.40510706E+01 -.85741501E+01 0.97094219E+02 0.13353826E+03 0.91188000E+02 0.0000E+00 0.9000E+01
#aMCatNLO 1  0  0  1  1 0.29948182D+03 0.00000000D+00  -5  7  0 0.00000000D+00 0.00000000D+00 0.00000000D+00 0.00000000D+00 0.00000000D+00
  <mgrwgt>
 0.4194859343D-02    3    2    0
 0.199996895815762D+03 0.000000000000000D+00 0.000000000000000D+00 0.199996895815762D+03
 0.199996895815762D+03 0.000000000000000D+00 0.000000000000000D+00 -.199996895815762D+03
 0.962404488303873D+02 -.136311379998412D+02 0.473770569257629D+02 -.190948838851185D+02
 0.652427195761246D+02 0.229138778660236D+02 0.282433214428497D+02 0.541653159568524D+02
 0.980466582666845D+02 -.523166938631937D+01 -.670462279941621D+02 0.713483016227513D+02
 0.140463964958328D+03 -.405107047986304D+01 -.857415037445055D+01 -.106418733694485D+03
 0.000000000000000D+00 0.000000000000000D+00 -.000000000000000D+00 -.000000000000000D+00
 0.374644884802180D+03 0.000000000000000D+00 0.000000000000000D+00 0.374644884802180D+03
 0.429504402191068D+03 0.000000000000000D+00 0.000000000000000D+00 -.429504402191068D+03
 0.156640787744230D+03 -.233671699126807D+02 0.130990385946634D+03 -.190948838851185D+02
 0.100523231719966D+03 0.165318203684333D+02 0.830526193327228D+02 0.541653159568524D+02
 0.730741750033554D+02 -.118198920486093D+02 -.104663775934717D+02 0.713483016227513D+02
 0.169446102631203D+03 -.159827359091865D+02 0.938953439986432D+02 -.106418733694485D+03
 0.304464989894494D+03 0.346379775020432D+02 -.297471971684528D+03 -.548595173888882D+02
0.166269326749D-03 0.000000000000D+00 0.000000000000D+00 0.152625362489D-07 0.000000000000D+00  7 -2 1 -24 -11 11 23 21 0 0.20843664D+00 0.45419853D-02 0.20970849D+05 0.20970849D+05 0.20970849D+05 0.11820449D+01  1  2  2  1  7  1       -2 0.410308339537D-02 0.100000000000D+01
-.806649187372D-05 0.000000000000D+00 -.638517994434D-06 0.152625362489D-07 0.000000000000D+00  7 -2 1 -24 -11 11 23 21 2 0.20843664D+00 0.45419853D-02 0.20970849D+05 0.20970849D+05 0.20970849D+05 0.11820449D+01  1  2  3  1  7  1       -2 -.278131935212D-03 0.100000000000D+01
0.107282140394D-04 0.000000000000D+00 0.000000000000D+00 0.152625362489D-07 0.000000000000D+00  7 -2 1 -24 -11 11 23 21 2 0.20843664D+00 0.45419853D-02 0.20970849D+05 0.20970849D+05 0.20970849D+05 0.11820449D+01  1  2 15  1  7  1       -2 0.369907882987D-03 0.100000000000D+01
  </mgrwgt>
  </event>
  <event>
  7     66 0.26562228E-05 0.37760948E+03 0.75467711E-02 0.92225026E-01
       -2 -1    0    0    0  501 0.00000000E+00 0.00000000E+00 0.19548792E+03 0.19548818E+03 0.32000000E+00 0.0000E+00 0.9000E+01
        1 -1    0    0  501    0 0.00000000E+00 0.00000000E+00 -.90839022E+03 0.90839028E+03 0.32000000E+00 0.0000E+00 0.9000E+01
       25  2    1    2    0    0 0.26500850E+02 -.32012770E+03 -.61996404E+03 0.75994710E+03 0.29996692E+03 0.0000E+00 0.0000E+00
      -24  1    1    2    0    0 -.26500850E+02 0.32012770E+03 -.92938263E+02 0.34393135E+03 0.80419002E+02 0.0000E+00 0.9000E+01
      -13  1    3    3    0    0 0.12996540E+02 0.19720109E+02 -.11047180E+02 0.26073820E+02 0.10565837E+00 0.0000E+00 0.9000E+01
       13  1    3    3    0    0 0.91494157E+02 -.15856874E+03 -.35640120E+03 0.40067075E+03 0.10565837E+00 0.0000E+00 0.9000E+01
       23  1    3    3    0    0 -.77989848E+02 -.18127907E+03 -.25251566E+03 0.33320253E+03 0.91188000E+02 0.0000E+00 0.9000E+01
#aMCatNLO 1  0  0  1  1 0.40292755D+03 0.00000000D+00  -5  7  0 0.00000000D+00 0.00000000D+00 0.00000000D+00 0.00000000D+00 0.00000000D+00
  <mgrwgt>
 0.2315605862D-02    3    2    0
 0.421401815419385D+03 0.000000000000000D+00 0.000000000000000D+00 0.421401815419385D+03
 0.421401815419385D+03 0.000000000000000D+00 0.000000000000000D+00 -.421401815419385D+03
 0.371857097870689D+03 -.265008497564462D+02 0.320127701158906D+03 0.169193514046317D+03
 0.248060367384766D+02 0.129965495677009D+02 0.197201568922713D+02 0.758581374337306D+01
 0.223317112881312D+03 0.914943459560675D+02 -.158568512481757D+03 -.127888015126668D+03
 0.222823383348292D+03 -.779900457673222D+02 -.181279345569421D+03 -.488913126630214D+02
 0.000000000000000D+00 -.000000000000000D+00 0.000000000000000D+00 -.000000000000000D+00
 0.486356412920373D+03 0.000000000000000D+00 0.000000000000000D+00 0.486356412920373D+03
 0.257304364335638D+04 0.000000000000000D+00 0.000000000000000D+00 -.257304364335638D+04
 0.258601281268916D+03 -.156508056566664D+02 0.177583821916611D+03 0.169193514046317D+03
 0.185660850100798D+02 0.137429738349382D+02 0.991391005731675D+01 0.758581374337306D+01
 0.326435345198264D+03 0.100955459665534D+03 -.282865136320105D+03 -.127888015126668D+03
 0.330564602651771D+03 -.684663654562077D+02 -.306397946353475D+03 -.488913126630214D+02
 0.212523274214772D+04 -.305812623875981D+02 0.401765350699653D+03 -.208668723043601D+04
0.116693264457D-03 0.000000000000D+00 0.000000000000D+00 0.922862192369D-08 0.000000000000D+00  7 -2 1 -24 -13 13 23 21 0 0.30075089D-01 0.13975237D+00 0.14258892D+06 0.14258892D+06 0.14258892D+06 0.11092926D+01  1  2  2  1  7  1       -2 0.229063638361D-02 0.100000000000D+01
-.638805697835D-05 0.000000000000D+00 -.448132861556D-06 0.922862192369D-08 0.000000000000D+00  7 -2 1 -24 -13 13 23 21 2 0.30075089D-01 0.13975237D+00 0.14258892D+06 0.14258892D+06 0.14258892D+06 0.11092926D+01  1  2  3  1  7  1       -2 -.154301948012D-03 0.100000000000D+01
0.742178632643D-05 0.000000000000D+00 0.000000000000D+00 0.922862192369D-08 0.000000000000D+00  7 -2 1 -24 -13 13 23 21 2 0.30075089D-01 0.13975237D+00 0.14258892D+06 0.14258892D+06 0.14258892D+06 0.11092926D+01  1  2 15  1  7  1       -2 0.179271426629D-03 0.100000000000D+01
  </mgrwgt>
  </event>
  <event>
  8     66 0.26562228E-05 0.24669337E+03 0.75467711E-02 0.98673198E-01
       -2 -1    0    0    0  501 0.00000000E+00 0.00000000E+00 0.79159284E+02 0.79159931E+02 0.32000000E+00 0.0000E+00 0.9000E+01
        1 -1    0    0  501    0 0.00000000E+00 0.00000000E+00 -.20400864E+04 0.20400864E+04 0.32000000E+00 0.0000E+00 0.9000E+01
       25  2    1    2    0    0 0.15110240E+03 0.32718549E+02 -.19071599E+04 0.19368716E+04 0.30051636E+03 0.0000E+00 0.0000E+00
       23  2    3    3    0    0 0.18789978E+03 -.11192116E+02 -.15324259E+04 0.15469702E+04 0.96727775E+02 0.0000E+00 0.0000E+00
      -24  1    1    2    0    0 -.15110240E+03 -.32718549E+02 -.53767212E+02 0.18237480E+03 0.80419002E+02 0.0000E+00 0.9000E+01
      -13  1    4    4    0    0 0.18539704E+03 -.33993563E+02 -.13862085E+04 0.13989645E+04 0.10565837E+00 0.0000E+00 0.9000E+01
       13  1    4    4    0    0 0.25027396E+01 0.22801447E+02 -.14621739E+03 0.14800577E+03 0.10565837E+00 0.0000E+00 0.9000E+01
       23  1    3    3    0    0 -.36797378E+02 0.43910665E+02 -.37473401E+03 0.38990130E+03 0.91188000E+02 0.0000E+00 0.9000E+01
#aMCatNLO 1  0  0  1  1 0.18923180D+03 0.00000000D+00  -5  7  0 0.00000000D+00 0.00000000D+00 0.00000000D+00 0.00000000D+00 0.00000000D+00
  <mgrwgt>
 0.9208628367D-03    4    2    0
 0.401861283375602D+03 0.000000000000000D+00 0.000000000000000D+00 0.401861283375602D+03
 0.401861283375602D+03 0.000000000000000D+00 0.000000000000000D+00 -.401861283375602D+03
 0.349702198799763D+03 -.151102401408937D+03 -.327185490597895D+02 0.303186366327533D+03
 0.306693915981507D+03 0.185397258140537D+03 -.339936289486779D+02 -.241936867725741D+03
 0.335174947456587D+02 0.250252308249729D+01 0.228015120497965D+02 -.244387168339464D+02
 0.113808957224275D+03 -.367973798140975D+02 0.439106659586708D+02 -.368107817678462D+02
 0.000000000000000D+00 0.000000000000000D+00 -.000000000000000D+00 -.000000000000000D+00
 0.505667913335929D+03 0.000000000000000D+00 0.000000000000000D+00 0.505667913335929D+03
 0.509297577123780D+03 0.000000000000000D+00 0.000000000000000D+00 -.509297577123780D+03
 0.368446147343732D+03 -.188743168132953D+03 0.417060102900211D+02 0.303186366327533D+03
 0.288237387975945D+03 0.154214744737377D+03 0.276614599730118D+02 -.241936867725741D+03
 0.389586840251726D+02 -.129621704245155D+01 0.303125057008206D+02 -.244387168339464D+02
 0.130056660284490D+03 -.495792637659982D+02 0.691834264142561D+02 -.368107817678462D+02
 0.189266610830370D+03 0.854039042040261D+02 -.168863402378109D+03 -.362966378785010D+01
0.960138956586D-04 0.000000000000D+00 0.000000000000D+00 0.372715145061D-06 0.000000000000D+00  7 -2 1 -24 -13 13 23 21 0 0.12178403D-01 0.31385950D+00 0.60857618D+05 0.60857618D+05 0.60857618D+05 0.11398633D+01  1  2  2  1  7  1       -2 0.144798850727D-02 0.100000000000D+01
-.378987175019D-05 0.000000000000D+00 -.368718640368D-06 0.372715145061D-06 0.000000000000D+00  7 -2 1 -24 -13 13 23 21 2 0.12178403D-01 0.31385950D+00 0.60857618D+05 0.60857618D+05 0.60857618D+05 0.11398633D+01  1  2  3  1  7  1       -2 -.742610491056D-04 0.100000000000D+01
0.601525289219D-05 0.000000000000D+00 0.000000000000D+00 0.372715145061D-06 0.000000000000D+00  7 -2 1 -24 -13 13 23 21 2 0.12178403D-01 0.31385950D+00 0.60857618D+05 0.60857618D+05 0.60857618D+05 0.11398633D+01  1  2 15  1  7  1       -2 0.117866518936D-03 0.100000000000D+01
-.291269494866D-04 0.000000000000D+00 0.000000000000D+00 0.372715145061D-06 0.000000000000D+00  7 -2 1 -24 -13 13 23 21 2 0.12178403D-01 0.31385950D+00 0.60857618D+05 0.60857618D+05 0.60857618D+05 0.11398633D+01  1  2  4  1  7  1       -2 -.570731140444D-03 0.100000000000D+01
  </mgrwgt>
  </event>
  <event>
  7     66 0.26562228E-05 0.14518317E+03 0.75467711E-02 0.97985110E-01
       -2 -1    0    0    0  501 0.00000000E+00 0.00000000E+00 0.29509155E+03 0.29509172E+03 0.32000000E+00 0.0000E+00 0.9000E+01
        1 -1    0    0  501    0 0.00000000E+00 0.00000000E+00 -.21945171E+04 0.21945171E+04 0.32000000E+00 0.0000E+00 0.9000E+01
       23  2    1    2    0    0 0.27508710E+03 0.52660819E+02 0.10557217E+03 0.31392714E+03 0.94650374E+02 0.0000E+00 0.0000E+00
      -24  1    1    2    0    0 -.28531416E+03 0.42680421E+02 -.20203887E+04 0.20424651E+04 0.80419002E+02 0.0000E+00 0.9000E+01
      -11  1    3    3    0    0 0.16154172E+03 -.40826306E+01 0.24832462E+02 0.16349021E+03 0.51099893E-03 0.0000E+00 0.9000E+01
       11  1    3    3    0    0 0.11354537E+03 0.56743450E+02 0.80739704E+02 0.15043693E+03 0.51099893E-03 0.0000E+00 0.9000E+01
       23  1    1    2    0    0 0.10227064E+02 -.95341240E+02 0.15390973E+02 0.13321666E+03 0.91188000E+02 0.0000E+00 0.9000E+01
#aMCatNLO 1  0  0  1  2 0.27810775D+02 0.00000000D+00  -5  7  0 0.00000000D+00 0.00000000D+00 0.00000000D+00 0.00000000D+00 0.00000000D+00
  <mgrwgt>
 0.8022485700D-03    9    2    0
 0.804725852042297D+03 0.000000000000000D+00 0.000000000000000D+00 0.804725852042297D+03
 0.804725852042297D+03 0.000000000000000D+00 0.000000000000000D+00 -.804725852042297D+03
 0.775022416402097D+03 -.285314161570269D+03 0.426804206702681D+02 -.714819376395351D+03
 0.282204230005477D+03 0.161541723506359D+03 -.408263067168621D+01 0.231358663391665D+03
 0.327992556906775D+03 0.113545374472497D+03 0.567434494811935D+02 0.302434697518522D+03
 0.224232500770244D+03 0.102270635914126D+02 -.953412394797754D+02 0.181026015485164D+03
 0.000000000000000D+00 0.000000000000000D+00 -.000000000000000D+00 0.000000000000000D+00
 0.829644786768124D+03 0.000000000000000D+00 0.000000000000000D+00 0.829644786768124D+03
 0.812643125421433D+03 0.000000000000000D+00 0.000000000000000D+00 -.812643125421433D+03
 0.779876672527553D+03 -.297325535549210D+03 0.486949015649011D+02 -.714819376395351D+03
 0.279718811885866D+03 0.157200948049228D+03 -.190906492470516D+01 0.231358663391665D+03
 0.326726155380048D+03 0.108487765679568D+03 0.592759567123338D+02 0.302434697518522D+03
 0.223370326692227D+03 0.676939550673707D+01 -.936098739697410D+02 0.181026015485164D+03
 0.325959457038625D+02 0.248674263136766D+02 -.124519193827887D+02 0.170016613466905D+02
0.384705123456D-03 0.000000000000D+00 0.000000000000D+00 0.503526237955D-08 0.000000000000D+00  7 -2 1 -24 -11 11 23 21 0 0.45398715D-01 0.33761803D+00 0.12972254D+06 0.12972254D+06 0.12972254D+06 0.11125641D+01  1  2  2  1  7  1       -2 0.470308245601D-03 0.100000000000D+01
-.457796619851D-05 0.000000000000D+00 -.147736896926D-05 0.503526237955D-08 0.000000000000D+00  7 -2 1 -24 -11 11 23 21 2 0.45398715D-01 0.33761803D+00 0.12972254D+06 0.12972254D+06 0.12972254D+06 0.11125641D+01  1  2  3  1  7  1       -2 -.692751249755D-05 0.100000000000D+01
0.237260522619D-04 0.000000000000D+00 0.000000000000D+00 0.503526237955D-08 0.000000000000D+00  7 -2 1 -24 -11 11 23 21 2 0.45398715D-01 0.33761803D+00 0.12972254D+06 0.12972254D+06 0.12972254D+06 0.11125641D+01  1  2 15  1  7  1       -2 0.359029569976D-04 0.100000000000D+01
0.838116610167D-03 0.000000000000D+00 0.000000000000D+00 0.503526237955D-08 0.000000000000D+00  7 -2 1 -24 -11 11 23 21 2 0.47023195D-01 0.33761803D+00 0.14112857D+06 0.14112857D+06 0.14112857D+06 0.11096473D+01  1  2 12  1  7  1       -2 0.117266304304D-02 0.100000000000D+01
-.826990912042D-03 0.000000000000D+00 0.000000000000D+00 0.503526237955D-08 0.000000000000D+00  7 -2 1 -24 -11 11 23 21 2 0.45398715D-01 0.33761803D+00 0.12972254D+06 0.12972254D+06 0.12972254D+06 0.11125641D+01  1  2  4  1  7  1       -2 -.125142686296D-02 0.100000000000D+01
-.745869560884D-02 0.000000000000D+00 -.120510687891D-02 0.503526237955D-08 0.000000000000D+00  7 -2 1 -24 -11 11 23 21 2 0.47255482D-01 0.33761803D+00 0.12972254D+06 0.12972254D+06 0.12972254D+06 0.11125641D+01  1  2  5  1  7  1       -2 -.104466558547D-01 0.100000000000D+01
0.750194183254D-02 0.000000000000D+00 0.120413934609D-02 0.503526237955D-08 0.000000000000D+00  7 -2 1 -24 -11 11 23 21 2 0.45398715D-01 0.33761803D+00 0.12972254D+06 0.12972254D+06 0.12972254D+06 0.11125641D+01  1  2  6  1  7  1       -2 0.113521580430D-01 0.100000000000D+01
0.175634602576D-04 0.000000000000D+00 0.000000000000D+00 0.503526237955D-08 0.000000000000D+00  7 21 1 -24 -11 11 23 2 2 0.47023195D-01 0.33761803D+00 0.14112857D+06 0.14112857D+06 0.14112857D+06 0.11096473D+01  1  2 12  3  7  1       -2 0.264976555665D-03 0.100000000000D+01
-.521466636514D-04 0.000000000000D+00 -.853690399290D-05 0.503526237955D-08 0.000000000000D+00  7 21 1 -24 -11 11 23 2 2 0.47255482D-01 0.33761803D+00 0.12972254D+06 0.12972254D+06 0.12972254D+06 0.11125641D+01  1  2  5  3  7  1       -2 -.788750044188D-03 0.100000000000D+01
  </mgrwgt>
  </event>
  <event>
  8     66 0.26562228E-05 0.21360635E+03 0.75467711E-02 0.10388239E+00
       -2 -1    0    0    0  501 0.00000000E+00 0.00000000E+00 0.66630518E+03 0.66630526E+03 0.32000000E+00 0.0000E+00 0.9000E+01
        1 -1    0    0  501    0 0.00000000E+00 0.00000000E+00 -.13805517E+03 0.13805554E+03 0.32000000E+00 0.0000E+00 0.9000E+01
       25  2    1    2    0    0 0.16646087E+02 -.13467726E+03 0.93704389E+02 0.34207066E+03 0.29969445E+03 0.0000E+00 0.0000E+00
       23  2    3    3    0    0 0.73679969E+02 -.41984932E+02 -.52853159E+02 0.13801405E+03 0.95199524E+02 0.0000E+00 0.0000E+00
      -24  1    1    2    0    0 -.16646087E+02 0.13467726E+03 0.43454563E+03 0.46229014E+03 0.80419002E+02 0.0000E+00 0.9000E+01
      -13  1    4    4    0    0 0.69767015E+02 -.70216612E+02 -.40426950E+02 0.10692127E+03 0.10565837E+00 0.0000E+00 0.9000E+01
       13  1    4    4    0    0 0.39129535E+01 0.28231681E+02 -.12426210E+02 0.31092778E+02 0.10565837E+00 0.0000E+00 0.9000E+01
       23  1    3    3    0    0 -.57033882E+02 -.92692332E+02 0.14655755E+03 0.20405661E+03 0.91188000E+02 0.0000E+00 0.9000E+01
#aMCatNLO 1  0  0  1  2 0.50812004D+02 0.00000000D+00  -5  7  0 0.00000000D+00 0.00000000D+00 0.00000000D+00 0.00000000D+00 0.00000000D+00
  <mgrwgt>
 0.1325339194D-02    3    2    0
 0.303293675044678D+03 0.000000000000000D+00 0.000000000000000D+00 0.303293675044678D+03
 0.303293675044678D+03 0.000000000000000D+00 0.000000000000000D+00 -.303293675044678D+03
 0.234590010576942D+03 -.166460871816562D+02 0.134677263518023D+03 0.173638128246525D+03
 0.176988373485335D+03 0.697670960443549D+02 -.702167246191500D+02 -.146720987736182D+03
 0.520516340038629D+02 0.391287582143817D+01 0.282317963649021D+02 -.435548812337814D+02
 0.142957332023216D+03 -.570338846841369D+02 -.926923352637755D+02 0.166377407234379D+02
 0.000000000000000D+00 0.000000000000000D+00 0.000000000000000D+00 -.000000000000000D+00
 0.304698914946358D+03 0.000000000000000D+00 0.000000000000000D+00 0.304698914946358D+03
 0.218613547228993D+04 0.000000000000000D+00 0.000000000000000D+00 -.218613547228993D+04
 0.227222954544789D+03 -.282310238409062D+02 0.119230301641948D+03 0.173638128246525D+03
 0.178807307918692D+03 0.608416852308801D+02 -.821175648757060D+02 -.146720987736182D+03
 0.501453456641157D+02 0.134918526782170D+01 0.248134582756604D+02 -.435548812337814D+02
 0.152536206306396D+03 -.644465694359906D+02 -.102576157862825D+03 0.166377407234379D+02
 0.188212257280230D+04 0.304867227781950D+02 0.406499628209219D+02 -.188143655734357D+04
0.594780276696D-04 0.000000000000D+00 0.000000000000D+00 0.290870513055D-06 0.000000000000D+00  7 -2 1 -24 -13 13 23 21 0 0.10250852D+00 0.21239291D-01 0.45627674D+05 0.45627674D+05 0.45627674D+05 0.11508075D+01  1  2  2  1  7  1       -2 0.130170642491D-02 0.100000000000D+01
-.281058509169D-05 0.000000000000D+00 -.228411287176D-06 0.290870513055D-06 0.000000000000D+00  7 -2 1 -24 -13 13 23 21 2 0.10250852D+00 0.21239291D-01 0.45627674D+05 0.45627674D+05 0.45627674D+05 0.11508075D+01  1  2  3  1  7  1       -2 -.814626669762D-04 0.100000000000D+01
0.362595134226D-05 0.000000000000D+00 0.000000000000D+00 0.290870513055D-06 0.000000000000D+00  7 -2 1 -24 -13 13 23 21 2 0.10250852D+00 0.21239291D-01 0.45627674D+05 0.45627674D+05 0.45627674D+05 0.11508075D+01  1  2 15  1  7  1       -2 0.105095436370D-03 0.100000000000D+01
  </mgrwgt>
  </event>
  <event>
  7     66 0.26562228E-05 0.30375274E+03 0.75467711E-02 0.92969400E-01
       -2 -1    0    0    0  501 0.00000000E+00 0.00000000E+00 0.61106096E+03 0.61106105E+03 0.32000000E+00 0.0000E+00 0.9000E+01
        1 -1    0    0  501    0 0.00000000E+00 0.00000000E+00 -.39276308E+03 0.39276321E+03 0.32000000E+00 0.0000E+00 0.9000E+01
       25  2    1    2    0    0 -.68621021E+02 0.21568694E+03 0.50536380E+03 0.62951989E+03 0.29945454E+03 0.0000E+00 0.0000E+00
      -24  1    1    2    0    0 0.68621021E+02 -.21568694E+03 -.28706591E+03 0.37430436E+03 0.80419002E+02 0.0000E+00 0.9000E+01
      -11  1    3    3    0    0 -.63159904E+02 0.93874140E+02 0.10257235E+03 0.15271743E+03 0.51099893E-03 0.0000E+00 0.9000E+01
       11  1    3    3    0    0 0.43486823E+02 0.14217856E+03 0.25600508E+03 0.29604805E+03 0.51099893E-03 0.0000E+00 0.9000E+01
       23  1    3    3    0    0 -.48947940E+02 -.20365763E+02 0.14678638E+03 0.18075441E+03 0.91188000E+02 0.0000E+00 0.9000E+01
#aMCatNLO 1  0  0  1  1 0.42934475D+03 0.00000000D+00  -5  7  0 0.00000000D+00 0.00000000D+00 0.00000000D+00 0.00000000D+00 0.00000000D+00
  <mgrwgt>
 0.1328519803D-02    3    2    0
 0.489900287483681D+03 0.000000000000000D+00 0.000000000000000D+00 0.489900287483681D+03
 0.489900287483681D+03 0.000000000000000D+00 0.000000000000000D+00 -.489900287483681D+03
 0.447439705713856D+03 0.686210205586076D+02 -.215686941771659D+03 -.377498838384458D+03
 0.133608960922518D+03 -.631599035633586D+02 0.938741400735019D+02 0.710621337008873D+02
 0.246269343183474D+03 0.434868230960425D+02 0.142178564793050D+03 0.196323053466529D+03
 0.152482565147515D+03 -.489479400912916D+02 -.203657630948922D+02 0.110113651217042D+03
 0.000000000000000D+00 0.000000000000000D+00 0.000000000000000D+00 -.000000000000000D+00
 0.598037642222613D+03 0.000000000000000D+00 0.000000000000000D+00 0.598037642222613D+03
 0.126443146387368D+04 0.000000000000000D+00 0.000000000000000D+00 -.126443146387368D+04
 0.494183385052501D+03 -.115622380278306D+03 -.286139990747085D+03 -.377498838384458D+03
 0.157032214657560D+03 -.120028431042363D+03 0.721281175107447D+02 0.710621337008873D+02
 0.228824391535986D+03 -.494727551676802D+02 0.106631643218658D+03 0.196323053466529D+03
 0.189701138765688D+03 -.115901575721265D+03 -.459682419282953D+02 0.110113651217042D+03
 0.792727976084558D+03 0.401025142209614D+03 0.153348471945977D+03 -.666393821651066D+03
0.189990200209D-03 0.000000000000D+00 0.000000000000D+00 0.914778762390D-08 0.000000000000D+00  7 -2 1 -24 -11 11 23 21 0 0.94009396D-01 0.60425105D-01 0.92265726D+05 0.92265726D+05 0.92265726D+05 0.11246022D+01  1  2  2  1  7  1       -2 0.129312377049D-02 0.100000000000D+01
-.762294380370D-05 0.000000000000D+00 -.729612394372D-06 0.914778762390D-08 0.000000000000D+00  7 -2 1 -24 -11 11 23 21 2 0.94009396D-01 0.60425105D-01 0.92265726D+05 0.92265726D+05 0.92265726D+05 0.11246022D+01  1  2  3  1  7  1       -2 -.656189817252D-04 0.100000000000D+01
0.117348936781D-04 0.000000000000D+00 0.000000000000D+00 0.914778762390D-08 0.000000000000D+00  7 -2 1 -24 -11 11 23 21 2 0.94009396D-01 0.60425105D-01 0.92265726D+05 0.92265726D+05 0.92265726D+05 0.11246022D+01  1  2 15  1  7  1       -2 0.101015013837D-03 0.100000000000D+01
  </mgrwgt>
  </event>
  <event>
  8     66 0.26562228E-05 0.29586940E+03 0.75467711E-02 0.83249694E-01
       -2 -1    0    0    0  501 0.00000000E+00 0.00000000E+00 0.34628523E+03 0.34628538E+03 0.32000000E+00 0.0000E+00 0.9000E+01
        1 -1    0    0  501    0 0.00000000E+00 0.00000000E+00 -.32249987E+03 0.32250003E+03 0.32000000E+00 0.0000E+00 0.9000E+01
       25  2    1    2    0    0 -.22991716E+03 0.12002505E+03 0.22570294E+02 0.39724055E+03 0.30003787E+03 0.0000E+00 0.0000E+00
       23  2    3    3    0    0 -.10643570E+03 0.49277020E+02 -.10606853E+03 0.18483492E+03 0.95690282E+02 0.0000E+00 0.0000E+00
      -24  1    1    2    0    0 0.22991716E+03 -.12002505E+03 0.12150689E+01 0.27154485E+03 0.80419002E+02 0.0000E+00 0.9000E+01
      -13  1    4    4    0    0 -.47727571E+01 0.49281675E+02 -.30368314E+02 0.58083632E+02 0.10565837E+00 0.0000E+00 0.9000E+01
       13  1    4    4    0    0 -.10166294E+03 -.46548963E-02 -.75700218E+02 0.12675128E+03 0.10565837E+00 0.0000E+00 0.9000E+01
       23  1    3    3    0    0 -.12348146E+03 0.70748033E+02 0.12863883E+03 0.21240564E+03 0.91188000E+02 0.0000E+00 0.9000E+01
#aMCatNLO 1  0  0  1  1 0.15083666D+04 0.00000000D+00  -5  7  0 0.00000000D+00 0.00000000D+00 0.00000000D+00 0.00000000D+00 0.00000000D+00
  <mgrwgt>
 0.8753756259D-03    5    2    0
 0.334181153074278D+03 0.000000000000000D+00 0.000000000000000D+00 0.334181153074278D+03
 0.334181153074278D+03 0.000000000000000D+00 0.000000000000000D+00 -.334181153074278D+03
 0.271673508099517D+03 0.229917161063472D+03 -.120025052572154D+03 -.844777203130003D+01
 0.592010455817754D+02 -.477264169667887D+01 0.492817294292830D+02 -.324545348706387D+02
 0.129525587645697D+03 -.101663053278063D+03 -.471163656252216D-02 -.802589648011060D+02
 0.207962164821568D+03 -.123481466088729D+03 0.707480347794339D+02 0.121161271703045D+03
 0.000000000000000D+00 0.000000000000000D+00 0.000000000000000D+00 0.000000000000000D+00
 0.174808437741445D+04 0.000000000000000D+00 0.000000000000000D+00 0.174808437741445D+04
 0.144102963193844D+04 0.000000000000000D+00 0.000000000000000D+00 -.144102963193844D+04
 0.349358282341015D+03 -.123003639174951D+03 -.316832342704023D+03 -.844777203130003D+01
 0.101372706269973D+03 -.960237143037766D+02 -.160469128974751D+01 -.324545348706387D+02
 0.520114046933609D+03 -.470841158540099D+03 -.205877934250685D+03 -.802589648011060D+02
 0.678966430798524D+03 -.627506468574582D+03 -.210322944406082D+03 0.121161271703045D+03
 0.153930254300977D+04 0.131737498059341D+04 0.734637912650537D+03 0.307054745476004D+03
0.287876119814D-04 0.000000000000D+00 0.000000000000D+00 0.264375438891D-06 0.000000000000D+00  7 -2 1 -24 -13 13 23 21 0 0.53274674D-01 0.49615388D-01 0.87538703D+05 0.87538703D+05 0.87538703D+05 0.11264963D+01  1  2  2  1  7  1       -2 0.864429081836D-03 0.100000000000D+01
-.157048074926D-05 0.000000000000D+00 -.110552009961D-06 0.264375438891D-06 0.000000000000D+00  7 -2 1 -24 -13 13 23 21 2 0.53274674D-01 0.49615388D-01 0.87538703D+05 0.87538703D+05 0.87538703D+05 0.11264963D+01  1  2  3  1  7  1       -2 -.598433461131D-04 0.100000000000D+01
0.184683348812D-05 0.000000000000D+00 0.000000000000D+00 0.264375438891D-06 0.000000000000D+00  7 -2 1 -24 -13 13 23 21 2 0.53274674D-01 0.49615388D-01 0.87538703D+05 0.87538703D+05 0.87538703D+05 0.11264963D+01  1  2 15  1  7  1       -2 0.703737984021D-04 0.100000000000D+01
0.599103229525D-04 0.000000000000D+00 -.211804950046D-04 0.264375438891D-06 0.000000000000D+00  7 -2 1 -24 -13 13 23 21 2 0.57864604D+00 0.49615388D-01 0.87538703D+05 0.87538703D+05 0.87538703D+05 0.11264963D+01  1  2  5  1  7  1       -2 0.106965288680D-06 0.100000000000D+01
0.131725172977D-04 0.000000000000D+00 -.595531547005D-05 0.264375438891D-06 0.000000000000D+00  7 21 1 -24 -13 13 23 2 2 0.57864604D+00 0.49615388D-01 0.87538703D+05 0.87538703D+05 0.87538703D+05 0.11264963D+01  1  2  5  3  7  1       -2 0.309126469289D-06 0.100000000000D+01
  </mgrwgt>
  </event>
  <event>
  8     66 0.26562228E-05 0.27838037E+03 0.75467711E-02 0.98167277E-01
       -2 -1    0    0    0  501 0.00000000E+00 0.00000000E+00 0.47620201E+02 0.47621276E+02 0.32000000E+00 0.0000E+00 0.9000E+01
        1 -1    0    0  501    0 0.00000000E+00 0.00000000E+00 -.20189448E+04 0.20189448E+04 0.32000000E+00 0.0000E+00 0.9000E+01
       25  2    1    2    0    0 -.87172535E+02 0.20009336E+03 -.96528404E+03 0.10339862E+04 0.29952931E+03 0.0000E+00 0.0000E+00
       23  2    3    3    0    0 -.12602078E+03 0.62571838E+02 -.27293063E+03 0.32118200E+03 0.94182140E+02 0.0000E+00 0.0000E+00
      -24  1    1    2    0    0 0.87172535E+02 -.20009336E+03 -.10060406E+04 0.10325799E+04 0.80419002E+02 0.0000E+00 0.9000E+01
      -13  1    4    4    0    0 -.10330291E+03 0.18344260E+02 -.11528022E+03 0.15587669E+03 0.10565837E+00 0.0000E+00 0.9000E+01
       13  1    4    4    0    0 -.22717865E+02 0.44227579E+02 -.15765042E+03 0.16530531E+03 0.10565837E+00 0.0000E+00 0.9000E+01
       23  1    3    3    0    0 0.38848240E+02 0.13752152E+03 -.69235340E+03 0.71280421E+03 0.91188000E+02 0.0000E+00 0.9000E+01
#aMCatNLO 1  0  0  1  1 0.15493868D+03 0.00000000D+00  -5  7  0 0.00000000D+00 0.00000000D+00 0.00000000D+00 0.00000000D+00 0.00000000D+00
  <mgrwgt>
 0.1348898572D-02    4    2    0
 0.310070466785828D+03 0.000000000000000D+00 0.000000000000000D+00 0.310070466785828D+03
 0.310070466785828D+03 0.000000000000000D+00 0.000000000000000D+00 -.310070466785828D+03
 0.242948152369405D+03 0.871725350623393D+02 -.200093361691800D+03 -.701440269945807D+02
 0.152989157837445D+03 -.103303012900933D+03 0.183442280817946D+02 0.111344776426573D+03
 0.497211505016929D+02 -.227177638573522D+02 0.442276074099977D+02 0.121471480983196D+00
 0.174482472863113D+03 0.388482416959459D+02 0.137521526200008D+03 -.413222209129756D+02
 0.000000000000000D+00 0.000000000000000D+00 0.000000000000000D+00 -.000000000000000D+00
 0.351842093545677D+03 0.000000000000000D+00 0.000000000000000D+00 0.351842093545677D+03
 0.505749571119212D+03 0.000000000000000D+00 0.000000000000000D+00 -.505749571119212D+03
 0.242506465605576D+03 0.295360615374501D+02 -.215753578074565D+03 -.701440269945807D+02
 0.181396797940805D+03 -.143003587524576D+03 0.755731571357198D+01 0.111344776426573D+03
 0.538295143160950D+02 -.350120029690352D+02 0.408871801948027D+02 0.121471480983196D+00
 0.161470455047431D+03 -.103837451525868D+01 0.126684065084799D+03 -.413222209129756D+02
 0.218388431754982D+03 0.149517903471420D+03 0.406250170813918D+02 -.153907477573535D+03
0.437103593472D-04 0.000000000000D+00 0.000000000000D+00 0.362739125549D-06 0.000000000000D+00  7 -2 1 -24 -13 13 23 21 0 0.73262694D-02 0.31060698D+00 0.77495628D+05 0.77495628D+05 0.77495628D+05 0.11309230D+01  1  2  2  1  7  1       -2 0.147175342410D-02 0.100000000000D+01
-.239403537271D-05 0.000000000000D+00 -.167859289095D-06 0.362739125549D-06 0.000000000000D+00  7 -2 1 -24 -13 13 23 21 2 0.73262694D-02 0.31060698D+00 0.77495628D+05 0.77495628D+05 0.77495628D+05 0.11309230D+01  1  2  3  1  7  1       -2 -.103097301866D-03 0.100000000000D+01
0.285788952343D-05 0.000000000000D+00 0.000000000000D+00 0.362739125549D-06 0.000000000000D+00  7 -2 1 -24 -13 13 23 21 2 0.73262694D-02 0.31060698D+00 0.77495628D+05 0.77495628D+05 0.77495628D+05 0.11309230D+01  1  2 15  1  7  1       -2 0.123072826013D-03 0.100000000000D+01
-.331668206648D-05 0.000000000000D+00 0.000000000000D+00 0.362739125549D-06 0.000000000000D+00  7 -2 1 -24 -13 13 23 21 2 0.73262694D-02 0.31060698D+00 0.77495628D+05 0.77495628D+05 0.77495628D+05 0.11309230D+01  1  2  4  1  7  1       -2 -.142830375899D-03 0.100000000000D+01
  </mgrwgt>
  </event>
  <event>
  9     66 0.26562228E-05 0.37316934E+03 0.75467711E-02 0.94842319E-01
       21 -1    0    0  502  501 0.00000000E+00 0.00000000E+00 0.82109355E+03 0.82109389E+03 0.75000000E+00 0.0000E+00 0.9000E+01
        1 -1    0    0  501    0 0.00000000E+00 0.00000000E+00 -.10140973E+04 0.10140973E+04 0.32000000E+00 0.0000E+00 0.9000E+01
       25  2    1    2    0    0 0.31693147E+03 -.31726457E+03 -.47291154E+03 0.71659036E+03 0.29791619E+03 0.0000E+00 0.0000E+00
       23  2    3    3    0    0 0.12613719E+03 -.22565977E+03 -.13803942E+03 0.31008269E+03 0.10130880E+03 0.0000E+00 0.0000E+00
      -24  1    1    2    0    0 -.24533243E+03 0.13137857E+03 -.35209687E+03 0.45594709E+03 0.80419002E+02 0.0000E+00 0.9000E+01
      -11  1    4    4    0    0 0.56698123E+02 -.62067255E+02 -.95718815E+02 0.12739354E+03 0.51099893E-03 0.0000E+00 0.9000E+01
       11  1    4    4    0    0 0.69439063E+02 -.16359252E+03 -.42320606E+02 0.18268916E+03 0.51099893E-03 0.0000E+00 0.9000E+01
       23  1    3    3    0    0 0.19079428E+03 -.91604803E+02 -.33487212E+03 0.40650767E+03 0.91188000E+02 0.0000E+00 0.9000E+01
        2  1    1    2  502    0 -.71599039E+02 0.18588601E+03 0.63200466E+03 0.66265378E+03 0.32000000E+00 0.0000E+00 0.9000E+01
#aMCatNLO 2  0  0  1  2 0.19919847D+03 0.00000000D+00  -5  7  0 0.00000000D+00 0.00000000D+00 0.00000000D+00 0.00000000D+00 0.00000000D+00
  <mgrwgt>
 0.7187077775D-03    2    2    0
 0.404513650556256D+03 0.000000000000000D+00 0.000000000000000D+00 0.404513650556256D+03
 0.404513650556256D+03 0.000000000000000D+00 0.000000000000000D+00 -.404513650556256D+03
 0.353658233286122D+03 -.273526483146896D+03 0.204576199724293D+03 -.440314835129085D+02
 0.677454256277176D+02 0.500603560717724D+02 -.448342302890321D+02 -.856126379911357D+01
 0.177884842350741D+03 0.523013407962809D+02 -.119099422570586D+03 0.121338017259276D+03
 0.209738799847930D+03 0.171164786278843D+03 -.406425468646752D+02 -.687452699472541D+02
 0.000000000000000D+00 -.000000000000000D+00 0.000000000000000D+00 0.000000000000000D+00
 0.196854592595811D+04 0.000000000000000D+00 0.000000000000000D+00 0.196854592595811D+04
 0.422986847389238D+03 0.000000000000000D+00 0.000000000000000D+00 -.422986847389238D+03
 0.293009071301309D+03 -.245332428744450D+03 0.131378566655627D+03 -.440314835129085D+02
 0.845003937318944D+02 0.566981231014637D+02 -.620672549721545D+02 -.856126379911357D+01
 0.215191098825786D+03 0.694390627612007D+02 -.163592515550935D+03 0.121338017259276D+03
 0.240489212799441D+03 0.190794281990217D+03 -.916048030870192D+02 -.687452699472541D+02
 0.155834299668891D+04 -.715990391084308D+02 0.185886006954482D+03 0.154555907856887D+04
-.901843557202D-04 0.000000000000D+00 0.000000000000D+00 0.767416625855D-08 0.000000000000D+00  7 21 1 -24 -11 11 23 2 2 0.12364883D+00 0.14920132D+00 0.24064900D+06 0.24064900D+06 0.24064900D+06 0.10917068D+01  1  2 13  3  7  1       -2 -.838580082315D-03 0.100000000000D+01
0.192215439551D-03 0.000000000000D+00 0.000000000000D+00 0.767416625855D-08 0.650295838146D-12  7 21 1 -24 -11 11 23 2 2 0.12632211D+00 0.15601499D+00 0.24064900D+06 0.24064900D+06 0.24064900D+06 0.10917068D+01  1  2  1  3  7  1       -2 0.155728785979D-02 0.100000000000D+01
  </mgrwgt>
  </event>
  <event>
  8     66 0.26562228E-05 0.18464624E+03 0.75467711E-02 0.99978573E-01
       -2 -1    0    0    0  501 0.00000000E+00 0.00000000E+00 0.66860960E+02 0.66861725E+02 0.32000000E+00 0.0000E+00 0.9000E+01
        1 -1    0    0  501    0 0.00000000E+00 0.00000000E+00 -.16105076E+04 0.16105076E+04 0.32000000E+00 0.0000E+00 0.9000E+01
       25  2    1    2    0    0 0.17342828E+03 0.14232863E+03 -.12150206E+04 0.12714173E+04 0.29981995E+03 0.0000E+00 0.0000E+00
       23  2    3    3    0    0 0.91834677E+02 0.18376817E+03 -.55406535E+03 0.59795469E+03 0.91416875E+02 0.0000E+00 0.0000E+00
      -24  1    1    2    0    0 -.17342828E+03 -.14232863E+03 -.32862600E+03 0.40595205E+03 0.80419002E+02 0.0000E+00 0.9000E+01
      -11  1    4    4    0    0 -.81625681E+01 0.79660180E+02 -.18032744E+03 0.19730777E+03 0.51099893E-03 0.0000E+00 0.9000E+01
       11  1    4    4    0    0 0.99997246E+02 0.10410799E+03 -.37373791E+03 0.40064692E+03 0.51099893E-03 0.0000E+00 0.9000E+01
       23  1    3    3    0    0 0.81593599E+02 -.41439549E+02 -.66095530E+03 0.67346262E+03 0.91188000E+02 0.0000E+00 0.9000E+01
#aMCatNLO 1  0  0  1  2 0.47634860D+02 0.00000000D+00  -5  7  0 0.00000000D+00 0.00000000D+00 0.00000000D+00 0.00000000D+00 0.00000000D+00
  <mgrwgt>
 0.7471433872D-03    9    2    0
 0.328147455966081D+03 0.000000000000000D+00 0.000000000000000D+00 0.328147455966081D+03
 0.328147455966081D+03 0.000000000000000D+00 0.000000000000000D+00 -.328147455966081D+03
 0.264590063148158D+03 -.173428276176854D+03 -.142328625513815D+03 0.114916843604619D+03
 0.801410540339388D+02 -.816256808217919D+01 0.796601798887860D+02 0.319636732256114D+01
 0.144925070384883D+03 0.999972455416547D+02 0.104107994746311D+03 -.128589400825839D+02
 0.166638724365183D+03 0.815935987173785D+02 -.414395491212816D+02 -.105254270844596D+03
 0.000000000000000D+00 -.000000000000000D+00 -.000000000000000D+00 0.000000000000000D+00
 0.361758818904963D+03 0.000000000000000D+00 0.000000000000000D+00 0.361758818904963D+03
 0.346332873909713D+03 0.000000000000000D+00 0.000000000000000D+00 -.346332873909713D+03
 0.249550540291512D+03 -.162551121611195D+03 -.127198695450500D+03 0.114916843604619D+03
 0.847006267668243D+02 -.467517877867459D+01 0.845110768717307D+02 0.319636732256114D+01
 0.155678312246076D+03 0.106356808342107D+03 0.112954034381335D+03 -.128589400825839D+02
 0.168091866333726D+03 0.886751564635050D+02 -.315892272570975D+02 -.105254270844596D+03
 0.500703471765370D+02 -.278056644157420D+02 -.386771885454674D+02 0.154259449952491D+02
0.165975859937D-04 0.000000000000D+00 0.000000000000D+00 0.340105398636D-05 0.000000000000D+00  7 -2 1 -24 -11 11 23 21 0 0.10286363D-01 0.24777046D+00 0.87601879D+05 0.87601879D+05 0.87601879D+05 0.11264702D+01  1  2  2  1  7  1       -2 0.613854271351D-03 0.100000000000D+01
-.910151518705D-06 0.000000000000D+00 -.637391004604D-07 0.340105398636D-05 0.000000000000D+00  7 -2 1 -24 -11 11 23 21 2 0.10286363D-01 0.24777046D+00 0.87601879D+05 0.87601879D+05 0.87601879D+05 0.11264702D+01  1  2  3  1  7  1       -2 -.427143193490D-04 0.100000000000D+01
0.108206389036D-05 0.000000000000D+00 0.000000000000D+00 0.340105398636D-05 0.000000000000D+00  7 -2 1 -24 -11 11 23 21 2 0.10286363D-01 0.24777046D+00 0.87601879D+05 0.87601879D+05 0.87601879D+05 0.11264702D+01  1  2 15  1  7  1       -2 0.507823385654D-04 0.100000000000D+01
0.243494585465D-04 0.000000000000D+00 0.000000000000D+00 0.340105398636D-05 0.000000000000D+00  7 -2 1 -24 -11 11 23 21 2 0.11601997D-01 0.24777046D+00 0.10239900D+06 0.10239900D+06 0.10239900D+06 0.11208781D+01  1  2 12  1  7  1       -2 0.935437661579D-03 0.100000000000D+01
-.226928340654D-04 0.000000000000D+00 0.000000000000D+00 0.340105398636D-05 0.000000000000D+00  7 -2 1 -24 -11 11 23 21 2 0.10286363D-01 0.24777046D+00 0.87601879D+05 0.87601879D+05 0.87601879D+05 0.11264702D+01  1  2  4  1  7  1       -2 -.106499735624D-02 0.100000000000D+01
-.625509397923D-04 0.000000000000D+00 -.148547715779D-04 0.340105398636D-05 0.000000000000D+00  7 -2 1 -24 -11 11 23 21 2 0.12019585D-01 0.24777046D+00 0.87601879D+05 0.87601879D+05 0.87601879D+05 0.11264702D+01  1  2  5  1  7  1       -2 -.230446656681D-02 0.100000000000D+01
0.642617081685D-04 0.000000000000D+00 0.146764726435D-04 0.340105398636D-05 0.000000000000D+00  7 -2 1 -24 -11 11 23 21 2 0.10286363D-01 0.24777046D+00 0.87601879D+05 0.87601879D+05 0.87601879D+05 0.11264702D+01  1  2  6  1  7  1       -2 0.301586611482D-02 0.100000000000D+01
0.463159998149D-06 0.000000000000D+00 0.000000000000D+00 0.340105398636D-05 0.000000000000D+00  7 21 1 -24 -11 11 23 2 2 0.11601997D-01 0.24777046D+00 0.10239900D+06 0.10239900D+06 0.10239900D+06 0.11208781D+01  1  2 12  3  7  1       -2 0.252547704191D-03 0.100000000000D+01
-.136032259575D-05 0.000000000000D+00 -.349235535009D-06 0.340105398636D-05 0.000000000000D+00  7 21 1 -24 -11 11 23 2 2 0.12019585D-01 0.24777046D+00 0.87601879D+05 0.87601879D+05 0.87601879D+05 0.11264702D+01  1  2  5  3  7  1       -2 -.709166460878D-03 0.100000000000D+01
  </mgrwgt>
  </event>
  <event>
  8     66 0.26562228E-05 0.56541935E+03 0.75467711E-02 0.87580221E-01
       -2 -1    0    0    0  501 0.00000000E+00 0.00000000E+00 0.14896301E+03 0.14896335E+03 0.32000000E+00 0.0000E+00 0.9000E+01
        1 -1    0    0  501    0 0.00000000E+00 0.00000000E+00 -.34734074E+04 0.34734075E+04 0.32000000E+00 0.0000E+00 0.9000E+01
       25  2    1    2    0    0 0.39896285E+03 0.36551181E+03 -.67114079E+03 0.91326437E+03 0.30141602E+03 0.0000E+00 0.0000E+00
       23  2    3    3    0    0 0.27692314E+03 0.16088899E+03 -.23828332E+03 0.41082529E+03 0.97091643E+02 0.0000E+00 0.0000E+00
      -24  1    1    2    0    0 -.39896285E+03 -.36551181E+03 -.26533036E+04 0.27091064E+04 0.80419002E+02 0.0000E+00 0.9000E+01
      -11  1    4    4    0    0 0.27994740E+03 0.16393368E+03 -.21983140E+03 0.39188091E+03 0.51099893E-03 0.0000E+00 0.9000E+01
       11  1    4    4    0    0 -.30242643E+01 -.30446914E+01 -.18451922E+02 0.18944386E+02 0.51099893E-03 0.0000E+00 0.9000E+01
       23  1    3    3    0    0 0.12203971E+03 0.20462282E+03 -.43285747E+03 0.50243908E+03 0.91188000E+02 0.0000E+00 0.9000E+01
#aMCatNLO 1  0  0  2  2 0.66963641D+03 0.00000000D+00  -5  7  0 0.00000000D+00 0.00000000D+00 0.00000000D+00 0.00000000D+00 0.00000000D+00
  <mgrwgt>
 0.1382672566D-02    6    2    0
 0.719312075924942D+03 0.000000000000000D+00 0.000000000000000D+00 0.719312075924942D+03
 0.719312075924942D+03 0.000000000000000D+00 0.000000000000000D+00 -.719312075924942D+03
 0.689983915557291D+03 -.398962845440713D+03 -.365511807212734D+03 -.420523904813189D+03
 0.478735656117308D+03 0.279947403601437D+03 0.163933678399848D+03 0.352055434187826D+03
 0.506122461101296D+01 -.302426430592341D+01 -.304469144712722D+01 -.268322081887251D+01
 0.264843355564273D+03 0.122039706145199D+03 0.204622820260013D+03 0.711516914442361D+02
 0.000000000000000D+00 0.000000000000000D+00 -.000000000000000D+00 -.000000000000000D+00
 0.100051363635093D+04 0.000000000000000D+00 0.000000000000000D+00 0.100051363635093D+04
 0.133473162559293D+04 0.000000000000000D+00 0.000000000000000D+00 -.133473162559293D+04
 0.872176872950451D+03 -.721041879064771D+03 -.239757243625024D+03 -.420523904813189D+03
 0.434427160019673D+03 0.916757483873971D+02 0.237443647586519D+03 0.352055434187826D+03
 0.637850025815824D+01 -.538285348438269D+01 -.212378905406414D+01 -.268322081887251D+01
 0.273854691144225D+03 0.109734525460544D+02 0.247988226860758D+03 0.711516914442361D+02
 0.748408037571359D+03 0.623775531615702D+03 -.243550841768189D+03 -.334217989242003D+03
0.222696909513D-02 0.000000000000D+00 0.000000000000D+00 0.232154848088D-06 0.000000000000D+00  7 -2 1 -24 -11 11 23 21 0 0.22917413D-01 0.53437040D+00 0.31969904D+06 0.31969904D+06 0.31969904D+06 0.10825143D+01  1  2  2  2  7  2        1 0.102787168477D-02 0.100000000000D+01
-.115003343788D-03 0.000000000000D+00 -.855214769972D-05 0.232154848088D-06 0.000000000000D+00  7 -2 1 -24 -11 11 23 21 2 0.22917413D-01 0.53437040D+00 0.31969904D+06 0.31969904D+06 0.31969904D+06 0.10825143D+01  1  2  3  2  7  2        1 -.622017310099D-04 0.100000000000D+01
0.141191134876D-03 0.000000000000D+00 0.000000000000D+00 0.232154848088D-06 0.000000000000D+00  7 -2 1 -24 -11 11 23 21 2 0.22917413D-01 0.53437040D+00 0.31969904D+06 0.31969904D+06 0.31969904D+06 0.10825143D+01  1  2 15  2  7  2        1 0.763658925320D-04 0.100000000000D+01
-.407179199763D-03 0.000000000000D+00 -.382034546089D-03 0.232154848088D-06 0.000000000000D+00  7 -2 1 -24 -11 11 23 21 2 0.22917413D-01 0.99278130D+00 0.31969904D+06 0.31969904D+06 0.31969904D+06 0.10825143D+01  1  2  5  2  7  2        1 -.521887323773D-09 0.100000000000D+01
0.629796329002D-03 0.000000000000D+00 0.341399522360D-03 0.232154848088D-06 0.000000000000D+00  7 -2 1 -24 -11 11 23 21 2 0.22917413D-01 0.53437040D+00 0.31969904D+06 0.31969904D+06 0.31969904D+06 0.10825143D+01  1  2  6  2  7  2        1 0.340637241991D-03 0.100000000000D+01
-.626241153051D-05 0.000000000000D+00 -.257955615764D-04 0.232154848088D-06 0.000000000000D+00  7 -2 21 -24 -11 11 23 -1 2 0.22917413D-01 0.99278130D+00 0.31969904D+06 0.31969904D+06 0.31969904D+06 0.10825143D+01  1  2  5  4  7  2        1 -.853598108609D-13 0.100000000000D+01
  </mgrwgt>
  </event>
  <event>
  9     66 0.26562228E-05 0.23422132E+03 0.75467711E-02 0.10356298E+00
       -2 -1    0    0    0  501 0.00000000E+00 0.00000000E+00 0.33563028E+02 0.33564553E+02 0.32000000E+00 0.0000E+00 0.9000E+01
       21 -1    0    0  501  502 0.00000000E+00 0.00000000E+00 -.22338175E+04 0.22338176E+04 0.75000000E+00 0.0000E+00 0.9000E+01
       25  2    1    2    0    0 -.62493959E+02 -.14239705E+03 -.17653956E+04 0.17973644E+04 0.29952418E+03 0.0000E+00 0.0000E+00
       23  2    3    3    0    0 -.67855119E+02 0.44553798E+02 -.47687904E+03 0.49215578E+03 0.90632959E+02 0.0000E+00 0.0000E+00
      -24  1    1    2    0    0 0.57918740E+02 0.12389199E+03 -.39942501E+03 0.42978060E+03 0.80419002E+02 0.0000E+00 0.9000E+01
      -13  1    4    4    0    0 0.11576189E+01 0.31196243E+02 -.46076834E+02 0.55656369E+02 0.10565837E+00 0.0000E+00 0.9000E+01
       13  1    4    4    0    0 -.69012738E+02 0.13357555E+02 -.43080221E+03 0.43649941E+03 0.10565837E+00 0.0000E+00 0.9000E+01
       23  1    3    3    0    0 0.53611594E+01 -.18695085E+03 -.12885165E+04 0.13052086E+04 0.91188000E+02 0.0000E+00 0.9000E+01
       -1  1    1    2    0  502 0.45752197E+01 0.18505066E+02 -.35433857E+02 0.40237181E+02 0.32000000E+00 0.0000E+00 0.9000E+01
#aMCatNLO 2  0  0  2  2 0.19062269D+02 0.00000000D+00  -5  7  0 0.00000000D+00 0.00000000D+00 0.00000000D+00 0.00000000D+00 0.00000000D+00
  <mgrwgt>
 0.8083069229D-05    1    2    0
 0.261420718486497D+03 0.000000000000000D+00 0.000000000000000D+00 0.261420718486497D+03
 0.261420718486497D+03 0.000000000000000D+00 0.000000000000000D+00 -.261420718486497D+03
 0.181810043889281D+03 0.594872638527972D+02 0.130236085369805D+03 0.780224558156698D+02
 0.474126311409312D+02 0.156746090989530D+01 0.328535409419682D+02 0.341488726838291D+02
 0.754902525838133D+02 -.683521066842782D+02 0.160299218870698D+02 -.277454383869389D+02
 0.218128509358968D+03 0.729738192158572D+01 -.179119548198843D+03 -.844258901125601D+02
 0.000000000000000D+00 0.000000000000000D+00 0.000000000000000D+00 0.000000000000000D+00
 0.281754334659416D+03 0.000000000000000D+00 0.000000000000000D+00 0.281754334659416D+03
 0.266100502841072D+03 0.000000000000000D+00 0.000000000000000D+00 -.266100502841072D+03
 0.176800805312769D+03 0.579187399801449D+02 0.123891988249755D+03 0.780224558156698D+02
 0.462676220004684D+02 0.115771392712735D+01 0.311962664186725D+02 0.341488726838291D+02
 0.755711852508444D+02 -.690128325714288D+02 0.133575308123155D+02 -.277454383869389D+02
 0.224549204526141D+03 0.536115895547933D+01 -.186950851730285D+03 -.844258901125601D+02
 0.246660204102648D+02 0.457521970867718D+01 0.185050662495422D+02 0.156538318183436D+02
0.329779862520D-06 0.000000000000D+00 0.000000000000D+00 0.903984211353D-06 0.598855531466D-10  7 -2 21 -24 -13 13 23 -1 2 0.51636498D-02 0.34366302D+00 0.59365566D+05 0.59365566D+05 0.59365566D+05 0.11407939D+01  1  2  1  4  7  2        1 0.808306922852D-05 0.100000000000D+01
  </mgrwgt>
  </event>
  <event>
  8     66 0.26562228E-05 0.36275448E+03 0.75467711E-02 0.93231515E-01
       -2 -1    0    0    0  501 0.00000000E+00 0.00000000E+00 0.44277671E+02 0.44278827E+02 0.32000000E+00 0.0000E+00 0.9000E+01
        1 -1    0    0  501    0 0.00000000E+00 0.00000000E+00 -.33366930E+04 0.33366930E+04 0.32000000E+00 0.0000E+00 0.9000E+01
       25  2    1    2    0    0 -.29337430E+03 -.93268994E+02 -.14983665E+04 0.15589273E+04 0.30064072E+03 0.0000E+00 0.0000E+00
       23  2    3    3    0    0 -.14945091E+03 0.75376559E+02 -.68987780E+03 0.71564541E+03 0.90552583E+02 0.0000E+00 0.0000E+00
      -24  1    1    2    0    0 0.29337430E+03 0.93268994E+02 -.17940489E+04 0.18220445E+04 0.80419002E+02 0.0000E+00 0.9000E+01
      -11  1    4    4    0    0 -.37641203E+02 0.23233357E+02 -.64472885E+02 0.78188246E+02 0.51099893E-03 0.0000E+00 0.9000E+01
       11  1    4    4    0    0 -.11180971E+03 0.52143201E+02 -.62540492E+03 0.63745717E+03 0.51099893E-03 0.0000E+00 0.9000E+01
       23  1    3    3    0    0 -.14392339E+03 -.16864555E+03 -.80848865E+03 0.84328193E+03 0.91188000E+02 0.0000E+00 0.9000E+01
#aMCatNLO 1  0  0  1  2 0.33136162D+03 0.00000000D+00  -5  7  0 0.00000000D+00 0.00000000D+00 0.00000000D+00 0.00000000D+00 0.00000000D+00
  <mgrwgt>
 0.1393398035D-02    3    2    0
 0.384373485887938D+03 0.000000000000000D+00 0.000000000000000D+00 0.384373485887938D+03
 0.384373485887938D+03 0.000000000000000D+00 0.000000000000000D+00 -.384373485887938D+03
 0.329792702549938D+03 0.293374299441601D+03 0.932689936680668D+02 -.867665024540971D+02
 0.677475789691373D+02 -.376412026006720D+02 0.232333572083610D+02 0.513135989361822D+02
 0.125050229575279D+03 -.111809711374740D+03 0.521432014742847D+02 -.204263285770907D+02
 0.246156460681522D+03 -.143923385466189D+03 -.168645552350712D+03 0.558792320950056D+02
 0.000000000000000D+00 0.000000000000000D+00 -.000000000000000D+00 -.000000000000000D+00
 0.534809347631861D+03 0.000000000000000D+00 0.000000000000000D+00 0.534809347631861D+03
 0.654693770012159D+03 0.000000000000000D+00 0.000000000000000D+00 -.654693770012159D+03
 0.305470516729918D+03 0.206538464774489D+03 0.191463984230333D+03 -.867665024540971D+02
 0.920233805558312D+02 -.594807239279790D+02 0.479297466521941D+02 0.513135989361822D+02
 0.184935868095455D+03 -.154182543154540D+03 0.100058901630383D+03 -.204263285770907D+02
 0.254691747471341D+03 -.212385671454955D+03 -.912275883003926D+02 0.558792320950056D+02
 0.352381604791474D+03 0.219510473762985D+03 -.248225044212518D+03 -.119884422380298D+03
0.318555457367D-03 0.000000000000D+00 0.000000000000D+00 0.183939863856D-05 0.000000000000D+00  7 -2 1 -24 -11 11 23 21 0 0.68120395D-02 0.51333748D+00 0.13159081D+06 0.13159081D+06 0.13159081D+06 0.11120676D+01  1  2  2  1  7  1       -2 0.137874223579D-02 0.100000000000D+01
-.176254183176D-04 0.000000000000D+00 -.122333683387D-05 0.183939863856D-05 0.000000000000D+00  7 -2 1 -24 -11 11 23 21 2 0.68120395D-02 0.51333748D+00 0.13159081D+06 0.13159081D+06 0.13159081D+06 0.11120676D+01  1  2  3  1  7  1       -2 -.943408547547D-04 0.100000000000D+01
0.203635172713D-04 0.000000000000D+00 0.000000000000D+00 0.183939863856D-05 0.000000000000D+00  7 -2 1 -24 -11 11 23 21 2 0.68120395D-02 0.51333748D+00 0.13159081D+06 0.13159081D+06 0.13159081D+06 0.11120676D+01  1  2 15  1  7  1       -2 0.108996654183D-03 0.100000000000D+01
  </mgrwgt>
  </event>
  <event>
  8     66 0.26562228E-05 0.54187078E+03 0.75467711E-02 0.92942554E-01
       -2 -1    0    0    0  501 0.00000000E+00 0.00000000E+00 0.11232028E+04 0.11232028E+04 0.32000000E+00 0.0000E+00 0.9000E+01
        1 -1    0    0  501    0 0.00000000E+00 0.00000000E+00 -.86474530E+03 0.86474536E+03 0.32000000E+00 0.0000E+00 0.9000E+01
       25  2    1    2    0    0 0.49475796E+03 0.10739857E+03 -.69219286E+03 0.90789116E+03 0.29801931E+03 0.0000E+00 0.0000E+00
       23  2    3    3    0    0 0.38669611E+03 -.26613449E+01 -.39121994E+03 0.55761913E+03 0.91351415E+02 0.0000E+00 0.0000E+00
      -24  1    1    2    0    0 -.49475796E+03 -.10739857E+03 0.95065033E+03 0.10800570E+04 0.80419002E+02 0.0000E+00 0.9000E+01
      -11  1    4    4    0    0 0.33948521E+03 0.18943760E+02 -.36709684E+03 0.50036902E+03 0.51099893E-03 0.0000E+00 0.9000E+01
       11  1    4    4    0    0 0.47210907E+02 -.21605105E+02 -.24123107E+02 0.57250105E+02 0.51099893E-03 0.0000E+00 0.9000E+01
       23  1    3    3    0    0 0.10806185E+03 0.11005991E+03 -.30097292E+03 0.35027203E+03 0.91188000E+02 0.0000E+00 0.9000E+01
#aMCatNLO 1  0  0  1  2 0.77636959D+02 0.00000000D+00  -5  7  0 0.00000000D+00 0.00000000D+00 0.00000000D+00 0.00000000D+00 0.00000000D+00
  <mgrwgt>
 0.1392718137D-02    4    2    0
 0.985537629047199D+03 0.000000000000000D+00 0.000000000000000D+00 0.985537629047199D+03
 0.985537629047199D+03 0.000000000000000D+00 0.000000000000000D+00 -.985537629047199D+03
 0.964648449180171D+03 -.494757959963727D+03 -.107398566269868D+03 0.817165542327285D+03
 0.552787926238133D+03 0.339485206209719D+03 0.189437598250845D+02 -.435850226709922D+03
 0.609033261245790D+02 0.472109068785895D+02 -.216051046831017D+02 -.318365333598087D+02
 0.392735556551515D+03 0.108061846875419D+03 0.110059911127885D+03 -.349478782257555D+03
 0.000000000000000D+00 0.000000000000000D+00 0.000000000000000D+00 -.000000000000000D+00
 0.997850037418712D+03 0.000000000000000D+00 0.000000000000000D+00 0.997850037418712D+03
 0.111678734840686D+04 0.000000000000000D+00 0.000000000000000D+00 -.111678734840686D+04
 0.976933504677614D+03 -.509754831539762D+03 -.142556461663920D+03 0.817165542327285D+03
 0.547283803358577D+03 0.330988199724667D+03 -.976185721519062D+00 -.435850226709922D+03
 0.610036977230139D+02 0.462692912145036D+02 -.238125800789859D+02 -.318365333598087D+02
 0.387382646899893D+03 0.102036176680018D+03 0.959336394361624D+02 -.349478782257555D+03
 0.142033733166479D+03 0.304611639205726D+02 0.714115880282625D+02 -.118937310988152D+03
0.395552114804D-02 0.000000000000D+00 0.000000000000D+00 0.509920981818D-05 0.000000000000D+00  7 -2 1 -24 -11 11 23 21 0 0.17280043D+00 0.13303775D+00 0.29362394D+06 0.29362394D+06 0.29362394D+06 0.10852428D+01  1  2  2  1  7  1       -2 0.165940567702D-02 0.100000000000D+01
-.124153552765D-03 0.000000000000D+00 -.151902427211D-04 0.509920981818D-05 0.000000000000D+00  7 -2 1 -24 -11 11 23 21 2 0.17280043D+00 0.13303775D+00 0.29362394D+06 0.29362394D+06 0.29362394D+06 0.10852428D+01  1  2  3  1  7  1       -2 -.613425519593D-04 0.100000000000D+01
0.247883078538D-03 0.000000000000D+00 0.000000000000D+00 0.509920981818D-05 0.000000000000D+00  7 -2 1 -24 -11 11 23 21 2 0.17280043D+00 0.13303775D+00 0.29362394D+06 0.29362394D+06 0.29362394D+06 0.10852428D+01  1  2 15  1  7  1       -2 0.122475598051D-03 0.100000000000D+01
-.663488706673D-03 0.000000000000D+00 0.000000000000D+00 0.509920981818D-05 0.000000000000D+00  7 -2 1 -24 -11 11 23 21 2 0.17280043D+00 0.13303775D+00 0.29362394D+06 0.29362394D+06 0.29362394D+06 0.10852428D+01  1  2  4  1  7  1       -2 -.327820586339D-03 0.100000000000D+01
  </mgrwgt>
  </event>
  <event>
  8     66 0.26562228E-05 0.10542789E+03 0.75467711E-02 0.10316757E+00
       -2 -1    0    0    0  501 0.00000000E+00 0.00000000E+00 0.18784748E+03 0.18784775E+03 0.32000000E+00 0.0000E+00 0.9000E+01
        1 -1    0    0  501    0 0.00000000E+00 0.00000000E+00 -.54866567E+03 0.54866576E+03 0.32000000E+00 0.0000E+00 0.9000E+01
       25  2    1    2    0    0 -.72852472E+02 0.40737254E+02 -.47880358E+03 0.57112073E+03 0.29993167E+03 0.0000E+00 0.0000E+00
       23  2    3    3    0    0 -.32964969E+02 -.81404832E+02 -.93954240E+02 0.15526743E+03 0.86989301E+02 0.0000E+00 0.0000E+00
      -24  1    1    2    0    0 0.72852472E+02 -.40737254E+02 0.11798539E+03 0.16539279E+03 0.80419002E+02 0.0000E+00 0.9000E+01
      -13  1    4    4    0    0 -.52591330E+02 -.71200398E+02 -.40354337E+02 0.97282209E+02 0.10565837E+00 0.0000E+00 0.9000E+01
       13  1    4    4    0    0 0.19626361E+02 -.10204434E+02 -.53599903E+02 0.57985217E+02 0.10565837E+00 0.0000E+00 0.9000E+01
       23  1    3    3    0    0 -.39887503E+02 0.12214209E+03 -.38484934E+03 0.41585330E+03 0.91188000E+02 0.0000E+00 0.9000E+01
#aMCatNLO 1  0  0  2  1 0.10560261D+03 0.00000000D+00  -5  7  0 0.00000000D+00 0.00000000D+00 0.00000000D+00 0.00000000D+00 0.00000000D+00
  <mgrwgt>
 0.4940138547D-03    7    2    0
 0.321038311818000D+03 0.000000000000000D+00 0.000000000000000D+00 0.321038311818000D+03
 0.321038311818000D+03 0.000000000000000D+00 0.000000000000000D+00 -.321038311818000D+03
 0.256021310414475D+03 0.728524717185222D+02 -.407372541694317D+02 0.228282038100266D+03
 0.889132707877549D+02 -.525914359083598D+02 -.712004875960784D+02 0.837861309252383D+01
 0.363928921359875D+02 0.196264671496843D+02 -.102043446555478D+02 -.288983690784580D+02
 0.260749150297784D+03 -.398875029598467D+02 0.122142086421058D+03 -.207762282114332D+03
 0.000000000000000D+00 0.000000000000000D+00 -.000000000000000D+00 -.000000000000000D+00
 0.333958238819128D+03 0.000000000000000D+00 0.000000000000000D+00 0.333958238819128D+03
 0.649279737570543D+03 0.000000000000000D+00 0.000000000000000D+00 -.649279737570543D+03
 0.249608903634983D+03 0.610191896769229D+02 -.116550051388241D+01 0.228282038100266D+03
 0.813664721875896D+02 -.565764988429122D+02 -.578740133183931D+02 0.837861309252383D+01
 0.343490630064660D+02 0.179708906352379D+02 -.466792071523464D+01 -.288983690784580D+02
 0.285378489651372D+03 -.526685477128393D+02 0.164883259381186D+03 -.207762282114332D+03
 0.332535047909260D+03 0.302549662435906D+02 -.101175824833676D+03 -.315321498751415D+03
0.243384388509D-04 0.000000000000D+00 0.000000000000D+00 0.543984311358D-06 0.000000000000D+00  7 -2 1 -24 -13 13 23 21 0 0.28899640D-01 0.84410131D-01 0.36883934D+05 0.36883934D+05 0.36883934D+05 0.11591023D+01  1  2  2  2  7  2        1 0.111802766495D-02 0.100000000000D+01
-.918144101331D-06 0.000000000000D+00 -.934660136454D-07 0.543984311358D-06 0.000000000000D+00  7 -2 1 -24 -13 13 23 21 2 0.28899640D-01 0.84410131D-01 0.36883934D+05 0.36883934D+05 0.36883934D+05 0.11591023D+01  1  2  3  2  7  2        1 -.566649139327D-04 0.100000000000D+01
0.154072733727D-05 0.000000000000D+00 0.000000000000D+00 0.543984311358D-06 0.000000000000D+00  7 -2 1 -24 -13 13 23 21 2 0.28899640D-01 0.84410131D-01 0.36883934D+05 0.36883934D+05 0.36883934D+05 0.11591023D+01  1  2 15  2  7  2        1 0.950887576732D-04 0.100000000000D+01
0.399975105880D-04 0.000000000000D+00 0.000000000000D+00 0.543984311358D-06 0.000000000000D+00  7 -2 1 -24 -13 13 23 21 2 0.28899640D-01 0.17070911D+00 0.62925874D+05 0.62925874D+05 0.62925874D+05 0.11386140D+01  1  2 12  2  7  2        1 0.786277491987D-03 0.100000000000D+01
-.694799352916D-04 0.000000000000D+00 -.783757075927D-05 0.543984311358D-06 0.000000000000D+00  7 -2 1 -24 -13 13 23 21 2 0.28899640D-01 0.17313300D+00 0.36883934D+05 0.36883934D+05 0.36883934D+05 0.11591023D+01  1  2  5  2  7  2        1 -.139937182262D-02 0.100000000000D+01
0.304678681565D-05 0.000000000000D+00 0.000000000000D+00 0.543984311358D-06 0.000000000000D+00  7 -2 21 -24 -13 13 23 -1 2 0.28899640D-01 0.17070911D+00 0.62925874D+05 0.62925874D+05 0.62925874D+05 0.11386140D+01  1  2 12  4  7  2        1 0.743158404166D-04 0.100000000000D+01
-.491833106040D-05 0.000000000000D+00 -.608824928896D-06 0.543984311358D-06 0.000000000000D+00  7 -2 21 -24 -13 13 23 -1 2 0.28899640D-01 0.17313300D+00 0.36883934D+05 0.36883934D+05 0.36883934D+05 0.11591023D+01  1  2  5  4  7  2        1 -.123659163760D-03 0.100000000000D+01
  </mgrwgt>
  </event>
  <event>
  8     66 0.26562228E-05 0.28041386E+03 0.75467711E-02 0.79749546E-01
       -2 -1    0    0    0  501 0.00000000E+00 0.00000000E+00 0.45311798E+03 0.45311810E+03 0.32000000E+00 0.0000E+00 0.9000E+01
        1 -1    0    0  501    0 0.00000000E+00 0.00000000E+00 -.34770733E+03 0.34770748E+03 0.32000000E+00 0.0000E+00 0.9000E+01
       25  2    1    2    0    0 -.20034231E+03 -.14002190E+03 0.29024662E+03 0.48400587E+03 0.30045867E+03 0.0000E+00 0.0000E+00
       23  2    3    3    0    0 -.16025659E+02 -.67845395E+02 -.93452438E+01 0.11352968E+03 0.89116973E+02 0.0000E+00 0.0000E+00
      -24  1    1    2    0    0 0.20034231E+03 0.14002190E+03 -.18483597E+03 0.31681970E+03 0.80419002E+02 0.0000E+00 0.9000E+01
      -13  1    4    4    0    0 -.33832055E+02 -.38529654E+02 -.41917074E+02 0.66228350E+02 0.10565837E+00 0.0000E+00 0.9000E+01
       13  1    4    4    0    0 0.17806395E+02 -.29315741E+02 0.32571830E+02 0.47301328E+02 0.10565837E+00 0.0000E+00 0.9000E+01
       23  1    3    3    0    0 -.18431665E+03 -.72176503E+02 0.29959187E+03 0.37047620E+03 0.91188000E+02 0.0000E+00 0.9000E+01
#aMCatNLO 1  0  0  1  1 0.23524360D+04 0.00000000D+00  -5  7  0 0.00000000D+00 0.00000000D+00 0.00000000D+00 0.00000000D+00 0.00000000D+00
  <mgrwgt>
 0.8563501767D-03    5    2    0
 0.396928897172683D+03 0.000000000000000D+00 0.000000000000000D+00 0.396928897172683D+03
 0.396928897172683D+03 0.000000000000000D+00 0.000000000000000D+00 -.396928897172683D+03
 0.344143500851160D+03 0.200342308573087D+03 0.140021897694254D+03 -.228526499088022D+03
 0.723755508817582D+02 -.338321271733724D+02 -.385296668604180D+02 -.510790789657363D+02
 0.433914778691864D+02 0.178064677730890D+02 -.293157276728298D+02 0.265770233120737D+02
 0.333947264743263D+03 -.184316649172803D+03 -.721765031610057D+02 0.253028554741685D+03
 0.000000000000000D+00 0.000000000000000D+00 -.000000000000000D+00 0.000000000000000D+00
 0.420240809332333D+04 0.000000000000000D+00 0.000000000000000D+00 0.420240809332333D+04
 0.170862047779352D+04 0.000000000000000D+00 0.000000000000000D+00 -.170862047779352D+04
 0.805787055119609D+03 -.491114818515424D+03 0.591106958589641D+03 -.228526499088022D+03
 0.247936766531368D+03 -.226437005458887D+03 0.871197477547683D+02 -.510790789657363D+02
 0.440477732128186D+02 -.347710492204423D+02 0.498420434843557D+01 0.265770233120737D+02
 0.138500208332932D+04 -.121792669776007D+04 0.602118450847605D+03 0.253028554741685D+03
 0.342825489292374D+04 0.197024957095483D+04 -.128532936154045D+04 0.249378761552982D+04
0.536626276988D-04 0.000000000000D+00 0.000000000000D+00 0.133648853055D-05 0.000000000000D+00  7 -2 1 -24 -13 13 23 21 0 0.69710479D-01 0.53493456D-01 0.78631930D+05 0.78631930D+05 0.78631930D+05 0.11303914D+01  1  2  2  1  7  1       -2 0.840570250134D-03 0.100000000000D+01
-.254356667131D-05 0.000000000000D+00 -.206078620058D-06 0.133648853055D-05 0.000000000000D+00  7 -2 1 -24 -13 13 23 21 2 0.69710479D-01 0.53493456D-01 0.78631930D+05 0.78631930D+05 0.78631930D+05 0.11303914D+01  1  2  3  1  7  1       -2 -.509099750733D-04 0.100000000000D+01
0.332872834416D-05 0.000000000000D+00 0.000000000000D+00 0.133648853055D-05 0.000000000000D+00  7 -2 1 -24 -13 13 23 21 2 0.69710479D-01 0.53493456D-01 0.78631930D+05 0.78631930D+05 0.78631930D+05 0.11303914D+01  1  2 15  1  7  1       -2 0.666251366393D-04 0.100000000000D+01
0.125505421575D-03 0.000000000000D+00 -.445310111625D-04 0.133648853055D-05 0.000000000000D+00  7 -2 1 -24 -13 13 23 21 2 0.88366296D+00 0.53493456D-01 0.78631930D+05 0.78631930D+05 0.78631930D+05 0.11303914D+01  1  2  5  1  7  1       -2 0.645399777471D-07 0.100000000000D+01
0.280274300831D-04 0.000000000000D+00 -.130650341878D-04 0.133648853055D-05 0.000000000000D+00  7 21 1 -24 -13 13 23 2 2 0.88366296D+00 0.53493456D-01 0.78631930D+05 0.78631930D+05 0.78631930D+05 0.11303914D+01  1  2  5  3  7  1       -2 0.224985156534D-09 0.100000000000D+01
  </mgrwgt>
  </event>
  <event>
  8     66 0.26562228E-05 0.60356462E+03 0.75467711E-02 0.88413358E-01
       -2 -1    0    0    0  501 0.00000000E+00 0.00000000E+00 0.68186885E+03 0.68186893E+03 0.32000000E+00 0.0000E+00 0.9000E+01
        1 -1    0    0  501    0 0.00000000E+00 0.00000000E+00 -.87341639E+03 0.87341645E+03 0.32000000E+00 0.0000E+00 0.9000E+01
       25  2    1    2    0    0 -.25729221E+03 0.50648802E+03 -.57779833E+03 0.86363063E+03 0.29879350E+03 0.0000E+00 0.0000E+00
       23  2    3    3    0    0 0.15970504E+02 0.10669581E+03 -.75340466E+02 0.15986541E+03 0.90783873E+02 0.0000E+00 0.0000E+00
      -24  1    1    2    0    0 0.25729221E+03 -.50648802E+03 0.38625080E+03 0.69165475E+03 0.80419002E+02 0.0000E+00 0.9000E+01
      -11  1    4    4    0    0 0.14978830E+02 -.13642857E+02 -.15222453E+02 0.25341981E+02 0.51099893E-03 0.0000E+00 0.9000E+01
       11  1    4    4    0    0 0.99167363E+00 0.12033867E+03 -.60118014E+02 0.13452343E+03 0.51099893E-03 0.0000E+00 0.9000E+01
       23  1    3    3    0    0 -.27326271E+03 0.39979221E+03 -.50245786E+03 0.70376521E+03 0.91188000E+02 0.0000E+00 0.9000E+01
#aMCatNLO 1  0  0  1  1 0.49109795D+03 0.00000000D+00  -5  7  0 0.00000000D+00 0.00000000D+00 0.00000000D+00 0.00000000D+00 0.00000000D+00
  <mgrwgt>
 0.1026629861D-02    4    2    0
 0.771722446149199D+03 0.000000000000000D+00 0.000000000000000D+00 0.771722446149199D+03
 0.771722446149199D+03 0.000000000000000D+00 0.000000000000000D+00 -.771722446149199D+03
 0.744895981611351D+03 0.257292206207713D+03 -.506488021325094D+03 0.475050957630154D+03
 0.236472249312306D+02 0.149788303328847D+02 -.136428574180424D+02 -.121941924815804D+02
 0.128094543690426D+03 0.991673632147931D+00 0.120338667177489D+03 -.438843239507140D+02
 0.646807142065391D+03 -.273262710172745D+03 0.399792211565647D+03 -.418972441197860D+03
 0.000000000000000D+00 0.000000000000000D+00 0.000000000000000D+00 -.000000000000000D+00
 0.975688816342485D+03 0.000000000000000D+00 0.000000000000000D+00 0.975688816342485D+03
 0.117340753158015D+04 0.000000000000000D+00 0.000000000000000D+00 -.117340753158015D+04
 0.803608950311558D+03 0.577299874327971D+02 -.640557542514453D+03 0.475050957630154D+03
 0.232800181258125D+02 0.893112292660340D+01 -.177058170365060D+02 -.121941924815804D+02
 0.112807970089838D+03 -.300544271372861D+02 0.994813331064082D+02 -.438843239507140D+02
 0.679994185277121D+03 -.444253070809941D+03 0.284917783332910D+03 -.418972441197860D+03
 0.529405224118300D+03 0.407646387587827D+03 0.273864243111641D+03 -.197718715237661D+03
0.807099958886D-03 0.000000000000D+00 0.000000000000D+00 0.491167846108D-05 0.000000000000D+00  7 -2 1 -24 -11 11 23 21 0 0.10490291D+00 0.13437176D+00 0.36429025D+06 0.36429025D+06 0.36429025D+06 0.10783676D+01  1  2  2  1  7  1       -2 0.124769706652D-02 0.100000000000D+01
-.415458195070D-04 0.000000000000D+00 -.309947635642D-05 0.491167846108D-05 0.000000000000D+00  7 -2 1 -24 -11 11 23 21 2 0.10490291D+00 0.13437176D+00 0.36429025D+06 0.36429025D+06 0.36429025D+06 0.10783676D+01  1  2  3  1  7  1       -2 -.746866266012D-04 0.100000000000D+01
0.511011397070D-04 0.000000000000D+00 0.000000000000D+00 0.491167846108D-05 0.000000000000D+00  7 -2 1 -24 -11 11 23 21 2 0.10490291D+00 0.13437176D+00 0.36429025D+06 0.36429025D+06 0.36429025D+06 0.10783676D+01  1  2 15  1  7  1       -2 0.918641583073D-04 0.100000000000D+01
-.132528048152D-03 0.000000000000D+00 0.000000000000D+00 0.491167846108D-05 0.000000000000D+00  7 -2 1 -24 -11 11 23 21 2 0.10490291D+00 0.13437176D+00 0.36429025D+06 0.36429025D+06 0.36429025D+06 0.10783676D+01  1  2  4  1  7  1       -2 -.238244737112D-03 0.100000000000D+01
  </mgrwgt>
  </event>
  <event>
  8     66 0.26562228E-05 0.29993110E+03 0.75467711E-02 0.90856903E-01
       -2 -1    0    0    0  501 0.00000000E+00 0.00000000E+00 0.80625375E+03 0.80625381E+03 0.32000000E+00 0.0000E+00 0.9000E+01
        1 -1    0    0  501    0 0.00000000E+00 0.00000000E+00 -.13919300E+03 0.13919337E+03 0.32000000E+00 0.0000E+00 0.9000E+01
       25  2    1    2    0    0 -.14811508E+03 -.17793016E+03 0.22685603E+03 0.44161723E+03 0.29994149E+03 0.0000E+00 0.0000E+00
       23  2    3    3    0    0 -.17703653E+03 -.16589304E+03 0.90118164E+02 0.27430363E+03 0.90877753E+02 0.0000E+00 0.0000E+00
      -24  1    1    2    0    0 0.14811508E+03 0.17793016E+03 0.44020471E+03 0.50382995E+03 0.80419002E+02 0.0000E+00 0.9000E+01
      -11  1    4    4    0    0 -.38268058E+02 -.95245917E+02 0.45819028E+02 0.11240824E+03 0.51099893E-03 0.0000E+00 0.9000E+01
       11  1    4    4    0    0 -.13876847E+03 -.70647120E+02 0.44299137E+02 0.16189539E+03 0.51099893E-03 0.0000E+00 0.9000E+01
       23  1    3    3    0    0 0.28921453E+02 -.12037126E+02 0.13673787E+03 0.16731359E+03 0.91188000E+02 0.0000E+00 0.9000E+01
#aMCatNLO 1  0  0  1  2 0.58521094D+03 0.00000000D+00  -5  7  0 0.00000000D+00 0.00000000D+00 0.00000000D+00 0.00000000D+00 0.00000000D+00
  <mgrwgt>
 0.1194277529D-02    3    2    0
 0.335000126028092D+03 0.000000000000000D+00 0.000000000000000D+00 0.335000126028092D+03
 0.335000126028092D+03 0.000000000000000D+00 0.000000000000000D+00 -.335000126028092D+03
 0.272688448082258D+03 0.148115079800132D+03 0.177930163049736D+03 0.119559834292436D+03
 0.113002910265612D+03 -.382680584347991D+02 -.952459168014178D+02 -.472591659340922D+02
 0.184348182085802D+03 -.138768474235740D+03 -.706471198469224D+02 -.986739441492007D+02
 0.999607116225116D+02 0.289214528704064D+02 -.120371264013955D+02 0.263732757908571D+02
 0.000000000000000D+00 -.000000000000000D+00 0.000000000000000D+00 -.000000000000000D+00
 0.465132357997963D+03 0.000000000000000D+00 0.000000000000000D+00 0.465132357997963D+03
 0.465478753192687D+04 0.000000000000000D+00 0.000000000000000D+00 -.465478753192687D+04
 0.211694010562493D+03 0.155044951228469D+03 -.369422200056425D+01 0.119559834292436D+03
 0.231896844882497D+03 -.333337117915941D+02 -.224569769915423D+03 -.472591659340922D+02
 0.301808285867834D+03 -.131813222746247D+03 -.252936688666885D+03 -.986739441492007D+02
 0.144191881243950D+03 0.324144490498995D+02 -.103584753171112D+03 0.263732757908571D+02
 0.423032886736805D+04 -.223124657405269D+02 0.584785433753983D+03 -.418965517392890D+04
0.883147005933D-04 0.000000000000D+00 0.000000000000D+00 0.410420418849D-05 0.000000000000D+00  7 -2 1 -24 -11 11 23 21 0 0.12403907D+00 0.21414341D-01 0.89958664D+05 0.89958664D+05 0.89958664D+05 0.11255130D+01  1  2  2  1  7  1       -2 0.118151531340D-02 0.100000000000D+01
-.483342977942D-05 0.000000000000D+00 -.339151704073D-06 0.410420418849D-05 0.000000000000D+00  7 -2 1 -24 -11 11 23 21 2 0.12403907D+00 0.21414341D-01 0.89958664D+05 0.89958664D+05 0.89958664D+05 0.11255130D+01  1  2  3  1  7  1       -2 -.819148753636D-04 0.100000000000D+01
0.558647095228D-05 0.000000000000D+00 0.000000000000D+00 0.410420418849D-05 0.000000000000D+00  7 -2 1 -24 -11 11 23 21 2 0.12403907D+00 0.21414341D-01 0.89958664D+05 0.89958664D+05 0.89958664D+05 0.11255130D+01  1  2 15  1  7  1       -2 0.946770911469D-04 0.100000000000D+01
  </mgrwgt>
  </event>
  <event>
  8     66 0.26562228E-05 0.35772360E+03 0.75467711E-02 0.90277626E-01
       -2 -1    0    0    0  501 0.00000000E+00 0.00000000E+00 0.64106177E+02 0.64106976E+02 0.32000000E+00 0.0000E+00 0.9000E+01
        1 -1    0    0  501    0 0.00000000E+00 0.00000000E+00 -.28459691E+04 0.28459691E+04 0.32000000E+00 0.0000E+00 0.9000E+01
       25  2    1    2    0    0 -.12759321E+03 -.27097471E+03 -.22883060E+04 0.23271756E+04 0.29949071E+03 0.0000E+00 0.0000E+00
       23  2    3    3    0    0 -.14078212E+03 -.26497499E+03 -.19986515E+04 0.20231609E+04 0.92417630E+02 0.0000E+00 0.0000E+00
      -24  1    1    2    0    0 0.12759321E+03 0.27097471E+03 -.49355695E+03 0.58290050E+03 0.80419002E+02 0.0000E+00 0.9000E+01
      -13  1    4    4    0    0 -.74908296E+02 -.55005715E+02 -.52338776E+03 0.53157468E+03 0.10565837E+00 0.0000E+00 0.9000E+01
       13  1    4    4    0    0 -.65873820E+02 -.20996928E+03 -.14752637E+04 0.14915862E+04 0.10565837E+00 0.0000E+00 0.9000E+01
       23  1    3    3    0    0 0.13188907E+02 -.59997142E+01 -.28965452E+03 0.30401470E+03 0.91188000E+02 0.0000E+00 0.9000E+01
#aMCatNLO 1  0  0  1  2 0.57912236D+03 0.00000000D+00  -5  7  0 0.00000000D+00 0.00000000D+00 0.00000000D+00 0.00000000D+00 0.00000000D+00
  <mgrwgt>
 0.1419729029D-02    5    2    0
 0.427136264620903D+03 0.000000000000000D+00 0.000000000000000D+00 0.427136264620903D+03
 0.427136264620903D+03 0.000000000000000D+00 0.000000000000000D+00 -.427136264620903D+03
 0.378423784019215D+03 0.127593208309615D+03 0.270974706512588D+03 0.216864072590937D+03
 0.106440942807022D+03 -.749083075671613D+02 -.550055126704252D+02 -.518923244703402D+02
 0.277017223848058D+03 -.658738081596487D+02 -.209969479677599D+03 -.168261704825991D+03
 0.923905785675097D+02 0.131889074171955D+02 -.599971416456381D+01 0.328995670539443D+01
 0.000000000000000D+00 -.000000000000000D+00 0.000000000000000D+00 0.000000000000000D+00
 0.165294458861813D+04 0.000000000000000D+00 0.000000000000000D+00 0.165294458861813D+04
 0.589782672314428D+03 0.000000000000000D+00 0.000000000000000D+00 -.589782672314428D+03
 0.523425921805376D+03 0.402863285506258D+03 0.241202460339470D+03 0.216864072590937D+03
 0.821167435760683D+02 -.173551603504241D+02 -.612302592335992D+02 -.518923244703402D+02
 0.305579481294663D+03 0.111951209649182D+03 -.229202409968681D+03 -.168261704825991D+03
 0.120945805033669D+03 0.783052149388071D+02 -.130424656221914D+02 0.328995670539443D+01
 0.121065930922278D+04 -.575764549743823D+03 0.622726744850022D+02 0.106316191630370D+04
0.249068922342D-03 0.000000000000D+00 0.000000000000D+00 0.250142252467D-05 0.000000000000D+00  7 -2 1 -24 -13 13 23 21 0 0.98625516D-02 0.43784146D+00 0.12796617D+06 0.12796617D+06 0.12796617D+06 0.11130382D+01  1  2  2  1  7  1       -2 0.143235033121D-02 0.100000000000D+01
-.133080425852D-04 0.000000000000D+00 -.956490243146D-06 0.250142252467D-05 0.000000000000D+00  7 -2 1 -24 -13 13 23 21 2 0.98625516D-02 0.43784146D+00 0.12796617D+06 0.12796617D+06 0.12796617D+06 0.11130382D+01  1  2  3  1  7  1       -2 -.948121536889D-04 0.100000000000D+01
0.156263723789D-04 0.000000000000D+00 0.000000000000D+00 0.250142252467D-05 0.000000000000D+00  7 -2 1 -24 -13 13 23 21 2 0.98625516D-02 0.43784146D+00 0.12796617D+06 0.12796617D+06 0.12796617D+06 0.11130382D+01  1  2 15  1  7  1       -2 0.111328920847D-03 0.100000000000D+01
-.277169356444D-05 0.000000000000D+00 -.121655491515D-03 0.250142252467D-05 0.000000000000D+00  7 -2 1 -24 -13 13 23 21 2 0.61928341D-01 0.43784146D+00 0.12796617D+06 0.12796617D+06 0.12796617D+06 0.11130382D+01  1  2  5  1  7  1       -2 -.804474705111D-06 0.100000000000D+01
-.948828499127D-05 0.000000000000D+00 -.273895302543D-04 0.250142252467D-05 0.000000000000D+00  7 21 1 -24 -13 13 23 2 2 0.61928341D-01 0.43784146D+00 0.12796617D+06 0.12796617D+06 0.12796617D+06 0.11130382D+01  1  2  5  3  7  1       -2 -.283335944398D-04 0.100000000000D+01
  </mgrwgt>
  </event>
  <event>
  8     66 0.26562228E-05 0.96047264E+02 0.75467711E-02 0.10531040E+00
       -2 -1    0    0    0  501 0.00000000E+00 0.00000000E+00 0.40689753E+02 0.40691011E+02 0.32000000E+00 0.0000E+00 0.9000E+01
        1 -1    0    0  501    0 0.00000000E+00 0.00000000E+00 -.17317152E+04 0.17317152E+04 0.32000000E+00 0.0000E+00 0.9000E+01
       25  2    1    2    0    0 0.35643646E+02 -.30368362E+02 -.55708102E+03 0.63464973E+03 0.30041356E+03 0.0000E+00 0.0000E+00
       23  2    3    3    0    0 -.81846587E+01 -.11601214E+03 -.16794729E+03 0.22355839E+03 0.90808897E+02 0.0000E+00 0.0000E+00
      -24  1    1    2    0    0 -.35643646E+02 0.30368362E+02 -.11339444E+04 0.11377565E+04 0.80419002E+02 0.0000E+00 0.9000E+01
      -11  1    4    4    0    0 0.23465542E+02 -.52477176E+02 -.22530594E+02 0.61742313E+02 0.51099893E-03 0.0000E+00 0.9000E+01
       11  1    4    4    0    0 -.31650200E+02 -.63534962E+02 -.14541669E+03 0.16181607E+03 0.51099893E-03 0.0000E+00 0.9000E+01
       23  1    3    3    0    0 0.43828304E+02 0.85643776E+02 -.38913373E+03 0.41109134E+03 0.91188000E+02 0.0000E+00 0.9000E+01
#aMCatNLO 1  0  0  1  2 0.64731447D+02 0.00000000D+00  -5  7  0 0.00000000D+00 0.00000000D+00 0.00000000D+00 0.00000000D+00 0.00000000D+00
  <mgrwgt>
 0.6000903901D-03    9    2    0
 0.265450945769615D+03 0.000000000000000D+00 0.000000000000000D+00 0.265450945769615D+03
 0.265450945769615D+03 0.000000000000000D+00 0.000000000000000D+00 -.265450945769615D+03
 0.186546452912209D+03 -.356436457054001D+02 0.303683621944770D+02 -.161677630605503D+03
 0.134361272819366D+03 0.234655416029040D+02 -.524771756664591D+02 0.121443262575551D+03
 0.770396345930647D+02 -.316502003412098D+02 -.635349621534380D+02 0.299445938485634D+02
 0.132954531214590D+03 0.438283044437060D+02 0.856437756254201D+02 0.102897741813884D+02
 0.000000000000000D+00 0.000000000000000D+00 0.000000000000000D+00 0.000000000000000D+00
 0.432419152967321D+03 0.000000000000000D+00 0.000000000000000D+00 0.432419152967321D+03
 0.273765436527837D+03 0.000000000000000D+00 0.000000000000000D+00 -.273765436527837D+03
 0.187802228214353D+03 -.500048863687371D+02 0.127403323718703D+02 -.161677630605503D+03
 0.138509804347653D+03 0.129973139669298D+02 -.653266385563811D+02 0.121443262575551D+03
 0.860534334069580D+02 -.379069842385689D+02 -.712149931286048D+02 0.299445938485634D+02
 0.122468133048206D+03 0.340294550359567D+02 0.736159561886208D+02 0.102897741813884D+02
 0.171350990477988D+03 0.408851016044194D+02 0.501853431244948D+02 0.158653716439485D+03
0.128211025835D-04 0.000000000000D+00 0.000000000000D+00 0.169859392090D-05 0.000000000000D+00  7 -2 1 -24 -11 11 23 21 0 0.62600610D-02 0.26641782D+00 0.31343337D+05 0.31343337D+05 0.31343337D+05 0.11655749D+01  1  2  2  1  7  1       -2 0.850228400009D-03 0.100000000000D+01
-.570196261050D-06 0.000000000000D+00 -.492364097946D-07 0.169859392090D-05 0.000000000000D+00  7 -2 1 -24 -11 11 23 21 2 0.62600610D-02 0.26641782D+00 0.31343337D+05 0.31343337D+05 0.31343337D+05 0.11655749D+01  1  2  3  1  7  1       -2 -.513706435969D-04 0.100000000000D+01
0.815190884103D-06 0.000000000000D+00 0.000000000000D+00 0.169859392090D-05 0.000000000000D+00  7 -2 1 -24 -11 11 23 21 2 0.62600610D-02 0.26641782D+00 0.31343337D+05 0.31343337D+05 0.31343337D+05 0.11655749D+01  1  2 15  1  7  1       -2 0.734429234833D-04 0.100000000000D+01
0.344585558388D-04 0.000000000000D+00 0.000000000000D+00 0.169859392090D-05 0.000000000000D+00  7 -2 1 -24 -11 11 23 21 2 0.10243174D-01 0.26641782D+00 0.46139062D+05 0.46139062D+05 0.46139062D+05 0.11503780D+01  1  2 12  1  7  1       -2 0.143406275951D-02 0.100000000000D+01
-.370483785907D-04 0.000000000000D+00 0.000000000000D+00 0.169859392090D-05 0.000000000000D+00  7 -2 1 -24 -11 11 23 21 2 0.62600610D-02 0.26641782D+00 0.31343337D+05 0.31343337D+05 0.31343337D+05 0.11655749D+01  1  2  4  1  7  1       -2 -.333779644385D-02 0.100000000000D+01
-.387855238386D-04 0.000000000000D+00 -.461848631524D-05 0.169859392090D-05 0.000000000000D+00  7 -2 1 -24 -11 11 23 21 2 0.10505426D-01 0.26641782D+00 0.31343337D+05 0.31343337D+05 0.31343337D+05 0.11655749D+01  1  2  5  1  7  1       -2 -.160724762919D-02 0.100000000000D+01
0.367036976692D-04 0.000000000000D+00 0.406189490178D-05 0.169859392090D-05 0.000000000000D+00  7 -2 1 -24 -11 11 23 21 2 0.62600610D-02 0.26641782D+00 0.31343337D+05 0.31343337D+05 0.31343337D+05 0.11655749D+01  1  2  6  1  7  1       -2 0.330674313469D-02 0.100000000000D+01
0.191957338568D-05 0.000000000000D+00 0.000000000000D+00 0.169859392090D-05 0.000000000000D+00  7 21 1 -24 -11 11 23 2 2 0.10243174D-01 0.26641782D+00 0.46139062D+05 0.46139062D+05 0.46139062D+05 0.11503780D+01  1  2 12  3  7  1       -2 0.117842169590D-02 0.100000000000D+01
-.203201431603D-05 0.000000000000D+00 -.267745585111D-06 0.169859392090D-05 0.000000000000D+00  7 21 1 -24 -11 11 23 2 2 0.10505426D-01 0.26641782D+00 0.31343337D+05 0.31343337D+05 0.31343337D+05 0.11655749D+01  1  2  5  3  7  1       -2 -.124639380683D-02 0.100000000000D+01
  </mgrwgt>
  </event>
  <event>
  8     66 0.26562228E-05 0.33128216E+03 0.75467711E-02 0.96729800E-01
       -2 -1    0    0    0  501 0.00000000E+00 0.00000000E+00 0.10372582E+03 0.10372631E+03 0.32000000E+00 0.0000E+00 0.9000E+01
        1 -1    0    0  501    0 0.00000000E+00 0.00000000E+00 -.13954814E+04 0.13954814E+04 0.32000000E+00 0.0000E+00 0.9000E+01
       25  2    1    2    0    0 -.28405016E+03 0.14899954E+02 -.47856847E+03 0.63396385E+03 0.30327526E+03 0.0000E+00 0.0000E+00
       23  2    3    3    0    0 -.26628878E+03 0.27262159E+02 -.45773735E+03 0.53795616E+03 0.90666429E+02 0.0000E+00 0.0000E+00
      -24  1    1    2    0    0 0.28405016E+03 -.14899954E+02 -.81318711E+03 0.86524390E+03 0.80419002E+02 0.0000E+00 0.9000E+01
      -11  1    4    4    0    0 -.67062983E+02 0.31252435E+02 -.69223796E+02 0.10132173E+03 0.51099893E-03 0.0000E+00 0.9000E+01
       11  1    4    4    0    0 -.19922580E+03 -.39902760E+01 -.38851356E+03 0.43663443E+03 0.51099893E-03 0.0000E+00 0.9000E+01
       23  1    3    3    0    0 -.17761372E+02 -.12362205E+02 -.20831115E+02 0.96007693E+02 0.91188000E+02 0.0000E+00 0.9000E+01
#aMCatNLO 1  0  0  1  2 0.15308215D+03 0.00000000D+00  -5  7  0 0.00000000D+00 0.00000000D+00 0.00000000D+00 0.00000000D+00 0.00000000D+00
  <mgrwgt>
 0.1491514065D-02    3    2    0
 0.380457416950663D+03 0.000000000000000D+00 0.000000000000000D+00 0.380457416950663D+03
 0.380457416950663D+03 0.000000000000000D+00 0.000000000000000D+00 -.380457416950663D+03
 0.324269348211653D+03 0.284050156990487D+03 -.148999543534877D+02 -.133330018784905D+03
 0.821144369605294D+02 -.670629831217328D+02 0.312524353763359D+02 0.356177250144769D+02
 0.200733588737092D+03 -.199225801342736D+03 -.399027597640617D+01 -.242307949570127D+02
 0.153797459992052D+03 -.177613725260182D+02 -.123622050464420D+02 0.121943088727441D+03
 0.000000000000000D+00 0.000000000000000D+00 0.000000000000000D+00 -.000000000000000D+00
 0.404053322097413D+03 0.000000000000000D+00 0.000000000000000D+00 0.404053322097413D+03
 0.754859211656073D+03 0.000000000000000D+00 0.000000000000000D+00 -.754859211656073D+03
 0.317445794881870D+03 0.265937585424965D+03 -.761900484510158D+02 -.133330018784905D+03
 0.815537377170042D+02 -.716825585809536D+02 0.156205184195395D+02 0.356177250144769D+02
 0.216884472249875D+03 -.211013176314466D+03 -.438768993952150D+02 -.242307949570127D+02
 0.160276758279055D+03 -.266261964538085D+02 -.423593752840755D+02 0.121943088727441D+03
 0.382751770625682D+03 0.433843459242636D+02 0.146805804710767D+03 -.350805889558660D+03
0.575930625771D-04 0.000000000000D+00 0.000000000000D+00 0.157355318149D-06 0.000000000000D+00  7 -2 1 -24 -11 11 23 21 0 0.15957859D-01 0.21468949D+00 0.10974787D+06 0.10974787D+06 0.10974787D+06 0.11184221D+01  1  2  2  1  7  1       -2 0.147305555397D-02 0.100000000000D+01
-.312509418442D-05 0.000000000000D+00 -.221172524898D-06 0.157355318149D-06 0.000000000000D+00  7 -2 1 -24 -11 11 23 21 2 0.15957859D-01 0.21468949D+00 0.10974787D+06 0.10974787D+06 0.10974787D+06 0.11184221D+01  1  2  3  1  7  1       -2 -.999823924289D-04 0.100000000000D+01
0.370204163463D-05 0.000000000000D+00 0.000000000000D+00 0.157355318149D-06 0.000000000000D+00  7 -2 1 -24 -11 11 23 21 2 0.15957859D-01 0.21468949D+00 0.10974787D+06 0.10974787D+06 0.10974787D+06 0.11184221D+01  1  2 15  1  7  1       -2 0.118440903748D-03 0.100000000000D+01
  </mgrwgt>
  </event>
  <event>
  8     66 0.26562228E-05 0.27822454E+03 0.75467711E-02 0.93308421E-01
       -4 -1    0    0    0  501 0.00000000E+00 0.00000000E+00 0.60310412E+03 0.60310611E+03 0.15500000E+01 0.0000E+00 0.9000E+01
        3 -1    0    0  501    0 0.00000000E+00 0.00000000E+00 -.53490951E+03 0.53490975E+03 0.50000000E+00 0.0000E+00 0.9000E+01
       25  2    1    2    0    0 -.44300942E+03 -.25780544E+03 0.15106154E+03 0.61260636E+03 0.29957633E+03 0.0000E+00 0.0000E+00
       23  2    3    3    0    0 -.68547210E+02 0.19820605E+02 0.49834981E+02 0.12695192E+03 0.92421258E+02 0.0000E+00 0.0000E+00
      -24  1    1    2    0    0 0.44300942E+03 0.25780544E+03 -.82866936E+02 0.52540949E+03 0.80419002E+02 0.0000E+00 0.9000E+01
      -13  1    4    4    0    0 -.15852989E+02 0.52405605E+02 0.21434317E+02 0.58797158E+02 0.10565837E+00 0.0000E+00 0.9000E+01
       13  1    4    4    0    0 -.52694221E+02 -.32584999E+02 0.28400664E+02 0.68154765E+02 0.10565837E+00 0.0000E+00 0.9000E+01
       23  1    3    3    0    0 -.37446221E+03 -.27762604E+03 0.10122656E+03 0.48565444E+03 0.91188000E+02 0.0000E+00 0.9000E+01
#aMCatNLO 1  0  0  2  1 0.14467385D+02 0.00000000D+00  -5  7  0 0.00000000D+00 0.00000000D+00 0.00000000D+00 0.00000000D+00 0.00000000D+00
  <mgrwgt>
 0.9699447310D-04    9    2    0
 0.567985384433014D+03 0.000000000000000D+00 0.000000000000000D+00 0.567985384433014D+03
 0.567985384433014D+03 0.000000000000000D+00 0.000000000000000D+00 -.567985384433014D+03
 0.531330057677363D+03 0.443009422429781D+03 0.257805436252895D+03 -.114557509199293D+03
 0.576162535708142D+02 -.158529408999631D+02 0.524057157731088D+02 0.179431851873287D+02
 0.665725267645504D+02 -.526942690929665D+02 -.325851103792601D+02 0.243603346887159D+02
 0.480451930853301D+03 -.374462212436851D+03 -.277626041646744D+03 0.722539893232482D+02
 0.000000000000000D+00 0.000000000000000D+00 0.000000000000000D+00 -.000000000000000D+00
 0.573451788681280D+03 0.000000000000000D+00 0.000000000000000D+00 0.573451788681280D+03
 0.577685134199415D+03 0.000000000000000D+00 0.000000000000000D+00 -.577685134199415D+03
 0.527941431293142D+03 0.442830654116446D+03 0.251062796491904D+03 -.114557509199293D+03
 0.569590879850422D+02 -.158722772464738D+02 0.516764029749757D+02 0.179431851873287D+02
 0.670105606213786D+02 -.527168132881711D+02 -.334354142397743D+02 0.243603346887159D+02
 0.484151811375671D+03 -.374625004115690D+03 -.283766087530802D+03 0.722539893232482D+02
 0.150740316054614D+02 0.383440533888837D+00 0.144623023036966D+02 -.423334551813498D+01
0.156369716210D-03 0.000000000000D+00 0.000000000000D+00 0.636555429441D-05 0.000000000000D+00  7 -4 3 -24 -13 13 23 21 0 0.92785420D-01 0.82293942D-01 0.30831798D+06 0.30831798D+06 0.30831798D+06 0.10836742D+01  1  2  2  2  7  2        3 0.588449682086D-04 0.100000000000D+01
-.868178665899D-05 0.000000000000D+00 -.600500883339D-06 0.636555429441D-05 0.000000000000D+00  7 -4 3 -24 -13 13 23 21 2 0.92785420D-01 0.82293942D-01 0.30831798D+06 0.30831798D+06 0.30831798D+06 0.10836742D+01  1  2  3  2  7  2        3 -.383674789211D-05 0.100000000000D+01
0.987906691216D-05 0.000000000000D+00 0.000000000000D+00 0.636555429441D-05 0.000000000000D+00  7 -4 3 -24 -13 13 23 21 2 0.92785420D-01 0.82293942D-01 0.30831798D+06 0.30831798D+06 0.30831798D+06 0.10836742D+01  1  2 15  2  7  2        3 0.436586276996D-05 0.100000000000D+01
0.157137160316D-03 0.000000000000D+00 0.000000000000D+00 0.636555429441D-05 0.000000000000D+00  7 -4 3 -24 -13 13 23 21 2 0.92785420D-01 0.84090015D-01 0.31643153D+06 0.31643153D+06 0.31643153D+06 0.10828426D+01  1  2 12  2  7  2        3 0.659777648304D-04 0.100000000000D+01
-.142208579783D-03 0.000000000000D+00 0.000000000000D+00 0.636555429441D-05 0.000000000000D+00  7 -4 3 -24 -13 13 23 21 2 0.92785420D-01 0.82293942D-01 0.30831798D+06 0.30831798D+06 0.30831798D+06 0.10836742D+01  1  2  4  2  7  2        3 -.628463345337D-04 0.100000000000D+01
-.675769275620D-02 0.000000000000D+00 -.838898029816D-03 0.636555429441D-05 0.000000000000D+00  7 -4 3 -24 -13 13 23 21 2 0.92785420D-01 0.84343223D-01 0.30831798D+06 0.30831798D+06 0.30831798D+06 0.10836742D+01  1  2  5  2  7  2        3 -.282318580208D-02 0.100000000000D+01
0.677653076488D-02 0.000000000000D+00 0.838644322751D-03 0.636555429441D-05 0.000000000000D+00  7 -4 3 -24 -13 13 23 21 2 0.92785420D-01 0.82293942D-01 0.30831798D+06 0.30831798D+06 0.30831798D+06 0.10836742D+01  1  2  6  2  7  2        3 0.299475685699D-02 0.100000000000D+01
0.552233534391D-05 0.000000000000D+00 0.000000000000D+00 0.636555429441D-05 0.000000000000D+00  7 -4 21 -24 -13 13 23 -3 2 0.92785420D-01 0.84090015D-01 0.31643153D+06 0.31643153D+06 0.31643153D+06 0.10828426D+01  1  2 12  4  7  2        3 0.312755967821D-04 0.100000000000D+01
-.298628409816D-04 0.000000000000D+00 -.373007184278D-05 0.636555429441D-05 0.000000000000D+00  7 -4 21 -24 -13 13 23 -3 2 0.92785420D-01 0.84343223D-01 0.30831798D+06 0.30831798D+06 0.30831798D+06 0.10836742D+01  1  2  5  4  7  2        3 -.168357691978D-03 0.100000000000D+01
  </mgrwgt>
  </event>
  <event>
  8     66 0.26562228E-05 0.59998177E+03 0.75467711E-02 0.90215757E-01
       -2 -1    0    0    0  501 0.00000000E+00 0.00000000E+00 0.13379464E+04 0.13379464E+04 0.32000000E+00 0.0000E+00 0.9000E+01
        1 -1    0    0  501    0 0.00000000E+00 0.00000000E+00 -.44971878E+03 0.44971889E+03 0.32000000E+00 0.0000E+00 0.9000E+01
       25  2    1    2    0    0 0.40150267E+03 0.39370022E+03 0.10216152E+04 0.12041726E+04 0.30021627E+03 0.0000E+00 0.0000E+00
       23  2    3    3    0    0 0.12251495E+03 0.80874596E+01 0.28216751E+03 0.32007449E+03 0.88055993E+02 0.0000E+00 0.0000E+00
      -24  1    1    2    0    0 -.40150267E+03 -.39370022E+03 -.13338760E+03 0.58349270E+03 0.80419002E+02 0.0000E+00 0.9000E+01
      -13  1    4    4    0    0 0.10978408E+02 0.31488020E+02 0.37599112E+02 0.50256594E+02 0.10565837E+00 0.0000E+00 0.9000E+01
       13  1    4    4    0    0 0.11153654E+03 -.23400561E+02 0.24456840E+03 0.26981790E+03 0.10565837E+00 0.0000E+00 0.9000E+01
       23  1    3    3    0    0 0.27898772E+03 0.38561276E+03 0.73944771E+03 0.88409814E+03 0.91188000E+02 0.0000E+00 0.9000E+01
#aMCatNLO 1  0  0  2  1 0.27027504D+03 0.00000000D+00  -5  7  0 0.00000000D+00 0.00000000D+00 0.00000000D+00 0.00000000D+00 0.00000000D+00
  <mgrwgt>
 0.2466474210D-02    3    2    0
 0.775693078515427D+03 0.000000000000000D+00 0.000000000000000D+00 0.775693078515427D+03
 0.775693078515427D+03 0.000000000000000D+00 0.000000000000000D+00 -.775693078515427D+03
 0.748729258786589D+03 -.401502674178072D+03 -.393700217176432D+03 -.487774567430316D+03
 0.363836561086031D+02 0.109782628528577D+02 0.314880994815760D+02 0.145515555045167D+02
 0.170887174543099D+03 0.111536688934633D+03 -.234006399071161D+02 0.127335790321340D+03
 0.595386067592561D+03 0.278987722390582D+03 0.385612757601972D+03 0.345887221604460D+03
 0.000000000000000D+00 -.000000000000000D+00 0.000000000000000D+00 0.000000000000000D+00
 0.151780575838515D+04 0.000000000000000D+00 0.000000000000000D+00 0.151780575838515D+04
 0.812378538723289D+03 0.000000000000000D+00 0.000000000000000D+00 -.812378538723289D+03
 0.768175407287271D+03 -.317810485595223D+03 -.494670301332605D+03 -.487774567430316D+03
 0.339287297221819D+02 0.148576084612347D+02 0.268078795090639D+02 0.145515555045167D+02
 0.189000106206047D+03 0.131392751640923D+03 -.473559021175155D+02 0.127335790321340D+03
 0.583648945531166D+03 0.344038626953709D+03 0.307132371088096D+03 0.345887221604460D+03
 0.755431108361769D+03 -.172478501460644D+03 0.208085952852960D+03 0.705427219661856D+03
0.377329615354D-02 0.000000000000D+00 0.000000000000D+00 0.615925922812D-05 0.000000000000D+00  7 -2 1 -24 -13 13 23 21 0 0.20583792D+00 0.69187516D-01 0.35997812D+06 0.35997812D+06 0.35997812D+06 0.10787438D+01  1  2  2  2  7  2        1 0.242866234486D-02 0.100000000000D+01
-.192811865691D-03 0.000000000000D+00 -.144904507613D-04 0.615925922812D-05 0.000000000000D+00  7 -2 1 -24 -13 13 23 21 2 0.20583792D+00 0.69187516D-01 0.35997812D+06 0.35997812D+06 0.35997812D+06 0.10787438D+01  1  2  3  2  7  2        1 -.144416430891D-03 0.100000000000D+01
0.243294877286D-03 0.000000000000D+00 0.000000000000D+00 0.615925922812D-05 0.000000000000D+00  7 -2 1 -24 -13 13 23 21 2 0.20583792D+00 0.69187516D-01 0.35997812D+06 0.35997812D+06 0.35997812D+06 0.10787438D+01  1  2 15  2  7  2        1 0.182228296510D-03 0.100000000000D+01
  </mgrwgt>
  </event>
  <event>
  8     66 0.26562228E-05 0.49120796E+03 0.75467711E-02 0.84864631E-01
       -2 -1    0    0    0  501 0.00000000E+00 0.00000000E+00 0.58502669E+03 0.58502677E+03 0.32000000E+00 0.0000E+00 0.9000E+01
        1 -1    0    0  501    0 0.00000000E+00 0.00000000E+00 -.63445405E+03 0.63445413E+03 0.32000000E+00 0.0000E+00 0.9000E+01
       25  2    1    2    0    0 -.74287150E+02 -.45232645E+03 0.31495588E+03 0.62841393E+03 0.29255607E+03 0.0000E+00 0.0000E+00
       23  2    3    3    0    0 -.11491038E+03 -.20171047E+03 0.54037378E+02 0.25311093E+03 0.85168054E+02 0.0000E+00 0.0000E+00
      -24  1    1    2    0    0 0.74287150E+02 0.45232645E+03 -.36438325E+03 0.59106698E+03 0.80419002E+02 0.0000E+00 0.9000E+01
      -11  1    4    4    0    0 -.76959367E+02 -.52155100E+02 0.21561377E+02 0.95434750E+02 0.51099893E-03 0.0000E+00 0.9000E+01
       11  1    4    4    0    0 -.37951013E+02 -.14955537E+03 0.32476001E+02 0.15767618E+03 0.51099893E-03 0.0000E+00 0.9000E+01
       23  1    3    3    0    0 0.40623230E+02 -.25061598E+03 0.26091851E+03 0.37530299E+03 0.91188000E+02 0.0000E+00 0.9000E+01
#aMCatNLO 1  0  0  1  1 0.12040645D+04 0.00000000D+00  -5  7  0 0.00000000D+00 0.00000000D+00 0.00000000D+00 0.00000000D+00 0.00000000D+00
  <mgrwgt>
 0.1317333441D-01    5    2    0
 0.609239406219650D+03 0.000000000000000D+00 0.000000000000000D+00 0.609239406219650D+03
 0.609239406219650D+03 0.000000000000000D+00 0.000000000000000D+00 -.609239406219650D+03
 0.576771940860249D+03 0.742871498028299D+02 0.452326454961973D+03 -.340706403410671D+03
 0.963878704116633D+02 -.769593669253008D+02 -.521550996273872D+02 0.254504025078157D+02
 0.159123242270575D+03 -.379510132728372D+02 -.149555371202220D+03 0.388988144656280D+02
 0.386195758896812D+03 0.406232303953082D+02 -.250615984132366D+03 0.276357186437227D+03
 0.000000000000000D+00 0.000000000000000D+00 0.000000000000000D+00 0.000000000000000D+00
 0.486907272821573D+04 0.000000000000000D+00 0.000000000000000D+00 0.486907272821573D+04
 0.946840679667332D+03 0.000000000000000D+00 0.000000000000000D+00 -.946840679667332D+03
 0.358615891744308D+03 -.911142798507603D+01 0.772934047136799D+02 -.340706403410671D+03
 0.202326614889012D+03 -.103592558389161D+03 -.171921255087977D+03 0.254504025078157D+02
 0.376110114932344D+03 -.856720752959314D+02 -.364151062475559D+03 0.388988144656280D+02
 0.775974528622773D+03 -.629951252728591D+02 -.716574865191134D+03 0.276357186437227D+03
 0.410288625769463D+04 0.261371186943028D+03 0.117535377804099D+04 0.392223204854840D+04
0.348138983191D-02 0.000000000000D+00 0.000000000000D+00 0.353343299433D-08 0.000000000000D+00  7 -2 1 -24 -11 11 23 21 0 0.90004118D-01 0.97608329D-01 0.24128526D+06 0.24128526D+06 0.24128526D+06 0.10916202D+01  1  2  2  1  7  1       -2 0.130138568356D-01 0.100000000000D+01
-.182505536770D-03 0.000000000000D+00 -.133694536255D-04 0.353343299433D-08 0.000000000000D+00  7 -2 1 -24 -11 11 23 21 2 0.90004118D-01 0.97608329D-01 0.24128526D+06 0.24128526D+06 0.24128526D+06 0.10916202D+01  1  2  3  1  7  1       -2 -.812966343070D-03 0.100000000000D+01
0.218507577140D-03 0.000000000000D+00 0.000000000000D+00 0.353343299433D-08 0.000000000000D+00  7 -2 1 -24 -11 11 23 21 2 0.90004118D-01 0.97608329D-01 0.24128526D+06 0.24128526D+06 0.24128526D+06 0.10916202D+01  1  2 15  1  7  1       -2 0.973336530299D-03 0.100000000000D+01
-.209081888722D-02 0.000000000000D+00 -.196259549484D-02 0.353343299433D-08 0.000000000000D+00  7 -2 1 -24 -11 11 23 21 2 0.75105103D+00 0.97608329D-01 0.24128526D+06 0.24128526D+06 0.24128526D+06 0.10916202D+01  1  2  5  1  7  1       -2 -.735041426837D-06 0.100000000000D+01
-.786924053266D-03 0.000000000000D+00 -.503889369422D-03 0.353343299433D-08 0.000000000000D+00  7 21 1 -24 -11 11 23 2 2 0.75105103D+00 0.97608329D-01 0.24128526D+06 0.24128526D+06 0.24128526D+06 0.10916202D+01  1  2  5  3  7  1       -2 -.157575092219D-06 0.100000000000D+01
  </mgrwgt>
  </event>
  <event>
  8     66 0.26562228E-05 0.15174846E+03 0.75467711E-02 0.10165402E+00
       -2 -1    0    0    0  501 0.00000000E+00 0.00000000E+00 0.14896851E+03 0.14896886E+03 0.32000000E+00 0.0000E+00 0.9000E+01
        1 -1    0    0  501    0 0.00000000E+00 0.00000000E+00 -.86772831E+03 0.86772837E+03 0.32000000E+00 0.0000E+00 0.9000E+01
       25  2    1    2    0    0 -.91207614E+02 -.17405850E+03 -.11389245E+03 0.37564582E+03 0.29920411E+03 0.0000E+00 0.0000E+00
       23  2    3    3    0    0 -.12888859E+03 -.60886247E+02 0.25991770E+02 0.17043699E+03 0.89742922E+02 0.0000E+00 0.0000E+00
      -24  1    1    2    0    0 0.91207614E+02 0.17405850E+03 -.60486734E+03 0.64105141E+03 0.80419002E+02 0.0000E+00 0.9000E+01
      -11  1    4    4    0    0 -.82342330E+01 -.45925592E+02 0.34384021E+01 0.46784455E+02 0.51099893E-03 0.0000E+00 0.9000E+01
       11  1    4    4    0    0 -.12065436E+03 -.14960655E+02 0.22553368E+02 0.12365254E+03 0.51099893E-03 0.0000E+00 0.9000E+01
       23  1    3    3    0    0 0.37680980E+02 -.11317225E+03 -.13988422E+03 0.20520882E+03 0.91188000E+02 0.0000E+00 0.9000E+01
#aMCatNLO 1  0  0  1  2 0.29572890D+02 0.00000000D+00  -5  7  0 0.00000000D+00 0.00000000D+00 0.00000000D+00 0.00000000D+00 0.00000000D+00
  <mgrwgt>
 0.1110251594D-02    9    2    0
 0.359533588812691D+03 0.000000000000000D+00 0.000000000000000D+00 0.359533588812691D+03
 0.359533588812691D+03 0.000000000000000D+00 0.000000000000000D+00 -.359533588812691D+03
 0.301781067577671D+03 0.912076144266606D+02 0.174058497290283D+03 -.214451410313839D+03
 0.695860025035862D+02 -.823423300817609D+01 -.459255919932164D+02 0.516260510911767D+02
 0.197377452801413D+03 -.120654361200812D+03 -.149606551017373D+02 0.155488143588265D+03
 0.150322654742710D+03 0.376809797823276D+02 -.113172250195330D+03 0.733721563439718D+01
 0.000000000000000D+00 0.000000000000000D+00 0.000000000000000D+00 0.000000000000000D+00
 0.375233264305593D+03 0.000000000000000D+00 0.000000000000000D+00 0.375233264305593D+03
 0.374038778217158D+03 0.000000000000000D+00 0.000000000000000D+00 -.374038778217158D+03
 0.296549772615692D+03 0.793337683930956D+02 0.170854609217909D+03 -.214451410313839D+03
 0.704638251941645D+02 -.110135149361693D+02 -.466755181918290D+02 0.516260510911767D+02
 0.202495376705806D+03 -.128589817793757D+03 -.171018580999161D+02 0.155488143588265D+03
 0.150166064483664D+03 0.317177959595382D+02 -.114781280114465D+03 0.733721563439718D+01
 0.295970035234245D+02 0.285517683772926D+02 0.770404718830130D+01 0.119448608843497D+01
0.200995790147D-04 0.000000000000D+00 0.000000000000D+00 0.106446690849D-05 0.000000000000D+00  7 -2 1 -24 -11 11 23 21 0 0.22918264D-01 0.13349669D+00 0.70412200D+05 0.70412200D+05 0.70412200D+05 0.11344429D+01  1  2  2  1  7  1       -2 0.687765515935D-03 0.100000000000D+01
-.991381357513D-06 0.000000000000D+00 -.771876757573D-07 0.106446690849D-05 0.000000000000D+00  7 -2 1 -24 -11 11 23 21 2 0.22918264D-01 0.13349669D+00 0.70412200D+05 0.70412200D+05 0.70412200D+05 0.11344429D+01  1  2  3  1  7  1       -2 -.436575621699D-04 0.100000000000D+01
0.131117731017D-05 0.000000000000D+00 0.000000000000D+00 0.106446690849D-05 0.000000000000D+00  7 -2 1 -24 -11 11 23 21 2 0.22918264D-01 0.13349669D+00 0.70412200D+05 0.70412200D+05 0.70412200D+05 0.11344429D+01  1  2 15  1  7  1       -2 0.577404492232D-04 0.100000000000D+01
0.402588408701D-04 0.000000000000D+00 0.000000000000D+00 0.106446690849D-05 0.000000000000D+00  7 -2 1 -24 -11 11 23 21 2 0.24362233D-01 0.13349669D+00 0.78978340D+05 0.78978340D+05 0.78978340D+05 0.11302310D+01  1  2 12  1  7  1       -2 0.158467816047D-02 0.100000000000D+01
-.319073427152D-04 0.000000000000D+00 0.000000000000D+00 0.106446690849D-05 0.000000000000D+00  7 -2 1 -24 -11 11 23 21 2 0.22918264D-01 0.13349669D+00 0.70412200D+05 0.70412200D+05 0.70412200D+05 0.11344429D+01  1  2  4  1  7  1       -2 -.140510691240D-02 0.100000000000D+01
-.153458892725D-03 0.000000000000D+00 -.323456906711D-04 0.106446690849D-05 0.000000000000D+00  7 -2 1 -24 -11 11 23 21 2 0.24870181D-01 0.13349669D+00 0.70412200D+05 0.70412200D+05 0.70412200D+05 0.11344429D+01  1  2  5  1  7  1       -2 -.588773196039D-02 0.100000000000D+01
0.155690079088D-03 0.000000000000D+00 0.322379450969D-04 0.106446690849D-05 0.000000000000D+00  7 -2 1 -24 -11 11 23 21 2 0.22918264D-01 0.13349669D+00 0.70412200D+05 0.70412200D+05 0.70412200D+05 0.11344429D+01  1  2  6  1  7  1       -2 0.685613992589D-02 0.100000000000D+01
0.451586025417D-06 0.000000000000D+00 0.000000000000D+00 0.106446690849D-05 0.000000000000D+00  7 21 1 -24 -11 11 23 2 2 0.24362233D-01 0.13349669D+00 0.78978340D+05 0.78978340D+05 0.78978340D+05 0.11302310D+01  1  2 12  3  7  1       -2 0.220943482959D-03 0.100000000000D+01
-.201614361570D-05 0.000000000000D+00 -.440344614566D-06 0.106446690849D-05 0.000000000000D+00  7 21 1 -24 -11 11 23 2 2 0.24870181D-01 0.13349669D+00 0.70412200D+05 0.70412200D+05 0.70412200D+05 0.11344429D+01  1  2  5  3  7  1       -2 -.960519505071D-03 0.100000000000D+01
  </mgrwgt>
  </event>
  <event>
  9     66 0.26562228E-05 0.37253871E+03 0.75467711E-02 0.89756609E-01
       21 -1    0    0  502  501 0.00000000E+00 0.00000000E+00 0.18094150E+03 0.18094305E+03 0.75000000E+00 0.0000E+00 0.9000E+01
        3 -1    0    0  501    0 0.00000000E+00 0.00000000E+00 -.58900491E+04 0.58900492E+04 0.50000000E+00 0.0000E+00 0.9000E+01
       25  2    1    2    0    0 0.29487919E+02 0.14743988E+03 -.34460459E+04 0.34624159E+04 0.30080522E+03 0.0000E+00 0.0000E+00
       23  2    3    3    0    0 0.10574775E+03 0.81991982E+01 -.19023904E+04 0.19079414E+04 0.99505651E+02 0.0000E+00 0.0000E+00
      -24  1    1    2    0    0 -.61101993E+03 0.77427753E+02 -.76138784E+03 0.98260830E+03 0.80419002E+02 0.0000E+00 0.9000E+01
      -13  1    4    4    0    0 -.40201177E+00 -.31943424E+02 -.42175030E+03 0.42295848E+03 0.10565837E+00 0.0000E+00 0.9000E+01
       13  1    4    4    0    0 0.10614976E+03 0.40142622E+02 -.14806401E+04 0.14849829E+04 0.10565837E+00 0.0000E+00 0.9000E+01
       23  1    3    3    0    0 -.76259831E+02 0.13924069E+03 -.15436555E+04 0.15544745E+04 0.91188000E+02 0.0000E+00 0.9000E+01
        4  1    1    2  502    0 0.58153201E+03 -.22486764E+03 -.15016739E+04 0.16259680E+04 0.15500000E+01 0.0000E+00 0.9000E+01
#aMCatNLO 2  0  0  1  2 0.62349413D+03 0.00000000D+00  -5  7  0 0.00000000D+00 0.00000000D+00 0.00000000D+00 0.00000000D+00 0.00000000D+00
  <mgrwgt>
 0.6618763451D-07    1    2    0
 0.645561175609565D+03 0.000000000000000D+00 0.000000000000000D+00 0.645561175609565D+03
 0.645561175609565D+03 0.000000000000000D+00 0.000000000000000D+00 -.645561175609565D+03
 0.613024922948037D+03 -.306901257042066D+03 -.401692945248548D+02 0.523001325432786D+03
 0.871514135385263D+02 0.339114192643446D+02 -.452119173733165D+02 -.663420458884821D+02
 0.328236202265985D+03 0.231435246294609D+03 -.830282447614337D+01 -.232610821666294D+03
 0.262709812466582D+03 0.415545914831126D+02 0.936840363743146D+02 -.224048457878011D+03
 0.000000000000000D+00 0.000000000000000D+00 -.000000000000000D+00 0.000000000000000D+00
 0.109193021052106D+04 0.000000000000000D+00 0.000000000000000D+00 0.109193021052106D+04
 0.976030447292373D+03 0.000000000000000D+00 0.000000000000000D+00 -.976030447292373D+03
 0.811996313810435D+03 -.611019929542161D+03 0.774277533266020D+02 0.523001325432786D+03
 0.736329832932647D+02 -.402130640666755D+00 -.319435042996940D+02 -.663420458884821D+02
 0.258818523997962D+03 0.106149882518267D+03 0.401427010747057D+02 -.232610821666294D+03
 0.289338027424938D+03 -.762598325364571D+02 0.139240688141617D+03 -.224048457878011D+03
 0.634174809286834D+03 0.581532010201018D+03 -.224867638243231D+03 0.115899763228687D+03
0.823791193116D-04 0.000000000000D+00 0.000000000000D+00 0.214698177783D-06 0.394011627789D-12  7 21 3 -24 -13 13 23 4 2 0.27837249D-01 0.90616069D+00 0.61869424D+06 0.61869424D+06 0.61869424D+06 0.10620333D+01  1  2  1  3  7  1       -4 0.661876345146D-07 0.100000000000D+01
  </mgrwgt>
  </event>
  <event>
  8     66 0.26562228E-05 0.39875502E+03 0.75467711E-02 0.93213360E-01
       -2 -1    0    0    0  501 0.00000000E+00 0.00000000E+00 0.19571577E+03 0.19571603E+03 0.32000000E+00 0.0000E+00 0.9000E+01
        1 -1    0    0  501    0 0.00000000E+00 0.00000000E+00 -.18889283E+04 0.18889283E+04 0.32000000E+00 0.0000E+00 0.9000E+01
       25  2    1    2    0    0 -.48086720E+03 -.14621048E+03 -.43954811E+03 0.73159135E+03 0.29901938E+03 0.0000E+00 0.0000E+00
       23  2    3    3    0    0 -.13204912E+03 0.32350845E+02 -.48503715E+02 0.17053060E+03 0.90799372E+02 0.0000E+00 0.0000E+00
      -24  1    1    2    0    0 0.48086720E+03 0.14621048E+03 -.12536644E+04 0.13530530E+04 0.80419002E+02 0.0000E+00 0.9000E+01
      -11  1    4    4    0    0 -.79342585E+02 0.27484604E+02 0.17654638E+02 0.85804052E+02 0.51099893E-03 0.0000E+00 0.9000E+01
       11  1    4    4    0    0 -.52706538E+02 0.48662415E+01 -.66158354E+02 0.84726543E+02 0.51099893E-03 0.0000E+00 0.9000E+01
       23  1    3    3    0    0 -.34881808E+03 -.17856132E+03 -.39104440E+03 0.56106075E+03 0.91188000E+02 0.0000E+00 0.9000E+01
#aMCatNLO 1  0  0  2  1 0.85058288D+02 0.00000000D+00  -5  7  0 0.00000000D+00 0.00000000D+00 0.00000000D+00 0.00000000D+00 0.00000000D+00
  <mgrwgt>
 0.1474035219D-02    9    2    0
 0.608024142438484D+03 0.000000000000000D+00 0.000000000000000D+00 0.608024142438484D+03
 0.608024142438484D+03 0.000000000000000D+00 0.000000000000000D+00 -.608024142438484D+03
 0.573919667557536D+03 0.480867197598696D+03 0.146210479639741D+03 -.265152414230148D+03
 0.171674093661310D+03 -.793425845180785D+02 0.274846035918495D+02 0.149737588072677D+03
 0.531266384346162D+02 -.527065376410236D+02 0.486624151938904D+01 0.455854085566501D+01
 0.417327885223504D+03 -.348818075439594D+03 -.178561324750980D+03 0.110856285301806D+03
 0.000000000000000D+00 -.000000000000000D+00 -.000000000000000D+00 -.000000000000000D+00
 0.620921790748048D+03 0.000000000000000D+00 0.000000000000000D+00 0.620921790748048D+03
 0.768002104536316D+03 0.000000000000000D+00 0.000000000000000D+00 -.768002104536316D+03
 0.610444851288257D+03 0.519895157435706D+03 0.159934120852298D+03 -.265152414230148D+03
 0.167495778834033D+03 -.681660354480572D+02 0.314146821835071D+02 0.149737588072677D+03
 0.498914679377518D+02 -.493118171356307D+02 0.605994793979852D+01 0.455854085566501D+01
 0.391187320799751D+03 -.322175349753216D+03 -.169192779488265D+03 0.110856285301806D+03
 0.169904476424572D+03 -.802419550988029D+02 -.282159714873386D+02 -.147080313788268D+03
0.245400148797D-03 0.000000000000D+00 0.000000000000D+00 0.504326196076D-05 0.000000000000D+00  7 -2 1 -24 -11 11 23 21 0 0.30110141D-01 0.29060437D+00 0.27469699D+06 0.27469699D+06 0.27469699D+06 0.10873945D+01  1  2  2  2  7  2        1 0.979801880599D-03 0.100000000000D+01
-.132677871415D-04 0.000000000000D+00 -.942401186724D-06 0.504326196076D-05 0.000000000000D+00  7 -2 1 -24 -11 11 23 21 2 0.30110141D-01 0.29060437D+00 0.27469699D+06 0.27469699D+06 0.27469699D+06 0.10873945D+01  1  2  3  2  7  2        1 -.626377532075D-04 0.100000000000D+01
0.154554092817D-04 0.000000000000D+00 0.000000000000D+00 0.504326196076D-05 0.000000000000D+00  7 -2 1 -24 -11 11 23 21 2 0.30110141D-01 0.29060437D+00 0.27469699D+06 0.27469699D+06 0.27469699D+06 0.10873945D+01  1  2 15  2  7  2        1 0.729656047375D-04 0.100000000000D+01
0.748527916374D-03 0.000000000000D+00 0.000000000000D+00 0.504326196076D-05 0.000000000000D+00  7 -2 1 -24 -11 11 23 21 2 0.30110141D-01 0.36958392D+00 0.32194317D+06 0.32194317D+06 0.32194317D+06 0.10822909D+01  1  2 12  2  7  2        1 0.156837899203D-02 0.100000000000D+01
-.751545887344D-03 0.000000000000D+00 0.000000000000D+00 0.504326196076D-05 0.000000000000D+00  7 -2 1 -24 -11 11 23 21 2 0.30110141D-01 0.29060437D+00 0.27469699D+06 0.27469699D+06 0.27469699D+06 0.10873945D+01  1  2  4  2  7  2        1 -.354807816206D-02 0.100000000000D+01
-.947266440144D-03 0.000000000000D+00 -.119217952837D-03 0.504326196076D-05 0.000000000000D+00  7 -2 1 -24 -11 11 23 21 2 0.30110141D-01 0.36941729D+00 0.27469699D+06 0.27469699D+06 0.27469699D+06 0.10873945D+01  1  2  5  2  7  2        1 -.202518178225D-02 0.100000000000D+01
0.951694123364D-03 0.000000000000D+00 0.115865973179D-03 0.504326196076D-05 0.000000000000D+00  7 -2 1 -24 -11 11 23 21 2 0.30110141D-01 0.29060437D+00 0.27469699D+06 0.27469699D+06 0.27469699D+06 0.10873945D+01  1  2  6  2  7  2        1 0.449298598121D-02 0.100000000000D+01
0.246102926550D-04 0.000000000000D+00 0.000000000000D+00 0.504326196076D-05 0.000000000000D+00  7 -2 21 -24 -11 11 23 -1 2 0.30110141D-01 0.36958392D+00 0.32194317D+06 0.32194317D+06 0.32194317D+06 0.10822909D+01  1  2 12  4  7  2        1 0.188370181324D-04 0.100000000000D+01
-.292335020860D-04 0.000000000000D+00 -.391421895933D-05 0.504326196076D-05 0.000000000000D+00  7 -2 21 -24 -11 11 23 -1 2 0.30110141D-01 0.36941729D+00 0.27469699D+06 0.27469699D+06 0.27469699D+06 0.10873945D+01  1  2  5  4  7  2        1 -.230365597730D-04 0.100000000000D+01
  </mgrwgt>
  </event>
  <event>
  8     66 0.26562228E-05 0.33155961E+03 0.75467711E-02 0.86768776E-01
       -2 -1    0    0    0  501 0.00000000E+00 0.00000000E+00 0.59780987E+03 0.59780996E+03 0.32000000E+00 0.0000E+00 0.9000E+01
        1 -1    0    0  501    0 0.00000000E+00 0.00000000E+00 -.81872123E+03 0.81872129E+03 0.32000000E+00 0.0000E+00 0.9000E+01
       25  2    1    2    0    0 -.68210864E+02 -.26751225E+03 -.72783032E+03 0.83373662E+03 0.29860383E+03 0.0000E+00 0.0000E+00
       23  2    3    3    0    0 -.13200711E+03 -.20048297E+03 -.40999212E+03 0.49037200E+03 0.12145725E+03 0.0000E+00 0.0000E+00
      -24  1    1    2    0    0 0.68210864E+02 0.26751225E+03 0.50691897E+03 0.58279463E+03 0.80419002E+02 0.0000E+00 0.9000E+01
      -13  1    4    4    0    0 -.11052927E+02 -.56689867E+02 -.26972203E+02 0.63744954E+02 0.10565837E+00 0.0000E+00 0.9000E+01
       13  1    4    4    0    0 -.12095419E+03 -.14379310E+03 -.38301991E+03 0.42662705E+03 0.10565837E+00 0.0000E+00 0.9000E+01
       23  1    3    3    0    0 0.63796250E+02 -.67029283E+02 -.31783820E+03 0.34336462E+03 0.91188000E+02 0.0000E+00 0.9000E+01
#aMCatNLO 1  0  0  2  1 0.10353134D+04 0.00000000D+00  -5  7  0 0.00000000D+00 0.00000000D+00 0.00000000D+00 0.00000000D+00 0.00000000D+00
  <mgrwgt>
 0.2094383430D-02    3    2    0
 0.699599698151449D+03 0.000000000000000D+00 0.000000000000000D+00 0.699599698151449D+03
 0.699599698151449D+03 0.000000000000000D+00 0.000000000000000D+00 -.699599698151449D+03
 0.670048144740009D+03 0.682108644128005D+02 0.267512252600186D+03 0.605212171886844D+03
 0.602758389874885D+02 -.110528505762844D+02 -.566897931859200D+02 -.172417692920877D+02
 0.371439116648464D+03 -.120954279502186D+03 -.143793173521441D+03 -.320406933282242D+03
 0.297436295926936D+03 0.637962656656701D+02 -.670292858928252D+02 -.267563469312514D+03
 0.000000000000000D+00 0.000000000000000D+00 0.000000000000000D+00 0.000000000000000D+00
 0.444675622198217D+04 0.000000000000000D+00 0.000000000000000D+00 0.444675622198217D+04
 0.945217555298811D+03 0.000000000000000D+00 0.000000000000000D+00 -.945217555298811D+03
 0.634062424381017D+03 -.125395673794584D+03 -.116456404079698D+03 0.605212171886844D+03
 0.116119119319858D+03 -.372402138595520D+02 -.108625677144000D+03 -.172417692920877D+02
 0.597363084168002D+03 -.264781378790394D+03 -.429037146267353D+03 -.320406933282242D+03
 0.393039424144709D+03 -.387108507128306D+02 -.270325724847904D+03 -.267563469312514D+03
 0.365138972526739D+04 0.466128117157360D+03 0.924444952338955D+03 0.350153866668335D+04
0.799154058431D-03 0.000000000000D+00 0.000000000000D+00 0.894276159886D-08 0.000000000000D+00  7 -2 1 -24 -13 13 23 21 0 0.91970761D-01 0.12595712D+00 0.10993177D+06 0.10993177D+06 0.10993177D+06 0.11183629D+01  1  2  2  2  7  2        1 0.198672377488D-02 0.100000000000D+01
-.142997946660D-04 0.000000000000D+00 -.306896200647D-05 0.894276159886D-08 0.000000000000D+00  7 -2 1 -24 -13 13 23 21 2 0.91970761D-01 0.12595712D+00 0.10993177D+06 0.10993177D+06 0.10993177D+06 0.11183629D+01  1  2  3  2  7  2        1 -.444633644924D-04 0.100000000000D+01
0.489240517327D-04 0.000000000000D+00 0.000000000000D+00 0.894276159886D-08 0.000000000000D+00  7 -2 1 -24 -13 13 23 21 2 0.91970761D-01 0.12595712D+00 0.10993177D+06 0.10993177D+06 0.10993177D+06 0.11183629D+01  1  2 15  2  7  2        1 0.152123019627D-03 0.100000000000D+01
  </mgrwgt>
  </event>
  <event>
  8     66 0.26562228E-05 0.17558270E+03 0.75467711E-02 0.87811598E-01
       -2 -1    0    0    0  501 0.00000000E+00 0.00000000E+00 0.12186630E+03 0.12186672E+03 0.32000000E+00 0.0000E+00 0.9000E+01
        1 -1    0    0  501    0 0.00000000E+00 0.00000000E+00 -.52730608E+03 0.52730617E+03 0.32000000E+00 0.0000E+00 0.9000E+01
       25  2    1    2    0    0 -.42234390E+02 0.82926330E+02 -.11213330E+03 0.33112191E+03 0.29733369E+03 0.0000E+00 0.0000E+00
       23  2    3    3    0    0 -.49236088E+02 -.47673160E+02 0.40415737E+02 0.11045993E+03 0.76622722E+02 0.0000E+00 0.0000E+00
      -24  1    1    2    0    0 0.42234390E+02 -.82926330E+02 -.29330648E+03 0.31805098E+03 0.80419002E+02 0.0000E+00 0.9000E+01
      -13  1    4    4    0    0 -.45006755E+02 -.41304527E+02 -.78522793E+01 0.61590108E+02 0.10565837E+00 0.0000E+00 0.9000E+01
       13  1    4    4    0    0 -.42293322E+01 -.63686325E+01 0.48268017E+02 0.48869820E+02 0.10565837E+00 0.0000E+00 0.9000E+01
       23  1    3    3    0    0 0.70016980E+01 0.13059949E+03 -.15254903E+03 0.22066198E+03 0.91188000E+02 0.0000E+00 0.9000E+01
#aMCatNLO 1  0  0  2  1 0.93364446D+03 0.00000000D+00  -5  7  0 0.00000000D+00 0.00000000D+00 0.00000000D+00 0.00000000D+00 0.00000000D+00
  <mgrwgt>
 0.3443266368D-02    3    2    0
 0.253497549814562D+03 0.000000000000000D+00 0.000000000000000D+00 0.253497549814562D+03
 0.253497549814562D+03 0.000000000000000D+00 0.000000000000000D+00 -.253497549814562D+03
 0.172687988532402D+03 0.422343906368268D+02 -.829263324982875D+02 -.121216356383600D+03
 0.725825038320401D+02 -.450068298900339D+02 -.413045907465891D+02 0.391986722866279D+02
 0.101174080703134D+03 -.422925777596860D+01 -.636856835051822D+01 0.100884831971677D+03
 0.160550526561547D+03 0.700169702917568D+01 0.130599491595395D+03 -.188671478747049D+02
 0.000000000000000D+00 -.000000000000000D+00 -.000000000000000D+00 0.000000000000000D+00
 0.109767900681163D+04 0.000000000000000D+00 0.000000000000000D+00 0.109767900681163D+04
 0.915914077521329D+03 0.000000000000000D+00 0.000000000000000D+00 -.915914077521329D+03
 0.291837702998074D+03 0.215731142320991D+03 0.132169202595709D+03 -.121216356383600D+03
 0.408590796424316D+02 -.263727617625918D+01 0.112237807606107D+02 0.391986722866279D+02
 0.197994478414631D+03 0.107507884344101D+03 0.132159445234095D+03 0.100884831971677D+03
 0.531728620124312D+03 0.265562602052449D+03 0.451154750875474D+03 -.188671478747049D+02
 0.951173203153514D+03 -.586164352541281D+03 -.726707179465889D+03 0.181764929290304D+03
0.337462641246D-04 0.000000000000D+00 0.000000000000D+00 0.515826023302D-09 0.000000000000D+00  7 -2 1 -24 -13 13 23 21 0 0.18748701D-01 0.81124052D-01 0.30829286D+05 0.30829286D+05 0.30829286D+05 0.11662388D+01  1  2  2  2  7  2        1 0.336858941823D-02 0.100000000000D+01
-.156736399726D-05 0.000000000000D+00 -.129594539834D-06 0.515826023302D-09 0.000000000000D+00  7 -2 1 -24 -13 13 23 21 2 0.18748701D-01 0.81124052D-01 0.30829286D+05 0.30829286D+05 0.30829286D+05 0.11662388D+01  1  2  3  2  7  2        1 -.212797830605D-03 0.100000000000D+01
0.211739762562D-05 0.000000000000D+00 0.000000000000D+00 0.515826023302D-09 0.000000000000D+00  7 -2 1 -24 -13 13 23 21 2 0.18748701D-01 0.81124052D-01 0.30829286D+05 0.30829286D+05 0.30829286D+05 0.11662388D+01  1  2 15  2  7  2        1 0.287474780616D-03 0.100000000000D+01
  </mgrwgt>
  </event>
  <event>
  8     66 0.26562228E-05 0.20801044E+03 0.75467711E-02 0.99572275E-01
       -2 -1    0    0    0  501 0.00000000E+00 0.00000000E+00 0.35568380E+03 0.35568394E+03 0.32000000E+00 0.0000E+00 0.9000E+01
        1 -1    0    0  501    0 0.00000000E+00 0.00000000E+00 -.33331751E+03 0.33331767E+03 0.32000000E+00 0.0000E+00 0.9000E+01
       25  2    1    2    0    0 0.15570272E+03 0.21711721E+03 0.64226140E+02 0.40686213E+03 0.30004762E+03 0.0000E+00 0.0000E+00
       23  2    3    3    0    0 0.83208605E+02 0.20891136E+03 0.11824148E+03 0.27819340E+03 0.11332649E+03 0.0000E+00 0.0000E+00
      -24  1    1    2    0    0 -.15570272E+03 -.21711721E+03 -.41859856E+02 0.28213948E+03 0.80419002E+02 0.0000E+00 0.9000E+01
      -11  1    4    4    0    0 0.69304402E+02 0.48333960E+02 0.12472438E+02 0.85409798E+02 0.51099893E-03 0.0000E+00 0.9000E+01
       11  1    4    4    0    0 0.13904203E+02 0.16057740E+03 0.10576904E+03 0.19278361E+03 0.51099893E-03 0.0000E+00 0.9000E+01
       23  1    3    3    0    0 0.72494112E+02 0.82058540E+01 -.54015342E+02 0.12866873E+03 0.91188000E+02 0.0000E+00 0.9000E+01
#aMCatNLO 1  0  0  1  2 0.19409692D+02 0.00000000D+00  -5  7  0 0.00000000D+00 0.00000000D+00 0.00000000D+00 0.00000000D+00 0.00000000D+00
  <mgrwgt>
 0.8591776681D-03    9    2    0
 0.344319242542313D+03 0.000000000000000D+00 0.000000000000000D+00 0.344319242542313D+03
 0.344319242542313D+03 0.000000000000000D+00 0.000000000000000D+00 -.344319242542313D+03
 0.283647815753817D+03 -.155702716880881D+03 -.217117214401966D+03 -.510455345136464D+02
 0.850497424357408D+02 0.693044016618799D+02 0.483339605866640D+02 0.970499112217408D+01
 0.189449990070218D+03 0.139042032218408D+02 0.160577400056242D+03 0.995633992064796D+02
 0.130490936824850D+03 0.724941119971604D+02 0.820585375905939D+01 -.582228558150073D+02
 0.000000000000000D+00 -.000000000000000D+00 0.000000000000000D+00 0.000000000000000D+00
 0.363722223863784D+03 0.000000000000000D+00 0.000000000000000D+00 0.363722223863784D+03
 0.349344536677569D+03 0.000000000000000D+00 0.000000000000000D+00 -.349344536677569D+03
 0.284067283943688D+03 -.149397682338219D+03 -.222039842755659D+03 -.510455345136464D+02
 0.857848424474573D+02 0.712016877466499D+02 0.468526627106950D+02 0.970499112217408D+01
 0.187048858708460D+03 0.180855932325820D+02 0.157312797953677D+03 0.995633992064796D+02
 0.132010982619851D+03 0.754094539891135D+02 0.592971315218467D+01 -.582228558150073D+02
 0.241547928218973D+02 -.152990526301264D+02 0.119446689391030D+02 0.143776871862143D+02
0.207233384320D-04 0.000000000000D+00 0.000000000000D+00 0.166844021439D-07 0.000000000000D+00  7 -2 1 -24 -11 11 23 21 0 0.54720607D-01 0.51279640D-01 0.10287131D+06 0.10287131D+06 0.10287131D+06 0.11207146D+01  1  2  2  1  7  1       -2 0.563556013298D-03 0.100000000000D+01
-.114424963640D-05 0.000000000000D+00 -.795830761592D-07 0.166844021439D-07 0.000000000000D+00  7 -2 1 -24 -11 11 23 21 2 0.54720607D-01 0.51279640D-01 0.10287131D+06 0.10287131D+06 0.10287131D+06 0.11207146D+01  1  2  3  1  7  1       -2 -.390830253058D-04 0.100000000000D+01
0.134226209817D-05 0.000000000000D+00 0.000000000000D+00 0.166844021439D-07 0.000000000000D+00  7 -2 1 -24 -11 11 23 21 2 0.54720607D-01 0.51279640D-01 0.10287131D+06 0.10287131D+06 0.10287131D+06 0.11207146D+01  1  2 15  1  7  1       -2 0.458463449593D-04 0.100000000000D+01
0.842313530558D-04 0.000000000000D+00 0.000000000000D+00 0.166844021439D-07 0.000000000000D+00  7 -2 1 -24 -11 11 23 21 2 0.58188731D-01 0.51279640D-01 0.10920182D+06 0.10920182D+06 0.10920182D+06 0.11185983D+01  1  2 12  1  7  1       -2 0.252902463701D-02 0.100000000000D+01
-.844636015371D-04 0.000000000000D+00 0.000000000000D+00 0.166844021439D-07 0.000000000000D+00  7 -2 1 -24 -11 11 23 21 2 0.54720607D-01 0.51279640D-01 0.10287131D+06 0.10287131D+06 0.10287131D+06 0.11207146D+01  1  2  4  1  7  1       -2 -.288494133735D-02 0.100000000000D+01
-.276143701569D-03 0.000000000000D+00 -.395219170121D-04 0.166844021439D-07 0.000000000000D+00  7 -2 1 -24 -11 11 23 21 2 0.58462030D-01 0.51279640D-01 0.10287131D+06 0.10287131D+06 0.10287131D+06 0.11207146D+01  1  2  5  1  7  1       -2 -.825134287722D-02 0.100000000000D+01
0.278235108442D-03 0.000000000000D+00 0.394356374783D-04 0.166844021439D-07 0.000000000000D+00  7 -2 1 -24 -11 11 23 21 2 0.54720607D-01 0.51279640D-01 0.10287131D+06 0.10287131D+06 0.10287131D+06 0.11207146D+01  1  2  6  1  7  1       -2 0.950340680766D-02 0.100000000000D+01
0.110300161115D-05 0.000000000000D+00 0.000000000000D+00 0.166844021439D-07 0.000000000000D+00  7 21 1 -24 -11 11 23 2 2 0.58188731D-01 0.51279640D-01 0.10920182D+06 0.10920182D+06 0.10920182D+06 0.11185983D+01  1  2 12  3  7  1       -2 0.346180234794D-03 0.100000000000D+01
-.304963275393D-05 0.000000000000D+00 -.444995547576D-06 0.166844021439D-07 0.000000000000D+00  7 21 1 -24 -11 11 23 2 2 0.58462030D-01 0.51279640D-01 0.10287131D+06 0.10287131D+06 0.10287131D+06 0.11207146D+01  1  2  5  3  7  1       -2 -.953469129710D-03 0.100000000000D+01
  </mgrwgt>
  </event>
  <event>
  8     66 0.26562228E-05 0.26746459E+03 0.75467711E-02 0.96397260E-01
       -2 -1    0    0    0  501 0.00000000E+00 0.00000000E+00 0.19151697E+03 0.19151723E+03 0.32000000E+00 0.0000E+00 0.9000E+01
        1 -1    0    0  501    0 0.00000000E+00 0.00000000E+00 -.19863962E+04 0.19863962E+04 0.32000000E+00 0.0000E+00 0.9000E+01
       25  2    1    2    0    0 0.32212245E+03 -.15191396E+03 -.17490863E+04 0.18099394E+04 0.29956143E+03 0.0000E+00 0.0000E+00
       23  2    3    3    0    0 0.22426310E+03 -.65695579E+02 -.14461248E+04 0.14677245E+04 0.91261629E+02 0.0000E+00 0.0000E+00
      -24  1    1    2    0    0 -.32212245E+03 0.15191396E+03 -.45792979E+02 0.36797410E+03 0.80419002E+02 0.0000E+00 0.9000E+01
      -11  1    4    4    0    0 0.21932850E+03 -.40440535E+02 -.12281239E+04 0.12482102E+04 0.51099893E-03 0.0000E+00 0.9000E+01
       11  1    4    4    0    0 0.49345948E+01 -.25255044E+02 -.21800090E+03 0.21951437E+03 0.51099893E-03 0.0000E+00 0.9000E+01
       23  1    3    3    0    0 0.97859350E+02 -.86218379E+02 -.30296151E+03 0.34221483E+03 0.91188000E+02 0.0000E+00 0.9000E+01
#aMCatNLO 1  0  0  2  1 0.81564518D+02 0.00000000D+00  -5  7  0 0.00000000D+00 0.00000000D+00 0.00000000D+00 0.00000000D+00 0.00000000D+00
  <mgrwgt>
 0.1991219245D-02    9    2    0
 0.616789181435251D+03 0.000000000000000D+00 0.000000000000000D+00 0.616789181435251D+03
 0.616789181435251D+03 0.000000000000000D+00 0.000000000000000D+00 -.616789181435251D+03
 0.583037845793421D+03 -.322122448878851D+03 0.151913957653536D+03 0.454560437204333D+03
 0.416803459716452D+03 0.219328504059216D+03 -.404405346479772D+02 -.352114604207403D+03
 0.703627918893163D+02 0.493459478753046D+01 -.252550442401957D+02 -.654885867702752D+02
 0.163374265471313D+03 0.978593500321040D+02 -.862183787653636D+02 -.369572462266545D+02
 0.000000000000000D+00 0.000000000000000D+00 0.000000000000000D+00 -.000000000000000D+00
 0.655082137222746D+03 0.000000000000000D+00 0.000000000000000D+00 0.655082137222746D+03
 0.663152636003572D+03 0.000000000000000D+00 0.000000000000000D+00 -.663152636003572D+03
 0.574319906373089D+03 -.322218491210254D+03 0.113693411211098D+03 0.454560437204333D+03
 0.420351063921254D+03 0.219259033515605D+03 -.680866996218554D+02 -.352114604207403D+03
 0.721854781292106D+02 0.492276554271440D+01 -.299625538795734D+02 -.654885867702752D+02
 0.169415507048205D+03 0.978317337608514D+02 -.972084178715438D+02 -.369572462266545D+02
 0.819628177545605D+02 0.204958391083386D+00 0.815642601618743D+02 -.807049878082551D+01
0.235959934219D-03 0.000000000000D+00 0.000000000000D+00 0.183477900512D-04 0.000000000000D+00  7 -2 1 -24 -11 11 23 21 0 0.29464171D-01 0.30559944D+00 0.14938655D+06 0.14938655D+06 0.14938655D+06 0.11076924D+01  1  2  2  2  7  2        1 0.868613433778D-03 0.100000000000D+01
-.962720074367D-05 0.000000000000D+00 -.906148277078D-06 0.183477900512D-04 0.000000000000D+00  7 -2 1 -24 -11 11 23 21 2 0.29464171D-01 0.30559944D+00 0.14938655D+06 0.14938655D+06 0.14938655D+06 0.11076924D+01  1  2  3  2  7  2        1 -.434837143486D-04 0.100000000000D+01
0.145758104660D-04 0.000000000000D+00 0.000000000000D+00 0.183477900512D-04 0.000000000000D+00  7 -2 1 -24 -11 11 23 21 2 0.29464171D-01 0.30559944D+00 0.14938655D+06 0.14938655D+06 0.14938655D+06 0.11076924D+01  1  2 15  2  7  2        1 0.658353757836D-04 0.100000000000D+01
0.324996412875D-03 0.000000000000D+00 0.000000000000D+00 0.183477900512D-04 0.000000000000D+00  7 -2 1 -24 -11 11 23 21 2 0.29464171D-01 0.33741712D+00 0.18398775D+06 0.18398775D+06 0.18398775D+06 0.11006197D+01  1  2 12  2  7  2        1 0.104547863768D-02 0.100000000000D+01
-.275920950418D-03 0.000000000000D+00 0.000000000000D+00 0.183477900512D-04 0.000000000000D+00  7 -2 1 -24 -11 11 23 21 2 0.29464171D-01 0.30559944D+00 0.14938655D+06 0.14938655D+06 0.14938655D+06 0.11076924D+01  1  2  4  2  7  2        1 -.124626754030D-02 0.100000000000D+01
-.975473627576D-03 0.000000000000D+00 -.241615424479D-03 0.183477900512D-04 0.000000000000D+00  7 -2 1 -24 -11 11 23 21 2 0.29464171D-01 0.33834921D+00 0.14938655D+06 0.14938655D+06 0.14938655D+06 0.11076924D+01  1  2  5  2  7  2        1 -.318358027273D-02 0.100000000000D+01
0.996151060650D-03 0.000000000000D+00 0.240368768028D-03 0.183477900512D-04 0.000000000000D+00  7 -2 1 -24 -11 11 23 21 2 0.29464171D-01 0.30559944D+00 0.14938655D+06 0.14938655D+06 0.14938655D+06 0.11076924D+01  1  2  6  2  7  2        1 0.449937103449D-02 0.100000000000D+01
0.523506956072D-05 0.000000000000D+00 0.000000000000D+00 0.183477900512D-04 0.000000000000D+00  7 -2 21 -24 -11 11 23 -1 2 0.29464171D-01 0.33741712D+00 0.18398775D+06 0.18398775D+06 0.18398775D+06 0.11006197D+01  1  2 12  4  7  2        1 0.746430095256D-05 0.100000000000D+01
-.152662130677D-04 0.000000000000D+00 -.398537315253D-05 0.183477900512D-04 0.000000000000D+00  7 -2 21 -24 -11 11 23 -1 2 0.29464171D-01 0.33834921D+00 0.14938655D+06 0.14938655D+06 0.14938655D+06 0.11076924D+01  1  2  5  4  7  2        1 -.222120107028D-04 0.100000000000D+01
  </mgrwgt>
  </event>
  <event>
  8     66 0.26562228E-05 0.31403052E+03 0.75467711E-02 0.96546874E-01
       -2 -1    0    0    0  501 0.00000000E+00 0.00000000E+00 0.11075242E+03 0.11075288E+03 0.32000000E+00 0.0000E+00 0.9000E+01
        1 -1    0    0  501    0 0.00000000E+00 0.00000000E+00 -.11919656E+04 0.11919656E+04 0.32000000E+00 0.0000E+00 0.9000E+01
       25  2    1    2    0    0 0.33848708E+01 0.26829130E+03 -.40555040E+03 0.57129588E+03 0.29986025E+03 0.0000E+00 0.0000E+00
       23  2    3    3    0    0 0.74215924E+02 0.12987281E+03 -.33417197E+03 0.37742260E+03 0.91662210E+02 0.0000E+00 0.0000E+00
      -24  1    1    2    0    0 -.33848708E+01 -.26829130E+03 -.67566275E+03 0.73142262E+03 0.80419002E+02 0.0000E+00 0.9000E+01
      -11  1    4    4    0    0 0.70981927E+02 0.47827329E+02 -.22565545E+03 0.24134264E+03 0.51099893E-03 0.0000E+00 0.9000E+01
       11  1    4    4    0    0 0.32339972E+01 0.82045480E+02 -.10851652E+03 0.13607995E+03 0.51099893E-03 0.0000E+00 0.9000E+01
       23  1    3    3    0    0 -.70831053E+02 0.13841850E+03 -.71378432E+02 0.19387328E+03 0.91188000E+02 0.0000E+00 0.9000E+01
#aMCatNLO 1  0  0  1  1 0.18791530D+03 0.00000000D+00  -5  7  0 0.00000000D+00 0.00000000D+00 0.00000000D+00 0.00000000D+00 0.00000000D+00
  <mgrwgt>
 0.1233704902D-02    7    2    0
 0.363336486537598D+03 0.000000000000000D+00 0.000000000000000D+00 0.363336486537598D+03
 0.363336486537598D+03 0.000000000000000D+00 0.000000000000000D+00 -.363336486537598D+03
 0.305917978344066D+03 -.338487078763773D+01 -.268291304770579D+03 -.122991511715243D+03
 0.969072516881639D+02 0.709819267885524D+02 0.478273286080006D+02 -.454436809398189D+02
 0.824915617352572D+02 0.323399717088810D+01 0.820454796942195D+02 0.793336508461922D+01
 0.241356181307710D+03 -.708310531718027D+02 0.138418496468359D+03 0.160501827570443D+03
 0.000000000000000D+00 0.000000000000000D+00 -.000000000000000D+00 0.000000000000000D+00
 0.471420864967414D+03 0.000000000000000D+00 0.000000000000000D+00 0.471420864967414D+03
 0.467120593751211D+03 0.000000000000000D+00 0.000000000000000D+00 -.467120593751211D+03
 0.250875289896280D+03 -.270323213851414D+02 -.201528004934057D+03 -.122991511715243D+03
 0.105624833023874D+03 0.623802289218139D+02 0.721123030669750D+02 -.454436809398189D+02
 0.104925149457704D+03 -.472573882428393D+01 0.104518018062534D+03 0.793336508461922D+01
 0.289151686216300D+03 -.933621420057392D+02 0.202029997981432D+03 0.160501827570443D+03
 0.187964500124469D+03 0.627399732933506D+02 -.177132314176884D+03 0.430027121620324D+01
0.366566222783D-04 0.000000000000D+00 0.000000000000D+00 0.510277212399D-05 0.000000000000D+00  7 -2 1 -24 -11 11 23 21 0 0.17038873D-01 0.18337936D+00 0.98615166D+05 0.98615166D+05 0.98615166D+05 0.11222194D+01  1  2  2  1  7  1       -2 0.116491347343D-02 0.100000000000D+01
-.198381548609D-05 0.000000000000D+00 -.140771081459D-06 0.510277212399D-05 0.000000000000D+00  7 -2 1 -24 -11 11 23 21 2 0.17038873D-01 0.18337936D+00 0.98615166D+05 0.98615166D+05 0.98615166D+05 0.11222194D+01  1  2  3  1  7  1       -2 -.793958902010D-04 0.100000000000D+01
0.237755241629D-05 0.000000000000D+00 0.000000000000D+00 0.510277212399D-05 0.000000000000D+00  7 -2 1 -24 -11 11 23 21 2 0.17038873D-01 0.18337936D+00 0.98615166D+05 0.98615166D+05 0.98615166D+05 0.11222194D+01  1  2 15  1  7  1       -2 0.951539555540D-04 0.100000000000D+01
-.117253365122D-04 0.000000000000D+00 0.000000000000D+00 0.510277212399D-05 0.000000000000D+00  7 -2 1 -24 -11 11 23 21 2 0.17038873D-01 0.18337936D+00 0.98615166D+05 0.98615166D+05 0.98615166D+05 0.11222194D+01  1  2  4  1  7  1       -2 -.469269212191D-03 0.100000000000D+01
-.154350449036D-04 0.000000000000D+00 -.130007893793D-04 0.510277212399D-05 0.000000000000D+00  7 -2 1 -24 -11 11 23 21 2 0.28729001D-01 0.18337936D+00 0.98615166D+05 0.98615166D+05 0.98615166D+05 0.11222194D+01  1  2  5  1  7  1       -2 -.257172391847D-03 0.100000000000D+01
0.209016346583D-04 0.000000000000D+00 0.114083272713D-04 0.510277212399D-05 0.000000000000D+00  7 -2 1 -24 -11 11 23 21 2 0.17038873D-01 0.18337936D+00 0.98615166D+05 0.98615166D+05 0.98615166D+05 0.11222194D+01  1  2  6  1  7  1       -2 0.836521290404D-03 0.100000000000D+01
-.286024058927D-06 0.000000000000D+00 -.759224907251D-06 0.510277212399D-05 0.000000000000D+00  7 21 1 -24 -11 11 23 2 2 0.28729001D-01 0.18337936D+00 0.98615166D+05 0.98615166D+05 0.98615166D+05 0.11222194D+01  1  2  5  3  7  1       -2 -.570463228388D-04 0.100000000000D+01
  </mgrwgt>
  </event>
  <event>
  8     66 0.26562228E-05 0.30691133E+03 0.75467711E-02 0.95795499E-01
       -2 -1    0    0    0  501 0.00000000E+00 0.00000000E+00 0.69217802E+02 0.69218541E+02 0.32000000E+00 0.0000E+00 0.9000E+01
        1 -1    0    0  501    0 0.00000000E+00 0.00000000E+00 -.15558620E+04 0.15558620E+04 0.32000000E+00 0.0000E+00 0.9000E+01
       25  2    1    2    0    0 -.21332437E+03 -.12856435E+03 -.79533098E+03 0.88588016E+03 0.30032682E+03 0.0000E+00 0.0000E+00
       23  2    3    3    0    0 -.20878949E+03 -.48004930E+02 -.67862105E+03 0.71721823E+03 0.89319300E+02 0.0000E+00 0.0000E+00
      -24  1    1    2    0    0 0.21332437E+03 0.12856435E+03 -.69131323E+03 0.73920043E+03 0.80419002E+02 0.0000E+00 0.9000E+01
      -11  1    4    4    0    0 -.19540227E+03 -.67455945E+02 -.63217198E+03 0.66511184E+03 0.51099893E-03 0.0000E+00 0.9000E+01
       11  1    4    4    0    0 -.13387224E+02 0.19451014E+02 -.46449072E+02 0.52106391E+02 0.51099893E-03 0.0000E+00 0.9000E+01
       23  1    3    3    0    0 -.45348792E+01 -.80559422E+02 -.11670993E+03 0.16866193E+03 0.91188000E+02 0.0000E+00 0.9000E+01
#aMCatNLO 1  0  0  2  1 0.24421310D+03 0.00000000D+00  -5  7  0 0.00000000D+00 0.00000000D+00 0.00000000D+00 0.00000000D+00 0.00000000D+00
  <mgrwgt>
 0.1475178994D-02    3    2    0
 0.328167602690431D+03 0.000000000000000D+00 0.000000000000000D+00 0.328167602690431D+03
 0.328167602690431D+03 0.000000000000000D+00 0.000000000000000D+00 -.328167602690431D+03
 0.264382371389154D+03 0.213324368441725D+03 0.128564352784947D+03 -.373462631183973D+02
 0.214898615656549D+03 -.195402265021733D+03 -.674559446787616D+02 -.587287439247040D+02
 0.238046669465390D+02 -.133872242610877D+02 0.194510142278214D+02 0.301702511227238D+01
 0.153249551388620D+03 -.453487915890481D+01 -.805594223340070D+02 0.930579819308289D+02
 0.000000000000000D+00 0.000000000000000D+00 -.000000000000000D+00 0.000000000000000D+00
 0.837269996313908D+03 0.000000000000000D+00 0.000000000000000D+00 0.837269996313908D+03
 0.380756920539216D+03 0.000000000000000D+00 0.000000000000000D+00 -.380756920539216D+03
 0.233879579668855D+03 0.133820428157932D+03 0.170087599402275D+03 -.373462631183973D+02
 0.282119260737233D+03 -.274707697597677D+03 -.260363744890302D+02 -.587287439247040D+02
 0.331649185352728D+02 -.224774357703568D+02 0.241986417410705D+02 0.301702511227238D+01
 0.151133278851240D+03 -.531029753328477D+02 -.551933206292864D+02 0.930579819308289D+02
 0.517729879060522D+03 0.216467680542949D+03 -.113056546025029D+03 0.456513075774692D+03
0.383734918518D-04 0.000000000000D+00 0.000000000000D+00 0.997080234295D-06 0.000000000000D+00  7 -2 1 -24 -11 11 23 21 0 0.10648952D-01 0.23936345D+00 0.94194565D+05 0.94194565D+05 0.94194565D+05 0.11238598D+01  1  2  2  2  7  2        1 0.145904220141D-02 0.100000000000D+01
-.212023697899D-05 0.000000000000D+00 -.147364312683D-06 0.997080234295D-06 0.000000000000D+00  7 -2 1 -24 -11 11 23 21 2 0.10648952D-01 0.23936345D+00 0.94194565D+05 0.94194565D+05 0.94194565D+05 0.11238598D+01  1  2  3  2  7  2        1 -.101822836951D-03 0.100000000000D+01
0.245625025490D-05 0.000000000000D+00 0.000000000000D+00 0.997080234295D-06 0.000000000000D+00  7 -2 1 -24 -11 11 23 21 2 0.10648952D-01 0.23936345D+00 0.94194565D+05 0.94194565D+05 0.94194565D+05 0.11238598D+01  1  2 15  2  7  2        1 0.117959629841D-03 0.100000000000D+01
  </mgrwgt>
  </event>
  <event>
  9     66 -.26562228E-05 0.14947494E+03 0.75467711E-02 0.10964563E+00
       -2 -1    0    0    0  501 0.00000000E+00 0.00000000E+00 0.40045439E+02 0.40046718E+02 0.32000000E+00 0.0000E+00 0.9000E+01
        1 -1    0    0  502    0 0.00000000E+00 0.00000000E+00 -.16351746E+04 0.16351746E+04 0.32000000E+00 0.0000E+00 0.9000E+01
       25  2    1    2    0    0 -.31702582E+02 0.11053271E+03 -.13012379E+04 0.13408779E+04 0.30250777E+03 0.0000E+00 0.0000E+00
       23  2    3    3    0    0 -.19903177E+02 0.22634216E+02 -.10906700E+04 0.10948709E+04 0.90954462E+02 0.0000E+00 0.0000E+00
      -24  1    1    2    0    0 0.45344777E+02 -.10095511E+03 -.22386113E+03 0.26235301E+03 0.80419002E+02 0.0000E+00 0.9000E+01
      -11  1    4    4    0    0 0.48837599E+01 0.10511023E+02 -.10006455E+04 0.10007126E+04 0.51099893E-03 0.0000E+00 0.9000E+01
       11  1    4    4    0    0 -.24786937E+02 0.12123193E+02 -.90024504E+02 0.94158246E+02 0.51099893E-03 0.0000E+00 0.9000E+01
       23  1    3    3    0    0 -.11799405E+02 0.87898491E+02 -.21056786E+03 0.24600700E+03 0.91188000E+02 0.0000E+00 0.9000E+01
       21  1    1    2  502  501 -.13642195E+02 -.95775973E+01 -.70030113E+02 0.71990409E+02 0.75000000E+00 0.0000E+00 0.9000E+01
#aMCatNLO 2  0  0  2  1 0.16668529D+02 0.00000000D+00  -5  7  0 0.00000000D+00 0.00000000D+00 0.00000000D+00 0.00000000D+00 0.00000000D+00
  <mgrwgt>
 -.2692723661D-03    3    2    0
 0.247054899843076D+03 0.000000000000000D+00 0.000000000000000D+00 0.247054899843076D+03
 0.247054899843076D+03 0.000000000000000D+00 0.000000000000000D+00 -.247054899843076D+03
 0.160997370407647D+03 0.409119473356002D+02 -.104067208327439D+03 0.833616580926084D+02
 0.158107857657146D+03 0.516270150101658D+00 0.744479679149443D+01 -.157931640651257D+03
 0.280973288634347D+02 -.255560549428122D+02 0.115832281892234D+02 -.147538799518892D+01
 0.146907242757924D+03 -.158721625428897D+02 0.850391833467213D+02 0.760453705538379D+02
 0.000000000000000D+00 -.000000000000000D+00 -.000000000000000D+00 -.000000000000000D+00
 0.253389448583982D+03 0.000000000000000D+00 0.000000000000000D+00 0.253389448583982D+03
 0.258409485025924D+03 0.000000000000000D+00 0.000000000000000D+00 -.258409485025924D+03
 0.160201326289568D+03 0.453447771524787D+02 -.100955109507193D+03 0.833616580926084D+02
 0.158356357109273D+03 0.488375987411515D+01 0.105110231478025D+02 -.157931640651257D+03
 0.276322423231308D+02 -.247869369252801D+02 0.121231928108920D+02 -.147538799518892D+01
 0.148200945957692D+03 -.117994051139367D+02 0.878984908575880D+02 0.760453705538379D+02
 0.174080619302415D+02 -.136421949873770D+02 -.957759730908984D+01 -.502003644194181D+01
-.193807620775D-04 0.000000000000D+00 0.000000000000D+00 0.109765725100D-06 0.000000000000D+00  7 -2 1 -24 -11 11 23 21 2 0.60067286D-02 0.25452930D+00 0.25577365D+05 0.25577365D+05 0.25577365D+05 0.11738175D+01  1  2 13  2  7  2        1 -.211378350596D-02 0.100000000000D+01
-.397726614331D-05 0.000000000000D+00 0.000000000000D+00 0.109765725100D-06 0.000000000000D+00  7 -2 1 -24 -11 11 23 21 2 0.60067286D-02 0.24050395D+00 0.22342758D+05 0.22342758D+05 0.22342758D+05 0.11794001D+01  1  2  8  2  7  2        1 -.501488202412D-03 0.100000000000D+01
0.217000889911D-04 0.000000000000D+00 0.000000000000D+00 0.109765725100D-06 0.290626028868D-08  7 -2 1 -24 -11 11 23 21 2 0.61607426D-02 0.25155746D+00 0.25577365D+05 0.25577365D+05 0.25577365D+05 0.11738175D+01  1  2  1  2  7  2        1 0.234599934225D-02 0.100000000000D+01
  </mgrwgt>
  </event>
  <event>
  8     66 0.26562228E-05 0.24306945E+03 0.75467711E-02 0.84362880E-01
       -2 -1    0    0    0  501 0.00000000E+00 0.00000000E+00 0.21781601E+03 0.21781624E+03 0.32000000E+00 0.0000E+00 0.9000E+01
        1 -1    0    0  501    0 0.00000000E+00 0.00000000E+00 -.52521623E+03 0.52521633E+03 0.32000000E+00 0.0000E+00 0.9000E+01
       25  2    1    2    0    0 -.16492826E+03 0.11282104E+03 0.14644336E+02 0.35559247E+03 0.29377139E+03 0.0000E+00 0.0000E+00
       23  2    3    3    0    0 -.13306966E+03 0.63829111E+02 -.97932076E+02 0.19937506E+03 0.91531598E+02 0.0000E+00 0.0000E+00
      -24  1    1    2    0    0 0.16492826E+03 -.11282104E+03 -.32204456E+03 0.38744010E+03 0.80419002E+02 0.0000E+00 0.9000E+01
      -11  1    4    4    0    0 -.81128314E+02 0.12936436E+01 -.13654008E+02 0.82279455E+02 0.51099893E-03 0.0000E+00 0.9000E+01
       11  1    4    4    0    0 -.51941348E+02 0.62535467E+02 -.84278068E+02 0.11709561E+03 0.51099893E-03 0.0000E+00 0.9000E+01
       23  1    3    3    0    0 -.31858597E+02 0.48991929E+02 0.11257641E+03 0.15621741E+03 0.91188000E+02 0.0000E+00 0.9000E+01
#aMCatNLO 1  0  0  1  1 0.13427709D+04 0.00000000D+00  -5  7  0 0.00000000D+00 0.00000000D+00 0.00000000D+00 0.00000000D+00 0.00000000D+00
  <mgrwgt>
 0.1327179240D-01    3    2    0
 0.338231617599751D+03 0.000000000000000D+00 0.000000000000000D+00 0.338231617599751D+03
 0.338231617599751D+03 0.000000000000000D+00 0.000000000000000D+00 -.338231617599751D+03
 0.279222929554401D+03 0.164928258528067D+03 -.112821039776581D+03 -.177674733592601D+03
 0.841717146653431D+02 -.811283140138436D+02 0.129364354976789D+01 0.223919785043943D+02
 0.903208771985277D+02 -.519413479452075D+02 0.625354674188677D+02 -.393607996139580D+02
 0.222747713781230D+03 -.318585965690159D+02 0.489919288079455D+02 0.194643554702164D+03
 0.000000000000000D+00 0.000000000000000D+00 0.000000000000000D+00 -.000000000000000D+00
 0.108092381342140D+04 0.000000000000000D+00 0.000000000000000D+00 0.108092381342140D+04
 0.212121931647494D+04 0.000000000000000D+00 0.000000000000000D+00 -.212121931647494D+04
 0.826862553867015D+03 0.128749941010682D+03 -.793151693414101D+03 -.177674733592601D+03
 0.193071604557903D+03 -.901965071894797D+02 -.169233075597059D+03 0.223919785043943D+02
 0.822697868583792D+02 -.575865172728734D+02 -.436215349552725D+02 -.393607996139580D+02
 0.401337278302987D+03 -.522714356667831D+02 -.334870039325539D+03 0.194643554702164D+03
 0.169860190631006D+04 0.713045191184540D+02 0.134087634329197D+04 -.104029550305354D+04
0.346966176117D-03 0.000000000000D+00 0.000000000000D+00 0.341042549187D-07 0.000000000000D+00  7 -2 1 -24 -11 11 23 21 0 0.33510181D-01 0.80802523D-01 0.59082758D+05 0.59082758D+05 0.59082758D+05 0.11409732D+01  1  2  2  1  7  1       -2 0.130043884498D-01 0.100000000000D+01
-.167177051977D-04 0.000000000000D+00 -.133244147458D-05 0.341042549187D-07 0.000000000000D+00  7 -2 1 -24 -11 11 23 21 2 0.33510181D-01 0.80802523D-01 0.59082758D+05 0.59082758D+05 0.59082758D+05 0.11409732D+01  1  2  3  1  7  1       -2 -.815699780731D-03 0.100000000000D+01
0.221981289602D-04 0.000000000000D+00 0.000000000000D+00 0.341042549187D-07 0.000000000000D+00  7 -2 1 -24 -11 11 23 21 2 0.33510181D-01 0.80802523D-01 0.59082758D+05 0.59082758D+05 0.59082758D+05 0.11409732D+01  1  2 15  1  7  1       -2 0.108310373412D-02 0.100000000000D+01
  </mgrwgt>
  </event>
  <event>
  8     66 0.26562228E-05 0.20834969E+03 0.75467711E-02 0.82916506E-01
       -2 -1    0    0    0  501 0.00000000E+00 0.00000000E+00 0.31503587E+03 0.31503603E+03 0.32000000E+00 0.0000E+00 0.9000E+01
        1 -1    0    0  501    0 0.00000000E+00 0.00000000E+00 -.32694571E+03 0.32694587E+03 0.32000000E+00 0.0000E+00 0.9000E+01
       25  2    1    2    0    0 -.60963275E+02 -.70811427E+02 -.23133992E+03 0.39029250E+03 0.30013213E+03 0.0000E+00 0.0000E+00
       23  2    3    3    0    0 0.11139084E+02 -.14829354E+03 -.12794930E+03 0.21649060E+03 0.91553821E+02 0.0000E+00 0.0000E+00
      -24  1    1    2    0    0 0.60963275E+02 0.70811427E+02 0.21943008E+03 0.25168940E+03 0.80419002E+02 0.0000E+00 0.9000E+01
      -13  1    4    4    0    0 0.10744835E+02 -.79403230E+01 0.12237668E+02 0.18118275E+02 0.10565837E+00 0.0000E+00 0.9000E+01
       13  1    4    4    0    0 0.39424916E+00 -.14035322E+03 -.14018697E+03 0.19837233E+03 0.10565837E+00 0.0000E+00 0.9000E+01
       23  1    3    3    0    0 -.72102360E+02 0.77482116E+02 -.10339062E+03 0.17380190E+03 0.91188000E+02 0.0000E+00 0.9000E+01
#aMCatNLO 1  0  0  2  1 0.16094246D+04 0.00000000D+00  -5  7  0 0.00000000D+00 0.00000000D+00 0.00000000D+00 0.00000000D+00 0.00000000D+00
  <mgrwgt>
 0.1297402574D-02    5    2    0
 0.320935709664667D+03 0.000000000000000D+00 0.000000000000000D+00 0.320935709664667D+03
 0.320935709664667D+03 0.000000000000000D+00 0.000000000000000D+00 -.320935709664667D+03
 0.255804221990415D+03 0.609632754616833D+02 0.708114272135812D+02 0.224137914808516D+03
 0.183482255433972D+02 0.107448487438958D+02 -.794014670674793D+01 0.125761550697140D+02
 0.195805557094738D+03 0.394235456504534D+00 -.140353396554385D+03 -.136530527147716D+03
 0.171913414700784D+03 -.721023596620837D+02 0.774821160475520D+02 -.100183542730514D+03
 0.000000000000000D+00 0.000000000000000D+00 0.000000000000000D+00 -.000000000000000D+00
 0.138388704397599D+04 0.000000000000000D+00 0.000000000000000D+00 0.138388704397599D+04
 0.211758636317458D+04 0.000000000000000D+00 0.000000000000000D+00 -.211758636317458D+04
 0.456340965932395D+03 -.243243274198983D+03 -.303932173249212D+03 0.224137914808516D+03
 0.480073274395782D+02 -.176002052789426D+02 -.428576315921968D+02 0.125761550697140D+02
 0.801172402100826D+03 -.425484125021147D+03 -.664981121837126D+03 -.136530527147716D+03
 0.427178491127109D+03 -.328016019814892D+03 -.237770814963471D+03 -.100183542730514D+03
 0.176877422055066D+04 0.101434362431396D+04 0.124954174164201D+04 -.733699319198596D+03
0.351642183235D-04 0.000000000000D+00 0.000000000000D+00 0.621026608056D-05 0.000000000000D+00  7 -2 1 -24 -13 13 23 21 0 0.48467081D-01 0.50299365D-01 0.43409593D+05 0.43409593D+05 0.43409593D+05 0.11527342D+01  1  2  2  2  7  2        1 0.125804808261D-02 0.100000000000D+01
-.151024126145D-05 0.000000000000D+00 -.135039857314D-06 0.621026608056D-05 0.000000000000D+00  7 -2 1 -24 -13 13 23 21 2 0.48467081D-01 0.50299365D-01 0.43409593D+05 0.43409593D+05 0.43409593D+05 0.11527342D+01  1  2  3  2  7  2        1 -.717961152529D-04 0.100000000000D+01
0.220404547000D-05 0.000000000000D+00 0.000000000000D+00 0.621026608056D-05 0.000000000000D+00  7 -2 1 -24 -13 13 23 21 2 0.48467081D-01 0.50299365D-01 0.43409593D+05 0.43409593D+05 0.43409593D+05 0.11527342D+01  1  2 15  2  7  2        1 0.104779220795D-03 0.100000000000D+01
0.112381157157D-03 0.000000000000D+00 -.324152386230D-04 0.621026608056D-05 0.000000000000D+00  7 -2 1 -24 -13 13 23 21 2 0.48467081D-01 0.62862297D+00 0.43409593D+05 0.43409593D+05 0.43409593D+05 0.11527342D+01  1  2  5  2  7  2        1 0.624975562706D-05 0.100000000000D+01
0.265192508228D-04 0.000000000000D+00 -.947597080602D-05 0.621026608056D-05 0.000000000000D+00  7 -2 21 -24 -13 13 23 -1 2 0.48467081D-01 0.62862297D+00 0.43409593D+05 0.43409593D+05 0.43409593D+05 0.11527342D+01  1  2  5  4  7  2        1 0.121630098135D-06 0.100000000000D+01
  </mgrwgt>
  </event>
  <event>
  9     66 0.26562228E-05 0.21777110E+03 0.75467711E-02 0.99722028E-01
       21 -1    0    0  502  501 0.00000000E+00 0.00000000E+00 0.38244069E+03 0.38244142E+03 0.75000000E+00 0.0000E+00 0.9000E+01
        1 -1    0    0  501    0 0.00000000E+00 0.00000000E+00 -.11731930E+04 0.11731930E+04 0.32000000E+00 0.0000E+00 0.9000E+01
       25  2    1    2    0    0 0.58447614E+02 -.18695689E+03 -.96430131E+03 0.10287091E+04 0.29999414E+03 0.0000E+00 0.0000E+00
       23  2    3    3    0    0 -.22781487E+02 -.10287460E+03 -.77951132E+03 0.79179019E+03 0.90507624E+02 0.0000E+00 0.0000E+00
      -24  1    1    2    0    0 0.12321659E+03 0.11231444E+03 0.25433018E+03 0.31455988E+03 0.80419002E+02 0.0000E+00 0.9000E+01
      -13  1    4    4    0    0 -.19662540E+02 -.11198688E+03 -.76965871E+03 0.77801170E+03 0.10565837E+00 0.0000E+00 0.9000E+01
       13  1    4    4    0    0 -.31189469E+01 0.91122821E+01 -.98526103E+01 0.13778484E+02 0.10565837E+00 0.0000E+00 0.9000E+01
       23  1    3    3    0    0 0.81229101E+02 -.84082293E+02 -.18478999E+03 0.23691895E+03 0.91188000E+02 0.0000E+00 0.9000E+01
        2  1    1    2  502    0 -.18166420E+03 0.74642451E+02 -.80781173E+02 0.21236543E+03 0.32000000E+00 0.0000E+00 0.9000E+01
#aMCatNLO 2  0  0  1  2 0.19640106D+03 0.00000000D+00  -5  7  0 0.00000000D+00 0.00000000D+00 0.00000000D+00 0.00000000D+00 0.00000000D+00
  <mgrwgt>
 0.2601651835D-03    2    2    0
 0.561635844395549D+03 0.000000000000000D+00 0.000000000000000D+00 0.561635844395549D+03
 0.561635844395549D+03 0.000000000000000D+00 0.000000000000000D+00 -.561635844395549D+03
 0.524454604186904D+03 0.386798955709973D+02 0.147049001156500D+03 0.495445125958429D+03
 0.439659636742585D+03 -.900420383713789D+02 -.830694269586092D+02 -.422246963057542D+03
 0.113590058232473D+02 -.484078988530712D+01 0.981992974560316D+01 -.302700286922426D+01
 0.147798442038362D+03 0.562029326856887D+02 -.737995039434944D+02 -.701711600316634D+02
 0.000000000000000D+00 -.000000000000000D+00 0.000000000000000D+00 0.000000000000000D+00
 0.688621061557879D+03 0.000000000000000D+00 0.000000000000000D+00 0.688621061557879D+03
 0.651558879710733D+03 0.000000000000000D+00 0.000000000000000D+00 -.651558879710733D+03
 0.528895027326102D+03 0.123216586057086D+03 0.112314442795133D+03 0.495445125958429D+03
 0.437287334790073D+03 -.196625627563503D+02 -.111987048279436D+03 -.422246963057542D+03
 0.100958965889379D+02 -.311892433338877D+01 0.911244712285514D+01 -.302700286922426D+01
 0.164034270372828D+03 0.812291013042484D+02 -.840822925107360D+02 -.701711600316634D+02
 0.199867412190671D+03 -.181664200271595D+03 0.746424508721840D+02 0.370621818471466D+02
-.605745241615D-07 0.000000000000D+00 0.000000000000D+00 0.264322828933D-04 0.000000000000D+00  7 21 1 -24 -13 13 23 2 2 0.61947106D-01 0.15558127D+00 0.10663676D+06 0.10663676D+06 0.10663676D+06 0.11194391D+01  1  2 13  3  7  1       -2 -.327448793268D-05 0.100000000000D+01
0.569396457450D-05 0.000000000000D+00 0.000000000000D+00 0.264322828933D-04 0.151321656048D-09  7 21 1 -24 -13 13 23 2 2 0.58837078D-01 0.18049125D+00 0.10663676D+06 0.10663676D+06 0.10663676D+06 0.11194391D+01  1  2  1  3  7  1       -2 0.263439671432D-03 0.100000000000D+01
  </mgrwgt>
  </event>
  <event>
  9     66 0.26562228E-05 0.55048766E+03 0.75467711E-02 0.91750328E-01
       21 -1    0    0  502  501 0.00000000E+00 0.00000000E+00 0.31117054E+03 0.31117145E+03 0.75000000E+00 0.0000E+00 0.9000E+01
        1 -1    0    0  501    0 0.00000000E+00 0.00000000E+00 -.14076506E+04 0.14076506E+04 0.32000000E+00 0.0000E+00 0.9000E+01
       25  2    1    2    0    0 -.39482568E+03 0.31400207E+03 -.51658731E+03 0.78175389E+03 0.29965326E+03 0.0000E+00 0.0000E+00
       23  2    3    3    0    0 -.32749834E+03 0.29632425E+03 -.31585968E+03 0.55055634E+03 0.91003952E+02 0.0000E+00 0.0000E+00
      -24  1    1    2    0    0 0.29061454E+03 -.46399253E+03 -.42998309E+03 0.70078424E+03 0.80419002E+02 0.0000E+00 0.9000E+01
      -13  1    4    4    0    0 -.16614551E+02 -.28706434E+01 -.19399146E+01 0.16972281E+02 0.10565837E+00 0.0000E+00 0.9000E+01
       13  1    4    4    0    0 -.31088379E+03 0.29919490E+03 -.31391977E+03 0.53358406E+03 0.10565837E+00 0.0000E+00 0.9000E+01
       23  1    3    3    0    0 -.67327344E+02 0.17677821E+02 -.20072763E+03 0.23119755E+03 0.91188000E+02 0.0000E+00 0.9000E+01
        2  1    1    2  502    0 0.10421114E+03 0.14999045E+03 -.14990963E+03 0.23628393E+03 0.32000000E+00 0.0000E+00 0.9000E+01
#aMCatNLO 2  0  0  1  2 0.18263925D+03 0.00000000D+00  -5  7  0 0.00000000D+00 0.00000000D+00 0.00000000D+00 0.00000000D+00 0.00000000D+00
  <mgrwgt>
 0.6248580011D-04    2    2    0
 0.563153328637982D+03 0.000000000000000D+00 0.000000000000000D+00 0.563153328637982D+03
 0.563153328637982D+03 0.000000000000000D+00 0.000000000000000D+00 -.563153328637982D+03
 0.526163020386739D+03 0.340253323811113D+03 -.392547731155169D+03 0.226773558543459D+02
 0.187898597125674D+02 -.148109559674021D+02 -.275718012673835D+00 0.115593421494100D+02
 0.449603155855927D+03 -.270323846741155D+03 0.357573543987621D+03 0.347732120863994D+02
 0.131750621320732D+03 -.551185211025554D+02 0.352499051802220D+02 -.690099100901553D+02
 0.000000000000000D+00 0.000000000000000D+00 0.000000000000000D+00 0.000000000000000D+00
 0.662450120582146D+03 0.000000000000000D+00 0.000000000000000D+00 0.662450120582146D+03
 0.661212077603950D+03 0.000000000000000D+00 0.000000000000000D+00 -.661212077603950D+03
 0.553829715651719D+03 0.290614540952524D+03 -.463992525912759D+03 0.226773558543459D+02
 0.204423934822519D+02 -.166141544819905D+02 -.287105054024543D+01 0.115593421494100D+02
 0.432869472584691D+03 -.310884181750901D+03 0.299195303362227D+03 0.347732120863994D+02
 0.133877166312364D+03 -.673273440247283D+02 0.176778214651298D+02 -.690099100901553D+02
 0.182643450155071D+03 0.104211139305096D+03 0.149990451625647D+03 0.123804297819606D+01
-.298618542330D-05 0.000000000000D+00 0.000000000000D+00 0.127564154542D-04 0.000000000000D+00  7 21 1 -24 -13 13 23 2 2 0.50838672D-01 0.18444523D+00 0.42188638D+06 0.42188638D+06 0.42188638D+06 0.10737638D+01  1  2 13  3  7  1       -2 -.152452559428D-03 0.100000000000D+01
0.516746246253D-05 0.000000000000D+00 0.000000000000D+00 0.127564154542D-04 0.697817240506D-10  7 21 1 -24 -13 13 23 2 2 0.47872454D-01 0.21656165D+00 0.42188638D+06 0.42188638D+06 0.42188638D+06 0.10737638D+01  1  2  1  3  7  1       -2 0.214938359542D-03 0.100000000000D+01
  </mgrwgt>
  </event>
  <event>
  8     66 0.26562228E-05 0.44203898E+03 0.75467711E-02 0.90265331E-01
       -2 -1    0    0    0  501 0.00000000E+00 0.00000000E+00 0.15430334E+03 0.15430367E+03 0.32000000E+00 0.0000E+00 0.9000E+01
        1 -1    0    0  501    0 0.00000000E+00 0.00000000E+00 -.15447910E+04 0.15447910E+04 0.32000000E+00 0.0000E+00 0.9000E+01
       25  2    1    2    0    0 -.16589374E+03 0.39528611E+03 -.91232984E+03 0.10518900E+04 0.30059098E+03 0.0000E+00 0.0000E+00
       23  2    3    3    0    0 -.78532355E+02 0.13362996E+03 -.14310582E+03 0.22962676E+03 0.90691101E+02 0.0000E+00 0.0000E+00
      -24  1    1    2    0    0 0.16589374E+03 -.39528611E+03 -.47815779E+03 0.64720470E+03 0.80419002E+02 0.0000E+00 0.9000E+01
      -13  1    4    4    0    0 -.44364078E+01 0.28010964E+02 0.93910249E+01 0.29874710E+02 0.10565837E+00 0.0000E+00 0.9000E+01
       13  1    4    4    0    0 -.74095947E+02 0.10561899E+03 -.15249685E+03 0.19975205E+03 0.10565837E+00 0.0000E+00 0.9000E+01
       23  1    3    3    0    0 -.87361382E+02 0.26165615E+03 -.76922402E+03 0.82226321E+03 0.91188000E+02 0.0000E+00 0.9000E+01
#aMCatNLO 1  0  0  1  2 0.47990132D+03 0.00000000D+00  -5  7  0 0.00000000D+00 0.00000000D+00 0.00000000D+00 0.00000000D+00 0.00000000D+00
  <mgrwgt>
 0.1028407551D-02    3    2    0
 0.488228138399436D+03 0.000000000000000D+00 0.000000000000000D+00 0.488228138399436D+03
 0.488228138399436D+03 0.000000000000000D+00 0.000000000000000D+00 -.488228138399436D+03
 0.445272952428904D+03 0.165893736624706D+03 -.395286106182915D+03 0.896044006610372D+02
 0.653567195964227D+02 -.443631329055931D+01 0.280108585167239D+02 0.588830342794043D+02
 0.130423399376262D+03 -.740960414328587D+02 0.105619098462322D+03 0.190957007948468D+02
 0.335403205397283D+03 -.873613819012883D+02 0.261656149203869D+03 -.167583135735288D+03
 0.000000000000000D+00 0.000000000000000D+00 -.000000000000000D+00 -.000000000000000D+00
 0.778688045413636D+03 0.000000000000000D+00 0.000000000000000D+00 0.778688045413636D+03
 0.789344506810189D+03 0.000000000000000D+00 0.000000000000000D+00 -.789344506810189D+03
 0.365026241084010D+03 -.154213508324323D+02 -.344253066865395D+03 0.896044006610372D+02
 0.786520910097823D+02 -.366601761534395D+02 0.370806038065773D+02 0.588830342794043D+02
 0.194441780835747D+03 -.146788892460583D+03 0.126079266320540D+03 0.190957007948468D+02
 0.449892817772977D+03 -.263081681589073D+03 0.311114476630554D+03 -.167583135735288D+03
 0.480019621521308D+03 0.461952101035527D+03 -.130021279892276D+03 -.106564613965528D+02
0.982142458138D-04 0.000000000000D+00 0.000000000000D+00 0.376612618942D-05 0.000000000000D+00  7 -2 1 -24 -13 13 23 21 0 0.23739003D-01 0.23766018D+00 0.19539846D+06 0.19539846D+06 0.19539846D+06 0.10986026D+01  1  2  2  1  7  1       -2 0.101709329035D-02 0.100000000000D+01
-.539081962845D-05 0.000000000000D+00 -.377168564330D-06 0.376612618942D-05 0.000000000000D+00  7 -2 1 -24 -13 13 23 21 2 0.23739003D-01 0.23766018D+00 0.19539846D+06 0.19539846D+06 0.19539846D+06 0.10986026D+01  1  2  3  1  7  1       -2 -.673786585388D-04 0.100000000000D+01
0.629604893153D-05 0.000000000000D+00 0.000000000000D+00 0.376612618942D-05 0.000000000000D+00  7 -2 1 -24 -13 13 23 21 2 0.23739003D-01 0.23766018D+00 0.19539846D+06 0.19539846D+06 0.19539846D+06 0.10986026D+01  1  2 15  1  7  1       -2 0.786929187655D-04 0.100000000000D+01
  </mgrwgt>
  </event>
  <event>
  8     66 0.26562228E-05 0.18918327E+03 0.75467711E-02 0.10040872E+00
       -2 -1    0    0    0  501 0.00000000E+00 0.00000000E+00 0.39161989E+02 0.39163297E+02 0.32000000E+00 0.0000E+00 0.9000E+01
        1 -1    0    0  501    0 0.00000000E+00 0.00000000E+00 -.14692021E+04 0.14692021E+04 0.32000000E+00 0.0000E+00 0.9000E+01
       25  2    1    2    0    0 -.61691655E+02 -.33425872E+02 -.13178642E+04 0.13535307E+04 0.30059285E+03 0.0000E+00 0.0000E+00
       23  2    3    3    0    0 0.55116942E+02 -.76597478E+02 -.28227347E+03 0.30650084E+03 0.73207948E+02 0.0000E+00 0.0000E+00
      -24  1    1    2    0    0 0.61691655E+02 0.33425872E+02 -.11217585E+03 0.15483471E+03 0.80419002E+02 0.0000E+00 0.9000E+01
      -11  1    4    4    0    0 0.76808895E+01 -.68791425E+02 -.13724542E+03 0.15371259E+03 0.51099893E-03 0.0000E+00 0.9000E+01
       11  1    4    4    0    0 0.47436052E+02 -.78060523E+01 -.14502805E+03 0.15278825E+03 0.51099893E-03 0.0000E+00 0.9000E+01
       23  1    3    3    0    0 -.11680860E+03 0.43171605E+02 -.10355908E+04 0.10470298E+04 0.91188000E+02 0.0000E+00 0.9000E+01
#aMCatNLO 1  0  0  2  2 0.20339239D+03 0.00000000D+00  -5  7  0 0.00000000D+00 0.00000000D+00 0.00000000D+00 0.00000000D+00 0.00000000D+00
  <mgrwgt>
 0.2523714720D-02    5    2    0
 0.239870564539785D+03 0.000000000000000D+00 0.000000000000000D+00 0.239870564539785D+03
 0.239870564539785D+03 0.000000000000000D+00 0.000000000000000D+00 -.239870564539785D+03
 0.152439198584532D+03 0.616916547626515D+02 0.334258724202254D+02 0.108845505632142D+03
 0.741823143964378D+02 0.768088949523161D+01 -.687914252357331D+02 0.266788215596290D+02
 0.480771430569653D+02 0.474360520480609D+02 -.780605235878210D+01 -.546074340655810D+00
 0.205042473041634D+03 -.116808596305944D+03 0.431716051742899D+02 -.134978252851115D+03
 0.000000000000000D+00 -.000000000000000D+00 0.000000000000000D+00 -.000000000000000D+00
 0.278147858926832D+03 0.000000000000000D+00 0.000000000000000D+00 0.278147858926832D+03
 0.847826184032163D+03 0.000000000000000D+00 0.000000000000000D+00 -.847826184032163D+03
 0.175299816553193D+03 0.110825266013864D+03 -.115423587646573D+02 0.108845505632142D+03
 0.102666729116056D+03 0.341935466789979D+02 -.930564297246045D+02 0.266788215596290D+02
 0.692895252635225D+02 0.650312970105368D+02 -.239096324351952D+02 -.546074340655810D+00
 0.173819752080621D+03 -.600107528172647D+02 -.881111076618883D+01 -.134978252851115D+03
 0.604898219945603D+03 -.150039356886134D+03 0.137319531690646D+03 -.569678325105332D+03
0.240373391017D-04 0.000000000000D+00 0.000000000000D+00 0.331450274796D-08 0.000000000000D+00  7 -2 1 -24 -11 11 23 21 0 0.60250247D-02 0.22603119D+00 0.35790309D+05 0.35790309D+05 0.35790309D+05 0.11602908D+01  1  2  2  2  7  2        1 0.249075185718D-02 0.100000000000D+01
-.124391312057D-05 0.000000000000D+00 -.923097113271D-07 0.331450274796D-08 0.000000000000D+00  7 -2 1 -24 -11 11 23 21 2 0.60250247D-02 0.22603119D+00 0.35790309D+05 0.35790309D+05 0.35790309D+05 0.11602908D+01  1  2  3  2  7  2        1 -.173527315750D-03 0.100000000000D+01
0.149378890162D-05 0.000000000000D+00 0.000000000000D+00 0.331450274796D-08 0.000000000000D+00  7 -2 1 -24 -11 11 23 21 2 0.60250247D-02 0.22603119D+00 0.35790309D+05 0.35790309D+05 0.35790309D+05 0.11602908D+01  1  2 15  2  7  2        1 0.208385275555D-03 0.100000000000D+01
-.261904799974D-04 0.000000000000D+00 -.705995846268D-05 0.331450274796D-08 0.000000000000D+00  7 -2 1 -24 -11 11 23 21 2 0.60250247D-02 0.80589703D+00 0.35790309D+05 0.35790309D+05 0.35790309D+05 0.11602908D+01  1  2  5  2  7  2        1 -.188662460363D-05 0.100000000000D+01
-.369990225430D-05 0.000000000000D+00 -.105322738684D-05 0.331450274796D-08 0.000000000000D+00  7 -2 21 -24 -11 11 23 -1 2 0.60250247D-02 0.80589703D+00 0.35790309D+05 0.35790309D+05 0.35790309D+05 0.11602908D+01  1  2  5  4  7  2        1 -.847286006327D-08 0.100000000000D+01
  </mgrwgt>
  </event>
  <event>
  9     66 -.26562228E-05 0.56870817E+03 0.75467711E-02 0.92464771E-01
       -2 -1    0    0    0  502 0.00000000E+00 0.00000000E+00 0.32702492E+03 0.32702508E+03 0.32000000E+00 0.0000E+00 0.9000E+01
        1 -1    0    0  501    0 0.00000000E+00 0.00000000E+00 -.12098894E+04 0.12098894E+04 0.32000000E+00 0.0000E+00 0.9000E+01
       25  2    1    2    0    0 0.39894971E+03 -.34471949E+03 -.26944348E+03 0.66376858E+03 0.29999425E+03 0.0000E+00 0.0000E+00
       23  2    3    3    0    0 0.89197345E+02 -.25942508E+02 -.11701784E+02 0.14193401E+03 0.10667311E+03 0.0000E+00 0.0000E+00
      -24  1    1    2    0    0 -.45357708E+03 0.29200248E+03 -.54188334E+03 0.76883183E+03 0.80419002E+02 0.0000E+00 0.9000E+01
      -13  1    4    4    0    0 -.11464668E+02 0.25020040E+02 0.47010964E+01 0.27920468E+02 0.10565837E+00 0.0000E+00 0.9000E+01
       13  1    4    4    0    0 0.10066201E+03 -.50962548E+02 -.16402881E+02 0.11401354E+03 0.10565837E+00 0.0000E+00 0.9000E+01
       23  1    3    3    0    0 0.30975236E+03 -.31877698E+03 -.25774169E+03 0.52183457E+03 0.91188000E+02 0.0000E+00 0.9000E+01
       21  1    1    2  501  502 0.54627373E+02 0.52717003E+02 -.71537645E+02 0.10431409E+03 0.75000000E+00 0.0000E+00 0.9000E+01
#aMCatNLO 2  0  0  1  2 0.75915955D+02 0.00000000D+00  -5  7  0 0.00000000D+00 0.00000000D+00 0.00000000D+00 0.00000000D+00 0.00000000D+00
  <mgrwgt>
 -.3521573796D-03    2    2    0
 0.589136974643726D+03 0.000000000000000D+00 0.000000000000000D+00 0.589136974643726D+03
 0.589136974643726D+03 0.000000000000000D+00 0.000000000000000D+00 -.589136974643726D+03
 0.553691341459789D+03 -.427775794887362D+03 0.316901470386349D+03 -.129182866621803D+03
 0.377718522512884D+02 -.973079840206267D+01 0.266934529254257D+02 0.248894346233429D+02
 0.129715280294829D+03 0.106608387925700D+03 -.452242659676424D+02 0.584420339613313D+02
 0.457095475281546D+03 0.330898205363724D+03 -.298370657344132D+03 0.458513980371286D+02
 0.000000000000000D+00 0.000000000000000D+00 0.000000000000000D+00 -.000000000000000D+00
 0.621502184467319D+03 0.000000000000000D+00 0.000000000000000D+00 0.621502184467319D+03
 0.636621801713503D+03 0.000000000000000D+00 0.000000000000000D+00 -.636621801713503D+03
 0.560493571924569D+03 -.453577078082245D+03 0.292002481880101D+03 -.129182866621803D+03
 0.371070231799845D+02 -.114647754530068D+02 0.250201146524627D+02 0.248894346233429D+02
 0.127065012076675D+03 0.100662102921519D+03 -.509626038966387D+02 0.584420339613313D+02
 0.456051434215476D+03 0.309752377837753D+03 -.318776995763326D+03 0.458513980371286D+02
 0.774069447841169D+02 0.546273727759795D+02 0.527170031274008D+02 -.151196172461844D+02
-.167067096675D-03 0.000000000000D+00 0.000000000000D+00 0.116438818108D-06 0.000000000000D+00  7 -2 1 -24 -13 13 23 21 2 0.52110552D-01 0.17225263D+00 0.36930489D+06 0.36930489D+06 0.36930489D+06 0.10779363D+01  1  2 13  1  7  1       -2 -.910621956019D-03 0.100000000000D+01
0.110950055281D-03 0.000000000000D+00 0.000000000000D+00 0.116438818108D-06 0.125731896919D-09  7 -2 1 -24 -13 13 23 21 2 0.50311396D-01 0.18613630D+00 0.36930489D+06 0.36930489D+06 0.36930489D+06 0.10779363D+01  1  2  1  1  7  1       -2 0.558464576415D-03 0.100000000000D+01
  </mgrwgt>
  </event>
  <event>
  8     66 0.26562228E-05 0.22203289E+03 0.75467711E-02 0.10261751E+00
       -4 -1    0    0    0  501 0.00000000E+00 0.00000000E+00 0.99383936E+03 0.99384057E+03 0.15500000E+01 0.0000E+00 0.9000E+01
        3 -1    0    0  501    0 0.00000000E+00 0.00000000E+00 -.93215679E+02 0.93217020E+02 0.50000000E+00 0.0000E+00 0.9000E+01
       25  2    1    2    0    0 -.23213268E+02 -.11847987E+03 0.22235825E+03 0.39345284E+03 0.30130650E+03 0.0000E+00 0.0000E+00
       23  2    3    3    0    0 -.28802968E+02 0.64464518E+02 0.11269594E+03 0.16141627E+03 0.91485263E+02 0.0000E+00 0.0000E+00
      -24  1    1    2    0    0 0.23213268E+02 0.11847987E+03 0.67826544E+03 0.69360475E+03 0.80419002E+02 0.0000E+00 0.9000E+01
      -13  1    4    4    0    0 0.12549536E+02 -.51326465E+01 -.82538590E+01 0.15873634E+02 0.10565837E+00 0.0000E+00 0.9000E+01
       13  1    4    4    0    0 -.41352503E+02 0.69597164E+02 0.12094980E+03 0.14554264E+03 0.10565837E+00 0.0000E+00 0.9000E+01
       23  1    3    3    0    0 0.55896999E+01 -.18294439E+03 0.10966231E+03 0.23203657E+03 0.91188000E+02 0.0000E+00 0.9000E+01
#aMCatNLO 1  0  0  1  2 0.75443250D+02 0.00000000D+00  -5  7  0 0.00000000D+00 0.00000000D+00 0.00000000D+00 0.00000000D+00 0.00000000D+00
  <mgrwgt>
 0.1565273506D-03    4    2    0
 0.304372792450796D+03 0.000000000000000D+00 0.000000000000000D+00 0.304372792450796D+03
 0.304372792450796D+03 0.000000000000000D+00 0.000000000000000D+00 -.304372792450796D+03
 0.235116939187308D+03 0.232132680883328D+02 0.118479873823742D+03 0.185030869915825D+03
 0.405574076131848D+02 0.125496071994006D+02 -.513274694692006D+01 -.382238875602895D+02
 0.809583009708718D+02 -.413525743356339D+02 0.695972608753227D+02 0.657548901904953D+00
 0.252112937130227D+03 0.558969904790053D+01 -.182944387752144D+03 -.147464531257441D+03
 0.000000000000000D+00 0.000000000000000D+00 -.000000000000000D+00 -.000000000000000D+00
 0.329139923449188D+03 0.000000000000000D+00 0.000000000000000D+00 0.329139923449188D+03
 0.370115404899816D+03 0.000000000000000D+00 0.000000000000000D+00 -.370115404899816D+03
 0.243724150374145D+03 -.309922698261076D-01 0.136739978568452D+03 0.185030869915825D+03
 0.392516792212023D+02 0.867545513984279D+01 -.208931079044848D+01 -.382238875602895D+02
 0.909360936848314D+02 -.496967999056338D+02 0.761522740516489D+02 0.657548901904953D+00
 0.239490775635962D+03 -.182740940594125D+02 -.164197593703579D+03 -.147464531257441D+03
 0.858526294328631D+02 0.593264310950296D+02 -.466053481260727D+02 -.409754814506282D+02
0.954978977585D-04 0.000000000000D+00 0.000000000000D+00 0.837510113943D-06 0.000000000000D+00  7 -4 3 -24 -13 13 23 21 0 0.15289856D+00 0.14341070D-01 0.49298605D+05 0.49298605D+05 0.49298605D+05 0.11478354D+01  1  2  2  1  7  1       -4 0.232794371396D-03 0.100000000000D+01
-.466363467663D-05 0.000000000000D+00 -.366737072566D-06 0.837510113943D-06 0.000000000000D+00  7 -4 3 -24 -13 13 23 21 2 0.15289856D+00 0.14341070D-01 0.49298605D+05 0.49298605D+05 0.49298605D+05 0.11478354D+01  1  2  3  1  7  1       -4 -.149782973831D-04 0.100000000000D+01
0.598472054314D-05 0.000000000000D+00 0.000000000000D+00 0.837510113943D-06 0.000000000000D+00  7 -4 3 -24 -13 13 23 21 2 0.15289856D+00 0.14341070D-01 0.49298605D+05 0.49298605D+05 0.49298605D+05 0.11478354D+01  1  2 15  1  7  1       -4 0.192212577240D-04 0.100000000000D+01
-.250675447421D-04 0.000000000000D+00 0.000000000000D+00 0.837510113943D-06 0.000000000000D+00  7 -4 3 -24 -13 13 23 21 2 0.15289856D+00 0.14341070D-01 0.49298605D+05 0.49298605D+05 0.49298605D+05 0.11478354D+01  1  2  4  1  7  1       -4 -.805099811300D-04 0.100000000000D+01
  </mgrwgt>
  </event>
  <event>
  9     66 -.26562228E-05 0.53034539E+03 0.75467711E-02 0.93171020E-01
       -2 -1    0    0    0  502 0.00000000E+00 0.00000000E+00 0.28959130E+03 0.28959148E+03 0.32000000E+00 0.0000E+00 0.9000E+01
        1 -1    0    0  501    0 0.00000000E+00 0.00000000E+00 -.13106500E+04 0.13106500E+04 0.32000000E+00 0.0000E+00 0.9000E+01
       25  2    1    2    0    0 -.52356242E+03 0.15882066E+03 -.32284628E+03 0.70268293E+03 0.30031978E+03 0.0000E+00 0.0000E+00
       23  2    3    3    0    0 -.28205178E+03 0.98209857E+02 -.30607872E+03 0.43698110E+03 0.89832730E+02 0.0000E+00 0.0000E+00
      -24  1    1    2    0    0 0.47125225E+03 -.10671725E+03 -.61705833E+03 0.78784228E+03 0.80419002E+02 0.0000E+00 0.9000E+01
      -13  1    4    4    0    0 -.15738072E+03 0.98518335E+02 -.20405089E+03 0.27588282E+03 0.10565837E+00 0.0000E+00 0.9000E+01
       13  1    4    4    0    0 -.12467105E+03 -.30847739E+00 -.10202783E+03 0.16109828E+03 0.10565837E+00 0.0000E+00 0.9000E+01
       23  1    3    3    0    0 -.24151064E+03 0.60610803E+02 -.16767562E+02 0.26570183E+03 0.91188000E+02 0.0000E+00 0.9000E+01
       21  1    1    2  501  502 0.52310168E+02 -.52103409E+02 -.81154061E+02 0.10971628E+03 0.75000000E+00 0.0000E+00 0.9000E+01
#aMCatNLO 2  0  0  1  2 0.73831693D+02 0.00000000D+00  -5  7  0 0.00000000D+00 0.00000000D+00 0.00000000D+00 0.00000000D+00 0.00000000D+00
  <mgrwgt>
 -.4035134627D-03    2    2    0
 0.577233397944231D+03 0.000000000000000D+00 0.000000000000000D+00 0.577233397944231D+03
 0.577233397944231D+03 0.000000000000000D+00 0.000000000000000D+00 -.577233397944231D+03
 0.540972175695098D+03 0.495123253155802D+03 -.130493905439566D+03 -.154945099146318D+03
 0.178486092751281D+03 -.149048364017320D+03 0.902190001129688D+02 -.387608372974010D+02
 0.119292328597671D+03 -.119149484522271D+03 -.580831231541839D+01 -.568777969380861D+00
 0.315716198844412D+03 -.226925404616211D+03 0.460832176420157D+02 0.194274714413100D+03
 0.000000000000000D+00 0.000000000000000D+00 -.000000000000000D+00 -.000000000000000D+00
 0.608414662024783D+03 0.000000000000000D+00 0.000000000000000D+00 0.608414662024783D+03
 0.623835554374191D+03 0.000000000000000D+00 0.000000000000000D+00 -.623835554374191D+03
 0.513753298690941D+03 0.471252247241532D+03 -.106717251097451D+03 -.154945099146318D+03
 0.189676035123783D+03 -.157380769506086D+03 0.985184712729298D+02 -.387608372974010D+02
 0.124672686317438D+03 -.124671006904485D+03 -.308614079171438D+00 -.568777969380861D+00
 0.328723248292198D+03 -.241510638620293D+03 0.606108026402927D+02 0.194274714413100D+03
 0.754249479746146D+02 0.523101677893316D+02 -.521034087366005D+02 -.154208923494079D+02
-.169278116899D-03 0.000000000000D+00 0.000000000000D+00 0.507864697214D-05 0.000000000000D+00  7 -2 1 -24 -13 13 23 21 2 0.46150343D-01 0.18657498D+00 0.32443261D+06 0.32443261D+06 0.32443261D+06 0.10820451D+01  1  2 13  1  7  1       -2 -.101809769205D-02 0.100000000000D+01
0.111779329956D-03 0.000000000000D+00 0.000000000000D+00 0.507864697214D-05 0.586008305540D-08  7 -2 1 -24 -13 13 23 21 2 0.44552389D-01 0.20163786D+00 0.32443261D+06 0.32443261D+06 0.32443261D+06 0.10820451D+01  1  2  1  1  7  1       -2 0.614584229340D-03 0.100000000000D+01
  </mgrwgt>
  </event>
  <event>
  7     66 0.26562228E-05 0.26997184E+03 0.75467711E-02 0.98457990E-01
       -4 -1    0    0    0  501 0.00000000E+00 0.00000000E+00 0.58661906E+03 0.58662110E+03 0.15500000E+01 0.0000E+00 0.9000E+01
        3 -1    0    0  501    0 0.00000000E+00 0.00000000E+00 -.13650991E+03 0.13651083E+03 0.50000000E+00 0.0000E+00 0.9000E+01
       23  2    1    2    0    0 -.77318109E+02 -.15398489E+03 0.14622250E+03 0.24542991E+03 0.95736041E+02 0.0000E+00 0.0000E+00
      -24  1    1    2    0    0 0.15903273E+03 0.58050897E+02 0.77028273E+02 0.20263733E+03 0.80419002E+02 0.0000E+00 0.9000E+01
      -11  1    3    3    0    0 -.19785566E+02 0.10720259E+02 0.13753944E+02 0.26373539E+02 0.51099893E-03 0.0000E+00 0.9000E+01
       11  1    3    3    0    0 -.57532543E+02 -.16470515E+03 0.13246855E+03 0.21905638E+03 0.51099893E-03 0.0000E+00 0.9000E+01
       23  1    1    2    0    0 -.81714617E+02 0.95933989E+02 0.22685838E+03 0.27506469E+03 0.91188000E+02 0.0000E+00 0.9000E+01
#aMCatNLO 1  0  0  2  2 0.16126233D+03 0.00000000D+00  -5  7  0 0.00000000D+00 0.00000000D+00 0.00000000D+00 0.00000000D+00 0.00000000D+00
  <mgrwgt>
 0.2619545894D-03    7    2    0
 0.282984780613210D+03 0.000000000000000D+00 0.000000000000000D+00 0.282984780613210D+03
 0.282984780613210D+03 0.000000000000000D+00 0.000000000000000D+00 -.282984780613210D+03
 0.197647367291204D+03 0.159032733067758D+03 0.580508999598817D+02 -.627371394759155D+02
 0.227587731524810D+02 -.197855673845876D+02 0.107202596862926D+02 -.340133957941303D+01
 0.174534740207494D+03 -.575325455864119D+02 -.164705140030899D+03 -.495969606396293D+01
 0.171028680575241D+03 -.817146200967588D+02 0.959339803847248D+02 0.710981751192914D+02
 0.000000000000000D+00 -.000000000000000D+00 0.000000000000000D+00 -.000000000000000D+00
 0.372966160715132D+03 0.000000000000000D+00 0.000000000000000D+00 0.372966160715132D+03
 0.376838265431929D+03 0.000000000000000D+00 0.000000000000000D+00 -.376838265431929D+03
 0.243722981361545D+03 0.217811417542199D+03 0.394450682345294D+02 -.627371394759155D+02
 0.173681014833052D+02 -.144417446507728D+02 0.902872358873497D+01 -.340133957941303D+01
 0.180015368009677D+03 -.103159869641833D+02 -.179651091139373D+03 -.495969606396293D+01
 0.147389160624114D+03 -.393099096851526D+02 0.825111739144011D+02 0.710981751192914D+02
 0.161308814668419D+03 -.153743776242090D+03 0.486661254017078D+02 -.387210471679698D+01
0.399028555944D-04 0.000000000000D+00 0.000000000000D+00 0.193376624161D-09 0.000000000000D+00  7 -4 3 -24 -11 11 23 21 0 0.90249313D-01 0.21001753D-01 0.72884795D+05 0.72884795D+05 0.72884795D+05 0.11331716D+01  1  2  2  2  7  2        3 0.238512991356D-03 0.100000000000D+01
-.221085217973D-05 0.000000000000D+00 -.153237472146D-06 0.193376624161D-09 0.000000000000D+00  7 -4 3 -24 -11 11 23 21 2 0.90249313D-01 0.21001753D-01 0.72884795D+05 0.72884795D+05 0.72884795D+05 0.11331716D+01  1  2  3  2  7  2        3 -.169691140906D-04 0.100000000000D+01
0.255698525841D-05 0.000000000000D+00 0.000000000000D+00 0.193376624161D-09 0.000000000000D+00  7 -4 3 -24 -11 11 23 21 2 0.90249313D-01 0.21001753D-01 0.72884795D+05 0.72884795D+05 0.72884795D+05 0.11331716D+01  1  2 15  2  7  2        3 0.196258144148D-04 0.100000000000D+01
-.134404549496D-04 0.000000000000D+00 0.000000000000D+00 0.193376624161D-09 0.000000000000D+00  7 -4 3 -24 -11 11 23 21 2 0.90249313D-01 0.21001753D-01 0.72884795D+05 0.72884795D+05 0.72884795D+05 0.11331716D+01  1  2  4  2  7  2        3 -.103160498725D-03 0.100000000000D+01
-.190044883116D-04 0.000000000000D+00 -.151124178629D-04 0.193376624161D-09 0.000000000000D+00  7 -4 3 -24 -11 11 23 21 2 0.90249313D-01 0.36494540D-01 0.72884795D+05 0.72884795D+05 0.72884795D+05 0.11331716D+01  1  2  5  2  7  2        3 -.530563268344D-04 0.100000000000D+01
0.254205130868D-04 0.000000000000D+00 0.130664317231D-04 0.193376624161D-09 0.000000000000D+00  7 -4 3 -24 -11 11 23 21 2 0.90249313D-01 0.21001753D-01 0.72884795D+05 0.72884795D+05 0.72884795D+05 0.11331716D+01  1  2  6  2  7  2        3 0.195111907873D-03 0.100000000000D+01
-.404342705294D-06 0.000000000000D+00 -.924245685974D-06 0.193376624161D-09 0.000000000000D+00  7 -4 21 -24 -11 11 23 -3 2 0.90249313D-01 0.36494540D-01 0.72884795D+05 0.72884795D+05 0.72884795D+05 0.11331716D+01  1  2  5  4  7  2        3 -.181101846409D-04 0.100000000000D+01
  </mgrwgt>
  </event>
  <event>
  8     66 0.26562228E-05 0.99887202E+02 0.75467711E-02 0.10100233E+00
       -2 -1    0    0    0  501 0.00000000E+00 0.00000000E+00 0.11843070E+03 0.11843113E+03 0.32000000E+00 0.0000E+00 0.9000E+01
        1 -1    0    0  501    0 0.00000000E+00 0.00000000E+00 -.92621140E+03 0.92621146E+03 0.32000000E+00 0.0000E+00 0.9000E+01
       25  2    1    2    0    0 -.50352023E+02 0.16790187E+03 -.77578362E+03 0.84914989E+03 0.29747091E+03 0.0000E+00 0.0000E+00
       23  2    3    3    0    0 0.27016884E+02 -.14681797E+02 -.95653869E+02 0.13485690E+03 0.89951396E+02 0.0000E+00 0.0000E+00
      -24  1    1    2    0    0 0.50352023E+02 -.16790187E+03 -.31997085E+02 0.19549270E+03 0.80419002E+02 0.0000E+00 0.9000E+01
      -13  1    4    4    0    0 -.79994449E+01 0.16425223E+00 -.96482952E+02 0.96814200E+02 0.10565837E+00 0.0000E+00 0.9000E+01
       13  1    4    4    0    0 0.35016329E+02 -.14846049E+02 0.82908371E+00 0.38042700E+02 0.10565837E+00 0.0000E+00 0.9000E+01
       23  1    3    3    0    0 -.77368907E+02 0.18258367E+03 -.68012975E+03 0.71429299E+03 0.91188000E+02 0.0000E+00 0.9000E+01
#aMCatNLO 1  0  0  1  2 0.12286924D+03 0.00000000D+00  -5  7  0 0.00000000D+00 0.00000000D+00 0.00000000D+00 0.00000000D+00 0.00000000D+00
  <mgrwgt>
 0.8042085632D-03    9    2    0
 0.331198002443857D+03 0.000000000000000D+00 0.000000000000000D+00 0.331198002443857D+03
 0.331198002443857D+03 0.000000000000000D+00 0.000000000000000D+00 -.331198002443857D+03
 0.269285093401540D+03 0.503520227948353D+02 -.167901874797199D+03 0.187938500084362D+03
 0.350230757635087D+02 -.799950421246165D+01 0.164272991744298D+00 -.340968735029395D+02
 0.610069584049785D+02 0.350163880747655D+02 -.148460694798671D+02 0.477000603880452D+02
 0.297080877317687D+03 -.773689066571391D+02 0.182583671285322D+03 -.201541686969468D+03
 0.000000000000000D+00 0.000000000000000D+00 -.000000000000000D+00 0.000000000000000D+00
 0.574919545830894D+03 0.000000000000000D+00 0.000000000000000D+00 0.574919545830894D+03
 0.352700882734000D+03 0.000000000000000D+00 0.000000000000000D+00 -.352700882734000D+03
 0.242348108700775D+03 0.482508873448074D+02 -.120898146772195D+03 0.187938500084362D+03
 0.357172103114990D+02 -.829001491858190D+01 0.666318110290264D+01 -.340968735029395D+02
 0.590064857974362D+02 0.345235261943061D+02 -.382043770410480D+01 0.477000603880452D+02
 0.336623466480940D+03 -.799713543796888D+02 0.240802071697533D+03 -.201541686969468D+03
 0.253925157274244D+03 0.548695575915715D+01 -.122746668324136D+03 0.222218663096894D+03
0.327180941585D-04 0.000000000000D+00 0.000000000000D+00 0.148669590237D-06 0.000000000000D+00  7 -2 1 -24 -13 13 23 21 0 0.18220145D-01 0.14249410D+00 0.52247090D+05 0.52247090D+05 0.52247090D+05 0.11456198D+01  1  2  2  1  7  1       -2 0.147458911799D-02 0.100000000000D+01
-.151373339881D-05 0.000000000000D+00 -.125646096441D-06 0.148669590237D-06 0.000000000000D+00  7 -2 1 -24 -13 13 23 21 2 0.18220145D-01 0.14249410D+00 0.52247090D+05 0.52247090D+05 0.52247090D+05 0.11456198D+01  1  2  3  1  7  1       -2 -.895392530795D-04 0.100000000000D+01
0.211621202028D-05 0.000000000000D+00 0.000000000000D+00 0.148669590237D-06 0.000000000000D+00  7 -2 1 -24 -13 13 23 21 2 0.18220145D-01 0.14249410D+00 0.52247090D+05 0.52247090D+05 0.52247090D+05 0.11456198D+01  1  2 15  1  7  1       -2 0.125176628726D-03 0.100000000000D+01
0.293135141954D-04 0.000000000000D+00 0.000000000000D+00 0.148669590237D-06 0.000000000000D+00  7 -2 1 -24 -13 13 23 21 2 0.31836872D-01 0.14249410D+00 0.87282090D+05 0.87282090D+05 0.87282090D+05 0.11266023D+01  1  2 12  1  7  1       -2 0.646725871149D-03 0.100000000000D+01
-.500353279195D-04 0.000000000000D+00 0.000000000000D+00 0.148669590237D-06 0.000000000000D+00  7 -2 1 -24 -13 13 23 21 2 0.18220145D-01 0.14249410D+00 0.52247090D+05 0.52247090D+05 0.52247090D+05 0.11456198D+01  1  2  4  1  7  1       -2 -.295965319456D-02 0.100000000000D+01
-.488894109590D-04 0.000000000000D+00 -.108621520947D-04 0.148669590237D-06 0.000000000000D+00  7 -2 1 -24 -13 13 23 21 2 0.33250037D-01 0.14249410D+00 0.52247090D+05 0.52247090D+05 0.52247090D+05 0.11456198D+01  1  2  5  1  7  1       -2 -.104558765347D-02 0.100000000000D+01
0.481526477396D-04 0.000000000000D+00 0.915525211451D-05 0.148669590237D-06 0.000000000000D+00  7 -2 1 -24 -13 13 23 21 2 0.18220145D-01 0.14249410D+00 0.52247090D+05 0.52247090D+05 0.52247090D+05 0.11456198D+01  1  2  6  1  7  1       -2 0.284829027079D-02 0.100000000000D+01
0.180782150053D-05 0.000000000000D+00 0.000000000000D+00 0.148669590237D-06 0.000000000000D+00  7 21 1 -24 -13 13 23 2 2 0.31836872D-01 0.14249410D+00 0.87282090D+05 0.87282090D+05 0.87282090D+05 0.11266023D+01  1  2 12  3  7  1       -2 0.469562491325D-03 0.100000000000D+01
-.262684305518D-05 0.000000000000D+00 -.714538107987D-06 0.148669590237D-06 0.000000000000D+00  7 21 1 -24 -13 13 23 2 2 0.33250037D-01 0.14249410D+00 0.52247090D+05 0.52247090D+05 0.52247090D+05 0.11456198D+01  1  2  5  3  7  1       -2 -.665355715715D-03 0.100000000000D+01
  </mgrwgt>
  </event>
  <event>
  8     66 0.26562228E-05 0.32748705E+03 0.75467711E-02 0.97606657E-01
       -2 -1    0    0    0  501 0.00000000E+00 0.00000000E+00 0.14879905E+03 0.14879939E+03 0.32000000E+00 0.0000E+00 0.9000E+01
        1 -1    0    0  501    0 0.00000000E+00 0.00000000E+00 -.10329048E+04 0.10329048E+04 0.32000000E+00 0.0000E+00 0.9000E+01
       25  2    1    2    0    0 -.84281949E+02 -.28844078E+03 -.70616671E+03 0.82333146E+03 0.29816395E+03 0.0000E+00 0.0000E+00
       23  2    3    3    0    0 -.69313811E+02 -.21118950E+03 -.64527197E+03 0.68836766E+03 0.89826032E+02 0.0000E+00 0.0000E+00
      -24  1    1    2    0    0 0.84281949E+02 0.28844078E+03 -.17793904E+03 0.35837278E+03 0.80419002E+02 0.0000E+00 0.9000E+01
      -13  1    4    4    0    0 -.71069776E+02 -.20314229E+03 -.64518137E+03 0.68012992E+03 0.10565837E+00 0.0000E+00 0.9000E+01
       13  1    4    4    0    0 0.17559644E+01 -.80472044E+01 -.90597423E-01 0.82377352E+01 0.10565837E+00 0.0000E+00 0.9000E+01
       23  1    3    3    0    0 -.14968137E+02 -.77251285E+02 -.60894742E+02 0.13496380E+03 0.91188000E+02 0.0000E+00 0.9000E+01
#aMCatNLO 1  0  0  2  2 0.10934187D+03 0.00000000D+00  -5  7  0 0.00000000D+00 0.00000000D+00 0.00000000D+00 0.00000000D+00 0.00000000D+00
  <mgrwgt>
 0.2712573607D-02    3    2    0
 0.392040156370137D+03 0.000000000000000D+00 0.000000000000000D+00 0.392040156370137D+03
 0.392040156370137D+03 0.000000000000000D+00 0.000000000000000D+00 -.392040156370137D+03
 0.339472503498218D+03 0.842819485374412D+02 0.288440782101528D+03 0.135914800696496D+03
 0.297551366355478D+03 -.710698765533743D+02 -.203142562264885D+03 -.205472595893363D+03
 0.123127175087983D+02 0.175606515921724D+01 -.804693445220733D+01 0.915238185009408D+01
 0.134743725377778D+03 -.149681371432842D+02 -.772512853844358D+02 0.604054133467727D+02
 0.000000000000000D+00 0.000000000000000D+00 -.000000000000000D+00 0.000000000000000D+00
 0.216570223274681D+04 0.000000000000000D+00 0.000000000000000D+00 0.216570223274681D+04
 0.397522573024308D+03 0.000000000000000D+00 0.000000000000000D+00 -.397522573024308D+03
 0.335502094307324D+03 0.377296297637042D+02 0.293595097574458D+03 0.135914800696496D+03
 0.307163807733819D+03 -.112776473576498D+03 -.198524769552896D+03 -.205472595893363D+03
 0.120649710698220D+02 0.747605095780195D-01 -.786077885784341D+01 0.915238185009408D+01
 0.136936721466240D+03 -.337056641660681D+02 -.751766491901061D+02 0.604054133467727D+02
 0.177155721119391D+04 0.108677747469284D+03 -.120328999736117D+02 0.176817965972250D+04
0.105632173154D-03 0.000000000000D+00 0.000000000000D+00 0.334781388312D-06 0.000000000000D+00  7 -2 1 -24 -13 13 23 21 0 0.22892192D-01 0.15890846D+00 0.10724776D+06 0.10724776D+06 0.10724776D+06 0.11192368D+01  1  2  2  2  7  2        1 0.267893259259D-02 0.100000000000D+01
-.563749037484D-05 0.000000000000D+00 -.405655358503D-06 0.334781388312D-06 0.000000000000D+00  7 -2 1 -24 -13 13 23 21 2 0.22892192D-01 0.15890846D+00 0.10724776D+06 0.10724776D+06 0.10724776D+06 0.11192368D+01  1  2  3  2  7  2        1 -.179099912846D-03 0.100000000000D+01
0.669640152060D-05 0.000000000000D+00 0.000000000000D+00 0.334781388312D-06 0.000000000000D+00  7 -2 1 -24 -13 13 23 21 2 0.22892192D-01 0.15890846D+00 0.10724776D+06 0.10724776D+06 0.10724776D+06 0.11192368D+01  1  2 15  2  7  2        1 0.212740927075D-03 0.100000000000D+01
  </mgrwgt>
  </event>
  <event>
  8     66 0.26562228E-05 0.23311223E+03 0.75467711E-02 0.97669239E-01
       -2 -1    0    0    0  501 0.00000000E+00 0.00000000E+00 0.31717159E+02 0.31718773E+02 0.32000000E+00 0.0000E+00 0.9000E+01
        1 -1    0    0  501    0 0.00000000E+00 0.00000000E+00 -.20221026E+04 0.20221026E+04 0.32000000E+00 0.0000E+00 0.9000E+01
       25  2    1    2    0    0 0.12274404E+03 -.74251538E+02 -.15111122E+04 0.15471169E+04 0.29921772E+03 0.0000E+00 0.0000E+00
       23  2    3    3    0    0 0.18585860E+02 0.77291008E+02 -.70454668E+03 0.71484455E+03 0.91089968E+02 0.0000E+00 0.0000E+00
      -24  1    1    2    0    0 -.12274404E+03 0.74251538E+02 -.47927324E+03 0.50670450E+03 0.80419002E+02 0.0000E+00 0.9000E+01
      -13  1    4    4    0    0 -.14669763E+02 0.28004529E+01 -.37687694E+03 0.37717275E+03 0.10565837E+00 0.0000E+00 0.9000E+01
       13  1    4    4    0    0 0.33255623E+02 0.74490555E+02 -.32766973E+03 0.33767180E+03 0.10565837E+00 0.0000E+00 0.9000E+01
       23  1    3    3    0    0 0.10415818E+03 -.15154255E+03 -.80656550E+03 0.83227233E+03 0.91188000E+02 0.0000E+00 0.9000E+01
#aMCatNLO 1  0  0  2  2 0.24303195D+03 0.00000000D+00  -5  7  0 0.00000000D+00 0.00000000D+00 0.00000000D+00 0.00000000D+00 0.00000000D+00
  <mgrwgt>
 0.1111925487D-02    3    2    0
 0.253252902620236D+03 0.000000000000000D+00 0.000000000000000D+00 0.253252902620236D+03
 0.253252902620236D+03 0.000000000000000D+00 0.000000000000000D+00 -.253252902620236D+03
 0.171255791956451D+03 -.122744038131559D+03 0.742515383849318D+02 0.477696606109970D+02
 0.484003700389583D+02 -.146698271971576D+02 0.280035659508249D+01 -.460385707082009D+02
 0.815953608549712D+02 0.332556875746239D+02 0.744906505193981D+02 -.173353459407952D+01
 0.205254282390091D+03 0.104158177754093D+03 -.151542545499412D+03 0.244469128341507D-02
 0.000000000000000D+00 -.000000000000000D+00 -.000000000000000D+00 0.000000000000000D+00
 0.426523369891119D+03 0.000000000000000D+00 0.000000000000000D+00 0.426523369891119D+03
 0.382294495957209D+03 0.000000000000000D+00 0.000000000000000D+00 -.382294495957209D+03
 0.198145107798375D+03 -.881179798336772D+02 0.150822905903583D+03 0.477696606109970D+02
 0.520076135162253D+02 -.525801283920089D+01 0.236134531947754D+02 -.460385707082009D+02
 0.129643866673108D+03 0.530563480820604D+02 0.118277432132935D+03 -.173353459407952D+01
 0.181997553771950D+03 0.140457506380007D+03 -.712709416979145D+02 0.244469128341507D-02
 0.247023724088670D+03 -.100137861789190D+03 -.221442849533379D+03 0.442288739339096D+02
0.177422723163D-04 0.000000000000D+00 0.000000000000D+00 0.557183471992D-06 0.000000000000D+00  7 -2 1 -24 -13 13 23 21 0 0.48796891D-02 0.31109283D+00 0.54341314D+05 0.54341314D+05 0.54341314D+05 0.11441283D+01  1  2  2  2  7  2        1 0.109716430156D-02 0.100000000000D+01
-.977451830415D-06 0.000000000000D+00 -.681349973422D-07 0.557183471992D-06 0.000000000000D+00  7 -2 1 -24 -13 13 23 21 2 0.48796891D-02 0.31109283D+00 0.54341314D+05 0.54341314D+05 0.54341314D+05 0.11441283D+01  1  2  3  2  7  2        1 -.791238174600D-04 0.100000000000D+01
0.115980334765D-05 0.000000000000D+00 0.000000000000D+00 0.557183471992D-06 0.000000000000D+00  7 -2 1 -24 -13 13 23 21 2 0.48796891D-02 0.31109283D+00 0.54341314D+05 0.54341314D+05 0.54341314D+05 0.11441283D+01  1  2 15  2  7  2        1 0.938850033458D-04 0.100000000000D+01
  </mgrwgt>
  </event>
  <event>
  9     66 0.26562228E-05 0.21584626E+03 0.75467711E-02 0.10470028E+00
       -2 -1    0    0    0  501 0.00000000E+00 0.00000000E+00 0.29248829E+03 0.29248846E+03 0.32000000E+00 0.0000E+00 0.9000E+01
       21 -1    0    0  501  502 0.00000000E+00 0.00000000E+00 -.32005276E+03 0.32005364E+03 0.75000000E+00 0.0000E+00 0.9000E+01
       25  2    1    2    0    0 -.30449980E+02 -.80032820E+02 -.19405546E+03 0.36684107E+03 0.29930318E+03 0.0000E+00 0.0000E+00
       23  2    3    3    0    0 -.70797187E+01 -.15985345E+03 -.90298282E+02 0.20560117E+03 0.92275744E+02 0.0000E+00 0.0000E+00
      -24  1    1    2    0    0 0.43763864E+02 0.88540602E+02 0.65010756E+02 0.14299765E+03 0.80419002E+02 0.0000E+00 0.9000E+01
      -13  1    4    4    0    0 0.23073017E+02 -.40497317E+01 -.24230748E+02 0.33703186E+02 0.10565837E+00 0.0000E+00 0.9000E+01
       13  1    4    4    0    0 -.30152735E+02 -.15580372E+03 -.66067534E+02 0.17189798E+03 0.10565837E+00 0.0000E+00 0.9000E+01
       23  1    3    3    0    0 -.23370261E+02 0.79820632E+02 -.10375718E+03 0.16123990E+03 0.91188000E+02 0.0000E+00 0.9000E+01
       -1  1    1    2    0  502 -.13313884E+02 -.85077826E+01 0.10148024E+03 0.10270338E+03 0.32000000E+00 0.0000E+00 0.9000E+01
#aMCatNLO 2  0  0  2  2 0.15800059D+02 0.00000000D+00  -5  7  0 0.00000000D+00 0.00000000D+00 0.00000000D+00 0.00000000D+00 0.00000000D+00
  <mgrwgt>
 0.7637612935D-04    1    2    0
 0.246492061987150D+03 0.000000000000000D+00 0.000000000000000D+00 0.246492061987150D+03
 0.246492061987150D+03 0.000000000000000D+00 0.000000000000000D+00 -.246492061987150D+03
 0.162194034097163D+03 0.393492183905691D+02 0.857195748157972D+02 0.104611100021896D+03
 0.279593462991865D+02 0.223109174489168D+02 -.453657110486527D+01 -.162286022403643D+02
 0.163984317062050D+03 -.345319416474871D+02 -.158602256648390D+03 -.233179208850156D+02
 0.138846426515901D+03 -.271281941919988D+02 0.774192529374578D+02 -.650645768965165D+02
 0.000000000000000D+00 -.000000000000000D+00 -.000000000000000D+00 0.000000000000000D+00
 0.378856446669363D+03 0.000000000000000D+00 0.000000000000000D+00 0.378856446669363D+03
 0.247090583076425D+03 0.000000000000000D+00 0.000000000000000D+00 -.247090583076425D+03
 0.164819332748092D+03 0.437638641297143D+02 0.885406033512336D+02 0.104611100021896D+03
 0.284979562268428D+02 0.230730850399379D+02 -.404953394489787D+01 -.162286022403643D+02
 0.160398809109606D+03 -.301528038782290D+02 -.155803918267998D+03 -.233179208850156D+02
 0.139521155537914D+03 -.233702613836694D+02 0.798206315107252D+02 -.650645768965165D+02
 0.132709776123335D+03 -.133138839077538D+02 -.850778264906313D+01 0.131765863592938D+03
0.297316124102D-06 0.000000000000D+00 0.000000000000D+00 0.568845651486D-06 0.969757293083D-11  7 -2 21 -24 -13 13 23 -1 2 0.44998244D-01 0.49238928D-01 0.50334502D+05 0.50334502D+05 0.50334502D+05 0.11470408D+01  1  2  1  4  7  2        1 0.763761293458D-04 0.100000000000D+01
  </mgrwgt>
  </event>
  <event>
  9     66 0.26562228E-05 0.30173004E+03 0.75467711E-02 0.96956108E-01
       21 -1    0    0  502  501 0.00000000E+00 0.00000000E+00 0.28751597E+03 0.28751695E+03 0.75000000E+00 0.0000E+00 0.9000E+01
        1 -1    0    0  501    0 0.00000000E+00 0.00000000E+00 -.11128120E+04 0.11128121E+04 0.32000000E+00 0.0000E+00 0.9000E+01
       25  2    1    2    0    0 0.52794236E+02 -.14001277E+03 0.91392717E+02 0.34838284E+03 0.30104346E+03 0.0000E+00 0.0000E+00
       23  2    3    3    0    0 0.16479077E+02 0.40094788E+02 0.96299025E+02 0.14320768E+03 0.96725308E+02 0.0000E+00 0.0000E+00
      -24  1    1    2    0    0 -.47968001E+02 0.32070730E+03 -.56059922E+03 0.65260463E+03 0.80419002E+02 0.0000E+00 0.9000E+01
      -11  1    4    4    0    0 0.61935663E+01 -.28422046E+02 0.55872637E+02 0.62991464E+02 0.51099893E-03 0.0000E+00 0.9000E+01
       11  1    4    4    0    0 0.10285511E+02 0.68516835E+02 0.40426388E+02 0.80216215E+02 0.51099893E-03 0.0000E+00 0.9000E+01
       23  1    3    3    0    0 0.36315159E+02 -.18010756E+03 -.49063087E+01 0.20517516E+03 0.91188000E+02 0.0000E+00 0.9000E+01
        2  1    1    2  502    0 -.48262352E+01 -.18069453E+03 -.35608955E+03 0.39934156E+03 0.32000000E+00 0.0000E+00 0.9000E+01
#aMCatNLO 2  0  0  1  1 0.18075897D+03 0.00000000D+00  -5  7  0 0.00000000D+00 0.00000000D+00 0.00000000D+00 0.00000000D+00 0.00000000D+00
  <mgrwgt>
 0.2055293469D-03    1    2    0
 0.432766496997502D+03 0.000000000000000D+00 0.000000000000000D+00 0.432766496997502D+03
 0.432766496997502D+03 0.000000000000000D+00 0.000000000000000D+00 -.432766496997502D+03
 0.384149083442097D+03 -.502448406186935D+02 0.235462285023869D+03 -.288333610038049D+03
 0.109037192651018D+03 0.561433961173936D+01 -.501083259681228D+02 0.966785614322615D+02
 0.100323723760278D+03 0.969914123616760D+01 0.465631246303503D+02 0.883326193037876D+02
 0.272022994141610D+03 0.349313597707865D+02 -.231917083686096D+03 0.103322429302000D+03
 0.000000000000000D+00 -.000000000000000D+00 -.000000000000000D+00 -.000000000000000D+00
 0.478061302890288D+03 0.000000000000000D+00 0.000000000000000D+00 0.478061302890288D+03
 0.669269452191824D+03 0.000000000000000D+00 0.000000000000000D+00 -.669269452191824D+03
 0.441313480887196D+03 -.479680008558668D+02 0.320707300625853D+03 -.288333610038049D+03
 0.100959978275913D+03 0.619356625327219D+01 -.284220461952975D+02 0.966785614322615D+02
 0.112263083818940D+03 0.102855107669797D+02 0.685168346009424D+02 0.883326193037876D+02
 0.229669977197354D+03 0.363151590552560D+02 -.180107556498216D+03 0.103322429302000D+03
 0.263124234902708D+03 -.482623521964102D+01 -.180694532533282D+03 -.191208149301537D+03
0.230521819601D-05 0.000000000000D+00 0.000000000000D+00 0.126954557483D-06 0.525438232182D-12  7 21 1 -24 -11 11 23 2 2 0.44233297D-01 0.17120190D+00 0.16742288D+06 0.16742288D+06 0.16742288D+06 0.11038054D+01  1  2  1  3  7  1       -2 0.205529346888D-03 0.100000000000D+01
  </mgrwgt>
  </event>
  <event>
  8     66 0.26562228E-05 0.20984558E+03 0.75467711E-02 0.92188114E-01
       -2 -1    0    0    0  501 0.00000000E+00 0.00000000E+00 0.72984941E+02 0.72985642E+02 0.32000000E+00 0.0000E+00 0.9000E+01
        1 -1    0    0  501    0 0.00000000E+00 0.00000000E+00 -.65298146E+03 0.65298153E+03 0.32000000E+00 0.0000E+00 0.9000E+01
       25  2    1    2    0    0 0.41875001E+02 -.67060096E+02 -.49529399E+03 0.58492709E+03 0.30095347E+03 0.0000E+00 0.0000E+00
       23  2    3    3    0    0 -.89863929E+02 0.15570130E+02 -.24912353E+03 0.27980737E+03 0.88947583E+02 0.0000E+00 0.0000E+00
      -24  1    1    2    0    0 -.41875001E+02 0.67060096E+02 -.84702520E+02 0.14104008E+03 0.80419002E+02 0.0000E+00 0.9000E+01
      -11  1    4    4    0    0 -.12957373E+02 -.33159041E+02 -.57022529E+02 0.67223391E+02 0.51099893E-03 0.0000E+00 0.9000E+01
       11  1    4    4    0    0 -.76906556E+02 0.48729171E+02 -.19210101E+03 0.21258398E+03 0.51099893E-03 0.0000E+00 0.9000E+01
       23  1    3    3    0    0 0.13173893E+03 -.82630227E+02 -.24617046E+03 0.30511973E+03 0.91188000E+02 0.0000E+00 0.9000E+01
#aMCatNLO 1  0  0  1  2 0.55124754D+03 0.00000000D+00  -5  7  0 0.00000000D+00 0.00000000D+00 0.00000000D+00 0.00000000D+00 0.00000000D+00
  <mgrwgt>
 0.1366006893D-02    5    2    0
 0.218307342540684D+03 0.000000000000000D+00 0.000000000000000D+00 0.218307342540684D+03
 0.218307342540684D+03 0.000000000000000D+00 0.000000000000000D+00 -.218307342540684D+03
 0.121991555363948D+03 -.418750013469280D+02 0.670600963411349D+02 0.465204403102240D+02
 0.360251450710243D+02 -.129573733284781D+02 -.331590408041182D+02 -.551321746039590D+01
 0.982813365220833D+02 -.769065557486420D+02 0.487291710672104D+02 -.370144658012318D+02
 0.180316648124313D+03 0.131738930424048D+03 -.826302266042271D+02 -.399275704859632D+01
 0.000000000000000D+00 0.000000000000000D+00 0.000000000000000D+00 0.000000000000000D+00
 0.205792721123511D+04 0.000000000000000D+00 0.000000000000000D+00 0.205792721123511D+04
 0.396127463416020D+03 0.000000000000000D+00 0.000000000000000D+00 -.396127463416020D+03
 0.244052237156370D+03 -.218568869246516D+03 0.561940969880362D+02 0.465204403102240D+02
 0.769202337111194D+02 -.674775051984736D+02 -.365118210939633D+02 -.551321746039590D+01
 0.251430804011265D+03 -.245716933154104D+03 0.383479763291649D+02 -.370144658012318D+02
 0.130808100810101D+03 -.184448355947633D+02 -.918659557430205D+02 -.399275704859632D+01
 0.175084329896227D+04 0.550208143193857D+03 0.338357035197826D+02 0.166179974781909D+04
0.824201625150D-05 0.000000000000D+00 0.000000000000D+00 0.743054663224D-07 0.000000000000D+00  7 -2 1 -24 -11 11 23 21 0 0.11228512D-01 0.10045875D+00 0.44035167D+05 0.44035167D+05 0.44035167D+05 0.11521800D+01  1  2  2  1  7  1       -2 0.136826450931D-02 0.100000000000D+01
-.457019751337D-06 0.000000000000D+00 -.316515125785D-07 0.743054663224D-07 0.000000000000D+00  7 -2 1 -24 -11 11 23 21 2 0.11228512D-01 0.10045875D+00 0.44035167D+05 0.44035167D+05 0.44035167D+05 0.11521800D+01  1  2  3  1  7  1       -2 -.100719190260D-03 0.100000000000D+01
0.526906596686D-06 0.000000000000D+00 0.000000000000D+00 0.743054663224D-07 0.000000000000D+00  7 -2 1 -24 -11 11 23 21 2 0.11228512D-01 0.10045875D+00 0.44035167D+05 0.44035167D+05 0.44035167D+05 0.11521800D+01  1  2 15  1  7  1       -2 0.116121033293D-03 0.100000000000D+01
0.348889918765D-08 0.000000000000D+00 -.835032878866D-05 0.743054663224D-07 0.000000000000D+00  7 -2 1 -24 -11 11 23 21 2 0.16574492D+00 0.10045875D+00 0.44035167D+05 0.44035167D+05 0.44035167D+05 0.11521800D+01  1  2  5  1  7  1       -2 0.376845507902D-08 0.100000000000D+01
-.182831504372D-05 0.000000000000D+00 -.253884803599D-05 0.743054663224D-07 0.000000000000D+00  7 21 1 -24 -11 11 23 2 2 0.16574492D+00 0.10045875D+00 0.44035167D+05 0.44035167D+05 0.44035167D+05 0.11521800D+01  1  2  5  3  7  1       -2 -.176632282215D-04 0.100000000000D+01
  </mgrwgt>
  </event>
  <event>
  8     66 0.26562228E-05 0.17713881E+03 0.75467711E-02 0.91059698E-01
       -2 -1    0    0    0  501 0.00000000E+00 0.00000000E+00 0.10355827E+03 0.10355877E+03 0.32000000E+00 0.0000E+00 0.9000E+01
        1 -1    0    0  501    0 0.00000000E+00 0.00000000E+00 -.83396208E+03 0.83396214E+03 0.32000000E+00 0.0000E+00 0.9000E+01
       25  2    1    2    0    0 -.51188639E+02 -.57915764E+00 -.77301174E+03 0.83310221E+03 0.30641725E+03 0.0000E+00 0.0000E+00
       23  2    3    3    0    0 -.93298898E+02 -.74355414E+02 -.22240616E+03 0.26856880E+03 0.91822063E+02 0.0000E+00 0.0000E+00
      -24  1    1    2    0    0 0.51188639E+02 0.57915764E+00 0.42607936E+02 0.10441870E+03 0.80419002E+02 0.0000E+00 0.9000E+01
      -13  1    4    4    0    0 -.90030344E+02 -.84616343E+02 -.14536410E+03 0.19077768E+03 0.10565837E+00 0.0000E+00 0.9000E+01
       13  1    4    4    0    0 -.32685534E+01 0.10260928E+02 -.77042053E+02 0.77791125E+02 0.10565837E+00 0.0000E+00 0.9000E+01
       23  1    3    3    0    0 0.42110258E+02 0.73776257E+02 -.55060558E+03 0.56453341E+03 0.91188000E+02 0.0000E+00 0.9000E+01
#aMCatNLO 1  0  0  1  2 0.63196561D+03 0.00000000D+00  -5  7  0 0.00000000D+00 0.00000000D+00 0.00000000D+00 0.00000000D+00 0.00000000D+00
  <mgrwgt>
 0.1486886640D-02    3    2    0
 0.293877413592835D+03 0.000000000000000D+00 0.000000000000000D+00 0.293877413592835D+03
 0.293877413592835D+03 0.000000000000000D+00 0.000000000000000D+00 -.293877413592835D+03
 0.219506095304410D+03 0.511886654533374D+02 0.579157938946939D+00 0.197724796185522D+03
 0.123663107984014D+03 -.900304007691014D+02 -.846164040430666D+02 0.521108246350228D+01
 0.283433562552130D+02 -.326844174152661D+01 0.102610587702195D+02 -.262178146554260D+02
 0.216242267642033D+03 0.421101770572906D+02 0.737761873339001D+02 -.176718063993598D+03
 0.000000000000000D+00 -.000000000000000D+00 -.000000000000000D+00 -.000000000000000D+00
 0.669625705642005D+03 0.000000000000000D+00 0.000000000000000D+00 0.669625705642005D+03
 0.850849715434464D+03 0.000000000000000D+00 0.000000000000000D+00 -.850849715434464D+03
 0.355887054074551D+03 0.201804105111291D+03 0.200918857843451D+03 0.197724796185522D+03
 0.506899684881998D+02 -.443915792139216D+02 -.239103580020750D+02 0.521108246350228D+01
 0.483252869955644D+02 0.168004127863005D+02 0.369554554579877D+02 -.262178146554260D+02
 0.408136666564822D+03 0.205548180777410D+03 0.291171699325495D+03 -.176718063993598D+03
 0.657436444953331D+03 -.379761119461080D+03 -.505135654624858D+03 -.181224009792459D+03
0.216888077903D-04 0.000000000000D+00 0.000000000000D+00 0.393360926245D-07 0.000000000000D+00  7 -2 1 -24 -13 13 23 21 0 0.15932085D-01 0.12830190D+00 0.31378159D+05 0.31378159D+05 0.31378159D+05 0.11655304D+01  1  2  2  1  7  1       -2 0.144099127087D-02 0.100000000000D+01
-.829495278359D-06 0.000000000000D+00 -.832907327088D-07 0.393360926245D-07 0.000000000000D+00  7 -2 1 -24 -13 13 23 21 2 0.15932085D-01 0.12830190D+00 0.31378159D+05 0.31378159D+05 0.31378159D+05 0.11655304D+01  1  2  3  1  7  1       -2 -.748663761830D-04 0.100000000000D+01
0.133800115403D-05 0.000000000000D+00 0.000000000000D+00 0.393360926245D-07 0.000000000000D+00  7 -2 1 -24 -13 13 23 21 2 0.15932085D-01 0.12830190D+00 0.31378159D+05 0.31378159D+05 0.31378159D+05 0.11655304D+01  1  2 15  1  7  1       -2 0.120761745539D-03 0.100000000000D+01
  </mgrwgt>
  </event>
  <event>
  8     66 0.26562228E-05 0.52559704E+03 0.75467711E-02 0.83663665E-01
       -2 -1    0    0    0  501 0.00000000E+00 0.00000000E+00 0.55938302E+03 0.55938311E+03 0.32000000E+00 0.0000E+00 0.9000E+01
        1 -1    0    0  501    0 0.00000000E+00 0.00000000E+00 -.16517769E+04 0.16517769E+04 0.32000000E+00 0.0000E+00 0.9000E+01
       25  2    1    2    0    0 0.18490181E+03 -.44245688E+03 -.14828537E+04 0.15875553E+04 0.30252238E+03 0.0000E+00 0.0000E+00
       23  2    3    3    0    0 0.62278274E+02 -.39086836E+03 -.10823222E+04 0.11557699E+04 0.87897150E+02 0.0000E+00 0.0000E+00
      -24  1    1    2    0    0 -.18490181E+03 0.44245688E+03 0.39045986E+03 0.62360475E+03 0.80419002E+02 0.0000E+00 0.9000E+01
      -11  1    4    4    0    0 0.92578363E+01 -.28613150E+03 -.71659906E+03 0.77166777E+03 0.51099893E-03 0.0000E+00 0.9000E+01
       11  1    4    4    0    0 0.53020437E+02 -.10473686E+03 -.36572318E+03 0.38410210E+03 0.51099893E-03 0.0000E+00 0.9000E+01
       23  1    3    3    0    0 0.12262353E+03 -.51588520E+02 -.40053148E+03 0.43178539E+03 0.91188000E+02 0.0000E+00 0.9000E+01
#aMCatNLO 1  0  0  1  1 0.13194812D+04 0.00000000D+00  -5  7  0 0.00000000D+00 0.00000000D+00 0.00000000D+00 0.00000000D+00 0.00000000D+00
  <mgrwgt>
 0.1755914224D-02    3    2    0
 0.961236738452916D+03 0.000000000000000D+00 0.000000000000000D+00 0.961236738452916D+03
 0.961236738452916D+03 0.000000000000000D+00 0.000000000000000D+00 -.961236738452916D+03
 0.939116127723094D+03 -.184901805711131D+03 0.442456875971096D+03 0.803439556249199D+03
 0.480356440806710D+03 0.925783628891783D+01 -.286131498167303D+03 -.385727064708029D+03
 0.233968086959155D+03 0.530204373721176D+02 -.104736858015503D+03 -.202385991385858D+03
 0.269032821416873D+03 0.122623532050095D+03 -.515885197882899D+02 -.215326500155312D+03
 0.000000000000000D+00 -.000000000000000D+00 -.000000000000000D+00 -.000000000000000D+00
 0.179412453391323D+04 0.000000000000000D+00 0.000000000000000D+00 0.179412453391323D+04
 0.185865744232840D+04 0.000000000000000D+00 0.000000000000000D+00 -.185865744232840D+04
 0.120242962770843D+04 0.367147690468628D+03 0.811823408429635D+03 0.803439556249199D+03
 0.478686570013021D+03 0.256480763744450D+03 -.120719019593526D+03 -.385727064708029D+03
 0.274044452884000D+03 0.183976344320229D+03 -.171165819549007D+02 -.202385991385858D+03
 0.376562957577226D+03 0.289045764040957D+03 0.597616456948048D+02 -.215326500155312D+03
 0.132105836805895D+04 -.109665056257426D+04 -.733749452576013D+03 -.645329084151665D+02
0.243090148556D-02 0.000000000000D+00 0.000000000000D+00 0.428583336320D-06 0.000000000000D+00  7 -2 1 -24 -11 11 23 21 0 0.86058935D-01 0.25411953D+00 0.27625224D+06 0.27625224D+06 0.27625224D+06 0.10872116D+01  1  2  2  1  7  1       -2 0.169687196975D-02 0.100000000000D+01
-.752091414225D-04 0.000000000000D+00 -.933530177560D-05 0.428583336320D-06 0.000000000000D+00  7 -2 1 -24 -11 11 23 21 2 0.86058935D-01 0.25411953D+00 0.27625224D+06 0.27625224D+06 0.27625224D+06 0.10872116D+01  1  2  3  1  7  1       -2 -.620555359603D-04 0.100000000000D+01
0.146766290961D-03 0.000000000000D+00 0.000000000000D+00 0.428583336320D-06 0.000000000000D+00  7 -2 1 -24 -11 11 23 21 2 0.86058935D-01 0.25411953D+00 0.27625224D+06 0.27625224D+06 0.27625224D+06 0.10872116D+01  1  2 15  1  7  1       -2 0.121097790431D-03 0.100000000000D+01
  </mgrwgt>
  </event>
  <event>
  8     66 0.26562228E-05 0.18665192E+03 0.75467711E-02 0.10075304E+00
       -2 -1    0    0    0  501 0.00000000E+00 0.00000000E+00 0.11120161E+03 0.11120207E+03 0.32000000E+00 0.0000E+00 0.9000E+01
        1 -1    0    0  501    0 0.00000000E+00 0.00000000E+00 -.96400545E+03 0.96400550E+03 0.32000000E+00 0.0000E+00 0.9000E+01
       25  2    1    2    0    0 -.42694010E+02 -.24224176E+02 -.10551133E+03 0.32199918E+03 0.30023531E+03 0.0000E+00 0.0000E+00
       23  2    3    3    0    0 0.81197632E+02 0.44166544E+02 -.26202792E+02 0.13590370E+03 0.96122270E+02 0.0000E+00 0.0000E+00
      -24  1    1    2    0    0 0.42694010E+02 0.24224176E+02 -.74729250E+03 0.75320840E+03 0.80419002E+02 0.0000E+00 0.9000E+01
      -11  1    4    4    0    0 -.10124229E+02 0.59340942E+01 -.34609953E+02 0.36545347E+02 0.51099893E-03 0.0000E+00 0.9000E+01
       11  1    4    4    0    0 0.91321861E+02 0.38232450E+02 0.84071609E+01 0.99358356E+02 0.51099893E-03 0.0000E+00 0.9000E+01
       23  1    3    3    0    0 -.12389164E+03 -.68390721E+02 -.79308541E+02 0.18609547E+03 0.91188000E+02 0.0000E+00 0.9000E+01
#aMCatNLO 1  0  0  2  1 0.17283519D+03 0.00000000D+00  -5  7  0 0.00000000D+00 0.00000000D+00 0.00000000D+00 0.00000000D+00 0.00000000D+00
  <mgrwgt>
 0.1040342336D-02    4    2    0
 0.327412944317168D+03 0.000000000000000D+00 0.000000000000000D+00 0.327412944317168D+03
 0.327412944317168D+03 0.000000000000000D+00 0.000000000000000D+00 -.327412944317168D+03
 0.263522660819956D+03 0.426940095771548D+02 0.242241764455000D+02 -.246104424245120D+03
 0.149327210778832D+02 -.101242285957472D+02 0.593409419923362D+01 -.923432077445508D+01
 0.174092866328327D+03 0.913218610144880D+02 0.382324499746938D+02 0.143202386768503D+03
 0.202277640408169D+03 -.123891641995896D+03 -.683907206194275D+02 0.112136358251072D+03
 0.000000000000000D+00 -.000000000000000D+00 0.000000000000000D+00 0.000000000000000D+00
 0.436995716763784D+03 0.000000000000000D+00 0.000000000000000D+00 0.436995716763784D+03
 0.414542813918699D+03 0.000000000000000D+00 0.000000000000000D+00 -.414542813918699D+03
 0.281399597647152D+03 0.110186811190205D+03 0.316174134304935D+01 -.246104424245120D+03
 0.124266501265348D+02 -.673556060822170D+01 0.487659476425377D+01 -.923432077445508D+01
 0.200057877671469D+03 0.137663300634132D+03 0.237707067781549D+02 0.143202386768503D+03
 0.183366896826282D+03 -.761266079194016D+02 -.832967240206549D+02 0.112136358251072D+03
 0.174287508411045D+03 -.164987943296714D+03 0.514876811351969D+02 0.224529028450855D+02
0.345336577792D-04 0.000000000000D+00 0.000000000000D+00 0.442759119722D-06 0.000000000000D+00  7 -2 1 -24 -11 11 23 21 0 0.17107980D-01 0.14830857D+00 0.34838941D+05 0.34838941D+05 0.34838941D+05 0.11613579D+01  1  2  2  2  7  2        1 0.161880704248D-02 0.100000000000D+01
-.118184076415D-05 0.000000000000D+00 -.132618338793D-06 0.442759119722D-06 0.000000000000D+00  7 -2 1 -24 -11 11 23 21 2 0.17107980D-01 0.14830857D+00 0.34838941D+05 0.34838941D+05 0.34838941D+05 0.11613579D+01  1  2  3  2  7  2        1 -.747211598128D-04 0.100000000000D+01
0.212316908807D-05 0.000000000000D+00 0.000000000000D+00 0.442759119722D-06 0.000000000000D+00  7 -2 1 -24 -11 11 23 21 2 0.17107980D-01 0.14830857D+00 0.34838941D+05 0.34838941D+05 0.34838941D+05 0.11613579D+01  1  2 15  2  7  2        1 0.134236067626D-03 0.100000000000D+01
-.100907201701D-04 0.000000000000D+00 0.000000000000D+00 0.442759119722D-06 0.000000000000D+00  7 -2 1 -24 -11 11 23 21 2 0.17107980D-01 0.14830857D+00 0.34838941D+05 0.34838941D+05 0.34838941D+05 0.11613579D+01  1  2  4  2  7  2        1 -.637979613948D-03 0.100000000000D+01
  </mgrwgt>
  </event>
  <event>
  8     66 0.26562228E-05 0.18407649E+03 0.75467711E-02 0.95209381E-01
       -2 -1    0    0    0  501 0.00000000E+00 0.00000000E+00 0.41486153E+03 0.41486165E+03 0.32000000E+00 0.0000E+00 0.9000E+01
        1 -1    0    0  501    0 0.00000000E+00 0.00000000E+00 -.15118636E+03 0.15118670E+03 0.32000000E+00 0.0000E+00 0.9000E+01
       25  2    1    2    0    0 0.44736890E+02 0.53739853E+02 0.32121357E+03 0.44493994E+03 0.29984002E+03 0.0000E+00 0.0000E+00
       23  2    3    3    0    0 0.62398105E+02 -.78056156E+02 0.20559100E+03 0.24653144E+03 0.92324439E+02 0.0000E+00 0.0000E+00
      -24  1    1    2    0    0 -.44736890E+02 -.53739853E+02 -.57538403E+02 0.12110840E+03 0.80419002E+02 0.0000E+00 0.9000E+01
      -11  1    4    4    0    0 0.46138591E+02 -.63729470E+02 0.21014208E+03 0.22438786E+03 0.51099893E-03 0.0000E+00 0.9000E+01
       11  1    4    4    0    0 0.16259514E+02 -.14326686E+02 -.45510827E+01 0.22143579E+02 0.51099893E-03 0.0000E+00 0.9000E+01
       23  1    3    3    0    0 -.17661215E+02 0.13179601E+03 0.11562257E+03 0.19840851E+03 0.91188000E+02 0.0000E+00 0.9000E+01
#aMCatNLO 1  0  0  2  1 0.42807259D+03 0.00000000D+00  -5  7  0 0.00000000D+00 0.00000000D+00 0.00000000D+00 0.00000000D+00 0.00000000D+00
  <mgrwgt>
 0.9356929806D-03    5    2    0
 0.250442676474566D+03 0.000000000000000D+00 0.000000000000000D+00 0.250442676474566D+03
 0.250442676474566D+03 0.000000000000000D+00 0.000000000000000D+00 -.250442676474566D+03
 0.167153337745989D+03 -.447368904742126D+02 -.537398529268225D+02 -.128777564829266D+03
 0.142957117887872D+03 0.461385912969446D+02 -.637294703036811D+02 0.119358797592606D+03
 0.274201343243284D+02 0.162595141139956D+02 -.143266859832246D+02 -.167999415439182D+02
 0.163354762990943D+03 -.176612149367275D+02 0.131796009213728D+03 0.262187087805788D+02
 0.000000000000000D+00 -.000000000000000D+00 -.000000000000000D+00 -.000000000000000D+00
 0.504449268205188D+03 0.000000000000000D+00 0.000000000000000D+00 0.504449268205188D+03
 0.591215260492519D+03 0.000000000000000D+00 0.000000000000000D+00 -.591215260492519D+03
 0.172061864496669D+03 -.383471759825422D+02 0.713014877159481D+02 -.128777564829266D+03
 0.135670324342940D+03 0.513870288481771D+02 0.389780401087918D+02 0.119358797592606D+03
 0.245507586748033D+02 0.172384772204428D+02 0.483079897632241D+01 -.167999415439182D+02
 0.326604203164760D+03 -.843197672549489D+01 0.312404441804638D+03 0.262187087805788D+02
 0.436777378018535D+03 -.218463533605828D+02 -.427514768605701D+03 -.867659922873309D+02
0.138719572713D-04 0.000000000000D+00 0.000000000000D+00 0.141186847605D-05 0.000000000000D+00  7 -2 1 -24 -11 11 23 21 0 0.63824886D-01 0.23259475D-01 0.33884153D+05 0.33884153D+05 0.33884153D+05 0.11624616D+01  1  2  2  2  7  2        1 0.773837963953D-03 0.100000000000D+01
-.681845263764D-06 0.000000000000D+00 -.532719684919D-07 0.141186847605D-05 0.000000000000D+00  7 -2 1 -24 -11 11 23 21 2 0.63824886D-01 0.23259475D-01 0.33884153D+05 0.33884153D+05 0.33884153D+05 0.11624616D+01  1  2  3  2  7  2        1 -.513990818194D-04 0.100000000000D+01
0.859855285249D-06 0.000000000000D+00 0.000000000000D+00 0.141186847605D-05 0.000000000000D+00  7 -2 1 -24 -11 11 23 21 2 0.63824886D-01 0.23259475D-01 0.33884153D+05 0.33884153D+05 0.33884153D+05 0.11624616D+01  1  2 15  2  7  2        1 0.648178912549D-04 0.100000000000D+01
0.990096072808D-05 0.000000000000D+00 -.577708366978D-05 0.141186847605D-05 0.000000000000D+00  7 -2 1 -24 -11 11 23 21 2 0.63824886D-01 0.10282656D+00 0.33884153D+05 0.33884153D+05 0.33884153D+05 0.11624616D+01  1  2  5  2  7  2        1 0.105353246560D-03 0.100000000000D+01
0.174424042374D-05 0.000000000000D+00 -.103648760925D-05 0.141186847605D-05 0.000000000000D+00  7 -2 21 -24 -11 11 23 -1 2 0.63824886D-01 0.10282656D+00 0.33884153D+05 0.33884153D+05 0.33884153D+05 0.11624616D+01  1  2  5  4  7  2        1 0.430829606938D-04 0.100000000000D+01
  </mgrwgt>
  </event>
  <event>
  9     66 0.26562228E-05 0.12366966E+03 0.75467711E-02 0.11003989E+00
       21 -1    0    0  502  501 0.00000000E+00 0.00000000E+00 0.66822917E+02 0.66827125E+02 0.75000000E+00 0.0000E+00 0.9000E+01
        1 -1    0    0  501    0 0.00000000E+00 0.00000000E+00 -.14548469E+04 0.14548469E+04 0.32000000E+00 0.0000E+00 0.9000E+01
       25  2    1    2    0    0 -.27743489E+02 0.91707171E+01 -.56829287E+03 0.64378729E+03 0.30108385E+03 0.0000E+00 0.0000E+00
       23  2    3    3    0    0 0.14950031E+02 -.91033743E-01 -.52883287E+03 0.53524763E+03 0.81254538E+02 0.0000E+00 0.0000E+00
      -24  1    1    2    0    0 0.40670174E+02 0.40206669E+02 -.58032386E+02 0.11447975E+03 0.80419002E+02 0.0000E+00 0.9000E+01
      -13  1    4    4    0    0 0.21148965E+02 -.26438665E+02 -.10028854E+03 0.10584935E+03 0.10565837E+00 0.0000E+00 0.9000E+01
       13  1    4    4    0    0 -.61989338E+01 0.26347631E+02 -.42854433E+03 0.42939828E+03 0.10565837E+00 0.0000E+00 0.9000E+01
       23  1    3    3    0    0 -.42693520E+02 0.92617508E+01 -.39459998E+02 0.10853967E+03 0.91188000E+02 0.0000E+00 0.9000E+01
        2  1    1    2  502    0 -.12926685E+02 -.49377386E+02 -.76169874E+03 0.76340703E+03 0.32000000E+00 0.0000E+00 0.9000E+01
#aMCatNLO 2  0  0  1  2 0.51041409D+02 0.00000000D+00  -5  7  0 0.00000000D+00 0.00000000D+00 0.00000000D+00 0.00000000D+00 0.00000000D+00
  <mgrwgt>
 0.3341644609D-03    1    2    0
 0.212179377595119D+03 0.000000000000000D+00 0.000000000000000D+00 0.212179377595119D+03
 0.212179377595119D+03 0.000000000000000D+00 0.000000000000000D+00 -.212179377595119D+03
 0.112989496095726D+03 0.371638615727937D+02 0.268130478658508D+02 0.648021460349677D+02
 0.435500465264146D+02 0.198685200770229D+02 -.313298942275598D+02 -.228097827716909D+02
 0.131892261681266D+03 -.102312714168349D+02 0.109452634991133D+02 -.131038509544063D+03
 0.135926950886833D+03 -.468011102329817D+02 -.642841713740423D+01 0.890461462807865D+02
 0.000000000000000D+00 -.000000000000000D+00 -.000000000000000D+00 -.000000000000000D+00
 0.216475517118130D+03 0.000000000000000D+00 0.000000000000000D+00 0.216475517118130D+03
 0.449105048750004D+03 0.000000000000000D+00 0.000000000000000D+00 -.449105048750004D+03
 0.118055848918106D+03 0.406702413885698D+02 0.402067263534640D+02 0.648021460349677D+02
 0.408236909599446D+02 0.211489889394709D+02 -.264387560285932D+02 -.228097827716909D+02
 0.133804782886149D+03 -.619901206044418D+01 0.263476979858672D+02 -.131038509544063D+03
 0.134733012535080D+03 -.426935328540716D+02 0.926171732224142D+01 0.890461462807865D+02
 0.238163230568854D+03 -.129266854135249D+02 -.493773856329793D+02 -.232629531631873D+03
0.339207520743D-06 0.000000000000D+00 0.000000000000D+00 0.334519553989D-08 0.636718399676D-13  7 21 1 -24 -13 13 23 2 2 0.10280770D-01 0.22382282D+00 0.24298367D+05 0.24298367D+05 0.24298367D+05 0.11759260D+01  1  2  1  3  7  1       -2 0.334164460880D-03 0.100000000000D+01
  </mgrwgt>
  </event>
  <event>
  9     66 0.26562228E-05 0.18043721E+03 0.75467711E-02 0.10532178E+00
       -4 -1    0    0    0  501 0.00000000E+00 0.00000000E+00 0.90525664E+02 0.90538932E+02 0.15500000E+01 0.0000E+00 0.9000E+01
       21 -1    0    0  501  502 0.00000000E+00 0.00000000E+00 -.85049535E+03 0.85049568E+03 0.75000000E+00 0.0000E+00 0.9000E+01
       25  2    1    2    0    0 -.29352971E+02 -.18116359E+02 -.41329106E+03 0.51076927E+03 0.29813746E+03 0.0000E+00 0.0000E+00
       23  2    3    3    0    0 0.54552719E+02 0.64615098E+02 -.84373267E+02 0.14967811E+03 0.90186347E+02 0.0000E+00 0.0000E+00
      -24  1    1    2    0    0 -.26544544E+02 0.53200350E+02 -.35017367E+03 0.36417537E+03 0.80419002E+02 0.0000E+00 0.9000E+01
      -11  1    4    4    0    0 0.39551131E+02 0.82149725E+02 -.87526671E+02 0.12638745E+03 0.51099893E-03 0.0000E+00 0.9000E+01
       11  1    4    4    0    0 0.15001587E+02 -.17534626E+02 0.31534039E+01 0.23290657E+02 0.51099893E-03 0.0000E+00 0.9000E+01
       23  1    3    3    0    0 -.83905690E+02 -.82731458E+02 -.32891779E+03 0.36109116E+03 0.91188000E+02 0.0000E+00 0.9000E+01
       -3  1    1    2    0  502 0.55897516E+02 -.35083990E+02 0.34950459E+01 0.66089969E+02 0.50000000E+00 0.0000E+00 0.9000E+01
#aMCatNLO 2  0  0  2  1 0.65995596D+02 0.00000000D+00  -5  7  0 0.00000000D+00 0.00000000D+00 0.00000000D+00 0.00000000D+00 0.00000000D+00
  <mgrwgt>
 0.3025244826D-04    1    2    0
 0.211124556451113D+03 0.000000000000000D+00 0.000000000000000D+00 0.211124556451113D+03
 0.211124556451113D+03 0.000000000000000D+00 0.000000000000000D+00 -.211124556451113D+03
 0.113529648887329D+03 -.111799691922680D+02 0.435567978948821D+02 -.663293213301171D+02
 0.102042050588564D+03 0.530008164405115D+02 0.737080503409678D+02 0.465898793719370D+02
 0.574051745844127D+02 0.222859654757099D+02 -.221066553303686D+02 0.480623095781575D+02
 0.149272238841921D+03 -.641068127239534D+02 -.951581929054813D+02 -.283228676199773D+02
 0.000000000000000D+00 0.000000000000000D+00 -.000000000000000D+00 0.000000000000000D+00
 0.347069462570145D+03 0.000000000000000D+00 0.000000000000000D+00 0.347069462570145D+03
 0.221851144524033D+03 0.000000000000000D+00 0.000000000000000D+00 -.221851144524033D+03
 0.120007020198187D+03 -.265445443019312D+02 0.532003500192098D+02 -.663293213301171D+02
 0.102388896429671D+03 0.395511314188797D+02 0.821497246232798D+02 0.465898793719370D+02
 0.533150667137689D+02 0.150015870941590D+02 -.175346263536850D+02 0.480623095781575D+02
 0.151664416041937D+03 -.839056899423345D+02 -.827314578284703D+02 -.283228676199773D+02
 0.141545207710614D+03 0.558975157312271D+02 -.350839904603343D+02 0.125218318046112D+03
0.250118851400D-06 0.000000000000D+00 0.000000000000D+00 0.528570831685D-07 0.116021430515D-11  7 -4 21 -24 -11 11 23 -3 2 0.13928044D-01 0.13084623D+00 0.46064663D+05 0.46064663D+05 0.46064663D+05 0.11504402D+01  1  2  1  4  7  2        3 0.302524482626D-04 0.100000000000D+01
  </mgrwgt>
  </event>
  <event>
  8     66 0.26562228E-05 0.36868379E+03 0.75467711E-02 0.81734228E-01
       -2 -1    0    0    0  501 0.00000000E+00 0.00000000E+00 0.18527861E+03 0.18527889E+03 0.32000000E+00 0.0000E+00 0.9000E+01
        1 -1    0    0  501    0 0.00000000E+00 0.00000000E+00 -.88648201E+03 0.88648206E+03 0.32000000E+00 0.0000E+00 0.9000E+01
       25  2    1    2    0    0 -.33056706E+03 -.24911871E+02 -.51935550E+03 0.68519781E+03 0.29978446E+03 0.0000E+00 0.0000E+00
       23  2    3    3    0    0 -.10932157E+03 0.55918932E+02 -.66601905E+02 0.16675374E+03 0.91065164E+02 0.0000E+00 0.0000E+00
      -24  1    1    2    0    0 0.33056706E+03 0.24911871E+02 -.18184790E+03 0.38656314E+03 0.80419002E+02 0.0000E+00 0.9000E+01
      -11  1    4    4    0    0 -.11757011E+02 -.17833819E+02 -.34043711E+02 0.40190132E+02 0.51099893E-03 0.0000E+00 0.9000E+01
       11  1    4    4    0    0 -.97564560E+02 0.73752751E+02 -.32558193E+02 0.12656361E+03 0.51099893E-03 0.0000E+00 0.9000E+01
       23  1    3    3    0    0 -.22124549E+03 -.80830803E+02 -.45275359E+03 0.51844407E+03 0.91188000E+02 0.0000E+00 0.9000E+01
#aMCatNLO 1  0  0  2  1 0.17974785D+04 0.00000000D+00  -5  7  0 0.00000000D+00 0.00000000D+00 0.00000000D+00 0.00000000D+00 0.00000000D+00
  <mgrwgt>
 0.1833429635D-02    3    2    0
 0.405273157552773D+03 0.000000000000000D+00 0.000000000000000D+00 0.405273157552773D+03
 0.405273157552773D+03 0.000000000000000D+00 0.000000000000000D+00 -.405273157552773D+03
 0.353824210381901D+03 0.330567062466110D+03 0.249118713914006D+02 0.939636726310253D+02
 0.236909937359173D+02 -.117570106450605D+02 -.178338191338208D+02 -.102465008656309D+02
 0.139185161183205D+03 -.975645596304094D+02 0.737527508853239D+02 0.664394275604961D+02
 0.293845949804522D+03 -.221245492190640D+03 -.808308031429036D+02 -.150156599325891D+03
 0.000000000000000D+00 0.000000000000000D+00 -.000000000000000D+00 0.000000000000000D+00
 0.192748382053470D+04 0.000000000000000D+00 0.000000000000000D+00 0.192748382053470D+04
 0.184372467152473D+04 0.000000000000000D+00 0.000000000000000D+00 -.184372467152473D+04
 0.574849235689783D+03 0.563808916213169D+02 0.558548521710004D+03 0.939636726310253D+02
 0.343705745214090D+02 -.288993970684697D+02 0.155296639378088D+02 -.102465008656309D+02
 0.582944509522896D+03 -.310769718130262D+03 0.488704702188920D+03 0.664394275604961D+02
 0.779615184870814D+03 -.538179500923585D+03 0.536004109687302D+03 -.150156599325891D+03
 0.179942898745453D+04 0.821467724501000D+03 -.159878699752404D+04 0.837591490099713D+02
0.807650986530D-04 0.000000000000D+00 0.000000000000D+00 0.825652203989D-05 0.000000000000D+00  7 -2 1 -24 -11 11 23 21 0 0.28504427D-01 0.13638187D+00 0.13592773D+06 0.13592773D+06 0.13592773D+06 0.11109440D+01  1  2  2  2  7  2        1 0.181578631228D-02 0.100000000000D+01
-.443810530320D-05 0.000000000000D+00 -.310159244766D-06 0.825652203989D-05 0.000000000000D+00  7 -2 1 -24 -11 11 23 21 2 0.28504427D-01 0.13638187D+00 0.13592773D+06 0.13592773D+06 0.13592773D+06 0.11109440D+01  1  2  3  2  7  2        1 -.123146748977D-03 0.100000000000D+01
0.507395580563D-05 0.000000000000D+00 0.000000000000D+00 0.825652203989D-05 0.000000000000D+00  7 -2 1 -24 -11 11 23 21 2 0.28504427D-01 0.13638187D+00 0.13592773D+06 0.13592773D+06 0.13592773D+06 0.11109440D+01  1  2 15  2  7  2        1 0.140790071265D-03 0.100000000000D+01
  </mgrwgt>
  </event>
  <event>
  8     66 0.26562228E-05 0.19986367E+03 0.75467711E-02 0.10176244E+00
       -2 -1    0    0    0  501 0.00000000E+00 0.00000000E+00 0.10111412E+03 0.10111463E+03 0.32000000E+00 0.0000E+00 0.9000E+01
        1 -1    0    0  501    0 0.00000000E+00 0.00000000E+00 -.13568857E+04 0.13568857E+04 0.32000000E+00 0.0000E+00 0.9000E+01
       25  2    1    2    0    0 0.38112837E+02 0.46614156E+02 -.13089740E+04 0.13443202E+04 0.30026394E+03 0.0000E+00 0.0000E+00
       23  2    3    3    0    0 0.65850411E+02 0.13139877E+03 -.61686765E+03 0.64055587E+03 0.90466619E+02 0.0000E+00 0.0000E+00
      -24  1    1    2    0    0 -.38112837E+02 -.46614156E+02 0.53202406E+02 0.11368016E+03 0.80419002E+02 0.0000E+00 0.9000E+01
      -13  1    4    4    0    0 0.35724528E+02 0.13654114E+03 -.52993567E+03 0.54840820E+03 0.10565837E+00 0.0000E+00 0.9000E+01
       13  1    4    4    0    0 0.30125883E+02 -.51423738E+01 -.86931978E+02 0.92147669E+02 0.10565837E+00 0.0000E+00 0.9000E+01
       23  1    3    3    0    0 -.27737574E+02 -.84784614E+02 -.69210630E+03 0.70376430E+03 0.91188000E+02 0.0000E+00 0.9000E+01
#aMCatNLO 1  0  0  2  1 0.15262315D+03 0.00000000D+00  -5  7  0 0.00000000D+00 0.00000000D+00 0.00000000D+00 0.00000000D+00 0.00000000D+00
  <mgrwgt>
 0.1510146462D-02    3    2    0
 0.370406125305529D+03 0.000000000000000D+00 0.000000000000000D+00 0.370406125305529D+03
 0.370406125305529D+03 0.000000000000000D+00 0.000000000000000D+00 -.370406125305529D+03
 0.313920005024287D+03 -.381128367622925D+02 -.466141560433502D+02 0.297410634864281D+03
 0.181019343753448D+03 0.357245359379875D+02 0.136541336509291D+03 -.113350005598592D+03
 0.339957635154587D+02 0.301258751575516D+02 -.514256703587905D+01 -.148895126606648D+02
 0.211877138317866D+03 -.277375743332467D+02 -.847846134300617D+02 -.169171116605024D+03
 0.000000000000000D+00 -.000000000000000D+00 -.000000000000000D+00 0.000000000000000D+00
 0.743939302868012D+03 0.000000000000000D+00 0.000000000000000D+00 0.743939302868012D+03
 0.394107129646625D+03 0.000000000000000D+00 0.000000000000000D+00 -.394107129646625D+03
 0.310633164229837D+03 -.358226506151808D+02 0.170117235340303D+02 0.297410634864281D+03
 0.213198062815863D+03 0.371700994030702D+02 0.176701935274070D+03 -.113350005598592D+03
 0.338742032131263D+02 0.303747488567955D+02 0.177163425646394D+01 -.148895126606648D+02
 0.198665256651514D+03 -.262321484511175D+02 -.429609188758791D+02 -.169171116605024D+03
 0.381675745604297D+03 -.549004919356738D+01 -.152524374188685D+03 0.349832173221386D+03
0.501441296546D-04 0.000000000000D+00 0.000000000000D+00 0.684342670456D-05 0.000000000000D+00  7 -2 1 -24 -13 13 23 21 0 0.15556060D-01 0.20875168D+00 0.39945485D+05 0.39945485D+05 0.39945485D+05 0.11559717D+01  1  2  2  2  7  2        1 0.144852612755D-02 0.100000000000D+01
-.149649812865D-05 0.000000000000D+00 -.192566661126D-06 0.684342670456D-05 0.000000000000D+00  7 -2 1 -24 -13 13 23 21 2 0.15556060D-01 0.20875168D+00 0.39945485D+05 0.39945485D+05 0.39945485D+05 0.11559717D+01  1  2  3  2  7  2        1 -.577666004168D-04 0.100000000000D+01
0.309283087138D-05 0.000000000000D+00 0.000000000000D+00 0.684342670456D-05 0.000000000000D+00  7 -2 1 -24 -13 13 23 21 2 0.15556060D-01 0.20875168D+00 0.39945485D+05 0.39945485D+05 0.39945485D+05 0.11559717D+01  1  2 15  2  7  2        1 0.119386935195D-03 0.100000000000D+01
  </mgrwgt>
  </event>
  <event>
  8     66 0.26562228E-05 0.34284324E+03 0.75467711E-02 0.94596222E-01
       -2 -1    0    0    0  501 0.00000000E+00 0.00000000E+00 0.12858008E+03 0.12858048E+03 0.32000000E+00 0.0000E+00 0.9000E+01
        1 -1    0    0  501    0 0.00000000E+00 0.00000000E+00 -.10887233E+04 0.10887234E+04 0.32000000E+00 0.0000E+00 0.9000E+01
       25  2    1    2    0    0 0.29983618E+03 0.54432842E+02 -.47934137E+03 0.64241053E+03 0.30009745E+03 0.0000E+00 0.0000E+00
       23  2    3    3    0    0 0.10808376E+03 -.25770031E+02 -.35623156E+03 0.38419983E+03 0.91446125E+02 0.0000E+00 0.0000E+00
      -24  1    1    2    0    0 -.29983618E+03 -.54432842E+02 -.48080187E+03 0.57489332E+03 0.80419002E+02 0.0000E+00 0.9000E+01
      -11  1    4    4    0    0 0.66984296E+02 0.30713550E+02 -.16926002E+03 0.18460545E+03 0.51099893E-03 0.0000E+00 0.9000E+01
       11  1    4    4    0    0 0.41099469E+02 -.56483581E+02 -.18697154E+03 0.19959438E+03 0.51099893E-03 0.0000E+00 0.9000E+01
       23  1    3    3    0    0 0.19175242E+03 0.80202873E+02 -.12310981E+03 0.25821070E+03 0.91188000E+02 0.0000E+00 0.9000E+01
#aMCatNLO 1  0  0  1  2 0.25988972D+03 0.00000000D+00  -5  7  0 0.00000000D+00 0.00000000D+00 0.00000000D+00 0.00000000D+00 0.00000000D+00
  <mgrwgt>
 0.1299476943D-02    6    2    0
 0.374150248071113D+03 0.000000000000000D+00 0.000000000000000D+00 0.374150248071113D+03
 0.374150248071113D+03 0.000000000000000D+00 0.000000000000000D+00 -.374150248071113D+03
 0.318296173362616D+03 -.299836182777028D+03 -.544328415586677D+02 -.445035648062453D+02
 0.831311252222838D+02 0.669842958407604D+02 0.307135495834686D+02 -.384781231795982D+02
 0.847888686862267D+02 0.410994687113340D+02 -.564835810504850D+02 -.480582042574374D+02
 0.262084328871099D+03 0.191752418224933D+03 0.802028730256841D+02 0.131039892243281D+03
 0.000000000000000D+00 -.000000000000000D+00 0.000000000000000D+00 0.000000000000000D+00
 0.563495563933278D+03 0.000000000000000D+00 0.000000000000000D+00 0.563495563933278D+03
 0.496930088012954D+03 0.000000000000000D+00 0.000000000000000D+00 -.496930088012954D+03
 0.245557118489961D+03 -.210444927184628D+03 -.869680851146859D+02 -.445035648062453D+02
 0.106214984241188D+03 0.970025412089209D+02 0.197879739474054D+02 -.384781231795982D+02
 0.109879678316938D+03 0.719615140206494D+02 -.677162699093807D+02 -.480582042574374D+02
 0.330494858447283D+03 0.285697773085367D+03 0.460100990112129D+02 0.131039892243281D+03
 0.268279012450860D+03 -.244216901130309D+03 0.888862820654483D+02 0.665654759203236D+02
0.303587994217D-04 0.000000000000D+00 0.000000000000D+00 0.487845842048D-05 0.000000000000D+00  7 -2 1 -24 -11 11 23 21 0 0.19781586D-01 0.16749593D+00 0.11754149D+06 0.11754149D+06 0.11754149D+06 0.11160072D+01  1  2  2  1  7  1       -2 0.892297214647D-03 0.100000000000D+01
-.167094115990D-05 0.000000000000D+00 -.116585783435D-06 0.487845842048D-05 0.000000000000D+00  7 -2 1 -24 -11 11 23 21 2 0.19781586D-01 0.16749593D+00 0.11754149D+06 0.11754149D+06 0.11754149D+06 0.11160072D+01  1  2  3  1  7  1       -2 -.611674055723D-04 0.100000000000D+01
0.196088456681D-05 0.000000000000D+00 0.000000000000D+00 0.487845842048D-05 0.000000000000D+00  7 -2 1 -24 -11 11 23 21 2 0.19781586D-01 0.16749593D+00 0.11754149D+06 0.11754149D+06 0.11754149D+06 0.11160072D+01  1  2 15  1  7  1       -2 0.717812359025D-04 0.100000000000D+01
-.822282532397D-05 0.000000000000D+00 -.958544695190D-05 0.487845842048D-05 0.000000000000D+00  7 -2 1 -24 -11 11 23 21 2 0.39555664D-01 0.16749593D+00 0.11754149D+06 0.11754149D+06 0.11754149D+06 0.11160072D+01  1  2  5  1  7  1       -2 -.898571175965D-04 0.100000000000D+01
0.134266070125D-04 0.000000000000D+00 0.766923068525D-05 0.487845842048D-05 0.000000000000D+00  7 -2 1 -24 -11 11 23 21 2 0.19781586D-01 0.16749593D+00 0.11754149D+06 0.11754149D+06 0.11754149D+06 0.11160072D+01  1  2  6  1  7  1       -2 0.491501877085D-03 0.100000000000D+01
-.415086194736D-07 0.000000000000D+00 -.718717534203D-06 0.487845842048D-05 0.000000000000D+00  7 21 1 -24 -11 11 23 2 2 0.39555664D-01 0.16749593D+00 0.11754149D+06 0.11754149D+06 0.11754149D+06 0.11160072D+01  1  2  5  3  7  1       -2 -.507886138919D-05 0.100000000000D+01
  </mgrwgt>
  </event>
  <event>
  8     66 0.26562228E-05 0.19886682E+03 0.75467711E-02 0.99128380E-01
       -2 -1    0    0    0  501 0.00000000E+00 0.00000000E+00 0.49863977E+02 0.49865004E+02 0.32000000E+00 0.0000E+00 0.9000E+01
        1 -1    0    0  501    0 0.00000000E+00 0.00000000E+00 -.18378297E+04 0.18378297E+04 0.32000000E+00 0.0000E+00 0.9000E+01
       25  2    1    2    0    0 0.20505917E+03 0.57743257E+02 -.93343360E+03 0.10033442E+04 0.30002948E+03 0.0000E+00 0.0000E+00
       23  2    3    3    0    0 0.23721686E+03 0.41834102E+02 -.77773633E+03 0.81937649E+03 0.92098297E+02 0.0000E+00 0.0000E+00
      -24  1    1    2    0    0 -.20505917E+03 -.57743257E+02 -.85453212E+03 0.88435056E+03 0.80419002E+02 0.0000E+00 0.9000E+01
      -11  1    4    4    0    0 0.11861830E+03 0.64118708E+02 -.46537322E+03 0.48451392E+03 0.51099893E-03 0.0000E+00 0.9000E+01
       11  1    4    4    0    0 0.11859856E+03 -.22284606E+02 -.31236312E+03 0.33486257E+03 0.51099893E-03 0.0000E+00 0.9000E+01
       23  1    3    3    0    0 -.32157684E+02 0.15909155E+02 -.15569727E+03 0.18396768E+03 0.91188000E+02 0.0000E+00 0.9000E+01
#aMCatNLO 1  0  0  2  1 0.94798406D+02 0.00000000D+00  -5  7  0 0.00000000D+00 0.00000000D+00 0.00000000D+00 0.00000000D+00 0.00000000D+00
  <mgrwgt>
 0.1509839431D-02    9    2    0
 0.302725110945717D+03 0.000000000000000D+00 0.000000000000000D+00 0.302725110945717D+03
 0.302725110945717D+03 0.000000000000000D+00 0.000000000000000D+00 -.302725110945717D+03
 0.233726478367698D+03 -.205059173976091D+03 -.577432567358726D+02 -.527001158022822D+02
 0.136333282549815D+03 0.118618296218870D+03 0.641187081426473D+02 -.201309463030958D+02
 0.121601671131073D+03 0.118598561742758D+03 -.222846063995540D+02 0.149914606371654D+02
 0.113788789842847D+03 -.321576839855374D+02 0.159091549927794D+02 0.578396014682126D+02
 0.000000000000000D+00 0.000000000000000D+00 -.000000000000000D+00 -.000000000000000D+00
 0.340161675769580D+03 0.000000000000000D+00 0.000000000000000D+00 0.340161675769580D+03
 0.372985256674532D+03 0.000000000000000D+00 0.000000000000000D+00 -.372985256674532D+03
 0.257015398119575D+03 -.235763804675726D+03 -.350403355498353D+02 -.527001158022822D+02
 0.129029246749206D+03 0.102015151359968D+03 0.763950287035224D+02 -.201309463030958D+02
 0.106077476221498D+03 0.104353182506919D+03 -.117516113858635D+02 0.149914606371654D+02
 0.120704697068901D+03 -.468294213327408D+02 0.267573980449180D+02 0.578396014682126D+02
 0.100320114284933D+03 0.762248921415800D+02 -.563604798127415D+02 -.328235809049526D+02
0.216888013836D-04 0.000000000000D+00 0.000000000000D+00 0.181106780848D-05 0.000000000000D+00  7 -2 1 -24 -11 11 23 21 0 0.76714622D-02 0.28274311D+00 0.84452045D+05 0.84452045D+05 0.84452045D+05 0.11277947D+01  1  2  2  2  7  2        1 0.892724521226D-03 0.100000000000D+01
-.120248802205D-05 0.000000000000D+00 -.832907081056D-07 0.181106780848D-05 0.000000000000D+00  7 -2 1 -24 -11 11 23 21 2 0.76714622D-02 0.28274311D+00 0.84452045D+05 0.84452045D+05 0.84452045D+05 0.11277947D+01  1  2  3  2  7  2        1 -.629539238002D-04 0.100000000000D+01
0.142393794187D-05 0.000000000000D+00 0.000000000000D+00 0.181106780848D-05 0.000000000000D+00  7 -2 1 -24 -11 11 23 21 2 0.76714622D-02 0.28274311D+00 0.84452045D+05 0.84452045D+05 0.84452045D+05 0.11277947D+01  1  2 15  2  7  2        1 0.745475040458D-04 0.100000000000D+01
0.143241106390D-04 0.000000000000D+00 0.000000000000D+00 0.181106780848D-05 0.000000000000D+00  7 -2 1 -24 -11 11 23 21 2 0.76714622D-02 0.36260346D+00 0.11722376D+06 0.11722376D+06 0.11722376D+06 0.11161021D+01  1  2 12  2  7  2        1 0.330801349494D-03 0.100000000000D+01
-.149298549163D-04 0.000000000000D+00 0.000000000000D+00 0.181106780848D-05 0.000000000000D+00  7 -2 1 -24 -11 11 23 21 2 0.76714622D-02 0.28274311D+00 0.84452045D+05 0.84452045D+05 0.84452045D+05 0.11277947D+01  1  2  4  2  7  2        1 -.781623543453D-03 0.100000000000D+01
-.330043324862D-04 0.000000000000D+00 -.100239733358D-04 0.181106780848D-05 0.000000000000D+00  7 -2 1 -24 -11 11 23 21 2 0.76714622D-02 0.36613716D+00 0.84452045D+05 0.84452045D+05 0.84452045D+05 0.11277947D+01  1  2  5  2  7  2        1 -.758687535840D-03 0.100000000000D+01
0.347536215249D-04 0.000000000000D+00 0.969821457220D-05 0.181106780848D-05 0.000000000000D+00  7 -2 1 -24 -11 11 23 21 2 0.76714622D-02 0.28274311D+00 0.84452045D+05 0.84452045D+05 0.84452045D+05 0.11277947D+01  1  2  6  2  7  2        1 0.181945832403D-02 0.100000000000D+01
0.483014488727D-06 0.000000000000D+00 0.000000000000D+00 0.181106780848D-05 0.000000000000D+00  7 -2 21 -24 -11 11 23 -1 2 0.76714622D-02 0.36260346D+00 0.11722376D+06 0.11722376D+06 0.11722376D+06 0.11161021D+01  1  2 12  4  7  2        1 0.445356323793D-05 0.100000000000D+01
-.967324026505D-06 0.000000000000D+00 -.347663771690D-06 0.181106780848D-05 0.000000000000D+00  7 -2 21 -24 -11 11 23 -1 2 0.76714622D-02 0.36613716D+00 0.84452045D+05 0.84452045D+05 0.84452045D+05 0.11277947D+01  1  2  5  4  7  2        1 -.888082751292D-05 0.100000000000D+01
  </mgrwgt>
  </event>
  <event>
  8     66 0.26562228E-05 0.11240719E+03 0.75467711E-02 0.10187718E+00
       -2 -1    0    0    0  501 0.00000000E+00 0.00000000E+00 0.61595902E+02 0.61596733E+02 0.32000000E+00 0.0000E+00 0.9000E+01
        1 -1    0    0  501    0 0.00000000E+00 0.00000000E+00 -.19718430E+04 0.19718430E+04 0.32000000E+00 0.0000E+00 0.9000E+01
       25  2    1    2    0    0 -.18711079E+03 -.75255309E+02 -.56490155E+03 0.67068678E+03 0.30005532E+03 0.0000E+00 0.0000E+00
       23  2    3    3    0    0 -.46211131E+02 -.11461199E+03 -.41308533E+03 0.44098029E+03 0.92481038E+02 0.0000E+00 0.0000E+00
      -24  1    1    2    0    0 0.18711079E+03 0.75255309E+02 -.13453455E+04 0.13627530E+04 0.80419002E+02 0.0000E+00 0.9000E+01
      -13  1    4    4    0    0 -.69566187E+02 -.68498329E+02 -.21270894E+03 0.23404397E+03 0.10565837E+00 0.0000E+00 0.9000E+01
       13  1    4    4    0    0 0.23355056E+02 -.46113659E+02 -.20037640E+03 0.20693632E+03 0.10565837E+00 0.0000E+00 0.9000E+01
       23  1    3    3    0    0 -.14089965E+03 0.39356679E+02 -.15181621E+03 0.22970650E+03 0.91188000E+02 0.0000E+00 0.9000E+01
#aMCatNLO 1  0  0  1  2 0.13935200D+02 0.00000000D+00  -5  7  0 0.00000000D+00 0.00000000D+00 0.00000000D+00 0.00000000D+00 0.00000000D+00
  <mgrwgt>
 0.3886896401D-03    9    2    0
 0.348508706239713D+03 0.000000000000000D+00 0.000000000000000D+00 0.348508706239713D+03
 0.348508706239713D+03 0.000000000000000D+00 0.000000000000000D+00 -.348508706239713D+03
 0.288563304152032D+03 0.187110785477178D+03 0.752553093797526D+02 -.190073030483125D+03
 0.998364134755939D+02 -.695663073463369D+02 -.684983585160317D+02 0.208761399323229D+02
 0.545525323357308D+02 0.233551771398360D+02 -.461136301965942D+02 -.174369606038321D+02
 0.254065162516069D+03 -.140899655270677D+03 0.393566793328733D+02 0.186633851154634D+03
 0.000000000000000D+00 -.000000000000000D+00 0.000000000000000D+00 0.000000000000000D+00
 0.361405127705216D+03 0.000000000000000D+00 0.000000000000000D+00 0.361405127705216D+03
 0.352363201187162D+03 0.000000000000000D+00 0.000000000000000D+00 -.352363201187162D+03
 0.291907726023436D+03 0.192752760838582D+03 0.739021030138398D+02 -.190073030483125D+03
 0.988233101163872D+02 -.676354043252672D+02 -.689614782733327D+02 0.208761399323229D+02
 0.552325109891818D+02 0.244222493575530D+02 -.463695634159736D+02 -.174369606038321D+02
 0.251193151977095D+03 -.135988721195891D+03 0.381788104435407D+02 0.186633851154634D+03
 0.166116297862782D+02 -.135508846749766D+02 0.325012823192581D+01 0.904192651805389D+01
0.205420886071D-04 0.000000000000D+00 0.000000000000D+00 0.269430312906D-05 0.000000000000D+00  7 -2 1 -24 -13 13 23 21 0 0.94763585D-02 0.30336053D+00 0.72583334D+05 0.72583334D+05 0.72583334D+05 0.11333241D+01  1  2  2  1  7  1       -2 0.503139794363D-03 0.100000000000D+01
-.104928151326D-05 0.000000000000D+00 -.788870291073D-07 0.269430312906D-05 0.000000000000D+00  7 -2 1 -24 -13 13 23 21 2 0.94763585D-02 0.30336053D+00 0.72583334D+05 0.72583334D+05 0.72583334D+05 0.11333241D+01  1  2  3  1  7  1       -2 -.330099089822D-04 0.100000000000D+01
0.128627399929D-05 0.000000000000D+00 0.000000000000D+00 0.269430312906D-05 0.000000000000D+00  7 -2 1 -24 -13 13 23 21 2 0.94763585D-02 0.30336053D+00 0.72583334D+05 0.72583334D+05 0.72583334D+05 0.11333241D+01  1  2 15  1  7  1       -2 0.404655825021D-04 0.100000000000D+01
0.571492023779D-04 0.000000000000D+00 0.000000000000D+00 0.269430312906D-05 0.000000000000D+00  7 -2 1 -24 -13 13 23 21 2 0.98781386D-02 0.30336053D+00 0.76343336D+05 0.76343336D+05 0.76343336D+05 0.11314709D+01  1  2 12  1  7  1       -2 0.167916682646D-02 0.100000000000D+01
-.567034850825D-04 0.000000000000D+00 0.000000000000D+00 0.269430312906D-05 0.000000000000D+00  7 -2 1 -24 -13 13 23 21 2 0.94763585D-02 0.30336053D+00 0.72583334D+05 0.72583334D+05 0.72583334D+05 0.11333241D+01  1  2  4  1  7  1       -2 -.178386530011D-02 0.100000000000D+01
-.388995048923D-03 0.000000000000D+00 -.555702209621D-04 0.269430312906D-05 0.000000000000D+00  7 -2 1 -24 -13 13 23 21 2 0.99461014D-02 0.30336053D+00 0.72583334D+05 0.72583334D+05 0.72583334D+05 0.11333241D+01  1  2  5  1  7  1       -2 -.113618635799D-01 0.100000000000D+01
0.391290506976D-03 0.000000000000D+00 0.555052483864D-04 0.269430312906D-05 0.000000000000D+00  7 -2 1 -24 -13 13 23 21 2 0.94763585D-02 0.30336053D+00 0.72583334D+05 0.72583334D+05 0.72583334D+05 0.11333241D+01  1  2  6  1  7  1       -2 0.123098175825D-01 0.100000000000D+01
0.984522975945D-06 0.000000000000D+00 0.000000000000D+00 0.269430312906D-05 0.000000000000D+00  7 21 1 -24 -13 13 23 2 2 0.98781386D-02 0.30336053D+00 0.76343336D+05 0.76343336D+05 0.76343336D+05 0.11314709D+01  1  2 12  3  7  1       -2 0.424940334206D-03 0.100000000000D+01
-.324035894646D-05 0.000000000000D+00 -.469458352471D-06 0.269430312906D-05 0.000000000000D+00  7 21 1 -24 -13 13 23 2 2 0.99461014D-02 0.30336053D+00 0.72583334D+05 0.72583334D+05 0.72583334D+05 0.11333241D+01  1  2  5  3  7  1       -2 -.139010169092D-02 0.100000000000D+01
  </mgrwgt>
  </event>
  <event>
  8     66 0.26562228E-05 0.12600991E+03 0.75467711E-02 0.10027383E+00
       -2 -1    0    0    0  501 0.00000000E+00 0.00000000E+00 0.16329913E+03 0.16329944E+03 0.32000000E+00 0.0000E+00 0.9000E+01
        1 -1    0    0  501    0 0.00000000E+00 0.00000000E+00 -.17009313E+04 0.17009314E+04 0.32000000E+00 0.0000E+00 0.9000E+01
       25  2    1    2    0    0 0.54838437E+02 0.23334603E+03 -.15627428E+04 0.16101533E+04 0.30491143E+03 0.0000E+00 0.0000E+00
       23  2    3    3    0    0 0.12372246E+03 0.15365321E+03 -.59200674E+03 0.62947002E+03 0.82728288E+02 0.0000E+00 0.0000E+00
      -24  1    1    2    0    0 -.54838437E+02 -.23334603E+03 0.25110584E+02 0.25407751E+03 0.80419002E+02 0.0000E+00 0.9000E+01
      -11  1    4    4    0    0 -.81087665E+01 0.24385045E+02 -.41359134E+02 0.48692510E+02 0.51099893E-03 0.0000E+00 0.9000E+01
       11  1    4    4    0    0 0.13183122E+03 0.12926817E+03 -.55064760E+03 0.58077751E+03 0.51099893E-03 0.0000E+00 0.9000E+01
       23  1    3    3    0    0 -.68884020E+02 0.79692813E+02 -.97073604E+03 0.98068326E+03 0.91188000E+02 0.0000E+00 0.9000E+01
#aMCatNLO 1  0  0  1  2 0.22209620D+02 0.00000000D+00  -5  7  0 0.00000000D+00 0.00000000D+00 0.00000000D+00 0.00000000D+00 0.00000000D+00
  <mgrwgt>
 0.1928963017D-02    9    2    0
 0.527030282407743D+03 0.000000000000000D+00 0.000000000000000D+00 0.527030282407743D+03
 0.527030282407743D+03 0.000000000000000D+00 0.000000000000000D+00 -.527030282407743D+03
 0.485996699667180D+03 -.548384374009867D+02 -.233346027470836D+03 0.415051747833951D+03
 0.257849888305971D+02 -.810876646230486D+01 0.243850454642876D+02 -.211733633569342D+01
 0.223905379613669D+03 0.131831223637904D+03 0.129268169158945D+03 -.126664469905212D+03
 0.318373496704041D+03 -.688840197746122D+02 0.796928128476034D+02 -.286269941593045D+03
 0.000000000000000D+00 0.000000000000000D+00 -.000000000000000D+00 0.000000000000000D+00
 0.549874949989158D+03 0.000000000000000D+00 0.000000000000000D+00 0.549874949989158D+03
 0.532573101728234D+03 0.000000000000000D+00 0.000000000000000D+00 -.532573101728234D+03
 0.483318581081560D+03 -.618409219140928D+02 -.225914545483728D+03 0.415051747833951D+03
 0.262818318169109D+02 -.848490528160544D+01 0.247842279051845D+02 -.211733633569342D+01
 0.224032476684133D+03 0.128595250818888D+03 0.132702389351832D+03 -.126664469905212D+03
 0.320661633554743D+03 -.735005090550776D+02 0.845921249228027D+02 -.286269941593045D+03
 0.281535285800450D+02 0.152310854318875D+02 -.161641966960909D+02 0.173018482609240D+02
0.198968062932D-03 0.000000000000D+00 0.000000000000D+00 0.580102676887D-08 0.000000000000D+00  7 -2 1 -24 -11 11 23 21 0 0.25122969D-01 0.26168177D+00 0.90748451D+05 0.90748451D+05 0.90748451D+05 0.11251983D+01  1  2  2  1  7  1       -2 0.151782021009D-02 0.100000000000D+01
-.684907325489D-05 0.000000000000D+00 -.764089751155D-06 0.580102676887D-08 0.000000000000D+00  7 -2 1 -24 -11 11 23 21 2 0.25122969D-01 0.26168177D+00 0.90748451D+05 0.90748451D+05 0.90748451D+05 0.11251983D+01  1  2  3  1  7  1       -2 -.661495551355D-04 0.100000000000D+01
0.121946879001D-04 0.000000000000D+00 0.000000000000D+00 0.580102676887D-08 0.000000000000D+00  7 -2 1 -24 -11 11 23 21 2 0.25122969D-01 0.26168177D+00 0.90748451D+05 0.90748451D+05 0.90748451D+05 0.11251983D+01  1  2 15  1  7  1       -2 0.117778442365D-03 0.100000000000D+01
0.723782338736D-03 0.000000000000D+00 0.000000000000D+00 0.580102676887D-08 0.000000000000D+00  7 -2 1 -24 -11 11 23 21 2 0.26340373D-01 0.26168177D+00 0.97755403D+05 0.97755403D+05 0.97755403D+05 0.11225320D+01  1  2 12  1  7  1       -2 0.639723515122D-02 0.100000000000D+01
-.727665706874D-03 0.000000000000D+00 0.000000000000D+00 0.580102676887D-08 0.000000000000D+00  7 -2 1 -24 -11 11 23 21 2 0.25122969D-01 0.26168177D+00 0.90748451D+05 0.90748451D+05 0.90748451D+05 0.11251983D+01  1  2  4  1  7  1       -2 -.702792348771D-02 0.100000000000D+01
-.323337461407D-02 0.000000000000D+00 -.489249805783D-03 0.580102676887D-08 0.000000000000D+00  7 -2 1 -24 -11 11 23 21 2 0.26477240D-01 0.26168177D+00 0.90748451D+05 0.90748451D+05 0.90748451D+05 0.11251983D+01  1  2  5  1  7  1       -2 -.285451332510D-01 0.100000000000D+01
0.325524755126D-02 0.000000000000D+00 0.488576256071D-03 0.580102676887D-08 0.000000000000D+00  7 -2 1 -24 -11 11 23 21 2 0.25122969D-01 0.26168177D+00 0.90748451D+05 0.90748451D+05 0.90748451D+05 0.11251983D+01  1  2  6  1  7  1       -2 0.314397538701D-01 0.100000000000D+01
0.112931722270D-04 0.000000000000D+00 0.000000000000D+00 0.580102676887D-08 0.000000000000D+00  7 21 1 -24 -11 11 23 2 2 0.26340373D-01 0.26168177D+00 0.97755403D+05 0.97755403D+05 0.97755403D+05 0.11225320D+01  1  2 12  3  7  1       -2 0.121542614278D-02 0.100000000000D+01
-.289947814606D-04 0.000000000000D+00 -.445887001100D-05 0.580102676887D-08 0.000000000000D+00  7 21 1 -24 -11 11 23 2 2 0.26477240D-01 0.26168177D+00 0.90748451D+05 0.90748451D+05 0.90748451D+05 0.11251983D+01  1  2  5  3  7  1       -2 -.311984450570D-02 0.100000000000D+01
  </mgrwgt>
  </event>
  <event>
  8     66 0.26562228E-05 0.24303832E+03 0.75467711E-02 0.90953222E-01
       -2 -1    0    0    0  501 0.00000000E+00 0.00000000E+00 0.54916353E+03 0.54916363E+03 0.32000000E+00 0.0000E+00 0.9000E+01
        1 -1    0    0  501    0 0.00000000E+00 0.00000000E+00 -.12648452E+04 0.12648453E+04 0.32000000E+00 0.0000E+00 0.9000E+01
       25  2    1    2    0    0 -.16132770E+03 0.65089033E+03 -.85168294E+03 0.11250616E+04 0.30118921E+03 0.0000E+00 0.0000E+00
       23  2    3    3    0    0 0.17390686E+02 0.12472196E+03 -.29807774E+03 0.33538611E+03 0.88178807E+02 0.0000E+00 0.0000E+00
      -24  1    1    2    0    0 0.16132770E+03 -.65089033E+03 0.13600123E+03 0.68894731E+03 0.80419002E+02 0.0000E+00 0.9000E+01
      -13  1    4    4    0    0 0.63250602E+01 -.12959751E+02 -.17697410E+02 0.22829170E+02 0.10565837E+00 0.0000E+00 0.9000E+01
       13  1    4    4    0    0 0.11065626E+02 0.13768171E+03 -.28038033E+03 0.31255694E+03 0.10565837E+00 0.0000E+00 0.9000E+01
       23  1    3    3    0    0 -.17871838E+03 0.52616837E+03 -.55360520E+03 0.78967549E+03 0.91188000E+02 0.0000E+00 0.9000E+01
#aMCatNLO 1  0  0  1  2 0.97419279D+01 0.00000000D+00  -5  7  0 0.00000000D+00 0.00000000D+00 0.00000000D+00 0.00000000D+00 0.00000000D+00
  <mgrwgt>
 0.2277648437D-02   11    2    0
 0.833430864204050D+03 0.000000000000000D+00 0.000000000000000D+00 0.833430864204050D+03
 0.833430864204050D+03 0.000000000000000D+00 0.000000000000000D+00 -.833430864204050D+03
 0.808159505416908D+03 0.161327695836938D+03 -.650890328419780D+03 0.443812714066267D+03
 0.172456542567237D+02 0.632505341195847D+01 -.129599670361208D+02 -.945756546374314D+01
 0.219765371973668D+03 0.110656325469664D+02 0.137681924491638D+03 -.170932905443450D+03
 0.621691196760800D+03 -.178718381795863D+03 0.526168370964263D+03 -.263422243159074D+03
 0.000000000000000D+00 -.000000000000000D+00 0.000000000000000D+00 0.000000000000000D+00
 0.864537708504822D+03 0.000000000000000D+00 0.000000000000000D+00 0.864537708504822D+03
 0.834208182723118D+03 0.000000000000000D+00 0.000000000000000D+00 -.834208182723118D+03
 0.809765593528487D+03 0.165983061697441D+03 -.651715427599232D+03 0.443812714066267D+03
 0.172955667110312D+02 0.642444121487850D+01 -.129775821488948D+02 -.945756546374314D+01
 0.219692376128107D+03 0.123301141963209D+02 0.137457812616744D+03 -.170932905443450D+03
 0.620136660013548D+03 -.175145186094271D+03 0.525535071470786D+03 -.263422243159074D+03
 0.318556948467664D+02 -.959243101436846D+01 0.170012566059799D+01 0.303295257817042D+02
0.470655298091D-03 0.000000000000D+00 0.000000000000D+00 0.872305507442D-06 0.000000000000D+00  7 -2 1 -24 -13 13 23 21 0 0.84486708D-01 0.19459159D+00 0.48376287D+06 0.48376287D+06 0.48376287D+06 0.10695252D+01  1  2  2  1  7  1       -2 0.608728445253D-03 0.100000000000D+01
-.251074231335D-04 0.000000000000D+00 -.180744027106D-05 0.872305507442D-06 0.000000000000D+00  7 -2 1 -24 -13 13 23 21 2 0.84486708D-01 0.19459159D+00 0.48376287D+06 0.48376287D+06 0.48376287D+06 0.10695252D+01  1  2  3  1  7  1       -2 -.371453798877D-04 0.100000000000D+01
0.296683227244D-04 0.000000000000D+00 0.000000000000D+00 0.872305507442D-06 0.000000000000D+00  7 -2 1 -24 -13 13 23 21 2 0.84486708D-01 0.19459159D+00 0.48376287D+06 0.48376287D+06 0.48376287D+06 0.10695252D+01  1  2 15  1  7  1       -2 0.438930396148D-04 0.100000000000D+01
0.792078425176D-02 0.000000000000D+00 0.000000000000D+00 0.872305507442D-06 0.000000000000D+00  7 -2 1 -24 -13 13 23 21 2 0.87678683D-01 0.19459159D+00 0.49066592D+06 0.49066592D+06 0.49066592D+06 0.10690893D+01  1  2 12  1  7  1       -2 0.107388912727D-01 0.100000000000D+01
-.798733807505D-02 0.000000000000D+00 0.000000000000D+00 0.872305507442D-06 0.000000000000D+00  7 -2 1 -24 -13 13 23 21 2 0.84486708D-01 0.19459159D+00 0.48376287D+06 0.48376287D+06 0.48376287D+06 0.10695252D+01  1  2  4  1  7  1       -2 -.118169318098D-01 0.100000000000D+01
-.275500691087D-01 0.000000000000D+00 -.152555021897D-02 0.872305507442D-06 0.000000000000D+00  7 -2 1 -24 -13 13 23 21 2 0.87679493D-01 0.19459159D+00 0.48376287D+06 0.48376287D+06 0.48376287D+06 0.10695252D+01  1  2  5  1  7  1       -2 -.374097279100D-01 0.100000000000D+01
0.275887239895D-01 0.000000000000D+00 0.152450127833D-02 0.872305507442D-06 0.000000000000D+00  7 -2 1 -24 -13 13 23 21 2 0.84486708D-01 0.19459159D+00 0.48376287D+06 0.48376287D+06 0.48376287D+06 0.10695252D+01  1  2  6  1  7  1       -2 0.408163604746D-01 0.100000000000D+01
0.190944860141D-07 0.000000000000D+00 0.000000000000D+00 0.872305507442D-06 0.560621052083D-07  7 -2 1 -24 -13 13 23 21 2 0.87640076D-01 0.19477308D+00 0.49066592D+06 0.49066592D+06 0.49066592D+06 0.10690893D+01  1  2 11  1  7  1       -2 0.258650223898D-07 0.100000000000D+01
0.204870571057D-03 0.000000000000D+00 0.000000000000D+00 0.872305507442D-06 0.000000000000D+00  7 21 1 -24 -13 13 23 2 2 0.87678683D-01 0.19459159D+00 0.49066592D+06 0.49066592D+06 0.49066592D+06 0.10690893D+01  1  2 12  3  7  1       -2 0.257964838011D-02 0.100000000000D+01
-.257293443467D-03 0.000000000000D+00 -.100440978298D-04 0.872305507442D-06 0.000000000000D+00  7 21 1 -24 -13 13 23 2 2 0.87679493D-01 0.19459159D+00 0.48376287D+06 0.48376287D+06 0.48376287D+06 0.10695252D+01  1  2  5  3  7  1       -2 -.324609551372D-02 0.100000000000D+01
0.125046055025D-09 0.000000000000D+00 0.000000000000D+00 0.872305507442D-06 0.365656526441D-09  7 21 1 -24 -13 13 23 2 2 0.87640076D-01 0.19477308D+00 0.49066592D+06 0.49066592D+06 0.49066592D+06 0.10690893D+01  1  2 11  3  7  1       -2 0.157325426567D-08 0.100000000000D+01
  </mgrwgt>
  </event>
  <event>
  8     66 0.26562228E-05 0.10699352E+03 0.75467711E-02 0.97679746E-01
       -2 -1    0    0    0  501 0.00000000E+00 0.00000000E+00 0.16285284E+03 0.16285315E+03 0.32000000E+00 0.0000E+00 0.9000E+01
        1 -1    0    0  501    0 0.00000000E+00 0.00000000E+00 -.13700540E+04 0.13700541E+04 0.32000000E+00 0.0000E+00 0.9000E+01
       25  2    1    2    0    0 0.16003892E+03 0.80246052E+02 -.42134942E+02 0.35142575E+03 0.29945420E+03 0.0000E+00 0.0000E+00
       23  2    3    3    0    0 0.19441300E+03 0.78217808E+02 0.32505206E+02 0.22865729E+03 0.85516845E+02 0.0000E+00 0.0000E+00
      -24  1    1    2    0    0 -.16003892E+03 -.80246052E+02 -.11650663E+04 0.11814815E+04 0.80419002E+02 0.0000E+00 0.9000E+01
      -13  1    4    4    0    0 0.19942068E+03 0.78536407E+02 0.41545086E+02 0.21831761E+03 0.10565837E+00 0.0000E+00 0.9000E+01
       13  1    4    4    0    0 -.50076831E+01 -.31859894E+00 -.90398804E+01 0.10339681E+02 0.10565837E+00 0.0000E+00 0.9000E+01
       23  1    3    3    0    0 -.34374075E+02 0.20282438E+01 -.74640148E+02 0.12276846E+03 0.91188000E+02 0.0000E+00 0.9000E+01
#aMCatNLO 1  0  0  2  1 0.21672436D+03 0.00000000D+00  -5  7  0 0.00000000D+00 0.00000000D+00 0.00000000D+00 0.00000000D+00 0.00000000D+00
  <mgrwgt>
 0.2218008939D-02    7    2    0
 0.472353107518235D+03 0.000000000000000D+00 0.000000000000000D+00 0.472353107518235D+03
 0.472353107518235D+03 0.000000000000000D+00 0.000000000000000D+00 -.472353107518235D+03
 0.428315288341038D+03 -.160038920949760D+03 -.802460516858569D+02 -.380703145826723D+03
 0.407337749339483D+03 0.199420991169104D+03 0.785365271740969D+02 0.346391865114526D+03
 0.522515546233078D+01 -.500799510241873D+01 -.318719311409451D+00 -.145624608504551D+01
 0.103828021893618D+03 -.343740751169253D+02 0.202824382316938D+01 0.357675267972423D+02
 0.000000000000000D+00 0.000000000000000D+00 -.000000000000000D+00 -.000000000000000D+00
 0.509062323421627D+03 0.000000000000000D+00 0.000000000000000D+00 0.509062323421627D+03
 0.965100859996211D+03 0.000000000000000D+00 0.000000000000000D+00 -.965100859996211D+03
 0.451679868836026D+03 -.229215851036062D+03 -.852621538609182D+01 -.380703145826723D+03
 0.399126461245146D+03 0.136024371474420D+03 0.144263572025448D+03 0.346391865114526D+03
 0.610585207939901D+01 -.589873218219551D+01 0.604760777516480D+00 -.145624608504551D+01
 0.112334577416819D+03 -.513667425172104D+02 0.196455524074675D+02 0.357675267972423D+02
 0.504916423840448D+03 0.150456954261048D+03 -.155987669824341D+03 -.456038536574584D+03
0.193563597898D-03 0.000000000000D+00 0.000000000000D+00 0.497325046640D-06 0.000000000000D+00  7 -2 1 -24 -13 13 23 21 0 0.25054310D-01 0.21077757D+00 0.65813353D+05 0.65813353D+05 0.65813353D+05 0.11369436D+01  1  2  2  2  7  2        1 0.247832586137D-02 0.100000000000D+01
-.588144082747D-05 0.000000000000D+00 -.743335182396D-06 0.497325046640D-06 0.000000000000D+00  7 -2 1 -24 -13 13 23 21 2 0.25054310D-01 0.21077757D+00 0.65813353D+05 0.65813353D+05 0.65813353D+05 0.11369436D+01  1  2  3  2  7  2        1 -.973411084383D-04 0.100000000000D+01
0.121263688467D-04 0.000000000000D+00 0.000000000000D+00 0.497325046640D-06 0.000000000000D+00  7 -2 1 -24 -13 13 23 21 2 0.25054310D-01 0.21077757D+00 0.65813353D+05 0.65813353D+05 0.65813353D+05 0.11369436D+01  1  2 15  2  7  2        1 0.200698131546D-03 0.100000000000D+01
0.127337754776D-04 0.000000000000D+00 0.000000000000D+00 0.497325046640D-06 0.000000000000D+00  7 -2 1 -24 -13 13 23 21 2 0.25054310D-01 0.43061179D+00 0.14841169D+06 0.14841169D+06 0.14841169D+06 0.11079169D+01  1  2 12  2  7  2        1 0.212999788502D-04 0.100000000000D+01
-.221143366133D-03 0.000000000000D+00 -.535034558208D-04 0.497325046640D-06 0.000000000000D+00  7 -2 1 -24 -13 13 23 21 2 0.25054310D-01 0.43806386D+00 0.65813353D+05 0.65813353D+05 0.65813353D+05 0.11369436D+01  1  2  5  2  7  2        1 -.378696716766D-03 0.100000000000D+01
0.983739791983D-06 0.000000000000D+00 0.000000000000D+00 0.497325046640D-06 0.000000000000D+00  7 -2 21 -24 -13 13 23 -1 2 0.25054310D-01 0.43061179D+00 0.14841169D+06 0.14841169D+06 0.14841169D+06 0.11079169D+01  1  2 12  4  7  2        1 0.452722537496D-06 0.100000000000D+01
-.141986755588D-04 0.000000000000D+00 -.423249577526D-05 0.497325046640D-06 0.000000000000D+00  7 -2 21 -24 -13 13 23 -1 2 0.25054310D-01 0.43806386D+00 0.65813353D+05 0.65813353D+05 0.65813353D+05 0.11369436D+01  1  2  5  4  7  2        1 -.672993024114D-05 0.100000000000D+01
  </mgrwgt>
  </event>
  <event>
  8     66 0.26562228E-05 0.37036330E+03 0.75467711E-02 0.85218864E-01
       -2 -1    0    0    0  501 0.00000000E+00 0.00000000E+00 0.29927716E+03 0.29927733E+03 0.32000000E+00 0.0000E+00 0.9000E+01
        1 -1    0    0  501    0 0.00000000E+00 0.00000000E+00 -.59091005E+03 0.59091014E+03 0.32000000E+00 0.0000E+00 0.9000E+01
       25  2    1    2    0    0 -.29364871E+02 0.34341722E+03 -.45548829E+02 0.45911640E+03 0.29985912E+03 0.0000E+00 0.0000E+00
       23  2    3    3    0    0 -.74765435E+02 0.16456506E+03 -.12527192E+03 0.23838958E+03 0.92005482E+02 0.0000E+00 0.0000E+00
      -24  1    1    2    0    0 0.29364871E+02 -.34341722E+03 -.24608406E+03 0.43107107E+03 0.80419002E+02 0.0000E+00 0.9000E+01
      -11  1    4    4    0    0 -.44358418E+02 0.10794662E+03 -.25099600E+02 0.11937392E+03 0.51099893E-03 0.0000E+00 0.9000E+01
       11  1    4    4    0    0 -.30407016E+02 0.56618442E+02 -.10017232E+03 0.11901567E+03 0.51099893E-03 0.0000E+00 0.9000E+01
       23  1    3    3    0    0 0.45400564E+02 0.17885216E+03 0.79723093E+02 0.22072682E+03 0.91188000E+02 0.0000E+00 0.9000E+01
#aMCatNLO 1  0  0  1  2 0.11475211D+04 0.00000000D+00  -5  7  0 0.00000000D+00 0.00000000D+00 0.00000000D+00 0.00000000D+00 0.00000000D+00
  <mgrwgt>
 0.1235584800D-02    5    2    0
 0.420530614061305D+03 0.000000000000000D+00 0.000000000000000D+00 0.420530614061305D+03
 0.420530614061305D+03 0.000000000000000D+00 0.000000000000000D+00 -.420530614061305D+03
 0.370921695864536D+03 0.293648713819789D+02 -.343417222647466D+03 -.110986503803268D+03
 0.117643392575567D+03 -.443584184546210D+02 0.107946620397155D+03 0.148265192721081D+02
 0.912332045210102D+02 -.304070164560216D+02 0.566184424624766D+02 -.647554085041469D+02
 0.261262935161497D+03 0.454005635286637D+02 0.178852159787835D+03 0.160915393035307D+03
 0.000000000000000D+00 0.000000000000000D+00 -.000000000000000D+00 0.000000000000000D+00
 0.300393876303574D+04 0.000000000000000D+00 0.000000000000000D+00 0.300393876303574D+04
 0.854964817595218D+03 0.000000000000000D+00 0.000000000000000D+00 -.854964817595218D+03
 0.325732573307335D+03 -.259820836665781D+03 -.140746659522947D+03 -.110986503803268D+03
 0.333093897264960D+03 -.231462392511950D+03 0.239075050086950D+03 0.148265192721081D+02
 0.232638463742431D+03 -.164848247706506D+03 0.150839143162490D+03 -.647554085041469D+02
 0.531274917360961D+03 -.283587042201224D+03 0.409417161649033D+03 0.160915393035307D+03
 0.243616372895527D+04 0.939718519085461D+03 -.658584695375525D+03 0.214897394544052D+04
0.702338910988D-04 0.000000000000D+00 0.000000000000D+00 0.491512943274D-05 0.000000000000D+00  7 -2 1 -24 -11 11 23 21 0 0.46042660D-01 0.90909258D-01 0.13716898D+06 0.13716898D+06 0.13716898D+06 0.11106297D+01  1  2  2  1  7  1       -2 0.122074936165D-02 0.100000000000D+01
-.382532532173D-05 0.000000000000D+00 -.269716634828D-06 0.491512943274D-05 0.000000000000D+00  7 -2 1 -24 -11 11 23 21 2 0.46042660D-01 0.90909258D-01 0.13716898D+06 0.13716898D+06 0.13716898D+06 0.11106297D+01  1  2  3  1  7  1       -2 -.820137526858D-04 0.100000000000D+01
0.445741597356D-05 0.000000000000D+00 0.000000000000D+00 0.491512943274D-05 0.000000000000D+00  7 -2 1 -24 -11 11 23 21 2 0.46042660D-01 0.90909258D-01 0.13716898D+06 0.13716898D+06 0.13716898D+06 0.11106297D+01  1  2 15  1  7  1       -2 0.955655743046D-04 0.100000000000D+01
0.480339847132D-04 0.000000000000D+00 -.470417715120D-04 0.491512943274D-05 0.000000000000D+00  7 -2 1 -24 -11 11 23 21 2 0.44517607D+00 0.90909258D-01 0.13716898D+06 0.13716898D+06 0.13716898D+06 0.11106297D+01  1  2  5  1  7  1       -2 0.641207971479D-06 0.100000000000D+01
0.577978334051D-05 0.000000000000D+00 -.127465873165D-04 0.491512943274D-05 0.000000000000D+00  7 21 1 -24 -11 11 23 2 2 0.44517607D+00 0.90909258D-01 0.13716898D+06 0.13716898D+06 0.13716898D+06 0.11106297D+01  1  2  5  3  7  1       -2 0.642409099531D-06 0.100000000000D+01
  </mgrwgt>
  </event>
  <event>
  8     66 0.26562228E-05 0.24063242E+03 0.75467711E-02 0.92793685E-01
       -4 -1    0    0    0  501 0.00000000E+00 0.00000000E+00 0.11727164E+03 0.11728188E+03 0.15500000E+01 0.0000E+00 0.9000E+01
        3 -1    0    0  501    0 0.00000000E+00 0.00000000E+00 -.74317839E+03 0.74317856E+03 0.50000000E+00 0.0000E+00 0.9000E+01
       25  2    1    2    0    0 -.17476271E+03 -.15072267E+02 -.22170385E+03 0.41255825E+03 0.30047051E+03 0.0000E+00 0.0000E+00
       23  2    3    3    0    0 -.15958442E+03 0.31534354E+02 -.22661446E+02 0.18820208E+03 0.91896034E+02 0.0000E+00 0.0000E+00
      -24  1    1    2    0    0 0.17476271E+03 0.15072267E+02 -.40420290E+03 0.44790219E+03 0.80419002E+02 0.0000E+00 0.9000E+01
      -11  1    4    4    0    0 -.13224191E+03 0.60073592E+02 -.61763276E+01 0.14537849E+03 0.51099893E-03 0.0000E+00 0.9000E+01
       11  1    4    4    0    0 -.27342511E+02 -.28539238E+02 -.16485119E+02 0.42823593E+02 0.51099893E-03 0.0000E+00 0.9000E+01
       23  1    3    3    0    0 -.15178296E+02 -.46606621E+02 -.19904241E+03 0.22435616E+03 0.91188000E+02 0.0000E+00 0.9000E+01
#aMCatNLO 1  0  0  1  1 0.50689643D+03 0.00000000D+00  -5  7  0 0.00000000D+00 0.00000000D+00 0.00000000D+00 0.00000000D+00 0.00000000D+00
  <mgrwgt>
 0.1572607104D-03    3    2    0
 0.295225724619767D+03 0.000000000000000D+00 0.000000000000000D+00 0.295225724619767D+03
 0.295225724619767D+03 0.000000000000000D+00 0.000000000000000D+00 -.295225724619767D+03
 0.224250106058513D+03 0.174762712964310D+03 0.150722666813967D+02 -.114244102899550D+03
 0.205311773395269D+03 -.132241906326857D+03 0.600735919006340D+02 0.145107429382183D+03
 0.449314851736986D+02 -.273425105205705D+02 -.285392376320343D+02 0.213714153422058D+02
 0.115958084612053D+03 -.151782961168831D+02 -.466066209499964D+02 -.522347418248390D+02
 0.000000000000000D+00 -.000000000000000D+00 -.000000000000000D+00 -.000000000000000D+00
 0.583726149888078D+03 0.000000000000000D+00 0.000000000000000D+00 0.583726149888078D+03
 0.719132257575941D+03 0.000000000000000D+00 0.000000000000000D+00 -.719132257575941D+03
 0.438712498360167D+03 0.400781968122638D+03 0.111011437444397D+03 -.114244102899550D+03
 0.186239144221210D+03 0.124683974478009D+01 0.116736019158587D+03 0.145107429382183D+03
 0.280372614513560D+02 -.246578044241937D+01 -.179797264376410D+02 0.213714153422058D+02
 0.125199315881552D+03 0.670378284008441D+02 -.117080597453197D+02 -.522347418248390D+02
 0.524670187549735D+03 -.466600855825842D+03 -.198059670420024D+03 -.135406107687863D+03
0.257094313981D-04 0.000000000000D+00 0.000000000000D+00 0.181393410707D-05 0.000000000000D+00  7 -4 3 -24 -11 11 23 21 0 0.18042592D-01 0.11433594D+00 0.57903964D+05 0.57903964D+05 0.57903964D+05 0.11417308D+01  1  2  2  1  7  1       -4 0.155144352519D-03 0.100000000000D+01
-.135569795740D-05 0.000000000000D+00 -.987309860176D-07 0.181393410707D-05 0.000000000000D+00  7 -4 3 -24 -11 11 23 21 2 0.18042592D-01 0.11433594D+00 0.57903964D+05 0.57903964D+05 0.57903964D+05 0.11417308D+01  1  2  3  1  7  1       -4 -.106643382287D-04 0.100000000000D+01
0.162473875755D-05 0.000000000000D+00 0.000000000000D+00 0.181393410707D-05 0.000000000000D+00  7 -4 3 -24 -11 11 23 21 2 0.18042592D-01 0.11433594D+00 0.57903964D+05 0.57903964D+05 0.57903964D+05 0.11417308D+01  1  2 15  1  7  1       -4 0.127806961345D-04 0.100000000000D+01
  </mgrwgt>
  </event>
  <event>
  8     66 0.26562228E-05 0.77314415E+03 0.75467711E-02 0.87547110E-01
       -2 -1    0    0    0  501 0.00000000E+00 0.00000000E+00 0.18323029E+03 0.18323057E+03 0.32000000E+00 0.0000E+00 0.9000E+01
        1 -1    0    0  501    0 0.00000000E+00 0.00000000E+00 -.45400512E+04 0.45400512E+04 0.32000000E+00 0.0000E+00 0.9000E+01
       25  2    1    2    0    0 -.24728074E+02 0.75456036E+03 -.10349056E+04 0.13157076E+04 0.30014032E+03 0.0000E+00 0.0000E+00
       23  2    3    3    0    0 -.84135946E+02 0.49957210E+03 -.80451355E+03 0.95523011E+03 0.92581665E+02 0.0000E+00 0.0000E+00
      -24  1    1    2    0    0 0.24728074E+02 -.75456036E+03 -.33219154E+04 0.34075742E+04 0.80419002E+02 0.0000E+00 0.9000E+01
      -13  1    4    4    0    0 -.22645707E+02 0.38590058E+02 -.11633391E+03 0.12464193E+03 0.10565837E+00 0.0000E+00 0.9000E+01
       13  1    4    4    0    0 -.61490239E+02 0.46098205E+03 -.68817963E+03 0.83058817E+03 0.10565837E+00 0.0000E+00 0.9000E+01
       23  1    3    3    0    0 0.59407872E+02 0.25498826E+03 -.23039201E+03 0.36047751E+03 0.91188000E+02 0.0000E+00 0.9000E+01
#aMCatNLO 1  0  0  1  1 0.38618373D+03 0.00000000D+00  -5  7  0 0.00000000D+00 0.00000000D+00 0.00000000D+00 0.00000000D+00 0.00000000D+00
  <mgrwgt>
 0.3834353344D-03    4    2    0
 0.912072135259723D+03 0.000000000000000D+00 0.000000000000000D+00 0.912072135259723D+03
 0.912072135259723D+03 0.000000000000000D+00 0.000000000000000D+00 -.912072135259723D+03
 0.889152623103560D+03 0.247280743312978D+02 -.754560361490628D+03 -.462765982354546D+03
 0.448823277112438D+02 -.226456564743703D+02 0.385895073692609D+02 -.352810212749823D+01
 0.506992613469162D+03 -.614902898843191D+02 0.460982595717327D+03 0.201879916801917D+03
 0.383116706235480D+03 0.594078720273916D+02 0.254988258404041D+03 0.264414167680127D+03
 0.000000000000000D+00 0.000000000000000D+00 0.000000000000000D+00 -.000000000000000D+00
 0.105375632980676D+04 0.000000000000000D+00 0.000000000000000D+00 0.105375632980676D+04
 0.123923442110376D+04 0.000000000000000D+00 0.000000000000000D+00 -.123923442110376D+04
 0.106167555884660D+04 -.286905946945825D+02 -.951689167559120D+03 -.462765982354546D+03
 0.392457741243490D+02 -.249492992396899D+02 0.300884653886799D+02 -.352810212749823D+01
 0.427438663369789D+03 -.870774100452508D+02 0.366559456016639D+03 0.201879916801917D+03
 0.336215073943228D+03 0.397107266607755D+02 0.182300660231249D+03 0.264414167680127D+03
 0.428415680626557D+03 0.101006577318748D+03 0.372740585922553D+03 -.185478091297005D+03
0.142243726158D-01 0.000000000000D+00 0.000000000000D+00 0.209645524956D-04 0.000000000000D+00  7 -2 1 -24 -13 13 23 21 0 0.28189297D-01 0.69846944D+00 0.59775188D+06 0.59775188D+06 0.59775188D+06 0.10630723D+01  1  2  2  1  7  1       -2 0.424370651511D-03 0.100000000000D+01
-.764004132370D-03 0.000000000000D+00 -.546253362081D-04 0.209645524956D-04 0.000000000000D+00  7 -2 1 -24 -13 13 23 21 2 0.28189297D-01 0.69846944D+00 0.59775188D+06 0.59775188D+06 0.59775188D+06 0.10630723D+01  1  2  3  1  7  1       -2 -.257592687830D-04 0.100000000000D+01
0.903135726905D-03 0.000000000000D+00 0.000000000000D+00 0.209645524956D-04 0.000000000000D+00  7 -2 1 -24 -13 13 23 21 2 0.28189297D-01 0.69846944D+00 0.59775188D+06 0.59775188D+06 0.59775188D+06 0.10630723D+01  1  2 15  1  7  1       -2 0.304502488288D-04 0.100000000000D+01
-.135324802379D-02 0.000000000000D+00 0.000000000000D+00 0.209645524956D-04 0.000000000000D+00  7 -2 1 -24 -13 13 23 21 2 0.28189297D-01 0.69846944D+00 0.59775188D+06 0.59775188D+06 0.59775188D+06 0.10630723D+01  1  2  4  1  7  1       -2 -.456262971599D-04 0.100000000000D+01
  </mgrwgt>
  </event>
  <event>
  8     66 0.26562228E-05 0.30660413E+03 0.75467711E-02 0.89360663E-01
       -2 -1    0    0    0  501 0.00000000E+00 0.00000000E+00 0.66899410E+03 0.66899417E+03 0.32000000E+00 0.0000E+00 0.9000E+01
        1 -1    0    0  501    0 0.00000000E+00 0.00000000E+00 -.11548073E+04 0.11548074E+04 0.32000000E+00 0.0000E+00 0.9000E+01
       25  2    1    2    0    0 0.17239517E+03 0.64381561E+03 -.79912302E+03 0.10829582E+04 0.29997038E+03 0.0000E+00 0.0000E+00
       23  2    3    3    0    0 0.30376991E+02 0.50312866E+02 -.58448761E+02 0.11894146E+03 0.85303380E+02 0.0000E+00 0.0000E+00
      -24  1    1    2    0    0 -.17239517E+03 -.64381561E+03 0.31330977E+03 0.74084335E+03 0.80419002E+02 0.0000E+00 0.9000E+01
      -13  1    4    4    0    0 0.11010099E+02 -.69337203E+01 0.17547303E+02 0.21845315E+02 0.10565837E+00 0.0000E+00 0.9000E+01
       13  1    4    4    0    0 0.19366892E+02 0.57246586E+02 -.75996064E+02 0.97096143E+02 0.10565837E+00 0.0000E+00 0.9000E+01
       23  1    3    3    0    0 0.14201818E+03 0.59350275E+03 -.74067426E+03 0.96401674E+03 0.91188000E+02 0.0000E+00 0.9000E+01
#aMCatNLO 1  0  0  1  2 0.25573052D+03 0.00000000D+00  -5  7  0 0.00000000D+00 0.00000000D+00 0.00000000D+00 0.00000000D+00 0.00000000D+00
  <mgrwgt>
 0.1863302765D-02    7    2    0
 0.878953582517147D+03 0.000000000000000D+00 0.000000000000000D+00 0.878953582517147D+03
 0.878953582517147D+03 0.000000000000000D+00 0.000000000000000D+00 -.878953582517147D+03
 0.855199480326336D+03 -.172395172773559D+03 -.643815614887844D+03 0.529792689291789D+03
 0.275134496342535D+02 0.110100861328969D+02 -.693381878361514D+01 0.242423198394622D+02
 0.797336436108966D+02 0.193669050622385D+02 0.572466845165846D+02 -.520114797293668D+02
 0.795460591462808D+03 0.142018181578423D+03 0.593502749154875D+03 -.502023529401884D+03
 0.000000000000000D+00 -.000000000000000D+00 -.000000000000000D+00 0.000000000000000D+00
 0.180164019592137D+04 0.000000000000000D+00 0.000000000000000D+00 0.180164019592137D+04
 0.906104404165652D+03 0.000000000000000D+00 0.000000000000000D+00 -.906104404165652D+03
 0.775435706437450D+03 -.986034752102567D+02 -.551752100053285D+03 0.529792689291789D+03
 0.280177180970269D+02 0.135230572547185D+02 -.379860219703127D+01 0.242423198394622D+02
 0.888331455988985D+02 0.269951162216411D+02 0.667637434056603D+02 -.520114797293668D+02
 0.884124333899933D+03 0.218025018576847D+03 0.688329901756013D+03 -.502023529401884D+03
 0.931333696053714D+03 -.159939716842950D+03 -.199542942911356D+03 0.895535791755720D+03
0.207022782580D-02 0.000000000000D+00 0.000000000000D+00 0.287083759417D-05 0.000000000000D+00  7 -2 1 -24 -13 13 23 21 0 0.10292218D+00 0.17766268D+00 0.46363164D+06 0.46363164D+06 0.46363164D+06 0.10708361D+01  1  2  2  1  7  1       -2 0.201376779840D-02 0.100000000000D+01
-.105897580676D-03 0.000000000000D+00 -.795021995459D-05 0.287083759417D-05 0.000000000000D+00  7 -2 1 -24 -13 13 23 21 2 0.10292218D+00 0.17766268D+00 0.46363164D+06 0.46363164D+06 0.46363164D+06 0.10708361D+01  1  2  3  1  7  1       -2 -.118119951103D-03 0.100000000000D+01
0.132333009791D-03 0.000000000000D+00 0.000000000000D+00 0.287083759417D-05 0.000000000000D+00  7 -2 1 -24 -13 13 23 21 2 0.10292218D+00 0.17766268D+00 0.46363164D+06 0.46363164D+06 0.46363164D+06 0.10708361D+01  1  2 15  1  7  1       -2 0.147606475483D-03 0.100000000000D+01
0.661015573759D-02 0.000000000000D+00 0.000000000000D+00 0.287083759417D-05 0.000000000000D+00  7 -2 1 -24 -13 13 23 21 2 0.21089422D+00 0.17766268D+00 0.66895591D+06 0.66895591D+06 0.66895591D+06 0.10596883D+01  1  2 12  1  7  1       -2 0.953667327159D-03 0.100000000000D+01
-.739094377580D-02 0.000000000000D+00 -.590971057388D-03 0.287083759417D-05 0.000000000000D+00  7 -2 1 -24 -13 13 23 21 2 0.21295033D+00 0.17766268D+00 0.46363164D+06 0.46363164D+06 0.46363164D+06 0.10708361D+01  1  2  5  1  7  1       -2 -.108316463684D-02 0.100000000000D+01
0.512776338575D-03 0.000000000000D+00 0.000000000000D+00 0.287083759417D-05 0.000000000000D+00  7 21 1 -24 -13 13 23 2 2 0.21089422D+00 0.17766268D+00 0.66895591D+06 0.66895591D+06 0.66895591D+06 0.10596883D+01  1  2 12  3  7  1       -2 0.559935284758D-03 0.100000000000D+01
-.544778233650D-03 0.000000000000D+00 -.464626660579D-04 0.287083759417D-05 0.000000000000D+00  7 21 1 -24 -13 13 23 2 2 0.21295033D+00 0.17766268D+00 0.46363164D+06 0.46363164D+06 0.46363164D+06 0.10708361D+01  1  2  5  3  7  1       -2 -.610389532998D-03 0.100000000000D+01
  </mgrwgt>
  </event>
  <event>
  8     66 0.26562228E-05 0.10785753E+03 0.75467711E-02 0.10399505E+00
       -2 -1    0    0    0  501 0.00000000E+00 0.00000000E+00 0.26579775E+02 0.26581701E+02 0.32000000E+00 0.0000E+00 0.9000E+01
        1 -1    0    0  501    0 0.00000000E+00 0.00000000E+00 -.32828115E+04 0.32828116E+04 0.32000000E+00 0.0000E+00 0.9000E+01
       25  2    1    2    0    0 -.12261289E+03 0.13066009E+03 -.26292494E+04 0.26523696E+04 0.30001020E+03 0.0000E+00 0.0000E+00
       23  2    3    3    0    0 -.10079289E+03 0.11469140E+03 -.75213213E+03 0.77284424E+03 0.90951347E+02 0.0000E+00 0.0000E+00
      -24  1    1    2    0    0 0.12261289E+03 -.13066009E+03 -.62698238E+03 0.65702367E+03 0.80419002E+02 0.0000E+00 0.9000E+01
      -11  1    4    4    0    0 -.96641493E+01 0.41040944E+02 -.38896104E+03 0.39123963E+03 0.51099893E-03 0.0000E+00 0.9000E+01
       11  1    4    4    0    0 -.91128740E+02 0.73650452E+02 -.36317109E+03 0.38160461E+03 0.51099893E-03 0.0000E+00 0.9000E+01
       23  1    3    3    0    0 -.21820003E+02 0.15968698E+02 -.18771173E+04 0.18795254E+04 0.91188000E+02 0.0000E+00 0.9000E+01
#aMCatNLO 1  0  0  2  1 0.20400869D+02 0.00000000D+00  -5  7  0 0.00000000D+00 0.00000000D+00 0.00000000D+00 0.00000000D+00 0.00000000D+00
  <mgrwgt>
 0.2841587308D-02    9    2    0
 0.295397369531052D+03 0.000000000000000D+00 0.000000000000000D+00 0.295397369531052D+03
 0.295397369531052D+03 0.000000000000000D+00 0.000000000000000D+00 -.295397369531052D+03
 0.224696923081963D+03 0.122612892262361D+03 -.130660094157675D+03 0.109158186747020D+03
 0.477636087760500D+02 -.966414933343385D+01 0.410409439897778D+02 -.224411999991215D+02
 0.135936344989937D+03 -.911287399366603D+02 0.736504517148368D+02 0.689191817201867D+02
 0.182397862214154D+03 -.218200029922664D+02 0.159686984530601D+02 -.155636168468085D+03
 0.000000000000000D+00 0.000000000000000D+00 -.000000000000000D+00 -.000000000000000D+00
 0.302613460921793D+03 0.000000000000000D+00 0.000000000000000D+00 0.302613460921793D+03
 0.310353045640557D+03 0.000000000000000D+00 0.000000000000000D+00 -.310353045640557D+03
 0.220234141109648D+03 0.122457303061052D+03 -.122981950501080D+03 0.109158186747020D+03
 0.492157414965595D+02 -.969806231651534D+01 0.427145097239870D+02 -.224411999991215D+02
 0.138623838346270D+03 -.912247516631378D+02 0.783885172258763D+02 0.689191817201867D+02
 0.183073146731537D+03 -.219478055822849D+02 0.222756056008092D+02 -.155636168468085D+03
 0.218196388783361D+02 0.413316500886208D+00 -.203966820495926D+02 -.773958471876341D+01
0.785014516698D-04 0.000000000000D+00 0.000000000000D+00 0.406913246745D-05 0.000000000000D+00  7 -2 1 -24 -11 11 23 21 0 0.40893455D-02 0.50504808D+00 0.50815647D+05 0.50815647D+05 0.50815647D+05 0.11466778D+01  1  2  2  2  7  2        1 0.834684980101D-03 0.100000000000D+01
-.397365521817D-05 0.000000000000D+00 -.301466244319D-06 0.406913246745D-05 0.000000000000D+00  7 -2 1 -24 -11 11 23 21 2 0.40893455D-02 0.50504808D+00 0.50815647D+05 0.50815647D+05 0.50815647D+05 0.11466778D+01  1  2  3  2  7  2        1 -.555543254356D-04 0.100000000000D+01
0.506263071056D-05 0.000000000000D+00 0.000000000000D+00 0.406913246745D-05 0.000000000000D+00  7 -2 1 -24 -11 11 23 21 2 0.40893455D-02 0.50504808D+00 0.50815647D+05 0.50815647D+05 0.50815647D+05 0.11466778D+01  1  2 15  2  7  2        1 0.707789223305D-04 0.100000000000D+01
0.156270204708D-03 0.000000000000D+00 0.000000000000D+00 0.406913246745D-05 0.000000000000D+00  7 -2 1 -24 -11 11 23 21 2 0.40893455D-02 0.53655140D+00 0.55733755D+05 0.55733755D+05 0.55733755D+05 0.11431712D+01  1  2 12  2  7  2        1 0.149334159565D-02 0.100000000000D+01
-.146745333541D-03 0.000000000000D+00 0.000000000000D+00 0.406913246745D-05 0.000000000000D+00  7 -2 1 -24 -11 11 23 21 2 0.40893455D-02 0.50504808D+00 0.50815647D+05 0.50815647D+05 0.50815647D+05 0.11466778D+01  1  2  4  2  7  2        1 -.205159672093D-02 0.100000000000D+01
-.615273661219D-03 0.000000000000D+00 -.101605074715D-03 0.406913246745D-05 0.000000000000D+00  7 -2 1 -24 -11 11 23 21 2 0.40893455D-02 0.53409466D+00 0.50815647D+05 0.50815647D+05 0.50815647D+05 0.11466778D+01  1  2  5  2  7  2        1 -.611673498173D-02 0.100000000000D+01
0.620334890032D-03 0.000000000000D+00 0.101559534550D-03 0.406913246745D-05 0.000000000000D+00  7 -2 1 -24 -11 11 23 21 2 0.40893455D-02 0.50504808D+00 0.50815647D+05 0.50815647D+05 0.50815647D+05 0.11466778D+01  1  2  6  2  7  2        1 0.867269163221D-02 0.100000000000D+01
0.189641766619D-05 0.000000000000D+00 0.000000000000D+00 0.406913246745D-05 0.000000000000D+00  7 -2 21 -24 -11 11 23 -1 2 0.40893455D-02 0.53655140D+00 0.55733755D+05 0.55733755D+05 0.55733755D+05 0.11431712D+01  1  2 12  4  7  2        1 0.264770954520D-05 0.100000000000D+01
-.583215930977D-05 0.000000000000D+00 -.981439153472D-06 0.406913246745D-05 0.000000000000D+00  7 -2 21 -24 -11 11 23 -1 2 0.40893455D-02 0.53409466D+00 0.50815647D+05 0.50815647D+05 0.50815647D+05 0.11466778D+01  1  2  5  4  7  2        1 -.867150347523D-05 0.100000000000D+01
  </mgrwgt>
  </event>
  <event>
  8     66 0.26562228E-05 0.19349713E+03 0.75467711E-02 0.95786255E-01
       -2 -1    0    0    0  501 0.00000000E+00 0.00000000E+00 0.36330185E+03 0.36330199E+03 0.32000000E+00 0.0000E+00 0.9000E+01
        1 -1    0    0  501    0 0.00000000E+00 0.00000000E+00 -.56660158E+03 0.56660167E+03 0.32000000E+00 0.0000E+00 0.9000E+01
       25  2    1    2    0    0 -.14243186E+03 -.36928480E+03 -.39872005E+02 0.49420430E+03 0.29324054E+03 0.0000E+00 0.0000E+00
       23  2    3    3    0    0 -.87724110E+02 -.69204908E+02 0.65375045E+02 0.15889388E+03 0.92133225E+02 0.0000E+00 0.0000E+00
      -24  1    1    2    0    0 0.14243186E+03 0.36928480E+03 -.16342773E+03 0.43569937E+03 0.80419002E+02 0.0000E+00 0.9000E+01
      -13  1    4    4    0    0 -.10597522E+03 -.58082424E+02 0.65628744E+02 0.13751894E+03 0.10565837E+00 0.0000E+00 0.9000E+01
       13  1    4    4    0    0 0.18251112E+02 -.11122484E+02 -.25369869E+00 0.21374945E+02 0.10565837E+00 0.0000E+00 0.9000E+01
       23  1    3    3    0    0 -.54707751E+02 -.30007989E+03 -.10524705E+03 0.33531041E+03 0.91188000E+02 0.0000E+00 0.9000E+01
#aMCatNLO 1  0  0  2  1 0.38860516D+02 0.00000000D+00  -5  7  0 0.00000000D+00 0.00000000D+00 0.00000000D+00 0.00000000D+00 0.00000000D+00
  <mgrwgt>
 0.1507212910D-01    9    2    0
 0.453704211371919D+03 0.000000000000000D+00 0.000000000000000D+00 0.453704211371919D+03
 0.453704211371919D+03 0.000000000000000D+00 0.000000000000000D+00 -.453704211371919D+03
 0.409885576962481D+03 0.142431861343583D+03 0.369284802079407D+03 -.698632240515028D+02
 0.155632048946197D+03 -.105975385257144D+03 -.580824858804713D+02 0.980661879178365D+02
 0.218478274763315D+02 0.182512750720709D+02 -.111224220334403D+02 0.452882454828963D+01
 0.320042969358829D+03 -.547077511585098D+02 -.300079894165496D+03 -.327317884146233D+02
 0.000000000000000D+00 0.000000000000000D+00 -.000000000000000D+00 -.000000000000000D+00
 0.462597718666861D+03 0.000000000000000D+00 0.000000000000000D+00 0.462597718666861D+03
 0.498653103762297D+03 0.000000000000000D+00 0.000000000000000D+00 -.498653103762297D+03
 0.424745366729853D+03 0.139267035070279D+03 0.386865911488683D+03 -.698632240515028D+02
 0.154130681777726D+03 -.107149970546719D+03 -.515574792282126D+02 0.980661879178365D+02
 0.212605843771525D+02 0.180878128430876D+02 -.102143635544395D+02 0.452882454828963D+01
 0.308103525537341D+03 -.570896117228170D+02 -.286848282834424D+03 -.327317884146233D+02
 0.530106640070850D+02 0.688473435616995D+01 -.382457858716077D+02 -.360553850954356D+02
0.734722185903D-03 0.000000000000D+00 0.000000000000D+00 0.380687610710D-07 0.000000000000D+00  7 -2 1 -24 -13 13 23 21 0 0.55892610D-01 0.87169492D-01 0.18682896D+06 0.18682896D+06 0.18682896D+06 0.11001049D+01  1  2  2  2  7  2        1 0.917685814264D-02 0.100000000000D+01
-.407012995502D-04 0.000000000000D+00 -.282152665066D-05 0.380687610710D-07 0.000000000000D+00  7 -2 1 -24 -13 13 23 21 2 0.55892610D-01 0.87169492D-01 0.18682896D+06 0.18682896D+06 0.18682896D+06 0.11001049D+01  1  2  3  2  7  2        1 -.615243935840D-03 0.100000000000D+01
0.480749865991D-04 0.000000000000D+00 0.000000000000D+00 0.380687610710D-07 0.000000000000D+00  7 -2 1 -24 -13 13 23 21 2 0.55892610D-01 0.87169492D-01 0.18682896D+06 0.18682896D+06 0.18682896D+06 0.11001049D+01  1  2 15  2  7  2        1 0.726705149408D-03 0.100000000000D+01
0.299629433758D-02 0.000000000000D+00 0.000000000000D+00 0.380687610710D-07 0.000000000000D+00  7 -2 1 -24 -13 13 23 21 2 0.55892610D-01 0.96604582D-01 0.20424170D+06 0.20424170D+06 0.20424170D+06 0.10971261D+01  1  2 12  2  7  2        1 0.387273120722D-01 0.100000000000D+01
-.303760132915D-02 0.000000000000D+00 0.000000000000D+00 0.380687610710D-07 0.000000000000D+00  7 -2 1 -24 -13 13 23 21 2 0.55892610D-01 0.87169492D-01 0.18682896D+06 0.18682896D+06 0.18682896D+06 0.11001049D+01  1  2  4  2  7  2        1 -.459166124403D-01 0.100000000000D+01
-.623492272836D-02 0.000000000000D+00 -.943438513113D-03 0.380687610710D-07 0.000000000000D+00  7 -2 1 -24 -13 13 23 21 2 0.55892610D-01 0.97018963D-01 0.18682896D+06 0.18682896D+06 0.18682896D+06 0.11001049D+01  1  2  5  2  7  2        1 -.807153890400D-01 0.100000000000D+01
0.630513663374D-02 0.000000000000D+00 0.938058238186D-03 0.380687610710D-07 0.000000000000D+00  7 -2 1 -24 -13 13 23 21 2 0.55892610D-01 0.87169492D-01 0.18682896D+06 0.18682896D+06 0.18682896D+06 0.11001049D+01  1  2  6  2  7  2        1 0.953089243199D-01 0.100000000000D+01
0.498275801438D-04 0.000000000000D+00 0.000000000000D+00 0.380687610710D-07 0.000000000000D+00  7 -2 21 -24 -13 13 23 -1 2 0.55892610D-01 0.96604582D-01 0.20424170D+06 0.20424170D+06 0.20424170D+06 0.10971261D+01  1  2 12  4  7  2        1 0.149409837920D-02 0.100000000000D+01
-.103846853951D-03 0.000000000000D+00 -.162481858212D-04 0.380687610710D-07 0.000000000000D+00  7 -2 21 -24 -13 13 23 -1 2 0.55892610D-01 0.97018963D-01 0.18682896D+06 0.18682896D+06 0.18682896D+06 0.11001049D+01  1  2  5  4  7  2        1 -.311452354407D-02 0.100000000000D+01
  </mgrwgt>
  </event>
  <event>
  8     66 0.26562228E-05 0.29645820E+03 0.75467711E-02 0.94364769E-01
       -2 -1    0    0    0  501 0.00000000E+00 0.00000000E+00 0.88266151E+02 0.88266731E+02 0.32000000E+00 0.0000E+00 0.9000E+01
        1 -1    0    0  501    0 0.00000000E+00 0.00000000E+00 -.11417155E+04 0.11417155E+04 0.32000000E+00 0.0000E+00 0.9000E+01
       25  2    1    2    0    0 0.20566736E+03 0.72917969E+02 -.44816050E+03 0.58155503E+03 0.29957023E+03 0.0000E+00 0.0000E+00
       23  2    3    3    0    0 0.17913118E+03 0.14184114E+03 -.24744371E+03 0.34905330E+03 0.91667490E+02 0.0000E+00 0.0000E+00
      -24  1    1    2    0    0 -.20566736E+03 -.72917969E+02 -.60528885E+03 0.64842725E+03 0.80419002E+02 0.0000E+00 0.9000E+01
      -11  1    4    4    0    0 0.12225048E+03 0.44167636E+02 -.16001523E+03 0.20615730E+03 0.51099893E-03 0.0000E+00 0.9000E+01
       11  1    4    4    0    0 0.56880700E+02 0.97673502E+02 -.87428486E+02 0.14289600E+03 0.51099893E-03 0.0000E+00 0.9000E+01
       23  1    3    3    0    0 0.26536179E+02 -.68923169E+02 -.20071679E+03 0.23250173E+03 0.91188000E+02 0.0000E+00 0.9000E+01
#aMCatNLO 1  0  0  1  2 0.34349201D+03 0.00000000D+00  -5  7  0 0.00000000D+00 0.00000000D+00 0.00000000D+00 0.00000000D+00 0.00000000D+00
  <mgrwgt>
 0.7824168805D-03    5    2    0
 0.317451124807442D+03 0.000000000000000D+00 0.000000000000000D+00 0.317451124807442D+03
 0.317451124807442D+03 0.000000000000000D+00 0.000000000000000D+00 -.317451124807442D+03
 0.251870079119363D+03 -.205667356369924D+03 -.729179692245744D+02 -.967224332261875D+02
 0.133881850051009D+03 0.122250477660071D+03 0.441676359586388D+02 0.320685269195563D+02
 0.131765271656264D+03 0.568807002027547D+02 0.976735021049622D+02 0.677241444807195D+02
 0.117385048788247D+03 0.265361785070983D+02 -.689231688390266D+02 -.307023817408831D+01
 0.000000000000000D+00 -.000000000000000D+00 0.000000000000000D+00 0.000000000000000D+00
 0.914646996997677D+03 0.000000000000000D+00 0.000000000000000D+00 0.914646996997677D+03
 0.414202524398612D+03 0.000000000000000D+00 0.000000000000000D+00 -.414202524398612D+03
 0.228136430789955D+03 -.113846203371124D+03 -.152521565648914D+03 -.967224332261875D+02
 0.186540851242135D+03 0.183544608619431D+03 -.897080877569365D+01 0.320685269195563D+02
 0.138450212617964D+03 0.108570618593395D+03 0.528613507826046D+02 0.677241444807195D+02
 0.168736499743519D+03 0.812687913813536D+02 -.116373159219225D+03 -.307023817408831D+01
 0.606985527002715D+03 -.259537815223056D+03 0.225004182861228D+03 0.500444472599066D+03
0.171064719654D-04 0.000000000000D+00 0.000000000000D+00 0.183973461433D-05 0.000000000000D+00  7 -2 1 -24 -11 11 23 21 0 0.13579456D-01 0.17564859D+00 0.87887466D+05 0.87887466D+05 0.87887466D+05 0.11263527D+01  1  2  2  1  7  1       -2 0.849713046563D-03 0.100000000000D+01
-.944950697185D-06 0.000000000000D+00 -.656933565847D-07 0.183973461433D-05 0.000000000000D+00  7 -2 1 -24 -11 11 23 21 2 0.13579456D-01 0.17564859D+00 0.87887466D+05 0.87887466D+05 0.87887466D+05 0.11263527D+01  1  2  3  1  7  1       -2 -.595483623432D-04 0.100000000000D+01
0.111763751983D-05 0.000000000000D+00 0.000000000000D+00 0.183973461433D-05 0.000000000000D+00  7 -2 1 -24 -11 11 23 21 2 0.13579456D-01 0.17564859D+00 0.87887466D+05 0.87887466D+05 0.87887466D+05 0.11263527D+01  1  2 15  1  7  1       -2 0.704306417231D-04 0.100000000000D+01
-.505185982374D-05 0.000000000000D+00 -.590565231410D-05 0.183973461433D-05 0.000000000000D+00  7 -2 1 -24 -11 11 23 21 2 0.50099778D-01 0.17564859D+00 0.87887466D+05 0.87887466D+05 0.87887466D+05 0.11263527D+01  1  2  5  1  7  1       -2 -.331745164425D-04 0.100000000000D+01
-.634075438634D-06 0.000000000000D+00 -.909595146403D-06 0.183973461433D-05 0.000000000000D+00  7 21 1 -24 -11 11 23 2 2 0.50099778D-01 0.17564859D+00 0.87887466D+05 0.87887466D+05 0.87887466D+05 0.11263527D+01  1  2  5  3  7  1       -2 -.450039289830D-04 0.100000000000D+01
  </mgrwgt>
  </event>
  <event>
  8     66 0.26562228E-05 0.12643086E+03 0.75467711E-02 0.10211698E+00
       -4 -1    0    0    0  501 0.00000000E+00 0.00000000E+00 0.19404175E+03 0.19404794E+03 0.15500000E+01 0.0000E+00 0.9000E+01
        3 -1    0    0  501    0 0.00000000E+00 0.00000000E+00 -.42105698E+03 0.42105728E+03 0.50000000E+00 0.0000E+00 0.9000E+01
       25  2    1    2    0    0 -.16016066E+02 0.17644629E+03 -.49519241E+02 0.35173884E+03 0.29979701E+03 0.0000E+00 0.0000E+00
       23  2    3    3    0    0 0.54227126E+02 0.11029933E+02 0.59322119E+02 0.12270091E+03 0.92055198E+02 0.0000E+00 0.0000E+00
      -24  1    1    2    0    0 0.16016066E+02 -.17644629E+03 -.17749599E+03 0.26336638E+03 0.80419002E+02 0.0000E+00 0.9000E+01
      -11  1    4    4    0    0 -.23881624E+02 0.16478859E+02 0.13785437E+02 0.32123559E+02 0.51099893E-03 0.0000E+00 0.9000E+01
       11  1    4    4    0    0 0.78108750E+02 -.54489260E+01 0.45536682E+02 0.90577354E+02 0.51099893E-03 0.0000E+00 0.9000E+01
       23  1    3    3    0    0 -.70243192E+02 0.16541636E+03 -.10884136E+03 0.22903792E+03 0.91188000E+02 0.0000E+00 0.9000E+01
#aMCatNLO 1  0  0  2  1 0.39370990D+02 0.00000000D+00  -5  7  0 0.00000000D+00 0.00000000D+00 0.00000000D+00 0.00000000D+00 0.00000000D+00
  <mgrwgt>
 0.1511960800D-03    9    2    0
 0.285840213611939D+03 0.000000000000000D+00 0.000000000000000D+00 0.285840213611939D+03
 0.285840213611939D+03 0.000000000000000D+00 0.000000000000000D+00 -.285840213611939D+03
 0.212887716198911D+03 0.160160660345728D+02 -.176446289681570D+03 -.863953484882218D+02
 0.400378806654317D+02 -.238816238440450D+02 0.164788587357320D+02 0.275888953298004D+02
 0.115540291383487D+03 0.781087498459313D+02 -.544892595973902D+01 0.849640590860168D+02
 0.203214538976047D+03 -.702431920364591D+02 0.165416356905577D+03 -.261576059275954D+02
 0.000000000000000D+00 0.000000000000000D+00 0.000000000000000D+00 -.000000000000000D+00
 0.300220249671300D+03 0.000000000000000D+00 0.000000000000000D+00 0.300220249671300D+03
 0.314797158899454D+03 0.000000000000000D+00 0.000000000000000D+00 -.314797158899454D+03
 0.217413767124707D+03 0.254164347543600D+01 -.182567560067576D+03 -.863953484882218D+02
 0.411607455390994D+02 -.264242704374299D+02 0.153237645396091D+02 0.275888953298004D+02
 0.111071603569667D+03 0.710126450267223D+02 -.867260223196384D+01 0.849640590860168D+02
 0.203388425236930D+03 -.829755212659235D+02 0.159632210719338D+03 -.261576059275954D+02
 0.419828671003511D+02 0.358455032011951D+02 0.162841870405928D+02 -.145769092281540D+02
0.121312618350D-04 0.000000000000D+00 0.000000000000D+00 0.212060039708D-05 0.000000000000D+00  7 -4 3 -24 -11 11 23 21 0 0.29853076D-01 0.64778496D-01 0.63354566D+05 0.63354566D+05 0.63354566D+05 0.11383608D+01  1  2  2  2  7  2        3 0.103222880481D-03 0.100000000000D+01
-.660704436825D-06 0.000000000000D+00 -.465872396812D-07 0.212060039708D-05 0.000000000000D+00  7 -4 3 -24 -11 11 23 21 2 0.29853076D-01 0.64778496D-01 0.63354566D+05 0.63354566D+05 0.63354566D+05 0.11383608D+01  1  2  3  2  7  2        3 -.728512586047D-05 0.100000000000D+01
0.797198988326D-06 0.000000000000D+00 0.000000000000D+00 0.212060039708D-05 0.000000000000D+00  7 -4 3 -24 -11 11 23 21 2 0.29853076D-01 0.64778496D-01 0.63354566D+05 0.63354566D+05 0.63354566D+05 0.11383608D+01  1  2 15  2  7  2        3 0.879015584292D-05 0.100000000000D+01
0.219285233743D-04 0.000000000000D+00 0.000000000000D+00 0.212060039708D-05 0.000000000000D+00  7 -4 3 -24 -11 11 23 21 2 0.29853076D-01 0.72843070D-01 0.73622009D+05 0.73622009D+05 0.73622009D+05 0.11328018D+01  1  2 12  2  7  2        3 0.186996825082D-03 0.100000000000D+01
-.207210381192D-04 0.000000000000D+00 0.000000000000D+00 0.212060039708D-05 0.000000000000D+00  7 -4 3 -24 -11 11 23 21 2 0.29853076D-01 0.64778496D-01 0.63354566D+05 0.63354566D+05 0.63354566D+05 0.11383608D+01  1  2  4  2  7  2        3 -.228476399195D-03 0.100000000000D+01
-.573579060456D-04 0.000000000000D+00 -.127289660631D-04 0.212060039708D-05 0.000000000000D+00  7 -4 3 -24 -11 11 23 21 2 0.29853076D-01 0.74265545D-01 0.63354566D+05 0.63354566D+05 0.63354566D+05 0.11383608D+01  1  2  5  2  7  2        3 -.472164287471D-03 0.100000000000D+01
0.586667948845D-04 0.000000000000D+00 0.126109982511D-04 0.212060039708D-05 0.000000000000D+00  7 -4 3 -24 -11 11 23 21 2 0.29853076D-01 0.64778496D-01 0.63354566D+05 0.63354566D+05 0.63354566D+05 0.11383608D+01  1  2  6  2  7  2        3 0.646877727381D-03 0.100000000000D+01
0.408266028247D-06 0.000000000000D+00 0.000000000000D+00 0.212060039708D-05 0.000000000000D+00  7 -4 21 -24 -11 11 23 -3 2 0.29853076D-01 0.72843070D-01 0.73622009D+05 0.73622009D+05 0.73622009D+05 0.11328018D+01  1  2 12  4  7  2        3 0.510348883629D-04 0.100000000000D+01
-.113802436436D-05 0.000000000000D+00 -.269125313200D-06 0.212060039708D-05 0.000000000000D+00  7 -4 21 -24 -11 11 23 -3 2 0.29853076D-01 0.74265545D-01 0.63354566D+05 0.63354566D+05 0.63354566D+05 0.11383608D+01  1  2  5  4  7  2        3 -.137800584596D-03 0.100000000000D+01
  </mgrwgt>
  </event>
  <event>
  8     66 0.26562228E-05 0.29289850E+03 0.75467711E-02 0.95725695E-01
       -2 -1    0    0    0  501 0.00000000E+00 0.00000000E+00 0.88105633E+02 0.88106214E+02 0.32000000E+00 0.0000E+00 0.9000E+01
        1 -1    0    0  501    0 0.00000000E+00 0.00000000E+00 -.14005499E+04 0.14005499E+04 0.32000000E+00 0.0000E+00 0.9000E+01
       25  2    1    2    0    0 -.22639292E+03 -.39464086E+02 -.42663878E+03 0.56999966E+03 0.30011297E+03 0.0000E+00 0.0000E+00
       23  2    3    3    0    0 0.74876271E+01 0.24124556E+02 -.35807306E+02 0.10116268E+03 0.91179304E+02 0.0000E+00 0.0000E+00
      -24  1    1    2    0    0 0.22639292E+03 0.39464086E+02 -.88580545E+03 0.91865646E+03 0.80419002E+02 0.0000E+00 0.9000E+01
      -13  1    4    4    0    0 0.11638357E+02 -.28393483E+02 -.37498038E+02 0.48453640E+02 0.10565837E+00 0.0000E+00 0.9000E+01
       13  1    4    4    0    0 -.41507301E+01 0.52518038E+02 0.16907318E+01 0.52709038E+02 0.10565837E+00 0.0000E+00 0.9000E+01
       23  1    3    3    0    0 -.23388054E+03 -.63588642E+02 -.39083147E+03 0.46883698E+03 0.91188000E+02 0.0000E+00 0.9000E+01
#aMCatNLO 1  0  0  1  2 0.25446894D+03 0.00000000D+00  -5  7  0 0.00000000D+00 0.00000000D+00 0.00000000D+00 0.00000000D+00 0.00000000D+00
  <mgrwgt>
 0.1306431615D-02    3    2    0
 0.351278795486015D+03 0.000000000000000D+00 0.000000000000000D+00 0.351278795486015D+03
 0.351278795486015D+03 0.000000000000000D+00 0.000000000000000D+00 -.351278795486015D+03
 0.291781480130012D+03 0.226392917089789D+03 0.394640864684787D+02 -.160804381666901D+03
 0.326188866235105D+02 0.116383784028361D+02 -.283935913066364D+02 0.110609170244396D+02
 0.114844250128326D+03 -.415075120545322D+01 0.525181468119225D+02 0.102048112708709D+03
 0.263312974090181D+03 -.233880544287172D+03 -.635886419737649D+02 0.476953519337524D+02
 0.000000000000000D+00 -.000000000000000D+00 -.000000000000000D+00 -.000000000000000D+00
 0.423540166884819D+03 0.000000000000000D+00 0.000000000000000D+00 0.423540166884819D+03
 0.697844761302328D+03 0.000000000000000D+00 0.000000000000000D+00 -.697844761302328D+03
 0.391656612997101D+03 0.337465766484964D+03 0.847731905582883D+02 -.160804381666901D+03
 0.347114076861715D+02 0.225809461566664D+02 -.239298727285332D+02 0.110609170244396D+02
 0.127938225797252D+03 0.353064310257599D+02 0.686136155654440D+02 0.102048112708709D+03
 0.192916349951358D+03 -.159733827110401D+03 -.333425346237362D+02 0.476953519337524D+02
 0.374162331755265D+03 -.235619316556989D+03 -.961143987714629D+02 -.274304594417509D+03
0.389569678158D-04 0.000000000000D+00 0.000000000000D+00 0.581773181609D-05 0.000000000000D+00  7 -2 1 -24 -13 13 23 21 0 0.13554760D-01 0.21546926D+00 0.85789534D+05 0.85789534D+05 0.85789534D+05 0.11272258D+01  1  2  2  1  7  1       -2 0.128943668850D-02 0.100000000000D+01
-.207734746042D-05 0.000000000000D+00 -.149605014018D-06 0.581773181609D-05 0.000000000000D+00  7 -2 1 -24 -13 13 23 21 2 0.13554760D-01 0.21546926D+00 0.85789534D+05 0.85789534D+05 0.85789534D+05 0.11272258D+01  1  2  3  1  7  1       -2 -.873666862307D-04 0.100000000000D+01
0.248144161644D-05 0.000000000000D+00 0.000000000000D+00 0.581773181609D-05 0.000000000000D+00  7 -2 1 -24 -13 13 23 21 2 0.13554760D-01 0.21546926D+00 0.85789534D+05 0.85789534D+05 0.85789534D+05 0.11272258D+01  1  2 15  1  7  1       -2 0.104361612698D-03 0.100000000000D+01
  </mgrwgt>
  </event>
  <event>
  8     66 0.26562228E-05 0.85832003E+02 0.75467711E-02 0.10739028E+00
       -2 -1    0    0    0  501 0.00000000E+00 0.00000000E+00 0.35286618E+03 0.35286633E+03 0.32000000E+00 0.0000E+00 0.9000E+01
        1 -1    0    0  501    0 0.00000000E+00 0.00000000E+00 -.33080602E+03 0.33080617E+03 0.32000000E+00 0.0000E+00 0.9000E+01
       25  2    1    2    0    0 -.87965642E+02 0.23630187E+02 0.26626695E+03 0.41090793E+03 0.29941760E+03 0.0000E+00 0.0000E+00
       23  2    3    3    0    0 -.10099340E+03 -.21159088E+01 0.28216647E+03 0.31395108E+03 0.93505186E+02 0.0000E+00 0.0000E+00
      -24  1    1    2    0    0 0.87965642E+02 -.23630187E+02 -.24420678E+03 0.27276457E+03 0.80419002E+02 0.0000E+00 0.9000E+01
      -11  1    4    4    0    0 -.51398360E+02 0.17094487E+02 0.24011744E+03 0.24615117E+03 0.51099893E-03 0.0000E+00 0.9000E+01
       11  1    4    4    0    0 -.49595039E+02 -.19210396E+02 0.42049035E+02 0.67799916E+02 0.51099893E-03 0.0000E+00 0.9000E+01
       23  1    3    3    0    0 0.13027757E+02 0.25746096E+02 -.15899523E+02 0.96956847E+02 0.91188000E+02 0.0000E+00 0.9000E+01
#aMCatNLO 1  0  0  1  2 0.42439997D+02 0.00000000D+00  -5  7  0 0.00000000D+00 0.00000000D+00 0.00000000D+00 0.00000000D+00 0.00000000D+00
  <mgrwgt>
 0.9100815504D-03    9    2    0
 0.341658247416292D+03 0.000000000000000D+00 0.000000000000000D+00 0.341658247416292D+03
 0.341658247416292D+03 0.000000000000000D+00 0.000000000000000D+00 -.341658247416292D+03
 0.280790639131906D+03 0.879656418245917D+02 -.236301873507387D+02 -.253139935952213D+03
 0.238527466449371D+03 -.513983603304220D+02 0.170944870639026D+02 0.232295801335543D+03
 0.664777293123778D+02 -.495950388253196D+02 -.192103958374784D+02 0.398820926007176D+02
 0.975206599389285D+02 0.130277573311499D+02 0.257460961243145D+02 -.190379579840476D+02
 0.000000000000000D+00 0.000000000000000D+00 -.000000000000000D+00 0.000000000000000D+00
 0.385897882431351D+03 0.000000000000000D+00 0.000000000000000D+00 0.385897882431351D+03
 0.352648734844817D+03 0.000000000000000D+00 0.000000000000000D+00 -.352648734844817D+03
 0.279546899198125D+03 0.869484937088584D+02 -.627576009632762D+01 -.253139935952213D+03
 0.240233765080675D+03 -.522674277250289D+02 0.319223834593191D+02 0.232295801335543D+03
 0.655949611262504D+02 -.498347826922393D+02 -.151199222537480D+02 0.398820926007176D+02
 0.992575504361567D+02 0.126705573004382D+02 0.318405890033481D+02 -.190379579840476D+02
 0.539134414349614D+02 0.248315940797153D+01 -.423672901125916D+02 0.332491475865338D+02
0.266737394572D-04 0.000000000000D+00 0.000000000000D+00 0.787265512920D-06 0.000000000000D+00  7 -2 1 -24 -11 11 23 21 0 0.54287128D-01 0.50893256D-01 0.26325356D+05 0.26325356D+05 0.26325356D+05 0.11726379D+01  1  2  2  1  7  1       -2 0.757784274182D-03 0.100000000000D+01
-.482755586362D-06 0.000000000000D+00 -.102434182873D-06 0.787265512920D-06 0.000000000000D+00  7 -2 1 -24 -11 11 23 21 2 0.54287128D-01 0.50893256D-01 0.26325356D+05 0.26325356D+05 0.26325356D+05 0.11726379D+01  1  2  3  1  7  1       -2 -.188589208487D-04 0.100000000000D+01
0.165618155119D-05 0.000000000000D+00 0.000000000000D+00 0.787265512920D-06 0.000000000000D+00  7 -2 1 -24 -11 11 23 21 2 0.54287128D-01 0.50893256D-01 0.26325356D+05 0.26325356D+05 0.26325356D+05 0.11726379D+01  1  2 15  1  7  1       -2 0.646989857131D-04 0.100000000000D+01
0.612351293142D-04 0.000000000000D+00 0.000000000000D+00 0.787265512920D-06 0.000000000000D+00  7 -2 1 -24 -11 11 23 21 2 0.62112082D-01 0.50893256D-01 0.34555150D+05 0.34555150D+05 0.34555150D+05 0.11616824D+01  1  2 12  1  7  1       -2 0.178478093397D-02 0.100000000000D+01
-.645265356149D-04 0.000000000000D+00 0.000000000000D+00 0.787265512920D-06 0.000000000000D+00  7 -2 1 -24 -11 11 23 21 2 0.54287128D-01 0.50893256D-01 0.26325356D+05 0.26325356D+05 0.26325356D+05 0.11726379D+01  1  2  4  1  7  1       -2 -.252073898714D-02 0.100000000000D+01
-.985008417788D-04 0.000000000000D+00 -.241526141102D-04 0.787265512920D-06 0.000000000000D+00  7 -2 1 -24 -11 11 23 21 2 0.62832229D-01 0.50893256D-01 0.26325356D+05 0.26325356D+05 0.26325356D+05 0.11726379D+01  1  2  5  1  7  1       -2 -.286943403267D-02 0.100000000000D+01
0.101204038803D-03 0.000000000000D+00 0.238968347602D-04 0.787265512920D-06 0.000000000000D+00  7 -2 1 -24 -11 11 23 21 2 0.54287128D-01 0.50893256D-01 0.26325356D+05 0.26325356D+05 0.26325356D+05 0.11726379D+01  1  2  6  1  7  1       -2 0.395355126130D-02 0.100000000000D+01
0.127889127763D-05 0.000000000000D+00 0.000000000000D+00 0.787265512920D-06 0.000000000000D+00  7 21 1 -24 -11 11 23 2 2 0.62112082D-01 0.50893256D-01 0.34555150D+05 0.34555150D+05 0.34555150D+05 0.11616824D+01  1  2 12  3  7  1       -2 0.399779270163D-03 0.100000000000D+01
-.204033876651D-05 0.000000000000D+00 -.539535433590D-06 0.787265512920D-06 0.000000000000D+00  7 21 1 -24 -11 11 23 2 2 0.62832229D-01 0.50893256D-01 0.26325356D+05 0.26325356D+05 0.26325356D+05 0.11726379D+01  1  2  5  3  7  1       -2 -.641481234262D-03 0.100000000000D+01
  </mgrwgt>
  </event>
  <event>
  8     66 0.26562228E-05 0.31512138E+03 0.75467711E-02 0.97449084E-01
       -2 -1    0    0    0  501 0.00000000E+00 0.00000000E+00 0.14214856E+03 0.14214892E+03 0.32000000E+00 0.0000E+00 0.9000E+01
        1 -1    0    0  501    0 0.00000000E+00 0.00000000E+00 -.13716997E+04 0.13716997E+04 0.32000000E+00 0.0000E+00 0.9000E+01
       25  2    1    2    0    0 0.13356834E+03 0.20699959E+03 -.17202976E+03 0.42503829E+03 0.30062265E+03 0.0000E+00 0.0000E+00
       23  2    3    3    0    0 0.91150888E+01 0.19683924E+03 -.16042221E+03 0.26998400E+03 0.91254082E+02 0.0000E+00 0.0000E+00
      -24  1    1    2    0    0 -.13356834E+03 -.20699959E+03 -.10575214E+04 0.10888104E+04 0.80419002E+02 0.0000E+00 0.9000E+01
      -13  1    4    4    0    0 -.27723382E+02 0.16639064E+03 -.11587966E+03 0.20465224E+03 0.10565837E+00 0.0000E+00 0.9000E+01
       13  1    4    4    0    0 0.36838471E+02 0.30448593E+02 -.44542542E+02 0.65331761E+02 0.10565837E+00 0.0000E+00 0.9000E+01
       23  1    3    3    0    0 0.12445325E+03 0.10160356E+02 -.11607550E+02 0.15505429E+03 0.91188000E+02 0.0000E+00 0.9000E+01
#aMCatNLO 1  0  0  2  1 0.14307349D+03 0.00000000D+00  -5  7  0 0.00000000D+00 0.00000000D+00 0.00000000D+00 0.00000000D+00 0.00000000D+00
  <mgrwgt>
 0.1190476922D-02    4    2    0
 0.441571559765152D+03 0.000000000000000D+00 0.000000000000000D+00 0.441571559765152D+03
 0.441571559765152D+03 0.000000000000000D+00 0.000000000000000D+00 -.441571559765152D+03
 0.394066937337185D+03 -.133568342532919D+03 -.206999593506268D+03 -.296870681120900D+03
 0.189474063595695D+03 -.277234688513543D+02 0.166390826605926D+03 0.862897611058804D+02
 0.499747999143524D+02 0.368385576766524D+02 0.304484110989398D+02 0.146046416023631D+02
 0.249627318683071D+03 0.124453253707621D+03 0.101603558014015D+02 0.195976278412657D+03
 0.000000000000000D+00 -.000000000000000D+00 -.000000000000000D+00 0.000000000000000D+00
 0.581995224562136D+03 0.000000000000000D+00 0.000000000000000D+00 0.581995224562136D+03
 0.485329994685862D+03 0.000000000000000D+00 0.000000000000000D+00 -.485329994685862D+03
 0.373291184018975D+03 -.723635387096072D+02 -.198772254271450D+03 -.296870681120900D+03
 0.191084312508338D+03 0.263002595704268D+01 0.170471037359839D+03 0.862897611058804D+02
 0.571983573082648D+02 0.453867333984947D+02 0.315974833466911D+02 0.146046416023631D+02
 0.273083506502557D+03 0.166144887146343D+03 0.157646742556239D+02 0.195976278412657D+03
 0.172667858909864D+03 -.141798107792274D+03 -.190609406907041D+02 0.966652298762737D+02
0.973420442173D-04 0.000000000000D+00 0.000000000000D+00 0.640304409479D-05 0.000000000000D+00  7 -2 1 -24 -13 13 23 21 0 0.21869040D-01 0.21103075D+00 0.99301486D+05 0.99301486D+05 0.99301486D+05 0.11219719D+01  1  2  2  2  7  2        1 0.154434089799D-02 0.100000000000D+01
-.465945693738D-05 0.000000000000D+00 -.373819080543D-06 0.640304409479D-05 0.000000000000D+00  7 -2 1 -24 -13 13 23 21 2 0.21869040D-01 0.21103075D+00 0.99301486D+05 0.99301486D+05 0.99301486D+05 0.11219719D+01  1  2  3  2  7  2        1 -.930554917259D-04 0.100000000000D+01
0.606543202524D-05 0.000000000000D+00 0.000000000000D+00 0.640304409479D-05 0.000000000000D+00  7 -2 1 -24 -13 13 23 21 2 0.21869040D-01 0.21103075D+00 0.99301486D+05 0.99301486D+05 0.99301486D+05 0.11219719D+01  1  2 15  2  7  2        1 0.121134665955D-03 0.100000000000D+01
-.191245849973D-04 0.000000000000D+00 0.000000000000D+00 0.640304409479D-05 0.000000000000D+00  7 -2 1 -24 -13 13 23 21 2 0.21869040D-01 0.21103075D+00 0.99301486D+05 0.99301486D+05 0.99301486D+05 0.11219719D+01  1  2  4  2  7  2        1 -.381943150220D-03 0.100000000000D+01
  </mgrwgt>
  </event>
  <event>
  8     66 0.26562228E-05 0.57764208E+03 0.75467711E-02 0.92784049E-01
       -2 -1    0    0    0  501 0.00000000E+00 0.00000000E+00 0.23440362E+03 0.23440384E+03 0.32000000E+00 0.0000E+00 0.9000E+01
        1 -1    0    0  501    0 0.00000000E+00 0.00000000E+00 -.20898740E+04 0.20898740E+04 0.32000000E+00 0.0000E+00 0.9000E+01
       25  2    1    2    0    0 -.98376782E+00 0.55256083E+03 -.15819335E+04 0.17024949E+04 0.30108241E+03 0.0000E+00 0.0000E+00
       23  2    3    3    0    0 -.68051466E+02 0.40586485E+03 -.12857578E+04 0.13531339E+04 0.91874196E+02 0.0000E+00 0.0000E+00
      -24  1    1    2    0    0 0.98376782E+00 -.55256083E+03 -.27353681E+03 0.62178296E+03 0.80419002E+02 0.0000E+00 0.9000E+01
      -13  1    4    4    0    0 -.18099498E+02 0.87830415E+02 -.41977435E+03 0.42924619E+03 0.10565837E+00 0.0000E+00 0.9000E+01
       13  1    4    4    0    0 -.49951968E+02 0.31803443E+03 -.86598348E+03 0.92388771E+03 0.10565837E+00 0.0000E+00 0.9000E+01
       23  1    3    3    0    0 0.67067698E+02 0.14669599E+03 -.29617572E+03 0.34936098E+03 0.91188000E+02 0.0000E+00 0.9000E+01
#aMCatNLO 1  0  0  1  2 0.24790380D+02 0.00000000D+00  -5  7  0 0.00000000D+00 0.00000000D+00 0.00000000D+00 0.00000000D+00 0.00000000D+00
  <mgrwgt>
 0.6854050324D-03    4    2    0
 0.699910209627353D+03 0.000000000000000D+00 0.000000000000000D+00 0.699910209627353D+03
 0.699910209627353D+03 0.000000000000000D+00 0.000000000000000D+00 -.699910209627353D+03
 0.669840851842184D+03 0.983767820906290D+00 -.552560833474088D+03 0.369993389607960D+03
 0.156311559393889D+03 -.180994554396447D+02 0.878301109275970D+02 -.128029625194264D+03
 0.386167727084556D+03 -.499520101020883D+02 0.318034735918985D+03 -.213270290658016D+03
 0.187500280934076D+03 0.670676977208268D+02 0.146695986627506D+03 -.286934737556801D+02
 0.000000000000000D+00 0.000000000000000D+00 0.000000000000000D+00 -.000000000000000D+00
 0.703316859284059D+03 0.000000000000000D+00 0.000000000000000D+00 0.703316859284059D+03
 0.746621521266257D+03 0.000000000000000D+00 0.000000000000000D+00 -.746621521266257D+03
 0.678313126998500D+03 -.518783579173898D+01 -.562778340299556D+03 0.369993389607960D+03
 0.155170381350540D+03 -.195253630888772D+02 0.854694244589022D+02 -.128029625194264D+03
 0.381864581404740D+03 -.534679222635292D+02 0.312213905748742D+03 -.213270290658016D+03
 0.184691827206335D+03 0.653638699717349D+02 0.143875184653105D+03 -.286934737556801D+02
 0.498984635902004D+02 0.128172511724105D+02 0.212198254388077D+02 -.433046619821980D+02
0.401984798952D-03 0.000000000000D+00 0.000000000000D+00 0.403171207246D-05 0.000000000000D+00  7 -2 1 -24 -13 13 23 21 0 0.36062114D-01 0.32151909D+00 0.33367037D+06 0.33367037D+06 0.33367037D+06 0.10811505D+01  1  2  2  1  7  1       -2 0.842600144683D-03 0.100000000000D+01
-.213315436157D-04 0.000000000000D+00 -.154372747301D-05 0.403171207246D-05 0.000000000000D+00  7 -2 1 -24 -13 13 23 21 2 0.36062114D-01 0.32151909D+00 0.33367037D+06 0.33367037D+06 0.33367037D+06 0.10811505D+01  1  2  3  1  7  1       -2 -.522644638268D-04 0.100000000000D+01
0.257703150918D-04 0.000000000000D+00 0.000000000000D+00 0.403171207246D-05 0.000000000000D+00  7 -2 1 -24 -13 13 23 21 2 0.36062114D-01 0.32151909D+00 0.33367037D+06 0.33367037D+06 0.33367037D+06 0.10811505D+01  1  2 15  1  7  1       -2 0.631399079776D-04 0.100000000000D+01
-.685973631365D-04 0.000000000000D+00 0.000000000000D+00 0.403171207246D-05 0.000000000000D+00  7 -2 1 -24 -13 13 23 21 2 0.36062114D-01 0.32151909D+00 0.33367037D+06 0.33367037D+06 0.33367037D+06 0.10811505D+01  1  2  4  1  7  1       -2 -.168070556395D-03 0.100000000000D+01
  </mgrwgt>
  </event>
  <event>
  8     66 0.26562228E-05 0.27115186E+03 0.75467711E-02 0.89943423E-01
       -2 -1    0    0    0  501 0.00000000E+00 0.00000000E+00 0.33128733E+03 0.33128749E+03 0.32000000E+00 0.0000E+00 0.9000E+01
        1 -1    0    0  501    0 0.00000000E+00 0.00000000E+00 -.80653340E+03 0.80653347E+03 0.32000000E+00 0.0000E+00 0.9000E+01
       25  2    1    2    0    0 -.19878650E+03 0.12262522E+03 0.19227609E+03 0.42605830E+03 0.30000427E+03 0.0000E+00 0.0000E+00
       23  2    3    3    0    0 -.97187507E+02 0.39196821E+02 -.40238514E+02 0.14381559E+03 0.89899856E+02 0.0000E+00 0.0000E+00
      -24  1    1    2    0    0 0.19878650E+03 -.12262522E+03 -.66752216E+03 0.71176265E+03 0.80419002E+02 0.0000E+00 0.9000E+01
      -11  1    4    4    0    0 -.11056218E+03 0.20734294E+02 -.22001932E+02 0.11462108E+03 0.51099893E-03 0.0000E+00 0.9000E+01
       11  1    4    4    0    0 0.13374672E+02 0.18462527E+02 -.18236582E+02 0.29194515E+02 0.51099893E-03 0.0000E+00 0.9000E+01
       23  1    3    3    0    0 -.10159899E+03 0.83428397E+02 0.23251461E+03 0.28224271E+03 0.91188000E+02 0.0000E+00 0.9000E+01
#aMCatNLO 1  0  0  1  2 0.73519399D+03 0.00000000D+00  -5  7  0 0.00000000D+00 0.00000000D+00 0.00000000D+00 0.00000000D+00 0.00000000D+00
  <mgrwgt>
 0.1455797834D-02    3    2    0
 0.516908525805788D+03 0.000000000000000D+00 0.000000000000000D+00 0.516908525805788D+03
 0.516908525805788D+03 0.000000000000000D+00 0.000000000000000D+00 -.516908525805788D+03
 0.476507109173223D+03 0.198786501763064D+03 -.122625218341586D+03 -.407478578187532D+03
 0.116037872653280D+03 -.110562178429711D+03 0.207342941338913D+02 0.284759835219934D+02
 0.237481733155972D+02 0.133746716509393D+02 0.184625272790412D+02 -.665048723988400D+01
 0.417523896469476D+03 -.101598994984291D+03 0.834283969286533D+02 0.385653081905423D+03
 0.000000000000000D+00 0.000000000000000D+00 -.000000000000000D+00 -.000000000000000D+00
 0.742493986855638D+03 0.000000000000000D+00 0.000000000000000D+00 0.742493986855638D+03
 0.188309418823513D+04 0.000000000000000D+00 0.000000000000000D+00 -.188309418823513D+04
 0.420488814172064D+03 -.647698968594295D+02 -.104735699999550D+02 -.407478578187532D+03
 0.220509225402131D+03 -.209446843144282D+03 0.628128708689358D+02 0.284759835219934D+02
 0.255299691879802D+02 -.110429021614765D+01 0.246237870631200D+02 -.665048723988400D+01
 0.602049105728008D+03 -.401171135278684D+03 0.210905891335344D+03 0.385653081905423D+03
 0.135701106060059D+04 0.676492165498542D+03 -.287868979267445D+03 -.114060020137950D+04
0.153376396049D-03 0.000000000000D+00 0.000000000000D+00 0.874518954869D-05 0.000000000000D+00  7 -2 1 -24 -11 11 23 21 0 0.50967299D-01 0.12408208D+00 0.73523333D+05 0.73523333D+05 0.73523333D+05 0.11328510D+01  1  2  2  1  7  1       -2 0.139558965679D-02 0.100000000000D+01
-.420831686889D-05 0.000000000000D+00 -.589005745760D-06 0.874518954869D-05 0.000000000000D+00  7 -2 1 -24 -11 11 23 21 2 0.50967299D-01 0.12408208D+00 0.73523333D+05 0.73523333D+05 0.73523333D+05 0.11328510D+01  1  2  3  1  7  1       -2 -.491420498440D-04 0.100000000000D+01
0.936428997362D-05 0.000000000000D+00 0.000000000000D+00 0.874518954869D-05 0.000000000000D+00  7 -2 1 -24 -11 11 23 21 2 0.50967299D-01 0.12408208D+00 0.73523333D+05 0.73523333D+05 0.73523333D+05 0.11328510D+01  1  2 15  1  7  1       -2 0.109350226937D-03 0.100000000000D+01
  </mgrwgt>
  </event>
  <event>
  8     66 0.26562228E-05 0.29314563E+03 0.75467711E-02 0.10087604E+00
       -2 -1    0    0    0  501 0.00000000E+00 0.00000000E+00 0.32628322E+02 0.32629891E+02 0.32000000E+00 0.0000E+00 0.9000E+01
        1 -1    0    0  501    0 0.00000000E+00 0.00000000E+00 -.28610793E+04 0.28610794E+04 0.32000000E+00 0.0000E+00 0.9000E+01
       25  2    1    2    0    0 0.12488973E+03 -.18027214E+03 -.15457537E+04 0.15899167E+04 0.30064097E+03 0.0000E+00 0.0000E+00
       23  2    3    3    0    0 0.17605633E+03 -.15706644E+03 -.84374081E+03 0.87978014E+03 0.80304706E+02 0.0000E+00 0.0000E+00
      -24  1    1    2    0    0 -.12488973E+03 0.18027214E+03 -.12826973E+04 0.13037925E+04 0.80419002E+02 0.0000E+00 0.9000E+01
      -11  1    4    4    0    0 0.81923717E+02 -.29526793E+02 -.37437725E+03 0.38437176E+03 0.51099893E-03 0.0000E+00 0.9000E+01
       11  1    4    4    0    0 0.94132609E+02 -.12753965E+03 -.46936356E+03 0.49540838E+03 0.51099893E-03 0.0000E+00 0.9000E+01
       23  1    3    3    0    0 -.51166598E+02 -.23205705E+02 -.70201293E+03 0.71013655E+03 0.91188000E+02 0.0000E+00 0.9000E+01
#aMCatNLO 1  0  0  1  2 0.10347101D+02 0.00000000D+00  -5  7  0 0.00000000D+00 0.00000000D+00 0.00000000D+00 0.00000000D+00 0.00000000D+00
  <mgrwgt>
 0.1933062899D-02    4    2    0
 0.305539709512938D+03 0.000000000000000D+00 0.000000000000000D+00 0.305539709512938D+03
 0.305539709512938D+03 0.000000000000000D+00 0.000000000000000D+00 -.305539709512938D+03
 0.236876148213712D+03 -.124889728875522D+03 0.180272144891461D+03 -.393395861165896D+02
 0.873084748358360D+02 0.819237173089643D+02 -.295267929466504D+02 0.628035179956811D+01
 0.173456940812232D+03 0.941326092570602D+02 -.127539647314095D+03 0.704272713754557D+02
 0.113437855164095D+03 -.511665976905027D+02 -.232057046307159D+02 -.373680370584342D+02
 0.000000000000000D+00 0.000000000000000D+00 0.000000000000000D+00 -.000000000000000D+00
 0.305906899391674D+03 0.000000000000000D+00 0.000000000000000D+00 0.305906899391674D+03
 0.388348659644536D+03 0.000000000000000D+00 0.000000000000000D+00 -.388348659644536D+03
 0.238813095302531D+03 -.128907487692671D+03 0.179999264205565D+03 -.393395861165896D+02
 0.859708839872211D+02 0.804601679829484D+02 -.296261952159507D+02 0.628035179956811D+01
 0.172037905842770D+03 0.912144962550364D+02 -.127737841559632D+03 0.704272713754557D+02
 0.114345128750784D+03 -.530904946557895D+02 -.233363730823014D+02 -.373680370584342D+02
 0.830885451529048D+02 0.103233181104753D+02 0.701145652318867D+00 -.824417602528625D+02
0.122457905038D-03 0.000000000000D+00 0.000000000000D+00 0.137647589288D-07 0.000000000000D+00  7 -2 1 -24 -11 11 23 21 0 0.50198639D-02 0.44016617D+00 0.85934359D+05 0.85934359D+05 0.85934359D+05 0.11271648D+01  1  2  2  1  7  1       -2 0.193714036082D-02 0.100000000000D+01
-.678903253325D-05 0.000000000000D+00 -.470270599253D-06 0.137647589288D-07 0.000000000000D+00  7 -2 1 -24 -11 11 23 21 2 0.50198639D-02 0.44016617D+00 0.85934359D+05 0.85934359D+05 0.85934359D+05 0.11271648D+01  1  2  3  1  7  1       -2 -.136444796268D-03 0.100000000000D+01
0.805752161014D-05 0.000000000000D+00 0.000000000000D+00 0.137647589288D-07 0.000000000000D+00  7 -2 1 -24 -11 11 23 21 2 0.50198639D-02 0.44016617D+00 0.85934359D+05 0.85934359D+05 0.85934359D+05 0.11271648D+01  1  2 15  1  7  1       -2 0.161938669337D-03 0.100000000000D+01
-.147136981102D-05 0.000000000000D+00 0.000000000000D+00 0.137647589288D-07 0.000000000000D+00  7 -2 1 -24 -11 11 23 21 2 0.50198639D-02 0.44016617D+00 0.85934359D+05 0.85934359D+05 0.85934359D+05 0.11271648D+01  1  2  4  1  7  1       -2 -.295713348135D-04 0.100000000000D+01
  </mgrwgt>
  </event>
  <event>
  9     66 0.26562228E-05 0.22618547E+03 0.75467711E-02 0.10325345E+00
       21 -1    0    0  502  501 0.00000000E+00 0.00000000E+00 0.22762528E+03 0.22762652E+03 0.75000000E+00 0.0000E+00 0.9000E+01
        1 -1    0    0  501    0 0.00000000E+00 0.00000000E+00 -.96953264E+03 0.96953269E+03 0.32000000E+00 0.0000E+00 0.9000E+01
       25  2    1    2    0    0 0.87376178E+02 -.20777131E+03 -.81536250E+03 0.89739676E+03 0.29950197E+03 0.0000E+00 0.0000E+00
       23  2    3    3    0    0 0.70383089E+01 -.70402327E+02 -.61340454E+03 0.62458423E+03 0.93990960E+02 0.0000E+00 0.0000E+00
      -24  1    1    2    0    0 -.74917434E+02 0.17009363E+03 -.14740817E+02 0.20304918E+03 0.80419002E+02 0.0000E+00 0.9000E+01
      -13  1    4    4    0    0 -.55289408E+01 -.33053461E+02 -.52418617E+02 0.62215939E+02 0.10565837E+00 0.0000E+00 0.9000E+01
       13  1    4    4    0    0 0.12567250E+02 -.37348865E+02 -.56098592E+03 0.56236829E+03 0.10565837E+00 0.0000E+00 0.9000E+01
       23  1    3    3    0    0 0.80337870E+02 -.13736898E+03 -.20195795E+03 0.27281253E+03 0.91188000E+02 0.0000E+00 0.9000E+01
        2  1    1    2  502    0 -.12458744E+02 0.37677680E+02 0.88195957E+02 0.96713272E+02 0.32000000E+00 0.0000E+00 0.9000E+01
#aMCatNLO 2  0  0  1  2 0.39684101D+02 0.00000000D+00  -5  7  0 0.00000000D+00 0.00000000D+00 0.00000000D+00 0.00000000D+00 0.00000000D+00
  <mgrwgt>
 0.2566851954D-03    2    2    0
 0.360671225229219D+03 0.000000000000000D+00 0.000000000000000D+00 0.360671225229219D+03
 0.360671225229219D+03 0.000000000000000D+00 0.000000000000000D+00 -.360671225229219D+03
 0.302977260248749D+03 -.800547383483974D+02 0.185629837849242D+03 0.210857312990328D+03
 0.329604247959558D+02 -.611143655827171D+01 -.312919425849245D+02 -.835788700485179D+01
 0.210185878365891D+03 0.892382574822878D+01 -.263303769176133D+02 -.208339098706490D+03
 0.175218887047843D+03 0.772423491584403D+02 -.128007518346704D+03 0.583967272101410D+01
 0.000000000000000D+00 -.000000000000000D+00 0.000000000000000D+00 0.000000000000000D+00
 0.608281748067006D+03 0.000000000000000D+00 0.000000000000000D+00 0.608281748067006D+03
 0.362810145564744D+03 0.000000000000000D+00 0.000000000000000D+00 -.362810145564744D+03
 0.292356778300793D+03 -.749174344526785D+02 0.170093625505415D+03 0.210857312990328D+03
 0.345391745752310D+02 -.552896363995192D+01 -.330534546790575D+02 -.835788700485179D+01
 0.212033144842537D+03 0.125672717673073D+02 -.373488706965871D+02 -.208339098706490D+03
 0.183504123213939D+03 0.803378703260050D+02 -.137368980146575D+03 0.583967272101410D+01
 0.248658672699248D+03 -.124587440006819D+02 0.376776800168044D+02 0.245471602502262D+03
-.347220122620D-04 0.000000000000D+00 0.000000000000D+00 0.825083446623D-06 0.000000000000D+00  7 21 1 -24 -13 13 23 2 2 0.35043681D-01 0.14827957D+00 0.62132518D+05 0.62132518D+05 0.62132518D+05 0.11390878D+01  1  2 13  3  7  1       -2 -.726416632808D-02 0.100000000000D+01
0.362605213076D-04 0.000000000000D+00 0.000000000000D+00 0.825083446623D-06 0.248466335188D-09  7 21 1 -24 -13 13 23 2 2 0.35019364D-01 0.14915892D+00 0.62132518D+05 0.62132518D+05 0.62132518D+05 0.11390878D+01  1  2  1  3  7  1       -2 0.752085152347D-02 0.100000000000D+01
  </mgrwgt>
  </event>
  <event>
  8     66 0.26562228E-05 0.20159992E+03 0.75467711E-02 0.98689222E-01
       -2 -1    0    0    0  501 0.00000000E+00 0.00000000E+00 0.26500091E+03 0.26500110E+03 0.32000000E+00 0.0000E+00 0.9000E+01
        1 -1    0    0  501    0 0.00000000E+00 0.00000000E+00 -.46948410E+03 0.46948421E+03 0.32000000E+00 0.0000E+00 0.9000E+01
       25  2    1    2    0    0 -.43205750E+02 -.27090304E+03 -.49978228E+02 0.40953271E+03 0.29994003E+03 0.0000E+00 0.0000E+00
       23  2    3    3    0    0 0.38134383E+02 -.11094728E+03 0.81431293E+02 0.16914599E+03 0.90640933E+02 0.0000E+00 0.0000E+00
      -24  1    1    2    0    0 0.43205750E+02 0.27090304E+03 -.15450496E+03 0.32495261E+03 0.80419002E+02 0.0000E+00 0.9000E+01
      -13  1    4    4    0    0 0.12950853E+02 -.51304612E+02 -.13154925E+02 0.54524775E+02 0.10565837E+00 0.0000E+00 0.9000E+01
       13  1    4    4    0    0 0.25183530E+02 -.59642668E+02 0.94586219E+02 0.11462121E+03 0.10565837E+00 0.0000E+00 0.9000E+01
       23  1    3    3    0    0 -.81340133E+02 -.15995576E+03 -.13140952E+03 0.24038672E+03 0.91188000E+02 0.0000E+00 0.9000E+01
#aMCatNLO 1  0  0  1  2 0.90899608D+02 0.00000000D+00  -5  7  0 0.00000000D+00 0.00000000D+00 0.00000000D+00 0.00000000D+00 0.00000000D+00
  <mgrwgt>
 0.1253040717D-02    9    2    0
 0.352723441292807D+03 0.000000000000000D+00 0.000000000000000D+00 0.352723441292807D+03
 0.352723441292807D+03 0.000000000000000D+00 0.000000000000000D+00 -.352723441292807D+03
 0.293543362099757D+03 0.432057502852007D+02 0.270903044747822D+03 -.666730302829454D+02
 0.529559294790082D+02 0.129508360370232D+02 -.513046010118831D+02 0.210813375745366D+01
 0.146756588390392D+03 0.251835464836578D+02 -.596426789284177D+02 0.131704351001529D+03
 0.212191002616458D+03 -.813401328058817D+02 -.159955764807522D+03 -.671394544760372D+02
 0.000000000000000D+00 0.000000000000000D+00 0.000000000000000D+00 0.000000000000000D+00
 0.470488276559383D+03 0.000000000000000D+00 0.000000000000000D+00 0.470488276559383D+03
 0.373625719465859D+03 0.000000000000000D+00 0.000000000000000D+00 -.373625719465859D+03
 0.261624242683257D+03 0.294382862365228D+02 0.238050672634133D+03 -.666730302829454D+02
 0.588458181656234D+02 0.101782921637573D+02 -.579205357042862D+02 0.210813375745366D+01
 0.153803654118321D+03 0.177300274066253D+02 -.774285094495202D+02 0.131704351001529D+03
 0.237005444674206D+03 -.924796443436365D+02 -.186537230857415D+03 -.671394544760372D+02
 0.132834836383835D+03 0.351330385367311D+02 0.838356033770891D+02 0.968625570935246D+02
0.332162797911D-04 0.000000000000D+00 0.000000000000D+00 0.486951669482D-05 0.000000000000D+00  7 -2 1 -24 -13 13 23 21 0 0.40769394D-01 0.72228347D-01 0.91450566D+05 0.91450566D+05 0.91450566D+05 0.11249211D+01  1  2  2  1  7  1       -2 0.101048432287D-02 0.100000000000D+01
-.179220186614D-05 0.000000000000D+00 -.127559260445D-06 0.486951669482D-05 0.000000000000D+00  7 -2 1 -24 -13 13 23 21 2 0.40769394D-01 0.72228347D-01 0.91450566D+05 0.91450566D+05 0.91450566D+05 0.11249211D+01  1  2  3  1  7  1       -2 -.689937364389D-04 0.100000000000D+01
0.209065517936D-05 0.000000000000D+00 0.000000000000D+00 0.486951669482D-05 0.000000000000D+00  7 -2 1 -24 -13 13 23 21 2 0.40769394D-01 0.72228347D-01 0.91450566D+05 0.91450566D+05 0.91450566D+05 0.11249211D+01  1  2 15  1  7  1       -2 0.804831839281D-04 0.100000000000D+01
0.451893640129D-04 0.000000000000D+00 0.000000000000D+00 0.486951669482D-05 0.000000000000D+00  7 -2 1 -24 -13 13 23 21 2 0.55287873D-01 0.72228347D-01 0.12582030D+06 0.12582030D+06 0.12582030D+06 0.11136271D+01  1  2 12  1  7  1       -2 0.939362845082D-03 0.100000000000D+01
-.485317253947D-04 0.000000000000D+00 0.000000000000D+00 0.486951669482D-05 0.000000000000D+00  7 -2 1 -24 -13 13 23 21 2 0.40769394D-01 0.72228347D-01 0.91450566D+05 0.91450566D+05 0.91450566D+05 0.11249211D+01  1  2  4  1  7  1       -2 -.186830799256D-02 0.100000000000D+01
-.640437715159D-04 0.000000000000D+00 -.153330700130D-04 0.486951669482D-05 0.000000000000D+00  7 -2 1 -24 -13 13 23 21 2 0.56831101D-01 0.72228347D-01 0.91450566D+05 0.91450566D+05 0.91450566D+05 0.11249211D+01  1  2  5  1  7  1       -2 -.129382021347D-02 0.100000000000D+01
0.662566722778D-04 0.000000000000D+00 0.145244706784D-04 0.486951669482D-05 0.000000000000D+00  7 -2 1 -24 -13 13 23 21 2 0.40769394D-01 0.72228347D-01 0.91450566D+05 0.91450566D+05 0.91450566D+05 0.11249211D+01  1  2  6  1  7  1       -2 0.255065875715D-02 0.100000000000D+01
0.176620101747D-05 0.000000000000D+00 0.000000000000D+00 0.486951669482D-05 0.000000000000D+00  7 21 1 -24 -13 13 23 2 2 0.55287873D-01 0.72228347D-01 0.12582030D+06 0.12582030D+06 0.12582030D+06 0.11136271D+01  1  2 12  3  7  1       -2 0.385656077179D-03 0.100000000000D+01
-.226276297577D-05 0.000000000000D+00 -.637845785530D-06 0.486951669482D-05 0.000000000000D+00  7 21 1 -24 -13 13 23 2 2 0.56831101D-01 0.72228347D-01 0.91450566D+05 0.91450566D+05 0.91450566D+05 0.11249211D+01  1  2  5  3  7  1       -2 -.482482526496D-03 0.100000000000D+01
  </mgrwgt>
  </event>
  <event>
  8     66 0.26562228E-05 0.21189496E+03 0.75467711E-02 0.10142485E+00
       -2 -1    0    0    0  501 0.00000000E+00 0.00000000E+00 0.12537098E+03 0.12537139E+03 0.32000000E+00 0.0000E+00 0.9000E+01
        1 -1    0    0  501    0 0.00000000E+00 0.00000000E+00 -.39177317E+03 0.39177330E+03 0.32000000E+00 0.0000E+00 0.9000E+01
       25  2    1    2    0    0 -.71487076E+00 -.91336391E+02 -.14578689E+03 0.34580259E+03 0.29997128E+03 0.0000E+00 0.0000E+00
       23  2    3    3    0    0 -.54530076E+02 -.15437163E+03 -.61866968E+02 0.19671429E+03 0.89804553E+02 0.0000E+00 0.0000E+00
      -24  1    1    2    0    0 0.71487076E+00 0.91336391E+02 -.12061530E+03 0.17134210E+03 0.80419002E+02 0.0000E+00 0.9000E+01
      -11  1    4    4    0    0 -.40143232E+02 -.22118499E+02 0.78801978E+01 0.46505962E+02 0.51099893E-03 0.0000E+00 0.9000E+01
       11  1    4    4    0    0 -.14386845E+02 -.13225314E+03 -.69747165E+02 0.15020832E+03 0.51099893E-03 0.0000E+00 0.9000E+01
       23  1    3    3    0    0 0.53815205E+02 0.63035243E+02 -.83919923E+02 0.14908831E+03 0.91188000E+02 0.0000E+00 0.9000E+01
#aMCatNLO 1  0  0  1  1 0.12721997D+03 0.00000000D+00  -5  7  0 0.00000000D+00 0.00000000D+00 0.00000000D+00 0.00000000D+00 0.00000000D+00
  <mgrwgt>
 0.1005876877D-02    3    2    0
 0.221623837427713D+03 0.000000000000000D+00 0.000000000000000D+00 0.221623837427713D+03
 0.221623837427713D+03 0.000000000000000D+00 0.000000000000000D+00 -.221623837427713D+03
 0.127415163561601D+03 0.714870756282769D+00 0.913363915016902D+02 -.377433503853430D+02
 0.589954892638937D+02 -.401432315390479D+02 -.221184986924679D+02 0.371451306456160D+02
 0.133330961445776D+03 -.143868446956936D+02 -.132253135625288D+03 0.890348791408110D+01
 0.123506060584155D+03 0.538152054784587D+02 0.630352428160652D+02 -.830526817435418D+01
 0.000000000000000D+00 0.000000000000000D+00 -.000000000000000D+00 -.000000000000000D+00
 0.244398177401449D+03 0.000000000000000D+00 0.000000000000000D+00 0.244398177401449D+03
 0.523217546093649D+03 0.000000000000000D+00 0.000000000000000D+00 -.523217546093649D+03
 0.140999104123465D+03 -.349364772841920D+02 0.103770966391904D+03 -.377433503853430D+02
 0.701658003218404D+02 -.572987059036983D+02 -.161349653202600D+02 0.371451306456160D+02
 0.130112174713106D+03 -.493779165827303D+02 -.120048853661693D+03 0.890348791408110D+01
 0.119866523164013D+03 0.214899466107154D+02 0.743097352077739D+02 -.830526817435418D+01
 0.306472121172674D+03 0.120123153159905D+03 -.418968826177244D+02 -.278819368692199D+03
0.697806143364D-05 0.000000000000D+00 0.000000000000D+00 0.501029236119D-06 0.000000000000D+00  7 -2 1 -24 -11 11 23 21 0 0.19287884D-01 0.60272837D-01 0.44899475D+05 0.44899475D+05 0.44899475D+05 0.11514284D+01  1  2  2  1  7  1       -2 0.993011238007D-03 0.100000000000D+01
-.386720220972D-06 0.000000000000D+00 -.267975932709D-07 0.501029236119D-06 0.000000000000D+00  7 -2 1 -24 -11 11 23 21 2 0.19287884D-01 0.60272837D-01 0.44899475D+05 0.44899475D+05 0.44899475D+05 0.11514284D+01  1  2  3  1  7  1       -2 -.729608972172D-04 0.100000000000D+01
0.454912948830D-06 0.000000000000D+00 0.000000000000D+00 0.501029236119D-06 0.000000000000D+00  7 -2 1 -24 -11 11 23 21 2 0.19287884D-01 0.60272837D-01 0.44899475D+05 0.44899475D+05 0.44899475D+05 0.11514284D+01  1  2 15  1  7  1       -2 0.858265358324D-04 0.100000000000D+01
  </mgrwgt>
  </event>
  <event>
  8     66 0.26562228E-05 0.77737337E+02 0.75467711E-02 0.10205811E+00
       -2 -1    0    0    0  501 0.00000000E+00 0.00000000E+00 0.87915922E+02 0.87916504E+02 0.32000000E+00 0.0000E+00 0.9000E+01
        1 -1    0    0  501    0 0.00000000E+00 0.00000000E+00 -.10076318E+04 0.10076319E+04 0.32000000E+00 0.0000E+00 0.9000E+01
       25  2    1    2    0    0 0.75822470E+02 0.11324898E+03 -.26795099E+03 0.42484793E+03 0.30020601E+03 0.0000E+00 0.0000E+00
       23  2    3    3    0    0 0.49516253E+02 -.37130234E+02 -.97848295E+01 0.11136596E+03 0.92065849E+02 0.0000E+00 0.0000E+00
      -24  1    1    2    0    0 -.75822470E+02 -.11324898E+03 -.65176490E+03 0.67070044E+03 0.80419002E+02 0.0000E+00 0.9000E+01
      -13  1    4    4    0    0 0.23386151E+02 -.14530007E+02 0.41335927E+02 0.49665916E+02 0.10565837E+00 0.0000E+00 0.9000E+01
       13  1    4    4    0    0 0.26130102E+02 -.22600227E+02 -.51120757E+02 0.61700044E+02 0.10565837E+00 0.0000E+00 0.9000E+01
       23  1    3    3    0    0 0.26306217E+02 0.15037922E+03 -.25816616E+03 0.31348197E+03 0.91188000E+02 0.0000E+00 0.9000E+01
#aMCatNLO 1  0  0  1  2 0.11385198D+03 0.00000000D+00  -5  7  0 0.00000000D+00 0.00000000D+00 0.00000000D+00 0.00000000D+00 0.00000000D+00
  <mgrwgt>
 0.1288297026D-02    9    2    0
 0.297636063320507D+03 0.000000000000000D+00 0.000000000000000D+00 0.297636063320507D+03
 0.297636063320507D+03 0.000000000000000D+00 0.000000000000000D+00 -.297636063320507D+03
 0.227368677078532D+03 -.758224703603287D+02 -.113248983092313D+03 -.163263346097908D+03
 0.155271534774958D+03 0.233861481412024D+02 -.145299972705713D+02 0.152811049226834D+03
 0.345702647575917D+02 0.261301051757248D+02 -.226002370163257D+02 0.124502840186481D+01
 0.178061650029933D+03 0.263062170434016D+02 0.150379217379210D+03 0.920726846920942D+01
 0.000000000000000D+00 -.000000000000000D+00 0.000000000000000D+00 0.000000000000000D+00
 0.361313737584608D+03 0.000000000000000D+00 0.000000000000000D+00 0.361313737584608D+03
 0.358631852830813D+03 0.000000000000000D+00 0.000000000000000D+00 -.358631852830813D+03
 0.227907165030363D+03 -.370101286774222D+02 -.132097653703622D+03 -.163263346097908D+03
 0.163323472474492D+03 0.505464257930004D+02 -.277200060402794D+02 0.152811049226834D+03
 0.415807385437308D+02 0.326219909431232D+02 -.257529304939735D+02 0.124502840186481D+01
 0.173250649350409D+03 0.562556493211986D+02 0.135834694695887D+03 0.920726846920942D+01
 0.113883565016425D+03 -.102413937379900D+03 0.497358955419883D+02 0.268188475379469D+01
0.174601520604D-04 0.000000000000D+00 0.000000000000D+00 0.257264526723D-05 0.000000000000D+00  7 -2 1 -24 -13 13 23 21 0 0.13525575D-01 0.15502033D+00 0.39630665D+05 0.39630665D+05 0.39630665D+05 0.11562812D+01  1  2  2  1  7  1       -2 0.109991726343D-02 0.100000000000D+01
-.779232154186D-06 0.000000000000D+00 -.670515812756D-07 0.257264526723D-05 0.000000000000D+00  7 -2 1 -24 -13 13 23 21 2 0.13525575D-01 0.15502033D+00 0.39630665D+05 0.39630665D+05 0.39630665D+05 0.11562812D+01  1  2  3  1  7  1       -2 -.656305089188D-04 0.100000000000D+01
0.110173438083D-05 0.000000000000D+00 0.000000000000D+00 0.257264526723D-05 0.000000000000D+00  7 -2 1 -24 -13 13 23 21 2 0.13525575D-01 0.15502033D+00 0.39630665D+05 0.39630665D+05 0.39630665D+05 0.11562812D+01  1  2 15  1  7  1       -2 0.927931268220D-04 0.100000000000D+01
0.389336801420D-05 0.000000000000D+00 0.000000000000D+00 0.257264526723D-05 0.000000000000D+00  7 -2 1 -24 -13 13 23 21 2 0.17537283D-01 0.15502033D+00 0.74279799D+05 0.74279799D+05 0.74279799D+05 0.11324752D+01  1  2 12  1  7  1       -2 0.206664874153D-03 0.100000000000D+01
-.715565687606D-05 0.000000000000D+00 0.000000000000D+00 0.257264526723D-05 0.000000000000D+00  7 -2 1 -24 -13 13 23 21 2 0.13525575D-01 0.15502033D+00 0.39630665D+05 0.39630665D+05 0.39630665D+05 0.11562812D+01  1  2  4  1  7  1       -2 -.602682268566D-03 0.100000000000D+01
-.100832276650D-04 0.000000000000D+00 -.746712762014D-05 0.257264526723D-05 0.000000000000D+00  7 -2 1 -24 -13 13 23 21 2 0.19874674D-01 0.15502033D+00 0.39630665D+05 0.39630665D+05 0.39630665D+05 0.11562812D+01  1  2  5  1  7  1       -2 -.459385424184D-03 0.100000000000D+01
0.125378111551D-04 0.000000000000D+00 0.694630221485D-05 0.257264526723D-05 0.000000000000D+00  7 -2 1 -24 -13 13 23 21 2 0.13525575D-01 0.15502033D+00 0.39630665D+05 0.39630665D+05 0.39630665D+05 0.11562812D+01  1  2  6  1  7  1       -2 0.105599200754D-02 0.100000000000D+01
0.135524037586D-06 0.000000000000D+00 0.000000000000D+00 0.257264526723D-05 0.000000000000D+00  7 21 1 -24 -13 13 23 2 2 0.17537283D-01 0.15502033D+00 0.74279799D+05 0.74279799D+05 0.74279799D+05 0.11324752D+01  1  2 12  3  7  1       -2 0.953193148659D-04 0.100000000000D+01
-.224877442187D-06 0.000000000000D+00 -.345546990930D-06 0.257264526723D-05 0.000000000000D+00  7 21 1 -24 -13 13 23 2 2 0.19874674D-01 0.15502033D+00 0.39630665D+05 0.39630665D+05 0.39630665D+05 0.11562812D+01  1  2  5  3  7  1       -2 -.134691359423D-03 0.100000000000D+01
  </mgrwgt>
  </event>
  <event>
  9     66 0.26562228E-05 0.81469163E+03 0.75467711E-02 0.86528737E-01
       21 -1    0    0  502  501 0.00000000E+00 0.00000000E+00 0.10579305E+04 0.10579308E+04 0.75000000E+00 0.0000E+00 0.9000E+01
        1 -1    0    0  501    0 0.00000000E+00 0.00000000E+00 -.14044422E+04 0.14044422E+04 0.32000000E+00 0.0000E+00 0.9000E+01
       25  2    1    2    0    0 -.57311737E+03 0.32533805E+03 0.39294489E+03 0.82420550E+03 0.30099943E+03 0.0000E+00 0.0000E+00
       23  2    3    3    0    0 -.54233332E+03 0.29022392E+03 0.33183402E+03 0.70491406E+03 0.91840373E+02 0.0000E+00 0.0000E+00
      -24  1    1    2    0    0 0.53106202E+03 -.81185167E+03 -.49435173E+03 0.10917788E+04 0.80419002E+02 0.0000E+00 0.9000E+01
      -13  1    4    4    0    0 -.11618580E+03 0.22142737E+02 0.70032149E+02 0.13745528E+03 0.10565837E+00 0.0000E+00 0.9000E+01
       13  1    4    4    0    0 -.42614752E+03 0.26808119E+03 0.26180187E+03 0.56745877E+03 0.10565837E+00 0.0000E+00 0.9000E+01
       23  1    3    3    0    0 -.30784049E+02 0.35114128E+02 0.61110873E+02 0.11929145E+03 0.91188000E+02 0.0000E+00 0.9000E+01
        2  1    1    2  502    0 0.42055348E+02 0.48651362E+03 -.24510484E+03 0.54638873E+03 0.32000000E+00 0.0000E+00 0.9000E+01
#aMCatNLO 2  0  0  1  2 0.48832792D+03 0.00000000D+00  -5  7  0 0.00000000D+00 0.00000000D+00 0.00000000D+00 0.00000000D+00 0.00000000D+00
  <mgrwgt>
 0.9381879825D-04    1    2    0
 0.924965971769788D+03 0.000000000000000D+00 0.000000000000000D+00 0.924965971769788D+03
 0.924965971769788D+03 0.000000000000000D+00 0.000000000000000D+00 -.924965971769788D+03
 0.902226366672829D+03 0.553070005610517D+03 -.557254220695202D+03 -.437180172442266D+03
 0.149383413663992D+03 -.112936245936563D+03 0.597298858433223D+02 0.774154336602665D+02
 0.662886658207947D+03 -.412234436131806D+03 0.429038514765183D+03 0.292245520316868D+03
 0.135435504994809D+03 -.278993235421480D+02 0.684858200866958D+02 0.675192184651323D+02
 0.000000000000000D+00 0.000000000000000D+00 0.000000000000000D+00 -.000000000000000D+00
 0.111548692051028D+04 0.000000000000000D+00 0.000000000000000D+00 0.111548692051028D+04
 0.133197660256144D+04 0.000000000000000D+00 0.000000000000000D+00 -.133197660256144D+04
 0.106710998770815D+04 0.531062020831711D+03 -.811851671652904D+03 -.437180172442266D+03
 0.141359404696207D+03 -.116185393044818D+03 0.221424111216503D+02 0.774154336602665D+02
 0.582131597992058D+03 -.426147926720059D+03 0.268081513327021D+03 0.292245520316868D+03
 0.122697823206714D+03 -.307840488179109D+02 0.351141275258312D+02 0.675192184651323D+02
 0.534164709468587D+03 0.420553477510768D+02 0.486513619678402D+03 -.216489682051166D+03
0.596557820019D-04 0.000000000000D+00 0.000000000000D+00 0.946698413632D-05 0.881290104782D-11  7 21 1 -24 -13 13 23 2 2 0.16275856D+00 0.21606804D+00 0.11946029D+07 0.11946029D+07 0.11946029D+07 0.10427618D+01  1  2  1  3  7  1       -2 0.938187982524D-04 0.100000000000D+01
  </mgrwgt>
  </event>
  <event>
  9     66 0.26562228E-05 0.24609133E+03 0.75467711E-02 0.99934062E-01
       -4 -1    0    0    0  502 0.00000000E+00 0.00000000E+00 0.32705266E+03 0.32705634E+03 0.15500000E+01 0.0000E+00 0.9000E+01
        3 -1    0    0  501    0 0.00000000E+00 0.00000000E+00 -.98589206E+03 0.98589218E+03 0.50000000E+00 0.0000E+00 0.9000E+01
       25  2    1    2    0    0 0.11629106E+03 0.24542967E+03 -.38707884E+02 0.40645561E+03 0.29991419E+03 0.0000E+00 0.0000E+00
       23  2    3    3    0    0 0.72337659E+02 0.21554132E+03 0.71936907E+02 0.25354146E+03 0.86125241E+02 0.0000E+00 0.0000E+00
      -24  1    1    2    0    0 -.72088581E+02 -.11406316E+03 -.71917952E+03 0.73613420E+03 0.80419002E+02 0.0000E+00 0.9000E+01
      -13  1    4    4    0    0 0.27479229E+02 0.18432763E+03 0.41285487E+02 0.19088291E+03 0.10565837E+00 0.0000E+00 0.9000E+01
       13  1    4    4    0    0 0.44858430E+02 0.31213686E+02 0.30651419E+02 0.62658548E+02 0.10565837E+00 0.0000E+00 0.9000E+01
       23  1    3    3    0    0 0.43953403E+02 0.29888358E+02 -.11064479E+03 0.15291415E+03 0.91188000E+02 0.0000E+00 0.9000E+01
       21  1    1    2  501  502 -.44202481E+02 -.13136651E+03 0.99048008E+02 0.17035871E+03 0.75000000E+00 0.0000E+00 0.9000E+01
#aMCatNLO 2  0  0  1  2 0.13860383D+03 0.00000000D+00  -5  7  0 0.00000000D+00 0.00000000D+00 0.00000000D+00 0.00000000D+00 0.00000000D+00
  <mgrwgt>
 0.2896996623D-04    2    2    0
 0.421872947360620D+03 0.000000000000000D+00 0.000000000000000D+00 0.421872947360620D+03
 0.421872947360620D+03 0.000000000000000D+00 0.000000000000000D+00 -.421872947360620D+03
 0.372402302016643D+03 -.907871678776706D+02 -.169633981929616D+03 -.308542154196762D+03
 0.265437373839990D+03 0.129834567655059D+02 0.141247571559543D+03 0.224360319152074D+03
 0.105173669439017D+03 0.392363318578400D+02 0.145049171060546D+02 0.964967273297675D+02
 0.100732549425590D+03 0.385673792543248D+02 0.138814932640187D+02 -.123148922850796D+02
 0.000000000000000D+00 -.000000000000000D+00 -.000000000000000D+00 0.000000000000000D+00
 0.726923436558318D+03 0.000000000000000D+00 0.000000000000000D+00 0.726923436558318D+03
 0.443568707322962D+03 0.000000000000000D+00 0.000000000000000D+00 -.443568707322962D+03
 0.346226291262888D+03 -.720885808273224D+02 -.114063159719550D+03 -.308542154196762D+03
 0.291666623791411D+03 0.274792028201799D+02 0.184327860173733D+03 0.224360319152074D+03
 0.110897156236972D+03 0.448584559713617D+02 0.312134554953030D+02 0.964967273297675D+02
 0.106264403713271D+03 0.439534028325966D+02 0.298883582683878D+02 -.123148922850796D+02
 0.315437668876737D+03 -.442024807968158D+02 -.131366514217874D+03 0.283354729235356D+03
-.651085248165D-04 0.000000000000D+00 0.000000000000D+00 0.619595807109D-06 0.000000000000D+00  7 -4 3 -24 -13 13 23 21 2 0.50589445D-01 0.14425710D+00 0.10312042D+06 0.10312042D+06 0.10312042D+06 0.11206286D+01  1  2 13  1  7  1       -4 -.340306825753D-04 0.100000000000D+01
0.137537960336D-03 0.000000000000D+00 0.000000000000D+00 0.619595807109D-06 0.238864837772D-09  7 -4 3 -24 -13 13 23 21 2 0.50316038D-01 0.15167585D+00 0.10312042D+06 0.10312042D+06 0.10312042D+06 0.11206286D+01  1  2  1  1  7  1       -4 0.630006488088D-04 0.100000000000D+01
  </mgrwgt>
  </event>
  <event>
  9     66 -.26562228E-05 0.17003052E+03 0.75467711E-02 0.10747788E+00
       -2 -1    0    0    0  501 0.00000000E+00 0.00000000E+00 0.36174854E+03 0.36174869E+03 0.32000000E+00 0.0000E+00 0.9000E+01
        1 -1    0    0  502    0 0.00000000E+00 0.00000000E+00 -.22882855E+03 0.22882877E+03 0.32000000E+00 0.0000E+00 0.9000E+01
       25  2    1    2    0    0 -.10942727E+02 -.33212459E+02 -.99788435E+02 0.31816413E+03 0.30007978E+03 0.0000E+00 0.0000E+00
       23  2    3    3    0    0 -.44905657E+01 -.10844173E+03 0.31988758E+02 0.14101574E+03 0.84156897E+02 0.0000E+00 0.0000E+00
      -24  1    1    2    0    0 0.27314258E+02 0.63037923E+01 0.22412212E+03 0.23975769E+03 0.80419002E+02 0.0000E+00 0.9000E+01
      -11  1    4    4    0    0 0.35413028E+02 -.73043981E+02 0.52435610E+01 0.81344948E+02 0.51099893E-03 0.0000E+00 0.9000E+01
       11  1    4    4    0    0 -.39903594E+02 -.35397752E+02 0.26745197E+02 0.59670791E+02 0.51099893E-03 0.0000E+00 0.9000E+01
       23  1    3    3    0    0 -.64521611E+01 0.75229274E+02 -.13177719E+03 0.17714840E+03 0.91188000E+02 0.0000E+00 0.9000E+01
       21  1    1    2  502  501 -.16371531E+02 0.26908667E+02 0.85863043E+01 0.32655635E+02 0.75000000E+00 0.0000E+00 0.9000E+01
#aMCatNLO 2  0  0  2  1 0.31497672D+02 0.00000000D+00  -5  7  0 0.00000000D+00 0.00000000D+00 0.00000000D+00 0.00000000D+00 0.00000000D+00
  <mgrwgt>
 -.6237549591D-03    2    2    0
 0.271489314258705D+03 0.000000000000000D+00 0.000000000000000D+00 0.271489314258705D+03
 0.271489314258705D+03 0.000000000000000D+00 0.000000000000000D+00 -.271489314258705D+03
 0.194524353042285D+03 0.214512454229904D+02 0.159403892319843D+02 0.175094991456308D+03
 0.776953029848116D+02 0.330038510943756D+02 -.690841963786120D+02 -.132166459271380D+02
 0.546376637915046D+02 -.415565143621344D+02 -.326809695837850D+02 0.137943700735817D+02
 0.216121308698808D+03 -.128985821552317D+02 0.858247767304127D+02 -.175672715602751D+03
 0.000000000000000D+00 -.000000000000000D+00 0.000000000000000D+00 0.000000000000000D+00
 0.288380203933294D+03 0.000000000000000D+00 0.000000000000000D+00 0.288380203933294D+03
 0.287037510177143D+03 0.000000000000000D+00 0.000000000000000D+00 -.287037510177143D+03
 0.194708187964992D+03 0.273142577393656D+02 0.630379229535540D+01 0.175094991456308D+03
 0.822446681500505D+02 0.354130279278893D+02 -.730439810150510D+02 -.132166459271380D+02
 0.550961187433600D+02 -.399035936765735D+02 -.353977522810477D+02 0.137943700735817D+02
 0.211842461365330D+03 -.645216108171329D+01 0.752292742451487D+02 -.175672715602751D+03
 0.315262778867051D+02 -.163715309089681D+02 0.269086667555946D+02 0.134269375615145D+01
-.326366534665D-04 0.000000000000D+00 0.000000000000D+00 0.909592722484D-07 0.000000000000D+00  7 -2 1 -24 -11 11 23 21 2 0.52393115D-01 0.36179835D-01 0.34145499D+05 0.34145499D+05 0.34145499D+05 0.11621561D+01  1  2 13  2  7  2        1 -.207727246897D-02 0.100000000000D+01
0.248395150192D-04 0.000000000000D+00 0.000000000000D+00 0.909592722484D-07 0.661717814153D-09  7 -2 1 -24 -11 11 23 21 2 0.55652787D-01 0.35203875D-01 0.34145499D+05 0.34145499D+05 0.34145499D+05 0.11621561D+01  1  2  1  2  7  2        1 0.145351750989D-02 0.100000000000D+01
  </mgrwgt>
  </event>
  <event>
  9     66 0.26562228E-05 0.70196989E+03 0.75467711E-02 0.88847780E-01
       -2 -1    0    0    0  502 0.00000000E+00 0.00000000E+00 0.66978847E+03 0.66978855E+03 0.32000000E+00 0.0000E+00 0.9000E+01
        1 -1    0    0  501    0 0.00000000E+00 0.00000000E+00 -.11903194E+04 0.11903194E+04 0.32000000E+00 0.0000E+00 0.9000E+01
       25  2    1    2    0    0 -.10299663E+03 -.81734088E+03 -.48737675E+03 0.10031949E+04 0.30034884E+03 0.0000E+00 0.0000E+00
       23  2    3    3    0    0 -.89344230E+02 -.75231410E+03 -.44101163E+03 0.88121189E+03 0.89912433E+02 0.0000E+00 0.0000E+00
      -24  1    1    2    0    0 0.15699459E+03 0.53408664E+03 -.67589309E+02 0.56650805E+03 0.80419002E+02 0.0000E+00 0.9000E+01
      -11  1    4    4    0    0 -.80477227E+02 -.71792456E+03 -.43962043E+03 0.84567038E+03 0.51099893E-03 0.0000E+00 0.9000E+01
       11  1    4    4    0    0 -.88670023E+01 -.34389536E+02 -.13912003E+01 0.35541516E+02 0.51099893E-03 0.0000E+00 0.9000E+01
       23  1    3    3    0    0 -.13652399E+02 -.65026781E+02 -.46365113E+02 0.12198297E+03 0.91188000E+02 0.0000E+00 0.9000E+01
       21  1    1    2  501  502 -.53997962E+02 0.28325424E+03 0.34435166E+02 0.29040504E+03 0.75000000E+00 0.0000E+00 0.9000E+01
#aMCatNLO 2  0  0  1  2 0.28835524D+03 0.00000000D+00  -5  7  0 0.00000000D+00 0.00000000D+00 0.00000000D+00 0.00000000D+00 0.00000000D+00
  <mgrwgt>
 0.5403981189D-04    2    2    0
 0.719866512991909D+03 0.000000000000000D+00 0.000000000000000D+00 0.719866512991909D+03
 0.719866512991909D+03 0.000000000000000D+00 0.000000000000000D+00 -.719866512991909D+03
 0.690783965366954D+03 0.133396779749621D+03 0.657872425583736D+03 0.141860641697144D+03
 0.614327280148276D+03 -.105585901529937D+03 -.586213325537954D+03 -.150344808670675D+03
 0.317804550849613D+02 -.101528640304145D+02 -.276443597798337D+02 0.119459637430500D+02
 0.102841325383626D+03 -.176580141892698D+02 -.440147402659480D+02 -.346179676951888D+01
 0.000000000000000D+00 -.000000000000000D+00 0.000000000000000D+00 0.000000000000000D+00
 0.969184385208986D+03 0.000000000000000D+00 0.000000000000000D+00 0.969184385208986D+03
 0.822610752577640D+03 0.000000000000000D+00 0.000000000000000D+00 -.822610752577640D+03
 0.580075427155543D+03 0.156994590881437D+03 0.534086642789874D+03 0.141860641697144D+03
 0.737899602747989D+03 -.804772272126197D+02 -.717924562988052D+03 -.150344808670675D+03
 0.374695873307841D+02 -.886700232815845D+01 -.343895361222192D+02 0.119459637430500D+02
 0.112880935490834D+03 -.136523994068667D+02 -.650267806895577D+02 -.346179676951888D+01
 0.323469585061477D+03 -.539979619337926D+02 0.283254237009955D+03 0.146573632631347D+03
-.319149346559D-03 0.000000000000D+00 0.000000000000D+00 0.112705085460D-04 0.000000000000D+00  7 -2 1 -24 -11 11 23 21 2 0.10701460D+00 0.16025350D+00 0.74095949D+06 0.74095949D+06 0.74095949D+06 0.10566429D+01  1  2 13  1  7  1       -2 -.372658315450D-03 0.100000000000D+01
0.428796512164D-03 0.000000000000D+00 0.000000000000D+00 0.112705085460D-04 0.884112618140D-09  7 -2 1 -24 -11 11 23 21 2 0.10304434D+00 0.18312597D+00 0.74095949D+06 0.74095949D+06 0.74095949D+06 0.10566429D+01  1  2  1  1  7  1       -2 0.426698127338D-03 0.100000000000D+01
  </mgrwgt>
  </event>
  <event>
  8     66 0.26562228E-05 0.32312531E+03 0.75467711E-02 0.95963354E-01
       -2 -1    0    0    0  501 0.00000000E+00 0.00000000E+00 0.30207057E+03 0.30207074E+03 0.32000000E+00 0.0000E+00 0.9000E+01
        1 -1    0    0  501    0 0.00000000E+00 0.00000000E+00 -.42853995E+03 0.42854007E+03 0.32000000E+00 0.0000E+00 0.9000E+01
       25  2    1    2    0    0 0.18319386E+03 -.20227827E+03 -.17614938E+03 0.44179979E+03 0.29946947E+03 0.0000E+00 0.0000E+00
       23  2    3    3    0    0 -.21543751E+02 0.10151225E+02 -.51014813E+02 0.10860662E+03 0.92874679E+02 0.0000E+00 0.0000E+00
      -24  1    1    2    0    0 -.18319386E+03 0.20227827E+03 0.49679996E+02 0.28881102E+03 0.80419002E+02 0.0000E+00 0.9000E+01
      -13  1    4    4    0    0 0.29137889E+01 -.16508081E+02 -.66991603E+02 0.69057171E+02 0.10565837E+00 0.0000E+00 0.9000E+01
       13  1    4    4    0    0 -.24457540E+02 0.26659305E+02 0.15976790E+02 0.39549448E+02 0.10565837E+00 0.0000E+00 0.9000E+01
       23  1    3    3    0    0 0.20473761E+03 -.21242950E+03 -.12513457E+03 0.33319317E+03 0.91188000E+02 0.0000E+00 0.9000E+01
#aMCatNLO 1  0  0  1  1 0.21035383D+03 0.00000000D+00  -5  7  0 0.00000000D+00 0.00000000D+00 0.00000000D+00 0.00000000D+00 0.00000000D+00
  <mgrwgt>
 0.1125983107D-02    4    2    0
 0.359790790612771D+03 0.000000000000000D+00 0.000000000000000D+00 0.359790790612771D+03
 0.359790790612771D+03 0.000000000000000D+00 0.000000000000000D+00 -.359790790612771D+03
 0.301969169505935D+03 -.183193855181505D+03 0.202278271295269D+03 0.101201164831581D+03
 0.583416027063969D+02 0.291382366016494D+01 -.165081358908482D+02 -.558814252452263D+02
 0.429635988594957D+02 -.244575757971769D+02 0.266593613778091D+02 0.231727483051189D+02
 0.316307210153715D+03 0.204737607318517D+03 -.212429496782230D+03 -.684924878914740D+02
 0.000000000000000D+00 -.000000000000000D+00 0.000000000000000D+00 -.000000000000000D+00
 0.424080269658466D+03 0.000000000000000D+00 0.000000000000000D+00 0.424080269658466D+03
 0.599546000529333D+03 0.000000000000000D+00 0.000000000000000D+00 -.599546000529333D+03
 0.235752449844506D+03 -.123460300218150D+03 0.153713630365337D+03 0.101201164831581D+03
 0.644885189999210D+02 0.165585787938027D+02 -.276016098025965D+02 -.558814252452263D+02
 0.342979159487374D+02 -.158748728236111D+02 0.196814427125767D+02 0.231727483051189D+02
 0.415158644006093D+03 0.285993510430713D+03 -.278492261010844D+03 -.684924878914740D+02
 0.273928741388541D+03 -.163216916182754D+03 0.132698797735527D+03 -.175465730870867D+03
0.478563360988D-04 0.000000000000D+00 0.000000000000D+00 0.917547460609D-06 0.000000000000D+00  7 -2 1 -24 -13 13 23 21 0 0.46472417D-01 0.65929246D-01 0.10440996D+06 0.10440996D+06 0.10440996D+06 0.11201873D+01  1  2  2  1  7  1       -2 0.128303826334D-02 0.100000000000D+01
-.262134104809D-05 0.000000000000D+00 -.183780931482D-06 0.917547460609D-06 0.000000000000D+00  7 -2 1 -24 -13 13 23 21 2 0.46472417D-01 0.65929246D-01 0.10440996D+06 0.10440996D+06 0.10440996D+06 0.11201873D+01  1  2  3  1  7  1       -2 -.881870816983D-04 0.100000000000D+01
0.299822036694D-05 0.000000000000D+00 0.000000000000D+00 0.917547460609D-06 0.000000000000D+00  7 -2 1 -24 -13 13 23 21 2 0.46472417D-01 0.65929246D-01 0.10440996D+06 0.10440996D+06 0.10440996D+06 0.11201873D+01  1  2 15  1  7  1       -2 0.100866045127D-03 0.100000000000D+01
-.504530829839D-05 0.000000000000D+00 0.000000000000D+00 0.917547460609D-06 0.000000000000D+00  7 -2 1 -24 -13 13 23 21 2 0.46472417D-01 0.65929246D-01 0.10440996D+06 0.10440996D+06 0.10440996D+06 0.11201873D+01  1  2  4  1  7  1       -2 -.169734119651D-03 0.100000000000D+01
  </mgrwgt>
  </event>
  <event>
  9     66 0.26562228E-05 0.33001077E+03 0.75467711E-02 0.98942340E-01
       21 -1    0    0  502  501 0.00000000E+00 0.00000000E+00 0.19335756E+03 0.19335901E+03 0.75000000E+00 0.0000E+00 0.9000E+01
        1 -1    0    0  501    0 0.00000000E+00 0.00000000E+00 -.79502787E+03 0.79502794E+03 0.32000000E+00 0.0000E+00 0.9000E+01
       25  2    1    2    0    0 0.17307244E+03 0.20480193E+03 -.51245823E+03 0.65655515E+03 0.31073032E+03 0.0000E+00 0.0000E+00
       23  2    3    3    0    0 0.19381689E+03 0.46373660E+02 -.21705277E+03 0.30854727E+03 0.91509625E+02 0.0000E+00 0.0000E+00
      -24  1    1    2    0    0 -.18189021E+03 -.17229861E+03 -.31498603E+02 0.26500988E+03 0.80419002E+02 0.0000E+00 0.9000E+01
      -11  1    4    4    0    0 0.16592393E+02 0.32545317E+02 -.65281149E+02 0.74807310E+02 0.51099893E-03 0.0000E+00 0.9000E+01
       11  1    4    4    0    0 0.17722450E+03 0.13828343E+02 -.15177162E+03 0.23373996E+03 0.51099893E-03 0.0000E+00 0.9000E+01
       23  1    3    3    0    0 -.20744447E+02 0.15842827E+03 -.29540546E+03 0.34800788E+03 0.91188000E+02 0.0000E+00 0.9000E+01
        2  1    1    2  502    0 0.88177717E+01 -.32503328E+02 -.57713482E+02 0.66821911E+02 0.32000000E+00 0.0000E+00 0.9000E+01
#aMCatNLO 2  0  0  1  2 0.33678174D+02 0.00000000D+00  -5  7  0 0.00000000D+00 0.00000000D+00 0.00000000D+00 0.00000000D+00 0.00000000D+00
  <mgrwgt>
 0.2671762027D-03    1    2    0
 0.371570606794777D+03 0.000000000000000D+00 0.000000000000000D+00 0.371570606794777D+03
 0.371570606794777D+03 0.000000000000000D+00 0.000000000000000D+00 -.371570606794777D+03
 0.310958898353961D+03 -.178236157948535D+03 -.185767880817948D+03 0.154759125634942D+03
 0.437577010898748D+02 0.171183350613727D+02 0.306066335019637D+02 -.261712245619856D+02
 0.180265368526414D+03 0.179352374906117D+03 0.598473465312049D+01 -.171029721578220D+02
 0.208159245619305D+03 -.182345520189540D+02 0.149176512662864D+03 -.111484928915135D+03
 0.000000000000000D+00 0.000000000000000D+00 -.000000000000000D+00 -.000000000000000D+00
 0.380923344135132D+03 0.000000000000000D+00 0.000000000000000D+00 0.380923344135132D+03
 0.403558611216145D+03 0.000000000000000D+00 0.000000000000000D+00 -.403558611216145D+03
 0.305267853764836D+03 -.181890214287510D+03 -.172298605818418D+03 0.154759125634942D+03
 0.449381595708536D+02 0.165923928318706D+02 0.325453174919912D+02 -.261712245619856D+02
 0.178584032588104D+03 0.177224495964848D+03 0.138283429521907D+02 -.171029721578220D+02
 0.215113901343327D+03 -.207444461779770D+02 0.158428273312257D+03 -.111484928915135D+03
 0.405780080841559D+02 0.881777166876834D+01 -.325033279380209D+02 -.226352670810122D+02
0.729348439597D-06 0.000000000000D+00 0.000000000000D+00 0.225588178139D-07 0.614537277916D-12  7 21 1 -24 -11 11 23 2 2 0.29747385D-01 0.12231190D+00 0.12078193D+06 0.12078193D+06 0.12078193D+06 0.11150543D+01  1  2  1  3  7  1       -2 0.267176202688D-03 0.100000000000D+01
  </mgrwgt>
  </event>
  <event>
  8     66 0.26562228E-05 0.17498286E+03 0.75467711E-02 0.10405782E+00
       -2 -1    0    0    0  501 0.00000000E+00 0.00000000E+00 0.41906139E+02 0.41907361E+02 0.32000000E+00 0.0000E+00 0.9000E+01
        1 -1    0    0  501    0 0.00000000E+00 0.00000000E+00 -.13364001E+04 0.13364002E+04 0.32000000E+00 0.0000E+00 0.9000E+01
       25  2    1    2    0    0 -.11966446E+03 -.31093258E+02 -.84541949E+03 0.90563270E+03 0.30025005E+03 0.0000E+00 0.0000E+00
       23  2    3    3    0    0 0.62253697E+02 -.37610774E+02 -.38350099E+03 0.40083507E+03 0.91135331E+02 0.0000E+00 0.0000E+00
      -24  1    1    2    0    0 0.11966446E+03 0.31093258E+02 -.44907449E+03 0.47267482E+03 0.80419002E+02 0.0000E+00 0.9000E+01
      -11  1    4    4    0    0 0.36430106E+02 -.66085325E+02 -.29187670E+03 0.30147376E+03 0.51099893E-03 0.0000E+00 0.9000E+01
       11  1    4    4    0    0 0.25823591E+02 0.28474551E+02 -.91624292E+02 0.99361304E+02 0.51099893E-03 0.0000E+00 0.9000E+01
       23  1    3    3    0    0 -.18191816E+03 0.65175162E+01 -.46191850E+03 0.50479763E+03 0.91188000E+02 0.0000E+00 0.9000E+01
#aMCatNLO 1  0  0  2  1 0.49959999D+01 0.00000000D+00  -5  7  0 0.00000000D+00 0.00000000D+00 0.00000000D+00 0.00000000D+00 0.00000000D+00
  <mgrwgt>
 0.1611011432D-02   11    2    0
 0.236652144211797D+03 0.000000000000000D+00 0.000000000000000D+00 0.236652144211797D+03
 0.236652144211797D+03 0.000000000000000D+00 0.000000000000000D+00 -.236652144211797D+03
 0.148249315484802D+03 0.119664460648694D+03 0.310932576857444D+02 -.149756392680474D+02
 0.796336012943756D+02 0.364301057993208D+02 -.660853247026075D+02 -.254379186552833D+02
 0.387559098354180D+02 0.258235913017200D+02 0.284745508384943D+02 0.493585190203140D+01
 0.206665461808998D+03 -.181918157749735D+03 0.651751617836877D+01 0.354777060212993D+02
 0.000000000000000D+00 -.000000000000000D+00 -.000000000000000D+00 -.000000000000000D+00
 0.238311318602999D+03 0.000000000000000D+00 0.000000000000000D+00 0.238311318602999D+03
 0.240456359570677D+03 0.000000000000000D+00 0.000000000000000D+00 -.240456359570677D+03
 0.149547344575798D+03 0.121228125209632D+03 0.312516271892037D+02 -.149756392680474D+02
 0.799503302602337D+02 0.372680458158954D+02 -.660004573035063D+02 -.254379186552833D+02
 0.390595509989202D+02 0.262321831186158D+02 0.285159334244887D+02 0.493585190203140D+01
 0.204773429684792D+03 -.179757782903727D+03 0.673632109356303D+01 0.354777060212993D+02
 0.543702265393133D+01 -.497057124041663D+01 -.503424403749085D+00 -.214504096767763D+01
0.428674706807D-05 0.000000000000D+00 0.000000000000D+00 0.109764734306D-05 0.000000000000D+00  7 -2 1 -24 -11 11 23 21 0 0.64471952D-02 0.20560012D+00 0.54053973D+05 0.54053973D+05 0.54053973D+05 0.11443291D+01  1  2  2  2  7  2        1 0.491104855762D-03 0.100000000000D+01
-.238061671760D-06 0.000000000000D+00 -.164622374678D-07 0.109764734306D-05 0.000000000000D+00  7 -2 1 -24 -11 11 23 21 2 0.64471952D-02 0.20560012D+00 0.54053973D+05 0.54053973D+05 0.54053973D+05 0.11443291D+01  1  2  3  2  7  2        1 -.357139400683D-04 0.100000000000D+01
0.277742915250D-06 0.000000000000D+00 0.000000000000D+00 0.109764734306D-05 0.000000000000D+00  7 -2 1 -24 -11 11 23 21 2 0.64471952D-02 0.20560012D+00 0.54053973D+05 0.54053973D+05 0.54053973D+05 0.11443291D+01  1  2 15  2  7  2        1 0.416669082272D-04 0.100000000000D+01
0.148155378336D-05 0.000000000000D+00 0.000000000000D+00 0.109764734306D-05 0.000000000000D+00  7 -2 1 -24 -11 11 23 21 2 0.64471952D-02 0.20961752D+00 0.55227425D+05 0.55227425D+05 0.55227425D+05 0.11435161D+01  1  2 12  2  7  2        1 0.213178400409D-03 0.100000000000D+01
-.286506636235D-04 0.000000000000D+00 0.000000000000D+00 0.109764734306D-05 0.000000000000D+00  7 -2 1 -24 -11 11 23 21 2 0.64471952D-02 0.20560012D+00 0.54053973D+05 0.54053973D+05 0.54053973D+05 0.11443291D+01  1  2  4  2  7  2        1 -.429816390015D-02 0.100000000000D+01
-.215251582138D-03 0.000000000000D+00 -.245978976724D-04 0.109764734306D-05 0.000000000000D+00  7 -2 1 -24 -11 11 23 21 2 0.64471952D-02 0.20972370D+00 0.54053973D+05 0.54053973D+05 0.54053973D+05 0.11443291D+01  1  2  5  2  7  2        1 -.309855893377D-01 0.100000000000D+01
0.215702361943D-03 0.000000000000D+00 0.245930485694D-04 0.109764734306D-05 0.000000000000D+00  7 -2 1 -24 -11 11 23 21 2 0.64471952D-02 0.20560012D+00 0.54053973D+05 0.54053973D+05 0.54053973D+05 0.11443291D+01  1  2  6  2  7  2        1 0.323596031653D-01 0.100000000000D+01
0.272505091762D-04 0.000000000000D+00 0.000000000000D+00 0.109764734306D-05 0.306752282560D-06  7 -2 1 -24 -11 11 23 21 2 0.64923967D-02 0.20890517D+00 0.55227425D+05 0.55227425D+05 0.55227425D+05 0.11435161D+01  1  2 11  2  7  2        1 0.390810024251D-02 0.100000000000D+01
0.659758868117D-07 0.000000000000D+00 0.000000000000D+00 0.109764734306D-05 0.000000000000D+00  7 -2 21 -24 -11 11 23 -1 2 0.64471952D-02 0.20961752D+00 0.55227425D+05 0.55227425D+05 0.55227425D+05 0.11435161D+01  1  2 12  4  7  2        1 0.905795766521D-05 0.100000000000D+01
-.774560327407D-06 0.000000000000D+00 -.889183888303D-07 0.109764734306D-05 0.000000000000D+00  7 -2 21 -24 -11 11 23 -1 2 0.64471952D-02 0.20972370D+00 0.54053973D+05 0.54053973D+05 0.54053973D+05 0.11443291D+01  1  2  5  4  7  2        1 -.106420238412D-03 0.100000000000D+01
0.103207749780D-06 0.000000000000D+00 0.000000000000D+00 0.109764734306D-05 0.900633887813D-09  7 -2 21 -24 -11 11 23 -1 2 0.64923967D-02 0.20890517D+00 0.55227425D+05 0.55227425D+05 0.55227425D+05 0.11435161D+01  1  2 11  4  7  2        1 0.141873186305D-04 0.100000000000D+01
  </mgrwgt>
  </event>
  <event>
  8     66 0.26562228E-05 0.22358466E+03 0.75467711E-02 0.99520429E-01
       -2 -1    0    0    0  501 0.00000000E+00 0.00000000E+00 0.41239292E+02 0.41240533E+02 0.32000000E+00 0.0000E+00 0.9000E+01
        1 -1    0    0  501    0 0.00000000E+00 0.00000000E+00 -.14506055E+04 0.14506056E+04 0.32000000E+00 0.0000E+00 0.9000E+01
       25  2    1    2    0    0 0.86343076E+02 -.10169974E+03 -.10506205E+04 0.11007404E+04 0.30004663E+03 0.0000E+00 0.0000E+00
       23  2    3    3    0    0 -.52688899E+02 0.15974239E+02 -.53194196E+03 0.54349740E+03 0.96932356E+02 0.0000E+00 0.0000E+00
      -24  1    1    2    0    0 -.86343076E+02 0.10169974E+03 -.35874574E+03 0.39110572E+03 0.80419002E+02 0.0000E+00 0.9000E+01
      -11  1    4    4    0    0 -.64754450E+02 0.28104860E+02 -.21916262E+03 0.23025046E+03 0.51099893E-03 0.0000E+00 0.9000E+01
       11  1    4    4    0    0 0.12065551E+02 -.12130621E+02 -.31277934E+03 0.31324694E+03 0.51099893E-03 0.0000E+00 0.9000E+01
       23  1    3    3    0    0 0.13903197E+03 -.11767398E+03 -.51867856E+03 0.55724299E+03 0.91188000E+02 0.0000E+00 0.9000E+01
#aMCatNLO 1  0  0  2  1 0.18257309D+03 0.00000000D+00  -5  7  0 0.00000000D+00 0.00000000D+00 0.00000000D+00 0.00000000D+00 0.00000000D+00
  <mgrwgt>
 0.1250615233D-02    3    2    0
 0.244587198482573D+03 0.000000000000000D+00 0.000000000000000D+00 0.244587198482573D+03
 0.244587198482573D+03 0.000000000000000D+00 0.000000000000000D+00 -.244587198482573D+03
 0.159177202933132D+03 -.863430758910550D+02 0.101699740572761D+03 0.327444956038362D+02
 0.707679279148762D+02 -.647544497292960D+02 0.281048600461613D+02 -.500776431223376D+01
 0.541638778304331D+02 0.120655507547122D+02 -.121306210018933D+02 -.513906234708626D+02
 0.205065388286704D+03 0.139031974865639D+03 -.117673979617029D+03 0.236538921792602D+02
 0.000000000000000D+00 -.000000000000000D+00 -.000000000000000D+00 0.000000000000000D+00
 0.413620356254310D+03 0.000000000000000D+00 0.000000000000000D+00 0.413620356254310D+03
 0.315692433462332D+03 0.000000000000000D+00 0.000000000000000D+00 -.315692433462332D+03
 0.200289960198023D+03 -.727861657333381D+02 0.165163023365536D+03 0.327444956038362D+02
 0.807454308738272D+02 -.590402894290882D+02 0.548542717363253D+02 -.500776431223376D+01
 0.543265547392568D+02 0.161571485365727D+02 0.702317024431451D+01 -.513906234708626D+02
 0.186772636611364D+03 0.153809716603296D+03 -.484956792502850D+02 0.236538921792602D+02
 0.207178207294171D+03 -.381404099774421D+02 -.178544786095890D+03 0.979279227919782D+02
0.125363595587D-04 0.000000000000D+00 0.000000000000D+00 0.744767834671D-07 0.000000000000D+00  7 -2 1 -24 -11 11 23 21 0 0.63446046D-02 0.22317018D+00 0.49990099D+05 0.49990099D+05 0.49990099D+05 0.11473030D+01  1  2  2  2  7  2        1 0.123556625525D-02 0.100000000000D+01
-.689638570449D-06 0.000000000000D+00 -.481429216048D-07 0.744767834671D-07 0.000000000000D+00  7 -2 1 -24 -11 11 23 21 2 0.63446046D-02 0.22317018D+00 0.49990099D+05 0.49990099D+05 0.49990099D+05 0.11473030D+01  1  2  3  2  7  2        1 -.894689550469D-04 0.100000000000D+01
0.805638084163D-06 0.000000000000D+00 0.000000000000D+00 0.744767834671D-07 0.000000000000D+00  7 -2 1 -24 -11 11 23 21 2 0.63446046D-02 0.22317018D+00 0.49990099D+05 0.49990099D+05 0.49990099D+05 0.11473030D+01  1  2 15  2  7  2        1 0.104517932472D-03 0.100000000000D+01
  </mgrwgt>
  </event>
  <event>
  8     66 0.26562228E-05 0.17197463E+03 0.75467711E-02 0.89652533E-01
       -4 -1    0    0    0  501 0.00000000E+00 0.00000000E+00 0.39708608E+03 0.39708911E+03 0.15500000E+01 0.0000E+00 0.9000E+01
        3 -1    0    0  501    0 0.00000000E+00 0.00000000E+00 -.12685319E+03 0.12685418E+03 0.50000000E+00 0.0000E+00 0.9000E+01
       25  2    1    2    0    0 0.60100335E+02 0.41591734E+02 0.26205691E+03 0.41496629E+03 0.31333892E+03 0.0000E+00 0.0000E+00
       23  2    3    3    0    0 0.64951476E+02 0.94386061E+02 0.27169328E+03 0.30904705E+03 0.92549531E+02 0.0000E+00 0.0000E+00
      -24  1    1    2    0    0 -.60100335E+02 -.41591734E+02 0.81759835E+01 0.10897699E+03 0.80419002E+02 0.0000E+00 0.9000E+01
      -11  1    4    4    0    0 -.86376074E+01 0.32558880E+02 0.18959736E+02 0.38654372E+02 0.51099893E-03 0.0000E+00 0.9000E+01
       11  1    4    4    0    0 0.73589084E+02 0.61827181E+02 0.25273355E+03 0.27039267E+03 0.51099893E-03 0.0000E+00 0.9000E+01
       23  1    3    3    0    0 -.48511409E+01 -.52794328E+02 -.96363746E+01 0.10591924E+03 0.91188000E+02 0.0000E+00 0.9000E+01
#aMCatNLO 1  0  0  1  2 0.75634018D+03 0.00000000D+00  -5  7  0 0.00000000D+00 0.00000000D+00 0.00000000D+00 0.00000000D+00 0.00000000D+00
  <mgrwgt>
 0.1771641955D-03    5    2    0
 0.224438604516344D+03 0.000000000000000D+00 0.000000000000000D+00 0.224438604516344D+03
 0.224438604516344D+03 0.000000000000000D+00 0.000000000000000D+00 -.224438604516344D+03
 0.122279223088690D+03 -.601003583517054D+02 -.415917494727196D+02 -.560630515277048D+02
 0.337044376582706D+02 -.863760537574533D+01 0.325588788581268D+02 -.114030642152313D+01
 0.163460089868274D+03 0.735890897900283D+02 0.618271790056018D+02 0.132216666044144D+03
 0.129433458417454D+03 -.485112606257751D+01 -.527943083910090D+02 -.750133080949164D+02
 0.000000000000000D+00 -.000000000000000D+00 -.000000000000000D+00 0.000000000000000D+00
 0.950748393929563D+03 0.000000000000000D+00 0.000000000000000D+00 0.950748393929563D+03
 0.719628235826816D+03 0.000000000000000D+00 0.000000000000000D+00 -.719628235826816D+03
 0.119141218449658D+03 0.667481769816624D+02 0.113590977777803D+02 -.560630515277048D+02
 0.737415364364347D+02 0.478172845023989D+02 0.561250496666837D+02 -.114030642152313D+01
 0.474833195672481D+03 0.408964867698657D+03 0.201824314493898D+03 0.132216666044144D+03
 0.211795967353123D+03 0.174439627428852D+03 0.220476854609639D+02 -.750133080949164D+02
 0.790864711844683D+03 -.697969956611570D+03 -.291356147399325D+03 0.231120158102747D+03
0.996354173940D-05 0.000000000000D+00 0.000000000000D+00 0.120200093597D-08 0.000000000000D+00  7 -4 3 -24 -11 11 23 21 0 0.61090475D-01 0.19516184D-01 0.29575275D+05 0.29575275D+05 0.29575275D+05 0.11679109D+01  1  2  2  1  7  1       -4 0.173389612147D-03 0.100000000000D+01
-.505819048246D-06 0.000000000000D+00 -.382626237401D-07 0.120200093597D-08 0.000000000000D+00  7 -4 3 -24 -11 11 23 21 2 0.61090475D-01 0.19516184D-01 0.29575275D+05 0.29575275D+05 0.29575275D+05 0.11679109D+01  1  2  3  1  7  1       -4 -.120067076100D-04 0.100000000000D+01
0.627600624214D-06 0.000000000000D+00 0.000000000000D+00 0.120200093597D-08 0.000000000000D+00  7 -4 3 -24 -11 11 23 21 2 0.61090475D-01 0.19516184D-01 0.29575275D+05 0.29575275D+05 0.29575275D+05 0.11679109D+01  1  2 15  1  7  1       -4 0.148974563471D-04 0.100000000000D+01
0.144357002216D-04 0.000000000000D+00 -.556911662383D-05 0.120200093597D-08 0.000000000000D+00  7 -4 3 -24 -11 11 23 21 2 0.48591300D+00 0.19516184D-01 0.29575275D+05 0.29575275D+05 0.29575275D+05 0.11679109D+01  1  2  5  1  7  1       -4 0.455131005282D-07 0.100000000000D+01
0.297486725245D-05 0.000000000000D+00 -.140230655359D-05 0.120200093597D-08 0.000000000000D+00  7 21 3 -24 -11 11 23 4 2 0.48591300D+00 0.19516184D-01 0.29575275D+05 0.29575275D+05 0.29575275D+05 0.11679109D+01  1  2  5  3  7  1       -4 0.838321555537D-06 0.100000000000D+01
  </mgrwgt>
  </event>
  <event>
  8     66 0.26562228E-05 0.15452007E+03 0.75467711E-02 0.96348014E-01
       -2 -1    0    0    0  501 0.00000000E+00 0.00000000E+00 0.11613373E+03 0.11613417E+03 0.32000000E+00 0.0000E+00 0.9000E+01
        1 -1    0    0  501    0 0.00000000E+00 0.00000000E+00 -.17587054E+04 0.17587054E+04 0.32000000E+00 0.0000E+00 0.9000E+01
       25  2    1    2    0    0 -.18387984E+03 -.31328110E+03 -.56709405E+03 0.73682546E+03 0.29893018E+03 0.0000E+00 0.0000E+00
       23  2    3    3    0    0 -.28941004E+02 -.22303734E+03 -.42920981E+03 0.49294579E+03 0.90505546E+02 0.0000E+00 0.0000E+00
      -24  1    1    2    0    0 0.18387984E+03 0.31328110E+03 -.10754776E+04 0.11380141E+04 0.80419002E+02 0.0000E+00 0.9000E+01
      -11  1    4    4    0    0 -.13433585E+02 -.14268838E+03 -.35356000E+03 0.38150374E+03 0.51099893E-03 0.0000E+00 0.9000E+01
       11  1    4    4    0    0 -.15507419E+02 -.80348962E+02 -.75649817E+02 0.11144205E+03 0.51099893E-03 0.0000E+00 0.9000E+01
       23  1    3    3    0    0 -.15493883E+03 -.90243757E+02 -.13788424E+03 0.24387967E+03 0.91188000E+02 0.0000E+00 0.9000E+01
#aMCatNLO 1  0  0  1  2 0.59580698D+02 0.00000000D+00  -5  7  0 0.00000000D+00 0.00000000D+00 0.00000000D+00 0.00000000D+00 0.00000000D+00
  <mgrwgt>
 0.9402576251D-03    9    2    0
 0.451935227310253D+03 0.000000000000000D+00 0.000000000000000D+00 0.451935227310253D+03
 0.451935227310253D+03 0.000000000000000D+00 0.000000000000000D+00 -.451935227310253D+03
 0.406081289479519D+03 0.183879837422642D+03 0.313281096282913D+03 -.162720489835107D+03
 0.148816332831873D+03 -.134335852783601D+02 -.142688377328752D+03 -.400732663927408D+02
 0.936812575687208D+02 -.155074191306879D+02 -.803489616440140D+02 0.456041920692709D+02
 0.255291574740395D+03 -.154938833013594D+03 -.902437573101472D+02 0.157189564158577D+03
 0.000000000000000D+00 0.000000000000000D+00 0.000000000000000D+00 0.000000000000000D+00
 0.699926495534935D+03 0.000000000000000D+00 0.000000000000000D+00 0.699926495534935D+03
 0.456508835524152D+03 0.000000000000000D+00 0.000000000000000D+00 -.456508835524152D+03
 0.383029116018687D+03 0.170038575980415D+03 0.291295404409444D+03 -.162720489835107D+03
 0.157570676215137D+03 -.188077162810354D+02 -.151224737168904D+03 -.400732663927408D+02
 0.989112862127389D+02 -.188855570081369D+02 -.857148525196177D+02 0.456041920692709D+02
 0.266320946995701D+03 -.164088091766975D+03 -.104776593400419D+03 0.157189564158577D+03
 0.250603305616823D+03 0.317427890757322D+02 0.504207786794968D+02 0.243417660010783D+03
0.699629664051D-04 0.000000000000D+00 0.000000000000D+00 0.159409866814D-05 0.000000000000D+00  7 -2 1 -24 -11 11 23 21 0 0.17866763D-01 0.27057009D+00 0.15934652D+06 0.15934652D+06 0.15934652D+06 0.11054862D+01  1  2  2  1  7  1       -2 0.846782234359D-03 0.100000000000D+01
-.381402582723D-05 0.000000000000D+00 -.268676212668D-06 0.159409866814D-05 0.000000000000D+00  7 -2 1 -24 -11 11 23 21 2 0.17866763D-01 0.27057009D+00 0.15934652D+06 0.15934652D+06 0.15934652D+06 0.11054862D+01  1  2  3  1  7  1       -2 -.564149011707D-04 0.100000000000D+01
0.444824490545D-05 0.000000000000D+00 0.000000000000D+00 0.159409866814D-05 0.000000000000D+00  7 -2 1 -24 -11 11 23 21 2 0.17866763D-01 0.27057009D+00 0.15934652D+06 0.15934652D+06 0.15934652D+06 0.11054862D+01  1  2 15  1  7  1       -2 0.657959091237D-04 0.100000000000D+01
0.624776961312D-03 0.000000000000D+00 0.000000000000D+00 0.159409866814D-05 0.000000000000D+00  7 -2 1 -24 -11 11 23 21 2 0.27720460D-01 0.27057009D+00 0.18553368D+06 0.18553368D+06 0.18553368D+06 0.11003385D+01  1  2 12  1  7  1       -2 0.433488010994D-02 0.100000000000D+01
-.577686469029D-03 0.000000000000D+00 0.000000000000D+00 0.159409866814D-05 0.000000000000D+00  7 -2 1 -24 -11 11 23 21 2 0.17866763D-01 0.27057009D+00 0.15934652D+06 0.15934652D+06 0.15934652D+06 0.11054862D+01  1  2  4  1  7  1       -2 -.854480974545D-02 0.100000000000D+01
-.639289970882D-03 0.000000000000D+00 -.272031237609D-04 0.159409866814D-05 0.000000000000D+00  7 -2 1 -24 -11 11 23 21 2 0.27824680D-01 0.27057009D+00 0.15934652D+06 0.15934652D+06 0.15934652D+06 0.11054862D+01  1  2  5  1  7  1       -2 -.447654118834D-02 0.100000000000D+01
0.594515668508D-03 0.000000000000D+00 0.247361579033D-04 0.159409866814D-05 0.000000000000D+00  7 -2 1 -24 -11 11 23 21 2 0.17866763D-01 0.27057009D+00 0.15934652D+06 0.15934652D+06 0.15934652D+06 0.11054862D+01  1  2  6  1  7  1       -2 0.879373769413D-02 0.100000000000D+01
0.318780323283D-04 0.000000000000D+00 0.000000000000D+00 0.159409866814D-05 0.000000000000D+00  7 21 1 -24 -11 11 23 2 2 0.27720460D-01 0.27057009D+00 0.18553368D+06 0.18553368D+06 0.18553368D+06 0.11003385D+01  1  2 12  3  7  1       -2 0.262319057346D-02 0.100000000000D+01
-.317668239729D-04 0.000000000000D+00 -.139690880667D-05 0.159409866814D-05 0.000000000000D+00  7 21 1 -24 -11 11 23 2 2 0.27824680D-01 0.27057009D+00 0.15934652D+06 0.15934652D+06 0.15934652D+06 0.11054862D+01  1  2  5  3  7  1       -2 -.264636306094D-02 0.100000000000D+01
  </mgrwgt>
  </event>
  <event>
  8     66 0.26562228E-05 0.52992979E+03 0.75467711E-02 0.89367785E-01
       -4 -1    0    0    0  501 0.00000000E+00 0.00000000E+00 0.45852900E+03 0.45853162E+03 0.15500000E+01 0.0000E+00 0.9000E+01
        3 -1    0    0  501    0 0.00000000E+00 0.00000000E+00 -.77739648E+03 0.77739664E+03 0.50000000E+00 0.0000E+00 0.9000E+01
       25  2    1    2    0    0 -.43510030E+03 0.21451307E+03 0.11151645E+03 0.58245625E+03 0.30247519E+03 0.0000E+00 0.0000E+00
       23  2    3    3    0    0 -.34642902E+03 0.25262288E+03 0.82496882E+02 0.44654326E+03 0.93614992E+02 0.0000E+00 0.0000E+00
      -24  1    1    2    0    0 0.43510030E+03 -.21451307E+03 -.43038393E+03 0.65347201E+03 0.80419002E+02 0.0000E+00 0.9000E+01
      -11  1    4    4    0    0 -.31184427E+03 0.25171308E+03 0.90908235E+02 0.41093872E+03 0.51099893E-03 0.0000E+00 0.9000E+01
       11  1    4    4    0    0 -.34584753E+02 0.90979593E+00 -.84113529E+01 0.35604547E+02 0.51099893E-03 0.0000E+00 0.9000E+01
       23  1    3    3    0    0 -.88671277E+02 -.38109810E+02 0.29019570E+02 0.13591299E+03 0.91188000E+02 0.0000E+00 0.9000E+01
#aMCatNLO 1  0  0  1  2 0.49149178D+03 0.00000000D+00  -5  7  0 0.00000000D+00 0.00000000D+00 0.00000000D+00 0.00000000D+00 0.00000000D+00
  <mgrwgt>
 0.1167270296D-03    3    2    0
 0.597043169723490D+03 0.000000000000000D+00 0.000000000000000D+00 0.597043169723490D+03
 0.597043169723490D+03 0.000000000000000D+00 0.000000000000000D+00 -.597043169723490D+03
 0.561441044391603D+03 0.435100295959743D+03 -.214513065649248D+03 -.270962557366637D+03
 0.449614430866295D+03 -.311844266323185D+03 0.251713079811468D+03 0.203830359506138D+03
 0.346060053223396D+02 -.345847531030497D+02 0.909795925727693D+00 0.801703526510025D+00
 0.148424858866743D+03 -.886712765335085D+02 -.381098100879476D+02 0.663304943339884D+02
 0.000000000000000D+00 0.000000000000000D+00 -.000000000000000D+00 -.000000000000000D+00
 0.827365418603262D+03 0.000000000000000D+00 0.000000000000000D+00 0.827365418603262D+03
 0.977961558510901D+03 0.000000000000000D+00 0.000000000000000D+00 -.977961558510901D+03
 0.408026587497889D+03 0.257292267293652D+03 -.142823183856914D+03 -.270962557366637D+03
 0.643998655340620D+03 -.512421552851981D+03 0.332583229879213D+03 0.203830359506138D+03
 0.507653894178625D+02 -.502425418769202D+02 0.722281246805767D+01 0.801703526510025D+00
 0.188490266466978D+03 -.150464174298048D+03 -.131957183589136D+02 0.663304943339884D+02
 0.514046078390813D+03 0.455836001733297D+03 -.183787140131443D+03 -.150596139907639D+03
0.371655527962D-03 0.000000000000D+00 0.000000000000D+00 0.248615078098D-06 0.000000000000D+00  7 -4 3 -24 -11 11 23 21 0 0.70543137D-01 0.11959967D+00 0.28082558D+06 0.28082558D+06 0.28082558D+06 0.10866805D+01  1  2  2  1  7  1       -4 0.115421074632D-03 0.100000000000D+01
-.202905613893D-04 0.000000000000D+00 -.142725508652D-05 0.248615078098D-06 0.000000000000D+00  7 -4 3 -24 -11 11 23 21 2 0.70543137D-01 0.11959967D+00 0.28082558D+06 0.28082558D+06 0.28082558D+06 0.10866805D+01  1  2  3  1  7  1       -4 -.744118856026D-05 0.100000000000D+01
0.238516267036D-04 0.000000000000D+00 0.000000000000D+00 0.248615078098D-06 0.000000000000D+00  7 -4 3 -24 -11 11 23 21 2 0.70543137D-01 0.11959967D+00 0.28082558D+06 0.28082558D+06 0.28082558D+06 0.10866805D+01  1  2 15  1  7  1       -4 0.874714348040D-05 0.100000000000D+01
  </mgrwgt>
  </event>
  <event>
  8     66 0.26562228E-05 0.31188154E+03 0.75467711E-02 0.89812673E-01
       -2 -1    0    0    0  501 0.00000000E+00 0.00000000E+00 0.27000671E+03 0.27000690E+03 0.32000000E+00 0.0000E+00 0.9000E+01
        1 -1    0    0  501    0 0.00000000E+00 0.00000000E+00 -.75018958E+03 0.75018965E+03 0.32000000E+00 0.0000E+00 0.9000E+01
       25  2    1    2    0    0 -.13615791E+03 0.24521396E+03 -.58101589E+03 0.71148410E+03 0.29993549E+03 0.0000E+00 0.0000E+00
       23  2    3    3    0    0 -.36237916E+02 0.46881932E+02 -.38993069E+03 0.40464799E+03 0.90459632E+02 0.0000E+00 0.0000E+00
      -24  1    1    2    0    0 0.13615791E+03 -.24521396E+03 0.10083302E+03 0.30871245E+03 0.80419002E+02 0.0000E+00 0.9000E+01
      -11  1    4    4    0    0 0.18021679E+02 0.30155799E+02 -.57343982E+02 0.67249427E+02 0.51099893E-03 0.0000E+00 0.9000E+01
       11  1    4    4    0    0 -.54259595E+02 0.16726133E+02 -.33258671E+03 0.33739856E+03 0.51099893E-03 0.0000E+00 0.9000E+01
       23  1    3    3    0    0 -.99919991E+02 0.19833203E+03 -.19108519E+03 0.30683611E+03 0.91188000E+02 0.0000E+00 0.9000E+01
#aMCatNLO 1  0  0  2  2 0.64743315D+03 0.00000000D+00  -5  7  0 0.00000000D+00 0.00000000D+00 0.00000000D+00 0.00000000D+00 0.00000000D+00
  <mgrwgt>
 0.1257914364D-02    5    2    0
 0.450062610845060D+03 0.000000000000000D+00 0.000000000000000D+00 0.450062610845060D+03
 0.450062610845060D+03 0.000000000000000D+00 0.000000000000000D+00 -.450062610845060D+03
 0.403683460926192D+03 0.136157906424452D+03 -.245213959176017D+03 0.278969997337187D+03
 0.456292465083677D+02 0.180216794179028D+02 0.301557990956181D+02 -.291182930266258D+02
 0.204983042325206D+03 -.542595951095326D+02 0.167261326392408D+02 -.196962383379114D+03
 0.245829471930355D+03 -.999199907328227D+02 0.198332027441158D+03 -.528893209314468D+02
 0.000000000000000D+00 -.000000000000000D+00 0.000000000000000D+00 -.000000000000000D+00
 0.650644825435504D+03 0.000000000000000D+00 0.000000000000000D+00 0.650644825435504D+03
 0.164309344732220D+04 0.000000000000000D+00 0.000000000000000D+00 -.164309344732220D+04
 0.691447615372262D+03 0.217433931274658D+03 -.588668680129794D+03 0.278969997337187D+03
 0.380842555144514D+02 0.242345436292825D+02 0.390159254484437D+01 -.291182930266258D+02
 0.231805050467384D+03 -.218430190006014D+02 -.120259234475962D+03 -.196962383379114D+03
 0.147443987078843D+03 -.707328878196304D+02 0.749937083615158D+02 -.528893209314468D+02
 0.118495736432476D+04 -.149092568083709D+03 0.630032613699396D+03 -.992448621886691D+03
0.823287418355D-04 0.000000000000D+00 0.000000000000D+00 0.104094443514D-04 0.000000000000D+00  7 -2 1 -24 -11 11 23 21 0 0.41539514D-01 0.11541380D+00 0.97270097D+05 0.97270097D+05 0.97270097D+05 0.11227098D+01  1  2  2  2  7  2        1 0.123130093237D-02 0.100000000000D+01
-.382576641509D-05 0.000000000000D+00 -.316164046304D-06 0.104094443514D-04 0.000000000000D+00  7 -2 1 -24 -11 11 23 21 2 0.41539514D-01 0.11541380D+00 0.97270097D+05 0.97270097D+05 0.97270097D+05 0.11227098D+01  1  2  3  2  7  2        1 -.721217436508D-04 0.100000000000D+01
0.518797857010D-05 0.000000000000D+00 0.000000000000D+00 0.104094443514D-04 0.000000000000D+00  7 -2 1 -24 -11 11 23 21 2 0.41539514D-01 0.11541380D+00 0.97270097D+05 0.97270097D+05 0.97270097D+05 0.11227098D+01  1  2 15  2  7  2        1 0.978015957854D-04 0.100000000000D+01
0.186315078302D-05 0.000000000000D+00 -.295787418038D-04 0.104094443514D-04 0.000000000000D+00  7 -2 1 -24 -11 11 23 21 2 0.41539514D-01 0.46961445D+00 0.97270097D+05 0.97270097D+05 0.97270097D+05 0.11227098D+01  1  2  5  2  7  2        1 0.873340942936D-06 0.100000000000D+01
0.574180262437D-06 0.000000000000D+00 -.496464854231D-05 0.104094443514D-04 0.000000000000D+00  7 -2 21 -24 -11 11 23 -1 2 0.41539514D-01 0.46961445D+00 0.97270097D+05 0.97270097D+05 0.97270097D+05 0.11227098D+01  1  2  5  4  7  2        1 0.602381646399D-07 0.100000000000D+01
  </mgrwgt>
  </event>
  <event>
  8     66 0.26562228E-05 0.29810047E+03 0.75467711E-02 0.93941320E-01
       -2 -1    0    0    0  501 0.00000000E+00 0.00000000E+00 0.20640338E+03 0.20640363E+03 0.32000000E+00 0.0000E+00 0.9000E+01
        1 -1    0    0  501    0 0.00000000E+00 0.00000000E+00 -.17608689E+04 0.17608689E+04 0.32000000E+00 0.0000E+00 0.9000E+01
       25  2    1    2    0    0 0.76189746E+02 0.37279418E+03 -.14977230E+04 0.15742493E+04 0.30050971E+03 0.0000E+00 0.0000E+00
       23  2    3    3    0    0 -.53707062E+01 0.19405036E+03 -.11016082E+04 0.11227810E+04 0.97015230E+02 0.0000E+00 0.0000E+00
      -24  1    1    2    0    0 -.76189746E+02 -.37279418E+03 -.56742482E+02 0.39302329E+03 0.80419002E+02 0.0000E+00 0.9000E+01
      -13  1    4    4    0    0 -.80120217E+01 0.51558911E+02 -.11961653E+03 0.13050149E+03 0.10565837E+00 0.0000E+00 0.9000E+01
       13  1    4    4    0    0 0.26413155E+01 0.14249145E+03 -.98199172E+03 0.99227946E+03 0.10565837E+00 0.0000E+00 0.9000E+01
       23  1    3    3    0    0 0.81560453E+02 0.17874382E+03 -.39611478E+03 0.45146831E+03 0.91188000E+02 0.0000E+00 0.9000E+01
#aMCatNLO 1  0  0  1  2 0.23547610D+03 0.00000000D+00  -5  7  0 0.00000000D+00 0.00000000D+00 0.00000000D+00 0.00000000D+00 0.00000000D+00
  <mgrwgt>
 0.9810994285D-03    9    2    0
 0.602867785405568D+03 0.000000000000000D+00 0.000000000000000D+00 0.602867785405568D+03
 0.602867785405568D+03 0.000000000000000D+00 0.000000000000000D+00 -.602867785405568D+03
 0.568101094577293D+03 -.761897463471185D+02 -.372794182616045D+03 0.414115029508402D+03
 0.587125499192973D+02 -.801203427195514D+01 0.515588024166597D+02 -.269195229937463D+02
 0.352989765189850D+03 0.264132756309678D+01 0.142491558789088D+03 -.322941098950483D+03
 0.225932161124696D+03 0.815604530559769D+02 0.178743821410298D+03 -.642544075641720D+02
 0.000000000000000D+00 0.000000000000000D+00 0.000000000000000D+00 0.000000000000000D+00
 0.940448238291524D+03 0.000000000000000D+00 0.000000000000000D+00 0.940448238291524D+03
 0.656754445250544D+03 0.000000000000000D+00 0.000000000000000D+00 -.656754445250544D+03
 0.636540614690812D+03 -.166241220155494D+03 -.446754224661675D+03 0.414115029508402D+03
 0.546401187677259D+02 -.164855702593323D+02 0.445994151751453D+02 -.269195229937463D+02
 0.341597732133061D+03 -.492816860114548D+02 0.998467457204925D+02 -.322941098950483D+03
 0.195735783495530D+03 0.500391969192706D+02 0.152855145405252D+03 -.642544075641720D+02
 0.368688434454939D+03 0.181969279507010D+03 0.149452918360785D+03 0.283693793040980D+03
0.303802029045D-03 0.000000000000D+00 0.000000000000D+00 0.741596796638D-06 0.000000000000D+00  7 -2 1 -24 -13 13 23 21 0 0.31754388D-01 0.27090293D+00 0.16008079D+06 0.16008079D+06 0.16008079D+06 0.11053296D+01  1  2  2  1  7  1       -2 0.137410207848D-02 0.100000000000D+01
-.134286216107D-04 0.000000000000D+00 -.116667978444D-05 0.741596796638D-06 0.000000000000D+00  7 -2 1 -24 -13 13 23 21 2 0.31754388D-01 0.27090293D+00 0.16008079D+06 0.16008079D+06 0.16008079D+06 0.11053296D+01  1  2  3  1  7  1       -2 -.742067432569D-04 0.100000000000D+01
0.193061870182D-04 0.000000000000D+00 0.000000000000D+00 0.741596796638D-06 0.000000000000D+00  7 -2 1 -24 -13 13 23 21 2 0.31754388D-01 0.27090293D+00 0.16008079D+06 0.16008079D+06 0.16008079D+06 0.11053296D+01  1  2 15  1  7  1       -2 0.106686248587D-03 0.100000000000D+01
0.142948426735D-03 0.000000000000D+00 0.000000000000D+00 0.741596796638D-06 0.000000000000D+00  7 -2 1 -24 -13 13 23 21 2 0.50304395D-01 0.27090293D+00 0.28232109D+06 0.28232109D+06 0.28232109D+06 0.10865088D+01  1  2 12  1  7  1       -2 0.312795423820D-03 0.100000000000D+01
-.327206003956D-03 0.000000000000D+00 0.000000000000D+00 0.741596796638D-06 0.000000000000D+00  7 -2 1 -24 -13 13 23 21 2 0.31754388D-01 0.27090293D+00 0.16008079D+06 0.16008079D+06 0.16008079D+06 0.11053296D+01  1  2  4  1  7  1       -2 -.180814476956D-02 0.100000000000D+01
-.302494549159D-03 0.000000000000D+00 -.106570244182D-03 0.741596796638D-06 0.000000000000D+00  7 -2 1 -24 -13 13 23 21 2 0.53318909D-01 0.27090293D+00 0.16008079D+06 0.16008079D+06 0.16008079D+06 0.11053296D+01  1  2  5  1  7  1       -2 -.629269680855D-03 0.100000000000D+01
0.325845471076D-03 0.000000000000D+00 0.937021503185D-04 0.741596796638D-06 0.000000000000D+00  7 -2 1 -24 -13 13 23 21 2 0.31754388D-01 0.27090293D+00 0.16008079D+06 0.16008079D+06 0.16008079D+06 0.11053296D+01  1  2  6  1  7  1       -2 0.180062644660D-02 0.100000000000D+01
0.755445338188D-05 0.000000000000D+00 0.000000000000D+00 0.741596796638D-06 0.000000000000D+00  7 21 1 -24 -13 13 23 2 2 0.50304395D-01 0.27090293D+00 0.28232109D+06 0.28232109D+06 0.28232109D+06 0.10865088D+01  1  2 12  3  7  1       -2 0.172596464835D-03 0.100000000000D+01
-.125505355206D-04 0.000000000000D+00 -.618352534350D-05 0.741596796638D-06 0.000000000000D+00  7 21 1 -24 -13 13 23 2 2 0.53318909D-01 0.27090293D+00 0.16008079D+06 0.16008079D+06 0.16008079D+06 0.11053296D+01  1  2  5  3  7  1       -2 -.274086040198D-03 0.100000000000D+01
  </mgrwgt>
  </event>
  <event>
  8     66 0.26562228E-05 0.25625247E+03 0.75467711E-02 0.97165553E-01
       -2 -1    0    0    0  501 0.00000000E+00 0.00000000E+00 0.78708457E+03 0.78708463E+03 0.32000000E+00 0.0000E+00 0.9000E+01
        1 -1    0    0  501    0 0.00000000E+00 0.00000000E+00 -.93399893E+02 0.93400441E+02 0.32000000E+00 0.0000E+00 0.9000E+01
       25  2    1    2    0    0 0.17669286E+03 0.10012965E+02 0.45228527E+03 0.57054715E+03 0.29940184E+03 0.0000E+00 0.0000E+00
       23  2    3    3    0    0 0.39380248E+02 0.11562100E+03 0.22743569E+03 0.27241900E+03 0.86983320E+02 0.0000E+00 0.0000E+00
      -24  1    1    2    0    0 -.17669286E+03 -.10012965E+02 0.24139940E+03 0.30993792E+03 0.80419002E+02 0.0000E+00 0.9000E+01
      -11  1    4    4    0    0 0.33095433E+02 0.87831589E+02 0.22503760E+03 0.24382702E+03 0.51099893E-03 0.0000E+00 0.9000E+01
       11  1    4    4    0    0 0.62848147E+01 0.27789412E+02 0.23980917E+01 0.28591978E+02 0.51099893E-03 0.0000E+00 0.9000E+01
       23  1    3    3    0    0 0.13731261E+03 -.10560804E+03 0.22484958E+03 0.29812816E+03 0.91188000E+02 0.0000E+00 0.9000E+01
#aMCatNLO 1  0  0  1  1 0.24981422D+03 0.00000000D+00  -5  7  0 0.00000000D+00 0.00000000D+00 0.00000000D+00 0.00000000D+00 0.00000000D+00
  <mgrwgt>
 0.1455687935D-02    3    2    0
 0.271134438999396D+03 0.000000000000000D+00 0.000000000000000D+00 0.271134438999396D+03
 0.271134438999396D+03 0.000000000000000D+00 0.000000000000000D+00 -.271134438999396D+03
 0.194443476207701D+03 -.176692860523078D+03 -.100129652317765D+02 -.451918718394941D+01
 0.108029285301060D+03 0.330954330156293D+02 0.878315887457197D+02 0.534848652851306D+02
 0.433572549507388D+02 0.628481473616463D+01 0.277894123959501D+02 -.326818178699300D+02
 0.196438861539292D+03 0.137312612771285D+03 -.105608035909893D+03 -.162838602312512D+02
 0.000000000000000D+00 0.000000000000000D+00 0.000000000000000D+00 -.000000000000000D+00
 0.330158642857383D+03 0.000000000000000D+00 0.000000000000000D+00 0.330158642857383D+03
 0.791685503712943D+03 0.000000000000000D+00 0.000000000000000D+00 -.791685503712943D+03
 0.269504219234263D+03 -.241509901566678D+03 -.884186214727926D+02 -.451918718394941D+01
 0.780413353402754D+02 0.709994435687353D+01 0.563862571665654D+02 0.534848652851306D+02
 0.360250954330621D+02 -.480550668048278D+01 0.143740525677973D+02 -.326818178699300D+02
 0.213474307638399D+03 0.800446082700618D+02 -.174882032412009D+03 -.162838602312512D+02
 0.524799188924327D+03 0.159170855620225D+03 0.192540344150439D+03 -.461526860855560D+03
0.596953241913D-04 0.000000000000D+00 0.000000000000D+00 0.724418358132D-07 0.000000000000D+00  7 -2 1 -24 -11 11 23 21 0 0.12108998D+00 0.14369261D-01 0.65665327D+05 0.65665327D+05 0.65665327D+05 0.11370272D+01  1  2  2  1  7  1       -2 0.143622991949D-02 0.100000000000D+01
-.330355692711D-05 0.000000000000D+00 -.229245763035D-06 0.724418358132D-07 0.000000000000D+00  7 -2 1 -24 -11 11 23 21 2 0.12108998D+00 0.14369261D-01 0.65665327D+05 0.65665327D+05 0.65665327D+05 0.11370272D+01  1  2  3  1  7  1       -2 -.102756000391D-03 0.100000000000D+01
0.392912293751D-05 0.000000000000D+00 0.000000000000D+00 0.724418358132D-07 0.000000000000D+00  7 -2 1 -24 -11 11 23 21 2 0.12108998D+00 0.14369261D-01 0.65665327D+05 0.65665327D+05 0.65665327D+05 0.11370272D+01  1  2 15  1  7  1       -2 0.122214015684D-03 0.100000000000D+01
  </mgrwgt>
  </event>
  <event>
  8     66 0.26562228E-05 0.13352552E+03 0.75467711E-02 0.10099590E+00
       -2 -1    0    0    0  501 0.00000000E+00 0.00000000E+00 0.24336475E+03 0.24336496E+03 0.32000000E+00 0.0000E+00 0.9000E+01
        1 -1    0    0  501    0 0.00000000E+00 0.00000000E+00 -.42651083E+03 0.42651095E+03 0.32000000E+00 0.0000E+00 0.9000E+01
       25  2    1    2    0    0 0.13303892E+03 -.82988472E+02 0.85026686E+02 0.34898608E+03 0.29995884E+03 0.0000E+00 0.0000E+00
       23  2    3    3    0    0 0.15906548E+02 0.66985774E+02 0.75444149E+02 0.13775317E+03 0.92433777E+02 0.0000E+00 0.0000E+00
      -24  1    1    2    0    0 -.13303892E+03 0.82988472E+02 -.26817276E+03 0.32088983E+03 0.80419002E+02 0.0000E+00 0.9000E+01
      -11  1    4    4    0    0 0.13400587E+02 -.12830938E+02 -.97711140E+01 0.20968628E+02 0.51099893E-03 0.0000E+00 0.9000E+01
       11  1    4    4    0    0 0.25059610E+01 0.79816711E+02 0.85215263E+02 0.11678454E+03 0.51099893E-03 0.0000E+00 0.9000E+01
       23  1    3    3    0    0 0.11713237E+03 -.14997425E+03 0.95825368E+01 0.21123291E+03 0.91188000E+02 0.0000E+00 0.9000E+01
#aMCatNLO 1  0  0  1  2 0.86670501D+02 0.00000000D+00  -5  7  0 0.00000000D+00 0.00000000D+00 0.00000000D+00 0.00000000D+00 0.00000000D+00
  <mgrwgt>
 0.1484825327D-02    9    2    0
 0.322176679676215D+03 0.000000000000000D+00 0.000000000000000D+00 0.322176679676215D+03
 0.322176679676215D+03 0.000000000000000D+00 0.000000000000000D+00 -.322176679676215D+03
 0.257376762265457D+03 -.133038917253276D+03 0.829884724254586D+02 -.187587690802045D+03
 0.190219194275147D+02 0.134005868392786D+02 -.128309379131669D+02 -.419818095587506D+01
 0.145631257218906D+03 0.250596099080889D+01 0.798167114555672D+02 0.121784546684259D+03
 0.222323420440552D+03 0.117132369423188D+03 -.149974245967859D+03 0.700013250736614D+02
 0.000000000000000D+00 0.000000000000000D+00 -.000000000000000D+00 0.000000000000000D+00
 0.413484981436832D+03 0.000000000000000D+00 0.000000000000000D+00 0.413484981436832D+03
 0.346320129113199D+03 0.000000000000000D+00 0.000000000000000D+00 -.346320129113199D+03
 0.280773603446405D+03 -.162951796391294D+03 0.103073618110141D+03 -.187587690802045D+03
 0.167347032923345D+02 0.114130688481170D+02 -.114964094574064D+02 -.419818095587506D+01
 0.152647670104696D+03 -.140737573759083D+02 0.909492426061139D+02 0.121784546684259D+03
 0.200000179400261D+03 0.936576760956830D+02 -.134212050921012D+03 0.700013250736614D+02
 0.109648954306334D+03 0.719548088234023D+02 -.483144003378368D+02 0.671648523236332D+02
0.304677454973D-04 0.000000000000D+00 0.000000000000D+00 0.379613056987D-05 0.000000000000D+00  7 -2 1 -24 -11 11 23 21 0 0.37440757D-01 0.65617076D-01 0.58962724D+05 0.58962724D+05 0.58962724D+05 0.11410496D+01  1  2  2  1  7  1       -2 0.124109501291D-02 0.100000000000D+01
-.152809598654D-05 0.000000000000D+00 -.117004165051D-06 0.379613056987D-05 0.000000000000D+00  7 -2 1 -24 -11 11 23 21 2 0.37440757D-01 0.65617076D-01 0.58962724D+05 0.58962724D+05 0.58962724D+05 0.11410496D+01  1  2  3  1  7  1       -2 -.810446559635D-04 0.100000000000D+01
0.191958190214D-05 0.000000000000D+00 0.000000000000D+00 0.379613056987D-05 0.000000000000D+00  7 -2 1 -24 -11 11 23 21 2 0.37440757D-01 0.65617076D-01 0.58962724D+05 0.58962724D+05 0.58962724D+05 0.11410496D+01  1  2 15  1  7  1       -2 0.101807645739D-03 0.100000000000D+01
0.308907557445D-04 0.000000000000D+00 0.000000000000D+00 0.379613056987D-05 0.000000000000D+00  7 -2 1 -24 -11 11 23 21 2 0.49157638D-01 0.65617076D-01 0.87368861D+05 0.87368861D+05 0.87368861D+05 0.11265664D+01  1  2 12  1  7  1       -2 0.951450437757D-03 0.100000000000D+01
-.355213827455D-04 0.000000000000D+00 0.000000000000D+00 0.379613056987D-05 0.000000000000D+00  7 -2 1 -24 -11 11 23 21 2 0.37440757D-01 0.65617076D-01 0.58962724D+05 0.58962724D+05 0.58962724D+05 0.11410496D+01  1  2  4  1  7  1       -2 -.188392500820D-02 0.100000000000D+01
-.487610282388D-04 0.000000000000D+00 -.148826504469D-04 0.379613056987D-05 0.000000000000D+00  7 -2 1 -24 -11 11 23 21 2 0.51017876D-01 0.65617076D-01 0.58962724D+05 0.58962724D+05 0.58962724D+05 0.11410496D+01  1  2  5  1  7  1       -2 -.144228111908D-02 0.100000000000D+01
0.515629936310D-04 0.000000000000D+00 0.141975839379D-04 0.379613056987D-05 0.000000000000D+00  7 -2 1 -24 -11 11 23 21 2 0.37440757D-01 0.65617076D-01 0.58962724D+05 0.58962724D+05 0.58962724D+05 0.11410496D+01  1  2  6  1  7  1       -2 0.273471373270D-02 0.100000000000D+01
0.111295658222D-05 0.000000000000D+00 0.000000000000D+00 0.379613056987D-05 0.000000000000D+00  7 21 1 -24 -11 11 23 2 2 0.49157638D-01 0.65617076D-01 0.87368861D+05 0.87368861D+05 0.87368861D+05 0.11265664D+01  1  2 12  3  7  1       -2 0.371844025015D-03 0.100000000000D+01
-.157740733435D-05 0.000000000000D+00 -.588271509924D-06 0.379613056987D-05 0.000000000000D+00  7 21 1 -24 -11 11 23 2 2 0.51017876D-01 0.65617076D-01 0.58962724D+05 0.58962724D+05 0.58962724D+05 0.11410496D+01  1  2  5  3  7  1       -2 -.508834743639D-03 0.100000000000D+01
  </mgrwgt>
  </event>
  <event>
  8     66 0.26562228E-05 0.40372310E+03 0.75467711E-02 0.88326443E-01
       -2 -1    0    0    0  501 0.00000000E+00 0.00000000E+00 0.28573495E+03 0.28573513E+03 0.32000000E+00 0.0000E+00 0.9000E+01
        1 -1    0    0  501    0 0.00000000E+00 0.00000000E+00 -.91320111E+03 0.91320117E+03 0.32000000E+00 0.0000E+00 0.9000E+01
       25  2    1    2    0    0 0.26054672E+03 0.27226594E+03 -.23043029E+02 0.48213236E+03 0.29984545E+03 0.0000E+00 0.0000E+00
       23  2    3    3    0    0 0.19069614E+03 0.21608845E+03 0.85747614E+02 0.31424648E+03 0.91317892E+02 0.0000E+00 0.0000E+00
      -24  1    1    2    0    0 -.26054672E+03 -.27226594E+03 -.60442314E+03 0.71680393E+03 0.80419002E+02 0.0000E+00 0.9000E+01
      -11  1    4    4    0    0 0.17678159E+03 0.21747532E+03 0.62546669E+02 0.28715733E+03 0.51099893E-03 0.0000E+00 0.9000E+01
       11  1    4    4    0    0 0.13914549E+02 -.13868671E+01 0.23200945E+02 0.27089148E+02 0.51099893E-03 0.0000E+00 0.9000E+01
       23  1    3    3    0    0 0.69850583E+02 0.56177489E+02 -.10879064E+03 0.16788588E+03 0.91188000E+02 0.0000E+00 0.9000E+01
#aMCatNLO 1  0  0  1  2 0.74753280D+03 0.00000000D+00  -5  7  0 0.00000000D+00 0.00000000D+00 0.00000000D+00 0.00000000D+00 0.00000000D+00
  <mgrwgt>
 0.1267159733D-02    5    2    0
 0.510816612262259D+03 0.000000000000000D+00 0.000000000000000D+00 0.510816612262259D+03
 0.510816612262259D+03 0.000000000000000D+00 0.000000000000000D+00 -.510816612262259D+03
 0.469980001758040D+03 -.260546722465515D+03 -.272265940982409D+03 -.269073686732015D+03
 0.375407975039185D+03 0.176781590535086D+03 0.217475318735510D+03 0.249767697494681D+03
 0.460399776634796D+02 0.139145494271282D+02 -.138686713407905D+01 0.438650368408157D+02
 0.130205270063813D+03 0.698505825033009D+02 0.561774893809779D+02 -.245590476034825D+02
 0.000000000000000D+00 -.000000000000000D+00 -.000000000000000D+00 0.000000000000000D+00
 0.114166268421996D+04 0.000000000000000D+00 0.000000000000000D+00 0.114166268421996D+04
 0.907578568236292D+03 0.000000000000000D+00 0.000000000000000D+00 -.907578568236292D+03
 0.343852580003914D+03 -.507932600708284D+01 -.198345487412074D+03 -.269073686732015D+03
 0.633655688942247D+03 0.493533306889377D+03 0.309128621139995D+03 0.249767697494681D+03
 0.665466090026513D+02 0.492562189747736D+02 0.883937808981947D+01 0.438650368408157D+02
 0.221859707912215D+03 0.180366093092725D+03 0.881555687076547D+02 -.245590476034825D+02
 0.783326666595228D+03 -.718076292949793D+03 -.207778080525395D+03 0.234084115983673D+03
0.122582669207D-03 0.000000000000D+00 0.000000000000D+00 0.155487915709D-04 0.000000000000D+00  7 -2 1 -24 -11 11 23 21 0 0.43959241D-01 0.14049250D+00 0.16299234D+06 0.16299234D+06 0.16299234D+06 0.11047162D+01  1  2  2  1  7  1       -2 0.118523220044D-02 0.100000000000D+01
-.635178142295D-05 0.000000000000D+00 -.470749726512D-06 0.155487915709D-04 0.000000000000D+00  7 -2 1 -24 -11 11 23 21 2 0.43959241D-01 0.14049250D+00 0.16299234D+06 0.16299234D+06 0.16299234D+06 0.11047162D+01  1  2  3  1  7  1       -2 -.749499517676D-04 0.100000000000D+01
0.769986140769D-05 0.000000000000D+00 0.000000000000D+00 0.155487915709D-04 0.000000000000D+00  7 -2 1 -24 -11 11 23 21 2 0.43959241D-01 0.14049250D+00 0.16299234D+06 0.16299234D+06 0.16299234D+06 0.11047162D+01  1  2 15  1  7  1       -2 0.908570687018D-04 0.100000000000D+01
0.433727340138D-04 0.000000000000D+00 -.407357777985D-04 0.155487915709D-04 0.000000000000D+00  7 -2 1 -24 -11 11 23 21 2 0.15991190D+00 0.14049250D+00 0.16299234D+06 0.16299234D+06 0.16299234D+06 0.11047162D+01  1  2  5  1  7  1       -2 0.262356083279D-04 0.100000000000D+01
0.767198602221D-05 0.000000000000D+00 -.619286458027D-05 0.155487915709D-04 0.000000000000D+00  7 21 1 -24 -11 11 23 2 2 0.15991190D+00 0.14049250D+00 0.16299234D+06 0.16299234D+06 0.16299234D+06 0.11047162D+01  1  2  5  3  7  1       -2 0.397848069058D-04 0.100000000000D+01
  </mgrwgt>
  </event>
  <event>
  8     66 0.26562228E-05 0.18873658E+03 0.75467711E-02 0.10312874E+00
       -4 -1    0    0    0  501 0.00000000E+00 0.00000000E+00 0.39283064E+03 0.39283370E+03 0.15500000E+01 0.0000E+00 0.9000E+01
        3 -1    0    0  501    0 0.00000000E+00 0.00000000E+00 -.11999198E+03 0.11999302E+03 0.50000000E+00 0.0000E+00 0.9000E+01
       25  2    1    2    0    0 -.25314492E+02 0.52908202E+02 0.27738855E+03 0.41318727E+03 0.30056483E+03 0.0000E+00 0.0000E+00
       23  2    3    3    0    0 -.12347169E+03 0.17121004E+02 0.20494956E+03 0.25673211E+03 0.91480433E+02 0.0000E+00 0.0000E+00
      -24  1    1    2    0    0 0.25314492E+02 -.52908202E+02 -.45498858E+01 0.99639444E+02 0.80419002E+02 0.0000E+00 0.9000E+01
      -13  1    4    4    0    0 -.89013598E+02 -.17164237E+02 0.18124327E+03 0.20265035E+03 0.10565837E+00 0.0000E+00 0.9000E+01
       13  1    4    4    0    0 -.34458089E+02 0.34285240E+02 0.23706294E+02 0.54081763E+02 0.10565837E+00 0.0000E+00 0.9000E+01
       23  1    3    3    0    0 0.98157195E+02 0.35787198E+02 0.72438990E+02 0.15645516E+03 0.91188000E+02 0.0000E+00 0.9000E+01
#aMCatNLO 1  0  0  1  2 0.10941816D+03 0.00000000D+00  -5  7  0 0.00000000D+00 0.00000000D+00 0.00000000D+00 0.00000000D+00 0.00000000D+00
  <mgrwgt>
 0.1708654914D-03    4    2    0
 0.217111898439714D+03 0.000000000000000D+00 0.000000000000000D+00 0.217111898439714D+03
 0.217111898439714D+03 0.000000000000000D+00 0.000000000000000D+00 -.217111898439714D+03
 0.120534996191478D+03 0.253145006815117D+02 -.529082201046135D+02 -.679806270426844D+02
 0.125452325070205D+03 -.890136619789326D+02 -.171642962661979D+02 0.867193218395244D+02
 0.489759770348006D+02 -.344580122683366D+02 0.342853114366601D+02 -.598407358909540D+01
 0.139260498582944D+03 0.981571735657575D+02 0.357872049341514D+02 -.127546212077446D+02
 0.000000000000000D+00 0.000000000000000D+00 -.000000000000000D+00 -.000000000000000D+00
 0.269484129187736D+03 0.000000000000000D+00 0.000000000000000D+00 0.269484129187736D+03
 0.289557644339372D+03 0.000000000000000D+00 0.000000000000000D+00 -.289557644339372D+03
 0.110185726213143D+03 0.587208008259168D+01 -.319034689200767D+02 -.679806270426844D+02
 0.141436348347537D+03 -.111503890804480D+03 0.713317524257927D+01 0.867193218395244D+02
 0.627453775473655D+02 -.438725700203630D+02 0.444563928659318D+02 -.598407358909540D+01
 0.133430090064266D+03 0.751780277716995D+02 0.606128812115277D+02 -.127546212077446D+02
 0.111244231354797D+03 0.743263529705519D+02 -.802989803999621D+02 -.200735151516357D+02
0.130259679809D-04 0.000000000000D+00 0.000000000000D+00 0.599730280694D-06 0.000000000000D+00  7 -4 3 -24 -13 13 23 21 0 0.60435799D-01 0.18460619D-01 0.35621496D+05 0.35621496D+05 0.35621496D+05 0.11604779D+01  1  2  2  1  7  1       -4 0.257959345643D-03 0.100000000000D+01
-.706404484073D-06 0.000000000000D+00 -.500231468628D-07 0.599730280694D-06 0.000000000000D+00  7 -4 3 -24 -13 13 23 21 2 0.60435799D-01 0.18460619D-01 0.35621496D+05 0.35621496D+05 0.35621496D+05 0.11604779D+01  1  2  3  1  7  1       -4 -.188394593310D-04 0.100000000000D+01
0.825195063664D-06 0.000000000000D+00 0.000000000000D+00 0.599730280694D-06 0.000000000000D+00  7 -4 3 -24 -13 13 23 21 2 0.60435799D-01 0.18460619D-01 0.35621496D+05 0.35621496D+05 0.35621496D+05 0.11604779D+01  1  2 15  1  7  1       -4 0.220075455246D-04 0.100000000000D+01
-.338446227855D-05 0.000000000000D+00 0.000000000000D+00 0.599730280694D-06 0.000000000000D+00  7 -4 3 -24 -13 13 23 21 2 0.60435799D-01 0.18460619D-01 0.35621496D+05 0.35621496D+05 0.35621496D+05 0.11604779D+01  1  2  4  1  7  1       -4 -.902619404202D-04 0.100000000000D+01
  </mgrwgt>
  </event>
  <event>
  9     66 0.26562228E-05 0.62017061E+03 0.75467711E-02 0.91803009E-01
       -2 -1    0    0    0  501 0.00000000E+00 0.00000000E+00 0.32209647E+03 0.32209662E+03 0.32000000E+00 0.0000E+00 0.9000E+01
        1 -1    0    0  502    0 0.00000000E+00 0.00000000E+00 -.15212316E+04 0.15212316E+04 0.32000000E+00 0.0000E+00 0.9000E+01
       25  2    1    2    0    0 -.51633228E+03 -.29459988E+03 -.35123442E+03 0.75269795E+03 0.29966726E+03 0.0000E+00 0.0000E+00
       23  2    3    3    0    0 -.26093936E+03 -.18182191E+03 -.54206907E+02 0.33498392E+03 0.90151424E+02 0.0000E+00 0.0000E+00
      -24  1    1    2    0    0 0.50974876E+03 0.34650899E+03 -.82634658E+03 0.10340349E+04 0.80419002E+02 0.0000E+00 0.9000E+01
      -11  1    4    4    0    0 -.35223386E+02 -.52238439E-01 -.26055804E+02 0.43813179E+02 0.51099893E-03 0.0000E+00 0.9000E+01
       11  1    4    4    0    0 -.22571597E+03 -.18176967E+03 -.28151103E+02 0.29117074E+03 0.51099893E-03 0.0000E+00 0.9000E+01
       23  1    3    3    0    0 -.25539293E+03 -.11277797E+03 -.29702752E+03 0.41771403E+03 0.91188000E+02 0.0000E+00 0.9000E+01
       21  1    1    2  502  501 0.65835242E+01 -.51909109E+02 -.21554139E+02 0.56595422E+02 0.75000000E+00 0.0000E+00 0.9000E+01
#aMCatNLO 2  0  0  2  2 0.52324930D+02 0.00000000D+00  -5  7  0 0.00000000D+00 0.00000000D+00 0.00000000D+00 0.00000000D+00 0.00000000D+00
  <mgrwgt>
 0.9751052110D-03    2    2    0
 0.671375331340261D+03 0.000000000000000D+00 0.000000000000000D+00 0.671375331340261D+03
 0.671375331340261D+03 0.000000000000000D+00 0.000000000000000D+00 -.671375331340261D+03
 0.640344533325953D+03 0.512912676479443D+03 0.321562446835490D+03 -.192593054126904D+03
 0.352786588539946D+02 -.350501278305194D+02 -.141832958016033D+01 0.374975343227036D+01
 0.368678731605578D+03 -.223924202064214D+03 -.195897230320662D+03 0.217729727003219D+03
 0.298448738894996D+03 -.253938346584710D+03 -.124246886934667D+03 -.288864263085852D+02
 0.000000000000000D+00 0.000000000000000D+00 -.000000000000000D+00 0.000000000000000D+00
 0.710532330262629D+03 0.000000000000000D+00 0.000000000000000D+00 0.710532330262629D+03
 0.689595630484395D+03 0.000000000000000D+00 0.000000000000000D+00 -.689595630484395D+03
 0.650746939414509D+03 0.509748757912995D+03 0.346508993405958D+03 -.192593054126904D+03
 0.354224550811960D+02 -.352233863267384D+02 -.522384327805923D-01 0.374975343227036D+01
 0.362483306813240D+03 -.225715970654804D+03 -.181769673732238D+03 0.217729727003219D+03
 0.295117085700145D+03 -.255392925111869D+03 -.112777972610208D+03 -.288864263085852D+02
 0.563581737379343D+02 0.658352418041696D+01 -.519091086307325D+02 0.209366997782331D+02
-.195255110091D-04 0.000000000000D+00 0.000000000000D+00 0.127768995736D-04 0.000000000000D+00  7 -2 1 -24 -11 11 23 21 2 0.46822297D-01 0.22785121D+00 0.38461159D+06 0.38461159D+06 0.38461159D+06 0.10766580D+01  1  2  8  2  7  2        1 -.732296344082D-04 0.100000000000D+01
0.335655538266D-03 0.000000000000D+00 0.000000000000D+00 0.127768995736D-04 0.287790831473D-07  7 -2 1 -24 -11 11 23 21 2 0.49553140D-01 0.23403481D+00 0.41773557D+06 0.41773557D+06 0.41773557D+06 0.10740720D+01  1  2  1  2  7  2        1 0.104833484536D-02 0.100000000000D+01
  </mgrwgt>
  </event>
  <event>
  8     66 0.26562228E-05 0.28995041E+03 0.75467711E-02 0.95106924E-01
       -2 -1    0    0    0  501 0.00000000E+00 0.00000000E+00 0.52947792E+02 0.52948759E+02 0.32000000E+00 0.0000E+00 0.9000E+01
        1 -1    0    0  501    0 0.00000000E+00 0.00000000E+00 -.19141863E+04 0.19141863E+04 0.32000000E+00 0.0000E+00 0.9000E+01
       25  2    1    2    0    0 0.21461770E+03 0.95389024E+02 -.97331149E+03 0.10451582E+04 0.29976745E+03 0.0000E+00 0.0000E+00
       23  2    3    3    0    0 0.68863558E+01 0.79328405E+02 -.14672663E+03 0.18785540E+03 0.86142502E+02 0.0000E+00 0.0000E+00
      -24  1    1    2    0    0 -.21461770E+03 -.95389024E+02 -.88792698E+03 0.92197688E+03 0.80419002E+02 0.0000E+00 0.9000E+01
      -11  1    4    4    0    0 -.70844828E+01 0.87665380E+02 -.79065103E+02 0.11826538E+03 0.51099893E-03 0.0000E+00 0.9000E+01
       11  1    4    4    0    0 0.13970839E+02 -.83369753E+01 -.67661527E+02 0.69590026E+02 0.51099893E-03 0.0000E+00 0.9000E+01
       23  1    3    3    0    0 0.20773134E+03 0.16060620E+02 -.82658486E+03 0.85730277E+03 0.91188000E+02 0.0000E+00 0.9000E+01
#aMCatNLO 1  0  0  2  2 0.30203515D+03 0.00000000D+00  -5  7  0 0.00000000D+00 0.00000000D+00 0.00000000D+00 0.00000000D+00 0.00000000D+00
  <mgrwgt>
 0.2328667483D-02    3    2    0
 0.318359723322494D+03 0.000000000000000D+00 0.000000000000000D+00 0.318359723322494D+03
 0.318359723322494D+03 0.000000000000000D+00 0.000000000000000D+00 -.318359723322494D+03
 0.252873026529508D+03 -.214617700506390D+03 -.953890242001584D+02 -.481427905642599D+02
 0.134258433331869D+03 -.708448280827037D+01 0.876653798258490D+02 0.101439234047074D+03
 0.172112572637321D+02 0.139708386180233D+02 -.833697529473367D+01 -.561586038310438D+01
 0.232376729519879D+03 0.207731344696637D+03 0.160606196690430D+02 -.476805830997094D+02
 0.000000000000000D+00 -.000000000000000D+00 -.000000000000000D+00 0.000000000000000D+00
 0.605665455192243D+03 0.000000000000000D+00 0.000000000000000D+00 0.605665455192243D+03
 0.442397982301724D+03 0.000000000000000D+00 0.000000000000000D+00 -.442397982301724D+03
 0.169567012792279D+03 -.123152431666832D+03 -.692929012537253D+02 -.481427905642599D+02
 0.156775766349588D+03 0.559292442004355D+02 0.105643941395669D+03 0.101439234047074D+03
 0.243373960532124D+02 0.229668105710065D+02 -.577031810248823D+01 -.561586038310438D+01
 0.354044511401966D+03 0.334701261043241D+03 0.522866384575680D+02 -.476805830997094D+02
 0.343338750896922D+03 -.290444884147851D+03 -.828673604970238D+02 0.163267472890519D+03
0.685845513073D-04 0.000000000000D+00 0.000000000000D+00 0.228901173720D-06 0.000000000000D+00  7 -2 1 -24 -11 11 23 21 0 0.81458906D-02 0.29449027D+00 0.84071238D+05 0.84071238D+05 0.84071238D+05 0.11279585D+01  1  2  2  2  7  2        1 0.229877559144D-02 0.100000000000D+01
-.376977673302D-05 0.000000000000D+00 -.263382735747D-06 0.228901173720D-06 0.000000000000D+00  7 -2 1 -24 -11 11 23 21 2 0.81458906D-02 0.29449027D+00 0.84071238D+05 0.84071238D+05 0.84071238D+05 0.11279585D+01  1  2  3  2  7  2        1 -.160757847000D-03 0.100000000000D+01
0.447074255961D-05 0.000000000000D+00 0.000000000000D+00 0.228901173720D-06 0.000000000000D+00  7 -2 1 -24 -11 11 23 21 2 0.81458906D-02 0.29449027D+00 0.84071238D+05 0.84071238D+05 0.84071238D+05 0.11279585D+01  1  2 15  2  7  2        1 0.190649738506D-03 0.100000000000D+01
  </mgrwgt>
  </event>
  <event>
  8     66 0.26562228E-05 0.34431158E+03 0.75467711E-02 0.98463908E-01
       -4 -1    0    0    0  501 0.00000000E+00 0.00000000E+00 0.59186088E+03 0.59186291E+03 0.15500000E+01 0.0000E+00 0.9000E+01
        3 -1    0    0  501    0 0.00000000E+00 0.00000000E+00 -.26492098E+03 0.26492145E+03 0.50000000E+00 0.0000E+00 0.9000E+01
       25  2    1    2    0    0 0.14265176E+03 -.27559492E+03 0.52402405E+02 0.43471785E+03 0.29988584E+03 0.0000E+00 0.0000E+00
       23  2    3    3    0    0 0.26279541E+02 -.16395981E+03 -.82015689E+02 0.20583280E+03 0.89817233E+02 0.0000E+00 0.0000E+00
      -24  1    1    2    0    0 -.14265176E+03 0.27559492E+03 0.27453749E+03 0.42206651E+03 0.80419002E+02 0.0000E+00 0.9000E+01
      -11  1    4    4    0    0 0.49957344E+02 -.14186517E+03 -.45743054E+02 0.15720652E+03 0.51099893E-03 0.0000E+00 0.9000E+01
       11  1    4    4    0    0 -.23677802E+02 -.22094644E+02 -.36272635E+02 0.48626286E+02 0.51099893E-03 0.0000E+00 0.9000E+01
       23  1    3    3    0    0 0.11637222E+03 -.11163511E+03 0.13441809E+03 0.22888505E+03 0.91188000E+02 0.0000E+00 0.9000E+01
#aMCatNLO 1  0  0  1  1 0.34204296D+02 0.00000000D+00  -5  7  0 0.00000000D+00 0.00000000D+00 0.00000000D+00 0.00000000D+00 0.00000000D+00
  <mgrwgt>
 0.1403164502D-03    4    2    0
 0.395976560557083D+03 0.000000000000000D+00 0.000000000000000D+00 0.395976560557083D+03
 0.395976560557083D+03 0.000000000000000D+00 0.000000000000000D+00 -.395976560557083D+03
 0.343281333790926D+03 -.142651757153248D+03 0.275594923730705D+03 0.122771219631737D+03
 0.188959816403282D+03 0.499573435935148D+02 -.141865169635018D+03 -.114386842253246D+03
 0.675812896889734D+02 -.236778023601210D+02 -.220946444847166D+02 -.593162631705165D+02
 0.192130681230985D+03 0.116372215919854D+03 -.111635109610970D+03 0.509318857920261D+02
 0.000000000000000D+00 -.000000000000000D+00 -.000000000000000D+00 -.000000000000000D+00
 0.397951578514701D+03 0.000000000000000D+00 0.000000000000000D+00 0.397951578514701D+03
 0.578479571029750D+03 0.000000000000000D+00 0.000000000000000D+00 -.578479571029750D+03
 0.339505953354369D+03 -.128119213113584D+03 0.278046347341554D+03 0.122771219631737D+03
 0.190244406192196D+03 0.580283814828340D+02 -.140503705820290D+03 -.114386842253246D+03
 0.664771710342801D+02 -.208244825619514D+02 -.216133319558540D+02 -.593162631705165D+02
 0.196463884724717D+03 0.124643119244572D+03 -.110239931475750D+03 0.509318857920261D+02
 0.183739734238890D+03 -.337278050518706D+02 -.568937808965970D+01 -.180527992515050D+03
0.827234664576D-04 0.000000000000D+00 0.000000000000D+00 0.254588733086D-05 0.000000000000D+00  7 -4 3 -24 -11 11 23 21 0 0.91055712D-01 0.40757266D-01 0.11855047D+06 0.11855047D+06 0.11855047D+06 0.11157074D+01  1  2  2  1  7  1       -4 0.142763230956D-03 0.100000000000D+01
-.448652823111D-05 0.000000000000D+00 -.317679892786D-06 0.254588733086D-05 0.000000000000D+00  7 -4 3 -24 -11 11 23 21 2 0.91055712D-01 0.40757266D-01 0.11855047D+06 0.11855047D+06 0.11855047D+06 0.11157074D+01  1  2  3  1  7  1       -4 -.963826102194D-05 0.100000000000D+01
0.521786263454D-05 0.000000000000D+00 0.000000000000D+00 0.254588733086D-05 0.000000000000D+00  7 -4 3 -24 -11 11 23 21 2 0.91055712D-01 0.40757266D-01 0.11855047D+06 0.11855047D+06 0.11855047D+06 0.11157074D+01  1  2 15  1  7  1       -4 0.112093626648D-04 0.100000000000D+01
-.187028995764D-05 0.000000000000D+00 0.000000000000D+00 0.254588733086D-05 0.000000000000D+00  7 -4 3 -24 -11 11 23 21 2 0.91055712D-01 0.40757266D-01 0.11855047D+06 0.11855047D+06 0.11855047D+06 0.11157074D+01  1  2  4  1  7  1       -4 -.401788239590D-05 0.100000000000D+01
  </mgrwgt>
  </event>
  <event>
  9     66 0.26562228E-05 0.12716803E+03 0.75467711E-02 0.10187452E+00
       -2 -1    0    0    0  502 0.00000000E+00 0.00000000E+00 0.36157005E+03 0.36157019E+03 0.32000000E+00 0.0000E+00 0.9000E+01
        1 -1    0    0  501    0 0.00000000E+00 0.00000000E+00 -.38394099E+03 0.38394113E+03 0.32000000E+00 0.0000E+00 0.9000E+01
       25  2    1    2    0    0 0.37773932E+02 -.18035225E+03 -.17859020E+03 0.39280667E+03 0.29740345E+03 0.0000E+00 0.0000E+00
       23  2    3    3    0    0 0.64869482E+02 -.10930237E+03 0.23328327E+02 0.15856620E+03 0.91891081E+02 0.0000E+00 0.0000E+00
      -24  1    1    2    0    0 -.24817029E+02 -.28893727E+02 -.36477191E+01 0.89057589E+02 0.80419002E+02 0.0000E+00 0.9000E+01
      -13  1    4    4    0    0 0.51875675E+02 -.41821559E+02 -.28519190E+02 0.72480920E+02 0.10565837E+00 0.0000E+00 0.9000E+01
       13  1    4    4    0    0 0.12993807E+02 -.67480815E+02 0.51847517E+02 0.86085281E+02 0.10565837E+00 0.0000E+00 0.9000E+01
       23  1    3    3    0    0 -.27095550E+02 -.71049880E+02 -.20191852E+03 0.23424047E+03 0.91188000E+02 0.0000E+00 0.9000E+01
       21  1    1    2  501  502 -.12956903E+02 0.20924598E+03 0.15986697E+03 0.26364706E+03 0.75000000E+00 0.0000E+00 0.9000E+01
#aMCatNLO 2  0  0  1  1 0.20964676D+03 0.00000000D+00  -5  7  0 0.00000000D+00 0.00000000D+00 0.00000000D+00 0.00000000D+00 0.00000000D+00
  <mgrwgt>
 0.2646939953D-03    1    2    0
 0.196869716851012D+03 0.000000000000000D+00 0.000000000000000D+00 0.196869716851012D+03
 0.196869716851012D+03 0.000000000000000D+00 0.000000000000000D+00 -.196869716851012D+03
 0.927636999349507D+02 -.277099377403572D+02 0.178176318474127D+02 0.324434803470068D+02
 0.515710814055650D+02 0.500519503827187D+02 -.123671792717360D+02 -.119648530539688D+01
 0.930600585100436D+02 0.979648456499259D+01 -.158468934912040D+02 0.911760897754397D+02
 0.156344593851465D+03 -.321384972073540D+02 0.103964409155273D+02 -.122423084817050D+03
 0.000000000000000D+00 -.000000000000000D+00 0.000000000000000D+00 0.000000000000000D+00
 0.538293898318671D+03 0.000000000000000D+00 0.000000000000000D+00 0.538293898318671D+03
 0.257891230730133D+03 0.000000000000000D+00 0.000000000000000D+00 -.257891230730133D+03
 0.947129487686237D+02 -.248174915210541D+02 -.288935876563155D+02 0.324434803470068D+02
 0.666452112476506D+02 0.518758269620652D+02 -.418216592468522D+02 -.119648530539688D+01
 0.114173361109938D+03 0.129937441983287D+02 -.674806613194457D+02 0.911760897754397D+02
 0.170543028286869D+03 -.270951764880575D+02 -.710500729641738D+02 -.122423084817050D+03
 0.350110579635722D+03 -.129569031512823D+02 0.209245981186787D+03 0.280402667588538D+03
0.943123007081D-05 0.000000000000D+00 0.000000000000D+00 0.239155192663D-07 0.619239261790D-11  7 -2 1 -24 -13 13 23 21 2 0.55626104D-01 0.59067783D-01 0.76374129D+05 0.76374129D+05 0.76374129D+05 0.11314561D+01  1  2  1  1  7  1       -2 0.264693995276D-03 0.100000000000D+01
  </mgrwgt>
  </event>
  <event>
  8     66 0.26562228E-05 0.12755851E+03 0.75467711E-02 0.10216710E+00
       -2 -1    0    0    0  501 0.00000000E+00 0.00000000E+00 0.26169298E+03 0.26169318E+03 0.32000000E+00 0.0000E+00 0.9000E+01
        1 -1    0    0  501    0 0.00000000E+00 0.00000000E+00 -.40697091E+03 0.40697104E+03 0.32000000E+00 0.0000E+00 0.9000E+01
       25  2    1    2    0    0 -.55224040E+02 -.97163408E+02 -.31578248E+03 0.44950801E+03 0.29974732E+03 0.0000E+00 0.0000E+00
       23  2    3    3    0    0 0.72148669E+01 -.11534926E+03 -.30435249E+03 0.33692365E+03 0.86773284E+02 0.0000E+00 0.0000E+00
      -24  1    1    2    0    0 0.55224040E+02 0.97163408E+02 0.17050455E+03 0.21915620E+03 0.80419002E+02 0.0000E+00 0.9000E+01
      -11  1    4    4    0    0 -.22697079E+01 0.10703894E+02 -.51088281E+01 0.12075804E+02 0.51099893E-03 0.0000E+00 0.9000E+01
       11  1    4    4    0    0 0.94845748E+01 -.12605315E+03 -.29924366E+03 0.32484785E+03 0.51099893E-03 0.0000E+00 0.9000E+01
       23  1    3    3    0    0 -.62438907E+02 0.18185848E+02 -.11429993E+02 0.11258436E+03 0.91188000E+02 0.0000E+00 0.9000E+01
#aMCatNLO 1  0  0  2  1 0.13763807D+03 0.00000000D+00  -5  7  0 0.00000000D+00 0.00000000D+00 0.00000000D+00 0.00000000D+00 0.00000000D+00
  <mgrwgt>
 0.1021185514D-02    9    2    0
 0.326345733533642D+03 0.000000000000000D+00 0.000000000000000D+00 0.326345733533642D+03
 0.326345733533642D+03 0.000000000000000D+00 0.000000000000000D+00 -.326345733533642D+03
 0.262470808309180D+03 0.552240399233314D+02 0.971634077390813D+02 0.223457572866035D+03
 0.112341872589086D+02 -.226970789668786D+01 0.107038941538832D+02 -.254598495172301D+01
 0.266191053125719D+03 0.948457483959887D+01 -.126053150345152D+03 -.234261227889623D+03
 0.112795418373477D+03 -.624389068662424D+02 0.181858484521870D+02 0.133496399753111D+02
 0.000000000000000D+00 0.000000000000000D+00 0.000000000000000D+00 -.000000000000000D+00
 0.368505842187344D+03 0.000000000000000D+00 0.000000000000000D+00 0.368505842187344D+03
 0.468905390647845D+03 0.000000000000000D+00 0.000000000000000D+00 -.468905390647845D+03
 0.245263045460024D+03 0.194954938406630D+02 0.580808433365496D+02 0.223457572866035D+03
 0.101382297935431D+02 -.377365604174031D+01 0.905876283224816D+01 -.254598495172301D+01
 0.290314995815546D+03 -.296760047973064D+02 -.168889930553296D+03 -.234261227889623D+03
 0.121329745824832D+03 -.789139787096377D+02 0.164178752389805D+00 0.133496399753111D+02
 0.170365215941244D+03 0.928681457080214D+02 0.101586145632108D+03 -.100399548460501D+03
0.420728905941D-04 0.000000000000D+00 0.000000000000D+00 0.498953269945D-06 0.000000000000D+00  7 -2 1 -24 -11 11 23 21 0 0.40260483D-01 0.62610934D-01 0.37450135D+05 0.37450135D+05 0.37450135D+05 0.11585022D+01  1  2  2  2  7  2        1 0.160412287363D-02 0.100000000000D+01
-.156130035531D-05 0.000000000000D+00 -.161570977928D-06 0.498953269945D-06 0.000000000000D+00  7 -2 1 -24 -11 11 23 21 2 0.40260483D-01 0.62610934D-01 0.37450135D+05 0.37450135D+05 0.37450135D+05 0.11585022D+01  1  2  3  2  7  2        1 -.798942385630D-04 0.100000000000D+01
0.262089175783D-05 0.000000000000D+00 0.000000000000D+00 0.498953269945D-06 0.000000000000D+00  7 -2 1 -24 -11 11 23 21 2 0.40260483D-01 0.62610934D-01 0.37450135D+05 0.37450135D+05 0.37450135D+05 0.11585022D+01  1  2 15  2  7  2        1 0.134115226859D-03 0.100000000000D+01
0.656001970248D-05 0.000000000000D+00 0.000000000000D+00 0.498953269945D-06 0.000000000000D+00  7 -2 1 -24 -11 11 23 21 2 0.40260483D-01 0.92608849D-01 0.73067275D+05 0.73067275D+05 0.73067275D+05 0.11330797D+01  1  2 12  2  7  2        1 0.186132236823D-03 0.100000000000D+01
-.347721082146D-04 0.000000000000D+00 0.000000000000D+00 0.498953269945D-06 0.000000000000D+00  7 -2 1 -24 -11 11 23 21 2 0.40260483D-01 0.62610934D-01 0.37450135D+05 0.37450135D+05 0.37450135D+05 0.11585022D+01  1  2  4  2  7  2        1 -.177934444169D-02 0.100000000000D+01
-.298728898187D-04 0.000000000000D+00 -.169931602569D-04 0.498953269945D-06 0.000000000000D+00  7 -2 1 -24 -11 11 23 21 2 0.40260483D-01 0.98419678D-01 0.37450135D+05 0.37450135D+05 0.37450135D+05 0.11585022D+01  1  2  5  2  7  2        1 -.822375162640D-03 0.100000000000D+01
0.354699032352D-04 0.000000000000D+00 0.153917451656D-04 0.498953269945D-06 0.000000000000D+00  7 -2 1 -24 -11 11 23 21 2 0.40260483D-01 0.62610934D-01 0.37450135D+05 0.37450135D+05 0.37450135D+05 0.11585022D+01  1  2  6  2  7  2        1 0.181505172995D-02 0.100000000000D+01
0.307349862908D-06 0.000000000000D+00 0.000000000000D+00 0.498953269945D-06 0.000000000000D+00  7 -2 21 -24 -11 11 23 -1 2 0.40260483D-01 0.92608849D-01 0.73067275D+05 0.73067275D+05 0.73067275D+05 0.11330797D+01  1  2 12  4  7  2        1 0.219896310607D-04 0.100000000000D+01
-.877840070128D-06 0.000000000000D+00 -.886477057499D-06 0.498953269945D-06 0.000000000000D+00  7 -2 21 -24 -11 11 23 -1 2 0.40260483D-01 0.98419678D-01 0.37450135D+05 0.37450135D+05 0.37450135D+05 0.11585022D+01  1  2  5  4  7  2        1 -.586123417410D-04 0.100000000000D+01
  </mgrwgt>
  </event>
  <event>
  8     66 0.26562228E-05 0.12761456E+03 0.75467711E-02 0.10427945E+00
       -2 -1    0    0    0  501 0.00000000E+00 0.00000000E+00 0.41142545E+03 0.41142557E+03 0.32000000E+00 0.0000E+00 0.9000E+01
        1 -1    0    0  501    0 0.00000000E+00 0.00000000E+00 -.17214012E+03 0.17214041E+03 0.32000000E+00 0.0000E+00 0.9000E+01
       25  2    1    2    0    0 -.91819087E+02 0.84998422E+02 0.28283818E+02 0.32541035E+03 0.29905927E+03 0.0000E+00 0.0000E+00
       23  2    3    3    0    0 -.15077190E+03 0.13624053E+02 -.35770926E+02 0.18053801E+03 0.91633134E+02 0.0000E+00 0.0000E+00
      -24  1    1    2    0    0 0.91819087E+02 -.84998422E+02 0.21100151E+03 0.25815563E+03 0.80419002E+02 0.0000E+00 0.9000E+01
      -11  1    4    4    0    0 0.35252096E+01 0.18219062E+02 -.16761950E+02 0.25006485E+02 0.51099893E-03 0.0000E+00 0.9000E+01
       11  1    4    4    0    0 -.15429711E+03 -.45950091E+01 -.19008976E+02 0.15553152E+03 0.51099893E-03 0.0000E+00 0.9000E+01
       23  1    3    3    0    0 0.58952817E+02 0.71374369E+02 0.64054743E+02 0.14487235E+03 0.91188000E+02 0.0000E+00 0.9000E+01
#aMCatNLO 1  0  0  2  1 0.10676772D+02 0.00000000D+00  -5  7  0 0.00000000D+00 0.00000000D+00 0.00000000D+00 0.00000000D+00 0.00000000D+00
  <mgrwgt>
 0.7849304808D-03    9    2    0
 0.266125811999404D+03 0.000000000000000D+00 0.000000000000000D+00 0.266125811999404D+03
 0.266125811999404D+03 0.000000000000000D+00 0.000000000000000D+00 -.266125811999404D+03
 0.188184075390204D+03 0.918190865093642D+02 -.849984222544536D+02 0.115284664387485D+03
 0.349530603013337D+02 0.352520962191577D+01 0.182190622066326D+02 -.296201805170238D+02
 0.179072211073820D+03 -.154297113313016D+03 -.459500908840712D+01 -.907642192365171D+02
 0.130042277233450D+03 0.589528171817355D+02 0.713743691362281D+02 0.509973536605585D+01
 0.000000000000000D+00 -.000000000000000D+00 0.000000000000000D+00 -.000000000000000D+00
 0.268260835825361D+03 0.000000000000000D+00 0.000000000000000D+00 0.268260835825361D+03
 0.279870703978512D+03 0.000000000000000D+00 0.000000000000000D+00 -.279870703978512D+03
 0.190722430041069D+03 0.948204297585945D+02 -.873290422703710D+02 0.115284664387485D+03
 0.347917942174501D+02 0.407766318309241D+01 0.177900678462331D+02 -.296201805170238D+02
 0.176720127488931D+03 -.151478858893610D+03 -.678345593183257D+01 -.907642192365171D+02
 0.130124347541611D+03 0.610136140584080D+02 0.697741075031260D+02 0.509973536605585D+01
 0.157728405148118D+02 -.843284810648492D+01 0.654832285284458D+01 -.116098681531512D+02
0.112654386924D-04 0.000000000000D+00 0.000000000000D+00 0.757893251381D-06 0.000000000000D+00  7 -2 1 -24 -11 11 23 21 0 0.63296255D-01 0.26483127D-01 0.50986030D+05 0.50986030D+05 0.50986030D+05 0.11465501D+01  1  2  2  2  7  2        1 0.540618687706D-03 0.100000000000D+01
-.605312276215D-06 0.000000000000D+00 -.432622508371D-07 0.757893251381D-06 0.000000000000D+00  7 -2 1 -24 -11 11 23 21 2 0.63296255D-01 0.26483127D-01 0.50986030D+05 0.50986030D+05 0.50986030D+05 0.11465501D+01  1  2  3  2  7  2        1 -.381863831285D-04 0.100000000000D+01
0.724358515398D-06 0.000000000000D+00 0.000000000000D+00 0.757893251381D-06 0.000000000000D+00  7 -2 1 -24 -11 11 23 21 2 0.63296255D-01 0.26483127D-01 0.50986030D+05 0.50986030D+05 0.50986030D+05 0.11465501D+01  1  2 15  2  7  2        1 0.456964659040D-04 0.100000000000D+01
0.693595184540D-04 0.000000000000D+00 0.000000000000D+00 0.757893251381D-06 0.000000000000D+00  7 -2 1 -24 -11 11 23 21 2 0.63296255D-01 0.27953823D-01 0.53480965D+05 0.53480965D+05 0.53480965D+05 0.11447332D+01  1  2 12  2  7  2        1 0.406765814245D-02 0.100000000000D+01
-.706048315983D-04 0.000000000000D+00 0.000000000000D+00 0.757893251381D-06 0.000000000000D+00  7 -2 1 -24 -11 11 23 21 2 0.63296255D-01 0.26483127D-01 0.50986030D+05 0.50986030D+05 0.50986030D+05 0.11465501D+01  1  2  4  2  7  2        1 -.445413591641D-02 0.100000000000D+01
-.235241442967D-03 0.000000000000D+00 -.281465752054D-04 0.757893251381D-06 0.000000000000D+00  7 -2 1 -24 -11 11 23 21 2 0.63296255D-01 0.28036850D-01 0.50986030D+05 0.50986030D+05 0.50986030D+05 0.11465501D+01  1  2  5  2  7  2        1 -.137908428197D-01 0.100000000000D+01
0.236507343028D-03 0.000000000000D+00 0.281008938954D-04 0.757893251381D-06 0.000000000000D+00  7 -2 1 -24 -11 11 23 21 2 0.63296255D-01 0.26483127D-01 0.50986030D+05 0.50986030D+05 0.50986030D+05 0.11465501D+01  1  2  6  2  7  2        1 0.149201666122D-01 0.100000000000D+01
0.102853930360D-05 0.000000000000D+00 0.000000000000D+00 0.757893251381D-06 0.000000000000D+00  7 -2 21 -24 -11 11 23 -1 2 0.63296255D-01 0.27953823D-01 0.53480965D+05 0.53480965D+05 0.53480965D+05 0.11447332D+01  1  2 12  4  7  2        1 0.416270596233D-03 0.100000000000D+01
-.228114330205D-05 0.000000000000D+00 -.276756582577D-06 0.757893251381D-06 0.000000000000D+00  7 -2 21 -24 -11 11 23 -1 2 0.63296255D-01 0.28036850D-01 0.50986030D+05 0.50986030D+05 0.50986030D+05 0.11465501D+01  1  2  5  4  7  2        1 -.922314904483D-03 0.100000000000D+01
  </mgrwgt>
  </event>
  <event>
  8     66 0.26562228E-05 0.45676149E+03 0.75467711E-02 0.90148122E-01
       -2 -1    0    0    0  501 0.00000000E+00 0.00000000E+00 0.79677096E+03 0.79677103E+03 0.32000000E+00 0.0000E+00 0.9000E+01
        1 -1    0    0  501    0 0.00000000E+00 0.00000000E+00 -.22121843E+04 0.22121843E+04 0.32000000E+00 0.0000E+00 0.9000E+01
       25  2    1    2    0    0 0.36312682E+03 0.19765074E+03 0.69179439E+03 0.86006761E+03 0.30034967E+03 0.0000E+00 0.0000E+00
       23  2    3    3    0    0 0.28854601E+03 0.68272765E+02 0.54923770E+03 0.63437176E+03 0.11333804E+03 0.0000E+00 0.0000E+00
      -24  1    1    2    0    0 -.36312682E+03 -.19765074E+03 -.21072077E+04 0.21488877E+04 0.80419002E+02 0.0000E+00 0.9000E+01
      -11  1    4    4    0    0 0.28975599E+03 0.83926636E+02 0.52483886E+03 0.60535778E+03 0.51099893E-03 0.0000E+00 0.9000E+01
       11  1    4    4    0    0 -.12099781E+01 -.15653871E+02 0.24398842E+02 0.29013983E+02 0.51099893E-03 0.0000E+00 0.9000E+01
       23  1    3    3    0    0 0.74580802E+02 0.12937797E+03 0.14255669E+03 0.22569585E+03 0.91188000E+02 0.0000E+00 0.9000E+01
#aMCatNLO 1  0  0  1  1 0.51023527D+03 0.00000000D+00  -5  7  0 0.00000000D+00 0.00000000D+00 0.00000000D+00 0.00000000D+00 0.00000000D+00
  <mgrwgt>
 0.9413463385D-03    7    2    0
 0.132763109935501D+04 0.000000000000000D+00 0.000000000000000D+00 0.132763109935501D+04
 0.132763109935501D+04 0.000000000000000D+00 0.000000000000000D+00 -.132763109935501D+04
 0.131186190148148D+04 -.363126815578747D+03 -.197650738750134D+03 -.124241198234860D+04
 0.965764675486424D+03 0.289755991302239D+03 0.839266359343111D+02 0.917441656838518D+03
 0.458848185724258D+02 -.120997814492708D+01 -.156538712627981D+02 0.431150651489823D+02
 0.331750803169697D+03 0.745808024214349D+02 0.129377974078621D+03 0.281855260361104D+03
 0.000000000000000D+00 0.000000000000000D+00 -.000000000000000D+00 0.000000000000000D+00
 0.174547579004888D+04 0.000000000000000D+00 0.000000000000000D+00 0.174547579004888D+04
 0.151729769606796D+04 0.000000000000000D+00 0.000000000000000D+00 -.151729769606796D+04
 0.138651856843649D+04 -.601620876347686D+03 -.102133794231246D+03 -.124241198234860D+04
 0.937741492950691D+03 0.121516219012791D+03 0.151306716359921D+03 0.917441656838518D+03
 0.458217756375858D+02 -.931538740661649D+01 -.124076523663798D+02 0.431150651489823D+02
 0.333759388562658D+03 0.157602506575875D+02 0.152935623108887D+03 0.281855260361104D+03
 0.558932260529409D+03 0.473659794083923D+03 -.189700892871183D+03 0.228178093980922D+03
0.102665594079D-01 0.000000000000D+00 0.000000000000D+00 0.447488488556D-06 0.000000000000D+00  7 -2 1 -24 -11 11 23 21 0 0.12258015D+00 0.34033605D+00 0.20863106D+06 0.20863106D+06 0.20863106D+06 0.10964189D+01  1  2  2  1  7  1       -2 0.131262100686D-02 0.100000000000D+01
0.219140328180D-03 0.000000000000D+00 -.394262913735D-04 0.447488488556D-06 0.000000000000D+00  7 -2 1 -24 -11 11 23 21 2 0.12258015D+00 0.34033605D+00 0.20863106D+06 0.20863106D+06 0.20863106D+06 0.10964189D+01  1  2  3  1  7  1       -2 0.336813715000D-04 0.100000000000D+01
0.644753250769D-03 0.000000000000D+00 0.000000000000D+00 0.447488488556D-06 0.000000000000D+00  7 -2 1 -24 -11 11 23 21 2 0.12258015D+00 0.34033605D+00 0.20863106D+06 0.20863106D+06 0.20863106D+06 0.10964189D+01  1  2 15  1  7  1       -2 0.990971125457D-04 0.100000000000D+01
-.632385616869D-02 0.000000000000D+00 0.000000000000D+00 0.447488488556D-06 0.000000000000D+00  7 -2 1 -24 -11 11 23 21 2 0.12258015D+00 0.34033605D+00 0.20863106D+06 0.20863106D+06 0.20863106D+06 0.10964189D+01  1  2  4  1  7  1       -2 -.971962352612D-03 0.100000000000D+01
-.235180014352D-02 0.000000000000D+00 -.397621477238D-02 0.447488488556D-06 0.000000000000D+00  7 -2 1 -24 -11 11 23 21 2 0.17833032D+00 0.34033605D+00 0.20863106D+06 0.20863106D+06 0.20863106D+06 0.10964189D+01  1  2  5  1  7  1       -2 -.129186327494D-03 0.100000000000D+01
0.383374028640D-02 0.000000000000D+00 0.371230204648D-02 0.447488488556D-06 0.000000000000D+00  7 -2 1 -24 -11 11 23 21 2 0.12258015D+00 0.34033605D+00 0.20863106D+06 0.20863106D+06 0.20863106D+06 0.10964189D+01  1  2  6  1  7  1       -2 0.589237188304D-03 0.100000000000D+01
0.173056837220D-04 0.000000000000D+00 -.180514975638D-03 0.447488488556D-06 0.000000000000D+00  7 21 1 -24 -11 11 23 2 2 0.17833032D+00 0.34033605D+00 0.20863106D+06 0.20863106D+06 0.20863106D+06 0.10964189D+01  1  2  5  3  7  1       -2 0.785833936917D-05 0.100000000000D+01
  </mgrwgt>
  </event>
  <event>
  8     66 0.26562228E-05 0.19628308E+03 0.75467711E-02 0.10351121E+00
       -2 -1    0    0    0  501 0.00000000E+00 0.00000000E+00 0.55725777E+03 0.55725786E+03 0.32000000E+00 0.0000E+00 0.9000E+01
        1 -1    0    0  501    0 0.00000000E+00 0.00000000E+00 -.14960675E+03 0.14960709E+03 0.32000000E+00 0.0000E+00 0.9000E+01
       25  2    1    2    0    0 -.10982287E+03 0.30507537E+02 0.45743785E+03 0.55875109E+03 0.29993603E+03 0.0000E+00 0.0000E+00
       23  2    3    3    0    0 -.17417972E+03 -.11591494E+02 0.33364477E+03 0.38683800E+03 0.88610760E+02 0.0000E+00 0.0000E+00
      -24  1    1    2    0    0 0.10982287E+03 -.30507537E+02 -.49786822E+02 0.14811386E+03 0.80419002E+02 0.0000E+00 0.9000E+01
      -11  1    4    4    0    0 -.16160925E+03 -.33674633E+02 0.31388815E+03 0.35465095E+03 0.51099893E-03 0.0000E+00 0.9000E+01
       11  1    4    4    0    0 -.12570475E+02 0.22083139E+02 0.19756627E+02 0.32187050E+02 0.51099893E-03 0.0000E+00 0.9000E+01
       23  1    3    3    0    0 0.64356856E+02 0.42099032E+02 0.12379307E+03 0.17191309E+03 0.91188000E+02 0.0000E+00 0.9000E+01
#aMCatNLO 1  0  0  1  2 0.37277844D+02 0.00000000D+00  -5  7  0 0.00000000D+00 0.00000000D+00 0.00000000D+00 0.00000000D+00 0.00000000D+00
  <mgrwgt>
 0.1459351170D-02    9    2    0
 0.288738072958017D+03 0.000000000000000D+00 0.000000000000000D+00 0.288738072958017D+03
 0.288738072958017D+03 0.000000000000000D+00 0.000000000000000D+00 -.288738072958017D+03
 0.216445555147869D+03 0.109822867136067D+03 -.305075371699545D+02 -.165498309413530D+03
 0.212534325501507D+03 -.161609247718916D+03 -.336746333815457D+02 0.133863025644593D+03
 0.254522862676717D+02 -.125704750048066D+02 0.220831390219280D+02 0.146184997289184D+01
 0.123043978998985D+03 0.643568555876562D+02 0.420990315295723D+02 0.301734337960453D+02
 0.000000000000000D+00 -.000000000000000D+00 0.000000000000000D+00 0.000000000000000D+00
 0.387356662899306D+03 0.000000000000000D+00 0.000000000000000D+00 0.387356662899306D+03
 0.292883404059269D+03 0.000000000000000D+00 0.000000000000000D+00 -.292883404059269D+03
 0.224250800461638D+03 0.123397436132341D+03 -.347071734738387D+02 -.165498309413530D+03
 0.203652853375013D+03 -.148789623723591D+03 -.376407083521535D+02 0.133863025644593D+03
 0.243087284509808D+02 -.110377091468073D+02 0.216089391306184D+02 0.146184997289184D+01
 0.126465711963709D+03 0.720423888853569D+02 0.397213173892123D+02 0.301734337960453D+02
 0.101561972707235D+03 -.356124921473002D+02 0.110176253061615D+02 0.944732588400369D+02
0.392943866070D-04 0.000000000000D+00 0.000000000000D+00 0.934604936368D-06 0.000000000000D+00  7 -2 1 -24 -11 11 23 21 0 0.85731998D-01 0.23016456D-01 0.50461581D+05 0.50461581D+05 0.50461581D+05 0.11469445D+01  1  2  2  1  7  1       -2 0.117329044512D-02 0.100000000000D+01
-.201575375595D-05 0.000000000000D+00 -.150900791021D-06 0.934604936368D-06 0.000000000000D+00  7 -2 1 -24 -11 11 23 21 2 0.85731998D-01 0.23016456D-01 0.50461581D+05 0.50461581D+05 0.50461581D+05 0.11469445D+01  1  2  3  1  7  1       -2 -.791766859418D-04 0.100000000000D+01
0.246546339454D-05 0.000000000000D+00 0.000000000000D+00 0.934604936368D-06 0.000000000000D+00  7 -2 1 -24 -11 11 23 21 2 0.85731998D-01 0.23016456D-01 0.50461581D+05 0.50461581D+05 0.50461581D+05 0.11469445D+01  1  2 15  1  7  1       -2 0.968408072238D-04 0.100000000000D+01
0.206427479295D-03 0.000000000000D+00 0.000000000000D+00 0.934604936368D-06 0.000000000000D+00  7 -2 1 -24 -11 11 23 21 2 0.11547653D+00 0.23016456D-01 0.59818455D+05 0.59818455D+05 0.59818455D+05 0.11405087D+01  1  2 12  1  7  1       -2 0.394630886084D-02 0.100000000000D+01
-.202753688239D-03 0.000000000000D+00 0.000000000000D+00 0.934604936368D-06 0.000000000000D+00  7 -2 1 -24 -11 11 23 21 2 0.85731998D-01 0.23016456D-01 0.50461581D+05 0.50461581D+05 0.50461581D+05 0.11469445D+01  1  2  4  1  7  1       -2 -.796395147465D-02 0.100000000000D+01
-.226052645744D-03 0.000000000000D+00 -.186582733433D-04 0.934604936368D-06 0.000000000000D+00  7 -2 1 -24 -11 11 23 21 2 0.11574863D+00 0.23016456D-01 0.50461581D+05 0.50461581D+05 0.50461581D+05 0.11469445D+01  1  2  5  1  7  1       -2 -.435709431405D-02 0.100000000000D+01
0.222368953601D-03 0.000000000000D+00 0.178480122727D-04 0.934604936368D-06 0.000000000000D+00  7 -2 1 -24 -11 11 23 21 2 0.85731998D-01 0.23016456D-01 0.50461581D+05 0.50461581D+05 0.50461581D+05 0.11469445D+01  1  2  6  1  7  1       -2 0.873441845289D-02 0.100000000000D+01
0.793796560025D-05 0.000000000000D+00 0.000000000000D+00 0.934604936368D-06 0.000000000000D+00  7 21 1 -24 -11 11 23 2 2 0.11547653D+00 0.23016456D-01 0.59818455D+05 0.59818455D+05 0.59818455D+05 0.11405087D+01  1  2 12  3  7  1       -2 0.144003390287D-02 0.100000000000D+01
-.832345180993D-05 0.000000000000D+00 -.721578567030D-06 0.934604936368D-06 0.000000000000D+00  7 21 1 -24 -11 11 23 2 2 0.11574863D+00 0.23016456D-01 0.50461581D+05 0.50461581D+05 0.50461581D+05 0.11469445D+01  1  2  5  3  7  1       -2 -.153131882421D-02 0.100000000000D+01
  </mgrwgt>
  </event>
  <event>
  8     66 0.26562228E-05 0.32161053E+03 0.75467711E-02 0.90315919E-01
       -2 -1    0    0    0  501 0.00000000E+00 0.00000000E+00 0.14319200E+03 0.14319236E+03 0.32000000E+00 0.0000E+00 0.9000E+01
        1 -1    0    0  501    0 0.00000000E+00 0.00000000E+00 -.11458187E+04 0.11458187E+04 0.32000000E+00 0.0000E+00 0.9000E+01
       25  2    1    2    0    0 0.14386903E+03 0.20343293E+03 -.17474224E+03 0.42071210E+03 0.29048333E+03 0.0000E+00 0.0000E+00
       23  2    3    3    0    0 0.10700038E+03 -.19509530E+02 -.78625741E+02 0.15876503E+03 0.84821125E+02 0.0000E+00 0.0000E+00
      -24  1    1    2    0    0 -.14386903E+03 -.20343293E+03 -.82788446E+03 0.86829900E+03 0.80419002E+02 0.0000E+00 0.9000E+01
      -13  1    4    4    0    0 0.11523187E+03 0.14124244E+01 -.62510580E+02 0.13110287E+03 0.10565837E+00 0.0000E+00 0.9000E+01
       13  1    4    4    0    0 -.82314854E+01 -.20921954E+02 -.16115161E+02 0.27662160E+02 0.10565837E+00 0.0000E+00 0.9000E+01
       23  1    3    3    0    0 0.36868654E+02 0.22294246E+03 -.96116495E+02 0.26194707E+03 0.91188000E+02 0.0000E+00 0.9000E+01
#aMCatNLO 1  0  0  2  2 0.62408913D+03 0.00000000D+00  -5  7  0 0.00000000D+00 0.00000000D+00 0.00000000D+00 0.00000000D+00 0.00000000D+00
  <mgrwgt>
 0.2740955622D-01    3    2    0
 0.405058428880979D+03 0.000000000000000D+00 0.000000000000000D+00 0.405058428880979D+03
 0.405058428880979D+03 0.000000000000000D+00 0.000000000000000D+00 -.405058428880979D+03
 0.356970706121448D+03 -.143869034635630D+03 -.203432929656318D+03 -.242647095756233D+03
 0.131238360243149D+03 0.115232056728146D+03 0.141245920088401D+01 0.627939906401702D+02
 0.240696209483005D+02 -.823167682549405D+01 -.209219883985071D+02 0.859398340050912D+01
 0.297838170449060D+03 0.368686547329782D+02 0.222942458853941D+03 0.171259121715553D+03
 0.000000000000000D+00 0.000000000000000D+00 0.000000000000000D+00 0.000000000000000D+00
 0.273738416391015D+04 0.000000000000000D+00 0.000000000000000D+00 0.273738416391015D+04
 0.555057702609494D+03 0.000000000000000D+00 0.000000000000000D+00 -.555057702609494D+03
 0.635247447526400D+03 -.256091650189854D+03 -.522122166986366D+03 -.242647095756233D+03
 0.135154302160054D+03 0.851023103317193D+02 -.841498479384074D+02 0.627939906401702D+02
 0.476926325598760D+02 -.163481860398689D+02 -.439712117527929D+02 0.859398340050912D+01
 0.204537794258380D+03 -.199514553847150D+02 0.615849867527164D+02 0.171259121715553D+03
 0.226980969001493D+04 0.207288981282718D+03 0.588658239924850D+03 0.218232646130066D+04
0.120369723391D-02 0.000000000000D+00 0.000000000000D+00 0.871177495858D-09 0.000000000000D+00  7 -2 1 -24 -13 13 23 21 0 0.22029569D-01 0.17627983D+00 0.10343333D+06 0.10343333D+06 0.10343333D+06 0.11205210D+01  1  2  2  2  7  2        1 0.269801689250D-01 0.100000000000D+01
-.625450975318D-04 0.000000000000D+00 -.462251431899D-05 0.871177495858D-09 0.000000000000D+00  7 -2 1 -24 -13 13 23 21 2 0.22029569D-01 0.17627983D+00 0.10343333D+06 0.10343333D+06 0.10343333D+06 0.11205210D+01  1  2  3  2  7  2        1 -.176019444730D-02 0.100000000000D+01
0.778025427114D-04 0.000000000000D+00 0.000000000000D+00 0.871177495858D-09 0.000000000000D+00  7 -2 1 -24 -13 13 23 21 2 0.22029569D-01 0.17627983D+00 0.10343333D+06 0.10343333D+06 0.10343333D+06 0.11205210D+01  1  2 15  2  7  2        1 0.218958174295D-02 0.100000000000D+01
  </mgrwgt>
  </event>
  <event>
  8     66 0.26562228E-05 0.29386077E+03 0.75467711E-02 0.95350742E-01
       -2 -1    0    0    0  501 0.00000000E+00 0.00000000E+00 0.25004994E+03 0.25005015E+03 0.32000000E+00 0.0000E+00 0.9000E+01
        1 -1    0    0  501    0 0.00000000E+00 0.00000000E+00 -.37084858E+03 0.37084871E+03 0.32000000E+00 0.0000E+00 0.9000E+01
       25  2    1    2    0    0 0.18578289E+03 -.11797318E+03 -.10170614E+03 0.38581442E+03 0.30012610E+03 0.0000E+00 0.0000E+00
       23  2    3    3    0    0 0.30883235E+02 0.60643215E+02 0.11789551E+02 0.10815592E+03 0.83230624E+02 0.0000E+00 0.0000E+00
      -24  1    1    2    0    0 -.18578289E+03 0.11797318E+03 -.19092490E+02 0.23508444E+03 0.80419002E+02 0.0000E+00 0.9000E+01
      -13  1    4    4    0    0 0.18512544E+02 -.14712179E+02 -.14089190E+02 0.27525969E+02 0.10565837E+00 0.0000E+00 0.9000E+01
       13  1    4    4    0    0 0.12370691E+02 0.75355394E+02 0.25878741E+02 0.80629956E+02 0.10565837E+00 0.0000E+00 0.9000E+01
       23  1    3    3    0    0 0.15489966E+03 -.17861639E+03 -.11349569E+03 0.27765850E+03 0.91188000E+02 0.0000E+00 0.9000E+01
#aMCatNLO 1  0  0  2  2 0.28640458D+03 0.00000000D+00  -5  7  0 0.00000000D+00 0.00000000D+00 0.00000000D+00 0.00000000D+00 0.00000000D+00
  <mgrwgt>
 0.3224904297D-02    3    2    0
 0.304517276641788D+03 0.000000000000000D+00 0.000000000000000D+00 0.304517276641788D+03
 0.304517276641788D+03 0.000000000000000D+00 0.000000000000000D+00 -.304517276641788D+03
 0.235877114501411D+03 -.185782893108219D+03 0.117973176298151D+03 0.271632747217077D+02
 0.252675744599727D+02 0.185125532471449D+02 -.147123230201393D+02 -.890411380840157D+01
 0.873336739008606D+02 0.123706811886545D+02 0.753555386964299D+02 0.423754602538000D+02
 0.260556190421332D+03 0.154899658672419D+03 -.178616391974441D+03 -.606346211671061D+02
 0.000000000000000D+00 0.000000000000000D+00 -.000000000000000D+00 0.000000000000000D+00
 0.709893562748173D+03 0.000000000000000D+00 0.000000000000000D+00 0.709893562748173D+03
 0.391429561587396D+03 0.000000000000000D+00 0.000000000000000D+00 -.391429561587396D+03
 0.343001064015077D+03 -.230650872979070D+03 0.239258950222328D+03 0.271632747217077D+02
 0.184126932360350D+02 0.151269611753199D+02 -.556049234256500D+01 -.890411380840157D+01
 0.127725450865761D+03 -.429822919556526D+01 0.120414435982248D+03 0.423754602538000D+02
 0.183876893378589D+03 0.120452316558093D+03 -.854993726659531D+02 -.606346211671061D+02
 0.428307022840107D+03 0.993698244412222D+02 -.268613521196058D+03 0.318464001160777D+03
0.684442264736D-04 0.000000000000D+00 0.000000000000D+00 0.927698041568D-07 0.000000000000D+00  7 -2 1 -24 -13 13 23 21 0 0.38469248D-01 0.57053653D-01 0.86354155D+05 0.86354155D+05 0.86354155D+05 0.11269885D+01  1  2  2  2  7  2        1 0.318519193889D-02 0.100000000000D+01
-.379659057257D-05 0.000000000000D+00 -.262843851437D-06 0.927698041568D-07 0.000000000000D+00  7 -2 1 -24 -13 13 23 21 2 0.38469248D-01 0.57053653D-01 0.86354155D+05 0.86354155D+05 0.86354155D+05 0.11269885D+01  1  2  3  2  7  2        1 -.224404497399D-03 0.100000000000D+01
0.446846465403D-05 0.000000000000D+00 0.000000000000D+00 0.927698041568D-07 0.000000000000D+00  7 -2 1 -24 -13 13 23 21 2 0.38469248D-01 0.57053653D-01 0.86354155D+05 0.86354155D+05 0.86354155D+05 0.11269885D+01  1  2 15  2  7  2        1 0.264116855812D-03 0.100000000000D+01
  </mgrwgt>
  </event>
  <event>
  8     66 0.26562228E-05 0.19714229E+03 0.75467711E-02 0.95612988E-01
       -2 -1    0    0    0  501 0.00000000E+00 0.00000000E+00 0.30206309E+02 0.30208004E+02 0.32000000E+00 0.0000E+00 0.9000E+01
        1 -1    0    0  501    0 0.00000000E+00 0.00000000E+00 -.13004018E+04 0.13004019E+04 0.32000000E+00 0.0000E+00 0.9000E+01
       25  2    1    2    0    0 -.45298857E+02 -.56384044E+01 -.98454264E+03 0.10303624E+04 0.30039745E+03 0.0000E+00 0.0000E+00
       23  2    3    3    0    0 -.13337332E+03 -.43582830E+02 -.49337271E+03 0.52167775E+03 0.95095428E+02 0.0000E+00 0.0000E+00
      -24  1    1    2    0    0 0.45298857E+02 0.56384044E+01 -.28565287E+03 0.30024749E+03 0.80419002E+02 0.0000E+00 0.9000E+01
      -13  1    4    4    0    0 -.13382285E+03 -.64501056E+02 -.42959743E+03 0.45455793E+03 0.10565837E+00 0.0000E+00 0.9000E+01
       13  1    4    4    0    0 0.44952589E+00 0.20918226E+02 -.63775277E+02 0.67119828E+02 0.10565837E+00 0.0000E+00 0.9000E+01
       23  1    3    3    0    0 0.88074462E+02 0.37944425E+02 -.49116993E+03 0.50868462E+03 0.91188000E+02 0.0000E+00 0.9000E+01
#aMCatNLO 1  0  0  1  1 0.37408178D+03 0.00000000D+00  -5  7  0 0.00000000D+00 0.00000000D+00 0.00000000D+00 0.00000000D+00 0.00000000D+00
  <mgrwgt>
 0.3416423461D-02    3    2    0
 0.198195592911031D+03 0.000000000000000D+00 0.000000000000000D+00 0.198195592911031D+03
 0.198195592911031D+03 0.000000000000000D+00 0.000000000000000D+00 -.198195592911031D+03
 0.925281850412487D+02 0.452992435342738D+02 0.563845243616824D+01 0.323039657080117D+01
 0.149263166546272D+03 -.133823078608503D+03 -.645011164586466D+02 0.145080148452778D+02
 0.209468781812549D+02 0.449644757449448D+00 0.209182960755249D+02 0.997203303800973D+00
 0.133652956053287D+03 0.880741903167793D+02 0.379443679469534D+02 -.187356147198800D+02
 0.000000000000000D+00 0.000000000000000D+00 -.000000000000000D+00 -.000000000000000D+00
 0.433726905851764D+03 0.000000000000000D+00 0.000000000000000D+00 0.433726905851764D+03
 0.489528997653171D+03 0.000000000000000D+00 0.000000000000000D+00 -.489528997653171D+03
 0.100544163364307D+03 -.929245311037245D+01 0.595409748445953D+02 0.323039657080117D+01
 0.252334721146090D+03 -.247375900848900D+03 0.476181969452799D+02 0.145080148452778D+02
 0.423698893560835D+02 -.174533319995190D+02 0.385952628146541D+02 0.997203303800973D+00
 0.149786225792930D+03 0.793104211177123D+01 0.117075776339002D+03 -.187356147198800D+02
 0.378220903845524D+03 0.266190643847020D+03 -.262830210943532D+03 -.558020918014067D+02
0.171808748108D-04 0.000000000000D+00 0.000000000000D+00 0.600235598187D-07 0.000000000000D+00  7 -2 1 -24 -13 13 23 21 0 0.46472579D-02 0.20006195D+00 0.38865082D+05 0.38865082D+05 0.38865082D+05 0.11570453D+01  1  2  2  1  7  1       -2 0.337771794334D-02 0.100000000000D+01
-.954460092666D-06 0.000000000000D+00 -.659790831017D-07 0.600235598187D-07 0.000000000000D+00  7 -2 1 -24 -13 13 23 21 2 0.46472579D-02 0.20006195D+00 0.38865082D+05 0.38865082D+05 0.38865082D+05 0.11570453D+01  1  2  3  1  7  1       -2 -.251209797451D-03 0.100000000000D+01
0.110151993096D-05 0.000000000000D+00 0.000000000000D+00 0.600235598187D-07 0.000000000000D+00  7 -2 1 -24 -13 13 23 21 2 0.46472579D-02 0.20006195D+00 0.38865082D+05 0.38865082D+05 0.38865082D+05 0.11570453D+01  1  2 15  1  7  1       -2 0.289915315341D-03 0.100000000000D+01
  </mgrwgt>
  </event>
  <event>
  8     66 0.26562228E-05 0.18997260E+03 0.75467711E-02 0.10048925E+00
       -2 -1    0    0    0  501 0.00000000E+00 0.00000000E+00 0.87316494E+02 0.87317080E+02 0.32000000E+00 0.0000E+00 0.9000E+01
        1 -1    0    0  501    0 0.00000000E+00 0.00000000E+00 -.12160246E+04 0.12160246E+04 0.32000000E+00 0.0000E+00 0.9000E+01
       25  2    1    2    0    0 0.19511528E+03 0.11449201E+03 -.88678014E+03 0.96249754E+03 0.29806728E+03 0.0000E+00 0.0000E+00
       23  2    3    3    0    0 0.41433832E+02 0.11725084E+03 -.19610088E+03 0.24907012E+03 0.90087987E+02 0.0000E+00 0.0000E+00
      -24  1    1    2    0    0 -.19511528E+03 -.11449201E+03 -.24192794E+03 0.34084415E+03 0.80419002E+02 0.0000E+00 0.9000E+01
      -11  1    4    4    0    0 0.23765462E+01 0.90520517E+02 -.70226874E+02 0.11459243E+03 0.51099893E-03 0.0000E+00 0.9000E+01
       11  1    4    4    0    0 0.39057285E+02 0.26730325E+02 -.12587401E+03 0.13447768E+03 0.51099893E-03 0.0000E+00 0.9000E+01
       23  1    3    3    0    0 0.15368145E+03 -.27588282E+01 -.69067926E+03 0.71342743E+03 0.91188000E+02 0.0000E+00 0.9000E+01
#aMCatNLO 1  0  0  2  1 0.54407709D+02 0.00000000D+00  -5  7  0 0.00000000D+00 0.00000000D+00 0.00000000D+00 0.00000000D+00 0.00000000D+00
  <mgrwgt>
 0.1878904718D-02    9    2    0
 0.325851824389269D+03 0.000000000000000D+00 0.000000000000000D+00 0.325851824389269D+03
 0.325851824389269D+03 0.000000000000000D+00 0.000000000000000D+00 -.325851824389269D+03
 0.262650635829760D+03 -.195115279264075D+03 -.114492013466569D+03 0.106488249105146D+03
 0.107544980795005D+03 0.237654618186206D+01 0.905205168288648D+02 0.580199186097213D+02
 0.509362862245561D+02 0.390572853448249D+02 0.267303247885056D+02 -.188287931781045D+02
 0.230571745929217D+03 0.153681447737388D+03 -.275882815080163D+01 -.145679374536763D+03
 0.000000000000000D+00 -.000000000000000D+00 0.000000000000000D+00 -.000000000000000D+00
 0.334631602961115D+03 0.000000000000000D+00 0.000000000000000D+00 0.334631602961115D+03
 0.423772156771630D+03 0.000000000000000D+00 0.000000000000000D+00 -.423772156771630D+03
 0.258533389196714D+03 -.179531559144917D+03 -.129618553643700D+03 0.106488249105146D+03
 0.102797912594790D+03 0.866592694228342D+01 0.844156477710054D+02 0.580199186097213D+02
 0.518989124644762D+02 0.421321204852275D+02 0.237456961546677D+02 -.188287931781045D+02
 0.240740614306323D+03 0.167773974672068D+03 -.164379223109100D+02 -.145679374536763D+03
 0.104432931170442D+03 -.390404629546620D+02 0.378951320289368D+02 -.891405538105154D+02
0.301266604488D-04 0.000000000000D+00 0.000000000000D+00 0.209013246804D-06 0.000000000000D+00  7 -2 1 -24 -11 11 23 21 0 0.13433355D-01 0.18708075D+00 0.77477383D+05 0.77477383D+05 0.77477383D+05 0.11309316D+01  1  2  2  2  7  2        1 0.135238897778D-02 0.100000000000D+01
-.162317693736D-05 0.000000000000D+00 -.115694308655D-06 0.209013246804D-06 0.000000000000D+00  7 -2 1 -24 -11 11 23 21 2 0.13433355D-01 0.18708075D+00 0.77477383D+05 0.77477383D+05 0.77477383D+05 0.11309316D+01  1  2  3  2  7  2        1 -.931942593324D-04 0.100000000000D+01
0.196292748090D-05 0.000000000000D+00 0.000000000000D+00 0.209013246804D-06 0.000000000000D+00  7 -2 1 -24 -11 11 23 21 2 0.13433355D-01 0.18708075D+00 0.77477383D+05 0.77477383D+05 0.77477383D+05 0.11309316D+01  1  2 15  2  7  2        1 0.112700943745D-03 0.100000000000D+01
0.846913212203D-04 0.000000000000D+00 0.000000000000D+00 0.209013246804D-06 0.000000000000D+00  7 -2 1 -24 -11 11 23 21 2 0.13433355D-01 0.24527782D+00 0.94517461D+05 0.94517461D+05 0.94517461D+05 0.11237371D+01  1  2 12  2  7  2        1 0.266671712722D-02 0.100000000000D+01
-.853482528873D-04 0.000000000000D+00 0.000000000000D+00 0.209013246804D-06 0.000000000000D+00  7 -2 1 -24 -11 11 23 21 2 0.13433355D-01 0.18708075D+00 0.77477383D+05 0.77477383D+05 0.77477383D+05 0.11309316D+01  1  2  4  2  7  2        1 -.490024656589D-02 0.100000000000D+01
-.106398921155D-03 0.000000000000D+00 -.151045491660D-04 0.209013246804D-06 0.000000000000D+00  7 -2 1 -24 -11 11 23 21 2 0.13433355D-01 0.24579009D+00 0.77477383D+05 0.77477383D+05 0.77477383D+05 0.11309316D+01  1  2  5  2  7  2        1 -.339237293684D-02 0.100000000000D+01
0.107054840553D-03 0.000000000000D+00 0.145588927393D-04 0.209013246804D-06 0.000000000000D+00  7 -2 1 -24 -11 11 23 21 2 0.13433355D-01 0.18708075D+00 0.77477383D+05 0.77477383D+05 0.77477383D+05 0.11309316D+01  1  2  6  2  7  2        1 0.614652435211D-02 0.100000000000D+01
0.303970000519D-05 0.000000000000D+00 0.000000000000D+00 0.209013246804D-06 0.000000000000D+00  7 -2 21 -24 -11 11 23 -1 2 0.13433355D-01 0.24527782D+00 0.94517461D+05 0.94517461D+05 0.94517461D+05 0.11237371D+01  1  2 12  4  7  2        1 0.717021930654D-04 0.100000000000D+01
-.354845373780D-05 0.000000000000D+00 -.545167636226D-06 0.209013246804D-06 0.000000000000D+00  7 -2 21 -24 -11 11 23 -1 2 0.13433355D-01 0.24579009D+00 0.77477383D+05 0.77477383D+05 0.77477383D+05 0.11309316D+01  1  2  5  4  7  2        1 -.853151143405D-04 0.100000000000D+01
  </mgrwgt>
  </event>
  <event>
  8     66 0.26562228E-05 0.13871200E+03 0.75467711E-02 0.10342399E+00
       -4 -1    0    0    0  501 0.00000000E+00 0.00000000E+00 0.49742237E+03 0.49742479E+03 0.15500000E+01 0.0000E+00 0.9000E+01
        3 -1    0    0  501    0 0.00000000E+00 0.00000000E+00 -.16746541E+03 0.16746615E+03 0.50000000E+00 0.0000E+00 0.9000E+01
       25  2    1    2    0    0 0.71248365E+02 -.15886049E+03 0.32234356E+03 0.47295823E+03 0.29911725E+03 0.0000E+00 0.0000E+00
       23  2    3    3    0    0 -.51493515E+02 -.40098698E+02 0.27304490E+02 0.12006556E+03 0.97008843E+02 0.0000E+00 0.0000E+00
      -24  1    1    2    0    0 -.71248365E+02 0.15886049E+03 0.76134096E+01 0.19193271E+03 0.80419002E+02 0.0000E+00 0.9000E+01
      -11  1    4    4    0    0 0.14356505E+02 -.14077903E+01 -.24039949E+02 0.28035874E+02 0.51099893E-03 0.0000E+00 0.9000E+01
       11  1    4    4    0    0 -.65850020E+02 -.38690907E+02 0.51344439E+02 0.92029685E+02 0.51099893E-03 0.0000E+00 0.9000E+01
       23  1    3    3    0    0 0.12274188E+03 -.11876180E+03 0.29503907E+03 0.35289267E+03 0.91188000E+02 0.0000E+00 0.9000E+01
#aMCatNLO 1  0  0  2  1 0.16194142D+02 0.00000000D+00  -5  7  0 0.00000000D+00 0.00000000D+00 0.00000000D+00 0.00000000D+00 0.00000000D+00
  <mgrwgt>
 0.1619831042D-03    6    2    0
 0.288621015057580D+03 0.000000000000000D+00 0.000000000000000D+00 0.288621015057580D+03
 0.288621015057580D+03 0.000000000000000D+00 0.000000000000000D+00 -.288621015057580D+03
 0.216724037625250D+03 -.712483654002724D+02 0.158860493047265D+03 -.100941105139528D+03
 0.460343255152814D+02 0.143565051085767D+02 -.140779029074074D+01 -.437157638982965D+02
 0.766545844926935D+02 -.658500197092267D+02 -.386909072258756D+02 0.653558919154417D+01
 0.237829082481935D+03 0.122741880000922D+03 -.118761795530649D+03 0.138121279846281D+03
 0.000000000000000D+00 0.000000000000000D+00 0.000000000000000D+00 0.000000000000000D+00
 0.296961971406948D+03 0.000000000000000D+00 0.000000000000000D+00 0.296961971406948D+03
 0.296703378657830D+03 0.000000000000000D+00 0.000000000000000D+00 -.296703378657830D+03
 0.213677919442730D+03 -.738916300922458D+02 0.153433886734726D+03 -.100941105139528D+03
 0.459115716030927D+02 0.137918298336768D+02 -.256706519068237D+01 -.437157638982965D+02
 0.784695633748266D+02 -.668026970291068D+02 -.406467479608475D+02 0.653558919154417D+01
 0.239410088973000D+03 0.119810969881166D+03 -.124778936154383D+03 0.138121279846281D+03
 0.161962066711278D+02 0.709152740650979D+01 0.145588625711870D+02 0.258592749117509D+00
0.131662302279D-04 0.000000000000D+00 0.000000000000D+00 0.325109737103D-07 0.000000000000D+00  7 -4 3 -24 -11 11 23 21 0 0.76526762D-01 0.25764152D-01 0.56690036D+05 0.56690036D+05 0.56690036D+05 0.11425290D+01  1  2  2  2  7  2        3 0.831741286697D-04 0.100000000000D+01
-.698522796071D-06 0.000000000000D+00 -.505617908232D-07 0.325109737103D-07 0.000000000000D+00  7 -4 3 -24 -11 11 23 21 2 0.76526762D-01 0.25764152D-01 0.56690036D+05 0.56690036D+05 0.56690036D+05 0.11425290D+01  1  2  3  2  7  2        3 -.576025742650D-05 0.100000000000D+01
0.833350442897D-06 0.000000000000D+00 0.000000000000D+00 0.325109737103D-07 0.000000000000D+00  7 -4 3 -24 -11 11 23 21 2 0.76526762D-01 0.25764152D-01 0.56690036D+05 0.56690036D+05 0.56690036D+05 0.11425290D+01  1  2 15  2  7  2        3 0.687209222744D-05 0.100000000000D+01
0.260676594800D-04 0.000000000000D+00 0.000000000000D+00 0.325109737103D-07 0.000000000000D+00  7 -4 3 -24 -11 11 23 21 2 0.76526762D-01 0.26847482D-01 0.60590327D+05 0.60590327D+05 0.60590327D+05 0.11400282D+01  1  2 12  2  7  2        3 0.198988555580D-03 0.100000000000D+01
-.196471204444D-04 0.000000000000D+00 0.000000000000D+00 0.325109737103D-07 0.000000000000D+00  7 -4 3 -24 -11 11 23 21 2 0.76526762D-01 0.25764152D-01 0.56690036D+05 0.56690036D+05 0.56690036D+05 0.11425290D+01  1  2  4  2  7  2        3 -.162016861991D-03 0.100000000000D+01
0.320809139531D-06 0.000000000000D+00 0.000000000000D+00 0.325109737103D-07 0.000000000000D+00  7 -4 21 -24 -11 11 23 -3 2 0.76526762D-01 0.26847482D-01 0.60590327D+05 0.60590327D+05 0.60590327D+05 0.11400282D+01  1  2 12  4  7  2        3 0.407254471475D-04 0.100000000000D+01
  </mgrwgt>
  </event>
  <event>
  8     66 0.26562228E-05 0.28266510E+03 0.75467711E-02 0.95346652E-01
       -2 -1    0    0    0  501 0.00000000E+00 0.00000000E+00 0.84975667E+03 0.84975673E+03 0.32000000E+00 0.0000E+00 0.9000E+01
        1 -1    0    0  501    0 0.00000000E+00 0.00000000E+00 -.31354734E+03 0.31354751E+03 0.32000000E+00 0.0000E+00 0.9000E+01
       25  2    1    2    0    0 -.40132438E+03 0.37552255E+02 0.18810965E+02 0.50251705E+03 0.29949642E+03 0.0000E+00 0.0000E+00
       23  2    3    3    0    0 -.11865271E+03 -.74368142E+02 0.70234396E+02 0.18097534E+03 0.90609706E+02 0.0000E+00 0.0000E+00
      -24  1    1    2    0    0 0.40132438E+03 -.37552255E+02 0.51739836E+03 0.66078718E+03 0.80419002E+02 0.0000E+00 0.9000E+01
      -13  1    4    4    0    0 -.79683471E+01 -.26832011E+02 -.16542549E+02 0.32513359E+02 0.10565837E+00 0.0000E+00 0.9000E+01
       13  1    4    4    0    0 -.11068436E+03 -.47536131E+02 0.86776945E+02 0.14846198E+03 0.10565837E+00 0.0000E+00 0.9000E+01
       23  1    3    3    0    0 -.28267167E+03 0.11192040E+03 -.51423431E+02 0.32154171E+03 0.91188000E+02 0.0000E+00 0.9000E+01
#aMCatNLO 1  0  0  1  2 0.59882180D+02 0.00000000D+00  -5  7  0 0.00000000D+00 0.00000000D+00 0.00000000D+00 0.00000000D+00 0.00000000D+00
  <mgrwgt>
 0.1235424205D-02    9    2    0
 0.516177368357235D+03 0.000000000000000D+00 0.000000000000000D+00 0.516177368357235D+03
 0.516177368357235D+03 0.000000000000000D+00 0.000000000000000D+00 -.516177368357235D+03
 0.475866181935710D+03 0.401324377010158D+03 -.375522545653623D+02 0.239812384480383D+03
 0.452296938039724D+02 -.796820743248813D+01 -.268319832169866D+02 -.355285455451992D+02
 0.122221510992131D+03 -.110684500001458D+03 -.475361589527535D+02 0.206725131671359D+02
 0.389037349982657D+03 -.282671669576212D+03 0.111920396735102D+03 -.224956352102319D+03
 0.000000000000000D+00 0.000000000000000D+00 -.000000000000000D+00 0.000000000000000D+00
 0.591334766186251D+03 0.000000000000000D+00 0.000000000000000D+00 0.591334766186251D+03
 0.529112205889828D+03 0.000000000000000D+00 0.000000000000000D+00 -.529112205889828D+03
 0.470461144546551D+03 0.396541548756619D+03 -.105495465881544D+02 0.239812384480383D+03
 0.438537862073612D+02 -.841844380757576D+01 -.242900559905149D+02 -.355285455451992D+02
 0.120831619673611D+03 -.111912913625294D+03 -.406008285161805D+02 0.206725131671359D+02
 0.398943473640153D+03 -.286654199553951D+03 0.134404811457671D+03 -.224956352102319D+03
 0.863569480084030D+02 0.104440082302017D+02 -.589643803628210D+02 0.622225602964236D+02
0.198701702185D-03 0.000000000000D+00 0.000000000000D+00 0.604813549279D-05 0.000000000000D+00  7 -2 1 -24 -13 13 23 21 0 0.13073181D+00 0.48238070D-01 0.19222753D+06 0.19222753D+06 0.19222753D+06 0.10991499D+01  1  2  2  1  7  1       -2 0.787219223382D-03 0.100000000000D+01
-.106813598513D-04 0.000000000000D+00 -.763066855750D-06 0.604813549279D-05 0.000000000000D+00  7 -2 1 -24 -13 13 23 21 2 0.13073181D+00 0.48238070D-01 0.19222753D+06 0.19222753D+06 0.19222753D+06 0.10991499D+01  1  2  3  1  7  1       -2 -.511251429910D-04 0.100000000000D+01
0.129049123045D-04 0.000000000000D+00 0.000000000000D+00 0.604813549279D-05 0.000000000000D+00  7 -2 1 -24 -13 13 23 21 2 0.13073181D+00 0.48238070D-01 0.19222753D+06 0.19222753D+06 0.19222753D+06 0.10991499D+01  1  2 15  1  7  1       -2 0.617679299303D-04 0.100000000000D+01
0.563789898397D-03 0.000000000000D+00 0.000000000000D+00 0.604813549279D-05 0.000000000000D+00  7 -2 1 -24 -13 13 23 21 2 0.15124614D+00 0.48238070D-01 0.22036514D+06 0.22036514D+06 0.22036514D+06 0.10946056D+01  1  2 12  1  7  1       -2 0.179942211155D-02 0.100000000000D+01
-.573006598650D-03 0.000000000000D+00 0.000000000000D+00 0.604813549279D-05 0.000000000000D+00  7 -2 1 -24 -13 13 23 21 2 0.13073181D+00 0.48238070D-01 0.19222753D+06 0.19222753D+06 0.19222753D+06 0.10991499D+01  1  2  4  1  7  1       -2 -.274263246428D-02 0.100000000000D+01
-.978387435299D-03 0.000000000000D+00 -.162341783594D-03 0.604813549279D-05 0.000000000000D+00  7 -2 1 -24 -13 13 23 21 2 0.15176722D+00 0.48238070D-01 0.19222753D+06 0.19222753D+06 0.19222753D+06 0.10991499D+01  1  2  5  1  7  1       -2 -.313485285425D-02 0.100000000000D+01
0.993322609977D-03 0.000000000000D+00 0.160551478747D-03 0.604813549279D-05 0.000000000000D+00  7 -2 1 -24 -13 13 23 21 2 0.13073181D+00 0.48238070D-01 0.19222753D+06 0.19222753D+06 0.19222753D+06 0.10991499D+01  1  2  6  1  7  1       -2 0.475442838536D-02 0.100000000000D+01
0.125647990327D-04 0.000000000000D+00 0.000000000000D+00 0.604813549279D-05 0.000000000000D+00  7 21 1 -24 -13 13 23 2 2 0.15124614D+00 0.48238070D-01 0.22036514D+06 0.22036514D+06 0.22036514D+06 0.10946056D+01  1  2 12  3  7  1       -2 0.344452233479D-03 0.100000000000D+01
-.211055412849D-04 0.000000000000D+00 -.368716732643D-05 0.604813549279D-05 0.000000000000D+00  7 21 1 -24 -13 13 23 2 2 0.15176722D+00 0.48238070D-01 0.19222753D+06 0.19222753D+06 0.19222753D+06 0.10991499D+01  1  2  5  3  7  1       -2 -.583255217419D-03 0.100000000000D+01
  </mgrwgt>
  </event>
  <event>
  8     66 0.26562228E-05 0.46309919E+02 0.75467711E-02 0.10385117E+00
       -2 -1    0    0    0  501 0.00000000E+00 0.00000000E+00 0.33170354E+02 0.33171898E+02 0.32000000E+00 0.0000E+00 0.9000E+01
        1 -1    0    0  501    0 0.00000000E+00 0.00000000E+00 -.14480889E+04 0.14480890E+04 0.32000000E+00 0.0000E+00 0.9000E+01
       25  2    1    2    0    0 0.31726262E+02 -.21706294E+02 -.72534599E+03 0.78595138E+03 0.30019167E+03 0.0000E+00 0.0000E+00
       23  2    3    3    0    0 0.22808779E+02 -.77152622E+02 -.63184251E+03 0.64378257E+03 0.93585655E+02 0.0000E+00 0.0000E+00
      -24  1    1    2    0    0 -.31726262E+02 0.21706294E+02 -.68957259E+03 0.69530949E+03 0.80419002E+02 0.0000E+00 0.9000E+01
      -11  1    4    4    0    0 -.16127564E+02 0.14369716E+02 -.71875344E+02 0.75050997E+02 0.51099893E-03 0.0000E+00 0.9000E+01
       11  1    4    4    0    0 0.38936343E+02 -.91522338E+02 -.55996716E+03 0.56873157E+03 0.51099893E-03 0.0000E+00 0.9000E+01
       23  1    3    3    0    0 0.89174829E+01 0.55446328E+02 -.93503486E+02 0.14216881E+03 0.91188000E+02 0.0000E+00 0.9000E+01
#aMCatNLO 1  0  0  1  2 0.13085546D+03 0.00000000D+00  -5  7  0 0.00000000D+00 0.00000000D+00 0.00000000D+00 0.00000000D+00 0.00000000D+00
  <mgrwgt>
 0.5344786477D-03    7    2    0
 0.219168411155269D+03 0.000000000000000D+00 0.000000000000000D+00 0.219168411155269D+03
 0.219168411155269D+03 0.000000000000000D+00 0.000000000000000D+00 -.219168411155269D+03
 0.123753403596251D+03 -.317262619834294D+02 0.217062940396626D+02 -.858485296723747D+02
 0.216097409663522D+02 -.161275643305636D+02 0.143697159642660D+02 -.627563943109653D+00
 0.114368393689636D+03 0.389363433635632D+02 -.915223376380612D+02 -.564601837925361D+02
 0.178605284058298D+03 0.891748295042980D+01 0.554463276341326D+02 0.142936277408021D+03
 0.000000000000000D+00 -.000000000000000D+00 -.000000000000000D+00 0.000000000000000D+00
 0.430278767169890D+03 0.000000000000000D+00 0.000000000000000D+00 0.430278767169890D+03
 0.249965038193348D+03 0.000000000000000D+00 0.000000000000000D+00 -.249965038193348D+03
 0.123227102610502D+03 0.109129029226878D+01 0.366952572139527D+02 -.858485296723747D+02
 0.199549471657703D+02 -.106046534476410D+02 0.168922291347658D+02 -.627563943109653D+00
 0.118577781468951D+03 0.698890829060568D+02 -.773851018915247D+02 -.564601837925361D+02
 0.195692157853453D+03 0.586522820860188D+02 0.781620093663163D+02 0.142936277408021D+03
 0.222791816264561D+03 -.119028001836703D+03 -.543643938235101D+02 0.180313728976542D+03
0.653621292799D-05 0.000000000000D+00 0.000000000000D+00 0.352885668202D-06 0.000000000000D+00  7 -2 1 -24 -11 11 23 21 0 0.51032529D-02 0.22278303D+00 0.25168102D+05 0.25168102D+05 0.25168102D+05 0.11744793D+01  1  2  2  1  7  1       -2 0.893355635066D-03 0.100000000000D+01
-.317011544638D-06 0.000000000000D+00 -.251007786679D-07 0.352885668202D-06 0.000000000000D+00  7 -2 1 -24 -11 11 23 21 2 0.51032529D-02 0.22278303D+00 0.25168102D+05 0.25168102D+05 0.25168102D+05 0.11744793D+01  1  2  3  1  7  1       -2 -.597673480181D-04 0.100000000000D+01
0.409713862198D-06 0.000000000000D+00 0.000000000000D+00 0.352885668202D-06 0.000000000000D+00  7 -2 1 -24 -11 11 23 21 2 0.51032529D-02 0.22278303D+00 0.25168102D+05 0.25168102D+05 0.25168102D+05 0.11744793D+01  1  2 15  1  7  1       -2 0.772448556025D-04 0.100000000000D+01
0.343763382878D-06 0.000000000000D+00 0.000000000000D+00 0.352885668202D-06 0.000000000000D+00  7 -2 1 -24 -11 11 23 21 2 0.10063338D-01 0.22278303D+00 0.56914403D+05 0.56914403D+05 0.56914403D+05 0.11423801D+01  1  2 12  1  7  1       -2 0.221026123259D-04 0.100000000000D+01
-.410770226728D-05 0.000000000000D+00 -.203148678735D-05 0.352885668202D-06 0.000000000000D+00  7 -2 1 -24 -11 11 23 21 2 0.11489246D-01 0.22278303D+00 0.25168102D+05 0.25168102D+05 0.25168102D+05 0.11744793D+01  1  2  5  1  7  1       -2 -.230547757020D-03 0.100000000000D+01
0.252757429318D-07 0.000000000000D+00 0.000000000000D+00 0.352885668202D-06 0.000000000000D+00  7 21 1 -24 -11 11 23 2 2 0.10063338D-01 0.22278303D+00 0.56914403D+05 0.56914403D+05 0.56914403D+05 0.11423801D+01  1  2 12  3  7  1       -2 0.239403226615D-04 0.100000000000D+01
-.233578842843D-06 0.000000000000D+00 -.179032501332D-06 0.352885668202D-06 0.000000000000D+00  7 21 1 -24 -11 11 23 2 2 0.11489246D-01 0.22278303D+00 0.25168102D+05 0.25168102D+05 0.25168102D+05 0.11744793D+01  1  2  5  3  7  1       -2 -.191849672966D-03 0.100000000000D+01
  </mgrwgt>
  </event>
  <event>
  8     66 0.26562228E-05 0.26111769E+03 0.75467711E-02 0.94796055E-01
       -4 -1    0    0    0  501 0.00000000E+00 0.00000000E+00 0.22990400E+02 0.23042591E+02 0.15500000E+01 0.0000E+00 0.9000E+01
        3 -1    0    0  501    0 0.00000000E+00 0.00000000E+00 -.38933538E+04 0.38933539E+04 0.50000000E+00 0.0000E+00 0.9000E+01
       25  2    1    2    0    0 0.15285462E+03 0.15233743E+03 -.24565705E+04 0.24839688E+04 0.29797870E+03 0.0000E+00 0.0000E+00
       23  2    3    3    0    0 0.16546733E+02 -.16414446E+02 -.13068502E+04 0.13104148E+04 0.93735181E+02 0.0000E+00 0.0000E+00
      -24  1    1    2    0    0 -.15285462E+03 -.15233743E+03 -.14137930E+04 0.14324277E+04 0.80419002E+02 0.0000E+00 0.9000E+01
      -11  1    4    4    0    0 -.12716229E+02 0.10781951E+02 -.10762915E+04 0.10764206E+04 0.51099893E-03 0.0000E+00 0.9000E+01
       11  1    4    4    0    0 0.29262962E+02 -.27196398E+02 -.23055870E+03 0.23399419E+03 0.51099893E-03 0.0000E+00 0.9000E+01
       23  1    3    3    0    0 0.13630789E+03 0.16875187E+03 -.11497203E+04 0.11735540E+04 0.91188000E+02 0.0000E+00 0.9000E+01
#aMCatNLO 1  0  0  1  2 0.34250414D+03 0.00000000D+00  -5  7  0 0.00000000D+00 0.00000000D+00 0.00000000D+00 0.00000000D+00 0.00000000D+00
  <mgrwgt>
 0.2259201150D-04    5    2    0
 0.299352675065856D+03 0.000000000000000D+00 0.000000000000000D+00 0.299352675065856D+03
 0.299352675065856D+03 0.000000000000000D+00 0.000000000000000D+00 -.299352675065856D+03
 0.230600917317364D+03 -.152854619752081D+03 -.152337427910502D+03 0.117618192172171D+02
 0.835980958792582D+02 -.127162286220509D+02 0.107819513566956D+02 -.819187932602235D+02
 0.402001410667150D+02 0.292629619400860D+02 -.271963976307425D+02 0.448178047068422D+01
 0.244306195868375D+03 0.136307886434046D+03 0.168751874184549D+03 0.656751935723221D+02
 0.000000000000000D+00 0.000000000000000D+00 -.000000000000000D+00 0.000000000000000D+00
 0.578404223731788D+03 0.000000000000000D+00 0.000000000000000D+00 0.578404223731788D+03
 0.470459055997227D+03 0.000000000000000D+00 0.000000000000000D+00 -.470459055997227D+03
 0.274345894118888D+03 -.254054767479152D+03 -.641583072979411D+02 0.117618192172171D+02
 0.105847722824402D+03 -.506844747914926D+02 0.438649718227520D+02 -.819187932602235D+02
 0.234710808791681D+02 0.165021385801786D+02 -.160774594923957D+02 0.448178047068422D+01
 0.286086838229420D+03 0.300078718811616D+02 0.261374681709052D+03 0.656751935723221D+02
 0.359111743677136D+03 0.258229231809304D+03 -.225003886741468D+03 0.107945167734561D+03
0.118962472398D-03 0.000000000000D+00 0.000000000000D+00 0.353539430174D-07 0.000000000000D+00  7 -4 3 -24 -11 11 23 21 0 0.35410018D-02 0.59898153D+00 0.68182449D+05 0.68182449D+05 0.68182449D+05 0.11356322D+01  1  2  2  1  7  1       -4 0.186990332885D-04 0.100000000000D+01
-.645897291581D-05 0.000000000000D+00 -.456847217546D-06 0.353539430174D-07 0.000000000000D+00  7 -4 3 -24 -11 11 23 21 2 0.35410018D-02 0.59898153D+00 0.68182449D+05 0.68182449D+05 0.68182449D+05 0.11356322D+01  1  2  3  1  7  1       -4 -.130932667679D-05 0.100000000000D+01
0.757631023145D-05 0.000000000000D+00 0.000000000000D+00 0.353539430174D-07 0.000000000000D+00  7 -4 3 -24 -11 11 23 21 2 0.35410018D-02 0.59898153D+00 0.68182449D+05 0.68182449D+05 0.68182449D+05 0.11356322D+01  1  2 15  1  7  1       -4 0.153582701568D-05 0.100000000000D+01
0.406733947531D-03 0.000000000000D+00 -.127389851724D-03 0.353539430174D-07 0.000000000000D+00  7 -4 3 -24 -11 11 23 21 2 0.55045181D-01 0.59898153D+00 0.68182449D+05 0.68182449D+05 0.68182449D+05 0.11356322D+01  1  2  5  1  7  1       -4 0.592367122044D-06 0.100000000000D+01
0.962362962284D-04 0.000000000000D+00 -.391552578696D-04 0.353539430174D-07 0.000000000000D+00  7 21 3 -24 -11 11 23 4 2 0.55045181D-01 0.59898153D+00 0.68182449D+05 0.68182449D+05 0.68182449D+05 0.11356322D+01  1  2  5  3  7  1       -4 0.307411075546D-05 0.100000000000D+01
  </mgrwgt>
  </event>
  <event>
  8     66 0.26562228E-05 0.22977673E+03 0.75467711E-02 0.95183403E-01
       -2 -1    0    0    0  501 0.00000000E+00 0.00000000E+00 0.25251275E+03 0.25251295E+03 0.32000000E+00 0.0000E+00 0.9000E+01
        1 -1    0    0  501    0 0.00000000E+00 0.00000000E+00 -.80975869E+03 0.80975875E+03 0.32000000E+00 0.0000E+00 0.9000E+01
       25  2    1    2    0    0 -.37436070E+03 0.86870507E+02 -.18486814E+03 0.52113876E+03 0.29952788E+03 0.0000E+00 0.0000E+00
       23  2    3    3    0    0 -.19182340E+03 -.63689175E+02 -.14305132E+03 0.26413295E+03 0.91923926E+02 0.0000E+00 0.0000E+00
      -24  1    1    2    0    0 0.37436070E+03 -.86870507E+02 -.37237780E+03 0.54113294E+03 0.80419002E+02 0.0000E+00 0.9000E+01
      -13  1    4    4    0    0 -.56612089E+02 -.12609546E+02 0.37475874E+01 0.58120434E+02 0.10565837E+00 0.0000E+00 0.9000E+01
       13  1    4    4    0    0 -.13521131E+03 -.51079629E+02 -.14679891E+03 0.20601252E+03 0.10565837E+00 0.0000E+00 0.9000E+01
       23  1    3    3    0    0 -.18253730E+03 0.15055968E+03 -.41816823E+02 0.25700580E+03 0.91188000E+02 0.0000E+00 0.9000E+01
#aMCatNLO 1  0  0  1  2 0.97684835D+02 0.00000000D+00  -5  7  0 0.00000000D+00 0.00000000D+00 0.00000000D+00 0.00000000D+00 0.00000000D+00
  <mgrwgt>
 0.1523826477D-02    9    2    0
 0.452188601315800D+03 0.000000000000000D+00 0.000000000000000D+00 0.452188601315800D+03
 0.452188601315800D+03 0.000000000000000D+00 0.000000000000000D+00 -.452188601315800D+03
 0.406162598782903D+03 0.374360704274619D+03 -.868705074051558D+02 -.103963545216066D+03
 0.705766607374232D+02 -.566119849054814D+02 -.126094952759517D+02 0.402137891125995D+02
 0.151527779292159D+03 -.135211415336885D+03 -.510796799750681D+02 -.454907392054041D+02
 0.276110163819115D+03 -.182537304032252D+03 0.150559682656176D+03 0.109240495308871D+03
 0.000000000000000D+00 0.000000000000000D+00 0.000000000000000D+00 0.000000000000000D+00
 0.507522469240685D+03 0.000000000000000D+00 0.000000000000000D+00 0.507522469240685D+03
 0.500082797149701D+03 0.000000000000000D+00 0.000000000000000D+00 -.500082797149701D+03
 0.402495393693573D+03 0.358460045196875D+03 -.127409980981613D+03 -.103963545216066D+03
 0.744879219549993D+02 -.594643928394998D+02 -.198818426362114D+02 0.402137891125995D+02
 0.162878265137834D+03 -.141393587987097D+03 -.668414181252278D+02 -.454907392054041D+02
 0.269775957802221D+03 -.193271074298456D+03 0.123193433624925D+03 0.109240495308871D+03
 0.979677278017592D+02 0.356690099281778D+02 0.909398081181271D+02 0.743967209098370D+01
0.649307220241D-04 0.000000000000D+00 0.000000000000D+00 0.417560268870D-05 0.000000000000D+00  7 -2 1 -24 -13 13 23 21 0 0.38848135D-01 0.12457828D+00 0.18009417D+06 0.18009417D+06 0.18009417D+06 0.11013394D+01  1  2  2  1  7  1       -2 0.961597405400D-03 0.100000000000D+01
-.358958742723D-05 0.000000000000D+00 -.249351069224D-06 0.417560268870D-05 0.000000000000D+00  7 -2 1 -24 -13 13 23 21 2 0.38848135D-01 0.12457828D+00 0.18009417D+06 0.18009417D+06 0.18009417D+06 0.11013394D+01  1  2  3  1  7  1       -2 -.644807341976D-04 0.100000000000D+01
0.421880156111D-05 0.000000000000D+00 0.000000000000D+00 0.417560268870D-05 0.000000000000D+00  7 -2 1 -24 -13 13 23 21 2 0.38848135D-01 0.12457828D+00 0.18009417D+06 0.18009417D+06 0.18009417D+06 0.11013394D+01  1  2 15  1  7  1       -2 0.757834786334D-04 0.100000000000D+01
0.548910936232D-04 0.000000000000D+00 0.000000000000D+00 0.417560268870D-05 0.000000000000D+00  7 -2 1 -24 -13 13 23 21 2 0.45432054D-01 0.12457828D+00 0.22671285D+06 0.22671285D+06 0.22671285D+06 0.10936681D+01  1  2 12  1  7  1       -2 0.718115713658D-03 0.100000000000D+01
-.470375443646D-04 0.000000000000D+00 0.000000000000D+00 0.417560268870D-05 0.000000000000D+00  7 -2 1 -24 -13 13 23 21 2 0.38848135D-01 0.12457828D+00 0.18009417D+06 0.18009417D+06 0.18009417D+06 0.11013394D+01  1  2  4  1  7  1       -2 -.844948188884D-03 0.100000000000D+01
-.145372848683D-03 0.000000000000D+00 -.433955353448D-04 0.417560268870D-05 0.000000000000D+00  7 -2 1 -24 -13 13 23 21 2 0.47923915D-01 0.12457828D+00 0.18009417D+06 0.18009417D+06 0.18009417D+06 0.11013394D+01  1  2  5  1  7  1       -2 -.175039484013D-02 0.100000000000D+01
0.152059351805D-03 0.000000000000D+00 0.424563356524D-04 0.417560268870D-05 0.000000000000D+00  7 -2 1 -24 -13 13 23 21 2 0.38848135D-01 0.12457828D+00 0.18009417D+06 0.18009417D+06 0.18009417D+06 0.11013394D+01  1  2  6  1  7  1       -2 0.273148344894D-02 0.100000000000D+01
0.129607666171D-05 0.000000000000D+00 0.000000000000D+00 0.417560268870D-05 0.000000000000D+00  7 21 1 -24 -13 13 23 2 2 0.45432054D-01 0.12457828D+00 0.22671285D+06 0.22671285D+06 0.22671285D+06 0.10936681D+01  1  2 12  3  7  1       -2 0.181573720515D-03 0.100000000000D+01
-.377417685983D-05 0.000000000000D+00 -.128876148121D-05 0.417560268870D-05 0.000000000000D+00  7 21 1 -24 -13 13 23 2 2 0.47923915D-01 0.12457828D+00 0.18009417D+06 0.18009417D+06 0.18009417D+06 0.11013394D+01  1  2  5  3  7  1       -2 -.484903526701D-03 0.100000000000D+01
  </mgrwgt>
  </event>
  <event>
  8     66 0.26562228E-05 0.18840741E+03 0.75467711E-02 0.89651706E-01
       -2 -1    0    0    0  501 0.00000000E+00 0.00000000E+00 0.37294502E+02 0.37295875E+02 0.32000000E+00 0.0000E+00 0.9000E+01
        1 -1    0    0  501    0 0.00000000E+00 0.00000000E+00 -.16745659E+04 0.16745660E+04 0.32000000E+00 0.0000E+00 0.9000E+01
       25  2    1    2    0    0 -.10161161E+03 0.77229134E+02 -.85199534E+03 0.91222753E+03 0.29995627E+03 0.0000E+00 0.0000E+00
       23  2    3    3    0    0 -.64716380E+02 -.22992843E+01 -.10371554E+03 0.15333101E+03 0.92520213E+02 0.0000E+00 0.0000E+00
      -24  1    1    2    0    0 0.10161161E+03 -.77229134E+02 -.78527609E+03 0.79963430E+03 0.80419002E+02 0.0000E+00 0.9000E+01
      -13  1    4    4    0    0 -.44579324E+02 0.35267243E+02 -.93624697E+02 0.10952940E+03 0.10565837E+00 0.0000E+00 0.9000E+01
       13  1    4    4    0    0 -.20137057E+02 -.37566528E+02 -.10090845E+02 0.43801614E+02 0.10565837E+00 0.0000E+00 0.9000E+01
       23  1    3    3    0    0 -.36895229E+02 0.79528419E+02 -.74827979E+03 0.75889652E+03 0.91188000E+02 0.0000E+00 0.9000E+01
#aMCatNLO 1  0  0  2  2 0.74491406D+03 0.00000000D+00  -5  7  0 0.00000000D+00 0.00000000D+00 0.00000000D+00 0.00000000D+00 0.00000000D+00
  <mgrwgt>
 0.1768073925D-02    3    2    0
 0.249906590407108D+03 0.000000000000000D+00 0.000000000000000D+00 0.249906590407108D+03
 0.249906590407108D+03 0.000000000000000D+00 0.000000000000000D+00 -.249906590407108D+03
 0.166368829985351D+03 0.101611609965089D+03 -.772291351507059D+02 -.701577724881623D+02
 0.684458282052896D+02 -.445793541330920D+02 0.352673356791523D+02 0.381277801331049D+02
 0.116965483281525D+03 -.201370261580099D+02 -.375666205163969D+02 0.108922786779302D+03
 0.148033039342051D+03 -.368952296739872D+02 0.795284199879505D+02 -.768927944242445D+02
 0.000000000000000D+00 0.000000000000000D+00 0.000000000000000D+00 0.000000000000000D+00
 0.135062711969743D+04 0.000000000000000D+00 0.000000000000000D+00 0.135062711969743D+04
 0.602307604572314D+03 0.000000000000000D+00 0.000000000000000D+00 -.602307604572314D+03
 0.195307609701978D+03 -.797724817960332D+02 -.142800856302511D+03 -.701577724881623D+02
 0.167458599097994D+03 -.162887614206171D+03 -.750199521500258D+01 0.381277801331049D+02
 0.257186686029237D+03 -.207777812131119D+03 -.105400183951156D+03 0.108922786779302D+03
 0.277103497459386D+03 -.250105149205550D+03 0.245142136816844D+01 -.768927944242445D+02
 0.105587833198115D+04 0.700543057338874D+03 0.253251614100501D+03 0.748319515125116D+03
0.211437591275D-04 0.000000000000D+00 0.000000000000D+00 0.939979163341D-06 0.000000000000D+00  7 -2 1 -24 -13 13 23 21 0 0.57377237D-02 0.25762564D+00 0.35497351D+05 0.35497351D+05 0.35497351D+05 0.11606160D+01  1  2  2  2  7  2        1 0.173369959305D-02 0.100000000000D+01
-.106068913506D-05 0.000000000000D+00 -.811976023292D-07 0.939979163341D-06 0.000000000000D+00  7 -2 1 -24 -13 13 23 21 2 0.57377237D-02 0.25762564D+00 0.35497351D+05 0.35497351D+05 0.35497351D+05 0.11606160D+01  1  2  3  2  7  2        1 -.117153941040D-03 0.100000000000D+01
0.137190769530D-05 0.000000000000D+00 0.000000000000D+00 0.939979163341D-06 0.000000000000D+00  7 -2 1 -24 -13 13 23 21 2 0.57377237D-02 0.25762564D+00 0.35497351D+05 0.35497351D+05 0.35497351D+05 0.11606160D+01  1  2 15  2  7  2        1 0.151528273398D-03 0.100000000000D+01
  </mgrwgt>
  </event>
  <event>
  8     66 0.26562228E-05 0.48078345E+03 0.75467711E-02 0.85584994E-01
       -2 -1    0    0    0  501 0.00000000E+00 0.00000000E+00 0.42786558E+03 0.42786570E+03 0.32000000E+00 0.0000E+00 0.9000E+01
        1 -1    0    0  501    0 0.00000000E+00 0.00000000E+00 -.18198903E+04 0.18198903E+04 0.32000000E+00 0.0000E+00 0.9000E+01
       25  2    1    2    0    0 0.47522933E+03 0.68963140E+03 -.49579667E+03 0.10184772E+04 0.30007863E+03 0.0000E+00 0.0000E+00
       23  2    3    3    0    0 0.20951048E+03 0.45695627E+03 -.19823907E+03 0.54773316E+03 0.89494193E+02 0.0000E+00 0.0000E+00
      -24  1    1    2    0    0 -.47522933E+03 -.68963140E+03 -.89622806E+03 0.12292788E+04 0.80419002E+02 0.0000E+00 0.9000E+01
      -13  1    4    4    0    0 0.21339492E+03 0.40417683E+03 -.16918521E+03 0.48736019E+03 0.10565837E+00 0.0000E+00 0.9000E+01
       13  1    4    4    0    0 -.38844421E+01 0.52779434E+02 -.29053859E+02 0.60372969E+02 0.10565837E+00 0.0000E+00 0.9000E+01
       23  1    3    3    0    0 0.26571885E+03 0.23267513E+03 -.29755760E+03 0.47074409E+03 0.91188000E+02 0.0000E+00 0.9000E+01
#aMCatNLO 1  0  0  2  1 0.60027834D+03 0.00000000D+00  -5  7  0 0.00000000D+00 0.00000000D+00 0.00000000D+00 0.00000000D+00 0.00000000D+00
  <mgrwgt>
 0.1062273715D-02    7    2    0
 0.882421999719787D+03 0.000000000000000D+00 0.000000000000000D+00 0.882421999719787D+03
 0.882421999719787D+03 0.000000000000000D+00 0.000000000000000D+00 -.882421999719787D+03
 0.858742861215288D+03 -.475229328571381D+03 -.689631399156007D+03 -.171865366777523D+03
 0.487271324569831D+03 0.213395225478222D+03 0.404177324696549D+03 0.168927533848916D+03
 0.539758473156364D+02 -.388474495893538D+01 0.527789442743217D+02 0.106152668988091D+02
 0.364853966338819D+03 0.265718848052094D+03 0.232675130185136D+03 -.767743397020169D+01
 0.000000000000000D+00 -.000000000000000D+00 -.000000000000000D+00 -.000000000000000D+00
 0.100686937382280D+04 0.000000000000000D+00 0.000000000000000D+00 0.100686937382280D+04
 0.213638341358917D+04 0.000000000000000D+00 0.000000000000000D+00 -.213638341358917D+04
 0.680464504593790D+03 -.233259780187815D+03 -.610423538788325D+03 -.171865366777523D+03
 0.626434939551110D+03 0.388474300427711D+03 0.461488829448045D+03 0.168927533848916D+03
 0.613417103999467D+02 0.142436359083613D+02 0.587132044736787D+02 0.106152668988091D+02
 0.495896293902396D+03 0.401032228411422D+03 0.276969478002783D+03 -.767743397020169D+01
 0.127911533896473D+04 -.570490384559680D+03 -.186747973136182D+03 -.112951403976636D+04
0.114826904688D-02 0.000000000000D+00 0.000000000000D+00 0.132653402836D-04 0.000000000000D+00  7 -2 1 -24 -13 13 23 21 0 0.65825485D-01 0.27998314D+00 0.73626363D+06 0.73626363D+06 0.73626363D+06 0.10568315D+01  1  2  2  2  7  2        1 0.105749200202D-02 0.100000000000D+01
-.637319216228D-04 0.000000000000D+00 -.440965548620D-05 0.132653402836D-04 0.000000000000D+00  7 -2 1 -24 -13 13 23 21 2 0.65825485D-01 0.27998314D+00 0.73626363D+06 0.73626363D+06 0.73626363D+06 0.10568315D+01  1  2  3  2  7  2        1 -.655544118040D-04 0.100000000000D+01
0.732131934683D-04 0.000000000000D+00 0.000000000000D+00 0.132653402836D-04 0.000000000000D+00  7 -2 1 -24 -13 13 23 21 2 0.65825485D-01 0.27998314D+00 0.73626363D+06 0.73626363D+06 0.73626363D+06 0.10568315D+01  1  2 15  2  7  2        1 0.753068119069D-04 0.100000000000D+01
0.241874288184D-03 0.000000000000D+00 0.000000000000D+00 0.132653402836D-04 0.000000000000D+00  7 -2 1 -24 -13 13 23 21 2 0.65825485D-01 0.66929334D+00 0.14618773D+07 0.14618773D+07 0.14618773D+07 0.10370597D+01  1  2 12  2  7  2        1 0.219227763761D-05 0.100000000000D+01
-.960239895487D-03 0.000000000000D+00 -.283503463177D-03 0.132653402836D-04 0.000000000000D+00  7 -2 1 -24 -13 13 23 21 2 0.65825485D-01 0.68847553D+00 0.73626363D+06 0.73626363D+06 0.73626363D+06 0.10568315D+01  1  2  5  2  7  2        1 -.714415997359D-05 0.100000000000D+01
0.230499257811D-04 0.000000000000D+00 0.000000000000D+00 0.132653402836D-04 0.000000000000D+00  7 -2 21 -24 -13 13 23 -1 2 0.65825485D-01 0.66929334D+00 0.14618773D+07 0.14618773D+07 0.14618773D+07 0.10370597D+01  1  2 12  4  7  2        1 0.122965491664D-07 0.100000000000D+01
-.771992630541D-04 0.000000000000D+00 -.280066189379D-04 0.132653402836D-04 0.000000000000D+00  7 -2 21 -24 -13 13 23 -1 2 0.65825485D-01 0.68847553D+00 0.73626363D+06 0.73626363D+06 0.73626363D+06 0.10568315D+01  1  2  5  4  7  2        1 -.311017311331D-07 0.100000000000D+01
  </mgrwgt>
  </event>
  <event>
  9     66 -.26562228E-05 0.39268919E+03 0.75467711E-02 0.97089392E-01
       -2 -1    0    0    0  502 0.00000000E+00 0.00000000E+00 0.22236508E+03 0.22236531E+03 0.32000000E+00 0.0000E+00 0.9000E+01
        1 -1    0    0  501    0 0.00000000E+00 0.00000000E+00 -.88467621E+03 0.88467627E+03 0.32000000E+00 0.0000E+00 0.9000E+01
       25  2    1    2    0    0 0.32753692E+03 0.16463143E+03 -.22299578E+03 0.52338146E+03 0.29969500E+03 0.0000E+00 0.0000E+00
       23  2    3    3    0    0 0.14836777E+03 0.17372536E+03 -.35885667E+02 0.24859112E+03 0.91193583E+02 0.0000E+00 0.0000E+00
      -24  1    1    2    0    0 -.30541192E+03 -.15918066E+03 -.43470084E+03 0.56039892E+03 0.80419002E+02 0.0000E+00 0.9000E+01
      -11  1    4    4    0    0 0.23916229E+02 0.53111386E+02 -.47117159E+02 0.74918836E+02 0.51099893E-03 0.0000E+00 0.9000E+01
       11  1    4    4    0    0 0.12445154E+03 0.12061397E+03 0.11231492E+02 0.17367229E+03 0.51099893E-03 0.0000E+00 0.9000E+01
       23  1    3    3    0    0 0.17916915E+03 -.90939283E+01 -.18711012E+03 0.27479034E+03 0.91188000E+02 0.0000E+00 0.9000E+01
       21  1    1    2  501  502 -.22125006E+02 -.54507705E+01 -.46145154E+01 0.23261192E+02 0.75000000E+00 0.0000E+00 0.9000E+01
#aMCatNLO 2  0  0  1  2 0.22786549D+02 0.00000000D+00  -5  7  0 0.00000000D+00 0.00000000D+00 0.00000000D+00 0.00000000D+00 0.00000000D+00
  <mgrwgt>
 -.1830988845D-03    3    2    0
 0.430550767759352D+03 0.000000000000000D+00 0.000000000000000D+00 0.430550767759352D+03
 0.430550767759352D+03 0.000000000000000D+00 0.000000000000000D+00 -.430550767759352D+03
 0.382153526921450D+03 -.315113775141074D+03 -.161570831513607D+03 -.119047374202353D+03
 0.573545887455384D+02 0.224308778841692D+02 0.527454515690418D+02 -.207891950137421D+01
 0.223200857117386D+03 0.118667800813090D+03 0.119189073623687D+03 0.146732887918312D+03
 0.198392562734330D+03 0.174015096443814D+03 -.103636936791218D+02 -.256065942145846D+02
 0.000000000000000D+00 -.000000000000000D+00 -.000000000000000D+00 0.000000000000000D+00
 0.449544675638507D+03 0.000000000000000D+00 0.000000000000000D+00 0.449544675638507D+03
 0.437590272426243D+03 0.000000000000000D+00 0.000000000000000D+00 -.437590272426243D+03
 0.373168077237401D+03 -.305411916490922D+03 -.159180657981915D+03 -.119047374202353D+03
 0.582848802768490D+02 0.239162289937580D+02 0.531113862868553D+02 -.207891950137421D+01
 0.227082488968904D+03 0.124451542933258D+03 0.120613970422152D+03 0.146732887918312D+03
 0.202867526158391D+03 0.179169150879633D+03 -.909392827255166D+01 -.256065942145846D+02
 0.257319754232052D+02 -.221250063157266D+02 -.545077045454110D+01 0.119544032122645D+02
-.934915190954D-04 0.000000000000D+00 0.000000000000D+00 0.663820902346D-05 0.000000000000D+00  7 -2 1 -24 -11 11 23 21 2 0.34469159D-01 0.13391289D+00 0.16372445D+06 0.16372445D+06 0.16372445D+06 0.11045638D+01  1  2 13  1  7  1       -2 -.187653909861D-02 0.100000000000D+01
-.490671539811D-04 0.000000000000D+00 0.000000000000D+00 0.663820902346D-05 0.000000000000D+00  7 -2 1 -24 -11 11 23 21 2 0.32764205D-01 0.13391289D+00 0.15420480D+06 0.15420480D+06 0.15420480D+06 0.11066056D+01  1  2  8  1  7  1       -2 -.108474636774D-02 0.100000000000D+01
0.140218478203D-03 0.000000000000D+00 0.000000000000D+00 0.663820902346D-05 0.832865300698D-07  7 -2 1 -24 -11 11 23 21 2 0.34209610D-01 0.13610237D+00 0.16372445D+06 0.16372445D+06 0.16372445D+06 0.11045638D+01  1  2  1  1  7  1       -2 0.277818658187D-02 0.100000000000D+01
  </mgrwgt>
  </event>
  <event>
  8     66 0.26562228E-05 0.12119972E+03 0.75467711E-02 0.10257533E+00
       -2 -1    0    0    0  501 0.00000000E+00 0.00000000E+00 0.42881687E+03 0.42881699E+03 0.32000000E+00 0.0000E+00 0.9000E+01
        1 -1    0    0  501    0 0.00000000E+00 0.00000000E+00 -.11992518E+03 0.11992561E+03 0.32000000E+00 0.0000E+00 0.9000E+01
       25  2    1    2    0    0 -.60053669E+02 -.84426410E+02 0.25504951E+03 0.40696651E+03 0.29972859E+03 0.0000E+00 0.0000E+00
       23  2    3    3    0    0 0.78599499E+02 0.13864442E+02 0.11469478E+03 0.16842827E+03 0.94037680E+02 0.0000E+00 0.0000E+00
      -24  1    1    2    0    0 0.60053669E+02 0.84426410E+02 0.53842184E+02 0.14177609E+03 0.80419002E+02 0.0000E+00 0.9000E+01
      -13  1    4    4    0    0 0.43778634E+02 0.52524708E+02 0.82867098E+02 0.10743547E+03 0.10565837E+00 0.0000E+00 0.9000E+01
       13  1    4    4    0    0 0.34820865E+02 -.38660266E+02 0.31827684E+02 0.60992798E+02 0.10565837E+00 0.0000E+00 0.9000E+01
       23  1    3    3    0    0 -.13865317E+03 -.98290852E+02 0.14035473E+03 0.23853824E+03 0.91188000E+02 0.0000E+00 0.9000E+01
#aMCatNLO 1  0  0  1  2 0.74535929D+02 0.00000000D+00  -5  7  0 0.00000000D+00 0.00000000D+00 0.00000000D+00 0.00000000D+00 0.00000000D+00
  <mgrwgt>
 0.8580135813D-03    9    2    0
 0.226773214078307D+03 0.000000000000000D+00 0.000000000000000D+00 0.226773214078307D+03
 0.226773214078307D+03 0.000000000000000D+00 0.000000000000000D+00 -.226773214078307D+03
 0.134864199524713D+03 0.600536709187263D+02 0.844264127415443D+02 -.314145475831001D+02
 0.735480869753980D+02 0.437786540851470D+02 0.525248103003878D+02 0.270904936673740D+02
 0.521181949491564D+02 0.348208569288775D+02 -.386603606428486D+02 -.303161383784333D+01
 0.193015946707346D+03 -.138653181932751D+03 -.982908623990836D+02 0.735566775356941D+01
 0.000000000000000D+00 0.000000000000000D+00 0.000000000000000D+00 0.000000000000000D+00
 0.400330658824984D+03 0.000000000000000D+00 0.000000000000000D+00 0.400330658824984D+03
 0.237960431239835D+03 0.000000000000000D+00 0.000000000000000D+00 -.237960431239835D+03
 0.126699354539357D+03 0.387047629587675D+02 0.842649275248840D+02 -.314145475831001D+02
 0.672749732931842D+02 0.322846270863501D+02 0.524378683620142D+02 0.270904936673740D+02
 0.471430551862373D+02 0.267191192815450D+02 -.387216429745612D+02 -.303161383784333D+01
 0.218512867564947D+03 -.172242306419942D+03 -.985449338043009D+02 0.735566775356941D+01
 0.178660839481094D+03 0.745337970932792D+02 0.563780891963830D+00 0.162370227585148D+03
0.110326106830D-04 0.000000000000D+00 0.000000000000D+00 0.154624488789D-06 0.000000000000D+00  7 -2 1 -24 -13 13 23 21 0 0.65971869D-01 0.18450070D-01 0.49381102D+05 0.49381102D+05 0.49381102D+05 0.11477715D+01  1  2  2  1  7  1       -2 0.774555311145D-03 0.100000000000D+01
-.612616051152D-06 0.000000000000D+00 -.423681299759D-07 0.154624488789D-06 0.000000000000D+00  7 -2 1 -24 -13 13 23 21 2 0.65971869D-01 0.18450070D-01 0.49381102D+05 0.49381102D+05 0.49381102D+05 0.11477715D+01  1  2  3  1  7  1       -2 -.566595833655D-04 0.100000000000D+01
0.722647676149D-06 0.000000000000D+00 0.000000000000D+00 0.154624488789D-06 0.000000000000D+00  7 -2 1 -24 -13 13 23 21 2 0.65971869D-01 0.18450070D-01 0.49381102D+05 0.49381102D+05 0.49381102D+05 0.11477715D+01  1  2 15  1  7  1       -2 0.668361793225D-04 0.100000000000D+01
0.211491770845D-04 0.000000000000D+00 0.000000000000D+00 0.154624488789D-06 0.000000000000D+00  7 -2 1 -24 -13 13 23 21 2 0.11697573D+00 0.18450070D-01 0.68720763D+05 0.68720763D+05 0.68720763D+05 0.11353412D+01  1  2 12  1  7  1       -2 0.515835619476D-03 0.100000000000D+01
-.211166021211D-04 0.000000000000D+00 0.000000000000D+00 0.154624488789D-06 0.000000000000D+00  7 -2 1 -24 -13 13 23 21 2 0.65971869D-01 0.18450070D-01 0.49381102D+05 0.49381102D+05 0.49381102D+05 0.11477715D+01  1  2  4  1  7  1       -2 -.195303057442D-02 0.100000000000D+01
-.240646959305D-04 0.000000000000D+00 -.350934001923D-05 0.154624488789D-06 0.000000000000D+00  7 -2 1 -24 -13 13 23 21 2 0.11916686D+00 0.18450070D-01 0.49381102D+05 0.49381102D+05 0.49381102D+05 0.11477715D+01  1  2  5  1  7  1       -2 -.575058369171D-03 0.100000000000D+01
0.226065301117D-04 0.000000000000D+00 0.297409562722D-05 0.154624488789D-06 0.000000000000D+00  7 -2 1 -24 -13 13 23 21 2 0.65971869D-01 0.18450070D-01 0.49381102D+05 0.49381102D+05 0.49381102D+05 0.11477715D+01  1  2  6  1  7  1       -2 0.209083091286D-02 0.100000000000D+01
0.133326351718D-05 0.000000000000D+00 0.000000000000D+00 0.154624488789D-06 0.000000000000D+00  7 21 1 -24 -13 13 23 2 2 0.11697573D+00 0.18450070D-01 0.68720763D+05 0.68720763D+05 0.68720763D+05 0.11353412D+01  1  2 12  3  7  1       -2 0.306329900091D-03 0.100000000000D+01
-.137184549082D-05 0.000000000000D+00 -.227406163306D-06 0.154624488789D-06 0.000000000000D+00  7 21 1 -24 -13 13 23 2 2 0.11916686D+00 0.18450070D-01 0.49381102D+05 0.49381102D+05 0.49381102D+05 0.11477715D+01  1  2  5  3  7  1       -2 -.311625814661D-03 0.100000000000D+01
  </mgrwgt>
  </event>
  <event>
  9     66 0.26562228E-05 0.27394374E+03 0.75467711E-02 0.95264867E-01
       21 -1    0    0  502  501 0.00000000E+00 0.00000000E+00 0.16498130E+03 0.16498301E+03 0.75000000E+00 0.0000E+00 0.9000E+01
        1 -1    0    0  501    0 0.00000000E+00 0.00000000E+00 -.16868140E+04 0.16868141E+04 0.32000000E+00 0.0000E+00 0.9000E+01
       25  2    1    2    0    0 0.52207927E+02 -.49397584E+01 -.72568398E+03 0.78676363E+03 0.29938218E+03 0.0000E+00 0.0000E+00
       23  2    3    3    0    0 0.14346224E+03 -.18985872E+01 -.32946503E+03 0.37006073E+03 0.88389559E+02 0.0000E+00 0.0000E+00
      -24  1    1    2    0    0 -.14989047E+03 -.29795117E+03 -.60007114E+03 0.69122691E+03 0.80419002E+02 0.0000E+00 0.9000E+01
      -11  1    4    4    0    0 0.14371041E+03 -.12792374E+02 -.24069962E+03 0.28062900E+03 0.51099893E-03 0.0000E+00 0.9000E+01
       11  1    4    4    0    0 -.24816383E+00 0.10893787E+02 -.88765415E+02 0.89431734E+02 0.51099893E-03 0.0000E+00 0.9000E+01
       23  1    3    3    0    0 -.91254315E+02 -.30411711E+01 -.39621895E+03 0.41670290E+03 0.91188000E+02 0.0000E+00 0.9000E+01
        2  1    1    2  502    0 0.97682541E+02 0.30289093E+03 -.19607761E+03 0.37380654E+03 0.32000000E+00 0.0000E+00 0.9000E+01
#aMCatNLO 2  0  0  1  1 0.31825272D+03 0.00000000D+00  -5  7  0 0.00000000D+00 0.00000000D+00 0.00000000D+00 0.00000000D+00 0.00000000D+00
  <mgrwgt>
 0.3294086768D-03    1    2    0
 0.285282574017481D+03 0.000000000000000D+00 0.000000000000000D+00 0.285282574017481D+03
 0.285282574017481D+03 0.000000000000000D+00 0.000000000000000D+00 -.285282574017481D+03
 0.212405290650493D+03 -.105318583767840D+03 -.159744082864445D+03 0.451510292782288D+02
 0.185467949600819D+03 0.170199363073045D+03 0.693437443267480D+02 0.249395721977803D+02
 0.311505901972948D+02 0.400923128973997D+01 0.240949827510170D+02 -.193317650599566D+02
 0.141541317586355D+03 -.688900105949449D+02 0.663053557866803D+02 -.507588364160525D+02
 0.000000000000000D+00 0.000000000000000D+00 0.000000000000000D+00 0.000000000000000D+00
 0.708024707994036D+03 0.000000000000000D+00 0.000000000000000D+00 0.708024707994036D+03
 0.393057342080089D+03 0.000000000000000D+00 0.000000000000000D+00 -.393057342080089D+03
 0.346046073029311D+03 -.149890468691384D+03 -.297951171595666D+03 0.451510292782288D+02
 0.146418263672692D+03 0.143710406168609D+03 -.127923740709515D+02 0.249395721977803D+02
 0.221912892194553D+02 -.248163831121683D+00 0.108937868347548D+02 -.193317650599566D+02
 0.138666180323576D+03 -.912543151052953D+02 -.304117113664876D+01 -.507588364160525D+02
 0.447760243829091D+03 0.976825414591915D+02 0.302890929968512D+03 0.314967365913947D+03
0.309792060464D-05 0.000000000000D+00 0.000000000000D+00 0.237281176973D-06 0.492135530206D-11  7 21 1 -24 -11 11 23 2 2 0.25381869D-01 0.25950995D+00 0.22351992D+06 0.22351992D+06 0.22351992D+06 0.10941360D+01  1  2  1  3  7  1       -2 0.329408676846D-03 0.100000000000D+01
  </mgrwgt>
  </event>
  <event>
  8     66 0.26562228E-05 0.75701371E+02 0.75467711E-02 0.10135744E+00
       -2 -1    0    0    0  501 0.00000000E+00 0.00000000E+00 0.39765237E+02 0.39766525E+02 0.32000000E+00 0.0000E+00 0.9000E+01
        1 -1    0    0  501    0 0.00000000E+00 0.00000000E+00 -.24099878E+04 0.24099879E+04 0.32000000E+00 0.0000E+00 0.9000E+01
       25  2    1    2    0    0 0.18435370E+03 0.86144313E+02 -.18496736E+04 0.18850902E+04 0.30143926E+03 0.0000E+00 0.0000E+00
       23  2    3    3    0    0 -.47270364E+02 0.39413188E+02 -.51563745E+03 0.52722382E+03 0.91077356E+02 0.0000E+00 0.0000E+00
      -24  1    1    2    0    0 -.18435370E+03 -.86144313E+02 -.52054902E+03 0.56466417E+03 0.80419002E+02 0.0000E+00 0.9000E+01
      -13  1    4    4    0    0 -.15460952E+02 0.61972785E+02 -.40291423E+03 0.40794553E+03 0.10565837E+00 0.0000E+00 0.9000E+01
       13  1    4    4    0    0 -.31809411E+02 -.22559596E+02 -.11272322E+03 0.11927829E+03 0.10565837E+00 0.0000E+00 0.9000E+01
       23  1    3    3    0    0 0.23162406E+03 0.46731124E+02 -.13340361E+04 0.13578664E+04 0.91188000E+02 0.0000E+00 0.9000E+01
#aMCatNLO 1  0  0  2  1 0.33793585D+03 0.00000000D+00  -5  7  0 0.00000000D+00 0.00000000D+00 0.00000000D+00 0.00000000D+00 0.00000000D+00
  <mgrwgt>
 0.4168662290D-05    1    2    0
 0.309572836380108D+03 0.000000000000000D+00 0.000000000000000D+00 0.309572836380108D+03
 0.309572836380108D+03 0.000000000000000D+00 0.000000000000000D+00 -.309572836380108D+03
 0.241415689176640D+03 -.184353699228076D+03 -.861443140076314D+02 0.102015634935730D+03
 0.716632007558778D+02 -.154609280122806D+02 0.619728983243071D+02 -.324951368801767D+02
 0.404159375411674D+02 -.318094307370260D+02 -.225597099281208D+02 0.106145000577951D+02
 0.265650845286532D+03 0.231624057977382D+03 0.467311256114452D+02 -.801349981133483D+02
 0.000000000000000D+00 -.000000000000000D+00 0.000000000000000D+00 0.000000000000000D+00
 0.320636285619993D+03 0.000000000000000D+00 0.000000000000000D+00 0.320636285619993D+03
 0.316728302257393D+03 0.000000000000000D+00 0.000000000000000D+00 -.316728302257393D+03
 0.237429747481224D+03 -.177975665109516D+03 -.884485267944735D+02 0.102015634935730D+03
 0.706834544439290D+02 -.135649261836656D+02 0.612879236791170D+02 -.324951368801767D+02
 0.398017636818367D+02 -.307409622999375D+02 -.229457189379993D+02 0.106145000577951D+02
 0.271479117984411D+03 0.238778419217105D+03 0.441464466423748D+02 -.801349981133483D+02
 0.179705042859851D+02 -.164968656239857D+02 0.595987541098103D+01 0.390798336259918D+01
0.134933014901D-06 0.000000000000D+00 0.000000000000D+00 0.396604368315D-06 0.000000000000D+00  7 -2 1 -24 -13 13 23 21 2 0.61178294D-02 0.37076746D+00 0.82641206D+05 0.82641206D+05 0.82641206D+05 0.11285810D+01  1  2 14  2  7  2        1 0.416866229021D-05 0.100000000000D+01
  </mgrwgt>
  </event>
  <event>
  8     66 0.26562228E-05 0.21835277E+03 0.75467711E-02 0.86571324E-01
       -4 -1    0    0    0  501 0.00000000E+00 0.00000000E+00 0.46816610E+03 0.46816867E+03 0.15500000E+01 0.0000E+00 0.9000E+01
        3 -1    0    0  501    0 0.00000000E+00 0.00000000E+00 -.25569083E+03 0.25569132E+03 0.50000000E+00 0.0000E+00 0.9000E+01
       25  2    1    2    0    0 0.10926833E+03 0.89025955E+01 -.13779800E+03 0.34812416E+03 0.30030538E+03 0.0000E+00 0.0000E+00
       23  2    3    3    0    0 0.26389250E+02 0.11155463E+03 -.11253002E+03 0.18576621E+03 0.93301945E+02 0.0000E+00 0.0000E+00
      -24  1    1    2    0    0 -.10926833E+03 -.89025955E+01 0.35027328E+03 0.37573582E+03 0.80419002E+02 0.0000E+00 0.9000E+01
      -13  1    4    4    0    0 -.29244254E+02 0.32863616E+02 -.10117238E+02 0.45139931E+02 0.10565837E+00 0.0000E+00 0.9000E+01
       13  1    4    4    0    0 0.55633504E+02 0.78691011E+02 -.10241278E+03 0.14062628E+03 0.10565837E+00 0.0000E+00 0.9000E+01
       23  1    3    3    0    0 0.82879078E+02 -.10265203E+03 -.25267981E+02 0.16235795E+03 0.91188000E+02 0.0000E+00 0.9000E+01
#aMCatNLO 1  0  0  1  1 0.10554054D+04 0.00000000D+00  -5  7  0 0.00000000D+00 0.00000000D+00 0.00000000D+00 0.00000000D+00 0.00000000D+00
  <mgrwgt>
 0.1361670877D-03    5    2    0
 0.345986825777791D+03 0.000000000000000D+00 0.000000000000000D+00 0.345986825777791D+03
 0.345986825777791D+03 0.000000000000000D+00 0.000000000000000D+00 -.345986825777791D+03
 0.285496009307290D+03 -.109268328400973D+03 -.890259551654547D+01 0.251041692906863D+03
 0.503263937779387D+02 -.292443618463168D+02 0.328635576827960D+02 -.244438087728442D+02
 0.178553093910646D+03 0.556336117606104D+02 0.786910700266766D+02 -.150312421594459D+03
 0.177598154559707D+03 0.828790784866796D+02 -.102652032192927D+03 -.762854625395598D+02
 0.000000000000000D+00 -.000000000000000D+00 0.000000000000000D+00 0.000000000000000D+00
 0.147945655495532D+04 0.000000000000000D+00 0.000000000000000D+00 0.147945655495532D+04
 0.959225445807640D+03 0.000000000000000D+00 0.000000000000000D+00 -.959225445807640D+03
 0.505429901718938D+03 -.358652571608018D+02 -.429748672305675D+03 0.251041692906863D+03
 0.347431764873909D+02 -.213493521627237D+02 -.124013582861966D+02 -.244438087728442D+02
 0.221990427678383D+03 0.928066569726970D+02 -.134435301601898D+03 -.150312421594459D+03
 0.499861847654951D+03 0.145751775046093D+03 -.463123702344266D+03 -.762854625395598D+02
 0.117665664722330D+04 -.181343822695264D+03 0.103970903453804D+04 0.520231109147679D+03
0.396427235169D-04 0.000000000000D+00 0.000000000000D+00 0.135309907036D-05 0.000000000000D+00  7 -4 3 -24 -13 13 23 21 0 0.72025789D-01 0.39337285D-01 0.47677930D+05 0.47677930D+05 0.47677930D+05 0.11491164D+01  1  2  2  1  7  1       -4 0.131990674620D-03 0.100000000000D+01
-.163504685317D-05 0.000000000000D+00 -.152238496474D-06 0.135309907036D-05 0.000000000000D+00  7 -4 3 -24 -13 13 23 21 2 0.72025789D-01 0.39337285D-01 0.47677930D+05 0.47677930D+05 0.47677930D+05 0.11491164D+01  1  2  3  1  7  1       -4 -.718849592213D-05 0.100000000000D+01
0.245451399989D-05 0.000000000000D+00 0.000000000000D+00 0.135309907036D-05 0.000000000000D+00  7 -4 3 -24 -13 13 23 21 2 0.72025789D-01 0.39337285D-01 0.47677930D+05 0.47677930D+05 0.47677930D+05 0.11491164D+01  1  2 15  1  7  1       -4 0.107912894635D-04 0.100000000000D+01
0.519709308056D-04 0.000000000000D+00 -.197411315913D-04 0.135309907036D-05 0.000000000000D+00  7 -4 3 -24 -13 13 23 21 2 0.50396394D+00 0.39337285D-01 0.47677930D+05 0.47677930D+05 0.47677930D+05 0.11491164D+01  1  2  5  1  7  1       -4 0.296432722245D-07 0.100000000000D+01
0.105028463307D-04 0.000000000000D+00 -.469460679851D-05 0.135309907036D-05 0.000000000000D+00  7 21 3 -24 -13 13 23 4 2 0.50396394D+00 0.39337285D-01 0.47677930D+05 0.47677930D+05 0.47677930D+05 0.11491164D+01  1  2  5  3  7  1       -4 0.543976246685D-06 0.100000000000D+01
  </mgrwgt>
  </event>
  <event>
  8     66 0.26562228E-05 0.29874311E+03 0.75467711E-02 0.92166702E-01
       -2 -1    0    0    0  501 0.00000000E+00 0.00000000E+00 0.58556496E+03 0.58556505E+03 0.32000000E+00 0.0000E+00 0.9000E+01
        1 -1    0    0  501    0 0.00000000E+00 0.00000000E+00 -.83014198E+03 0.83014204E+03 0.32000000E+00 0.0000E+00 0.9000E+01
       25  2    1    2    0    0 -.82689143E+02 0.58626598E+03 -.42791754E+03 0.79070608E+03 0.30258453E+03 0.0000E+00 0.0000E+00
       23  2    3    3    0    0 0.84198618E+02 0.18579684E+03 -.15548498E+03 0.27035831E+03 0.85487801E+02 0.0000E+00 0.0000E+00
      -24  1    1    2    0    0 0.82689143E+02 -.58626598E+03 0.18334052E+03 0.62500100E+03 0.80419002E+02 0.0000E+00 0.9000E+01
      -13  1    4    4    0    0 0.28132995E+01 0.51683459E+02 -.34123102E+01 0.51872436E+02 0.10565837E+00 0.0000E+00 0.9000E+01
       13  1    4    4    0    0 0.81385318E+02 0.13411338E+03 -.15207267E+03 0.21848587E+03 0.10565837E+00 0.0000E+00 0.9000E+01
       23  1    3    3    0    0 -.16688776E+03 0.40046914E+03 -.27243256E+03 0.52034777E+03 0.91188000E+02 0.0000E+00 0.9000E+01
#aMCatNLO 1  0  0  2  1 0.62961963D+03 0.00000000D+00  -5  7  0 0.00000000D+00 0.00000000D+00 0.00000000D+00 0.00000000D+00 0.00000000D+00
  <mgrwgt>
 0.5273543720D-05    1    2    0
 0.697210267817552D+03 0.000000000000000D+00 0.000000000000000D+00 0.697210267817552D+03
 0.697210267817552D+03 0.000000000000000D+00 0.000000000000000D+00 -.697210267817552D+03
 0.666699320052930D+03 0.826891433297983D+02 -.586265975615907D+03 0.295762537883318D+03
 0.520655686172842D+02 0.281317935943723D+01 0.516833334183568D+02 0.563404864193841D+01
 0.195148319377656D+03 0.813854377333029D+02 0.134113504077500D+03 -.116072585501215D+03
 0.480507327587234D+03 -.166887760422538D+03 0.400469138120050D+03 -.185324001024042D+03
 0.000000000000000D+00 0.000000000000000D+00 -.000000000000000D+00 -.000000000000000D+00
 0.700934875655813D+03 0.000000000000000D+00 0.000000000000000D+00 0.700934875655813D+03
 0.704386324175986D+03 0.000000000000000D+00 0.000000000000000D+00 -.704386324175986D+03
 0.662691026450482D+03 0.801606182211854D+02 -.582057537580984D+03 0.295762537883318D+03
 0.523835186353719D+02 0.261451525721573D+01 0.520139868736517D+02 0.563404864193841D+01
 0.195693180564191D+03 0.806420499475482D+02 0.135350787196268D+03 -.116072585501215D+03
 0.483690848258108D+03 -.168721683245670D+03 0.403521490867385D+03 -.185324001024042D+03
 0.108626259236460D+02 0.530449981972086D+01 -.882872735632053D+01 -.345144852017318D+01
0.188626677781D-05 0.000000000000D+00 0.000000000000D+00 0.544874269247D-07 0.000000000000D+00  7 -2 1 -24 -13 13 23 21 2 0.90086928D-01 0.12771416D+00 0.39029495D+06 0.39029495D+06 0.39029495D+06 0.10761974D+01  1  2 14  2  7  2        1 0.527354371989D-05 0.100000000000D+01
  </mgrwgt>
  </event>
  <event>
  8     66 0.26562228E-05 0.15444525E+03 0.75467711E-02 0.10814701E+00
       -2 -1    0    0    0  501 0.00000000E+00 0.00000000E+00 0.26766983E+02 0.26768896E+02 0.32000000E+00 0.0000E+00 0.9000E+01
        1 -1    0    0  501    0 0.00000000E+00 0.00000000E+00 -.18254272E+04 0.18254273E+04 0.32000000E+00 0.0000E+00 0.9000E+01
       25  2    1    2    0    0 0.32263161E+02 0.62612109E+01 -.16700615E+04 0.16970029E+04 0.29938781E+03 0.0000E+00 0.0000E+00
       23  2    3    3    0    0 -.12218047E+02 -.56006170E+02 -.24951526E+03 0.27147743E+03 0.90311428E+02 0.0000E+00 0.0000E+00
      -24  1    1    2    0    0 -.32263161E+02 -.62612109E+01 -.12859872E+03 0.15519330E+03 0.80419002E+02 0.0000E+00 0.9000E+01
      -13  1    4    4    0    0 -.25514695E+02 0.15756994E+02 -.11013362E+03 0.11414337E+03 0.10565837E+00 0.0000E+00 0.9000E+01
       13  1    4    4    0    0 0.13296649E+02 -.71763164E+02 -.13938164E+03 0.15733406E+03 0.10565837E+00 0.0000E+00 0.9000E+01
       23  1    3    3    0    0 0.44481208E+02 0.62267381E+02 -.14205463E+04 0.14255254E+04 0.91188000E+02 0.0000E+00 0.9000E+01
#aMCatNLO 1  0  0  1  1 0.40873463D+02 0.00000000D+00  -5  7  0 0.00000000D+00 0.00000000D+00 0.00000000D+00 0.00000000D+00 0.00000000D+00
  <mgrwgt>
 0.1449532109D-02    3    2    0
 0.221049716734773D+03 0.000000000000000D+00 0.000000000000000D+00 0.221049716734773D+03
 0.221049716734773D+03 0.000000000000000D+00 0.000000000000000D+00 -.221049716734773D+03
 0.126991870588269D+03 -.322631638012283D+02 -.626121139696486D+01 0.926261557796432D+02
 0.301355301197658D+02 -.255147472587545D+02 0.157571129686745D+02 0.297678329974156D+01
 0.920909437048013D+02 0.132967022661909D+02 -.717632808106156D+02 0.561602274619850D+02
 0.192881089056709D+03 0.444812087937919D+02 0.622673792389060D+02 -.151763166541370D+03
 0.000000000000000D+00 -.000000000000000D+00 0.000000000000000D+00 -.000000000000000D+00
 0.223778983388637D+03 0.000000000000000D+00 0.000000000000000D+00 0.223778983388637D+03
 0.455771670830963D+03 0.000000000000000D+00 0.000000000000000D+00 -.455771670830963D+03
 0.124933162512941D+03 -.213550234089372D+02 -.102682706335290D+02 0.926261557796432D+02
 0.275474770005659D+02 -.230171219446980D+02 0.148396208733913D+02 0.297678329974156D+01
 0.959253776652297D+02 0.214376496119136D+02 -.747538233855091D+02 0.561602274619850D+02
 0.195578835128291D+03 0.613011942379791D+02 0.560886287269821D+02 -.151763166541370D+03
 0.235565801912572D+03 -.383666984962575D+02 0.140938444186647D+02 -.231992687442326D+03
0.132474875556D-04 0.000000000000D+00 0.000000000000D+00 0.494831704669D-06 0.000000000000D+00  7 -2 1 -24 -13 13 23 21 0 0.41181467D-02 0.28083511D+00 0.23853334D+05 0.23853334D+05 0.23853334D+05 0.11766887D+01  1  2  2  1  7  1       -2 0.141900836923D-02 0.100000000000D+01
-.620934645270D-06 0.000000000000D+00 -.508738403571D-07 0.494831704669D-06 0.000000000000D+00  7 -2 1 -24 -13 13 23 21 2 0.41181467D-02 0.28083511D+00 0.23853334D+05 0.23853334D+05 0.23853334D+05 0.11766887D+01  1  2  3  1  7  1       -2 -.920916960700D-04 0.100000000000D+01
0.826743078119D-06 0.000000000000D+00 0.000000000000D+00 0.494831704669D-06 0.000000000000D+00  7 -2 1 -24 -13 13 23 21 2 0.41181467D-02 0.28083511D+00 0.23853334D+05 0.23853334D+05 0.23853334D+05 0.11766887D+01  1  2 15  1  7  1       -2 0.122615436034D-03 0.100000000000D+01
  </mgrwgt>
  </event>
  <event>
  8     66 0.26562228E-05 0.26752680E+03 0.75467711E-02 0.99701556E-01
       -2 -1    0    0    0  501 0.00000000E+00 0.00000000E+00 0.37834155E+02 0.37835509E+02 0.32000000E+00 0.0000E+00 0.9000E+01
        1 -1    0    0  501    0 0.00000000E+00 0.00000000E+00 -.20914512E+04 0.20914512E+04 0.32000000E+00 0.0000E+00 0.9000E+01
       25  2    1    2    0    0 -.16142842E+03 -.89106932E+02 -.14852299E+04 0.15263519E+04 0.29973867E+03 0.0000E+00 0.0000E+00
       23  2    3    3    0    0 -.96818231E+02 0.69009099E+02 -.49351399E+03 0.51591104E+03 0.92044103E+02 0.0000E+00 0.0000E+00
      -24  1    1    2    0    0 0.16142842E+03 0.89106932E+02 -.56838717E+03 0.60293480E+03 0.80419002E+02 0.0000E+00 0.9000E+01
      -11  1    4    4    0    0 -.79850828E+02 0.11952330E+02 -.18724621E+03 0.20391213E+03 0.51099893E-03 0.0000E+00 0.9000E+01
       11  1    4    4    0    0 -.16967403E+02 0.57056769E+02 -.30626778E+03 0.31199891E+03 0.51099893E-03 0.0000E+00 0.9000E+01
       23  1    3    3    0    0 -.64610188E+02 -.15811603E+03 -.99171586E+03 0.10104409E+04 0.91188000E+02 0.0000E+00 0.9000E+01
#aMCatNLO 1  0  0  2  1 0.10759512D+03 0.00000000D+00  -5  7  0 0.00000000D+00 0.00000000D+00 0.00000000D+00 0.00000000D+00 0.00000000D+00
  <mgrwgt>
 0.1040427056D-02    4    2    0
 0.281300117148492D+03 0.000000000000000D+00 0.000000000000000D+00 0.281300117148492D+03
 0.281300117148492D+03 0.000000000000000D+00 0.000000000000000D+00 -.281300117148492D+03
 0.207201274913337D+03 0.161428419267425D+03 0.891069317175395D+02 0.496585596251802D+02
 0.882605041302497D+02 -.798508275746188D+02 0.119523295554344D+02 0.356497369299215D+02
 0.628837451703165D+02 -.169674033763157D+02 0.570567694224202D+02 -.202730780195674D+02
 0.204254710083082D+03 -.646101883164910D+02 -.158116030695394D+03 -.650352185355342D+02
 0.000000000000000D+00 0.000000000000000D+00 0.000000000000000D+00 0.000000000000000D+00
 0.403363814941817D+03 0.000000000000000D+00 0.000000000000000D+00 0.403363814941817D+03
 0.311142038137564D+03 0.000000000000000D+00 0.000000000000000D+00 -.311142038137564D+03
 0.175862904580714D+03 0.128080244299005D+03 0.747664612607442D+02 0.496585596251802D+02
 0.102986097991500D+03 -.965000615439646D+02 0.479278190127422D+01 0.356497369299215D+02
 0.626937287886072D+02 -.278997217653793D+02 0.523556249360695D+02 -.202730780195674D+02
 0.231253683161934D+03 -.102523965891133D+03 -.174419813667912D+03 -.650352185355342D+02
 0.141709438556627D+03 0.988435049014717D+02 0.425049455698239D+02 0.922217768042528D+02
0.292017490660D-04 0.000000000000D+00 0.000000000000D+00 0.123298185883D-05 0.000000000000D+00  7 -2 1 -24 -11 11 23 21 0 0.58207453D-02 0.32176183D+00 0.71570590D+05 0.71570590D+05 0.71570590D+05 0.11338413D+01  1  2  2  2  7  2        1 0.124624604004D-02 0.100000000000D+01
-.161734813350D-05 0.000000000000D+00 -.112142405411D-06 0.123298185883D-05 0.000000000000D+00  7 -2 1 -24 -11 11 23 21 2 0.58207453D-02 0.32176183D+00 0.71570590D+05 0.71570590D+05 0.71570590D+05 0.11338413D+01  1  2  3  2  7  2        1 -.887366446414D-04 0.100000000000D+01
0.190705573703D-05 0.000000000000D+00 0.000000000000D+00 0.123298185883D-05 0.000000000000D+00  7 -2 1 -24 -11 11 23 21 2 0.58207453D-02 0.32176183D+00 0.71570590D+05 0.71570590D+05 0.71570590D+05 0.11338413D+01  1  2 15  2  7  2        1 0.104631602648D-03 0.100000000000D+01
-.404104337798D-05 0.000000000000D+00 0.000000000000D+00 0.123298185883D-05 0.000000000000D+00  7 -2 1 -24 -11 11 23 21 2 0.58207453D-02 0.32176183D+00 0.71570590D+05 0.71570590D+05 0.71570590D+05 0.11338413D+01  1  2  4  2  7  2        1 -.221713941968D-03 0.100000000000D+01
  </mgrwgt>
  </event>
  <event>
  8     66 0.26562228E-05 0.18140987E+03 0.75467711E-02 0.88585296E-01
       -2 -1    0    0    0  501 0.00000000E+00 0.00000000E+00 0.46812819E+02 0.46813913E+02 0.32000000E+00 0.0000E+00 0.9000E+01
        1 -1    0    0  501    0 0.00000000E+00 0.00000000E+00 -.22644011E+04 0.22644011E+04 0.32000000E+00 0.0000E+00 0.9000E+01
       25  2    1    2    0    0 -.14992433E+02 0.25014510E+02 -.22041059E+04 0.22246154E+04 0.29996711E+03 0.0000E+00 0.0000E+00
       23  2    3    3    0    0 -.77307369E+02 0.10095235E+03 -.14523084E+04 0.14609633E+04 0.95112464E+02 0.0000E+00 0.0000E+00
      -24  1    1    2    0    0 0.14992433E+02 -.25014510E+02 -.13482303E+02 0.86599580E+02 0.80419002E+02 0.0000E+00 0.9000E+01
      -11  1    4    4    0    0 -.36864025E+02 0.26655918E+01 -.15656850E+03 0.16087187E+03 0.51099893E-03 0.0000E+00 0.9000E+01
       11  1    4    4    0    0 -.40443343E+02 0.98286759E+02 -.12957399E+04 0.13000914E+04 0.51099893E-03 0.0000E+00 0.9000E+01
       23  1    3    3    0    0 0.62314936E+02 -.75937841E+02 -.75179758E+03 0.76365212E+03 0.91188000E+02 0.0000E+00 0.9000E+01
#aMCatNLO 1  0  0  1  1 0.84322233D+03 0.00000000D+00  -5  7  0 0.00000000D+00 0.00000000D+00 0.00000000D+00 0.00000000D+00 0.00000000D+00
  <mgrwgt>
 0.1203124323D-02    5    2    0
 0.325582997095706D+03 0.000000000000000D+00 0.000000000000000D+00 0.325582997095706D+03
 0.325582997095706D+03 0.000000000000000D+00 0.000000000000000D+00 -.325582997095706D+03
 0.261457221325508D+03 0.149924329211998D+02 -.250145098207993D+02 0.247067124244432D+03
 0.377860675883093D+02 -.368640252872415D+02 0.266559183788209D+01 -.785653635921758D+01
 0.201750924063741D+03 -.404433432772106D+02 0.982867594380112D+02 -.171486105163974D+03
 0.150171781213853D+03 0.623149356432524D+02 -.759378414550940D+02 -.677244827212406D+02
 0.000000000000000D+00 0.000000000000000D+00 -.000000000000000D+00 0.000000000000000D+00
 0.102951697368234D+04 0.000000000000000D+00 0.000000000000000D+00 0.102951697368234D+04
 0.890475074342748D+03 0.000000000000000D+00 0.000000000000000D+00 -.890475074342748D+03
 0.390562564640904D+03 -.100409492870289D+03 0.273765722477500D+03 0.247067124244432D+03
 0.822419848333348D+02 -.581079640396968D+02 0.576670046120315D+02 -.785653635921758D+01
 0.467684852246272D+03 -.158927750411253D+03 0.405047660042032D+03 -.171486105163974D+03
 0.124893647888203D+03 0.136307071577772D+02 0.501075862653727D+02 -.677244827212406D+02
 0.854608998416371D+03 0.303814500163462D+03 -.786587973396936D+03 0.139041899339589D+03
0.469854407199D-04 0.000000000000D+00 0.000000000000D+00 0.667195338952D-06 0.000000000000D+00  7 -2 1 -24 -11 11 23 21 0 0.72020581D-02 0.34836948D+00 0.32909543D+05 0.32909543D+05 0.32909543D+05 0.11636243D+01  1  2  2  1  7  1       -2 0.114451696304D-02 0.100000000000D+01
-.152469228514D-05 0.000000000000D+00 -.180436463915D-06 0.667195338952D-06 0.000000000000D+00  7 -2 1 -24 -11 11 23 21 2 0.72020581D-02 0.34836948D+00 0.32909543D+05 0.32909543D+05 0.32909543D+05 0.11636243D+01  1  2  3  1  7  1       -2 -.502882716473D-04 0.100000000000D+01
0.294485364203D-05 0.000000000000D+00 0.000000000000D+00 0.667195338952D-06 0.000000000000D+00  7 -2 1 -24 -11 11 23 21 2 0.72020581D-02 0.34836948D+00 0.32909543D+05 0.32909543D+05 0.32909543D+05 0.11636243D+01  1  2 15  1  7  1       -2 0.971288445248D-04 0.100000000000D+01
0.889037688926D-03 0.000000000000D+00 -.158001863257D-03 0.667195338952D-06 0.000000000000D+00  7 -2 1 -24 -11 11 23 21 2 0.37121070D+00 0.34836948D+00 0.32909543D+05 0.32909543D+05 0.32909543D+05 0.11636243D+01  1  2  5  1  7  1       -2 0.351629312485D-05 0.100000000000D+01
0.262870789141D-03 0.000000000000D+00 -.558693516666D-04 0.667195338952D-06 0.000000000000D+00  7 21 1 -24 -11 11 23 2 2 0.37121070D+00 0.34836948D+00 0.32909543D+05 0.32909543D+05 0.32909543D+05 0.11636243D+01  1  2  5  3  7  1       -2 0.825049425194D-05 0.100000000000D+01
  </mgrwgt>
  </event>
  <event>
  8     66 0.26562228E-05 0.12548974E+03 0.75467711E-02 0.10048075E+00
       -2 -1    0    0    0  501 0.00000000E+00 0.00000000E+00 0.54406407E+02 0.54407348E+02 0.32000000E+00 0.0000E+00 0.9000E+01
        1 -1    0    0  501    0 0.00000000E+00 0.00000000E+00 -.24390960E+04 0.24390960E+04 0.32000000E+00 0.0000E+00 0.9000E+01
       25  2    1    2    0    0 0.16606108E+03 -.65630286E+02 -.21888787E+04 0.22165688E+04 0.30017308E+03 0.0000E+00 0.0000E+00
       23  2    3    3    0    0 0.75731584E+02 -.15149973E+03 -.13587447E+04 0.13721929E+04 0.89659568E+02 0.0000E+00 0.0000E+00
      -24  1    1    2    0    0 -.16606108E+03 0.65630286E+02 -.19581095E+03 0.27693458E+03 0.80419002E+02 0.0000E+00 0.9000E+01
      -13  1    4    4    0    0 0.41318821E+02 -.15011941E+03 -.10395770E+04 0.10511724E+04 0.10565837E+00 0.0000E+00 0.9000E+01
       13  1    4    4    0    0 0.34412764E+02 -.13803178E+01 -.31916770E+03 0.32102052E+03 0.10565837E+00 0.0000E+00 0.9000E+01
       23  1    3    3    0    0 0.90329494E+02 0.85869446E+02 -.83013397E+03 0.84437588E+03 0.91188000E+02 0.0000E+00 0.9000E+01
#aMCatNLO 1  0  0  2  1 0.68392330D+02 0.00000000D+00  -5  7  0 0.00000000D+00 0.00000000D+00 0.00000000D+00 0.00000000D+00 0.00000000D+00
  <mgrwgt>
 0.1599813507D-02    9    2    0
 0.364285120895982D+03 0.000000000000000D+00 0.000000000000000D+00 0.364285120895982D+03
 0.364285120895982D+03 0.000000000000000D+00 0.000000000000000D+00 -.364285120895982D+03
 0.306887319149196D+03 -.166061078111411D+03 0.656302858131895D+02 0.236281600258600D+03
 0.194948439817607D+03 0.413188302205480D+02 -.150119620309522D+03 -.117310477173395D+03
 0.540095037065632D+02 0.344127539624791D+02 -.138011141009903D+01 -.416038958253053D+02
 0.172724979118599D+03 0.903294939283835D+02 0.858694459064315D+02 -.773672272598990D+02
 0.000000000000000D+00 0.000000000000000D+00 -.000000000000000D+00 -.000000000000000D+00
 0.372167323701859D+03 0.000000000000000D+00 0.000000000000000D+00 0.372167323701859D+03
 0.552072747241123D+03 0.000000000000000D+00 0.000000000000000D+00 -.552072747241123D+03
 0.321269985523884D+03 -.180535862371026D+03 0.912414128635190D+02 0.236281600258600D+03
 0.181628854216550D+03 0.326412664197879D+02 -.134765872370863D+03 -.117310477173395D+03
 0.525447101089580D+02 0.319573988381201D+02 0.296429959567216D+01 -.416038958253053D+02
 0.176329712893128D+03 0.822861402587071D+02 0.100101046809773D+03 -.773672272598990D+02
 0.192466808200462D+03 0.336510568544108D+02 -.595408868981016D+02 -.179905423539265D+03
0.978402609380D-04 0.000000000000D+00 0.000000000000D+00 0.352543838019D-05 0.000000000000D+00  7 -2 1 -24 -13 13 23 21 0 0.83702904D-02 0.37524561D+00 0.73009373D+05 0.73009373D+05 0.73009373D+05 0.11331089D+01  1  2  2  2  7  2        1 0.142008714327D-02 0.100000000000D+01
-.484565845954D-05 0.000000000000D+00 -.375732363934D-06 0.352543838019D-05 0.000000000000D+00  7 -2 1 -24 -13 13 23 21 2 0.83702904D-02 0.37524561D+00 0.73009373D+05 0.73009373D+05 0.73009373D+05 0.11331089D+01  1  2  3  2  7  2        1 -.903011878482D-04 0.100000000000D+01
0.611942748031D-05 0.000000000000D+00 0.000000000000D+00 0.352543838019D-05 0.000000000000D+00  7 -2 1 -24 -13 13 23 21 2 0.83702904D-02 0.37524561D+00 0.73009373D+05 0.73009373D+05 0.73009373D+05 0.11331089D+01  1  2 15  2  7  2        1 0.114038489307D-03 0.100000000000D+01
0.282111373413D-03 0.000000000000D+00 0.000000000000D+00 0.352543838019D-05 0.000000000000D+00  7 -2 1 -24 -13 13 23 21 2 0.83702904D-02 0.57105482D+00 0.94642853D+05 0.94642853D+05 0.94642853D+05 0.11236896D+01  1  2 12  2  7  2        1 0.566619173515D-03 0.100000000000D+01
-.275962724646D-03 0.000000000000D+00 0.000000000000D+00 0.352543838019D-05 0.000000000000D+00  7 -2 1 -24 -13 13 23 21 2 0.83702904D-02 0.37524561D+00 0.73009373D+05 0.73009373D+05 0.73009373D+05 0.11331089D+01  1  2  4  2  7  2        1 -.514269877778D-02 0.100000000000D+01
-.299139634141D-03 0.000000000000D+00 -.275915730053D-04 0.352543838019D-05 0.000000000000D+00  7 -2 1 -24 -13 13 23 21 2 0.83702904D-02 0.57086492D+00 0.73009373D+05 0.73009373D+05 0.73009373D+05 0.11331089D+01  1  2  5  2  7  2        1 -.622090110596D-03 0.100000000000D+01
0.287315861199D-03 0.000000000000D+00 0.253291917817D-04 0.352543838019D-05 0.000000000000D+00  7 -2 1 -24 -13 13 23 21 2 0.83702904D-02 0.37524561D+00 0.73009373D+05 0.73009373D+05 0.73009373D+05 0.11331089D+01  1  2  6  2  7  2        1 0.535426996570D-02 0.100000000000D+01
0.139184019356D-04 0.000000000000D+00 0.000000000000D+00 0.352543838019D-05 0.000000000000D+00  7 -2 21 -24 -13 13 23 -1 2 0.83702904D-02 0.57105482D+00 0.94642853D+05 0.94642853D+05 0.94642853D+05 0.11236896D+01  1  2 12  4  7  2        1 0.308848952906D-05 0.100000000000D+01
-.137460472839D-04 0.000000000000D+00 -.136047264427D-05 0.352543838019D-05 0.000000000000D+00  7 -2 21 -24 -13 13 23 -1 2 0.83702904D-02 0.57086492D+00 0.73009373D+05 0.73009373D+05 0.73009373D+05 0.11331089D+01  1  2  5  4  7  2        1 -.319967815252D-05 0.100000000000D+01
  </mgrwgt>
  </event>
  <event>
  8     66 0.26562228E-05 0.55402660E+03 0.75467711E-02 0.90199984E-01
       -2 -1    0    0    0  501 0.00000000E+00 0.00000000E+00 0.25551481E+03 0.25551501E+03 0.32000000E+00 0.0000E+00 0.9000E+01
        1 -1    0    0  501    0 0.00000000E+00 0.00000000E+00 -.12871252E+04 0.12871253E+04 0.32000000E+00 0.0000E+00 0.9000E+01
       25  2    1    2    0    0 -.43948114E+03 0.26085130E+03 -.74192721E+03 0.94970636E+03 0.30049809E+03 0.0000E+00 0.0000E+00
       23  2    3    3    0    0 -.23074517E+02 0.76503050E+01 -.99338007E+02 0.13807753E+03 0.92770703E+02 0.0000E+00 0.0000E+00
      -24  1    1    2    0    0 0.43948114E+03 -.26085130E+03 -.28968323E+03 0.59293394E+03 0.80419002E+02 0.0000E+00 0.9000E+01
      -11  1    4    4    0    0 -.12103849E+02 -.42175478E+02 -.55953553E+02 0.71106077E+02 0.51099893E-03 0.0000E+00 0.9000E+01
       11  1    4    4    0    0 -.10970668E+02 0.49825783E+02 -.43384455E+02 0.66971451E+02 0.51099893E-03 0.0000E+00 0.9000E+01
       23  1    3    3    0    0 -.41640662E+03 0.25320099E+03 -.64258920E+03 0.81162883E+03 0.91188000E+02 0.0000E+00 0.9000E+01
#aMCatNLO 1  0  0  2  1 0.34841353D+03 0.00000000D+00  -5  7  0 0.00000000D+00 0.00000000D+00 0.00000000D+00 0.00000000D+00 0.00000000D+00
  <mgrwgt>
 0.1273364282D-02    3    2    0
 0.573480381211407D+03 0.000000000000000D+00 0.000000000000000D+00 0.573480381211407D+03
 0.573480381211407D+03 0.000000000000000D+00 0.000000000000000D+00 -.573480381211407D+03
 0.536935152500041D+03 0.439481138361233D+03 -.260851299537986D+03 0.143683925997066D+03
 0.453100338398335D+02 -.121038492964119D+02 -.421754784300184D+02 -.113015493617318D+02
 0.510540584570761D+02 -.109706681562374D+02 0.498257834724992D+02 0.188484123890773D+01
 0.513661517625865D+03 -.416406620908583D+03 0.253200994495506D+03 -.134267217874241D+03
 0.000000000000000D+00 0.000000000000000D+00 -.000000000000000D+00 0.000000000000000D+00
 0.111368302927862D+04 0.000000000000000D+00 0.000000000000000D+00 0.111368302927862D+04
 0.658361374357826D+03 0.000000000000000D+00 0.000000000000000D+00 -.658361374357826D+03
 0.411936096459243D+03 0.303142915723607D+03 -.225129815147546D+03 0.143683925997066D+03
 0.476640499559543D+02 -.254627969407654D+02 -.386753488954062D+02 -.113015493617318D+02
 0.604175478594238D+02 -.269874256419570D+02 0.540222761466945D+02 0.188484123890773D+01
 0.678694522202251D+03 -.587729867766049D+03 0.298088778492842D+03 -.134267217874241D+03
 0.573332187159573D+03 0.337037174625165D+03 -.883058905965847D+02 0.455321654920793D+03
0.203065618720D-03 0.000000000000D+00 0.000000000000D+00 0.325182465016D-05 0.000000000000D+00  7 -2 1 -24 -11 11 23 21 0 0.39309989D-01 0.19801929D+00 0.30694548D+06 0.30694548D+06 0.30694548D+06 0.10838172D+01  1  2  2  2  7  2        1 0.125932537699D-02 0.100000000000D+01
-.112650866884D-04 0.000000000000D+00 -.779825444291D-06 0.325182465016D-05 0.000000000000D+00  7 -2 1 -24 -11 11 23 21 2 0.39309989D-01 0.19801929D+00 0.30694548D+06 0.30694548D+06 0.30694548D+06 0.10838172D+01  1  2  3  2  7  2        1 -.820631521173D-04 0.100000000000D+01
0.131922547557D-04 0.000000000000D+00 0.000000000000D+00 0.325182465016D-05 0.000000000000D+00  7 -2 1 -24 -11 11 23 21 2 0.39309989D-01 0.19801929D+00 0.30694548D+06 0.30694548D+06 0.30694548D+06 0.10838172D+01  1  2 15  2  7  2        1 0.961020575104D-04 0.100000000000D+01
  </mgrwgt>
  </event>
  <event>
  8     66 0.26562228E-05 0.41038247E+03 0.75467711E-02 0.94887458E-01
       -2 -1    0    0    0  501 0.00000000E+00 0.00000000E+00 0.62874500E+03 0.62874508E+03 0.32000000E+00 0.0000E+00 0.9000E+01
        1 -1    0    0  501    0 0.00000000E+00 0.00000000E+00 -.42198819E+03 0.42198831E+03 0.32000000E+00 0.0000E+00 0.9000E+01
       25  2    1    2    0    0 -.45585929E+03 0.71993089E+00 0.20920755E+02 0.55192434E+03 0.31044256E+03 0.0000E+00 0.0000E+00
       23  2    3    3    0    0 -.11961885E+03 0.60356756E+02 -.85341364E+02 0.18284294E+03 0.90536102E+02 0.0000E+00 0.0000E+00
      -24  1    1    2    0    0 0.45585929E+03 -.71993089E+00 0.18583606E+03 0.49880905E+03 0.80419002E+02 0.0000E+00 0.9000E+01
      -13  1    4    4    0    0 -.42193472E+02 0.66572472E+02 -.65987091E+02 0.10279344E+03 0.10565837E+00 0.0000E+00 0.9000E+01
       13  1    4    4    0    0 -.77425380E+02 -.62157162E+01 -.19354273E+02 0.80049507E+02 0.10565837E+00 0.0000E+00 0.9000E+01
       23  1    3    3    0    0 -.33624044E+03 -.59636825E+02 0.10626212E+03 0.36908139E+03 0.91188000E+02 0.0000E+00 0.9000E+01
#aMCatNLO 1  0  0  2  1 0.43834192D+01 0.00000000D+00  -5  7  0 0.00000000D+00 0.00000000D+00 0.00000000D+00 0.00000000D+00 0.00000000D+00
  <mgrwgt>
 0.1203119070D-02   10    2    0
 0.515095202349014D+03 0.000000000000000D+00 0.000000000000000D+00 0.515095202349014D+03
 0.515095202349014D+03 0.000000000000000D+00 0.000000000000000D+00 -.515095202349014D+03
 0.471458928795593D+03 0.455859304397450D+03 -.719930909145507D+00 0.894319958430832D+02
 0.118086721522573D+03 -.421934289324328D+02 0.665725621433270D+02 -.879333970943141D+02
 0.855300946480344D+02 -.774254401657915D+02 -.621581792830284D+01 -.358058921564226D+02
 0.355114659731827D+03 -.336240435299225D+03 -.596368133058787D+02 0.343072934076535D+02
 0.000000000000000D+00 -.000000000000000D+00 -.000000000000000D+00 -.000000000000000D+00
 0.516758759309702D+03 0.000000000000000D+00 0.000000000000000D+00 0.516758759309702D+03
 0.517995523689211D+03 0.000000000000000D+00 0.000000000000000D+00 -.517995523689211D+03
 0.473033348553443D+03 0.457487750574641D+03 0.457255935185191D+00 0.894319958430832D+02
 0.118108243076416D+03 -.417861934299334D+02 0.668669484625074D+02 -.879333970943141D+02
 0.852483870803743D+02 -.771309924795724D+02 -.600296475119721D+01 -.358058921564226D+02
 0.353809751582930D+03 -.335018143412664D+03 -.587532311838871D+02 0.343072934076535D+02
 0.455455270575051D+01 -.355242125247112D+01 -.256800846260825D+01 -.123676437950938D+01
0.101594894812D-03 0.000000000000D+00 0.000000000000D+00 0.316947587200D-07 0.000000000000D+00  7 -2 1 -24 -13 13 23 21 0 0.96730015D-01 0.64921275D-01 0.23660662D+06 0.23660662D+06 0.23660662D+06 0.10922627D+01  1  2  2  2  7  2        1 0.570103867377D-03 0.100000000000D+01
-.562164926509D-05 0.000000000000D+00 -.390151146629D-06 0.316947587200D-07 0.000000000000D+00  7 -2 1 -24 -13 13 23 21 2 0.96730015D-01 0.64921275D-01 0.23660662D+06 0.23660662D+06 0.23660662D+06 0.10922627D+01  1  2  3  2  7  2        1 -.376357018062D-04 0.100000000000D+01
0.637068441106D-05 0.000000000000D+00 0.000000000000D+00 0.316947587200D-07 0.000000000000D+00  7 -2 1 -24 -13 13 23 21 2 0.96730015D-01 0.64921275D-01 0.23660662D+06 0.23660662D+06 0.23660662D+06 0.10922627D+01  1  2 15  2  7  2        1 0.426503268863D-04 0.100000000000D+01
-.199155722999D-02 0.000000000000D+00 0.000000000000D+00 0.316947587200D-07 0.000000000000D+00  7 -2 1 -24 -13 13 23 21 2 0.96730015D-01 0.64921275D-01 0.23660662D+06 0.23660662D+06 0.23660662D+06 0.10922627D+01  1  2  4  2  7  2        1 -.133330363570D-01 0.100000000000D+01
-.165019772953D-01 0.000000000000D+00 -.162738104962D-02 0.316947587200D-07 0.000000000000D+00  7 -2 1 -24 -13 13 23 21 2 0.96730015D-01 0.65463926D-01 0.23660662D+06 0.23660662D+06 0.23660662D+06 0.10922627D+01  1  2  5  2  7  2        1 -.109230703173D+00 0.100000000000D+01
0.165150076287D-01 0.000000000000D+00 0.162732467333D-02 0.316947587200D-07 0.000000000000D+00  7 -2 1 -24 -13 13 23 21 2 0.96730015D-01 0.64921275D-01 0.23660662D+06 0.23660662D+06 0.23660662D+06 0.10922627D+01  1  2  6  2  7  2        1 0.110564333193D+00 0.100000000000D+01
0.199162438085D-02 0.000000000000D+00 0.000000000000D+00 0.316947587200D-07 0.104904345695D-07  7 -2 1 -24 -13 13 23 21 2 0.97042416D-01 0.65286824D-01 0.23875061D+06 0.23875061D+06 0.23875061D+06 0.10919666D+01  1  2 11  2  7  2        1 0.131196368402D-01 0.100000000000D+01
0.677619289834D-06 0.000000000000D+00 0.000000000000D+00 0.316947587200D-07 0.000000000000D+00  7 -2 21 -24 -13 13 23 -1 2 0.96730015D-01 0.65391194D-01 0.23875061D+06 0.23875061D+06 0.23875061D+06 0.10919666D+01  1  2 12  4  7  2        1 0.153658446212D-04 0.100000000000D+01
-.253945861073D-04 0.000000000000D+00 -.250847307144D-05 0.316947587200D-07 0.000000000000D+00  7 -2 21 -24 -13 13 23 -1 2 0.96730015D-01 0.65463926D-01 0.23660662D+06 0.23660662D+06 0.23660662D+06 0.10922627D+01  1  2  5  4  7  2        1 -.575025993398D-03 0.100000000000D+01
0.298557403115D-05 0.000000000000D+00 0.000000000000D+00 0.316947587200D-07 0.109574359019D-10  7 -2 21 -24 -13 13 23 -1 2 0.97042416D-01 0.65286824D-01 0.23875061D+06 0.23875061D+06 0.23875061D+06 0.10919666D+01  1  2 11  4  7  2        1 0.674302236451D-04 0.100000000000D+01
  </mgrwgt>
  </event>
  <event>
  8     66 0.26562228E-05 0.46507306E+03 0.75467711E-02 0.89070296E-01
       -2 -1    0    0    0  501 0.00000000E+00 0.00000000E+00 0.56780030E+03 0.56780039E+03 0.32000000E+00 0.0000E+00 0.9000E+01
        1 -1    0    0  501    0 0.00000000E+00 0.00000000E+00 -.45313471E+03 0.45313482E+03 0.32000000E+00 0.0000E+00 0.9000E+01
       25  2    1    2    0    0 -.18979367E+03 0.40441090E+03 0.16867337E+03 0.56382049E+03 0.29978830E+03 0.0000E+00 0.0000E+00
       23  2    3    3    0    0 -.85210622E+02 0.17206910E+03 -.47284556E+02 0.21759310E+03 0.90787123E+02 0.0000E+00 0.0000E+00
      -24  1    1    2    0    0 0.18979367E+03 -.40441090E+03 -.54007782E+02 0.45711472E+03 0.80419002E+02 0.0000E+00 0.9000E+01
      -11  1    4    4    0    0 -.14380025E+02 -.47418569E+01 -.20141322E+02 0.25198079E+02 0.51099893E-03 0.0000E+00 0.9000E+01
       11  1    4    4    0    0 -.70830597E+02 0.17681096E+03 -.27143234E+02 0.19239502E+03 0.51099893E-03 0.0000E+00 0.9000E+01
       23  1    3    3    0    0 -.10458305E+03 0.23234179E+03 0.21595793E+03 0.34622739E+03 0.91188000E+02 0.0000E+00 0.9000E+01
#aMCatNLO 1  0  0  2  1 0.58394581D+03 0.00000000D+00  -5  7  0 0.00000000D+00 0.00000000D+00 0.00000000D+00 0.00000000D+00 0.00000000D+00
  <mgrwgt>
 0.1032929643D-02    3    2    0
 0.507237741368668D+03 0.000000000000000D+00 0.000000000000000D+00 0.507237741368668D+03
 0.507237741368668D+03 0.000000000000000D+00 0.000000000000000D+00 -.507237741368668D+03
 0.466129894237580D+03 0.189793670641991D+03 -.404410899390367D+03 -.106019099157088D+03
 0.276350913150479D+02 -.143800248424402D+02 -.474185694194249D+01 -.231176977717071D+02
 0.196688092813059D+03 -.708305966613651D+02 0.176810961688633D+03 -.490623710981642D+02
 0.324022404371650D+03 -.104583049138186D+03 0.232341794643676D+03 0.178199168026959D+03
 0.000000000000000D+00 0.000000000000000D+00 0.000000000000000D+00 0.000000000000000D+00
 0.111615861141728D+04 0.000000000000000D+00 0.000000000000000D+00 0.111615861141728D+04
 0.745843422660878D+03 0.000000000000000D+00 0.000000000000000D+00 -.745843422660878D+03
 0.563045855919062D+03 -.465420413583996D+02 -.545112106738945D+03 -.106019099157088D+03
 0.403948758762263D+02 -.300021484020615D+02 -.140424049953139D+02 -.231176977717071D+02
 0.209914833204888D+03 -.164201230401295D+03 0.121223252209973D+03 -.490623710981642D+02
 0.357179875129123D+03 -.261011555851059D+03 0.139212916354643D+03 0.178199168026959D+03
 0.691466593948854D+03 0.501756976012816D+03 0.298718343169643D+03 0.370315188756399D+03
0.157836510034D-03 0.000000000000D+00 0.000000000000D+00 0.840155112089D-05 0.000000000000D+00  7 -2 1 -24 -11 11 23 21 0 0.87353908D-01 0.69713048D-01 0.21629295D+06 0.21629295D+06 0.21629295D+06 0.10952227D+01  1  2  2  2  7  2        1 0.102322313280D-02 0.100000000000D+01
-.868839625078D-05 0.000000000000D+00 -.606133757836D-06 0.840155112089D-05 0.000000000000D+00  7 -2 1 -24 -11 11 23 21 2 0.87353908D-01 0.69713048D-01 0.21629295D+06 0.21629295D+06 0.21629295D+06 0.10952227D+01  1  2  3  2  7  2        1 -.675627536353D-04 0.100000000000D+01
0.993662854233D-05 0.000000000000D+00 0.000000000000D+00 0.840155112089D-05 0.000000000000D+00  7 -2 1 -24 -11 11 23 21 2 0.87353908D-01 0.69713048D-01 0.21629295D+06 0.21629295D+06 0.21629295D+06 0.10952227D+01  1  2 15  2  7  2        1 0.772692642914D-04 0.100000000000D+01
  </mgrwgt>
  </event>
  <event>
  8     66 0.26562228E-05 0.15807992E+03 0.75467711E-02 0.10097245E+00
       -2 -1    0    0    0  501 0.00000000E+00 0.00000000E+00 0.69624348E+02 0.69625083E+02 0.32000000E+00 0.0000E+00 0.9000E+01
        1 -1    0    0  501    0 0.00000000E+00 0.00000000E+00 -.99127565E+03 0.99127570E+03 0.32000000E+00 0.0000E+00 0.9000E+01
       25  2    1    2    0    0 -.38306912E+02 0.66447017E+02 -.89515571E+03 0.94665606E+03 0.29828061E+03 0.0000E+00 0.0000E+00
       23  2    3    3    0    0 0.87569145E+02 0.67626795E+02 -.31978780E+03 0.35066138E+03 0.91964281E+02 0.0000E+00 0.0000E+00
      -24  1    1    2    0    0 0.38306912E+02 -.66447017E+02 -.26495597E+02 0.11424473E+03 0.80419002E+02 0.0000E+00 0.9000E+01
      -11  1    4    4    0    0 0.17441292E+02 0.51426282E+02 -.22603655E+03 0.23246803E+03 0.51099893E-03 0.0000E+00 0.9000E+01
       11  1    4    4    0    0 0.70127853E+02 0.16200513E+02 -.93751250E+02 0.11819336E+03 0.51099893E-03 0.0000E+00 0.9000E+01
       23  1    3    3    0    0 -.12587606E+03 -.11797773E+01 -.57536790E+03 0.59599467E+03 0.91188000E+02 0.0000E+00 0.9000E+01
#aMCatNLO 1  0  0  1  2 0.16608941D+03 0.00000000D+00  -5  7  0 0.00000000D+00 0.00000000D+00 0.00000000D+00 0.00000000D+00 0.00000000D+00
  <mgrwgt>
 0.8262430151D-03    9    2    0
 0.262711511187703D+03 0.000000000000000D+00 0.000000000000000D+00 0.262711511187703D+03
 0.262711511187703D+03 0.000000000000000D+00 0.000000000000000D+00 -.262711511187703D+03
 0.184199430870918D+03 0.383069120022958D+02 -.664470174519662D+02 0.146899927649356D+03
 0.728910407638241D+02 0.174412922482503D+02 0.514262819949693D+02 -.486234785727893D+02
 0.741982369644490D+02 0.701278530958047D+02 0.162005127607525D+02 0.180279220958618D+02
 0.194134313776216D+03 -.125876057346351D+03 -.117977730375561D+01 -.116304371172428D+03
 0.000000000000000D+00 0.000000000000000D+00 0.000000000000000D+00 0.000000000000000D+00
 0.397521532826291D+03 0.000000000000000D+00 0.000000000000000D+00 0.397521532826291D+03
 0.332053965487083D+03 0.000000000000000D+00 0.000000000000000D+00 -.332053965487083D+03
 0.187546466521796D+03 -.166823931799019D+02 -.827560883853617D+02 0.146899927649356D+03
 0.665380326619289D+02 -.318330085056801D+01 0.453093116003344D+02 -.486234785727893D+02
 0.551080929229513D+02 0.510006339764054D+02 0.105276428755394D+02 0.180279220958618D+02
 0.241856449196677D+03 -.190368575730242D+03 -.203073704513901D+02 -.116304371172428D+03
 0.178526457010021D+03 0.159233635784306D+03 0.472265043608780D+02 0.654675673392081D+02
0.940533488173D-05 0.000000000000D+00 0.000000000000D+00 0.186970876323D-06 0.000000000000D+00  7 -2 1 -24 -11 11 23 21 0 0.10711499D-01 0.15250401D+00 0.38582294D+05 0.38582294D+05 0.38582294D+05 0.11573317D+01  1  2  2  1  7  1       -2 0.874580811661D-03 0.100000000000D+01
-.468800740186D-06 0.000000000000D+00 -.361189624274D-07 0.186970876323D-06 0.000000000000D+00  7 -2 1 -24 -11 11 23 21 2 0.10711499D-01 0.15250401D+00 0.38582294D+05 0.38582294D+05 0.38582294D+05 0.11573317D+01  1  2  3  1  7  1       -2 -.583888160046D-04 0.100000000000D+01
0.594898683111D-06 0.000000000000D+00 0.000000000000D+00 0.186970876323D-06 0.000000000000D+00  7 -2 1 -24 -11 11 23 21 2 0.10711499D-01 0.15250401D+00 0.38582294D+05 0.38582294D+05 0.38582294D+05 0.11573317D+01  1  2 15  1  7  1       -2 0.740942297484D-04 0.100000000000D+01
0.171040347431D-06 0.000000000000D+00 0.000000000000D+00 0.186970876323D-06 0.000000000000D+00  7 -2 1 -24 -11 11 23 21 2 0.17036230D-01 0.15250401D+00 0.87685922D+05 0.87685922D+05 0.87685922D+05 0.11264356D+01  1  2 12  1  7  1       -2 0.966265050133D-05 0.100000000000D+01
-.386403604121D-05 0.000000000000D+00 0.000000000000D+00 0.186970876323D-06 0.000000000000D+00  7 -2 1 -24 -11 11 23 21 2 0.10711499D-01 0.15250401D+00 0.38582294D+05 0.38582294D+05 0.38582294D+05 0.11573317D+01  1  2  4  1  7  1       -2 -.481263082810D-03 0.100000000000D+01
-.235666227367D-05 0.000000000000D+00 -.305580141231D-05 0.186970876323D-06 0.000000000000D+00  7 -2 1 -24 -11 11 23 21 2 0.20531754D-01 0.15250401D+00 0.38582294D+05 0.38582294D+05 0.38582294D+05 0.11573317D+01  1  2  5  1  7  1       -2 -.104923080668D-03 0.100000000000D+01
0.401430387840D-05 0.000000000000D+00 0.250629637461D-05 0.186970876323D-06 0.000000000000D+00  7 -2 1 -24 -11 11 23 21 2 0.10711499D-01 0.15250401D+00 0.38582294D+05 0.38582294D+05 0.38582294D+05 0.11573317D+01  1  2  6  1  7  1       -2 0.499978840583D-03 0.100000000000D+01
0.909859794421D-08 0.000000000000D+00 0.000000000000D+00 0.186970876323D-06 0.000000000000D+00  7 21 1 -24 -11 11 23 2 2 0.17036230D-01 0.15250401D+00 0.87685922D+05 0.87685922D+05 0.87685922D+05 0.11264356D+01  1  2 12  3  7  1       -2 0.682131962150D-05 0.100000000000D+01
0.975636023594D-08 0.000000000000D+00 -.215821041322D-06 0.186970876323D-06 0.000000000000D+00  7 21 1 -24 -11 11 23 2 2 0.20531754D-01 0.15250401D+00 0.38582294D+05 0.38582294D+05 0.38582294D+05 0.11573317D+01  1  2  5  3  7  1       -2 0.568014243382D-05 0.100000000000D+01
  </mgrwgt>
  </event>
  <event>
  8     66 0.26562228E-05 0.20122879E+03 0.75467711E-02 0.99864537E-01
       -2 -1    0    0    0  501 0.00000000E+00 0.00000000E+00 0.10251822E+03 0.10251871E+03 0.32000000E+00 0.0000E+00 0.9000E+01
        1 -1    0    0  501    0 0.00000000E+00 0.00000000E+00 -.11265297E+04 0.11265297E+04 0.32000000E+00 0.0000E+00 0.9000E+01
       25  2    1    2    0    0 0.61743445E+02 -.25667020E+03 -.54312417E+03 0.67460128E+03 0.30068452E+03 0.0000E+00 0.0000E+00
       23  2    3    3    0    0 -.12356328E+02 -.85384681E+02 -.41862966E+02 0.13200792E+03 0.90721338E+02 0.0000E+00 0.0000E+00
      -24  1    1    2    0    0 -.61743445E+02 0.25667020E+03 -.48088726E+03 0.55444713E+03 0.80419002E+02 0.0000E+00 0.9000E+01
      -13  1    4    4    0    0 -.17421033E+02 0.15218036E+02 -.56033911E+00 0.23138845E+02 0.10565837E+00 0.0000E+00 0.9000E+01
       13  1    4    4    0    0 0.50647049E+01 -.10060272E+03 -.41302627E+02 0.10886908E+03 0.10565837E+00 0.0000E+00 0.9000E+01
       23  1    3    3    0    0 0.74099774E+02 -.17128552E+03 -.50126121E+03 0.54259336E+03 0.91188000E+02 0.0000E+00 0.9000E+01
#aMCatNLO 1  0  0  2  1 0.38954087D+02 0.00000000D+00  -5  7  0 0.00000000D+00 0.00000000D+00 0.00000000D+00 0.00000000D+00 0.00000000D+00
  <mgrwgt>
 0.1139640891D-02    9    2    0
 0.339838409067630D+03 0.000000000000000D+00 0.000000000000000D+00 0.339838409067630D+03
 0.339838409067630D+03 0.000000000000000D+00 0.000000000000000D+00 -.339838409067630D+03
 0.278085557518142D+03 -.617434452874210D+02 0.256670198009158D+03 -.342420467230576D+02
 0.409972506853494D+02 -.174210637156737D+02 0.152181928437877D+02 0.338480089420502D+02
 0.134639123856727D+03 0.506473548648575D+01 -.100602874611957D+03 0.893370233843156D+02
 0.225954886075041D+03 0.740997735166089D+02 -.171285516240989D+03 -.889429856033082D+02
 0.000000000000000D+00 -.000000000000000D+00 -.000000000000000D+00 -.000000000000000D+00
 0.351036959800495D+03 0.000000000000000D+00 0.000000000000000D+00 0.351036959800495D+03
 0.376046870364847D+03 0.000000000000000D+00 0.000000000000000D+00 -.376046870364847D+03
 0.289183548701651D+03 -.531895756125149D+02 0.270477836740251D+03 -.342420467230576D+02
 0.412801575350348D+02 -.161803999471209D+02 0.172208697320256D+02 0.338480089420502D+02
 0.130111462004585D+03 0.905691835521978D+01 -.941587012851592D+02 0.893370233843156D+02
 0.220217015891617D+03 0.808276144305279D+02 -.160425449357788D+03 -.889429856033082D+02
 0.462916460324543D+02 -.205145572261120D+02 -.331145558293293D+02 -.250099105643512D+02
0.147735129196D-04 0.000000000000D+00 0.000000000000D+00 0.122431075537D-05 0.000000000000D+00  7 -2 1 -24 -13 13 23 21 0 0.15772075D-01 0.17331230D+00 0.92277639D+05 0.92277639D+05 0.92277639D+05 0.11245976D+01  1  2  2  2  7  2        1 0.592284050713D-03 0.100000000000D+01
-.808190012280D-06 0.000000000000D+00 -.567341795664D-07 0.122431075537D-05 0.000000000000D+00  7 -2 1 -24 -13 13 23 21 2 0.15772075D-01 0.17331230D+00 0.92277639D+05 0.92277639D+05 0.92277639D+05 0.11245976D+01  1  2  3  2  7  2        1 -.409783089818D-04 0.100000000000D+01
0.936952050947D-06 0.000000000000D+00 0.000000000000D+00 0.122431075537D-05 0.000000000000D+00  7 -2 1 -24 -13 13 23 21 2 0.15772075D-01 0.17331230D+00 0.92277639D+05 0.92277639D+05 0.92277639D+05 0.11245976D+01  1  2 15  2  7  2        1 0.475070343130D-04 0.100000000000D+01
0.358817310570D-04 0.000000000000D+00 0.000000000000D+00 0.122431075537D-05 0.000000000000D+00  7 -2 1 -24 -13 13 23 21 2 0.15772075D-01 0.19442062D+00 0.10425879D+06 0.10425879D+06 0.10425879D+06 0.11202387D+01  1  2 12  2  7  2        1 0.144386671781D-02 0.100000000000D+01
-.356768023918D-04 0.000000000000D+00 0.000000000000D+00 0.122431075537D-05 0.000000000000D+00  7 -2 1 -24 -13 13 23 21 2 0.15772075D-01 0.17331230D+00 0.92277639D+05 0.92277639D+05 0.92277639D+05 0.11245976D+01  1  2  4  2  7  2        1 -.180894964016D-02 0.100000000000D+01
-.840620467179D-04 0.000000000000D+00 -.155767128702D-04 0.122431075537D-05 0.000000000000D+00  7 -2 1 -24 -13 13 23 21 2 0.15772075D-01 0.19519804D+00 0.92277639D+05 0.92277639D+05 0.92277639D+05 0.11245976D+01  1  2  5  2  7  2        1 -.338974411912D-02 0.100000000000D+01
0.854192131201D-04 0.000000000000D+00 0.154672164351D-04 0.122431075537D-05 0.000000000000D+00  7 -2 1 -24 -13 13 23 21 2 0.15772075D-01 0.17331230D+00 0.92277639D+05 0.92277639D+05 0.92277639D+05 0.11245976D+01  1  2  6  2  7  2        1 0.433107914603D-02 0.100000000000D+01
0.656456777190D-06 0.000000000000D+00 0.000000000000D+00 0.122431075537D-05 0.000000000000D+00  7 -2 21 -24 -13 13 23 -1 2 0.15772075D-01 0.19442062D+00 0.10425879D+06 0.10425879D+06 0.10425879D+06 0.11202387D+01  1  2 12  4  7  2        1 0.270697405569D-04 0.100000000000D+01
-.151202780194D-05 0.000000000000D+00 -.293308088857D-06 0.122431075537D-05 0.000000000000D+00  7 -2 21 -24 -13 13 23 -1 2 0.15772075D-01 0.19519804D+00 0.92277639D+05 0.92277639D+05 0.92277639D+05 0.11245976D+01  1  2  5  4  7  2        1 -.624937297564D-04 0.100000000000D+01
  </mgrwgt>
  </event>
  <event>
  8     66 0.26562228E-05 0.12138414E+03 0.75467711E-02 0.10338629E+00
       -2 -1    0    0    0  501 0.00000000E+00 0.00000000E+00 0.71809830E+03 0.71809837E+03 0.32000000E+00 0.0000E+00 0.9000E+01
        1 -1    0    0  501    0 0.00000000E+00 0.00000000E+00 -.12738649E+03 0.12738689E+03 0.32000000E+00 0.0000E+00 0.9000E+01
       25  2    1    2    0    0 -.87343048E+02 -.19403315E+01 0.64281382E+03 0.71581488E+03 0.30257028E+03 0.0000E+00 0.0000E+00
       23  2    3    3    0    0 0.12279491E+02 0.81671444E+02 0.12533305E+03 0.17450427E+03 0.89007628E+02 0.0000E+00 0.0000E+00
      -24  1    1    2    0    0 0.87343048E+02 0.19403315E+01 -.52102004E+02 0.12967038E+03 0.80419002E+02 0.0000E+00 0.9000E+01
      -13  1    4    4    0    0 0.28948709E+01 -.19053004E+02 0.12539723E+02 0.22992456E+02 0.10565837E+00 0.0000E+00 0.9000E+01
       13  1    4    4    0    0 0.93846203E+01 0.10072445E+03 0.11279332E+03 0.15151181E+03 0.10565837E+00 0.0000E+00 0.9000E+01
       23  1    3    3    0    0 -.99622539E+02 -.83611775E+02 0.51748077E+03 0.54131061E+03 0.91188000E+02 0.0000E+00 0.9000E+01
#aMCatNLO 1  0  0  2  1 0.89093766D+02 0.00000000D+00  -5  7  0 0.00000000D+00 0.00000000D+00 0.00000000D+00 0.00000000D+00 0.00000000D+00
  <mgrwgt>
 0.7179623542D-03    9    2    0
 0.302450362220945D+03 0.000000000000000D+00 0.000000000000000D+00 0.302450362220945D+03
 0.302450362220945D+03 0.000000000000000D+00 0.000000000000000D+00 -.302450362220945D+03
 0.232123499084878D+03 0.873430530322428D+02 0.194033159518386D+01 -.199453074865604D+03
 0.198914473142915D+02 0.289485970119371D+01 -.190531740595301D+02 -.492605540213380D+01
 0.101624483648291D+03 0.938462417253999D+01 0.100724607382631D+03 0.969628658491365D+01
 0.251261294394430D+03 -.996225369059765D+02 -.836117649182848D+02 0.194682843682824D+03
 0.000000000000000D+00 0.000000000000000D+00 0.000000000000000D+00 -.000000000000000D+00
 0.329843215291468D+03 0.000000000000000D+00 0.000000000000000D+00 0.329843215291468D+03
 0.387952671775609D+03 0.000000000000000D+00 0.000000000000000D+00 -.387952671775609D+03
 0.222574969862706D+03 0.564130624698841D+02 -.104133839091120D+02 -.199453074865604D+03
 0.207509838662187D+02 0.130236332757865D+00 -.201573894165095D+02 -.492605540213380D+01
 0.959345246420856D+02 -.405394815446443D+01 0.953571211243663D+02 0.969628658491365D+01
 0.272166202112203D+03 -.135227687643564D+03 -.978327813073111D+02 0.194682843682824D+03
 0.106369206583863D+03 0.827383369953868D+02 0.330464335085662D+02 -.581094564841415D+02
0.354668172300D-04 0.000000000000D+00 0.000000000000D+00 0.605304111992D-07 0.000000000000D+00  7 -2 1 -24 -13 13 23 21 0 0.11047670D+00 0.19597958D-01 0.39604457D+05 0.39604457D+05 0.39604457D+05 0.11563071D+01  1  2  2  2  7  2        1 0.719529045903D-03 0.100000000000D+01
-.155065385435D-05 0.000000000000D+00 -.136201916791D-06 0.605304111992D-07 0.000000000000D+00  7 -2 1 -24 -13 13 23 21 2 0.11047670D+00 0.19597958D-01 0.39604457D+05 0.39604457D+05 0.39604457D+05 0.11563071D+01  1  2  3  2  7  2        1 -.420617493928D-04 0.100000000000D+01
0.216882082627D-05 0.000000000000D+00 0.000000000000D+00 0.605304111992D-07 0.000000000000D+00  7 -2 1 -24 -13 13 23 21 2 0.11047670D+00 0.19597958D-01 0.39604457D+05 0.39604457D+05 0.39604457D+05 0.11563071D+01  1  2 15  2  7  2        1 0.588296335875D-04 0.100000000000D+01
0.279359813020D-04 0.000000000000D+00 0.000000000000D+00 0.605304111992D-07 0.000000000000D+00  7 -2 1 -24 -13 13 23 21 2 0.11047670D+00 0.25835279D-01 0.60927507D+05 0.60927507D+05 0.60927507D+05 0.11398203D+01  1  2 12  2  7  2        1 0.512382505234D-03 0.100000000000D+01
-.383310721153D-04 0.000000000000D+00 0.000000000000D+00 0.605304111992D-07 0.000000000000D+00  7 -2 1 -24 -13 13 23 21 2 0.11047670D+00 0.19597958D-01 0.39604457D+05 0.39604457D+05 0.39604457D+05 0.11563071D+01  1  2  4  2  7  2        1 -.103973684697D-02 0.100000000000D+01
-.478171494944D-04 0.000000000000D+00 -.185503775729D-04 0.605304111992D-07 0.000000000000D+00  7 -2 1 -24 -13 13 23 21 2 0.11047670D+00 0.27247606D-01 0.39604457D+05 0.39604457D+05 0.39604457D+05 0.11563071D+01  1  2  5  2  7  2        1 -.849320911928D-03 0.100000000000D+01
0.520423698897D-04 0.000000000000D+00 0.175867708395D-04 0.605304111992D-07 0.000000000000D+00  7 -2 1 -24 -13 13 23 21 2 0.11047670D+00 0.19597958D-01 0.39604457D+05 0.39604457D+05 0.39604457D+05 0.11563071D+01  1  2  6  2  7  2        1 0.141165812987D-02 0.100000000000D+01
0.101736725148D-05 0.000000000000D+00 0.000000000000D+00 0.605304111992D-07 0.000000000000D+00  7 -2 21 -24 -13 13 23 -1 2 0.11047670D+00 0.25835279D-01 0.60927507D+05 0.60927507D+05 0.60927507D+05 0.11398203D+01  1  2 12  4  7  2        1 0.134711172004D-03 0.100000000000D+01
-.149793316879D-05 0.000000000000D+00 -.767308193531D-06 0.605304111992D-07 0.000000000000D+00  7 -2 21 -24 -13 13 23 -1 2 0.11047670D+00 0.27247606D-01 0.39604457D+05 0.39604457D+05 0.39604457D+05 0.11563071D+01  1  2  5  4  7  2        1 -.188028624056D-03 0.100000000000D+01
  </mgrwgt>
  </event>
  <event>
  8     66 0.26562228E-05 0.22086822E+03 0.75467711E-02 0.90972423E-01
       -2 -1    0    0    0  501 0.00000000E+00 0.00000000E+00 0.24451888E+03 0.24451909E+03 0.32000000E+00 0.0000E+00 0.9000E+01
        1 -1    0    0  501    0 0.00000000E+00 0.00000000E+00 -.43508043E+03 0.43508055E+03 0.32000000E+00 0.0000E+00 0.9000E+01
       25  2    1    2    0    0 -.63504340E+02 0.15458588E+03 -.30666146E+03 0.46079379E+03 0.30059951E+03 0.0000E+00 0.0000E+00
       23  2    3    3    0    0 -.48581007E+02 0.14842181E+03 -.49005828E+02 0.18700121E+03 0.90436344E+02 0.0000E+00 0.0000E+00
      -24  1    1    2    0    0 0.63504340E+02 -.15458588E+03 0.11609991E+03 0.21880585E+03 0.80419002E+02 0.0000E+00 0.9000E+01
      -11  1    4    4    0    0 -.65337161E+01 0.97099133E+02 0.10492968E+02 0.97882754E+02 0.51099893E-03 0.0000E+00 0.9000E+01
       11  1    4    4    0    0 -.42047291E+02 0.51322676E+02 -.59498797E+02 0.89118453E+02 0.51099893E-03 0.0000E+00 0.9000E+01
       23  1    3    3    0    0 -.14923333E+02 0.61640740E+01 -.25765563E+03 0.27379258E+03 0.91188000E+02 0.0000E+00 0.9000E+01
#aMCatNLO 1  0  0  1  1 0.65578903D+03 0.00000000D+00  -5  7  0 0.00000000D+00 0.00000000D+00 0.00000000D+00 0.00000000D+00 0.00000000D+00
  <mgrwgt>
 0.1165516133D-02    5    2    0
 0.326167886729111D+03 0.000000000000000D+00 0.000000000000000D+00 0.326167886729111D+03
 0.326167886729111D+03 0.000000000000000D+00 0.000000000000000D+00 -.326167886729111D+03
 0.261865993330580D+03 0.635043401003373D+02 -.154585883417476D+03 0.184870186739506D+03
 0.105038912534104D+03 -.653371613255233D+01 0.970991330335828D+02 0.395252079561006D+02
 0.754621884262722D+02 -.420472911758754D+02 0.513226763498868D+02 -.359520525024391D+02
 0.209968679167266D+03 -.149233327919096D+02 0.616407403400616D+01 -.188443342193168D+03
 0.000000000000000D+00 0.000000000000000D+00 -.000000000000000D+00 0.000000000000000D+00
 0.856619474362877D+03 0.000000000000000D+00 0.000000000000000D+00 0.856619474362877D+03
 0.735286635175669D+03 0.000000000000000D+00 0.000000000000000D+00 -.735286635175669D+03
 0.210244914050599D+03 0.436239572557135D+02 0.406899537727081D+02 0.184870186739506D+03
 0.246717596152316D+03 -.213460281368758D+02 0.242593646392448D+03 0.395252079561006D+02
 0.162612764259934D+03 -.520725228134407D+02 0.149795905781708D+03 -.359520525024391D+02
 0.305411867494892D+03 -.366257811321736D+02 0.219337220740677D+03 -.188443342193168D+03
 0.666918967580803D+03 0.664203748267765D+02 -.652416726687541D+03 0.121332839187208D+03
0.269868891830D-04 0.000000000000D+00 0.000000000000D+00 0.185298115154D-05 0.000000000000D+00  7 -2 1 -24 -11 11 23 21 0 0.37618314D-01 0.66935476D-01 0.48782770D+05 0.48782770D+05 0.48782770D+05 0.11482381D+01  1  2  2  1  7  1       -2 0.106324424660D-02 0.100000000000D+01
-.122222808524D-05 0.000000000000D+00 -.103636760274D-06 0.185298115154D-05 0.000000000000D+00  7 -2 1 -24 -11 11 23 21 2 0.37618314D-01 0.66935476D-01 0.48782770D+05 0.48782770D+05 0.48782770D+05 0.11482381D+01  1  2  3  1  7  1       -2 -.634886876135D-04 0.100000000000D+01
0.172459151964D-05 0.000000000000D+00 0.000000000000D+00 0.185298115154D-05 0.000000000000D+00  7 -2 1 -24 -11 11 23 21 2 0.37618314D-01 0.66935476D-01 0.48782770D+05 0.48782770D+05 0.48782770D+05 0.11482381D+01  1  2 15  1  7  1       -2 0.895839766513D-04 0.100000000000D+01
0.236738323630D-04 0.000000000000D+00 -.109764596353D-04 0.185298115154D-05 0.000000000000D+00  7 -2 1 -24 -11 11 23 21 2 0.19070135D+00 0.66935476D-01 0.48782770D+05 0.48782770D+05 0.48782770D+05 0.11482381D+01  1  2  5  1  7  1       -2 0.295475490462D-04 0.100000000000D+01
0.434643140369D-05 0.000000000000D+00 -.217319579414D-05 0.185298115154D-05 0.000000000000D+00  7 21 1 -24 -11 11 23 2 2 0.19070135D+00 0.66935476D-01 0.48782770D+05 0.48782770D+05 0.48782770D+05 0.11482381D+01  1  2  5  3  7  1       -2 0.466290485127D-04 0.100000000000D+01
  </mgrwgt>
  </event>
  <event>
  8     66 0.26562228E-05 0.18360706E+03 0.75467711E-02 0.10487538E+00
       -4 -1    0    0    0  501 0.00000000E+00 0.00000000E+00 0.34310272E+03 0.34310622E+03 0.15500000E+01 0.0000E+00 0.9000E+01
        3 -1    0    0  501    0 0.00000000E+00 0.00000000E+00 -.13339666E+03 0.13339759E+03 0.50000000E+00 0.0000E+00 0.9000E+01
       25  2    1    2    0    0 0.55797053E+02 -.96979817E+01 0.22356659E+03 0.37717259E+03 0.29844561E+03 0.0000E+00 0.0000E+00
       23  2    3    3    0    0 -.47740500E+02 -.63156750E+02 0.18950695E+03 0.22533987E+03 0.92721324E+02 0.0000E+00 0.0000E+00
      -24  1    1    2    0    0 -.55797053E+02 0.96979817E+01 -.13860526E+02 0.99331224E+02 0.80419002E+02 0.0000E+00 0.9000E+01
      -13  1    4    4    0    0 -.80144115E+01 0.23895059E+02 0.28506638E+02 0.38050548E+02 0.10565837E+00 0.0000E+00 0.9000E+01
       13  1    4    4    0    0 -.39726088E+02 -.87051809E+02 0.16100031E+03 0.18728932E+03 0.10565837E+00 0.0000E+00 0.9000E+01
       23  1    3    3    0    0 0.10353755E+03 0.53458768E+02 0.34059645E+02 0.15183272E+03 0.91188000E+02 0.0000E+00 0.9000E+01
#aMCatNLO 1  0  0  1  2 0.75001260D+02 0.00000000D+00  -5  7  0 0.00000000D+00 0.00000000D+00 0.00000000D+00 0.00000000D+00 0.00000000D+00
  <mgrwgt>
 0.2090431755D-03    4    2    0
 0.213938808044750D+03 0.000000000000000D+00 0.000000000000000D+00 0.213938808044750D+03
 0.213938808044750D+03 0.000000000000000D+00 0.000000000000000D+00 -.213938808044750D+03
 0.117412900338794D+03 -.557970693813452D+02 0.969798451144379D+01 -.641187129975819D+02
 0.284033510441724D+02 -.801436672713445D+01 0.238951971511311D+02 0.130973214670049D+02
 0.129666489177821D+03 -.397261199436365D+02 -.870519437579555D+02 0.875053878220506D+02
 0.152394875528713D+03 0.103537556052116D+03 0.534587620953806D+02 -.364839962914736D+02
 0.000000000000000D+00 -.000000000000000D+00 -.000000000000000D+00 -.000000000000000D+00
 0.241478391792765D+03 0.000000000000000D+00 0.000000000000000D+00 0.241478391792765D+03
 0.275125933288151D+03 0.000000000000000D+00 0.000000000000000D+00 -.275125933288151D+03
 0.117149434000986D+03 -.482206979745632D+02 0.286413837438142D+02 -.641187129975819D+02
 0.322037313233483D+02 -.605675589762842D+01 0.287898626174714D+02 0.130973214670049D+02
 0.114889647960883D+03 -.318269483652758D+02 -.673014388289161D+02 0.875053878220506D+02
 0.170158433668879D+03 0.113956038950686D+03 0.795083668925475D+02 -.364839962914736D+02
 0.822030781268195D+02 -.278516367132184D+02 -.696381744249170D+02 -.336475414953861D+02
0.133528395036D-04 0.000000000000D+00 0.000000000000D+00 0.606253143150D-07 0.000000000000D+00  7 -4 3 -24 -13 13 23 21 0 0.52785376D-01 0.20522904D-01 0.33711551D+05 0.33711551D+05 0.33711551D+05 0.11626648D+01  1  2  2  1  7  1       -4 0.299317181473D-03 0.100000000000D+01
-.720740426662D-06 0.000000000000D+00 -.512784195773D-07 0.606253143150D-07 0.000000000000D+00  7 -4 3 -24 -13 13 23 21 2 0.52785376D-01 0.20522904D-01 0.33711551D+05 0.33711551D+05 0.33711551D+05 0.11626648D+01  1  2  3  1  7  1       -4 -.218396643028D-04 0.100000000000D+01
0.873730600685D-06 0.000000000000D+00 0.000000000000D+00 0.606253143150D-07 0.000000000000D+00  7 -4 3 -24 -13 13 23 21 2 0.52785376D-01 0.20522904D-01 0.33711551D+05 0.33711551D+05 0.33711551D+05 0.11626648D+01  1  2 15  1  7  1       -4 0.264755275327D-04 0.100000000000D+01
-.313216259534D-05 0.000000000000D+00 0.000000000000D+00 0.606253143150D-07 0.000000000000D+00  7 -4 3 -24 -13 13 23 21 2 0.52785376D-01 0.20522904D-01 0.33711551D+05 0.33711551D+05 0.33711551D+05 0.11626648D+01  1  2  4  1  7  1       -4 -.949098692031D-04 0.100000000000D+01
  </mgrwgt>
  </event>
  <event>
  8     66 0.26562228E-05 0.29999503E+03 0.75467711E-02 0.97423080E-01
       -2 -1    0    0    0  501 0.00000000E+00 0.00000000E+00 0.86103971E+02 0.86104565E+02 0.32000000E+00 0.0000E+00 0.9000E+01
        1 -1    0    0  501    0 0.00000000E+00 0.00000000E+00 -.13106775E+04 0.13106775E+04 0.32000000E+00 0.0000E+00 0.9000E+01
       25  2    1    2    0    0 -.10984591E+03 0.23149027E+03 -.61419190E+03 0.72993368E+03 0.29986266E+03 0.0000E+00 0.0000E+00
       23  2    3    3    0    0 -.71588003E+02 0.32650441E+02 -.41250431E+03 0.42994355E+03 0.92199527E+02 0.0000E+00 0.0000E+00
      -24  1    1    2    0    0 0.10984591E+03 -.23149027E+03 -.61038158E+03 0.66684838E+03 0.80419002E+02 0.0000E+00 0.9000E+01
      -13  1    4    4    0    0 -.76375001E+02 0.10908793E-01 -.35941058E+03 0.36743587E+03 0.10565837E+00 0.0000E+00 0.9000E+01
       13  1    4    4    0    0 0.47869978E+01 0.32639532E+02 -.53093733E+02 0.62507680E+02 0.10565837E+00 0.0000E+00 0.9000E+01
       23  1    3    3    0    0 -.38257908E+02 0.19883983E+03 -.20168759E+03 0.29999013E+03 0.91188000E+02 0.0000E+00 0.9000E+01
#aMCatNLO 1  0  0  1  2 0.15855220D+03 0.00000000D+00  -5  7  0 0.00000000D+00 0.00000000D+00 0.00000000D+00 0.00000000D+00 0.00000000D+00
  <mgrwgt>
 0.1704772223D-02    4    2    0
 0.335938946934478D+03 0.000000000000000D+00 0.000000000000000D+00 0.335938946934478D+03
 0.335938946934478D+03 0.000000000000000D+00 0.000000000000000D+00 -.335938946934478D+03
 0.273836591158990D+03 0.109845911271796D+03 -.231490269831838D+03 -.535293700061674D+02
 0.108804336669807D+03 -.763751071126963D+02 0.108659778990088D-01 -.774933969678159D+02
 0.331791858129898D+02 0.478710415132943D+01 0.326395748130778D+02 0.354967055918204D+01
 0.256057780227169D+03 -.382579083104286D+02 0.198839829040861D+03 0.127473096414801D+03
 0.000000000000000D+00 0.000000000000000D+00 -.000000000000000D+00 -.000000000000000D+00
 0.372702875559123D+03 0.000000000000000D+00 0.000000000000000D+00 0.372702875559123D+03
 0.573395952010105D+03 0.000000000000000D+00 0.000000000000000D+00 -.573395952010105D+03
 0.224509852912306D+03 0.686125302915343D+02 -.190694481656053D+03 -.535293700061674D+02
 0.124606845447141D+03 -.956876402144764D+02 0.191184431599695D+02 -.774933969678159D+02
 0.387047548368282D+02 -.116060139857191D+01 0.385241598259311D+02 0.354967055918204D+01
 0.302510860299122D+03 -.844740975347109D+02 0.244565544979324D+03 0.127473096414801D+03
 0.255766514073832D+03 0.112709808856225D+03 -.111513666309172D+03 -.200693076450982D+03
0.465802943648D-04 0.000000000000D+00 0.000000000000D+00 0.324459211771D-05 0.000000000000D+00  7 -2 1 -24 -13 13 23 21 0 0.13246813D-01 0.20164273D+00 0.89997018D+05 0.89997018D+05 0.89997018D+05 0.11254976D+01  1  2  2  1  7  1       -2 0.183648135276D-02 0.100000000000D+01
-.254750163419D-05 0.000000000000D+00 -.178880595234D-06 0.324459211771D-05 0.000000000000D+00  7 -2 1 -24 -13 13 23 21 2 0.13246813D-01 0.20164273D+00 0.89997018D+05 0.89997018D+05 0.89997018D+05 0.11254976D+01  1  2  3  1  7  1       -2 -.127229531171D-03 0.100000000000D+01
0.300745048815D-05 0.000000000000D+00 0.000000000000D+00 0.324459211771D-05 0.000000000000D+00  7 -2 1 -24 -13 13 23 21 2 0.13246813D-01 0.20164273D+00 0.89997018D+05 0.89997018D+05 0.89997018D+05 0.11254976D+01  1  2 15  1  7  1       -2 0.150200694865D-03 0.100000000000D+01
-.309714495981D-05 0.000000000000D+00 0.000000000000D+00 0.324459211771D-05 0.000000000000D+00  7 -2 1 -24 -13 13 23 21 2 0.13246813D-01 0.20164273D+00 0.89997018D+05 0.89997018D+05 0.89997018D+05 0.11254976D+01  1  2  4  1  7  1       -2 -.154680293789D-03 0.100000000000D+01
  </mgrwgt>
  </event>
  <event>
  8     66 0.26562228E-05 0.32600807E+03 0.75467711E-02 0.91457995E-01
       -2 -1    0    0    0  501 0.00000000E+00 0.00000000E+00 0.10427133E+03 0.10427182E+03 0.32000000E+00 0.0000E+00 0.9000E+01
        1 -1    0    0  501    0 0.00000000E+00 0.00000000E+00 -.17960359E+04 0.17960359E+04 0.32000000E+00 0.0000E+00 0.9000E+01
       25  2    1    2    0    0 -.25686737E+03 0.13431487E+02 -.33553420E+03 0.51756074E+03 0.29853755E+03 0.0000E+00 0.0000E+00
       23  2    3    3    0    0 -.28462322E+03 -.12738551E+01 -.25173279E+03 0.38979313E+03 0.86932677E+02 0.0000E+00 0.0000E+00
      -24  1    1    2    0    0 0.25686737E+03 -.13431487E+02 -.13562303E+04 0.13827470E+04 0.80419002E+02 0.0000E+00 0.9000E+01
      -13  1    4    4    0    0 -.54081662E+02 -.11555676E+02 -.11134202E+02 0.56412245E+02 0.10565837E+00 0.0000E+00 0.9000E+01
       13  1    4    4    0    0 -.23054155E+03 0.10281821E+02 -.24059858E+03 0.33338088E+03 0.10565837E+00 0.0000E+00 0.9000E+01
       23  1    3    3    0    0 0.27755846E+02 0.14705342E+02 -.83801414E+02 0.12776761E+03 0.91188000E+02 0.0000E+00 0.9000E+01
#aMCatNLO 1  0  0  2  2 0.51020271D+03 0.00000000D+00  -5  7  0 0.00000000D+00 0.00000000D+00 0.00000000D+00 0.00000000D+00 0.00000000D+00
  <mgrwgt>
 0.1877285604D-02    3    2    0
 0.432753438493494D+03 0.000000000000000D+00 0.000000000000000D+00 0.432753438493494D+03
 0.432753438493494D+03 0.000000000000000D+00 0.000000000000000D+00 -.432753438493494D+03
 0.385002544619018D+03 0.256867369766938D+03 -.134314865976633D+02 -.274951801095283D+03
 0.102095055323642D+03 -.540814016146853D+02 -.115557078415559D+02 0.858199739991175D+02
 0.261685171982604D+03 -.230541814530421D+03 0.102818527606712D+02 0.123385106444798D+03
 0.116724105061724D+03 0.277558463781681D+02 0.147053416785480D+02 0.657467206513681D+02
 0.000000000000000D+00 -.000000000000000D+00 -.000000000000000D+00 0.000000000000000D+00
 0.262857346919975D+04 0.000000000000000D+00 0.000000000000000D+00 0.262857346919975D+04
 0.532953392378154D+03 0.000000000000000D+00 0.000000000000000D+00 -.532953392378154D+03
 0.509131660648188D+03 0.368433543696906D+03 0.203484797646926D+03 -.274951801095283D+03
 0.978745702539229D+02 -.291300622111893D+02 0.369567725965505D+02 0.858199739991175D+02
 0.246999958027485D+03 -.167070298335227D+03 0.133688481879942D+03 0.123385106444798D+03
 0.150687274443672D+03 0.611222742600273D+02 0.795791407853561D+02 0.657467206513681D+02
 0.215683339820463D+04 -.233355457410517D+03 -.453709192908775D+03 0.209562007682159D+04
0.133577250354D-03 0.000000000000D+00 0.000000000000D+00 0.103362632129D-06 0.000000000000D+00  7 -2 1 -24 -13 13 23 21 0 0.16041783D-01 0.27631325D+00 0.10628126D+06 0.10628126D+06 0.10628126D+06 0.11195574D+01  1  2  2  2  7  2        1 0.184494519628D-02 0.100000000000D+01
-.669707421668D-05 0.000000000000D+00 -.512971813058D-06 0.103362632129D-06 0.000000000000D+00  7 -2 1 -24 -13 13 23 21 2 0.16041783D-01 0.27631325D+00 0.10628126D+06 0.10628126D+06 0.10628126D+06 0.11195574D+01  1  2  3  2  7  2        1 -.115938805155D-03 0.100000000000D+01
0.856518135707D-05 0.000000000000D+00 0.000000000000D+00 0.103362632129D-06 0.000000000000D+00  7 -2 1 -24 -13 13 23 21 2 0.16041783D-01 0.27631325D+00 0.10628126D+06 0.10628126D+06 0.10628126D+06 0.11195574D+01  1  2 15  2  7  2        1 0.148279212735D-03 0.100000000000D+01
  </mgrwgt>
  </event>
  <event>
  8     66 0.26562228E-05 0.24100854E+03 0.75467711E-02 0.98702400E-01
       -4 -1    0    0    0  501 0.00000000E+00 0.00000000E+00 0.51706341E+02 0.51729568E+02 0.15500000E+01 0.0000E+00 0.9000E+01
        3 -1    0    0  501    0 0.00000000E+00 0.00000000E+00 -.29714301E+04 0.29714302E+04 0.50000000E+00 0.0000E+00 0.9000E+01
       25  2    1    2    0    0 -.29428956E+02 -.32635174E+03 -.15205953E+04 0.15839241E+04 0.29872048E+03 0.0000E+00 0.0000E+00
       23  2    3    3    0    0 -.20631573E+02 -.17290868E+03 -.36891387E+03 0.41845957E+03 0.93208892E+02 0.0000E+00 0.0000E+00
      -24  1    1    2    0    0 0.29428956E+02 0.32635174E+03 -.13991285E+04 0.14392356E+04 0.80419002E+02 0.0000E+00 0.9000E+01
      -11  1    4    4    0    0 -.15876205E+01 -.81118197E+02 -.27108273E+03 0.28296383E+03 0.51099893E-03 0.0000E+00 0.9000E+01
       11  1    4    4    0    0 -.19043953E+02 -.91790479E+02 -.97831142E+02 0.13549574E+03 0.51099893E-03 0.0000E+00 0.9000E+01
       23  1    3    3    0    0 -.87973832E+01 -.15344306E+03 -.11516814E+04 0.11654645E+04 0.91188000E+02 0.0000E+00 0.9000E+01
#aMCatNLO 1  0  0  2  1 0.19513880D+02 0.00000000D+00  -5  7  0 0.00000000D+00 0.00000000D+00 0.00000000D+00 0.00000000D+00 0.00000000D+00
  <mgrwgt>
 0.1365658429D-04    9    2    0
 0.392016521266175D+03 0.000000000000000D+00 0.000000000000000D+00 0.392016521266175D+03
 0.392016521266175D+03 0.000000000000000D+00 0.000000000000000D+00 -.392016521266175D+03
 0.339233854716212D+03 0.294289562556549D+02 0.326351740290536D+03 -.352259900398960D+02
 0.815758508656284D+02 -.158762049416914D+01 -.811181971444448D+02 0.848156811283940D+01
 0.158137933546926D+03 -.190439525486960D+02 -.917904793826950D+02 0.127355572286846D+03
 0.205085403403583D+03 -.879738321278972D+01 -.153443063763397D+03 -.100611150359789D+03
 0.000000000000000D+00 0.000000000000000D+00 -.000000000000000D+00 -.000000000000000D+00
 0.394133178338716D+03 0.000000000000000D+00 0.000000000000000D+00 0.394133178338716D+03
 0.439850056249348D+03 0.000000000000000D+00 0.000000000000000D+00 -.439850056249348D+03
 0.347364312240409D+03 0.286699211324194D+02 0.334861037912523D+03 -.352259900398960D+02
 0.795936498467516D+02 -.176579357665386D+01 -.791207562610419D+02 0.848156811283940D+01
 0.155953471631146D+03 -.193911809858083D+02 -.878978135181545D+02 0.127355572286846D+03
 0.201364412712078D+03 -.924671398748706D+01 -.148405761568052D+03 -.100611150359789D+03
 0.497073881576800D+02 0.173376741752987D+01 -.194367065652738D+02 -.457168779106319D+02
0.140598989899D-03 0.000000000000D+00 0.000000000000D+00 0.285329832062D-06 0.000000000000D+00  7 -4 3 -24 -11 11 23 21 0 0.79566116D-02 0.45714489D+00 0.11936657D+06 0.11936657D+06 0.11936657D+06 0.11154670D+01  1  2  2  2  7  2        3 0.112572333738D-04 0.100000000000D+01
-.765949591662D-05 0.000000000000D+00 -.539937141777D-06 0.285329832062D-06 0.000000000000D+00  7 -4 3 -24 -11 11 23 21 2 0.79566116D-02 0.45714489D+00 0.11936657D+06 0.11936657D+06 0.11936657D+06 0.11154670D+01  1  2  3  2  7  2        3 -.763067777435D-06 0.100000000000D+01
0.899157050467D-05 0.000000000000D+00 0.000000000000D+00 0.285329832062D-06 0.000000000000D+00  7 -4 3 -24 -11 11 23 21 2 0.79566116D-02 0.45714489D+00 0.11936657D+06 0.11936657D+06 0.11936657D+06 0.11154670D+01  1  2 15  2  7  2        3 0.895774055544D-06 0.100000000000D+01
0.113614107531D-02 0.000000000000D+00 0.000000000000D+00 0.285329832062D-06 0.000000000000D+00  7 -4 3 -24 -11 11 23 21 2 0.79566116D-02 0.51406855D+00 0.12555222D+06 0.12555222D+06 0.12555222D+06 0.11137015D+01  1  2 12  2  7  2        3 0.895168692908D-04 0.100000000000D+01
-.114614454842D-02 0.000000000000D+00 0.000000000000D+00 0.285329832062D-06 0.000000000000D+00  7 -4 3 -24 -11 11 23 21 2 0.79566116D-02 0.45714489D+00 0.11936657D+06 0.11936657D+06 0.11936657D+06 0.11154670D+01  1  2  4  2  7  2        3 -.114183228597D-03 0.100000000000D+01
-.144604440774D-02 0.000000000000D+00 -.993055456241D-04 0.285329832062D-06 0.000000000000D+00  7 -4 3 -24 -11 11 23 21 2 0.79566116D-02 0.51357406D+00 0.11936657D+06 0.11936657D+06 0.11936657D+06 0.11154670D+01  1  2  5  2  7  2        3 -.114543893863D-03 0.100000000000D+01
0.144844932199D-02 0.000000000000D+00 0.986366494320D-04 0.285329832062D-06 0.000000000000D+00  7 -4 3 -24 -11 11 23 21 2 0.79566116D-02 0.45714489D+00 0.11936657D+06 0.11936657D+06 0.11936657D+06 0.11154670D+01  1  2  6  2  7  2        3 0.144299966589D-03 0.100000000000D+01
0.211561447023D-04 0.000000000000D+00 0.000000000000D+00 0.285329832062D-06 0.000000000000D+00  7 -4 21 -24 -11 11 23 -3 2 0.79566116D-02 0.51406855D+00 0.12555222D+06 0.12555222D+06 0.12555222D+06 0.11137015D+01  1  2 12  4  7  2        3 0.106647139569D-04 0.100000000000D+01
-.263061346516D-04 0.000000000000D+00 -.183636246971D-05 0.285329832062D-06 0.000000000000D+00  7 -4 21 -24 -11 11 23 -3 2 0.79566116D-02 0.51357406D+00 0.11936657D+06 0.11936657D+06 0.11936657D+06 0.11154670D+01  1  2  5  4  7  2        3 -.134877827391D-04 0.100000000000D+01
  </mgrwgt>
  </event>
  <event>
  8     66 0.26562228E-05 0.25204022E+03 0.75467711E-02 0.99535658E-01
       -2 -1    0    0    0  501 0.00000000E+00 0.00000000E+00 0.10580363E+04 0.10580363E+04 0.32000000E+00 0.0000E+00 0.9000E+01
        1 -1    0    0  501    0 0.00000000E+00 0.00000000E+00 -.27287675E+03 0.27287694E+03 0.32000000E+00 0.0000E+00 0.9000E+01
       25  2    1    2    0    0 0.71515363E+02 0.15176583E+03 -.15203138E+03 0.37543364E+03 0.29948216E+03 0.0000E+00 0.0000E+00
       23  2    3    3    0    0 0.14263700E+03 0.12388480E+03 -.14743073E+03 0.25638720E+03 0.91136254E+02 0.0000E+00 0.0000E+00
      -24  1    1    2    0    0 -.71515363E+02 -.15176583E+03 0.93719089E+03 0.95547962E+03 0.80419002E+02 0.0000E+00 0.9000E+01
      -11  1    4    4    0    0 0.37386692E+02 0.11698672E+01 -.64812630E+02 0.74831881E+02 0.51099893E-03 0.0000E+00 0.9000E+01
       11  1    4    4    0    0 0.10525030E+03 0.12271494E+03 -.82618100E+02 0.18155532E+03 0.51099893E-03 0.0000E+00 0.9000E+01
       23  1    3    3    0    0 -.71121633E+02 0.27881027E+02 -.46006515E+01 0.11904644E+03 0.91188000E+02 0.0000E+00 0.9000E+01
#aMCatNLO 1  0  0  1  1 0.13073624D+03 0.00000000D+00  -5  7  0 0.00000000D+00 0.00000000D+00 0.00000000D+00 0.00000000D+00 0.00000000D+00
  <mgrwgt>
 0.9946947465D-03    4    2    0
 0.537320816126420D+03 0.000000000000000D+00 0.000000000000000D+00 0.537320816126420D+03
 0.537320816126420D+03 0.000000000000000D+00 0.000000000000000D+00 -.537320816126420D+03
 0.498599840059881D+03 -.715153630304575D+02 -.151765829654290D+03 0.462587581278762D+03
 0.140030862795614D+03 0.373866917627247D+02 0.116986721067978D+01 -.134942614562756D+03
 0.285213929242542D+03 0.105250303874899D+03 0.122714935857115D+03 -.234968941534398D+03
 0.150797000154803D+03 -.711216326071666D+02 0.278810265864958D+02 -.926760251816080D+02
 0.000000000000000D+00 -.000000000000000D+00 0.000000000000000D+00 -.000000000000000D+00
 0.556216758495677D+03 0.000000000000000D+00 0.000000000000000D+00 0.556216758495677D+03
 0.827400818015684D+03 0.000000000000000D+00 0.000000000000000D+00 -.827400818015684D+03
 0.502737096263129D+03 -.172179155344832D+02 -.178867674653707D+03 0.462587581278762D+03
 0.145069262420899D+03 0.528462324213206D+02 -.654655582601116D+01 -.134942614562756D+03
 0.292106028999178D+03 0.136555451007608D+03 0.107089390193342D+03 -.234968941534398D+03
 0.142652438219708D+03 -.552093508417775D+02 0.199386238791751D+02 -.926760251816080D+02
 0.301052750608446D+03 -.116974417052668D+03 0.583862164072013D+02 -.271184059520008D+03
0.369402910182D-03 0.000000000000D+00 0.000000000000D+00 0.114466739430D-04 0.000000000000D+00  7 -2 1 -24 -11 11 23 21 0 0.16277483D+00 0.41981057D-01 0.63524270D+05 0.63524270D+05 0.63524270D+05 0.11382610D+01  1  2  2  1  7  1       -2 0.100800303082D-02 0.100000000000D+01
-.622328297943D-05 0.000000000000D+00 -.141860444112D-05 0.114466739430D-04 0.000000000000D+00  7 -2 1 -24 -11 11 23 21 2 0.16277483D+00 0.41981057D-01 0.63524270D+05 0.63524270D+05 0.63524270D+05 0.11382610D+01  1  2  3  1  7  1       -2 -.220021339204D-04 0.100000000000D+01
0.223132106502D-04 0.000000000000D+00 0.000000000000D+00 0.114466739430D-04 0.000000000000D+00  7 -2 1 -24 -11 11 23 21 2 0.16277483D+00 0.41981057D-01 0.63524270D+05 0.63524270D+05 0.63524270D+05 0.11382610D+01  1  2 15  1  7  1       -2 0.788873413826D-04 0.100000000000D+01
-.198541634255D-04 0.000000000000D+00 0.000000000000D+00 0.114466739430D-04 0.000000000000D+00  7 -2 1 -24 -11 11 23 21 2 0.16277483D+00 0.41981057D-01 0.63524270D+05 0.63524270D+05 0.63524270D+05 0.11382610D+01  1  2  4  1  7  1       -2 -.701934917644D-04 0.100000000000D+01
  </mgrwgt>
  </event>
  <event>
  9     66 -.26562228E-05 0.58866610E+03 0.75467711E-02 0.90139802E-01
       -2 -1    0    0    0  502 0.00000000E+00 0.00000000E+00 0.39081566E+03 0.39081579E+03 0.32000000E+00 0.0000E+00 0.9000E+01
        1 -1    0    0  501    0 0.00000000E+00 0.00000000E+00 -.29744348E+04 0.29744348E+04 0.32000000E+00 0.0000E+00 0.9000E+01
       25  2    1    2    0    0 0.37013456E+03 -.50091948E+03 -.99245191E+02 0.69934910E+03 0.30219139E+03 0.0000E+00 0.0000E+00
       23  2    3    3    0    0 0.27669364E+03 -.28955006E+03 -.16416174E+03 0.44256583E+03 0.92286661E+02 0.0000E+00 0.0000E+00
      -24  1    1    2    0    0 -.64671196E+02 0.53888691E+03 -.21153562E+04 0.21853559E+04 0.80419002E+02 0.0000E+00 0.9000E+01
      -11  1    4    4    0    0 0.16121152E+03 -.22875986E+03 -.10044650E+03 0.29733773E+03 0.51099893E-03 0.0000E+00 0.9000E+01
       11  1    4    4    0    0 0.11548211E+03 -.60790202E+02 -.63715248E+02 0.14522810E+03 0.51099893E-03 0.0000E+00 0.9000E+01
       23  1    3    3    0    0 0.93440925E+02 -.21136942E+03 0.64916554E+02 0.25678327E+03 0.91188000E+02 0.0000E+00 0.9000E+01
       21  1    1    2  501  502 -.30546337E+03 -.37967427E+02 -.36901774E+03 0.48054558E+03 0.75000000E+00 0.0000E+00 0.9000E+01
#aMCatNLO 2  0  0  1  2 0.30781389D+03 0.00000000D+00  -5  7  0 0.00000000D+00 0.00000000D+00 0.00000000D+00 0.00000000D+00 0.00000000D+00
  <mgrwgt>
 -.3431924693D-04    2    2    0
 0.911360853713984D+03 0.000000000000000D+00 0.000000000000000D+00 0.911360853713984D+03
 0.911360853713984D+03 0.000000000000000D+00 0.000000000000000D+00 -.911360853713984D+03
 0.888084557613755D+03 -.211455922925136D+03 0.520642371564121D+03 -.682967699902137D+03
 0.326283440486964D+03 0.105468696720444D+03 -.235688386011304D+03 0.199469852979060D+03
 0.134342416614006D+03 0.917985841873570D+02 -.637339356489332D+02 0.745579659700125D+02
 0.474011292713243D+03 0.141886420173344D+02 -.221220049903884D+03 0.408939880953064D+03
 0.000000000000000D+00 -.000000000000000D+00 -.000000000000000D+00 -.000000000000000D+00
 0.107809349713765D+04 0.000000000000000D+00 0.000000000000000D+00 0.107809349713765D+04
 0.107825061519858D+04 0.000000000000000D+00 0.000000000000000D+00 -.107825061519858D+04
 0.876067098814312D+03 -.646711963340299D+02 0.538886911072875D+03 -.682967699902137D+03
 0.343669099363672D+03 0.161211523609886D+03 -.228759857198173D+03 0.199469852979060D+03
 0.150301223214390D+03 0.115482114282895D+03 -.607902022607962D+02 0.745579659700125D+02
 0.478492755967163D+03 0.934409250356541D+02 -.211369424145562D+03 0.408939880953064D+03
 0.307813934976696D+03 -.305463366594406D+03 -.379674274683443D+02 -.157118060929246D+00
-.420533703584D-03 0.000000000000D+00 0.000000000000D+00 0.174136773929D-05 0.000000000000D+00  7 -2 1 -24 -11 11 23 21 2 0.63991949D-01 0.38677784D+00 0.57403172D+06 0.57403172D+06 0.57403172D+06 0.10642980D+01  1  2 13  1  7  1       -2 -.159474476140D-03 0.100000000000D+01
0.621903462213D-03 0.000000000000D+00 0.000000000000D+00 0.174136773929D-05 0.113077066489D-09  7 -2 1 -24 -11 11 23 21 2 0.60125473D-01 0.45760517D+00 0.57403172D+06 0.57403172D+06 0.57403172D+06 0.10642980D+01  1  2  1  1  7  1       -2 0.125155229209D-03 0.100000000000D+01
  </mgrwgt>
  </event>
  <event>
  8     66 0.26562228E-05 0.43815752E+03 0.75467711E-02 0.88569046E-01
       -2 -1    0    0    0  501 0.00000000E+00 0.00000000E+00 0.20499504E+03 0.20499529E+03 0.32000000E+00 0.0000E+00 0.9000E+01
        1 -1    0    0  501    0 0.00000000E+00 0.00000000E+00 -.30128112E+04 0.30128112E+04 0.32000000E+00 0.0000E+00 0.9000E+01
       25  2    1    2    0    0 -.64053845E+03 -.18771823E+03 -.72903635E+03 0.10330135E+04 0.30015882E+03 0.0000E+00 0.0000E+00
       23  2    3    3    0    0 -.49880563E+03 -.44128257E+02 -.54070921E+03 0.74234424E+03 0.89186127E+02 0.0000E+00 0.0000E+00
      -24  1    1    2    0    0 0.64053845E+03 0.18771823E+03 -.20787798E+04 0.21847929E+04 0.80419002E+02 0.0000E+00 0.9000E+01
      -13  1    4    4    0    0 -.30366532E+03 -.37785543E+02 -.26687295E+03 0.40603147E+03 0.10565837E+00 0.0000E+00 0.9000E+01
       13  1    4    4    0    0 -.19514031E+03 -.63427141E+01 -.27383626E+03 0.33631277E+03 0.10565837E+00 0.0000E+00 0.9000E+01
       23  1    3    3    0    0 -.14173282E+03 -.14358997E+03 -.18832714E+03 0.29066929E+03 0.91188000E+02 0.0000E+00 0.9000E+01
#aMCatNLO 1  0  0  2  1 0.33954124D+03 0.00000000D+00  -5  7  0 0.00000000D+00 0.00000000D+00 0.00000000D+00 0.00000000D+00 0.00000000D+00
  <mgrwgt>
 0.7209731272D-03    9    2    0
 0.785882807364696D+03 0.000000000000000D+00 0.000000000000000D+00 0.785882807364696D+03
 0.785882807364696D+03 0.000000000000000D+00 0.000000000000000D+00 -.785882807364696D+03
 0.759279571569779D+03 0.640538452197489D+03 0.187718231229090D+03 -.352860608129449D+03
 0.354506340621440D+03 -.303665472873292D+03 -.377855867986603D+02 0.178981215650483D+03
 0.199334555411300D+03 -.195140157794782D+03 -.634266994180673D+01 0.401790285454699D+02
 0.258645147126872D+03 -.141732821529414D+03 -.143589974488623D+03 0.133700363933496D+03
 0.000000000000000D+00 -.000000000000000D+00 0.000000000000000D+00 -.000000000000000D+00
 0.855366465829292D+03 0.000000000000000D+00 0.000000000000000D+00 0.855366465829292D+03
 0.136523898298698D+04 0.000000000000000D+00 0.000000000000000D+00 -.136523898298698D+04
 0.909419926794250D+03 0.817481009696128D+03 0.166708060131487D+03 -.352860608129449D+03
 0.298504533651376D+03 -.234422679739158D+03 -.460074806810029D+02 0.178981215650483D+03
 0.162233098636648D+03 -.156800896904041D+03 -.108950763411339D+02 0.401790285454699D+02
 0.237864642027874D+03 -.890848091087950D+02 -.149841403000469D+03 0.133700363933496D+03
 0.612583247706121D+03 -.337172623944134D+03 0.400358998911190D+02 -.509872517157687D+03
0.112241849003D-02 0.000000000000D+00 0.000000000000D+00 0.752273589274D-05 0.000000000000D+00  7 -2 1 -24 -13 13 23 21 0 0.31537720D-01 0.46350943D+00 0.48648127D+06 0.48648127D+06 0.48648127D+06 0.10693527D+01  1  2  2  2  7  2        1 0.658635478824D-03 0.100000000000D+01
-.612769671151D-04 0.000000000000D+00 -.431038254130D-05 0.752273589274D-05 0.000000000000D+00  7 -2 1 -24 -13 13 23 21 2 0.31537720D-01 0.46350943D+00 0.48648127D+06 0.48648127D+06 0.48648127D+06 0.10693527D+01  1  2  3  2  7  2        1 -.411177672656D-04 0.100000000000D+01
0.701517468732D-04 0.000000000000D+00 0.000000000000D+00 0.752273589274D-05 0.000000000000D+00  7 -2 1 -24 -13 13 23 21 2 0.31537720D-01 0.46350943D+00 0.48648127D+06 0.48648127D+06 0.48648127D+06 0.10693527D+01  1  2 15  2  7  2        1 0.470728780652D-04 0.100000000000D+01
0.597894114112D-03 0.000000000000D+00 0.000000000000D+00 0.752273589274D-05 0.000000000000D+00  7 -2 1 -24 -13 13 23 21 2 0.31537720D-01 0.81253928D+00 0.78368591D+06 0.78368591D+06 0.78368591D+06 0.10549841D+01  1  2 12  2  7  2        1 0.147903128316D-05 0.100000000000D+01
-.850448914352D-03 0.000000000000D+00 0.000000000000D+00 0.752273589274D-05 0.000000000000D+00  7 -2 1 -24 -13 13 23 21 2 0.31537720D-01 0.46350943D+00 0.48648127D+06 0.48648127D+06 0.48648127D+06 0.10693527D+01  1  2  4  2  7  2        1 -.570664022355D-03 0.100000000000D+01
-.924733849098D-03 0.000000000000D+00 -.231705734417D-03 0.752273589274D-05 0.000000000000D+00  7 -2 1 -24 -13 13 23 21 2 0.31537720D-01 0.81058838D+00 0.48648127D+06 0.48648127D+06 0.48648127D+06 0.10693527D+01  1  2  5  2  7  2        1 -.261861508038D-05 0.100000000000D+01
0.936174632219D-03 0.000000000000D+00 0.199692512813D-03 0.752273589274D-05 0.000000000000D+00  7 -2 1 -24 -13 13 23 21 2 0.31537720D-01 0.46350943D+00 0.48648127D+06 0.48648127D+06 0.48648127D+06 0.10693527D+01  1  2  6  2  7  2        1 0.628187269374D-03 0.100000000000D+01
0.370536120683D-04 0.000000000000D+00 0.000000000000D+00 0.752273589274D-05 0.000000000000D+00  7 -2 21 -24 -13 13 23 -1 2 0.31537720D-01 0.81253928D+00 0.78368591D+06 0.78368591D+06 0.78368591D+06 0.10549841D+01  1  2 12  4  7  2        1 0.262441579728D-08 0.100000000000D+01
-.453495474125D-04 0.000000000000D+00 -.143077637311D-04 0.752273589274D-05 0.000000000000D+00  7 -2 21 -24 -13 13 23 -1 2 0.31537720D-01 0.81058838D+00 0.48648127D+06 0.48648127D+06 0.48648127D+06 0.10693527D+01  1  2  5  4  7  2        1 -.375002758346D-08 0.100000000000D+01
  </mgrwgt>
  </event>
  <event>
  7     66 0.26562228E-05 0.24636544E+03 0.75467711E-02 0.94669587E-01
       -2 -1    0    0    0  501 0.00000000E+00 0.00000000E+00 0.52341806E+02 0.52342784E+02 0.32000000E+00 0.0000E+00 0.9000E+01
        1 -1    0    0  501    0 0.00000000E+00 0.00000000E+00 -.14341488E+04 0.14341488E+04 0.32000000E+00 0.0000E+00 0.9000E+01
       25  2    1    2    0    0 -.98201001E+02 0.12173247E+03 -.63789011E+03 0.72206910E+03 0.30002962E+03 0.0000E+00 0.0000E+00
      -24  1    1    2    0    0 0.98201001E+02 -.12173247E+03 -.74391686E+03 0.76442248E+03 0.80419002E+02 0.0000E+00 0.9000E+01
      -11  1    3    3    0    0 -.43344424E+02 -.94533799E+01 -.21101935E+03 0.21563226E+03 0.51099893E-03 0.0000E+00 0.9000E+01
       11  1    3    3    0    0 0.77565030E+02 0.51024218E+02 -.14708065E+03 0.17393252E+03 0.51099893E-03 0.0000E+00 0.9000E+01
       23  1    3    3    0    0 -.13242161E+03 0.80161629E+02 -.27979011E+03 0.33250432E+03 0.91188000E+02 0.0000E+00 0.9000E+01
#aMCatNLO 1  0  0  1  1 0.38121575D+03 0.00000000D+00  -5  7  0 0.00000000D+00 0.00000000D+00 0.00000000D+00 0.00000000D+00 0.00000000D+00
  <mgrwgt>
 0.1433140339D-02    5    2    0
 0.273983010621334D+03 0.000000000000000D+00 0.000000000000000D+00 0.273983010621334D+03
 0.273983010621334D+03 0.000000000000000D+00 0.000000000000000D+00 -.273983010621334D+03
 0.197746024218544D+03 0.982010013324015D+02 -.121732467598065D+03 -.904104187008902D+02
 0.528272282311204D+02 -.433444082889686D+02 -.945338041789412D+01 -.286812118177849D+02
 0.100940859852712D+03 0.775650325982914D+02 0.510242097361581D+02 0.396137971751177D+02
 0.196451908940292D+03 -.132421625641724D+03 0.801616382798011D+02 0.794778333435574D+02
 0.000000000000000D+00 0.000000000000000D+00 -.000000000000000D+00 0.000000000000000D+00
 0.643952903185458D+03 0.000000000000000D+00 0.000000000000000D+00 0.643952903185458D+03
 0.450889840354915D+03 0.000000000000000D+00 0.000000000000000D+00 -.450889840354915D+03
 0.167012417325659D+03 -.159373341937694D+02 -.114008285469590D+03 -.904104187008902D+02
 0.939951288051564D+02 -.892873051255837D+02 -.634424709261967D+01 -.286812118177849D+02
 0.715236764089806D+02 0.235983169196440D+02 0.546763458817911D+02 0.396137971751177D+02
 0.334995714965143D+03 -.298719482807434D+03 0.914156567513480D+02 0.794778333435574D+02
 0.427315806035434D+03 0.380345805207143D+03 -.257394700709299D+02 0.193063062830543D+03
0.177363139736D-04 0.000000000000D+00 0.000000000000D+00 0.169454878309D-08 0.000000000000D+00  7 -2 1 -24 -11 11 23 21 0 0.80526635D-02 0.22063835D+00 0.60695931D+05 0.60695931D+05 0.60695931D+05 0.11399629D+01  1  2  2  1  7  1       -2 0.125200078784D-02 0.100000000000D+01
-.971825962989D-06 0.000000000000D+00 -.681121157375D-07 0.169454878309D-08 0.000000000000D+00  7 -2 1 -24 -11 11 23 21 2 0.80526635D-02 0.22063835D+00 0.60695931D+05 0.60695931D+05 0.60695931D+05 0.11399629D+01  1  2  3  1  7  1       -2 -.891479142244D-04 0.100000000000D+01
0.115484204287D-05 0.000000000000D+00 0.000000000000D+00 0.169454878309D-08 0.000000000000D+00  7 -2 1 -24 -11 11 23 21 2 0.80526635D-02 0.22063835D+00 0.60695931D+05 0.60695931D+05 0.60695931D+05 0.11399629D+01  1  2 15  1  7  1       -2 0.105936415882D-03 0.100000000000D+01
0.565995279710D-05 0.000000000000D+00 -.651024956103D-05 0.169454878309D-08 0.000000000000D+00  7 -2 1 -24 -11 11 23 21 2 0.33008051D-01 0.22063835D+00 0.60695931D+05 0.60695931D+05 0.60695931D+05 0.11399629D+01  1  2  5  1  7  1       -2 0.530558659330D-04 0.100000000000D+01
0.100533815018D-05 0.000000000000D+00 -.109944166700D-05 0.169454878309D-08 0.000000000000D+00  7 21 1 -24 -11 11 23 2 2 0.33008051D-01 0.22063835D+00 0.60695931D+05 0.60695931D+05 0.60695931D+05 0.11399629D+01  1  2  5  3  7  1       -2 0.111295183595D-03 0.100000000000D+01
  </mgrwgt>
  </event>
  <event>
  8     66 0.26562228E-05 0.21221422E+03 0.75467711E-02 0.98302642E-01
       -2 -1    0    0    0  501 0.00000000E+00 0.00000000E+00 0.31625747E+03 0.31625763E+03 0.32000000E+00 0.0000E+00 0.9000E+01
        1 -1    0    0  501    0 0.00000000E+00 0.00000000E+00 -.30086945E+03 0.30086962E+03 0.32000000E+00 0.0000E+00 0.9000E+01
       25  2    1    2    0    0 0.79380789E+02 -.42605678E+02 -.19693652E+03 0.37286208E+03 0.30352197E+03 0.0000E+00 0.0000E+00
       23  2    3    3    0    0 0.10805770E+03 0.79098543E+02 -.93413246E+02 0.18667239E+03 0.90484805E+02 0.0000E+00 0.0000E+00
      -24  1    1    2    0    0 -.79380789E+02 0.42605678E+02 0.21232453E+03 0.24426518E+03 0.80419002E+02 0.0000E+00 0.9000E+01
      -11  1    4    4    0    0 0.83540741E+02 0.89362228E+02 -.42974051E+02 0.12965891E+03 0.51099893E-03 0.0000E+00 0.9000E+01
       11  1    4    4    0    0 0.24516954E+02 -.10263685E+02 -.50439195E+02 0.57013478E+02 0.51099893E-03 0.0000E+00 0.9000E+01
       23  1    3    3    0    0 -.28676907E+02 -.12170422E+03 -.10352327E+03 0.18618969E+03 0.91188000E+02 0.0000E+00 0.9000E+01
#aMCatNLO 1  0  0  1  1 0.24198939D+03 0.00000000D+00  -5  7  0 0.00000000D+00 0.00000000D+00 0.00000000D+00 0.00000000D+00 0.00000000D+00
  <mgrwgt>
 0.9400097834D-03    5    2    0
 0.308467686631509D+03 0.000000000000000D+00 0.000000000000000D+00 0.308467686631509D+03
 0.308467686631509D+03 0.000000000000000D+00 0.000000000000000D+00 -.308467686631509D+03
 0.239045206448031D+03 -.793807885412186D+02 0.426056785083640D+02 0.206297943132809D+03
 0.130771121349652D+03 0.835407413188435D+02 0.893622275297918D+02 -.462214561633140D+02
 0.582892987232210D+02 0.245169541485604D+02 -.102636850993491D+02 -.518769512703250D+02
 0.188829746742114D+03 -.286769069261853D+02 -.121704220938807D+03 -.108199535699170D+03
 0.000000000000000D+00 0.000000000000000D+00 -.000000000000000D+00 0.000000000000000D+00
 0.545918292741964D+03 0.000000000000000D+00 0.000000000000000D+00 0.545918292741964D+03
 0.399577128558800D+03 0.000000000000000D+00 0.000000000000000D+00 -.399577128558800D+03
 0.286609382725823D+03 -.128124082819469D+03 0.129240474979586D+03 0.206297943132809D+03
 0.154952038882526D+03 0.570459891219738D+02 0.136453165844880D+03 -.462214561633140D+02
 0.543888611796707D+02 0.140684489514303D+02 0.830715904619715D+01 -.518769512703250D+02
 0.166747326273576D+03 -.616491253098246D+02 -.631004381791768D+02 -.108199535699170D+03
 0.282797812239168D+03 0.118658770055889D+03 -.210900361691486D+03 0.146341164183164D+03
0.235682788963D-04 0.000000000000D+00 0.000000000000D+00 0.111151301453D-06 0.000000000000D+00  7 -2 1 -24 -11 11 23 21 0 0.48655021D-01 0.46287634D-01 0.45034873D+05 0.45034873D+05 0.45034873D+05 0.11513122D+01  1  2  2  1  7  1       -2 0.932078553616D-03 0.100000000000D+01
-.108664454879D-05 0.000000000000D+00 -.905083966322D-07 0.111151301453D-06 0.000000000000D+00  7 -2 1 -24 -11 11 23 21 2 0.48655021D-01 0.46287634D-01 0.45034873D+05 0.45034873D+05 0.45034873D+05 0.11513122D+01  1  2  3  1  7  1       -2 -.569637191171D-04 0.100000000000D+01
0.146480887593D-05 0.000000000000D+00 0.000000000000D+00 0.111151301453D-06 0.000000000000D+00  7 -2 1 -24 -11 11 23 21 2 0.48655021D-01 0.46287634D-01 0.45034873D+05 0.45034873D+05 0.45034873D+05 0.11513122D+01  1  2 15  1  7  1       -2 0.767877236965D-04 0.100000000000D+01
-.303001078474D-05 0.000000000000D+00 -.704716951111D-05 0.111151301453D-06 0.000000000000D+00  7 -2 1 -24 -11 11 23 21 2 0.10560476D+00 0.46287634D-01 0.45034873D+05 0.45034873D+05 0.45034873D+05 0.11513122D+01  1  2  5  1  7  1       -2 -.300330899212D-04 0.100000000000D+01
0.188002278280D-06 0.000000000000D+00 -.591419990626D-06 0.111151301453D-06 0.000000000000D+00  7 21 1 -24 -11 11 23 2 2 0.10560476D+00 0.46287634D-01 0.45034873D+05 0.45034873D+05 0.45034873D+05 0.11513122D+01  1  2  5  3  7  1       -2 0.181403151687D-04 0.100000000000D+01
  </mgrwgt>
  </event>
  <event>
  8     66 0.26562228E-05 0.68098882E+03 0.75467711E-02 0.89993595E-01
       -2 -1    0    0    0  501 0.00000000E+00 0.00000000E+00 0.18409715E+03 0.18409743E+03 0.32000000E+00 0.0000E+00 0.9000E+01
        1 -1    0    0  501    0 0.00000000E+00 0.00000000E+00 -.36490585E+04 0.36490585E+04 0.32000000E+00 0.0000E+00 0.9000E+01
       25  2    1    2    0    0 0.60481073E+03 -.24261887E+03 -.28311098E+04 0.29205252E+04 0.29937351E+03 0.0000E+00 0.0000E+00
       23  2    3    3    0    0 0.45332956E+03 -.26679441E+03 -.22661115E+04 0.23280141E+04 0.87757647E+02 0.0000E+00 0.0000E+00
      -24  1    1    2    0    0 -.60481073E+03 0.24261887E+03 -.63385149E+03 0.91263073E+03 0.80419002E+02 0.0000E+00 0.9000E+01
      -11  1    4    4    0    0 0.88244027E+02 -.38084648E+02 -.29086297E+03 0.30633105E+03 0.51099893E-03 0.0000E+00 0.9000E+01
       11  1    4    4    0    0 0.36508554E+03 -.22870976E+03 -.19752486E+04 0.20216831E+04 0.51099893E-03 0.0000E+00 0.9000E+01
       23  1    3    3    0    0 0.15148117E+03 0.24175544E+02 -.56499832E+03 0.59251106E+03 0.91188000E+02 0.0000E+00 0.9000E+01
#aMCatNLO 1  0  0  1  1 0.16702411D+03 0.00000000D+00  -5  7  0 0.00000000D+00 0.00000000D+00 0.00000000D+00 0.00000000D+00 0.00000000D+00
  <mgrwgt>
 0.8512401280D-03    4    2    0
 0.819622978057670D+03 0.000000000000000D+00 0.000000000000000D+00 0.819622978057670D+03
 0.819622978057670D+03 0.000000000000000D+00 0.000000000000000D+00 -.819622978057670D+03
 0.794258486296841D+03 -.604810729629823D+03 0.242618867202362D+03 0.446899758002018D+03
 0.101501399458849D+03 0.882440270137525D+02 -.380846483897781D+02 -.326356453211508D+02
 0.552245738783398D+03 0.365085535892900D+03 -.228709762790757D+03 -.345513750653155D+03
 0.191240331576253D+03 0.151481166723171D+03 0.241755439781731D+02 -.687503620277126D+02
 0.000000000000000D+00 0.000000000000000D+00 -.000000000000000D+00 -.000000000000000D+00
 0.885786055264668D+03 0.000000000000000D+00 0.000000000000000D+00 0.885786055264668D+03
 0.936500893646181D+03 0.000000000000000D+00 0.000000000000000D+00 -.936500893646181D+03
 0.828608953907675D+03 -.612332071313641D+03 0.324739315882886D+03 0.446899758002018D+03
 0.973425487365004D+02 0.873224648213728D+02 -.280227333875577D+02 -.326356453211508D+02
 0.528505867252981D+03 0.360076684336109D+03 -.174021496453539D+03 -.345513750653155D+03
 0.193275726574974D+03 0.149699088541908D+03 0.436328517273913D+02 -.687503620277126D+02
 0.174553852438719D+03 0.152338336142512D+02 -.166327937769181D+03 -.507148383815132D+02
0.547385654879D-02 0.000000000000D+00 0.000000000000D+00 0.227844487429D-05 0.000000000000D+00  7 -2 1 -24 -11 11 23 21 0 0.28322661D-01 0.56139364D+00 0.46374578D+06 0.46374578D+06 0.46374578D+06 0.10708284D+01  1  2  2  1  7  1       -2 0.121295763590D-02 0.100000000000D+01
-.291407738676D-03 0.000000000000D+00 -.210210504469D-04 0.227844487429D-05 0.000000000000D+00  7 -2 1 -24 -11 11 23 21 2 0.28322661D-01 0.56139364D+00 0.46374578D+06 0.46374578D+06 0.46374578D+06 0.10708284D+01  1  2  3  1  7  1       -2 -.740445507277D-04 0.100000000000D+01
0.345566926684D-03 0.000000000000D+00 0.000000000000D+00 0.227844487429D-05 0.000000000000D+00  7 -2 1 -24 -11 11 23 21 2 0.28322661D-01 0.56139364D+00 0.46374578D+06 0.46374578D+06 0.46374578D+06 0.10708284D+01  1  2 15  1  7  1       -2 0.878059997616D-04 0.100000000000D+01
-.147772486551D-02 0.000000000000D+00 0.000000000000D+00 0.227844487429D-05 0.000000000000D+00  7 -2 1 -24 -11 11 23 21 2 0.28322661D-01 0.56139364D+00 0.46374578D+06 0.46374578D+06 0.46374578D+06 0.10708284D+01  1  2  4  1  7  1       -2 -.375478956953D-03 0.100000000000D+01
  </mgrwgt>
  </event>
  <event>
  8     66 0.26562228E-05 0.25911649E+03 0.75467711E-02 0.10181654E+00
       -2 -1    0    0    0  501 0.00000000E+00 0.00000000E+00 0.16085037E+03 0.16085069E+03 0.32000000E+00 0.0000E+00 0.9000E+01
        1 -1    0    0  501    0 0.00000000E+00 0.00000000E+00 -.71379277E+03 0.71379285E+03 0.32000000E+00 0.0000E+00 0.9000E+01
       25  2    1    2    0    0 0.16950869E+03 0.10844973E+01 -.58992490E+03 0.68341254E+03 0.30051115E+03 0.0000E+00 0.0000E+00
       23  2    3    3    0    0 0.73271834E+02 -.10897625E+03 -.37985617E+03 0.41171598E+03 0.89301477E+02 0.0000E+00 0.0000E+00
      -24  1    1    2    0    0 -.16950869E+03 -.10844973E+01 0.36982497E+02 0.19123100E+03 0.80419002E+02 0.0000E+00 0.9000E+01
      -11  1    4    4    0    0 -.20730193E+02 -.22165108E+02 -.60658456E+02 0.67826847E+02 0.51099893E-03 0.0000E+00 0.9000E+01
       11  1    4    4    0    0 0.94002026E+02 -.86811145E+02 -.31919771E+03 0.34388913E+03 0.51099893E-03 0.0000E+00 0.9000E+01
       23  1    3    3    0    0 0.96236857E+02 0.11006075E+03 -.21006873E+03 0.27169657E+03 0.91188000E+02 0.0000E+00 0.9000E+01
#aMCatNLO 1  0  0  1  1 0.33528024D+02 0.00000000D+00  -5  7  0 0.00000000D+00 0.00000000D+00 0.00000000D+00 0.00000000D+00 0.00000000D+00
  <mgrwgt>
 0.8751997543D-03    4    2    0
 0.338842154601482D+03 0.000000000000000D+00 0.000000000000000D+00 0.338842154601482D+03
 0.338842154601482D+03 0.000000000000000D+00 0.000000000000000D+00 -.338842154601482D+03
 0.276984640979365D+03 -.169508691098052D+03 -.108449732230776D+01 0.203761877916063D+03
 0.380467437692271D+02 -.207301925503339D+02 -.221651076695195D+02 -.229460635026121D+02
 0.183392851800919D+03 0.940020263200282D+02 -.868111447765054D+02 -.131378774092298D+03
 0.179260072653454D+03 0.962368573283573D+02 0.110060749768333D+03 -.494370403211529D+02
 0.000000000000000D+00 0.000000000000000D+00 0.000000000000000D+00 -.000000000000000D+00
 0.344221987970302D+03 0.000000000000000D+00 0.000000000000000D+00 0.344221987970302D+03
 0.395854765273888D+03 0.000000000000000D+00 0.000000000000000D+00 -.395854765273888D+03
 0.279352229459221D+03 -.172750466384981D+03 -.144508000248382D+02 0.203761877916063D+03
 0.394007259791477D+02 -.211814790042904D+02 -.240258262003366D+02 -.229460635026121D+02
 0.186694914847780D+03 0.918455246756722D+02 -.957027091835709D+02 -.131378774092298D+03
 0.173065321445538D+03 0.941838570397957D+02 0.101595936239790D+03 -.494370403211529D+02
 0.615635615125029D+02 0.790256367380372D+01 0.325833991689553D+02 -.516327773035862D+02
0.257966130213D-04 0.000000000000D+00 0.000000000000D+00 0.945094322637D-06 0.000000000000D+00  7 -2 1 -24 -11 11 23 21 0 0.24746242D-01 0.10981430D+00 0.67141356D+05 0.67141356D+05 0.67141356D+05 0.11362022D+01  1  2  2  1  7  1       -2 0.105151192266D-02 0.100000000000D+01
-.130775235054D-05 0.000000000000D+00 -.990657864062D-07 0.945094322637D-06 0.000000000000D+00  7 -2 1 -24 -11 11 23 21 2 0.24746242D-01 0.10981430D+00 0.67141356D+05 0.67141356D+05 0.67141356D+05 0.11362022D+01  1  2  3  1  7  1       -2 -.688158171681D-04 0.100000000000D+01
0.161646309919D-05 0.000000000000D+00 0.000000000000D+00 0.945094322637D-06 0.000000000000D+00  7 -2 1 -24 -11 11 23 21 2 0.24746242D-01 0.10981430D+00 0.67141356D+05 0.67141356D+05 0.67141356D+05 0.11362022D+01  1  2 15  1  7  1       -2 0.850606225614D-04 0.100000000000D+01
-.365928714344D-05 0.000000000000D+00 0.000000000000D+00 0.945094322637D-06 0.000000000000D+00  7 -2 1 -24 -11 11 23 21 2 0.24746242D-01 0.10981430D+00 0.67141356D+05 0.67141356D+05 0.67141356D+05 0.11362022D+01  1  2  4  1  7  1       -2 -.192556973746D-03 0.100000000000D+01
  </mgrwgt>
  </event>
  <event>
  8     66 0.26562228E-05 0.28176907E+03 0.75467711E-02 0.93742914E-01
       -2 -1    0    0    0  501 0.00000000E+00 0.00000000E+00 0.12933958E+03 0.12933998E+03 0.32000000E+00 0.0000E+00 0.9000E+01
        1 -1    0    0  501    0 0.00000000E+00 0.00000000E+00 -.14891670E+04 0.14891671E+04 0.32000000E+00 0.0000E+00 0.9000E+01
       25  2    1    2    0    0 -.36805981E+03 0.88441352E+02 -.86263021E+03 0.98845768E+03 0.29937904E+03 0.0000E+00 0.0000E+00
       23  2    3    3    0    0 -.13550914E+03 0.85308032E+02 -.59369605E+03 0.62140119E+03 0.89578203E+02 0.0000E+00 0.0000E+00
      -24  1    1    2    0    0 0.36805981E+03 -.88441352E+02 -.49719723E+03 0.63004936E+03 0.80419002E+02 0.0000E+00 0.9000E+01
      -11  1    4    4    0    0 -.95167452E+01 -.77848077E+01 -.69937552E+01 0.14145115E+02 0.51099893E-03 0.0000E+00 0.9000E+01
       11  1    4    4    0    0 -.12599239E+03 0.93092840E+02 -.58670229E+03 0.60725607E+03 0.51099893E-03 0.0000E+00 0.9000E+01
       23  1    3    3    0    0 -.23255067E+03 0.31333198E+01 -.26893417E+03 0.36705649E+03 0.91188000E+02 0.0000E+00 0.9000E+01
#aMCatNLO 1  0  0  2  1 0.24082042D+03 0.00000000D+00  -5  7  0 0.00000000D+00 0.00000000D+00 0.00000000D+00 0.00000000D+00 0.00000000D+00
  <mgrwgt>
 0.1404213678D-02    9    2    0
 0.438871954194805D+03 0.000000000000000D+00 0.000000000000000D+00 0.438871954194805D+03
 0.438871954194805D+03 0.000000000000000D+00 0.000000000000000D+00 -.438871954194805D+03
 0.391500168786653D+03 0.368059807830136D+03 -.884413518488696D+02 0.592897238043368D+02
 0.152478052025665D+02 -.951674518505721D+01 -.778480768529396D+01 0.901797615216919D+01
 0.210806765635089D+03 -.125992393220758D+03 0.930928397199779D+02 -.141064284923235D+03
 0.260189168765301D+03 -.232550669424321D+03 0.313331981418566D+01 0.727565849667293D+02
 0.000000000000000D+00 -.000000000000000D+00 -.000000000000000D+00 -.000000000000000D+00
 0.508175337776036D+03 0.000000000000000D+00 0.000000000000000D+00 0.508175337776036D+03
 0.728211110566026D+03 0.000000000000000D+00 0.000000000000000D+00 -.728211110566026D+03
 0.434703000772353D+03 0.422982958396075D+03 0.834436838997925D+01 0.592897238043368D+02
 0.126650166558313D+02 -.766119660556278D+01 -.451495510302209D+01 0.901797615216919D+01
 0.223750225597296D+03 -.971045361677808D+02 0.143999097322092D+03 -.141064284923235D+03
 0.239062420985244D+03 -.199362137542036D+03 0.616182379006030D+02 0.727565849667293D+02
 0.326205784331338D+03 -.118855088080695D+03 -.209446748509652D+03 -.220035772789990D+03
0.841009701621D-04 0.000000000000D+00 0.000000000000D+00 0.172080400368D-05 0.000000000000D+00  7 -2 1 -24 -11 11 23 21 0 0.19898431D-01 0.22910265D+00 0.16230551D+06 0.16230551D+06 0.16230551D+06 0.11048598D+01  1  2  2  2  7  2        1 0.128432855436D-02 0.100000000000D+01
-.463066067271D-05 0.000000000000D+00 -.322969869717D-06 0.172080400368D-05 0.000000000000D+00  7 -2 1 -24 -11 11 23 21 2 0.19898431D-01 0.22910265D+00 0.16230551D+06 0.16230551D+06 0.16230551D+06 0.11048598D+01  1  2  3  2  7  2        1 -.863241771782D-04 0.100000000000D+01
0.530660518918D-05 0.000000000000D+00 0.000000000000D+00 0.172080400368D-05 0.000000000000D+00  7 -2 1 -24 -11 11 23 21 2 0.19898431D-01 0.22910265D+00 0.16230551D+06 0.16230551D+06 0.16230551D+06 0.11048598D+01  1  2 15  2  7  2        1 0.989250474054D-04 0.100000000000D+01
0.234048126597D-04 0.000000000000D+00 0.000000000000D+00 0.172080400368D-05 0.000000000000D+00  7 -2 1 -24 -11 11 23 21 2 0.19898431D-01 0.38830338D+00 0.29254934D+06 0.29254934D+06 0.29254934D+06 0.10853609D+01  1  2 12  2  7  2        1 0.834204103554D-04 0.100000000000D+01
-.552760476775D-04 0.000000000000D+00 0.000000000000D+00 0.172080400368D-05 0.000000000000D+00  7 -2 1 -24 -11 11 23 21 2 0.19898431D-01 0.22910265D+00 0.16230551D+06 0.16230551D+06 0.16230551D+06 0.11048598D+01  1  2  4  2  7  2        1 -.103044892958D-02 0.100000000000D+01
-.611874698234D-04 0.000000000000D+00 -.250232175899D-04 0.172080400368D-05 0.000000000000D+00  7 -2 1 -24 -11 11 23 21 2 0.19898431D-01 0.39919483D+00 0.16230551D+06 0.16230551D+06 0.16230551D+06 0.11048598D+01  1  2  5  2  7  2        1 -.208096789422D-03 0.100000000000D+01
0.677791249215D-04 0.000000000000D+00 0.216058275140D-04 0.172080400368D-05 0.000000000000D+00  7 -2 1 -24 -11 11 23 21 2 0.19898431D-01 0.22910265D+00 0.16230551D+06 0.16230551D+06 0.16230551D+06 0.11048598D+01  1  2  6  2  7  2        1 0.126352967800D-02 0.100000000000D+01
0.137786125029D-05 0.000000000000D+00 0.000000000000D+00 0.172080400368D-05 0.000000000000D+00  7 -2 21 -24 -11 11 23 -1 2 0.19898431D-01 0.38830338D+00 0.29254934D+06 0.29254934D+06 0.29254934D+06 0.10853609D+01  1  2 12  4  7  2        1 0.163593264717D-05 0.100000000000D+01
-.249644295896D-05 0.000000000000D+00 -.153668318128D-05 0.172080400368D-05 0.000000000000D+00  7 -2 21 -24 -11 11 23 -1 2 0.19898431D-01 0.39919483D+00 0.16230551D+06 0.16230551D+06 0.16230551D+06 0.11048598D+01  1  2  5  4  7  2        1 -.275604823156D-05 0.100000000000D+01
  </mgrwgt>
  </event>
  <event>
  8     66 0.26562228E-05 0.22212266E+03 0.75467711E-02 0.99659287E-01
       -2 -1    0    0    0  501 0.00000000E+00 0.00000000E+00 0.95044927E+02 0.95045466E+02 0.32000000E+00 0.0000E+00 0.9000E+01
        1 -1    0    0  501    0 0.00000000E+00 0.00000000E+00 -.76131401E+03 0.76131407E+03 0.32000000E+00 0.0000E+00 0.9000E+01
       25  2    1    2    0    0 0.10447164E+03 0.56512691E+02 -.22631923E+03 0.39361653E+03 0.29934189E+03 0.0000E+00 0.0000E+00
       23  2    3    3    0    0 0.43841052E+02 0.14174198E+03 -.80503144E+02 0.19232648E+03 0.92173179E+02 0.0000E+00 0.0000E+00
      -24  1    1    2    0    0 -.10447164E+03 -.56512691E+02 -.43994985E+03 0.46274301E+03 0.80419002E+02 0.0000E+00 0.9000E+01
      -13  1    4    4    0    0 -.11944664E+02 0.70759028E+02 -.71987151E+02 0.10164485E+03 0.10565837E+00 0.0000E+00 0.9000E+01
       13  1    4    4    0    0 0.55785716E+02 0.70982947E+02 -.85159927E+01 0.90681631E+02 0.10565837E+00 0.0000E+00 0.9000E+01
       23  1    3    3    0    0 0.60630588E+02 -.85229285E+02 -.14581608E+03 0.20129004E+03 0.91188000E+02 0.0000E+00 0.9000E+01
#aMCatNLO 1  0  0  2  1 0.18237733D+03 0.00000000D+00  -5  7  0 0.00000000D+00 0.00000000D+00 0.00000000D+00 0.00000000D+00 0.00000000D+00
  <mgrwgt>
 0.1156401267D-02    3    2    0
 0.268996827992346D+03 0.000000000000000D+00 0.000000000000000D+00 0.268996827992346D+03
 0.268996827992346D+03 0.000000000000000D+00 0.000000000000000D+00 -.268996827992346D+03
 0.191729790528251D+03 -.104471640936536D+03 -.565126911850082D+02 -.127220629603425D+03
 0.726433903396656D+02 -.119447519101751D+02 0.707590274803948D+02 0.112935863158755D+02
 0.133797451634731D+03 0.557858040567669D+02 0.709829486215117D+02 0.987477753404298D+02
 0.139823023482043D+03 0.606305887899440D+02 -.852292849168983D+02 0.171792679471199D+02
 0.000000000000000D+00 -.000000000000000D+00 -.000000000000000D+00 0.000000000000000D+00
 0.832252542186505D+03 0.000000000000000D+00 0.000000000000000D+00 0.832252542186505D+03
 0.299200818842227D+03 0.000000000000000D+00 0.000000000000000D+00 -.299200818842227D+03
 0.163137119036822D+03 -.602541125358208D+02 -.181894744039646D+02 -.127220629603425D+03
 0.893541379905529D+02 0.824064750778195D+01 0.882536606199036D+02 0.112935863158755D+02
 0.171326840321891D+03 0.938052465059816D+02 0.103934300439993D+03 0.987477753404298D+02
 0.144247625277563D+03 0.960266813552725D+02 -.545515836150535D+02 0.171792679471199D+02
 0.563387638401902D+03 -.137818462833215D+03 -.119446903040879D+03 0.533051723344278D+03
0.130066021176D-04 0.000000000000D+00 0.000000000000D+00 0.628943159168D-06 0.000000000000D+00  7 -2 1 -24 -13 13 23 21 0 0.14622343D-01 0.11712528D+00 0.49338475D+05 0.49338475D+05 0.49338475D+05 0.11478045D+01  1  2  2  2  7  2        1 0.113813028768D-02 0.100000000000D+01
-.690380275371D-06 0.000000000000D+00 -.499487768487D-07 0.628943159168D-06 0.000000000000D+00  7 -2 1 -24 -13 13 23 21 2 0.14622343D-01 0.11712528D+00 0.49338475D+05 0.49338475D+05 0.49338475D+05 0.11478045D+01  1  2  3  2  7  2        1 -.795888739989D-04 0.100000000000D+01
0.848868804842D-06 0.000000000000D+00 0.000000000000D+00 0.628943159168D-06 0.000000000000D+00  7 -2 1 -24 -13 13 23 21 2 0.14622343D-01 0.11712528D+00 0.49338475D+05 0.49338475D+05 0.49338475D+05 0.11478045D+01  1  2 15  2  7  2        1 0.978598531278D-04 0.100000000000D+01
  </mgrwgt>
  </event>
  <event>
  8     66 0.26562228E-05 0.19046744E+03 0.75467711E-02 0.10378899E+00
       -2 -1    0    0    0  501 0.00000000E+00 0.00000000E+00 0.42951773E+03 0.42951785E+03 0.32000000E+00 0.0000E+00 0.9000E+01
        1 -1    0    0  501    0 0.00000000E+00 0.00000000E+00 -.16926667E+03 0.16926697E+03 0.32000000E+00 0.0000E+00 0.9000E+01
       25  2    1    2    0    0 0.69767078E+01 0.11102964E+03 0.31693435E+03 0.45027062E+03 0.29986664E+03 0.0000E+00 0.0000E+00
       23  2    3    3    0    0 0.75642516E+02 0.87459539E+02 0.29770939E+03 0.33213768E+03 0.91178910E+02 0.0000E+00 0.0000E+00
      -24  1    1    2    0    0 -.69767078E+01 -.11102964E+03 -.56683284E+02 0.14851420E+03 0.80419002E+02 0.0000E+00 0.9000E+01
      -11  1    4    4    0    0 0.70862098E+02 0.44059371E+02 0.26430084E+03 0.27715988E+03 0.51099893E-03 0.0000E+00 0.9000E+01
       11  1    4    4    0    0 0.47804179E+01 0.43400168E+02 0.33408555E+02 0.54977800E+02 0.51099893E-03 0.0000E+00 0.9000E+01
       23  1    3    3    0    0 -.68665808E+02 0.23570104E+02 0.19224955E+02 0.11813295E+03 0.91188000E+02 0.0000E+00 0.9000E+01
#aMCatNLO 1  0  0  2  1 0.80515675D+02 0.00000000D+00  -5  7  0 0.00000000D+00 0.00000000D+00 0.00000000D+00 0.00000000D+00 0.00000000D+00
  <mgrwgt>
 0.1527494525D-02    3    2    0
 0.269635238188021D+03 0.000000000000000D+00 0.000000000000000D+00 0.269635238188021D+03
 0.269635238188021D+03 0.000000000000000D+00 0.000000000000000D+00 -.269635238188021D+03
 0.192259610236539D+03 -.697670784685658D+01 -.111029642784087D+03 -.134611610735452D+03
 0.180196317441251D+03 0.708620982873272D+02 0.440593711706687D+02 0.159712390432773D+03
 0.449222817227360D+02 0.478041786514324D+01 0.434001678279119D+02 0.105633532895837D+02
 0.121892266975516D+03 -.686658083056139D+02 0.235701037855063D+02 -.356641329869049D+02
 0.000000000000000D+00 -.000000000000000D+00 0.000000000000000D+00 0.000000000000000D+00
 0.743446647853194D+03 0.000000000000000D+00 0.000000000000000D+00 0.743446647853194D+03
 0.276066277038600D+03 0.000000000000000D+00 0.000000000000000D+00 -.276066277038600D+03
 0.197437779713448D+03 0.210749838623314D+02 -.118110203683743D+03 -.134611610735452D+03
 0.190842083950280D+03 0.975706550201320D+02 0.373178325693945D+02 0.159712390432773D+03
 0.445264093355316D+02 0.112192269772057D+02 0.417749403545798D+02 0.105633532895837D+02
 0.112441762874084D+03 -.517976790036540D+02 0.193123991870106D+02 -.356641329869049D+02
 0.474264889018451D+03 -.780671868560151D+02 0.197050315727577D+02 0.467380370814595D+03
0.333946575773D-04 0.000000000000D+00 0.000000000000D+00 0.346137487293D-05 0.000000000000D+00  7 -2 1 -24 -11 11 23 21 0 0.66079683D-01 0.26041058D-01 0.36277845D+05 0.36277845D+05 0.36277845D+05 0.11597561D+01  1  2  2  2  7  2        1 0.149975498648D-02 0.100000000000D+01
-.158272670043D-05 0.000000000000D+00 -.128244278112D-06 0.346137487293D-05 0.000000000000D+00  7 -2 1 -24 -11 11 23 21 2 0.66079683D-01 0.26041058D-01 0.36277845D+05 0.36277845D+05 0.36277845D+05 0.11597561D+01  1  2  3  2  7  2        1 -.956054367182D-04 0.100000000000D+01
0.204194858189D-05 0.000000000000D+00 0.000000000000D+00 0.346137487293D-05 0.000000000000D+00  7 -2 1 -24 -11 11 23 21 2 0.66079683D-01 0.26041058D-01 0.36277845D+05 0.36277845D+05 0.36277845D+05 0.11597561D+01  1  2 15  2  7  2        1 0.123344975399D-03 0.100000000000D+01
  </mgrwgt>
  </event>
  <event>
  8     66 0.26562228E-05 0.25997107E+03 0.75467711E-02 0.98366589E-01
       -2 -1    0    0    0  501 0.00000000E+00 0.00000000E+00 0.18856956E+03 0.18856984E+03 0.32000000E+00 0.0000E+00 0.9000E+01
        1 -1    0    0  501    0 0.00000000E+00 0.00000000E+00 -.83298760E+03 0.83298766E+03 0.32000000E+00 0.0000E+00 0.9000E+01
       25  2    1    2    0    0 0.11401657E+02 -.21011301E+03 -.69909909E+03 0.78975001E+03 0.30114459E+03 0.0000E+00 0.0000E+00
       23  2    3    3    0    0 0.59354987E+02 -.14351327E+03 -.17593666E+03 0.25239610E+03 0.92903213E+02 0.0000E+00 0.0000E+00
      -24  1    1    2    0    0 -.11401657E+02 0.21011301E+03 0.54681060E+02 0.23180748E+03 0.80419002E+02 0.0000E+00 0.9000E+01
      -11  1    4    4    0    0 0.23659381E+02 -.13256508E+03 -.16601762E+03 0.21376416E+03 0.51099893E-03 0.0000E+00 0.9000E+01
       11  1    4    4    0    0 0.35695606E+02 -.10948192E+02 -.99190462E+01 0.38631938E+02 0.51099893E-03 0.0000E+00 0.9000E+01
       23  1    3    3    0    0 -.47953330E+02 -.66599739E+02 -.52316243E+03 0.53735391E+03 0.91188000E+02 0.0000E+00 0.9000E+01
#aMCatNLO 1  0  0  2  2 0.17459982D+03 0.00000000D+00  -5  7  0 0.00000000D+00 0.00000000D+00 0.00000000D+00 0.00000000D+00 0.00000000D+00
  <mgrwgt>
 0.1154147818D-02    4    2    0
 0.396328497722913D+03 0.000000000000000D+00 0.000000000000000D+00 0.396328497722913D+03
 0.396328497722913D+03 0.000000000000000D+00 0.000000000000000D+00 -.396328497722913D+03
 0.343202842045022D+03 -.114016568555964D+02 0.210113012125690D+03 0.258927594492797D+03
 0.140524380964440D+03 0.236593811262055D+02 -.132565081134470D+03 -.401725602118578D+02
 0.417238906583683D+02 0.356956057949131D+02 -.109481918673945D+02 0.186237448822829D+02
 0.267205881777996D+03 -.479533300655222D+02 -.665997391238256D+02 -.237378779163222D+03
 0.000000000000000D+00 0.000000000000000D+00 -.000000000000000D+00 0.000000000000000D+00
 0.605025935989084D+03 0.000000000000000D+00 0.000000000000000D+00 0.605025935989084D+03
 0.444089546651501D+03 0.000000000000000D+00 0.000000000000000D+00 -.444089546651501D+03
 0.395940661055459D+03 -.379923722373530D+02 0.286032990378059D+03 0.258927594492797D+03
 0.114611548632602D+03 0.144808564430865D+02 -.106359189930455D+03 -.401725602118578D+02
 0.378490179340853D+02 0.328329674092615D+02 -.277498400657184D+01 0.186237448822829D+02
 0.263257696067487D+03 -.670367772712538D+02 -.121139956588947D+02 -.237378779163222D+03
 0.237456558950952D+03 0.577153256562589D+02 -.164784820782138D+03 0.160936389337582D+03
0.544884708485D-04 0.000000000000D+00 0.000000000000D+00 0.516224311627D-06 0.000000000000D+00  7 -2 1 -24 -11 11 23 21 0 0.29010728D-01 0.12815196D+00 0.67584956D+05 0.67584956D+05 0.67584956D+05 0.11359581D+01  1  2  2  2  7  2        1 0.133225079398D-02 0.100000000000D+01
-.237270406676D-05 0.000000000000D+00 -.209250075202D-06 0.516224311627D-06 0.000000000000D+00  7 -2 1 -24 -11 11 23 21 2 0.29010728D-01 0.12815196D+00 0.67584956D+05 0.67584956D+05 0.67584956D+05 0.11359581D+01  1  2  3  2  7  2        1 -.748599608019D-04 0.100000000000D+01
0.338675279513D-05 0.000000000000D+00 0.000000000000D+00 0.516224311627D-06 0.000000000000D+00  7 -2 1 -24 -11 11 23 21 2 0.29010728D-01 0.12815196D+00 0.67584956D+05 0.67584956D+05 0.67584956D+05 0.11359581D+01  1  2 15  2  7  2        1 0.106853688600D-03 0.100000000000D+01
-.665906443664D-05 0.000000000000D+00 0.000000000000D+00 0.516224311627D-06 0.000000000000D+00  7 -2 1 -24 -11 11 23 21 2 0.29010728D-01 0.12815196D+00 0.67584956D+05 0.67584956D+05 0.67584956D+05 0.11359581D+01  1  2  4  2  7  2        1 -.210096703456D-03 0.100000000000D+01
  </mgrwgt>
  </event>
  <event>
  7     66 0.26562228E-05 0.42046440E+03 0.75467711E-02 0.90980018E-01
       -2 -1    0    0    0  501 0.00000000E+00 0.00000000E+00 0.61039947E+03 0.61039956E+03 0.32000000E+00 0.0000E+00 0.9000E+01
        1 -1    0    0  501    0 0.00000000E+00 0.00000000E+00 -.63801027E+03 0.63801035E+03 0.32000000E+00 0.0000E+00 0.9000E+01
       23  2    1    2    0    0 -.17887501E+02 0.95729350E+02 0.23733567E+02 0.13601387E+03 0.91937043E+02 0.0000E+00 0.0000E+00
      -24  1    1    2    0    0 -.18314369E+03 -.33244523E+03 -.45307737E+03 0.59649624E+03 0.80419002E+02 0.0000E+00 0.9000E+01
      -13  1    3    3    0    0 -.50579158E+02 0.39263455E+02 -.60012355E+01 0.64310933E+02 0.10565837E+00 0.0000E+00 0.9000E+01
       13  1    3    3    0    0 0.32691657E+02 0.56465895E+02 0.29734802E+02 0.71702938E+02 0.10565837E+00 0.0000E+00 0.9000E+01
       23  1    1    2    0    0 0.20103119E+03 0.23671588E+03 0.40173301E+03 0.51589980E+03 0.91188000E+02 0.0000E+00 0.9000E+01
#aMCatNLO 1  0  0  2  2 0.48747154D+03 0.00000000D+00  -5  7  0 0.00000000D+00 0.00000000D+00 0.00000000D+00 0.00000000D+00 0.00000000D+00
  <mgrwgt>
 0.1938596828D-02    3    2    0
 0.624052271450640D+03 0.000000000000000D+00 0.000000000000000D+00 0.624052271450640D+03
 0.624052271450640D+03 0.000000000000000D+00 0.000000000000000D+00 -.624052271450640D+03
 0.586619130361248D+03 -.183143689264201D+03 -.332445233720624D+03 -.439992436083343D+03
 0.641938859809800D+02 -.505792584800804D+02 0.392634285884113D+02 -.458004196782121D+01
 0.723783061488480D+02 0.326917748773359D+02 0.564659241888774D+02 0.313283651319682D+02
 0.524913220410204D+03 0.201031172866945D+03 0.236715880943335D+03 0.413244112919196D+03
 0.000000000000000D+00 -.000000000000000D+00 -.000000000000000D+00 0.000000000000000D+00
 0.120253364468110D+04 0.000000000000000D+00 0.000000000000000D+00 0.120253364468110D+04
 0.781509023989931D+03 0.000000000000000D+00 0.000000000000000D+00 -.781509023989931D+03
 0.482184319370414D+03 -.102952600099864D+03 -.147790122181634D+03 -.439992436083343D+03
 0.751133746678951D+02 -.401271955093460D+02 0.633312754500279D+02 -.458004196782121D+01
 0.103017699209747D+03 0.458515347081176D+02 0.867687539010345D+02 0.313283651319682D+02
 0.679607536295433D+03 0.291404974921502D+03 0.444818609968349D+03 0.413244112919196D+03
 0.644119739127545D+03 -.194176714020410D+03 -.447128517137777D+03 0.421024620691171D+03
0.559726418412D-03 0.000000000000D+00 0.000000000000D+00 0.315891262464D-07 0.000000000000D+00  7 -2 1 -24 -13 13 23 21 0 0.93907624D-01 0.98155439D-01 0.17679032D+06 0.17679032D+06 0.17679032D+06 0.11019637D+01  1  2  2  2  7  2        1 0.190135893949D-02 0.100000000000D+01
-.252006576749D-04 0.000000000000D+00 -.214949682605D-05 0.315891262464D-07 0.000000000000D+00  7 -2 1 -24 -13 13 23 21 2 0.93907624D-01 0.98155439D-01 0.17679032D+06 0.17679032D+06 0.17679032D+06 0.11019637D+01  1  2  3  2  7  2        1 -.103952451126D-03 0.100000000000D+01
0.342280473723D-04 0.000000000000D+00 0.000000000000D+00 0.315891262464D-07 0.000000000000D+00  7 -2 1 -24 -13 13 23 21 2 0.93907624D-01 0.98155439D-01 0.17679032D+06 0.17679032D+06 0.17679032D+06 0.11019637D+01  1  2 15  2  7  2        1 0.141190339851D-03 0.100000000000D+01
  </mgrwgt>
  </event>
  <event>
  8     66 0.26562228E-05 0.20851407E+03 0.75467711E-02 0.10092189E+00
       -2 -1    0    0    0  501 0.00000000E+00 0.00000000E+00 0.30182177E+02 0.30183874E+02 0.32000000E+00 0.0000E+00 0.9000E+01
        1 -1    0    0  501    0 0.00000000E+00 0.00000000E+00 -.23700958E+04 0.23700958E+04 0.32000000E+00 0.0000E+00 0.9000E+01
       25  2    1    2    0    0 -.41317363E+02 -.11422149E+03 -.97109007E+03 0.10237265E+04 0.30041017E+03 0.0000E+00 0.0000E+00
       23  2    3    3    0    0 -.10120157E+03 0.14730758E+02 -.26379621E+03 0.29654378E+03 0.88831410E+02 0.0000E+00 0.0000E+00
      -24  1    1    2    0    0 0.41317363E+02 0.11422149E+03 -.13688236E+04 0.13765532E+04 0.80419002E+02 0.0000E+00 0.9000E+01
      -11  1    4    4    0    0 -.61310980E+02 0.11898111E+02 -.24410451E+03 0.25196749E+03 0.51099893E-03 0.0000E+00 0.9000E+01
       11  1    4    4    0    0 -.39890585E+02 0.28326471E+01 -.19691696E+02 0.44576290E+02 0.51099893E-03 0.0000E+00 0.9000E+01
       23  1    3    3    0    0 0.59884203E+02 -.12895225E+03 -.70729386E+03 0.72718268E+03 0.91188000E+02 0.0000E+00 0.9000E+01
#aMCatNLO 1  0  0  2  1 0.15732441D+03 0.00000000D+00  -5  7  0 0.00000000D+00 0.00000000D+00 0.00000000D+00 0.00000000D+00 0.00000000D+00
  <mgrwgt>
 0.7471109081D-03    4    2    0
 0.267463480628552D+03 0.000000000000000D+00 0.000000000000000D+00 0.267463480628552D+03
 0.267463480628552D+03 0.000000000000000D+00 0.000000000000000D+00 -.267463480628552D+03
 0.189154609029484D+03 0.413173625081088D+02 0.114221487677009D+03 -.120658930340654D+03
 0.628290779704796D+02 -.613109797022464D+02 0.118981106295430D+02 0.684775656828533D+01
 0.113882265855842D+03 -.398905853813967D+02 0.283264707145149D+01 0.106629675911346D+03
 0.169061008401299D+03 0.598842025755342D+02 -.128952245378003D+03 0.718149786102184D+01
 0.000000000000000D+00 -.000000000000000D+00 -.000000000000000D+00 0.000000000000000D+00
 0.367499673713484D+03 0.000000000000000D+00 0.000000000000000D+00 0.367499673713484D+03
 0.348544635967267D+03 0.000000000000000D+00 0.000000000000000D+00 -.348544635967267D+03
 0.225973792351014D+03 0.909576729140198D+02 0.147529872033579D+03 -.120658930340654D+03
 0.524663457951889D+02 -.475241595158266D+02 0.211489936733669D+02 0.684775656828533D+01
 0.109427472384388D+03 -.131876070112242D+02 0.207502035844137D+02 0.106629675911346D+03
 0.169714513267026D+03 0.100394372435307D+03 -.101770136785092D+03 0.718149786102184D+01
 0.158462185883135D+03 -.130640278822276D+03 -.876589325062678D+02 0.189550377462176D+02
0.275010395610D-04 0.000000000000D+00 0.000000000000D+00 0.330335206091D-06 0.000000000000D+00  7 -2 1 -24 -11 11 23 21 0 0.46435440D-02 0.36463026D+00 0.43478119D+05 0.43478119D+05 0.43478119D+05 0.11526730D+01  1  2  2  2  7  2        1 0.108506366266D-02 0.100000000000D+01
-.141268264940D-05 0.000000000000D+00 -.105611233104D-06 0.330335206091D-06 0.000000000000D+00  7 -2 1 -24 -11 11 23 21 2 0.46435440D-02 0.36463026D+00 0.43478119D+05 0.43478119D+05 0.43478119D+05 0.11526730D+01  1  2  3  2  7  2        1 -.740564681021D-04 0.100000000000D+01
0.176285586069D-05 0.000000000000D+00 0.000000000000D+00 0.330335206091D-06 0.000000000000D+00  7 -2 1 -24 -11 11 23 21 2 0.46435440D-02 0.36463026D+00 0.43478119D+05 0.43478119D+05 0.43478119D+05 0.11526730D+01  1  2 15  2  7  2        1 0.924134510120D-04 0.100000000000D+01
-.679687536937D-05 0.000000000000D+00 0.000000000000D+00 0.330335206091D-06 0.000000000000D+00  7 -2 1 -24 -11 11 23 21 2 0.46435440D-02 0.36463026D+00 0.43478119D+05 0.43478119D+05 0.43478119D+05 0.11526730D+01  1  2  4  2  7  2        1 -.356309737504D-03 0.100000000000D+01
  </mgrwgt>
  </event>
  <event>
  8     66 0.26562228E-05 0.21324075E+03 0.75467711E-02 0.85326262E-01
       -2 -1    0    0    0  501 0.00000000E+00 0.00000000E+00 0.20586323E+03 0.20586348E+03 0.32000000E+00 0.0000E+00 0.9000E+01
        1 -1    0    0  501    0 0.00000000E+00 0.00000000E+00 -.80603633E+03 0.80603639E+03 0.32000000E+00 0.0000E+00 0.9000E+01
       25  2    1    2    0    0 0.12245078E+03 0.11826920E+03 0.37847249E+02 0.34667887E+03 0.29961980E+03 0.0000E+00 0.0000E+00
       23  2    3    3    0    0 0.66706998E+02 0.92865105E+02 -.95041634E+02 0.17426239E+03 0.90888480E+02 0.0000E+00 0.0000E+00
      -24  1    1    2    0    0 -.12245078E+03 -.11826920E+03 -.63802034E+03 0.66522100E+03 0.80419002E+02 0.0000E+00 0.9000E+01
      -13  1    4    4    0    0 0.37680263E+01 -.83493192E+01 0.11288780E+02 0.14538118E+02 0.10565837E+00 0.0000E+00 0.9000E+01
       13  1    4    4    0    0 0.62938971E+02 0.10121442E+03 -.10633041E+03 0.15972427E+03 0.10565837E+00 0.0000E+00 0.9000E+01
       23  1    3    3    0    0 0.55743787E+02 0.25404098E+02 0.13288888E+03 0.17241649E+03 0.91188000E+02 0.0000E+00 0.9000E+01
#aMCatNLO 1  0  0  1  1 0.12036468D+04 0.00000000D+00  -5  7  0 0.00000000D+00 0.00000000D+00 0.00000000D+00 0.00000000D+00 0.00000000D+00
  <mgrwgt>
 0.2233484103D-02    3    2    0
 0.407349235349203D+03 0.000000000000000D+00 0.000000000000000D+00 0.407349235349203D+03
 0.407349235349203D+03 0.000000000000000D+00 0.000000000000000D+00 -.407349235349203D+03
 0.356223074315067D+03 -.122450784756830D+03 -.118269203073751D+03 -.302400171357167D+03
 0.263732400571670D+02 0.376794631305959D+01 -.834946717576855D+01 0.247312913042490D+02
 0.120054742530226D+03 0.629390512312367D+02 0.101214571888197D+03 -.144023425733292D+02
 0.312047413795946D+03 0.557437872125333D+02 0.254040983613219D+02 0.292071222626247D+03
 0.000000000000000D+00 0.000000000000000D+00 -.000000000000000D+00 -.000000000000000D+00
 0.899994537593912D+03 0.000000000000000D+00 0.000000000000000D+00 0.899994537593912D+03
 0.281702008784429D+04 0.000000000000000D+00 0.000000000000000D+00 -.281702008784429D+04
 0.742620523224170D+03 -.667609301752397D+03 0.887129197817456D+02 -.302400171357167D+03
 0.374676959434285D+02 -.279048322985943D+02 0.367584060058523D+01 0.247312913042490D+02
 0.180326565619270D+03 -.860861866194308D+02 0.157795472906437D+03 -.144023425733292D+02
 0.493029101285177D+03 -.343670942975138D+03 0.177051199482686D+03 0.292071222626247D+03
 0.226357073936616D+04 0.112527126364556D+04 -.427235432771453D+03 -.191702555025038D+04
0.960405250149D-04 0.000000000000D+00 0.000000000000D+00 0.985051152678D-05 0.000000000000D+00  7 -2 1 -24 -13 13 23 21 0 0.31671290D-01 0.12400561D+00 0.45471620D+05 0.45471620D+05 0.45471620D+05 0.11509397D+01  1  2  2  1  7  1       -2 0.213758571096D-02 0.100000000000D+01
-.261785430597D-05 0.000000000000D+00 -.368820904108D-06 0.985051152678D-05 0.000000000000D+00  7 -2 1 -24 -13 13 23 21 2 0.31671290D-01 0.12400561D+00 0.45471620D+05 0.45471620D+05 0.45471620D+05 0.11509397D+01  1  2  3  1  7  1       -2 -.771826361188D-04 0.100000000000D+01
0.587050324890D-05 0.000000000000D+00 0.000000000000D+00 0.985051152678D-05 0.000000000000D+00  7 -2 1 -24 -13 13 23 21 2 0.31671290D-01 0.12400561D+00 0.45471620D+05 0.45471620D+05 0.45471620D+05 0.11509397D+01  1  2 15  1  7  1       -2 0.173081028635D-03 0.100000000000D+01
  </mgrwgt>
  </event>
  <event>
  9     66 0.26562228E-05 0.64857597E+03 0.75467711E-02 0.89008775E-01
       -2 -1    0    0    0  501 0.00000000E+00 0.00000000E+00 0.45530458E+03 0.45530470E+03 0.32000000E+00 0.0000E+00 0.9000E+01
        1 -1    0    0  502    0 0.00000000E+00 0.00000000E+00 -.37490651E+04 0.37490652E+04 0.32000000E+00 0.0000E+00 0.9000E+01
       25  2    1    2    0    0 0.38253639E+03 0.26512952E+03 0.13421008E+03 0.56992365E+03 0.30028797E+03 0.0000E+00 0.0000E+00
       23  2    3    3    0    0 0.22340401E+03 0.13172443E+03 0.19837718E+03 0.33422744E+03 0.71370839E+02 0.0000E+00 0.0000E+00
      -24  1    1    2    0    0 -.75537524E+03 -.33024521E+03 -.24118658E+04 0.25501407E+04 0.80419002E+02 0.0000E+00 0.9000E+01
      -13  1    4    4    0    0 0.99368176E+02 0.72588082E+02 0.52398524E+02 0.13374857E+03 0.10565837E+00 0.0000E+00 0.9000E+01
       13  1    4    4    0    0 0.12403583E+03 0.59136350E+02 0.14597866E+03 0.20047887E+03 0.10565837E+00 0.0000E+00 0.9000E+01
       23  1    3    3    0    0 0.15913238E+03 0.13340509E+03 -.64167108E+02 0.23569621E+03 0.91188000E+02 0.0000E+00 0.9000E+01
       21  1    1    2  502  501 0.37283885E+03 0.65115685E+02 -.10161049E+04 0.10843055E+04 0.75000000E+00 0.0000E+00 0.9000E+01
#aMCatNLO 2  0  0  2  1 0.37848231D+03 0.00000000D+00  -5  7  0 0.00000000D+00 0.00000000D+00 0.00000000D+00 0.00000000D+00 0.00000000D+00
  <mgrwgt>
 0.1565731496D-03    2    2    0
 0.104926604677345D+04 0.000000000000000D+00 0.000000000000000D+00 0.104926604677345D+04
 0.104926604677345D+04 0.000000000000000D+00 0.000000000000000D+00 -.104926604677345D+04
 0.102932218954231D+04 -.562875490239805D+03 -.296625447652675D+03 -.805122028155959D+03
 0.275632639275076D+03 0.145834886806121D+03 0.807034545329258D+02 0.219527879893289D+03
 0.480380125796467D+03 0.205957961666169D+03 0.734438744272245D+02 0.427729330997611D+03
 0.313197138933044D+03 0.211082641767515D+03 0.142478118692524D+03 0.157864817265058D+03
 0.000000000000000D+00 0.000000000000000D+00 0.000000000000000D+00 -.000000000000000D+00
 0.115251280495930D+04 0.000000000000000D+00 0.000000000000000D+00 0.115251280495930D+04
 0.148108204030113D+04 0.000000000000000D+00 0.000000000000000D+00 -.148108204030113D+04
 0.115513737276759D+04 -.755375241568156D+03 -.330245209221749D+03 -.805122028155959D+03
 0.251665546944576D+03 0.993681215363438D+02 0.725881112222150D+02 0.219527879893289D+03
 0.449259820529623D+03 0.124035887401063D+03 0.591363203393288D+02 0.427729330997611D+03
 0.276326954101055D+03 0.159132382184254D+03 0.133405092215407D+03 0.157864817265058D+03
 0.501205150917593D+03 0.372838850446495D+03 0.651156854447982D+02 -.328569235341834D+03
-.347966452563D-02 0.000000000000D+00 0.000000000000D+00 0.215946642153D-06 0.000000000000D+00  7 -2 1 -24 -13 13 23 21 2 0.63771772D-01 0.59042909D+00 0.71746734D+06 0.71746734D+06 0.71746734D+06 0.10575998D+01  1  2 13  2  7  2        1 -.118485417327D-03 0.100000000000D+01
0.824739350141D-02 0.000000000000D+00 0.000000000000D+00 0.215946642153D-06 0.929519690811D-11  7 -2 1 -24 -13 13 23 21 2 0.70046852D-01 0.57677913D+00 0.71746734D+06 0.71746734D+06 0.71746734D+06 0.10575998D+01  1  2  1  2  7  2        1 0.275058566961D-03 0.100000000000D+01
  </mgrwgt>
  </event>
  <event>
  8     66 0.26562228E-05 0.21869527E+03 0.75467711E-02 0.10337015E+00
       -2 -1    0    0    0  501 0.00000000E+00 0.00000000E+00 0.23529261E+03 0.23529283E+03 0.32000000E+00 0.0000E+00 0.9000E+01
        1 -1    0    0  501    0 0.00000000E+00 0.00000000E+00 -.23900594E+03 0.23900615E+03 0.32000000E+00 0.0000E+00 0.9000E+01
       25  2    1    2    0    0 0.18259442E+02 0.12004454E+03 0.22730354E+02 0.32627674E+03 0.30198632E+03 0.0000E+00 0.0000E+00
       23  2    3    3    0    0 -.54184571E+02 -.24245726E+02 0.74555371E+02 0.13374388E+03 0.93835487E+02 0.0000E+00 0.0000E+00
      -24  1    1    2    0    0 -.18259442E+02 -.12004454E+03 -.26443683E+02 0.14802224E+03 0.80419002E+02 0.0000E+00 0.9000E+01
      -11  1    4    4    0    0 -.64605323E+02 0.14489561E+02 0.26931604E+02 0.71478014E+02 0.51099893E-03 0.0000E+00 0.9000E+01
       11  1    4    4    0    0 0.10420753E+02 -.38735288E+02 0.47623768E+02 0.62265864E+02 0.51099893E-03 0.0000E+00 0.9000E+01
       23  1    3    3    0    0 0.72444013E+02 0.14429027E+03 -.51825017E+02 0.19253286E+03 0.91188000E+02 0.0000E+00 0.9000E+01
#aMCatNLO 1  0  0  2  1 0.55760676D+02 0.00000000D+00  -5  7  0 0.00000000D+00 0.00000000D+00 0.00000000D+00 0.00000000D+00 0.00000000D+00
  <mgrwgt>
 0.3302532607D-03    4    2    0
 0.237142220634403D+03 0.000000000000000D+00 0.000000000000000D+00 0.237142220634403D+03
 0.237142220634403D+03 0.000000000000000D+00 0.000000000000000D+00 -.237142220634403D+03
 0.147819743101615D+03 -.182594420669314D+02 -.120044544916449D+03 -.252855790415007D+02
 0.716910608684585D+02 -.646053231774699D+02 0.144895614873360D+02 0.274920540062834D+02
 0.626406346290398D+02 0.104207526693921D+02 -.387352875829232D+02 0.481127271769170D+02
 0.192133002669693D+03 0.724440125750092D+02 0.144290271012037D+03 -.503192021416997D+02
 0.000000000000000D+00 0.000000000000000D+00 -.000000000000000D+00 0.000000000000000D+00
 0.279568148683966D+03 0.000000000000000D+00 0.000000000000000D+00 0.279568148683966D+03
 0.257830749448633D+03 0.000000000000000D+00 0.000000000000000D+00 -.257830749448633D+03
 0.135022957749424D+03 -.199768480438622D+02 -.103564222585798D+03 -.252855790415007D+02
 0.746664217065218D+02 -.654939981002680D+02 0.230173349850464D+02 0.274920540062834D+02
 0.584155787801974D+02 0.968570571987537D+01 -.316817365769773D+02 0.481127271769170D+02
 0.209446069689144D+03 0.700056456063576D+02 0.167688974721923D+03 -.503192021416997D+02
 0.598478702073118D+02 0.577949481789726D+01 -.554603505441940D+02 0.217373992353330D+02
0.703565518974D-05 0.000000000000D+00 0.000000000000D+00 0.153704976637D-07 0.000000000000D+00  7 -2 1 -24 -11 11 23 21 0 0.36198896D-01 0.36770177D-01 0.47827619D+05 0.47827619D+05 0.47827619D+05 0.11489961D+01  1  2  2  2  7  2        1 0.649901989803D-03 0.100000000000D+01
-.387753159491D-06 0.000000000000D+00 -.270187684592D-07 0.153704976637D-07 0.000000000000D+00  7 -2 1 -24 -11 11 23 21 2 0.36198896D-01 0.36770177D-01 0.47827619D+05 0.47827619D+05 0.47827619D+05 0.11489961D+01  1  2  3  2  7  2        1 -.472863489235D-04 0.100000000000D+01
0.457545566087D-06 0.000000000000D+00 0.000000000000D+00 0.153704976637D-07 0.000000000000D+00  7 -2 1 -24 -11 11 23 21 2 0.36198896D-01 0.36770177D-01 0.47827619D+05 0.47827619D+05 0.47827619D+05 0.11489961D+01  1  2 15  2  7  2        1 0.557975061113D-04 0.100000000000D+01
-.269094644952D-05 0.000000000000D+00 0.000000000000D+00 0.153704976637D-07 0.000000000000D+00  7 -2 1 -24 -11 11 23 21 2 0.36198896D-01 0.36770177D-01 0.47827619D+05 0.47827619D+05 0.47827619D+05 0.11489961D+01  1  2  4  2  7  2        1 -.328159886339D-03 0.100000000000D+01
  </mgrwgt>
  </event>
  <event>
  9     66 0.26562228E-05 0.18309348E+03 0.75467711E-02 0.10561831E+00
       21 -1    0    0  502  501 0.00000000E+00 0.00000000E+00 0.17122701E+03 0.17122865E+03 0.75000000E+00 0.0000E+00 0.9000E+01
        1 -1    0    0  501    0 0.00000000E+00 0.00000000E+00 -.58438408E+03 0.58438417E+03 0.32000000E+00 0.0000E+00 0.9000E+01
       25  2    1    2    0    0 0.55263409E+02 -.31175078E+02 0.13852662E+02 0.30714495E+03 0.30020026E+03 0.0000E+00 0.0000E+00
       23  2    3    3    0    0 0.42004894E+02 0.91873031E+02 -.48788188E+02 0.14114570E+03 0.85654862E+02 0.0000E+00 0.0000E+00
      -24  1    1    2    0    0 -.24076979E+02 -.77572415E+01 -.22177525E+03 0.23725799E+03 0.80419002E+02 0.0000E+00 0.9000E+01
      -13  1    4    4    0    0 0.71246947E+01 0.96930418E+02 -.35097138E+02 0.10333483E+03 0.10565837E+00 0.0000E+00 0.9000E+01
       13  1    4    4    0    0 0.34880199E+02 -.50573872E+01 -.13691050E+02 0.37810864E+02 0.10565837E+00 0.0000E+00 0.9000E+01
       23  1    3    3    0    0 0.13258515E+02 -.12304811E+03 0.62640850E+02 0.16599926E+03 0.91188000E+02 0.0000E+00 0.9000E+01
        2  1    1    2  502    0 -.31186430E+02 0.38932320E+02 -.20523449E+03 0.21120989E+03 0.32000000E+00 0.0000E+00 0.9000E+01
#aMCatNLO 2  0  0  1  2 0.49883052D+02 0.00000000D+00  -5  7  0 0.00000000D+00 0.00000000D+00 0.00000000D+00 0.00000000D+00 0.00000000D+00
  <mgrwgt>
 0.3379487384D-03    1    2    0
 0.250327006080368D+03 0.000000000000000D+00 0.000000000000000D+00 0.250327006080368D+03
 0.250327006080368D+03 0.000000000000000D+00 0.000000000000000D+00 -.250327006080368D+03
 0.166783305528503D+03 -.343872368291887D+02 0.511381275327982D+01 -.141918363544050D+03
 0.104882580748054D+03 0.842872243945468D+00 0.104772582920561D+03 0.472770334376259D+01
 0.328628683392001D+02 0.327639217314444D+02 -.241558477405774D+01 0.811479177011807D+00
 0.196125257544979D+03 0.780442853798807D+00 -.107470810899783D+03 0.136379181023275D+03
 0.000000000000000D+00 -.000000000000000D+00 0.000000000000000D+00 -.000000000000000D+00
 0.256033749139523D+03 0.000000000000000D+00 0.000000000000000D+00 0.256033749139523D+03
 0.390819011405646D+03 0.000000000000000D+00 0.000000000000000D+00 -.390819011405646D+03
 0.165069420578712D+03 -.240769796416184D+02 -.775724152887830D+01 -.141918363544050D+03
 0.973069762310713D+02 0.712465379671228D+01 0.969305718161440D+02 0.472770334376259D+01
 0.352543379370936D+02 0.348802397856781D+02 -.505754064953210D+01 0.811479177011807D+00
 0.205502208710622D+03 0.132585156400673D+02 -.123048109239383D+03 0.136379181023275D+03
 0.143719817087670D+03 -.311864295808393D+02 0.389323196016489D+02 -.134785262266123D+03
0.415943359710D-06 0.000000000000D+00 0.000000000000D+00 0.123945332968D-06 0.204916420950D-11  7 21 1 -24 -13 13 23 2 2 0.26342732D-01 0.89905315D-01 0.44173595D+05 0.44173595D+05 0.44173595D+05 0.11520585D+01  1  2  1  3  7  1       -2 0.337948738445D-03 0.100000000000D+01
  </mgrwgt>
  </event>
  <event>
  8     66 0.26562228E-05 0.22152425E+03 0.75467711E-02 0.10200876E+00
       -2 -1    0    0    0  501 0.00000000E+00 0.00000000E+00 0.57594695E+03 0.57594704E+03 0.32000000E+00 0.0000E+00 0.9000E+01
        1 -1    0    0  501    0 0.00000000E+00 0.00000000E+00 -.49615589E+03 0.49615600E+03 0.32000000E+00 0.0000E+00 0.9000E+01
       25  2    1    2    0    0 0.80321097E+02 0.84661251E+02 -.43309372E+03 0.53999682E+03 0.30067822E+03 0.0000E+00 0.0000E+00
       23  2    3    3    0    0 0.15222295E+03 0.19819376E+02 -.18638433E+03 0.25971996E+03 0.95659307E+02 0.0000E+00 0.0000E+00
      -24  1    1    2    0    0 -.80321097E+02 -.84661251E+02 0.51288479E+03 0.53210622E+03 0.80419002E+02 0.0000E+00 0.9000E+01
      -11  1    4    4    0    0 0.11226010E+03 -.17530715E+02 -.16638543E+03 0.20147895E+03 0.51099893E-03 0.0000E+00 0.9000E+01
       11  1    4    4    0    0 0.39962854E+02 0.37350091E+02 -.19998900E+02 0.58241008E+02 0.51099893E-03 0.0000E+00 0.9000E+01
       23  1    3    3    0    0 -.71901855E+02 0.64841874E+02 -.24670939E+03 0.28027687E+03 0.91188000E+02 0.0000E+00 0.9000E+01
#aMCatNLO 1  0  0  2  1 0.10793940D+03 0.00000000D+00  -5  7  0 0.00000000D+00 0.00000000D+00 0.00000000D+00 0.00000000D+00 0.00000000D+00
  <mgrwgt>
 0.1227525666D-02    4    2    0
 0.534564850224072D+03 0.000000000000000D+00 0.000000000000000D+00 0.534564850224072D+03
 0.534564850224072D+03 0.000000000000000D+00 0.000000000000000D+00 -.534564850224072D+03
 0.495308540147469D+03 -.803210974618591D+02 -.846612506155416D+02 0.474599123403511D+03
 0.214456921725782D+03 0.112260098256484D+03 -.175307151758620D+02 -.181884896681845D+03
 0.598955346863338D+02 0.399628539742458D+02 0.373500913231891D+02 -.244011486562490D+02
 0.299468703888560D+03 -.719018547688703D+02 0.648418744682145D+02 -.268313078065417D+03
 0.000000000000000D+00 -.000000000000000D+00 0.000000000000000D+00 0.000000000000000D+00
 0.745310469511422D+03 0.000000000000000D+00 0.000000000000000D+00 0.745310469511422D+03
 0.551283944614244D+03 0.000000000000000D+00 0.000000000000000D+00 -.551283944614244D+03
 0.491626506816461D+03 -.316669348392714D+02 -.947749099323704D+02 0.474599123403511D+03
 0.227003914551246D+03 0.134023341324810D+03 -.220546040716541D+02 -.181884896681845D+03
 0.633827893166022D+02 0.460402586041962D+02 0.360867913988923D+02 -.244011486562490D+02
 0.292551459809664D+03 -.427163015665255D+02 0.587751223929324D+02 -.268313078065417D+03
 0.222029743631694D+03 -.105680363523209D+03 0.219676002121998D+02 0.194026524897178D+03
0.216744490267D-03 0.000000000000D+00 0.000000000000D+00 0.618281780781D-06 0.000000000000D+00  7 -2 1 -24 -11 11 23 21 0 0.88607239D-01 0.76331691D-01 0.49072992D+05 0.49072992D+05 0.49072992D+05 0.11480110D+01  1  2  2  2  7  2        1 0.125885525619D-02 0.100000000000D+01
-.679983152004D-06 0.000000000000D+00 -.832355912759D-06 0.618281780781D-06 0.000000000000D+00  7 -2 1 -24 -11 11 23 21 2 0.88607239D-01 0.76331691D-01 0.49072992D+05 0.49072992D+05 0.49072992D+05 0.11480110D+01  1  2  3  2  7  2        1 -.520496668287D-05 0.100000000000D+01
0.132875515065D-04 0.000000000000D+00 0.000000000000D+00 0.618281780781D-06 0.000000000000D+00  7 -2 1 -24 -11 11 23 21 2 0.88607239D-01 0.76331691D-01 0.49072992D+05 0.49072992D+05 0.49072992D+05 0.11480110D+01  1  2 15  2  7  2        1 0.101710259562D-03 0.100000000000D+01
-.167005039970D-04 0.000000000000D+00 0.000000000000D+00 0.618281780781D-06 0.000000000000D+00  7 -2 1 -24 -11 11 23 21 2 0.88607239D-01 0.76331691D-01 0.49072992D+05 0.49072992D+05 0.49072992D+05 0.11480110D+01  1  2  4  2  7  2        1 -.127834883314D-03 0.100000000000D+01
  </mgrwgt>
  </event>
  <event>
  8     66 0.26562228E-05 0.22973211E+03 0.75467711E-02 0.10019495E+00
       -2 -1    0    0    0  501 0.00000000E+00 0.00000000E+00 0.12802965E+04 0.12802965E+04 0.32000000E+00 0.0000E+00 0.9000E+01
        1 -1    0    0  501    0 0.00000000E+00 0.00000000E+00 -.53243867E+02 0.53244828E+02 0.32000000E+00 0.0000E+00 0.9000E+01
       25  2    1    2    0    0 -.73011359E+02 0.12410519E+03 0.99171383E+03 0.10461665E+04 0.30039177E+03 0.0000E+00 0.0000E+00
       23  2    3    3    0    0 -.11045997E+03 0.95529286E+01 0.72689155E+03 0.74125549E+03 0.93785464E+02 0.0000E+00 0.0000E+00
      -24  1    1    2    0    0 0.73011359E+02 -.12410519E+03 0.23533875E+03 0.28737484E+03 0.80419002E+02 0.0000E+00 0.9000E+01
      -13  1    4    4    0    0 -.12308967E+03 -.61695606E+01 0.57715655E+03 0.59016847E+03 0.10565837E+00 0.0000E+00 0.9000E+01
       13  1    4    4    0    0 0.12629700E+02 0.15722489E+02 0.14973500E+03 0.15108702E+03 0.10565837E+00 0.0000E+00 0.9000E+01
       23  1    3    3    0    0 0.37448607E+02 0.11455226E+03 0.26482228E+03 0.30491099E+03 0.91188000E+02 0.0000E+00 0.9000E+01
#aMCatNLO 1  0  0  1  2 0.14884552D+03 0.00000000D+00  -5  7  0 0.00000000D+00 0.00000000D+00 0.00000000D+00 0.00000000D+00 0.00000000D+00
  <mgrwgt>
 0.1209754143D-02    3    2    0
 0.261091174895197D+03 0.000000000000000D+00 0.000000000000000D+00 0.261091174895197D+03
 0.261091174895197D+03 0.000000000000000D+00 0.000000000000000D+00 -.261091174895197D+03
 0.180881646621392D+03 0.730113600331564D+02 -.124105187714809D+03 -.742845732199936D+02
 0.150929423922131D+03 -.123089834820514D+03 -.616958810900618D+01 0.871235889520762D+02
 0.339880982939527D+02 0.126298665661965D+02 0.157225140127369D+02 0.273583597695249D+02
 0.156383180952918D+03 0.374486082211606D+02 0.114552261811078D+03 -.401973755016075D+02
 0.000000000000000D+00 -.000000000000000D+00 0.000000000000000D+00 -.000000000000000D+00
 0.278227220691988D+03 0.000000000000000D+00 0.000000000000000D+00 0.278227220691988D+03
 0.109372138443779D+04 0.000000000000000D+00 0.000000000000000D+00 -.109372138443779D+04
 0.229060330449160D+03 0.991374361864251D+02 -.175085664630242D+03 -.742845732199936D+02
 0.142504533581196D+03 -.104388949455052D+03 -.426611013802321D+02 0.871235889520762D+02
 0.329954150078972D+02 0.168988033119361D+02 0.739242916023618D+01 0.273583597695249D+02
 0.138421668272288D+03 0.562368621010141D+02 0.778902641354977D+02 -.401973755016075D+02
 0.828966657819241D+03 -.678841521443231D+02 0.132464072714740D+03 -.815494163745807D+03
0.901064271570D-04 0.000000000000D+00 0.000000000000D+00 0.333440770485D-06 0.000000000000D+00  7 -2 1 -24 -13 13 23 21 0 0.19696876D+00 0.81914412D-02 0.52776844D+05 0.52776844D+05 0.52776844D+05 0.11452364D+01  1  2  2  1  7  1       -2 0.119371470371D-02 0.100000000000D+01
-.490626097011D-05 0.000000000000D+00 -.346032405850D-06 0.333440770485D-06 0.000000000000D+00  7 -2 1 -24 -13 13 23 21 2 0.19696876D+00 0.81914412D-02 0.52776844D+05 0.52776844D+05 0.52776844D+05 0.11452364D+01  1  2  3  1  7  1       -2 -.852482933826D-04 0.100000000000D+01
0.582937241729D-05 0.000000000000D+00 0.000000000000D+00 0.333440770485D-06 0.000000000000D+00  7 -2 1 -24 -13 13 23 21 2 0.19696876D+00 0.81914412D-02 0.52776844D+05 0.52776844D+05 0.52776844D+05 0.11452364D+01  1  2 15  1  7  1       -2 0.101287732775D-03 0.100000000000D+01
  </mgrwgt>
  </event>
  <event>
  9     66 0.26562228E-05 0.22665941E+03 0.75467711E-02 0.10281306E+00
       -2 -1    0    0    0  501 0.00000000E+00 0.00000000E+00 0.29472775E+03 0.29472792E+03 0.32000000E+00 0.0000E+00 0.9000E+01
       21 -1    0    0  501  502 0.00000000E+00 0.00000000E+00 -.29400391E+03 0.29400486E+03 0.75000000E+00 0.0000E+00 0.9000E+01
       25  2    1    2    0    0 0.16306834E+03 0.48804669E+02 -.80108596E+02 0.35406404E+03 0.29995129E+03 0.0000E+00 0.0000E+00
       23  2    3    3    0    0 -.45070272E+02 0.44025606E+02 -.60388247E+02 0.12592227E+03 0.90774966E+02 0.0000E+00 0.0000E+00
      -24  1    1    2    0    0 -.14261434E+03 0.20866251E+01 0.47515159E+02 0.17049373E+03 0.80419002E+02 0.0000E+00 0.9000E+01
      -11  1    4    4    0    0 -.35462393E+01 0.21825353E+02 -.73736725E+02 0.76980688E+02 0.51099893E-03 0.0000E+00 0.9000E+01
       11  1    4    4    0    0 -.41524033E+02 0.22200253E+02 0.13348478E+02 0.48941582E+02 0.51099893E-03 0.0000E+00 0.9000E+01
       23  1    3    3    0    0 0.20813862E+03 0.47790634E+01 -.19720350E+02 0.22814177E+03 0.91188000E+02 0.0000E+00 0.9000E+01
       -1  1    1    2    0  502 -.20454004E+02 -.50891294E+02 0.33317277E+02 0.64175022E+02 0.32000000E+00 0.0000E+00 0.9000E+01
#aMCatNLO 2  0  0  2  1 0.54847882D+02 0.00000000D+00  -5  7  0 0.00000000D+00 0.00000000D+00 0.00000000D+00 0.00000000D+00 0.00000000D+00
  <mgrwgt>
 0.6677806440D-04    1    2    0
 0.260331627567375D+03 0.000000000000000D+00 0.000000000000000D+00 0.260331627567375D+03
 0.260331627567375D+03 0.000000000000000D+00 0.000000000000000D+00 -.260331627567375D+03
 0.180142024311905D+03 -.149547024575492D+03 -.151624813791412D+02 0.582212982323900D+02
 0.709466214520634D+02 -.635684929332789D+01 0.148323169587992D+02 -.690870171317160D+02
 0.496046000529483D+02 -.434724958474496D+02 0.173523122693098D+02 0.164211969757017D+02
 0.219970009317834D+03 0.199376369716270D+03 -.170221478489678D+02 -.555547807637569D+01
 0.000000000000000D+00 -.000000000000000D+00 -.000000000000000D+00 0.000000000000000D+00
 0.313646899403404D+03 0.000000000000000D+00 0.000000000000000D+00 0.313646899403404D+03
 0.276269931274083D+03 0.000000000000000D+00 0.000000000000000D+00 -.276269931274083D+03
 0.173781873380566D+03 -.142614340054908D+03 0.208662505655625D+01 0.582212982323900D+02
 0.725392153981318D+02 -.354623931039111D+01 0.218253527158667D+02 -.690870171317160D+02
 0.498673466370266D+02 -.415240328316825D+02 0.222002533295438D+02 0.164211969757017D+02
 0.227355751235262D+03 0.208138616052457D+03 0.477906338744940D+01 -.555547807637569D+01
 0.663726440265007D+02 -.204540038554745D+02 -.508912944894162D+02 0.373769681293218D+02
0.227168874868D-06 0.000000000000D+00 0.000000000000D+00 0.164007471080D-05 0.458332349497D-10  7 -2 21 -24 -11 11 23 -1 2 0.45342756D-01 0.45231396D-01 0.66324858D+05 0.66324858D+05 0.66324858D+05 0.11366561D+01  1  2  1  4  7  2        1 0.667780644009D-04 0.100000000000D+01
  </mgrwgt>
  </event>
  <event>
  9     66 0.26562228E-05 0.21995838E+03 0.75467711E-02 0.10417161E+00
       -2 -1    0    0    0  502 0.00000000E+00 0.00000000E+00 0.56457421E+02 0.56458327E+02 0.32000000E+00 0.0000E+00 0.9000E+01
        1 -1    0    0  501    0 0.00000000E+00 0.00000000E+00 -.15883086E+04 0.15883086E+04 0.32000000E+00 0.0000E+00 0.9000E+01
       25  2    1    2    0    0 -.82923453E+02 -.12075833E+03 -.12389722E+04 0.12830694E+04 0.29959317E+03 0.0000E+00 0.0000E+00
       23  2    3    3    0    0 -.95729649E+02 -.13470665E+03 -.43722258E+03 0.47592859E+03 0.89634796E+02 0.0000E+00 0.0000E+00
      -24  1    1    2    0    0 0.65639914E+02 0.13931549E+03 -.19768343E+03 0.26317933E+03 0.80419002E+02 0.0000E+00 0.9000E+01
      -13  1    4    4    0    0 -.11538927E+02 -.60806140E+02 -.25178600E+03 0.25928119E+03 0.10565837E+00 0.0000E+00 0.9000E+01
       13  1    4    4    0    0 -.84190722E+02 -.73900508E+02 -.18543658E+03 0.21664741E+03 0.10565837E+00 0.0000E+00 0.9000E+01
       23  1    3    3    0    0 0.12806196E+02 0.13948317E+02 -.80174962E+03 0.80714080E+03 0.91188000E+02 0.0000E+00 0.9000E+01
       21  1    1    2  501  502 0.17283540E+02 -.18557161E+02 -.95195516E+02 0.98518210E+02 0.75000000E+00 0.0000E+00 0.9000E+01
#aMCatNLO 2  0  0  1  1 0.25359199D+02 0.00000000D+00  -5  7  0 0.00000000D+00 0.00000000D+00 0.00000000D+00 0.00000000D+00 0.00000000D+00
  <mgrwgt>
 0.7125035098D-03    2    2    0
 0.285597008482750D+03 0.000000000000000D+00 0.000000000000000D+00 0.285597008482750D+03
 0.285597008482750D+03 0.000000000000000D+00 0.000000000000000D+00 -.285597008482750D+03
 0.212689336419093D+03 0.721076364635428D+02 0.132371164054589D+03 0.126680312450270D+03
 0.702254309635630D+02 -.944056275056648D+01 -.630590065911720D+02 -.294287039589801D+02
 0.119921736290018D+03 -.805635133829617D+02 -.777951313020295D+02 0.428796069467278D+02
 0.168357513292826D+03 0.178964396699854D+02 0.848297383861252D+01 -.140131215438018D+03
 0.000000000000000D+00 0.000000000000000D+00 -.000000000000000D+00 -.000000000000000D+00
 0.294540618946577D+03 0.000000000000000D+00 0.000000000000000D+00 0.294540618946577D+03
 0.304438369686358D+03 0.000000000000000D+00 0.000000000000000D+00 -.304438369686358D+03
 0.215017492622023D+03 0.656399139665294D+02 0.139315491999489D+03 0.126680312450270D+03
 0.685315809850441D+02 -.115388267642844D+02 -.608061218341393D+02 -.294287039589801D+02
 0.119950169157015D+03 -.841908225908586D+02 -.739005262522886D+02 0.428796069467278D+02
 0.168257430983746D+03 0.128061958391599D+02 0.139483169322716D+02 -.140131215438018D+03
 0.272223148851068D+02 0.172835395494537D+02 -.185571608453324D+02 -.989775073978136D+01
-.123643958143D-06 0.000000000000D+00 0.000000000000D+00 0.842239347398D-06 0.000000000000D+00  7 -2 1 -24 -13 13 23 21 2 0.84219413D-02 0.22922838D+00 0.48381688D+05 0.48381688D+05 0.48381688D+05 0.11485544D+01  1  2  8  1  7  1       -2 -.990999258288D-05 0.100000000000D+01
0.110491023455D-04 0.000000000000D+00 0.000000000000D+00 0.842239347398D-06 0.916543293612D-08  7 -2 1 -24 -13 13 23 21 2 0.86856786D-02 0.24435100D+00 0.54322785D+05 0.54322785D+05 0.54322785D+05 0.11441412D+01  1  2  1  1  7  1       -2 0.722413502370D-03 0.100000000000D+01
  </mgrwgt>
  </event>
  <event>
  8     66 0.26562228E-05 0.18365875E+03 0.75467711E-02 0.99750187E-01
       -2 -1    0    0    0  501 0.00000000E+00 0.00000000E+00 0.14782438E+04 0.14782438E+04 0.32000000E+00 0.0000E+00 0.9000E+01
        1 -1    0    0  501    0 0.00000000E+00 0.00000000E+00 -.33643307E+02 0.33644829E+02 0.32000000E+00 0.0000E+00 0.9000E+01
       25  2    1    2    0    0 -.11643606E+02 -.58028851E+02 0.75012291E+03 0.81026964E+03 0.30058209E+03 0.0000E+00 0.0000E+00
       23  2    3    3    0    0 0.50060096E+02 -.10998674E+03 0.22435448E+03 0.27058949E+03 0.90998058E+02 0.0000E+00 0.0000E+00
      -24  1    1    2    0    0 0.11643606E+02 0.58028851E+02 0.69447757E+03 0.70161901E+03 0.80419002E+02 0.0000E+00 0.9000E+01
      -13  1    4    4    0    0 -.22527006E+02 -.20155639E+02 0.81272632E+02 0.86711981E+02 0.10565837E+00 0.0000E+00 0.9000E+01
       13  1    4    4    0    0 0.72587102E+02 -.89831097E+02 0.14308184E+03 0.18387751E+03 0.10565837E+00 0.0000E+00 0.9000E+01
       23  1    3    3    0    0 -.61703702E+02 0.51957885E+02 0.52576843E+03 0.53968015E+03 0.91188000E+02 0.0000E+00 0.9000E+01
#aMCatNLO 1  0  0  1  2 0.22211027D+03 0.00000000D+00  -5  7  0 0.00000000D+00 0.00000000D+00 0.00000000D+00 0.00000000D+00 0.00000000D+00
  <mgrwgt>
 0.1749253964D-02    3    2    0
 0.223011628273366D+03 0.000000000000000D+00 0.000000000000000D+00 0.223011628273366D+03
 0.223011628273366D+03 0.000000000000000D+00 0.000000000000000D+00 -.223011628273366D+03
 0.128978008203181D+03 0.116436085902255D+02 0.580288621979798D+02 0.816406037256883D+02
 0.306986224458602D+02 -.225271350703358D+02 -.201555450157615D+02 -.535608165676436D+01
 0.159871250075589D+03 0.725872233538510D+02 -.898311892292145D+02 -.110545325763574D+03
 0.126475375822102D+03 -.617036968737408D+02 0.519578720469963D+02 0.342608036946497D+02
 0.000000000000000D+00 -.000000000000000D+00 0.000000000000000D+00 -.000000000000000D+00
 0.280257313070219D+03 0.000000000000000D+00 0.000000000000000D+00 0.280257313070219D+03
 0.645395408556429D+03 0.000000000000000D+00 0.000000000000000D+00 -.645395408556429D+03
 0.115194925115474D+03 0.117094590463703D+02 0.595995080132681D+00 0.816406037256883D+02
 0.443185756691732D+02 -.225069038487690D+02 -.378006325049274D+02 -.535608165676436D+01
 0.223372711223697D+03 0.726905795666928D+02 -.179975494758338D+03 -.110545325763574D+03
 0.115380500824881D+03 -.616384712994642D+02 -.492999114220076D+01 0.342608036946497D+02
 0.427386008793424D+03 -.254663464829999D+00 0.222110123325334D+03 -.365138095486211D+03
0.110858069392D-03 0.000000000000D+00 0.000000000000D+00 0.843264399227D-06 0.000000000000D+00  7 -2 1 -24 -13 13 23 21 0 0.22742224D+00 0.51760131D-02 0.33730538D+05 0.33730538D+05 0.33730538D+05 0.11626424D+01  1  2  2  1  7  1       -2 0.172733914514D-02 0.100000000000D+01
-.587653654649D-05 0.000000000000D+00 -.425724176065D-06 0.843264399227D-06 0.000000000000D+00  7 -2 1 -24 -13 13 23 21 2 0.22742224D+00 0.51760131D-02 0.33730538D+05 0.33730538D+05 0.33730538D+05 0.11626424D+01  1  2  3  1  7  1       -2 -.123772471452D-03 0.100000000000D+01
0.691702022624D-05 0.000000000000D+00 0.000000000000D+00 0.843264399227D-06 0.000000000000D+00  7 -2 1 -24 -13 13 23 21 2 0.22742224D+00 0.51760131D-02 0.33730538D+05 0.33730538D+05 0.33730538D+05 0.11626424D+01  1  2 15  1  7  1       -2 0.145687290755D-03 0.100000000000D+01
  </mgrwgt>
  </event>
  <event>
  8     66 0.26562228E-05 0.24577308E+03 0.75467711E-02 0.99937997E-01
       -2 -1    0    0    0  501 0.00000000E+00 0.00000000E+00 0.73197766E+02 0.73198465E+02 0.32000000E+00 0.0000E+00 0.9000E+01
        1 -1    0    0  501    0 0.00000000E+00 0.00000000E+00 -.23855043E+04 0.23855043E+04 0.32000000E+00 0.0000E+00 0.9000E+01
       25  2    1    2    0    0 -.14530367E+03 -.68317946E+02 -.34944723E+03 0.48764612E+03 0.29984142E+03 0.0000E+00 0.0000E+00
       23  2    3    3    0    0 0.13393284E+02 0.44274758E+02 -.30900565E+02 0.10339482E+03 0.87155084E+02 0.0000E+00 0.0000E+00
      -24  1    1    2    0    0 0.14530367E+03 0.68317946E+02 -.19628593E+04 0.19710567E+04 0.80419002E+02 0.0000E+00 0.9000E+01
      -11  1    4    4    0    0 -.35954922E+02 0.26356683E+02 -.23438686E+02 0.50366686E+02 0.51099893E-03 0.0000E+00 0.9000E+01
       11  1    4    4    0    0 0.49348206E+02 0.17918075E+02 -.74618796E+01 0.53028129E+02 0.51099893E-03 0.0000E+00 0.9000E+01
       23  1    3    3    0    0 -.15869695E+03 -.11259270E+03 -.31854666E+03 0.38425131E+03 0.91188000E+02 0.0000E+00 0.9000E+01
#aMCatNLO 1  0  0  1  2 0.11836343D+03 0.00000000D+00  -5  7  0 0.00000000D+00 0.00000000D+00 0.00000000D+00 0.00000000D+00 0.00000000D+00
  <mgrwgt>
 0.1253680686D-02    4    2    0
 0.417868965263613D+03 0.000000000000000D+00 0.000000000000000D+00 0.417868965263613D+03
 0.417868965263613D+03 0.000000000000000D+00 0.000000000000000D+00 -.417868965263613D+03
 0.367950408521278D+03 0.145303668147463D+03 0.683179463637789D+02 -.321153840712099D+03
 0.833267025882172D+02 -.359549215892151D+02 0.263566825553068D+02 0.703982120683287D+02
 0.135360922278896D+03 0.493482060748259D+02 0.179180752733196D+02 0.124764884546452D+03
 0.249099897138836D+03 -.158696952633074D+03 -.112592704192405D+03 0.125990744097318D+03
 0.000000000000000D+00 -.000000000000000D+00 -.000000000000000D+00 -.000000000000000D+00
 0.451403387443073D+03 0.000000000000000D+00 0.000000000000000D+00 0.451403387443073D+03
 0.541315475559611D+03 0.000000000000000D+00 0.000000000000000D+00 -.541315475559611D+03
 0.386771033996584D+03 0.160487643368779D+03 0.119283459482944D+03 -.321153840712099D+03
 0.862817407942146D+02 -.325426289782445D+02 0.378101551338654D+02 0.703982120683287D+02
 0.141139336468322D+03 0.549110175188717D+02 0.365898351714100D+02 0.124764884546452D+03
 0.229885959759293D+03 -.149060404666134D+03 -.802473134318154D+02 0.125990744097318D+03
 0.148640791984270D+03 -.337956272432726D+02 -.113436136356404D+03 -.899120881165376D+02
0.144308803299D-03 0.000000000000D+00 0.000000000000D+00 0.940480627978D-06 0.000000000000D+00  7 -2 1 -24 -11 11 23 21 0 0.11261250D-01 0.36700072D+00 0.60404406D+05 0.60404406D+05 0.60404406D+05 0.11401433D+01  1  2  2  1  7  1       -2 0.145426852648D-02 0.100000000000D+01
-.527117841646D-05 0.000000000000D+00 -.554183802049D-06 0.940480627978D-06 0.000000000000D+00  7 -2 1 -24 -11 11 23 21 2 0.11261250D-01 0.36700072D+00 0.60404406D+05 0.60404406D+05 0.60404406D+05 0.11401433D+01  1  2  3  1  7  1       -2 -.690523352489D-04 0.100000000000D+01
0.887057308215D-05 0.000000000000D+00 0.000000000000D+00 0.940480627978D-06 0.000000000000D+00  7 -2 1 -24 -11 11 23 21 2 0.11261250D-01 0.36700072D+00 0.60404406D+05 0.60404406D+05 0.60404406D+05 0.11401433D+01  1  2 15  1  7  1       -2 0.116204335715D-03 0.100000000000D+01
-.189114661572D-04 0.000000000000D+00 0.000000000000D+00 0.940480627978D-06 0.000000000000D+00  7 -2 1 -24 -11 11 23 21 2 0.11261250D-01 0.36700072D+00 0.60404406D+05 0.60404406D+05 0.60404406D+05 0.11401433D+01  1  2  4  1  7  1       -2 -.247739840689D-03 0.100000000000D+01
  </mgrwgt>
  </event>
  <event>
  8     66 0.26562228E-05 0.57750544E+03 0.75467711E-02 0.88342398E-01
       -2 -1    0    0    0  501 0.00000000E+00 0.00000000E+00 0.28278366E+03 0.28278384E+03 0.32000000E+00 0.0000E+00 0.9000E+01
        1 -1    0    0  501    0 0.00000000E+00 0.00000000E+00 -.17306073E+04 0.17306073E+04 0.32000000E+00 0.0000E+00 0.9000E+01
       25  2    1    2    0    0 -.37342586E+03 0.40373784E+03 -.21655199E+03 0.66248472E+03 0.29923255E+03 0.0000E+00 0.0000E+00
       23  2    3    3    0    0 -.21341540E+02 0.46418377E+02 0.97041263E+01 0.10467862E+03 0.90847760E+02 0.0000E+00 0.0000E+00
      -24  1    1    2    0    0 0.37342586E+03 -.40373784E+03 -.12312717E+04 0.13509065E+04 0.80419002E+02 0.0000E+00 0.9000E+01
      -11  1    4    4    0    0 0.15258041E+02 -.12676819E+02 -.20823235E+02 0.28759636E+02 0.51099893E-03 0.0000E+00 0.9000E+01
       11  1    4    4    0    0 -.36599581E+02 0.59095197E+02 0.30527361E+02 0.75918979E+02 0.51099893E-03 0.0000E+00 0.9000E+01
       23  1    3    3    0    0 -.35208432E+03 0.35731947E+03 -.22625612E+03 0.55780611E+03 0.91188000E+02 0.0000E+00 0.9000E+01
#aMCatNLO 1  0  0  1  2 0.55985104D+03 0.00000000D+00  -5  7  0 0.00000000D+00 0.00000000D+00 0.00000000D+00 0.00000000D+00 0.00000000D+00
  <mgrwgt>
 0.1026853272D-02    3    2    0
 0.699562488168573D+03 0.000000000000000D+00 0.000000000000000D+00 0.699562488168573D+03
 0.699562488168573D+03 0.000000000000000D+00 0.000000000000000D+00 -.699562488168573D+03
 0.669875038175988D+03 0.373425859983989D+03 -.403737844645841D+03 -.373917411620346D+03
 0.198381319834065D+02 0.152580410510780D+02 -.126768194581500D+02 -.204724937767839D+00
 0.140840055850326D+03 -.365995812299358D+02 0.590951968167970D+02 0.122491427042468D+03
 0.568571750327426D+03 -.352084319805132D+03 0.357319467287194D+03 0.251630709515645D+03
 0.000000000000000D+00 0.000000000000000D+00 -.000000000000000D+00 -.000000000000000D+00
 0.102189614171723D+04 0.000000000000000D+00 0.000000000000000D+00 0.102189614171723D+04
 0.104542760373208D+04 0.000000000000000D+00 0.000000000000000D+00 -.104542760373208D+04
 0.502269315831858D+03 0.234942183211803D+03 -.225377881582565D+03 -.373917411620346D+03
 0.136164319519292D+02 0.113055321278089D+02 -.758618811449164D+01 -.204724937767839D+00
 0.179356068027926D+03 -.744293386068725D+02 0.107818008672398D+03 0.122491427042468D+03
 0.811736578820480D+03 -.515161650550348D+03 0.567354811279565D+03 0.251630709515645D+03
 0.560345350817116D+03 0.343343273817610D+03 -.442208750254907D+03 -.235314620148515D+02
0.396637800310D-03 0.000000000000D+00 0.000000000000D+00 0.778068685959D-05 0.000000000000D+00  7 -2 1 -24 -11 11 23 21 0 0.43505194D-01 0.26624730D+00 0.33351253D+06 0.33351253D+06 0.33351253D+06 0.10811656D+01  1  2  2  1  7  1       -2 0.101360106156D-02 0.100000000000D+01
-.210504788892D-04 0.000000000000D+00 -.152319359032D-05 0.778068685959D-05 0.000000000000D+00  7 -2 1 -24 -11 11 23 21 2 0.43505194D-01 0.26624730D+00 0.33351253D+06 0.33351253D+06 0.33351253D+06 0.10811656D+01  1  2  3  1  7  1       -2 -.628809870296D-04 0.100000000000D+01
0.254868813826D-04 0.000000000000D+00 0.000000000000D+00 0.778068685959D-05 0.000000000000D+00  7 -2 1 -24 -11 11 23 21 2 0.43505194D-01 0.26624730D+00 0.33351253D+06 0.33351253D+06 0.33351253D+06 0.10811656D+01  1  2 15  1  7  1       -2 0.761331970677D-04 0.100000000000D+01
  </mgrwgt>
  </event>
  <event>
  9     66 -.26562228E-05 0.26203112E+03 0.75467711E-02 0.10227822E+00
       -2 -1    0    0    0  502 0.00000000E+00 0.00000000E+00 0.31670902E+02 0.31672519E+02 0.32000000E+00 0.0000E+00 0.9000E+01
        1 -1    0    0  501    0 0.00000000E+00 0.00000000E+00 -.27272586E+04 0.27272587E+04 0.32000000E+00 0.0000E+00 0.9000E+01
       25  2    1    2    0    0 0.16877549E+03 0.44028291E+02 -.12077034E+04 0.12565587E+04 0.29994741E+03 0.0000E+00 0.0000E+00
       23  2    3    3    0    0 -.50143777E+02 -.55461068E+01 -.32938249E+03 0.34543508E+03 0.91035220E+02 0.0000E+00 0.0000E+00
      -24  1    1    2    0    0 -.16238320E+03 -.33776625E+02 -.14643709E+04 0.14759263E+04 0.80419002E+02 0.0000E+00 0.9000E+01
      -13  1    4    4    0    0 -.34240587E+02 0.37950148E+02 -.11110663E+03 0.12230014E+03 0.10565837E+00 0.0000E+00 0.9000E+01
       13  1    4    4    0    0 -.15903191E+02 -.43496254E+02 -.21827586E+03 0.22313494E+03 0.10565837E+00 0.0000E+00 0.9000E+01
       23  1    3    3    0    0 0.21891927E+03 0.49574398E+02 -.87832094E+03 0.91112359E+03 0.91188000E+02 0.0000E+00 0.9000E+01
       21  1    1    2  501  502 -.63922912E+01 -.10251666E+02 -.23513413E+02 0.26446193E+02 0.75000000E+00 0.0000E+00 0.9000E+01
#aMCatNLO 2  0  0  1  2 0.12081309D+02 0.00000000D+00  -5  7  0 0.00000000D+00 0.00000000D+00 0.00000000D+00 0.00000000D+00 0.00000000D+00
  <mgrwgt>
 -.2893940562D-03    3    2    0
 0.285633958667530D+03 0.000000000000000D+00 0.000000000000000D+00 0.285633958667530D+03
 0.285633958667530D+03 0.000000000000000D+00 0.000000000000000D+00 -.285633958667530D+03
 0.212549831832466D+03 -.164747473813535D+03 -.375683420674111D+02 -.100782461787772D+03
 0.649922344173539D+02 -.349693556360606D+02 0.367815299174524D+02 0.405986915785539D+02
 0.472826879615954D+02 -.164267639277041D+02 -.443360858846444D+02 -.354254381073961D+00
 0.246443163123645D+03 0.216143593377300D+03 0.451228980346031D+02 0.605380245902919D+02
 0.000000000000000D+00 -.000000000000000D+00 -.000000000000000D+00 0.000000000000000D+00
 0.299558912307507D+03 0.000000000000000D+00 0.000000000000000D+00 0.299558912307507D+03
 0.288330340582634D+03 0.000000000000000D+00 0.000000000000000D+00 -.288330340582634D+03
 0.210079709074649D+03 -.162383198643048D+03 -.337766251269604D+02 -.100782461787772D+03
 0.652755330594825D+02 -.342406113852464D+02 0.379502567879794D+02 0.405986915785539D+02
 0.463138190167211D+02 -.159031661285104D+02 -.434963635587630D+02 -.354254381073961D+00
 0.249726591103596D+03 0.218919267381887D+03 0.495743977059339D+02 0.605380245902919D+02
 0.164936006356917D+02 -.639229122508200D+01 -.102516658081899D+02 0.112285717248730D+02
-.107994873089D-03 0.000000000000D+00 0.000000000000D+00 0.263556581905D-05 0.000000000000D+00  7 -2 1 -24 -13 13 23 21 2 0.48936905D-02 0.41564239D+00 0.71854120D+05 0.71854120D+05 0.71854120D+05 0.11336957D+01  1  2 13  1  7  1       -2 -.297330905085D-02 0.100000000000D+01
-.709499717434D-04 0.000000000000D+00 0.000000000000D+00 0.263556581905D-05 0.000000000000D+00  7 -2 1 -24 -13 13 23 21 2 0.46459350D-02 0.41564239D+00 0.68660310D+05 0.68660310D+05 0.68660310D+05 0.11353737D+01  1  2  8  1  7  1       -2 -.211901378938D-02 0.100000000000D+01
0.180597720690D-03 0.000000000000D+00 0.000000000000D+00 0.263556581905D-05 0.123885775669D-06  7 -2 1 -24 -13 13 23 21 2 0.48724292D-02 0.41956605D+00 0.71854120D+05 0.71854120D+05 0.71854120D+05 0.11336957D+01  1  2  1  1  7  1       -2 0.480292878399D-02 0.100000000000D+01
  </mgrwgt>
  </event>
  <event>
  8     66 0.26562228E-05 0.33970734E+03 0.75467711E-02 0.94715803E-01
       -2 -1    0    0    0  501 0.00000000E+00 0.00000000E+00 0.23233494E+03 0.23233516E+03 0.32000000E+00 0.0000E+00 0.9000E+01
        1 -1    0    0  501    0 0.00000000E+00 0.00000000E+00 -.87782106E+03 0.87782112E+03 0.32000000E+00 0.0000E+00 0.9000E+01
       25  2    1    2    0    0 0.21470743E+03 0.18655551E+03 -.69840188E+03 0.80987386E+03 0.29534427E+03 0.0000E+00 0.0000E+00
       23  2    3    3    0    0 0.21210104E+03 0.47711864E+02 -.48685452E+03 0.54089080E+03 0.90951928E+02 0.0000E+00 0.0000E+00
      -24  1    1    2    0    0 -.21470743E+03 -.18655551E+03 0.52915758E+02 0.30028242E+03 0.80419002E+02 0.0000E+00 0.9000E+01
      -11  1    4    4    0    0 0.14679077E+03 0.38391647E+02 -.22880562E+03 0.27454228E+03 0.51099893E-03 0.0000E+00 0.9000E+01
       11  1    4    4    0    0 0.65310264E+02 0.93202167E+01 -.25804890E+03 0.26634852E+03 0.51099893E-03 0.0000E+00 0.9000E+01
       23  1    3    3    0    0 0.26063900E+01 0.13884365E+03 -.21154736E+03 0.26898306E+03 0.91188000E+02 0.0000E+00 0.9000E+01
#aMCatNLO 1  0  0  1  2 0.27152720D+03 0.00000000D+00  -5  7  0 0.00000000D+00 0.00000000D+00 0.00000000D+00 0.00000000D+00 0.00000000D+00
  <mgrwgt>
 0.1595084622D-02    3    2    0
 0.451606749888134D+03 0.000000000000000D+00 0.000000000000000D+00 0.451606749888134D+03
 0.451606749888134D+03 0.000000000000000D+00 0.000000000000000D+00 -.451606749888134D+03
 0.406899145804107D+03 -.214707426640408D+03 -.186555512573458D+03 0.279638088563861D+03
 0.173927846562707D+03 0.146790772750640D+03 0.383916469601519D+02 -.850261506178988D+02
 0.142957887284859D+03 0.653102639271836D+02 0.932021665363602D+01 -.126825314997604D+03
 0.179428620124594D+03 0.260638996258395D+01 0.138843648959670D+03 -.677866229483579D+02
 0.000000000000000D+00 0.000000000000000D+00 -.000000000000000D+00 -.000000000000000D+00
 0.534613021888711D+03 0.000000000000000D+00 0.000000000000000D+00 0.534613021888711D+03
 0.763950721745689D+03 0.000000000000000D+00 0.000000000000000D+00 -.763950721745689D+03
 0.400166377079489D+03 -.263325521969811D+03 -.782823242771322D+02 0.279638088563861D+03
 0.174069423582591D+03 0.125827215301369D+03 0.850777869186838D+02 -.850261506178988D+02
 0.143791476423304D+03 0.480363158955563D+02 0.477895440753993D+02 -.126825314997604D+03
 0.225117275460285D+03 -.217636894906817D+02 0.193116161767140D+03 -.677866229483579D+02
 0.355419191088730D+03 0.111225680263568D+03 -.247701168484091D+03 -.229337699856979D+03
0.102219605723D-03 0.000000000000D+00 0.000000000000D+00 0.128692936510D-06 0.000000000000D+00  7 -2 1 -24 -11 11 23 21 0 0.35743858D-01 0.13504942D+00 0.11540108D+06 0.11540108D+06 0.11540108D+06 0.11166525D+01  1  2  2  1  7  1       -2 0.156642684242D-02 0.100000000000D+01
-.511910756248D-05 0.000000000000D+00 -.392550201018D-06 0.128692936510D-06 0.000000000000D+00  7 -2 1 -24 -11 11 23 21 2 0.35743858D-01 0.13504942D+00 0.11540108D+06 0.11540108D+06 0.11540108D+06 0.11166525D+01  1  2  3  1  7  1       -2 -.978151751533D-04 0.100000000000D+01
0.661889791196D-05 0.000000000000D+00 0.000000000000D+00 0.128692936510D-06 0.000000000000D+00  7 -2 1 -24 -11 11 23 21 2 0.35743858D-01 0.13504942D+00 0.11540108D+06 0.11540108D+06 0.11540108D+06 0.11166525D+01  1  2 15  1  7  1       -2 0.126472954647D-03 0.100000000000D+01
  </mgrwgt>
  </event>
  <event>
  8     66 0.26562228E-05 0.49971235E+03 0.75467711E-02 0.85890166E-01
       -2 -1    0    0    0  501 0.00000000E+00 0.00000000E+00 0.35788029E+03 0.35788044E+03 0.32000000E+00 0.0000E+00 0.9000E+01
        1 -1    0    0  501    0 0.00000000E+00 0.00000000E+00 -.89200859E+03 0.89200865E+03 0.32000000E+00 0.0000E+00 0.9000E+01
       25  2    1    2    0    0 -.69169372E+01 0.45689412E+03 -.56334599E+03 0.78500096E+03 0.30011286E+03 0.0000E+00 0.0000E+00
       23  2    3    3    0    0 0.82406255E+02 0.83575259E+02 -.89148219E+02 0.16813438E+03 0.80908279E+02 0.0000E+00 0.0000E+00
      -24  1    1    2    0    0 0.69169372E+01 -.45689412E+03 0.29217693E+02 0.46488812E+03 0.80419002E+02 0.0000E+00 0.9000E+01
      -11  1    4    4    0    0 0.63417544E+02 0.91098683E+01 -.53278644E+02 0.83326997E+02 0.51099893E-03 0.0000E+00 0.9000E+01
       11  1    4    4    0    0 0.18988712E+02 0.74465391E+02 -.35869575E+02 0.84807381E+02 0.51099893E-03 0.0000E+00 0.9000E+01
       23  1    3    3    0    0 -.89323193E+02 0.37331886E+03 -.47419777E+03 0.61686658E+03 0.91188000E+02 0.0000E+00 0.9000E+01
#aMCatNLO 1  0  0  1  2 0.97042581D+03 0.00000000D+00  -5  7  0 0.00000000D+00 0.00000000D+00 0.00000000D+00 0.00000000D+00 0.00000000D+00
  <mgrwgt>
 0.2796172131D-02    3    2    0
 0.565006567720754D+03 0.000000000000000D+00 0.000000000000000D+00 0.565006567720754D+03
 0.565006567720754D+03 0.000000000000000D+00 0.000000000000000D+00 -.565006567720754D+03
 0.528015621575689D+03 0.691693723165361D+01 -.456894116452740D+03 0.252057935808008D+03
 0.669831794888188D+02 0.634175435566784D+02 0.910986831423271D+01 -.195440989294841D+02
 0.768494302318142D+02 0.189887118949577D+02 0.744653905633522D+02 0.411528580051971D+00
 0.458164904145185D+03 -.893231926832896D+02 0.373318857575156D+03 -.232925365458576D+03
 0.000000000000000D+00 -.000000000000000D+00 0.000000000000000D+00 -.000000000000000D+00
 0.118655422260154D+04 0.000000000000000D+00 0.000000000000000D+00 0.118655422260154D+04
 0.127765354373266D+04 0.000000000000000D+00 0.000000000000000D+00 -.127765354373266D+04
 0.909500216522477D+03 0.458072401611019D+03 -.739837752333970D+03 0.252057935808008D+03
 0.130275000769452D+03 0.125325804710022D+03 -.297161016336399D+02 -.195440989294841D+02
 0.811365112290858D+02 0.685716235375187D+02 0.433693041687802D+02 0.411528580051971D+00
 0.368603606978093D+03 0.170152996506764D+03 0.210587510643480D+03 -.232925365458576D+03
 0.974692430835093D+03 -.822122826365323D+03 0.515597039155350D+03 -.910993211311185D+02
0.434518655769D-03 0.000000000000D+00 0.000000000000D+00 0.220378804890D-06 0.000000000000D+00  7 -2 1 -24 -11 11 23 21 0 0.55058522D-01 0.13723211D+00 0.24971243D+06 0.24971243D+06 0.24971243D+06 0.10904967D+01  1  2  2  1  7  1       -2 0.276655910796D-02 0.100000000000D+01
-.236972884343D-04 0.000000000000D+00 -.166866604954D-05 0.220378804890D-06 0.000000000000D+00  7 -2 1 -24 -11 11 23 21 2 0.55058522D-01 0.13723211D+00 0.24971243D+06 0.24971243D+06 0.24971243D+06 0.10904967D+01  1  2  3  1  7  1       -2 -.179423325726D-03 0.100000000000D+01
0.276084205826D-04 0.000000000000D+00 0.000000000000D+00 0.220378804890D-06 0.000000000000D+00  7 -2 1 -24 -11 11 23 21 2 0.55058522D-01 0.13723211D+00 0.24971243D+06 0.24971243D+06 0.24971243D+06 0.10904967D+01  1  2 15  1  7  1       -2 0.209036348302D-03 0.100000000000D+01
  </mgrwgt>
  </event>
  <event>
  8     66 0.26562228E-05 0.19785379E+03 0.75467711E-02 0.98993635E-01
       -2 -1    0    0    0  501 0.00000000E+00 0.00000000E+00 0.11120270E+03 0.11120316E+03 0.32000000E+00 0.0000E+00 0.9000E+01
        1 -1    0    0  501    0 0.00000000E+00 0.00000000E+00 -.17811644E+04 0.17811644E+04 0.32000000E+00 0.0000E+00 0.9000E+01
       25  2    1    2    0    0 -.25304880E+03 -.11013730E+03 -.33730883E+03 0.52906469E+03 0.29994712E+03 0.0000E+00 0.0000E+00
       23  2    3    3    0    0 -.13578162E+03 0.54040443E+02 -.68891098E+02 0.18111461E+03 0.81850488E+02 0.0000E+00 0.0000E+00
      -24  1    1    2    0    0 0.25304880E+03 0.11013730E+03 -.13326529E+04 0.13633029E+04 0.80419002E+02 0.0000E+00 0.9000E+01
      -13  1    4    4    0    0 -.12198011E+03 0.74141308E+02 -.54458981E+02 0.15278047E+03 0.10565837E+00 0.0000E+00 0.9000E+01
       13  1    4    4    0    0 -.13801509E+02 -.20100865E+02 -.14432117E+02 0.28334142E+02 0.10565837E+00 0.0000E+00 0.9000E+01
       23  1    3    3    0    0 -.11726718E+03 -.16417774E+03 -.26841774E+03 0.34795008E+03 0.91188000E+02 0.0000E+00 0.9000E+01
#aMCatNLO 1  0  0  2  1 0.17203982D+02 0.00000000D+00  -5  7  0 0.00000000D+00 0.00000000D+00 0.00000000D+00 0.00000000D+00 0.00000000D+00
  <mgrwgt>
 0.5414135143D-02    9    2    0
 0.445051406569911D+03 0.000000000000000D+00 0.000000000000000D+00 0.445051406569911D+03
 0.445051406569911D+03 0.000000000000000D+00 0.000000000000000D+00 -.445051406569911D+03
 0.398146116866432D+03 0.253048800338690D+03 0.110137301097240D+03 -.275479933889228D+03
 0.222640214226364D+03 -.121980289575270D+03 0.741414653713141D+02 0.170858178201949D+03
 0.331616168201706D+02 -.138013288958239D+02 -.201010220739884D+02 0.224758773447923D+02
 0.236154865226854D+03 -.117267181867596D+03 -.164177744394565D+03 0.821458783424876D+02
 0.000000000000000D+00 -.000000000000000D+00 0.000000000000000D+00 -.000000000000000D+00
 0.453159486937954D+03 0.000000000000000D+00 0.000000000000000D+00 0.453159486937954D+03
 0.454355044247184D+03 0.000000000000000D+00 0.000000000000000D+00 -.454355044247184D+03
 0.397077286106567D+03 0.254534159282525D+03 0.102597870202606D+03 -.275479933889228D+03
 0.220820085706715D+03 -.121151971746244D+03 0.699370641007284D+02 0.170858178201949D+03
 0.334974349633198D+02 -.136768197096204D+02 -.207330096545155D+02 0.224758773447923D+02
 0.238874250846167D+03 -.116379898189194D+03 -.168681446348233D+03 0.821458783424876D+02
 0.172454735623687D+02 -.332546963746617D+01 0.168795216994142D+02 -.119555730922972D+01
0.119039888866D-03 0.000000000000D+00 0.000000000000D+00 0.262664858166D-06 0.000000000000D+00  7 -2 1 -24 -13 13 23 21 0 0.17108145D-01 0.27402533D+00 0.11424115D+06 0.11424115D+06 0.11424115D+06 0.11170077D+01  1  2  2  2  7  2        1 0.151158763720D-02 0.100000000000D+01
-.600454674886D-05 0.000000000000D+00 -.457144517168D-06 0.262664858166D-06 0.000000000000D+00  7 -2 1 -24 -13 13 23 21 2 0.17108145D-01 0.27402533D+00 0.11424115D+06 0.11424115D+06 0.11424115D+06 0.11170077D+01  1  2  3  2  7  2        1 -.951334789783D-04 0.100000000000D+01
0.761469293093D-05 0.000000000000D+00 0.000000000000D+00 0.262664858166D-06 0.000000000000D+00  7 -2 1 -24 -13 13 23 21 2 0.17108145D-01 0.27402533D+00 0.11424115D+06 0.11424115D+06 0.11424115D+06 0.11170077D+01  1  2 15  2  7  2        1 0.120643948689D-03 0.100000000000D+01
0.153883159792D-03 0.000000000000D+00 0.000000000000D+00 0.262664858166D-06 0.000000000000D+00  7 -2 1 -24 -13 13 23 21 2 0.17108145D-01 0.28220134D+00 0.11978885D+06 0.11978885D+06 0.11978885D+06 0.11153433D+01  1  2 12  2  7  2        1 0.224002927105D-02 0.100000000000D+01
-.123141198886D-03 0.000000000000D+00 0.000000000000D+00 0.262664858166D-06 0.000000000000D+00  7 -2 1 -24 -13 13 23 21 2 0.17108145D-01 0.27402533D+00 0.11424115D+06 0.11424115D+06 0.11424115D+06 0.11170077D+01  1  2  4  2  7  2        1 -.195099666063D-02 0.100000000000D+01
-.277233303541D-02 0.000000000000D+00 -.407508015807D-03 0.262664858166D-06 0.000000000000D+00  7 -2 1 -24 -13 13 23 21 2 0.17108145D-01 0.28253729D+00 0.11424115D+06 0.11424115D+06 0.11424115D+06 0.11170077D+01  1  2  5  2  7  2        1 -.404091342708D-01 0.100000000000D+01
0.278368677469D-02 0.000000000000D+00 0.407317427790D-03 0.262664858166D-06 0.000000000000D+00  7 -2 1 -24 -13 13 23 21 2 0.17108145D-01 0.27402533D+00 0.11424115D+06 0.11424115D+06 0.11424115D+06 0.11170077D+01  1  2  6  2  7  2        1 0.441035465853D-01 0.100000000000D+01
0.297345513314D-05 0.000000000000D+00 0.000000000000D+00 0.262664858166D-06 0.000000000000D+00  7 -2 21 -24 -13 13 23 -1 2 0.17108145D-01 0.28220134D+00 0.11978885D+06 0.11978885D+06 0.11978885D+06 0.11153433D+01  1  2 12  4  7  2        1 0.261212935015D-04 0.100000000000D+01
-.150584718757D-04 0.000000000000D+00 -.223368438550D-05 0.262664858166D-06 0.000000000000D+00  7 -2 21 -24 -13 13 23 -1 2 0.17108145D-01 0.28253729D+00 0.11424115D+06 0.11424115D+06 0.11424115D+06 0.11170077D+01  1  2  5  4  7  2        1 -.132529182762D-03 0.100000000000D+01
  </mgrwgt>
  </event>
  <event>
  8     66 0.26562228E-05 0.21525925E+03 0.75467711E-02 0.94130636E-01
       -2 -1    0    0    0  501 0.00000000E+00 0.00000000E+00 0.20585689E+03 0.20585714E+03 0.32000000E+00 0.0000E+00 0.9000E+01
        1 -1    0    0  501    0 0.00000000E+00 0.00000000E+00 -.96032018E+03 0.96032023E+03 0.32000000E+00 0.0000E+00 0.9000E+01
       25  2    1    2    0    0 -.13123777E+03 -.31818081E+03 -.17864176E+03 0.49052951E+03 0.30040628E+03 0.0000E+00 0.0000E+00
       23  2    3    3    0    0 -.11476935E+03 -.21496617E+03 -.22524982E+03 0.34420099E+03 0.91402288E+02 0.0000E+00 0.0000E+00
      -24  1    1    2    0    0 0.13123777E+03 0.31818081E+03 -.57582153E+03 0.67564787E+03 0.80419002E+02 0.0000E+00 0.9000E+01
      -11  1    4    4    0    0 -.38718736E+02 -.12730450E+03 -.16939308E+03 0.21540565E+03 0.51099893E-03 0.0000E+00 0.9000E+01
       11  1    4    4    0    0 -.76050616E+02 -.87661665E+02 -.55856744E+02 0.12879534E+03 0.51099893E-03 0.0000E+00 0.9000E+01
       23  1    3    3    0    0 -.16468422E+02 -.10321465E+03 0.46608069E+02 0.14632852E+03 0.91188000E+02 0.0000E+00 0.9000E+01
#aMCatNLO 1  0  0  2  1 0.26108302D+03 0.00000000D+00  -5  7  0 0.00000000D+00 0.00000000D+00 0.00000000D+00 0.00000000D+00 0.00000000D+00
  <mgrwgt>
 0.1830234728D-02    8    2    0
 0.444621976492632D+03 0.000000000000000D+00 0.000000000000000D+00 0.444621976492632D+03
 0.444621976492632D+03 0.000000000000000D+00 0.000000000000000D+00 -.444621976492632D+03
 0.397516387987647D+03 0.131237773760917D+03 0.318180814584906D+03 -.181905686367247D+03
 0.138769939495404D+03 -.387187359983018D+02 -.127304501688777D+03 -.393893315508661D+02
 0.121514852154256D+03 -.760506157737684D+02 -.876616645046313D+02 0.360221558319145D+02
 0.231442773347959D+03 -.164684219888467D+02 -.103214648391498D+03 0.185272862086198D+03
 0.000000000000000D+00 0.000000000000000D+00 -.000000000000000D+00 -.000000000000000D+00
 0.520346834325003D+03 0.000000000000000D+00 0.000000000000000D+00 0.520346834325003D+03
 0.762579590644799D+03 0.000000000000000D+00 0.000000000000000D+00 -.762579590644799D+03
 0.409464214808699D+03 0.219937400847863D+02 0.357239868882068D+03 -.181905686367247D+03
 0.142748124491306D+03 -.768289071176991D+02 -.113678611167014D+03 -.393893315508661D+02
 0.139004071745898D+03 -.111318053426170D+03 -.750521634103127D+02 0.360221558319145D+02
 0.235562500546142D+03 -.796887022427115D+02 -.806109026671480D+02 0.185272862086198D+03
 0.356147513377758D+03 0.245841922701794D+03 -.878981916375934D+02 -.242232756319796D+03
0.638111078068D-04 0.000000000000D+00 0.000000000000D+00 0.588512561806D-05 0.000000000000D+00  7 -2 1 -24 -11 11 23 21 0 0.31670314D-01 0.14774159D+00 0.13737264D+06 0.13737264D+06 0.13737264D+06 0.11105784D+01  1  2  2  2  7  2        1 0.104154178702D-02 0.100000000000D+01
-.340229075119D-05 0.000000000000D+00 -.245051455829D-06 0.588512561806D-05 0.000000000000D+00  7 -2 1 -24 -11 11 23 21 2 0.31670314D-01 0.14774159D+00 0.13737264D+06 0.13737264D+06 0.13737264D+06 0.11105784D+01  1  2  3  2  7  2        1 -.684936431443D-04 0.100000000000D+01
0.410125231283D-05 0.000000000000D+00 0.000000000000D+00 0.588512561806D-05 0.000000000000D+00  7 -2 1 -24 -11 11 23 21 2 0.31670314D-01 0.14774159D+00 0.13737264D+06 0.13737264D+06 0.13737264D+06 0.11105784D+01  1  2 15  2  7  2        1 0.825648755213D-04 0.100000000000D+01
0.902524945471D-05 0.000000000000D+00 0.000000000000D+00 0.588512561806D-05 0.000000000000D+00  7 -2 1 -24 -11 11 23 21 2 0.31670314D-01 0.25840292D+00 0.27293389D+06 0.27293389D+06 0.27293389D+06 0.10876031D+01  1  2 12  2  7  2        1 0.536355208298D-04 0.100000000000D+01
-.408393537407D-04 0.000000000000D+00 -.201416940621D-04 0.588512561806D-05 0.000000000000D+00  7 -2 1 -24 -11 11 23 21 2 0.31670314D-01 0.27219845D+00 0.13737264D+06 0.13737264D+06 0.13737264D+06 0.11105784D+01  1  2  5  2  7  2        1 -.227571951122D-03 0.100000000000D+01
0.472921483962D-04 0.000000000000D+00 0.168891258008D-04 0.588512561806D-05 0.000000000000D+00  7 -2 1 -24 -11 11 23 21 2 0.31670314D-01 0.14774159D+00 0.13737264D+06 0.13737264D+06 0.13737264D+06 0.11105784D+01  1  2  6  2  7  2        1 0.952067819199D-03 0.100000000000D+01
0.557408788989D-06 0.000000000000D+00 0.000000000000D+00 0.588512561806D-05 0.000000000000D+00  7 -2 21 -24 -11 11 23 -1 2 0.31670314D-01 0.25840292D+00 0.27293389D+06 0.27293389D+06 0.27293389D+06 0.10876031D+01  1  2 12  4  7  2        1 0.219205760250D-05 0.100000000000D+01
-.161714481670D-05 0.000000000000D+00 -.134357200827D-05 0.588512561806D-05 0.000000000000D+00  7 -2 21 -24 -11 11 23 -1 2 0.31670314D-01 0.27219845D+00 0.13737264D+06 0.13737264D+06 0.13737264D+06 0.11105784D+01  1  2  5  4  7  2        1 -.570173751244D-05 0.100000000000D+01
  </mgrwgt>
  </event>
  <event>
  8     66 0.26562228E-05 0.87165704E+02 0.75467711E-02 0.10469183E+00
       -2 -1    0    0    0  501 0.00000000E+00 0.00000000E+00 0.46988139E+03 0.46988150E+03 0.32000000E+00 0.0000E+00 0.9000E+01
        1 -1    0    0  501    0 0.00000000E+00 0.00000000E+00 -.90716697E+02 0.90717261E+02 0.32000000E+00 0.0000E+00 0.9000E+01
       25  2    1    2    0    0 -.57284744E+02 0.24824215E+02 0.31755373E+03 0.44159914E+03 0.30045240E+03 0.0000E+00 0.0000E+00
       23  2    3    3    0    0 -.85067594E+02 0.12809654E+03 0.17349228E+03 0.24033808E+03 0.63384564E+02 0.0000E+00 0.0000E+00
      -24  1    1    2    0    0 0.57284744E+02 -.24824215E+02 0.61610972E+02 0.11899963E+03 0.80419002E+02 0.0000E+00 0.9000E+01
      -13  1    4    4    0    0 -.19659796E+02 0.28810298E+02 0.85750969E+02 0.92573111E+02 0.10565837E+00 0.0000E+00 0.9000E+01
       13  1    4    4    0    0 -.65407798E+02 0.99286244E+02 0.87741314E+02 0.14776497E+03 0.10565837E+00 0.0000E+00 0.9000E+01
       23  1    3    3    0    0 0.27782850E+02 -.10327233E+03 0.14406144E+03 0.20126105E+03 0.91188000E+02 0.0000E+00 0.9000E+01
#aMCatNLO 1  0  0  1  2 0.50798412D+02 0.00000000D+00  -5  7  0 0.00000000D+00 0.00000000D+00 0.00000000D+00 0.00000000D+00 0.00000000D+00
  <mgrwgt>
 0.2272196375D-02    9    2    0
 0.206461319918567D+03 0.000000000000000D+00 0.000000000000000D+00 0.206461319918567D+03
 0.206461319918567D+03 0.000000000000000D+00 0.000000000000000D+00 -.206461319918567D+03
 0.104984216206632D+03 0.572848115705573D+02 -.248242438993125D+02 -.256257092839105D+02
 0.469398998653732D+02 -.196596812876427D+02 0.288101052644933D+02 0.314138339858158D+02
 0.120043144347450D+03 -.654079338206186D+02 0.992864234923207D+02 -.165639611278184D+02
 0.140955379417678D+03 0.277828035377040D+02 -.103272284857502D+03 0.107758364259131D+02
 0.000000000000000D+00 0.000000000000000D+00 0.000000000000000D+00 0.000000000000000D+00
 0.275168075457829D+03 0.000000000000000D+00 0.000000000000000D+00 0.275168075457829D+03
 0.217624879571791D+03 0.000000000000000D+00 0.000000000000000D+00 -.217624879571791D+03
 0.107776039544244D+03 0.553953315641078D+02 -.377245147095479D+02 -.256257092839105D+02
 0.441374217844034D+02 -.204685202208865D+02 0.232878233429639D+02 0.314138339858158D+02
 0.110028816101916D+03 -.674511555105884D+02 0.853364938630112D+02 -.165639611278184D+02
 0.154093280138911D+03 0.251625371670213D+02 -.121161940033202D+03 0.107758364259131D+02
 0.767573974601462D+02 0.736180700034577D+01 0.502621375367746D+02 0.575431958860373D+02
0.198101539624D-04 0.000000000000D+00 0.000000000000D+00 0.786547284366D-09 0.000000000000D+00  7 -2 1 -24 -13 13 23 21 0 0.72289497D-01 0.13956467D-01 0.39228786D+05 0.39228786D+05 0.39228786D+05 0.11566802D+01  1  2  2  1  7  1       -2 0.164605793611D-02 0.100000000000D+01
-.109825618537D-05 0.000000000000D+00 -.760762073490D-07 0.786547284366D-09 0.000000000000D+00  7 -2 1 -24 -13 13 23 21 2 0.72289497D-01 0.13956467D-01 0.39228786D+05 0.39228786D+05 0.39228786D+05 0.11566802D+01  1  2  3  1  7  1       -2 -.122092092080D-03 0.100000000000D+01
0.129320309059D-05 0.000000000000D+00 0.000000000000D+00 0.786547284366D-09 0.000000000000D+00  7 -2 1 -24 -13 13 23 21 2 0.72289497D-01 0.13956467D-01 0.39228786D+05 0.39228786D+05 0.39228786D+05 0.11566802D+01  1  2 15  1  7  1       -2 0.143764153499D-03 0.100000000000D+01
0.297965581451D-04 0.000000000000D+00 0.000000000000D+00 0.786547284366D-09 0.000000000000D+00  7 -2 1 -24 -13 13 23 21 2 0.97816678D-01 0.13956467D-01 0.50395565D+05 0.50395565D+05 0.50395565D+05 0.11469945D+01  1  2 12  1  7  1       -2 0.165316046397D-02 0.100000000000D+01
-.308911752338D-04 0.000000000000D+00 0.000000000000D+00 0.786547284366D-09 0.000000000000D+00  7 -2 1 -24 -13 13 23 21 2 0.72289497D-01 0.13956467D-01 0.39228786D+05 0.39228786D+05 0.39228786D+05 0.11566802D+01  1  2  4  1  7  1       -2 -.343414247182D-02 0.100000000000D+01
-.427121881046D-04 0.000000000000D+00 -.907861204186D-05 0.786547284366D-09 0.000000000000D+00  7 -2 1 -24 -13 13 23 21 2 0.99617071D-01 0.13956467D-01 0.39228786D+05 0.39228786D+05 0.39228786D+05 0.11566802D+01  1  2  5  1  7  1       -2 -.230971500784D-02 0.100000000000D+01
0.437997322697D-04 0.000000000000D+00 0.863107588685D-05 0.786547284366D-09 0.000000000000D+00  7 -2 1 -24 -13 13 23 21 2 0.72289497D-01 0.13956467D-01 0.39228786D+05 0.39228786D+05 0.39228786D+05 0.11566802D+01  1  2  6  1  7  1       -2 0.486917443908D-02 0.100000000000D+01
0.115848729447D-05 0.000000000000D+00 0.000000000000D+00 0.786547284366D-09 0.000000000000D+00  7 21 1 -24 -13 13 23 2 2 0.97816678D-01 0.13956467D-01 0.50395565D+05 0.50395565D+05 0.50395565D+05 0.11469945D+01  1  2 12  3  7  1       -2 0.631169317889D-03 0.100000000000D+01
-.150685638949D-05 0.000000000000D+00 -.368201561905D-06 0.786547284366D-09 0.000000000000D+00  7 21 1 -24 -13 13 23 2 2 0.99617071D-01 0.13956467D-01 0.39228786D+05 0.39228786D+05 0.39228786D+05 0.11566802D+01  1  2  5  3  7  1       -2 -.805180363679D-03 0.100000000000D+01
  </mgrwgt>
  </event>
  <event>
  9     66 0.26562228E-05 0.24289783E+03 0.75467711E-02 0.10159424E+00
       21 -1    0    0  502  501 0.00000000E+00 0.00000000E+00 0.23217156E+03 0.23217277E+03 0.75000000E+00 0.0000E+00 0.9000E+01
        1 -1    0    0  501    0 0.00000000E+00 0.00000000E+00 -.55892450E+03 0.55892459E+03 0.32000000E+00 0.0000E+00 0.9000E+01
       25  2    1    2    0    0 0.67884135E+02 -.81166829E+02 -.36560773E+03 0.48393216E+03 0.29887290E+03 0.0000E+00 0.0000E+00
       23  2    3    3    0    0 0.11798594E+03 -.12949848E+03 -.26524964E+03 0.33150796E+03 0.94072406E+02 0.0000E+00 0.0000E+00
      -24  1    1    2    0    0 -.75439083E+02 0.15017132E+03 0.10279908E+03 0.21278474E+03 0.80419002E+02 0.0000E+00 0.9000E+01
      -13  1    4    4    0    0 0.26962747E+02 0.90233758E+01 -.68994751E+02 0.74623708E+02 0.10565837E+00 0.0000E+00 0.9000E+01
       13  1    4    4    0    0 0.91023194E+02 -.13852185E+03 -.19625489E+03 0.25688425E+03 0.10565837E+00 0.0000E+00 0.9000E+01
       23  1    3    3    0    0 -.50101807E+02 0.48331648E+02 -.10035809E+03 0.15242420E+03 0.91188000E+02 0.0000E+00 0.9000E+01
        2  1    1    2  502    0 0.75549479E+01 -.69004490E+02 -.63944280E+02 0.94380455E+02 0.32000000E+00 0.0000E+00 0.9000E+01
#aMCatNLO 2  0  0  1  2 0.69416835D+02 0.00000000D+00  -5  7  0 0.00000000D+00 0.00000000D+00 0.00000000D+00 0.00000000D+00 0.00000000D+00
  <mgrwgt>
 0.3042700667D-03    1    2    0
 0.320751992168690D+03 0.000000000000000D+00 0.000000000000000D+00 0.320751992168690D+03
 0.320751992168690D+03 0.000000000000000D+00 0.000000000000000D+00 -.320751992168690D+03
 0.256171102369267D+03 -.723402049755139D+02 0.121867156808388D+03 0.197665648432537D+03
 0.521276544520381D+02 0.275768190761644D+02 0.341407984281569D+01 -.441039166870525D+02
 0.214565392995655D+03 0.934422981766993D+02 -.160616611524261D+03 -.107280701364697D+03
 0.118639834520420D+03 -.486789122773498D+02 0.353353748730572D+02 -.462810303807870D+02
 0.000000000000000D+00 0.000000000000000D+00 -.000000000000000D+00 -.000000000000000D+00
 0.345254340728346D+03 0.000000000000000D+00 0.000000000000000D+00 0.345254340728346D+03
 0.375858103322468D+03 0.000000000000000D+00 0.000000000000000D+00 -.375858103322468D+03
 0.271627327489459D+03 -.754390826931292D+02 0.150171319887851D+03 0.197665648432537D+03
 0.524744265463346D+02 0.269626659455671D+02 0.902355912796924D+01 -.441039166870525D+02
 0.197440473962828D+03 0.910232765797874D+02 -.138522037936368D+03 -.107280701364697D+03
 0.123706606824689D+03 -.501018077323984D+02 0.483316492261192D+02 -.462810303807870D+02
 0.758636092275040D+02 0.755494790017301D+01 -.690044903055717D+02 -.306037625941217D+02
0.676353509913D-06 0.000000000000D+00 0.000000000000D+00 0.182536223062D-06 0.382562242216D-11  7 21 1 -24 -13 13 23 2 2 0.35718768D-01 0.85988402D-01 0.79701610D+05 0.79701610D+05 0.79701610D+05 0.11298986D+01  1  2  1  3  7  1       -2 0.304270066743D-03 0.100000000000D+01
  </mgrwgt>
  </event>
  <event>
  8     66 0.26562228E-05 0.15251927E+03 0.75467711E-02 0.97805571E-01
       -2 -1    0    0    0  501 0.00000000E+00 0.00000000E+00 0.38120583E+02 0.38121926E+02 0.32000000E+00 0.0000E+00 0.9000E+01
        1 -1    0    0  501    0 0.00000000E+00 0.00000000E+00 -.15477844E+04 0.15477844E+04 0.32000000E+00 0.0000E+00 0.9000E+01
       25  2    1    2    0    0 -.49342675E+01 0.79787329E+02 -.67249686E+03 0.74109509E+03 0.30096433E+03 0.0000E+00 0.0000E+00
       23  2    3    3    0    0 0.21413830E+02 -.94506817E+00 -.28132901E+02 0.84793241E+02 0.77064833E+02 0.0000E+00 0.0000E+00
      -24  1    1    2    0    0 0.49342675E+01 -.79787329E+02 -.83716691E+03 0.84481123E+03 0.80419002E+02 0.0000E+00 0.9000E+01
      -11  1    4    4    0    0 0.23071272E+02 -.30051038E+02 -.38343868E+02 0.53903624E+02 0.51099893E-03 0.0000E+00 0.9000E+01
       11  1    4    4    0    0 -.16574419E+01 0.29105970E+02 0.10210967E+02 0.30889617E+02 0.51099893E-03 0.0000E+00 0.9000E+01
       23  1    3    3    0    0 -.26348097E+02 0.80732397E+02 -.64436396E+03 0.65630184E+03 0.91188000E+02 0.0000E+00 0.9000E+01
#aMCatNLO 1  0  0  2  1 0.32372151D+03 0.00000000D+00  -5  7  0 0.00000000D+00 0.00000000D+00 0.00000000D+00 0.00000000D+00 0.00000000D+00
  <mgrwgt>
 0.2704018720D-02    5    2    0
 0.242906429776956D+03 0.000000000000000D+00 0.000000000000000D+00 0.242906429776956D+03
 0.242906429776956D+03 0.000000000000000D+00 0.000000000000000D+00 -.242906429776956D+03
 0.156337793973886D+03 0.493426747920231D+01 -.797873293519665D+02 -.107628643722641D+03
 0.568114836118324D+02 0.230712715182472D+02 -.300510382060199D+02 0.423343383490182D+02
 0.132567850789182D+03 -.165744192154956D+01 0.291059700689676D+02 0.129322582929216D+03
 0.140095731179012D+03 -.263480970758999D+02 0.807323974890188D+02 -.640282775555928D+02
 0.000000000000000D+00 0.000000000000000D+00 -.000000000000000D+00 -.000000000000000D+00
 0.351297410216930D+03 0.000000000000000D+00 0.000000000000000D+00 0.351297410216930D+03
 0.732932414301858D+03 0.000000000000000D+00 0.000000000000000D+00 -.732932414301858D+03
 0.152899777479032D+03 -.693272111700931D+02 -.228240846600455D+02 -.107628643722641D+03
 0.438832118353416D+02 -.110993305180012D+01 -.115025269465815D+02 0.423343383490182D+02
 0.171984013878622D+03 -.747936772417609D+02 0.852060820538863D+02 0.129322582929216D+03
 0.215022126156467D+03 -.111627440904007D+03 0.146147040693043D+03 -.640282775555928D+02
 0.500440695169325D+03 0.256858262367661D+03 -.197026511140302D+03 -.381635004084928D+03
0.273415168272D-04 0.000000000000D+00 0.000000000000D+00 0.307277581691D-08 0.000000000000D+00  7 -2 1 -24 -11 11 23 21 0 0.58648110D-02 0.23812078D+00 0.23262129D+05 0.23262129D+05 0.23262129D+05 0.11777266D+01  1  2  2  2  7  2        1 0.262622126463D-02 0.100000000000D+01
-.111897594045D-05 0.000000000000D+00 -.104998623803D-06 0.307277581691D-08 0.000000000000D+00  7 -2 1 -24 -11 11 23 21 2 0.58648110D-02 0.23812078D+00 0.23262129D+05 0.23262129D+05 0.23262129D+05 0.11777266D+01  1  2  3  2  7  2        1 -.149079661216D-03 0.100000000000D+01
0.170056976175D-05 0.000000000000D+00 0.000000000000D+00 0.307277581691D-08 0.000000000000D+00  7 -2 1 -24 -11 11 23 21 2 0.58648110D-02 0.23812078D+00 0.23262129D+05 0.23262129D+05 0.23262129D+05 0.11777266D+01  1  2 15  2  7  2        1 0.226564624662D-03 0.100000000000D+01
0.115690522520D-05 0.000000000000D+00 -.751620284931D-05 0.307277581691D-08 0.000000000000D+00  7 -2 1 -24 -11 11 23 21 2 0.58648110D-02 0.75088181D+00 0.23262129D+05 0.23262129D+05 0.23262129D+05 0.11777266D+01  1  2  5  2  7  2        1 0.306818095826D-06 0.100000000000D+01
0.489979768793D-06 0.000000000000D+00 -.991414279257D-06 0.307277581691D-08 0.000000000000D+00  7 -2 21 -24 -11 11 23 -1 2 0.58648110D-02 0.75088181D+00 0.23262129D+05 0.23262129D+05 0.23262129D+05 0.11777266D+01  1  2  5  4  7  2        1 0.567409086388D-08 0.100000000000D+01
  </mgrwgt>
  </event>
  <event>
  8     66 0.26562228E-05 0.33479095E+03 0.75467711E-02 0.92849258E-01
       -2 -1    0    0    0  501 0.00000000E+00 0.00000000E+00 0.11397738E+04 0.11397739E+04 0.32000000E+00 0.0000E+00 0.9000E+01
        1 -1    0    0  501    0 0.00000000E+00 0.00000000E+00 -.16408280E+03 0.16408311E+03 0.32000000E+00 0.0000E+00 0.9000E+01
       25  2    1    2    0    0 -.18168860E+03 0.20288729E+03 0.93268871E+03 0.10166455E+04 0.29914199E+03 0.0000E+00 0.0000E+00
       23  2    3    3    0    0 -.22191473E+03 0.14376474E+03 0.74800049E+03 0.79861204E+03 0.91444025E+02 0.0000E+00 0.0000E+00
      -24  1    1    2    0    0 0.18168860E+03 -.20288729E+03 0.43002332E+02 0.28721145E+03 0.80419002E+02 0.0000E+00 0.9000E+01
      -13  1    4    4    0    0 -.14021962E+02 0.29110922E+02 0.18183279E+03 0.18468144E+03 0.10565837E+00 0.0000E+00 0.9000E+01
       13  1    4    4    0    0 -.20789277E+03 0.11465381E+03 0.56616771E+03 0.61393060E+03 0.10565837E+00 0.0000E+00 0.9000E+01
       23  1    3    3    0    0 0.40226130E+02 0.59122554E+02 0.18468821E+03 0.21803350E+03 0.91188000E+02 0.0000E+00 0.9000E+01
#aMCatNLO 1  0  0  1  2 0.39836952D+03 0.00000000D+00  -5  7  0 0.00000000D+00 0.00000000D+00 0.00000000D+00 0.00000000D+00 0.00000000D+00
  <mgrwgt>
 0.1184483879D-02    3    2    0
 0.432455212726492D+03 0.000000000000000D+00 0.000000000000000D+00 0.432455212726492D+03
 0.432455212726492D+03 0.000000000000000D+00 0.000000000000000D+00 -.432455212726492D+03
 0.384462547970371D+03 0.181688600672715D+03 -.202887290482227D+03 -.259172210284726D+03
 0.732854161198318D+02 -.140217029163138D+02 0.291108082652735D+02 0.657776930678329D+02
 0.286819521688174D+03 -.207893028091543D+03 0.114653928032878D+03 0.160936023559034D+03
 0.120342939674607D+03 0.402261303351411D+02 0.591225541840751D+02 0.324584936578601D+02
 0.000000000000000D+00 -.000000000000000D+00 -.000000000000000D+00 -.000000000000000D+00
 0.556200996405756D+03 0.000000000000000D+00 0.000000000000000D+00 0.556200996405756D+03
 0.971564263788642D+03 0.000000000000000D+00 0.000000000000000D+00 -.971564263788642D+03
 0.473143341319602D+03 0.360061992302991D+03 -.143466137452839D+03 -.259172210284726D+03
 0.787957898272312D+02 0.176096569504651D+02 0.396480966914946D+02 0.657776930678329D+02
 0.241625677320688D+03 -.979817464467921D+02 0.151268442263825D+03 0.160936023559034D+03
 0.158679023170889D+03 0.982598897503119D+02 0.784552184764450D+02 0.324584936578601D+02
 0.575521428555989D+03 -.377949792556976D+03 -.125905619978925D+03 -.415363267382886D+03
0.278222532273D-03 0.000000000000D+00 0.000000000000D+00 0.340536420310D-05 0.000000000000D+00  7 -2 1 -24 -13 13 23 21 0 0.17534985D+00 0.25243535D-01 0.11208498D+06 0.11208498D+06 0.11208498D+06 0.11176786D+01  1  2  2  1  7  1       -2 0.116523096137D-02 0.100000000000D+01
-.142254396600D-04 0.000000000000D+00 -.106844778160D-05 0.340536420310D-05 0.000000000000D+00  7 -2 1 -24 -13 13 23 21 2 0.17534985D+00 0.25243535D-01 0.11208498D+06 0.11208498D+06 0.11208498D+06 0.11176786D+01  1  2  3  1  7  1       -2 -.744250813914D-04 0.100000000000D+01
0.179053983434D-04 0.000000000000D+00 0.000000000000D+00 0.340536420310D-05 0.000000000000D+00  7 -2 1 -24 -13 13 23 21 2 0.17534985D+00 0.25243535D-01 0.11208498D+06 0.11208498D+06 0.11208498D+06 0.11176786D+01  1  2 15  1  7  1       -2 0.936779994787D-04 0.100000000000D+01
  </mgrwgt>
  </event>
  <event>
  8     66 0.26562228E-05 0.14700007E+03 0.75467711E-02 0.10373492E+00
       -2 -1    0    0    0  501 0.00000000E+00 0.00000000E+00 0.42965109E+03 0.42965121E+03 0.32000000E+00 0.0000E+00 0.9000E+01
        1 -1    0    0  501    0 0.00000000E+00 0.00000000E+00 -.57466272E+03 0.57466281E+03 0.32000000E+00 0.0000E+00 0.9000E+01
       25  2    1    2    0    0 -.16037365E+03 -.19902533E+02 -.50073286E+03 0.60541474E+03 0.29946250E+03 0.0000E+00 0.0000E+00
       23  2    3    3    0    0 -.14970405E+03 -.64192538E+02 -.14891103E+03 0.23912346E+03 0.92051891E+02 0.0000E+00 0.0000E+00
      -24  1    1    2    0    0 0.16037365E+03 0.19902533E+02 0.35572123E+03 0.39889927E+03 0.80419002E+02 0.0000E+00 0.9000E+01
      -11  1    4    4    0    0 0.36416877E+01 -.14368714E+02 -.44816415E+02 0.47204162E+02 0.51099893E-03 0.0000E+00 0.9000E+01
       11  1    4    4    0    0 -.15334574E+03 -.49823824E+02 -.10409461E+03 0.19191930E+03 0.51099893E-03 0.0000E+00 0.9000E+01
       23  1    3    3    0    0 -.10669602E+02 0.44290005E+02 -.35182184E+03 0.36629128E+03 0.91188000E+02 0.0000E+00 0.9000E+01
#aMCatNLO 1  0  0  1  2 0.18561770D+02 0.00000000D+00  -5  7  0 0.00000000D+00 0.00000000D+00 0.00000000D+00 0.00000000D+00 0.00000000D+00
  <mgrwgt>
 0.1272610248D-02    9    2    0
 0.496894924830536D+03 0.000000000000000D+00 0.000000000000000D+00 0.496894924830536D+03
 0.496894924830536D+03 0.000000000000000D+00 0.000000000000000D+00 -.496894924830536D+03
 0.455029650075049D+03 0.160373654758375D+03 0.199025330025968D+02 0.417694800700911D+03
 0.411645376301980D+02 0.364168771948478D+01 -.143687138221356D+02 -.384030901355517D+02
 0.178762455541693D+03 -.153345740084827D+03 -.498238238215470D+02 -.771925261209400D+02
 0.318833206414131D+03 -.106696023930326D+02 0.442900046410858D+02 -.302099184444419D+03
 0.000000000000000D+00 -.000000000000000D+00 0.000000000000000D+00 0.000000000000000D+00
 0.516330186694865D+03 0.000000000000000D+00 0.000000000000000D+00 0.516330186694865D+03
 0.501433325677900D+03 0.000000000000000D+00 0.000000000000000D+00 -.501433325677900D+03
 0.458082926666805D+03 0.168890363480335D+03 0.194897496177321D+02 0.417694800700911D+03
 0.412526483641413D+02 0.441040253590098D+01 -.144059714898891D+02 -.384030901355517D+02
 0.175977888005616D+03 -.150037035052309D+03 -.499841884069084D+02 -.771925261209400D+02
 0.318649717674092D+03 -.472372395703992D+01 0.440018229142089D+02 -.302099184444419D+03
 0.238003316621103D+02 -.185400070068869D+02 0.898587364856434D+00 0.148968610169646D+02
0.755245636394D-04 0.000000000000D+00 0.000000000000D+00 0.861571393607D-05 0.000000000000D+00  7 -2 1 -24 -11 11 23 21 0 0.66100183D-01 0.88409665D-01 0.52556106D+05 0.52556106D+05 0.52556106D+05 0.11453956D+01  1  2  2  1  7  1       -2 0.677331079541D-03 0.100000000000D+01
-.114309897116D-05 0.000000000000D+00 -.290034210449D-06 0.861571393607D-05 0.000000000000D+00  7 -2 1 -24 -11 11 23 21 2 0.66100183D-01 0.88409665D-01 0.52556106D+05 0.52556106D+05 0.52556106D+05 0.11453956D+01  1  2  3  1  7  1       -2 -.134495472770D-04 0.100000000000D+01
0.457424854850D-05 0.000000000000D+00 0.000000000000D+00 0.861571393607D-05 0.000000000000D+00  7 -2 1 -24 -11 11 23 21 2 0.66100183D-01 0.88409665D-01 0.52556106D+05 0.52556106D+05 0.52556106D+05 0.11453956D+01  1  2 15  1  7  1       -2 0.538199872992D-04 0.100000000000D+01
0.253529963511D-03 0.000000000000D+00 0.000000000000D+00 0.861571393607D-05 0.000000000000D+00  7 -2 1 -24 -11 11 23 21 2 0.68979924D-01 0.88409665D-01 0.57889083D+05 0.57889083D+05 0.57889083D+05 0.11417405D+01  1  2 12  1  7  1       -2 0.270167617584D-02 0.100000000000D+01
-.255271509692D-03 0.000000000000D+00 0.000000000000D+00 0.861571393607D-05 0.000000000000D+00  7 -2 1 -24 -11 11 23 21 2 0.66100183D-01 0.88409665D-01 0.52556106D+05 0.52556106D+05 0.52556106D+05 0.11453956D+01  1  2  4  1  7  1       -2 -.300348992054D-02 0.100000000000D+01
-.135656963622D-02 0.000000000000D+00 -.206508114427D-03 0.861571393607D-05 0.000000000000D+00  7 -2 1 -24 -11 11 23 21 2 0.69145905D-01 0.88409665D-01 0.52556106D+05 0.52556106D+05 0.52556106D+05 0.11453956D+01  1  2  5  1  7  1       -2 -.145164563515D-01 0.100000000000D+01
0.136469672925D-02 0.000000000000D+00 0.206298761971D-03 0.861571393607D-05 0.000000000000D+00  7 -2 1 -24 -11 11 23 21 2 0.66100183D-01 0.88409665D-01 0.52556106D+05 0.52556106D+05 0.52556106D+05 0.11453956D+01  1  2  6  1  7  1       -2 0.160568364085D-01 0.100000000000D+01
0.445371425330D-05 0.000000000000D+00 0.000000000000D+00 0.861571393607D-05 0.000000000000D+00  7 21 1 -24 -11 11 23 2 2 0.68979924D-01 0.88409665D-01 0.57889083D+05 0.57889083D+05 0.57889083D+05 0.11417405D+01  1  2 12  3  7  1       -2 0.491577013883D-03 0.100000000000D+01
-.105737578421D-04 0.000000000000D+00 -.163222109984D-05 0.861571393607D-05 0.000000000000D+00  7 21 1 -24 -11 11 23 2 2 0.69145905D-01 0.88409665D-01 0.52556106D+05 0.52556106D+05 0.52556106D+05 0.11453956D+01  1  2  5  3  7  1       -2 -.117523459820D-02 0.100000000000D+01
  </mgrwgt>
  </event>
  <event>
  9     66 0.26562228E-05 0.45910947E+03 0.75467711E-02 0.94669700E-01
       -2 -1    0    0    0  502 0.00000000E+00 0.00000000E+00 0.38281734E+03 0.38281748E+03 0.32000000E+00 0.0000E+00 0.9000E+01
        1 -1    0    0  501    0 0.00000000E+00 0.00000000E+00 -.84023213E+03 0.84023219E+03 0.32000000E+00 0.0000E+00 0.9000E+01
       25  2    1    2    0    0 0.36972877E+03 -.10029573E+03 0.49590899E+02 0.48986779E+03 0.30125173E+03 0.0000E+00 0.0000E+00
       23  2    3    3    0    0 0.23699508E+02 -.88205529E+02 0.86148266E+00 0.12852000E+03 0.90414416E+02 0.0000E+00 0.0000E+00
      -24  1    1    2    0    0 -.39507425E+03 0.17041166E+03 -.35388399E+03 0.56287200E+03 0.80419002E+02 0.0000E+00 0.9000E+01
      -11  1    4    4    0    0 -.79441074E+01 -.93405935E+02 0.12140873E+02 0.94526072E+02 0.51099893E-03 0.0000E+00 0.9000E+01
       11  1    4    4    0    0 0.31643616E+02 0.52004055E+01 -.11279390E+02 0.33993930E+02 0.51099893E-03 0.0000E+00 0.9000E+01
       23  1    3    3    0    0 0.34602926E+03 -.12090206E+02 0.48729416E+02 0.36134779E+03 0.91188000E+02 0.0000E+00 0.9000E+01
       21  1    1    2  501  502 0.25345485E+02 -.70115923E+02 -.15312170E+03 0.17030987E+03 0.75000000E+00 0.0000E+00 0.9000E+01
#aMCatNLO 2  0  0  1  2 0.74556262D+02 0.00000000D+00  -5  7  0 0.00000000D+00 0.00000000D+00 0.00000000D+00 0.00000000D+00 0.00000000D+00
  <mgrwgt>
 0.1507614590D-03    1    2    0
 0.502520686006996D+03 0.000000000000000D+00 0.000000000000000D+00 0.502520686006996D+03
 0.502520686006996D+03 0.000000000000000D+00 0.000000000000000D+00 -.502520686006996D+03
 0.460589382994528D+03 -.383216373965004D+03 0.137607947004193D+03 -.199711360266047D+03
 0.109004107446927D+03 -.528204935047609D+01 -.100770270604084D+03 0.412231483191186D+02
 0.326274270591417D+02 0.324587060329202D+02 0.294553416068028D+01 -.151829762443028D+01
 0.402820454513396D+03 0.356039717282560D+03 -.397832105607897D+02 0.160006509571359D+03
 0.000000000000000D+00 0.000000000000000D+00 -.000000000000000D+00 -.000000000000000D+00
 0.515472591741724D+03 0.000000000000000D+00 0.000000000000000D+00 0.515472591741724D+03
 0.623998731509423D+03 0.000000000000000D+00 0.000000000000000D+00 -.623998731509423D+03
 0.481119153426864D+03 -.395074250377365D+03 0.170411657785669D+03 -.199711360266047D+03
 0.102406667040133D+03 -.794410744929660D+01 -.934059347887631D+02 0.412231483191186D+02
 0.321040163185142D+02 0.316436157731644D+02 0.520040545567501D+01 -.151829762443028D+01
 0.392173118011798D+03 0.346029257392870D+03 -.120902055410508D+02 0.160006509571359D+03
 0.131668368453839D+03 0.253454846606264D+02 -.701159229115300D+02 -.108526139767699D+03
0.206985075016D-04 0.000000000000D+00 0.000000000000D+00 0.191215795720D-05 0.222351467007D-08  7 -2 1 -24 -11 11 23 21 2 0.58894871D-01 0.12926623D+00 0.24806657D+06 0.24806657D+06 0.24806657D+06 0.10907129D+01  1  2  1  1  7  1       -2 0.150761459026D-03 0.100000000000D+01
  </mgrwgt>
  </event>
  <event>
  8     66 0.26562228E-05 0.11593654E+03 0.75467711E-02 0.10110380E+00
       -2 -1    0    0    0  501 0.00000000E+00 0.00000000E+00 0.35311520E+02 0.35312970E+02 0.32000000E+00 0.0000E+00 0.9000E+01
        1 -1    0    0  501    0 0.00000000E+00 0.00000000E+00 -.34280213E+04 0.34280213E+04 0.32000000E+00 0.0000E+00 0.9000E+01
       25  2    1    2    0    0 0.13320668E+03 -.62534224E+02 -.31549049E+04 0.31723481E+04 0.29784795E+03 0.0000E+00 0.0000E+00
       23  2    3    3    0    0 0.70852490E+02 0.71261175E+01 -.47271010E+03 0.48697578E+03 0.92842458E+02 0.0000E+00 0.0000E+00
      -24  1    1    2    0    0 -.13320668E+03 0.62534224E+02 -.23780491E+03 0.29098615E+03 0.80419002E+02 0.0000E+00 0.9000E+01
      -13  1    4    4    0    0 0.80504868E+02 0.19174378E+02 -.45877223E+03 0.46617665E+03 0.10565837E+00 0.0000E+00 0.9000E+01
       13  1    4    4    0    0 -.96523787E+01 -.12048261E+02 -.13937862E+02 0.20799139E+02 0.10565837E+00 0.0000E+00 0.9000E+01
       23  1    3    3    0    0 0.62354189E+02 -.69660341E+02 -.26821948E+04 0.26853723E+04 0.91188000E+02 0.0000E+00 0.9000E+01
#aMCatNLO 1  0  0  2  1 0.17033147D+03 0.00000000D+00  -5  7  0 0.00000000D+00 0.00000000D+00 0.00000000D+00 0.00000000D+00 0.00000000D+00
  <mgrwgt>
 0.1043785783D-02    9    2    0
 0.347924099004440D+03 0.000000000000000D+00 0.000000000000000D+00 0.347924099004440D+03
 0.347924099004440D+03 0.000000000000000D+00 0.000000000000000D+00 -.347924099004440D+03
 0.288826307277251D+03 -.133206678427042D+03 0.625342240619155D+02 0.235157120803200D+03
 0.834155425496447D+02 0.805049841584133D+02 0.191744183151846D+02 -.104614505103032D+02
 0.355640849940375D+02 -.965249485477744D+01 -.120483006018895D+02 0.320386007364261D+02
 0.288042263187947D+03 0.623541891234065D+02 -.696603417752106D+02 -.256734271029323D+03
 0.000000000000000D+00 -.000000000000000D+00 0.000000000000000D+00 -.000000000000000D+00
 0.407377066370562D+03 0.000000000000000D+00 0.000000000000000D+00 0.407377066370562D+03
 0.505675611122175D+03 0.000000000000000D+00 0.000000000000000D+00 -.505675611122175D+03
 0.263082648492042D+03 -.671674318230299D+02 0.541749815049765D+02 0.235157120803200D+03
 0.104839060889090D+03 0.103030786740294D+03 0.163231040247483D+02 -.104614505103032D+02
 0.346403567207295D+02 -.125210853990751D+01 -.131116208302235D+02 0.320386007364261D+02
 0.313829953163086D+03 0.134371842224010D+03 -.787763305486631D+02 -.256734271029323D+03
 0.196660658227790D+03 -.168983088601367D+03 0.213898658491618D+02 -.982985447516131D+02
0.173192591037D-03 0.000000000000D+00 0.000000000000D+00 0.127620428205D-06 0.000000000000D+00  7 -2 1 -24 -13 13 23 21 0 0.54326542D-02 0.52738800D+00 0.39300780D+05 0.39300780D+05 0.39300780D+05 0.11566084D+01  1  2  2  2  7  2        1 0.943604144326D-03 0.100000000000D+01
-.592046640709D-05 0.000000000000D+00 -.665105152239D-06 0.127620428205D-06 0.000000000000D+00  7 -2 1 -24 -13 13 23 21 2 0.54326542D-02 0.52738800D+00 0.39300780D+05 0.39300780D+05 0.39300780D+05 0.11566084D+01  1  2  3  2  7  2        1 -.431508279151D-04 0.100000000000D+01
0.106598618994D-04 0.000000000000D+00 0.000000000000D+00 0.127620428205D-06 0.000000000000D+00  7 -2 1 -24 -13 13 23 21 2 0.54326542D-02 0.52738800D+00 0.39300780D+05 0.39300780D+05 0.39300780D+05 0.11566084D+01  1  2 15  2  7  2        1 0.776935185159D-04 0.100000000000D+01
0.238176413332D-05 0.000000000000D+00 0.000000000000D+00 0.127620428205D-06 0.000000000000D+00  7 -2 1 -24 -13 13 23 21 2 0.54326542D-02 0.79524885D+00 0.85926610D+05 0.85926610D+05 0.85926610D+05 0.11271680D+01  1  2 12  2  7  2        1 0.223887890170D-06 0.100000000000D+01
-.683788957918D-04 0.000000000000D+00 0.000000000000D+00 0.127620428205D-06 0.000000000000D+00  7 -2 1 -24 -13 13 23 21 2 0.54326542D-02 0.52738800D+00 0.39300780D+05 0.39300780D+05 0.39300780D+05 0.11566084D+01  1  2  4  2  7  2        1 -.498373905442D-03 0.100000000000D+01
-.648852796316D-04 0.000000000000D+00 -.386441317103D-04 0.127620428205D-06 0.000000000000D+00  7 -2 1 -24 -13 13 23 21 2 0.54326542D-02 0.78032125D+00 0.39300780D+05 0.39300780D+05 0.39300780D+05 0.11566084D+01  1  2  5  2  7  2        1 -.969282637539D-05 0.100000000000D+01
0.786852603103D-04 0.000000000000D+00 0.372424080446D-04 0.127620428205D-06 0.000000000000D+00  7 -2 1 -24 -13 13 23 21 2 0.54326542D-02 0.52738800D+00 0.39300780D+05 0.39300780D+05 0.39300780D+05 0.11566084D+01  1  2  6  2  7  2        1 0.573490987643D-03 0.100000000000D+01
0.115599689922D-06 0.000000000000D+00 0.000000000000D+00 0.127620428205D-06 0.000000000000D+00  7 -2 21 -24 -13 13 23 -1 2 0.54326542D-02 0.79524885D+00 0.85926610D+05 0.85926610D+05 0.85926610D+05 0.11271680D+01  1  2 12  4  7  2        1 0.356915710659D-09 0.100000000000D+01
-.175973784252D-05 0.000000000000D+00 -.181165050098D-05 0.127620428205D-06 0.000000000000D+00  7 -2 21 -24 -13 13 23 -1 2 0.54326542D-02 0.78032125D+00 0.39300780D+05 0.39300780D+05 0.39300780D+05 0.11566084D+01  1  2  5  4  7  2        1 -.955218376322D-08 0.100000000000D+01
  </mgrwgt>
  </event>
  <event>
  8     66 0.26562228E-05 0.24426305E+03 0.75467711E-02 0.10102937E+00
       -2 -1    0    0    0  501 0.00000000E+00 0.00000000E+00 0.17040458E+03 0.17040488E+03 0.32000000E+00 0.0000E+00 0.9000E+01
        1 -1    0    0  501    0 0.00000000E+00 0.00000000E+00 -.49582284E+03 0.49582295E+03 0.32000000E+00 0.0000E+00 0.9000E+01
       25  2    1    2    0    0 0.63922250E+02 0.19111950E+03 -.21308394E+03 0.42189418E+03 0.30327746E+03 0.0000E+00 0.0000E+00
       23  2    3    3    0    0 0.77184336E+02 0.10842367E+03 -.24463551E+03 0.29412393E+03 0.94600440E+02 0.0000E+00 0.0000E+00
      -24  1    1    2    0    0 -.63922250E+02 -.19111950E+03 -.11233432E+03 0.24433365E+03 0.80419002E+02 0.0000E+00 0.9000E+01
      -11  1    4    4    0    0 -.91168362E+01 -.50762616E-01 0.36049587E+01 0.98038261E+01 0.51099893E-03 0.0000E+00 0.9000E+01
       11  1    4    4    0    0 0.86301172E+02 0.10847443E+03 -.24824047E+03 0.28432011E+03 0.51099893E-03 0.0000E+00 0.9000E+01
       23  1    3    3    0    0 -.13262086E+02 0.82695828E+02 0.31551570E+02 0.12777025E+03 0.91188000E+02 0.0000E+00 0.9000E+01
#aMCatNLO 1  0  0  1  1 0.89927595D+02 0.00000000D+00  -5  7  0 0.00000000D+00 0.00000000D+00 0.00000000D+00 0.00000000D+00 0.00000000D+00
  <mgrwgt>
 0.1381068384D-02    4    2    0
 0.290672700275746D+03 0.000000000000000D+00 0.000000000000000D+00 0.290672700275746D+03
 0.290672700275746D+03 0.000000000000000D+00 0.000000000000000D+00 -.290672700275746D+03
 0.217127779440685D+03 -.639222498721809D+02 -.191119495598438D+03 0.803374283564349D+01
 0.132532245977488D+02 -.911683620437258D+01 -.507625949578063D-01 0.961918307445949D+01
 0.186876832688952D+03 0.863011723828800D+02 0.108474430198911D+03 -.125332981430335D+03
 0.164087563824106D+03 -.132620863063266D+02 0.826958279944844D+02 0.107680055520232D+03
 0.000000000000000D+00 -.000000000000000D+00 -.000000000000000D+00 -.000000000000000D+00
 0.307043072538256D+03 0.000000000000000D+00 0.000000000000000D+00 0.307043072538256D+03
 0.450693486789515D+03 0.000000000000000D+00 0.000000000000000D+00 -.450693486789515D+03
 0.209149722901069D+03 -.311555339167038D+02 -.190371169869913D+03 0.803374283564349D+01
 0.120007691702761D+02 -.717563490711329D+01 -.642947115743939D-02 0.961918307445949D+01
 0.202828923491588D+03 0.116256724221374D+03 0.109158554606843D+03 -.125332981430335D+03
 0.164280260966728D+03 0.119785965463495D+02 0.832722743008481D+02 0.107680055520232D+03
 0.169476882798111D+03 -.899041519439065D+02 -.205322956662121D+01 -.143650414251259D+03
0.239669501659D-04 0.000000000000D+00 0.000000000000D+00 0.117149471440D-07 0.000000000000D+00  7 -2 1 -24 -11 11 23 21 0 0.26216121D-01 0.76280468D-01 0.59664438D+05 0.59664438D+05 0.59664438D+05 0.11406055D+01  1  2  2  1  7  1       -2 0.149129967607D-02 0.100000000000D+01
-.128251016173D-05 0.000000000000D+00 -.920393992801D-07 0.117149471440D-07 0.000000000000D+00  7 -2 1 -24 -11 11 23 21 2 0.26216121D-01 0.76280468D-01 0.59664438D+05 0.59664438D+05 0.59664438D+05 0.11406055D+01  1  2  3  1  7  1       -2 -.103820675850D-03 0.100000000000D+01
0.152281724803D-05 0.000000000000D+00 0.000000000000D+00 0.117149471440D-07 0.000000000000D+00  7 -2 1 -24 -11 11 23 21 2 0.26216121D-01 0.76280468D-01 0.59664438D+05 0.59664438D+05 0.59664438D+05 0.11406055D+01  1  2 15  1  7  1       -2 0.123273811471D-03 0.100000000000D+01
-.160200841635D-05 0.000000000000D+00 0.000000000000D+00 0.117149471440D-07 0.000000000000D+00  7 -2 1 -24 -11 11 23 21 2 0.26216121D-01 0.76280468D-01 0.59664438D+05 0.59664438D+05 0.59664438D+05 0.11406055D+01  1  2  4  1  7  1       -2 -.129684427825D-03 0.100000000000D+01
  </mgrwgt>
  </event>
  <event>
  8     66 0.26562228E-05 0.41446513E+03 0.75467711E-02 0.87905911E-01
       -2 -1    0    0    0  501 0.00000000E+00 0.00000000E+00 0.23609267E+03 0.23609289E+03 0.32000000E+00 0.0000E+00 0.9000E+01
        1 -1    0    0  501    0 0.00000000E+00 0.00000000E+00 -.88001810E+03 0.88001816E+03 0.32000000E+00 0.0000E+00 0.9000E+01
       25  2    1    2    0    0 -.76059652E+02 0.38800582E+03 -.44220575E+03 0.66501058E+03 0.30059866E+03 0.0000E+00 0.0000E+00
       23  2    3    3    0    0 0.22572838E+01 0.17408247E+03 -.49572234E+02 0.20200618E+03 0.89662081E+02 0.0000E+00 0.0000E+00
      -24  1    1    2    0    0 0.76059652E+02 -.38800582E+03 -.20171968E+03 0.45110047E+03 0.80419002E+02 0.0000E+00 0.9000E+01
      -11  1    4    4    0    0 -.15628992E+02 0.14555801E+03 -.70372692E+02 0.16243065E+03 0.51099893E-03 0.0000E+00 0.9000E+01
       11  1    4    4    0    0 0.17886276E+02 0.28524460E+02 0.20800458E+02 0.39575532E+02 0.51099893E-03 0.0000E+00 0.9000E+01
       23  1    3    3    0    0 -.78316936E+02 0.21392335E+03 -.39263351E+03 0.46300440E+03 0.91188000E+02 0.0000E+00 0.9000E+01
#aMCatNLO 1  0  0  2  1 0.75962325D+03 0.00000000D+00  -5  7  0 0.00000000D+00 0.00000000D+00 0.00000000D+00 0.00000000D+00 0.00000000D+00
  <mgrwgt>
 0.1221657173D-02    3    2    0
 0.455813534499781D+03 0.000000000000000D+00 0.000000000000000D+00 0.455813534499781D+03
 0.455813534499781D+03 0.000000000000000D+00 0.000000000000000D+00 -.455813534499781D+03
 0.409801113415871D+03 0.760596519906070D+02 -.388005823411256D+03 0.716669166389765D+02
 0.149157345221908D+03 -.156289922394539D+02 0.145558008566415D+03 0.285747157012294D+02
 0.631449355949235D+02 0.178862760483154D+02 0.285244601990461D+02 0.534202133163426D+02
 0.289523674766859D+03 -.783169357994685D+02 0.213923354645795D+03 -.153661845656548D+03
 0.000000000000000D+00 0.000000000000000D+00 -.000000000000000D+00 0.000000000000000D+00
 0.124445636182699D+04 0.000000000000000D+00 0.000000000000000D+00 0.124445636182699D+04
 0.814859809317380D+03 0.000000000000000D+00 0.000000000000000D+00 -.814859809317380D+03
 0.296763033030379D+03 -.133922304635868D+03 -.241929227666893D+03 0.716669166389765D+02
 0.274106920590593D+03 -.141417795920478D+03 0.233064575890987D+03 0.285747157012294D+02
 0.835320819214095D+02 -.257042843914201D+02 0.588487831929135D+02 0.534202133163426D+02
 0.532228234307200D+03 -.322531243299769D+03 0.383814116903857D+03 -.153661845656548D+03
 0.872685901294792D+03 0.623575628247535D+03 -.433798248320864D+03 0.429596552509613D+03
0.824208057253D-04 0.000000000000D+00 0.000000000000D+00 0.135631615980D-05 0.000000000000D+00  7 -2 1 -24 -11 11 23 21 0 0.36321971D-01 0.13538742D+00 0.17178134D+06 0.17178134D+06 0.17178134D+06 0.11029348D+01  1  2  2  2  7  2        1 0.120913350491D-02 0.100000000000D+01
-.452858811404D-05 0.000000000000D+00 -.316517595882D-06 0.135631615980D-05 0.000000000000D+00  7 -2 1 -24 -11 11 23 21 2 0.36321971D-01 0.13538742D+00 0.17178134D+06 0.17178134D+06 0.17178134D+06 0.11029348D+01  1  2  3  2  7  2        1 -.808164783492D-04 0.100000000000D+01
0.523035755803D-05 0.000000000000D+00 0.000000000000D+00 0.135631615980D-05 0.000000000000D+00  7 -2 1 -24 -11 11 23 21 2 0.36321971D-01 0.13538742D+00 0.17178134D+06 0.17178134D+06 0.17178134D+06 0.11029348D+01  1  2 15  2  7  2        1 0.933401465761D-04 0.100000000000D+01
  </mgrwgt>
  </event>
  <event>
  8     66 0.26562228E-05 0.20419297E+03 0.75467711E-02 0.10111882E+00
       -2 -1    0    0    0  501 0.00000000E+00 0.00000000E+00 0.72790210E+03 0.72790217E+03 0.32000000E+00 0.0000E+00 0.9000E+01
        1 -1    0    0  501    0 0.00000000E+00 0.00000000E+00 -.80723600E+02 0.80724234E+02 0.32000000E+00 0.0000E+00 0.9000E+01
       25  2    1    2    0    0 0.12054796E+03 -.58840671E+02 0.44650988E+03 0.55420717E+03 0.29963391E+03 0.0000E+00 0.0000E+00
       23  2    3    3    0    0 -.37668732E+01 -.14613100E+02 0.34700818E+03 0.36545841E+03 0.11365490E+03 0.0000E+00 0.0000E+00
      -24  1    1    2    0    0 -.12054796E+03 0.58840671E+02 0.20066863E+03 0.25441924E+03 0.80419002E+02 0.0000E+00 0.9000E+01
      -13  1    4    4    0    0 0.12815987E+02 -.50478589E+02 0.29794312E+03 0.30246066E+03 0.10565837E+00 0.0000E+00 0.9000E+01
       13  1    4    4    0    0 -.16582860E+02 0.35865489E+02 0.49065064E+02 0.62997748E+02 0.10565837E+00 0.0000E+00 0.9000E+01
       23  1    3    3    0    0 0.12431483E+03 -.44227571E+02 0.99501694E+02 0.18874876E+03 0.91188000E+02 0.0000E+00 0.9000E+01
#aMCatNLO 1  0  0  2  1 0.14057194D+03 0.00000000D+00  -5  7  0 0.00000000D+00 0.00000000D+00 0.00000000D+00 0.00000000D+00 0.00000000D+00
  <mgrwgt>
 0.1173793595D-02    3    2    0
 0.242402893362477D+03 0.000000000000000D+00 0.000000000000000D+00 0.242402893362477D+03
 0.242402893362477D+03 0.000000000000000D+00 0.000000000000000D+00 -.242402893362477D+03
 0.156478525206119D+03 -.120547963184339D+03 0.588406716292519D+02 -.492715238625551D+01
 0.106754365787957D+03 0.128153728919413D+02 -.504779927956419D+02 0.931892326170389D+02
 0.395778209300438D+02 -.165829341993715D+02 0.358651162020987D+02 -.225912432590341D+01
 0.181995074800834D+03 0.124315524491769D+03 -.442277950357087D+02 -.860029559048800D+02
 0.000000000000000D+00 -.000000000000000D+00 0.000000000000000D+00 0.000000000000000D+00
 0.101153648480799D+04 0.000000000000000D+00 0.000000000000000D+00 0.101153648480799D+04
 0.258894602005102D+03 0.000000000000000D+00 0.000000000000000D+00 -.258894602005102D+03
 0.139357732084067D+03 -.112331443586688D+03 0.176275774948655D+02 -.492715238625551D+01
 0.126231841131166D+03 0.192863029688303D+02 -.829354155798706D+02 0.931892326170389D+02
 0.300692976859456D+02 -.146485637463717D+02 0.261625419402360D+02 -.225912432590341D+01
 0.209115455997323D+03 0.135178179970805D+03 -.987135949521239D+02 -.860029559048800D+02
 0.765656759914588D+03 -.274844756065757D+02 0.137858891096893D+03 0.752641882802885D+03
0.326277933420D-04 0.000000000000D+00 0.000000000000D+00 0.325868316944D-08 0.000000000000D+00  7 -2 1 -24 -13 13 23 21 0 0.11198499D+00 0.12419070D-01 0.41694767D+05 0.41694767D+05 0.41694767D+05 0.11542997D+01  1  2  2  2  7  2        1 0.115797743314D-02 0.100000000000D+01
-.174780579330D-05 0.000000000000D+00 -.125299317529D-06 0.325868316944D-08 0.000000000000D+00  7 -2 1 -24 -13 13 23 21 2 0.11198499D+00 0.12419070D-01 0.41694767D+05 0.41694767D+05 0.41694767D+05 0.11542997D+01  1  2  3  2  7  2        1 -.826499771556D-04 0.100000000000D+01
0.208227146320D-05 0.000000000000D+00 0.000000000000D+00 0.325868316944D-08 0.000000000000D+00  7 -2 1 -24 -13 13 23 21 2 0.11198499D+00 0.12419070D-01 0.41694767D+05 0.41694767D+05 0.41694767D+05 0.11542997D+01  1  2 15  2  7  2        1 0.984661393874D-04 0.100000000000D+01
  </mgrwgt>
  </event>
  <event>
  8     66 0.26562228E-05 0.29960962E+03 0.75467711E-02 0.92728686E-01
       -2 -1    0    0    0  501 0.00000000E+00 0.00000000E+00 0.93934221E+03 0.93934226E+03 0.32000000E+00 0.0000E+00 0.9000E+01
        1 -1    0    0  501    0 0.00000000E+00 0.00000000E+00 -.34441066E+03 0.34441081E+03 0.32000000E+00 0.0000E+00 0.9000E+01
       25  2    1    2    0    0 -.51519211E+03 0.82343523E+02 0.39117059E+03 0.71790052E+03 0.30027217E+03 0.0000E+00 0.0000E+00
       23  2    3    3    0    0 -.32286103E+03 0.10100100E+03 0.11527900E+03 0.36894385E+03 0.91596212E+02 0.0000E+00 0.0000E+00
      -24  1    1    2    0    0 0.51519211E+03 -.82343523E+02 0.20376096E+03 0.56585255E+03 0.80419002E+02 0.0000E+00 0.9000E+01
      -11  1    4    4    0    0 -.32520138E+03 0.10130503E+03 0.12201236E+03 0.36180888E+03 0.51099893E-03 0.0000E+00 0.9000E+01
       11  1    4    4    0    0 0.23403499E+01 -.30402801E+00 -.67333590E+01 0.71349698E+01 0.51099893E-03 0.0000E+00 0.9000E+01
       23  1    3    3    0    0 -.19233107E+03 -.18657481E+02 0.27589158E+03 0.34895668E+03 0.91188000E+02 0.0000E+00 0.9000E+01
#aMCatNLO 1  0  0  2  1 0.96244455D+02 0.00000000D+00  -5  7  0 0.00000000D+00 0.00000000D+00 0.00000000D+00 0.00000000D+00 0.00000000D+00
  <mgrwgt>
 0.9455175285D-03    6    2    0
 0.568787835872969D+03 0.000000000000000D+00 0.000000000000000D+00 0.568787835872969D+03
 0.568787835872969D+03 0.000000000000000D+00 0.000000000000000D+00 -.568787835872969D+03
 0.532000763496396D+03 0.515192106511665D+03 -.823435228200512D+02 -.659866201895071D+02
 0.344490716260147D+03 -.325201382453241D+03 0.101305032274700D+03 -.515286801281816D+02
 0.115732319170799D+02 0.234034991824443D+01 -.304028014638119D+00 -.113300497012593D+02
 0.249510960072315D+03 -.192331073976669D+03 -.186574814400108D+02 0.128845350018948D+03
 0.000000000000000D+00 0.000000000000000D+00 -.000000000000000D+00 0.000000000000000D+00
 0.619184899688096D+03 0.000000000000000D+00 0.000000000000000D+00 0.619184899688096D+03
 0.618700561146903D+03 0.000000000000000D+00 0.000000000000000D+00 -.618700561146903D+03
 0.495494928225804D+03 0.481289196197207D+03 -.552673820886839D+02 -.659866201895071D+02
 0.372568892325418D+03 -.348861245745952D+03 0.120200689970646D+03 -.515286801281816D+02
 0.114438079958533D+02 0.158088723031381D+01 0.302507484170157D+00 -.113300497012593D+02
 0.262132158790172D+03 -.209213082253249D+03 -.517487396811315D+01 0.128845350018948D+03
 0.962456734977519D+02 0.752042445716801D+02 -.600609413980193D+02 0.484338541192312D+00
0.313135995424D-03 0.000000000000D+00 0.000000000000D+00 0.126881589912D-04 0.000000000000D+00  7 -2 1 -24 -11 11 23 21 0 0.14451420D+00 0.52986271D-01 0.29405516D+06 0.29405516D+06 0.29405516D+06 0.10851956D+01  1  2  2  2  7  2        1 0.824838010630D-03 0.100000000000D+01
-.173482250908D-04 0.000000000000D+00 -.120252467303D-05 0.126881589912D-04 0.000000000000D+00  7 -2 1 -24 -11 11 23 21 2 0.14451420D+00 0.52986271D-01 0.29405516D+06 0.29405516D+06 0.29405516D+06 0.10851956D+01  1  2  3  2  7  2        1 -.538154202431D-04 0.100000000000D+01
0.200728703642D-04 0.000000000000D+00 0.000000000000D+00 0.126881589912D-04 0.000000000000D+00  7 -2 1 -24 -11 11 23 21 2 0.14451420D+00 0.52986271D-01 0.29405516D+06 0.29405516D+06 0.29405516D+06 0.10851956D+01  1  2 15  2  7  2        1 0.622674624339D-04 0.100000000000D+01
0.351582382459D-03 0.000000000000D+00 0.000000000000D+00 0.126881589912D-04 0.000000000000D+00  7 -2 1 -24 -11 11 23 21 2 0.14451420D+00 0.59784746D-01 0.35177036D+06 0.35177036D+06 0.35177036D+06 0.10794735D+01  1  2 12  2  7  2        1 0.910738269475D-03 0.100000000000D+01
-.277972872569D-03 0.000000000000D+00 0.000000000000D+00 0.126881589912D-04 0.000000000000D+00  7 -2 1 -24 -11 11 23 21 2 0.14451420D+00 0.52986271D-01 0.29405516D+06 0.29405516D+06 0.29405516D+06 0.10851956D+01  1  2  4  2  7  2        1 -.862291495252D-03 0.100000000000D+01
0.670435558194D-05 0.000000000000D+00 0.000000000000D+00 0.126881589912D-04 0.000000000000D+00  7 -2 21 -24 -11 11 23 -1 2 0.14451420D+00 0.59784746D-01 0.35177036D+06 0.35177036D+06 0.35177036D+06 0.10794735D+01  1  2 12  4  7  2        1 0.637807014540D-04 0.100000000000D+01
  </mgrwgt>
  </event>
  <event>
  8     66 0.26562228E-05 0.17026435E+03 0.75467711E-02 0.94656377E-01
       -2 -1    0    0    0  501 0.00000000E+00 0.00000000E+00 0.14987881E+03 0.14987915E+03 0.32000000E+00 0.0000E+00 0.9000E+01
        1 -1    0    0  501    0 0.00000000E+00 0.00000000E+00 -.29846754E+03 0.29846772E+03 0.32000000E+00 0.0000E+00 0.9000E+01
       25  2    1    2    0    0 0.86076482E+01 -.88560995E+01 -.26090259E+02 0.30129037E+03 0.29990442E+03 0.0000E+00 0.0000E+00
       23  2    3    3    0    0 0.32496180E+02 -.96915787E+02 0.57479592E+02 0.14758825E+03 0.89608681E+02 0.0000E+00 0.0000E+00
      -24  1    1    2    0    0 -.86076482E+01 0.88560995E+01 -.12249847E+03 0.14705650E+03 0.80419002E+02 0.0000E+00 0.9000E+01
      -11  1    4    4    0    0 -.73021556E+01 -.89362570E+02 0.58516554E+02 0.10706623E+03 0.51099893E-03 0.0000E+00 0.9000E+01
       11  1    4    4    0    0 0.39798336E+02 -.75532166E+01 -.10369618E+01 0.40522017E+02 0.51099893E-03 0.0000E+00 0.9000E+01
       23  1    3    3    0    0 -.23888532E+02 0.88059688E+02 -.83569851E+02 0.15370212E+03 0.91188000E+02 0.0000E+00 0.9000E+01
#aMCatNLO 1  0  0  1  2 0.44401002D+03 0.00000000D+00  -5  7  0 0.00000000D+00 0.00000000D+00 0.00000000D+00 0.00000000D+00 0.00000000D+00
  <mgrwgt>
 0.1236093162D-02    3    2    0
 0.211504315743879D+03 0.000000000000000D+00 0.000000000000000D+00 0.211504315743879D+03
 0.211504315743879D+03 0.000000000000000D+00 0.000000000000000D+00 -.211504315743879D+03
 0.112835589414497D+03 -.860764816336366D+01 0.885609953909496D+01 -.781801264913005D+02
 0.134034403029136D+03 -.730215564376780D+01 -.893625704462059D+02 0.996304708489217D+02
 0.425850380344548D+02 0.397983355016727D+02 -.755321659572646D+01 0.131349486009768D+02
 0.133553601009672D+03 -.238885316945412D+02 0.880596875028374D+02 -.345852929585980D+02
 0.000000000000000D+00 0.000000000000000D+00 -.000000000000000D+00 -.000000000000000D+00
 0.500892707889177D+03 0.000000000000000D+00 0.000000000000000D+00 0.500892707889177D+03
 0.560332918967682D+03 0.000000000000000D+00 0.000000000000000D+00 -.560332918967682D+03
 0.175735031998708D+03 -.120261404197167D+03 0.619729618426152D+02 -.781801264913005D+02
 0.160941553616573D+03 -.121434264234260D+03 -.350666854553220D+02 0.996304708489217D+02
 0.206084649857334D+02 0.153475028611791D+02 0.407873880556175D+01 0.131349486009768D+02
 0.255969549447099D+03 -.174602844182862D+03 0.159758765688691D+03 -.345852929585980D+02
 0.447971026808746D+03 0.400951009753110D+03 -.190743780881546D+03 -.594402110785050D+02
0.809384214784D-05 0.000000000000D+00 0.000000000000D+00 0.490994477050D-06 0.000000000000D+00  7 -2 1 -24 -11 11 23 21 0 0.23058318D-01 0.45918123D-01 0.28989948D+05 0.28989948D+05 0.28989948D+05 0.11687185D+01  1  2  2  1  7  1       -2 0.121956958857D-02 0.100000000000D+01
-.423938810687D-06 0.000000000000D+00 -.310824850053D-07 0.490994477050D-06 0.000000000000D+00  7 -2 1 -24 -11 11 23 21 2 0.23058318D-01 0.45918123D-01 0.28989948D+05 0.28989948D+05 0.28989948D+05 0.11687185D+01  1  2  3  1  7  1       -2 -.872518884818D-04 0.100000000000D+01
0.504223420925D-06 0.000000000000D+00 0.000000000000D+00 0.490994477050D-06 0.000000000000D+00  7 -2 1 -24 -11 11 23 21 2 0.23058318D-01 0.45918123D-01 0.28989948D+05 0.28989948D+05 0.28989948D+05 0.11687185D+01  1  2 15  1  7  1       -2 0.103775461419D-03 0.100000000000D+01
  </mgrwgt>
  </event>
  <event>
  9     66 0.26562228E-05 0.41168150E+03 0.75467711E-02 0.94346878E-01
       -2 -1    0    0    0  502 0.00000000E+00 0.00000000E+00 0.13620239E+03 0.13620277E+03 0.32000000E+00 0.0000E+00 0.9000E+01
        1 -1    0    0  501    0 0.00000000E+00 0.00000000E+00 -.31091563E+04 0.31091563E+04 0.32000000E+00 0.0000E+00 0.9000E+01
       25  2    1    2    0    0 -.17484925E+03 -.22932184E+03 -.21036851E+04 0.21445713E+04 0.30088951E+03 0.0000E+00 0.0000E+00
       23  2    3    3    0    0 -.19527755E+03 -.84821342E+02 -.95124321E+03 0.97935236E+03 0.94548573E+02 0.0000E+00 0.0000E+00
      -24  1    1    2    0    0 0.34643352E+03 0.28624791E+03 -.43585670E+03 0.63118328E+03 0.80419002E+02 0.0000E+00 0.9000E+01
      -11  1    4    4    0    0 -.16592965E+03 -.57902115E+02 -.88317216E+03 0.90048785E+03 0.51099893E-03 0.0000E+00 0.9000E+01
       11  1    4    4    0    0 -.29347903E+02 -.26919226E+02 -.68071043E+02 0.78864511E+02 0.51099893E-03 0.0000E+00 0.9000E+01
       23  1    3    3    0    0 0.20428299E+02 -.14450050E+03 -.11524419E+04 0.11652189E+04 0.91188000E+02 0.0000E+00 0.9000E+01
       21  1    1    2  501  502 -.17158426E+03 -.56926068E+02 -.43341214E+03 0.46960450E+03 0.75000000E+00 0.0000E+00 0.9000E+01
#aMCatNLO 2  0  0  1  2 0.18078091D+03 0.00000000D+00  -5  7  0 0.00000000D+00 0.00000000D+00 0.00000000D+00 0.00000000D+00 0.00000000D+00
  <mgrwgt>
 0.1417500897D-03    1    2    0
 0.552914870756540D+03 0.000000000000000D+00 0.000000000000000D+00 0.552914870756540D+03
 0.552914870756540D+03 0.000000000000000D+00 0.000000000000000D+00 -.552914870756540D+03
 0.514903920378065D+03 0.262376645155839D+03 0.258360578105687D+03 0.350809263024785D+03
 0.260842823561030D+03 -.203687686835624D+03 -.704290013946043D+02 -.146935566141770D+03
 0.475727078582814D+02 -.361809815267998D+02 -.291862192085152D+02 0.101125524492710D+02
 0.282510289715703D+03 -.225079767934152D+02 -.158745357502568D+03 -.213986249332286D+03
 0.000000000000000D+00 -.000000000000000D+00 -.000000000000000D+00 -.000000000000000D+00
 0.646095700967104D+03 0.000000000000000D+00 0.000000000000000D+00 0.646095700967104D+03
 0.655435645773007D+03 0.000000000000000D+00 0.000000000000000D+00 -.655435645773007D+03
 0.575750295979484D+03 0.346433518277823D+03 0.286247909609397D+03 0.350809263024785D+03
 0.229075019001877D+03 -.165929650131710D+03 -.579021151640972D+02 -.146935566141770D+03
 0.410878071366899D+02 -.293479032256392D+02 -.269192264844493D+02 0.101125524492710D+02
 0.274596205797295D+03 0.204282987982777D+02 -.144500500342315D+03 -.213986249332286D+03
 0.181022018824765D+03 -.171584263718752D+03 -.569260676185350D+02 -.933994480590247D+01
0.113554150146D-03 0.000000000000D+00 0.000000000000D+00 0.620008307737D-06 0.123229026813D-09  7 -2 1 -24 -11 11 23 21 2 0.20954219D-01 0.47833120D+00 0.26263725D+06 0.26263725D+06 0.26263725D+06 0.10888516D+01  1  2  1  1  7  1       -2 0.141750089727D-03 0.100000000000D+01
  </mgrwgt>
  </event>
  <event>
  8     66 0.26562228E-05 0.21484099E+03 0.75467711E-02 0.92109164E-01
       -2 -1    0    0    0  501 0.00000000E+00 0.00000000E+00 0.42099966E+02 0.42101182E+02 0.32000000E+00 0.0000E+00 0.9000E+01
        1 -1    0    0  501    0 0.00000000E+00 0.00000000E+00 -.17905767E+04 0.17905767E+04 0.32000000E+00 0.0000E+00 0.9000E+01
       25  2    1    2    0    0 0.22932916E+02 -.17980038E+03 -.10806193E+04 0.11360037E+04 0.29985394E+03 0.0000E+00 0.0000E+00
       23  2    3    3    0    0 0.35342064E+02 -.11078354E+03 -.95247822E+03 0.96380417E+03 0.90452518E+02 0.0000E+00 0.0000E+00
      -24  1    1    2    0    0 -.22932916E+02 0.17980038E+03 -.66785745E+03 0.69667416E+03 0.80419002E+02 0.0000E+00 0.9000E+01
      -13  1    4    4    0    0 0.29192268E+01 -.13387332E+02 -.13513351E+02 0.19244853E+02 0.10565837E+00 0.0000E+00 0.9000E+01
       13  1    4    4    0    0 0.32422837E+02 -.97396211E+02 -.93896487E+03 0.94455932E+03 0.10565837E+00 0.0000E+00 0.9000E+01
       23  1    3    3    0    0 -.12409149E+02 -.69016838E+02 -.12814104E+03 0.17219956E+03 0.91188000E+02 0.0000E+00 0.9000E+01
#aMCatNLO 1  0  0  2  1 0.56099969D+03 0.00000000D+00  -5  7  0 0.00000000D+00 0.00000000D+00 0.00000000D+00 0.00000000D+00 0.00000000D+00
  <mgrwgt>
 0.2333297718D-02    3    2    0
 0.274562119485247D+03 0.000000000000000D+00 0.000000000000000D+00 0.274562119485247D+03
 0.274562119485247D+03 0.000000000000000D+00 0.000000000000000D+00 -.274562119485247D+03
 0.198581891737680D+03 -.229329155679654D+02 0.179800381400989D+03 -.106515728114052D+02
 0.212005394361156D+02 0.291918655511645D+01 -.133872170506192D+02 0.161778750730227D+02
 0.162649656504032D+03 0.324228775198105D+02 -.973963256791548D+02 -.126165064571834D+03
 0.166692151292667D+03 -.124091485069616D+02 -.690168386712151D+02 0.120638762310217D+03
 0.000000000000000D+00 -.000000000000000D+00 -.000000000000000D+00 0.000000000000000D+00
 0.134257381737297D+04 0.000000000000000D+00 0.000000000000000D+00 0.134257381737297D+04
 0.475326244992856D+03 0.000000000000000D+00 0.000000000000000D+00 -.475326244992856D+03
 0.354173355370843D+03 0.179215528270836D+03 0.294516363082800D+03 -.106515728114052D+02
 0.261516388320001D+02 0.202363792897840D+02 -.355998946080579D+01 0.161778750730227D+02
 0.212220885579134D+03 0.169517002124732D+03 -.195976209836931D+02 -.126165064571834D+03
 0.192475193120390D+03 0.118942150518445D+03 0.552290512664599D+01 0.120638762310217D+03
 0.103287898946346D+04 -.487911060203796D+03 -.276881657764947D+03 0.867247572380115D+03
0.399637207988D-04 0.000000000000D+00 0.000000000000D+00 0.221945646432D-05 0.000000000000D+00  7 -2 1 -24 -13 13 23 21 0 0.64770135D-02 0.27547343D+00 0.46156651D+05 0.46156651D+05 0.46156651D+05 0.11503633D+01  1  2  2  2  7  2        1 0.229812688835D-02 0.100000000000D+01
-.205780263802D-05 0.000000000000D+00 -.153471210557D-06 0.221945646432D-05 0.000000000000D+00  7 -2 1 -24 -13 13 23 21 2 0.64770135D-02 0.27547343D+00 0.46156651D+05 0.46156651D+05 0.46156651D+05 0.11503633D+01  1  2  3  2  7  2        1 -.156596429012D-03 0.100000000000D+01
0.251997553352D-05 0.000000000000D+00 0.000000000000D+00 0.221945646432D-05 0.000000000000D+00  7 -2 1 -24 -13 13 23 21 2 0.64770135D-02 0.27547343D+00 0.46156651D+05 0.46156651D+05 0.46156651D+05 0.11503633D+01  1  2 15  2  7  2        1 0.191767258169D-03 0.100000000000D+01
  </mgrwgt>
  </event>
  <event>
  8     66 0.26562228E-05 0.44293575E+03 0.75467711E-02 0.95496371E-01
       -2 -1    0    0    0  501 0.00000000E+00 0.00000000E+00 0.32580344E+03 0.32580359E+03 0.32000000E+00 0.0000E+00 0.9000E+01
        1 -1    0    0  501    0 0.00000000E+00 0.00000000E+00 -.71434040E+03 0.71434047E+03 0.32000000E+00 0.0000E+00 0.9000E+01
       25  2    1    2    0    0 0.26099261E+03 0.30258872E+03 -.38749502E+03 0.63253473E+03 0.30045086E+03 0.0000E+00 0.0000E+00
       23  2    3    3    0    0 0.14663542E+03 0.31297703E+02 -.22134080E+03 0.28239353E+03 0.90955294E+02 0.0000E+00 0.0000E+00
      -24  1    1    2    0    0 -.26099261E+03 -.30258872E+03 -.10419479E+01 0.40760934E+03 0.80419002E+02 0.0000E+00 0.9000E+01
      -11  1    4    4    0    0 -.88093848E+01 -.54076150E+01 -.37322998E+02 0.38727946E+02 0.51099893E-03 0.0000E+00 0.9000E+01
       11  1    4    4    0    0 0.15544480E+03 0.36705318E+02 -.18401780E+03 0.24366558E+03 0.51099893E-03 0.0000E+00 0.9000E+01
       23  1    3    3    0    0 0.11435719E+03 0.27129101E+03 -.16615422E+03 0.35014120E+03 0.91188000E+02 0.0000E+00 0.9000E+01
#aMCatNLO 1  0  0  2  2 0.39186421D+02 0.00000000D+00  -5  7  0 0.00000000D+00 0.00000000D+00 0.00000000D+00 0.00000000D+00 0.00000000D+00
  <mgrwgt>
 0.6406344110D-03    4    2    0
 0.482425824114438D+03 0.000000000000000D+00 0.000000000000000D+00 0.482425824114438D+03
 0.482425824114438D+03 0.000000000000000D+00 0.000000000000000D+00 -.482425824114438D+03
 0.438997643681460D+03 -.260992605570539D+03 -.302588717524073D+03 0.163017309105939D+03
 0.267204582988411D+02 -.880938481267683D+01 -.540761504611075D+01 -.246401162829107D+02
 0.188577792014365D+03 0.155444800703010D+03 0.367053179871356D+02 -.100255758971134D+03
 0.310555754234209D+03 0.114357189680206D+03 0.271291014583048D+03 -.381214338518950D+02
 0.000000000000000D+00 -.000000000000000D+00 0.000000000000000D+00 0.000000000000000D+00
 0.534137441449312D+03 0.000000000000000D+00 0.000000000000000D+00 0.534137441449312D+03
 0.490304823118374D+03 0.000000000000000D+00 0.000000000000000D+00 -.490304823118374D+03
 0.447727703806193D+03 -.255376173655397D+03 -.319689298635696D+03 0.163017309105939D+03
 0.268395039313114D+02 -.847014123280673D+01 -.644052391811628D+01 -.246401162829107D+02
 0.189286898253978D+03 0.157838158817833D+03 0.294181621575882D+02 -.100255758971134D+03
 0.301792971702900D+03 0.118235746820018D+03 0.259481812234028D+03 -.381214338518950D+02
 0.587951868733038D+02 -.122275907496475D+02 0.372298481621955D+02 0.438326183309385D+02
0.923966272265D-04 0.000000000000D+00 0.000000000000D+00 0.634954632894D-05 0.000000000000D+00  7 -2 1 -24 -11 11 23 21 0 0.50123623D-01 0.10989854D+00 0.19619208D+06 0.19619208D+06 0.19619208D+06 0.10984671D+01  1  2  2  2  7  2        1 0.101855852914D-02 0.100000000000D+01
-.508762557892D-05 0.000000000000D+00 -.354827377140D-06 0.634954632894D-05 0.000000000000D+00  7 -2 1 -24 -11 11 23 21 2 0.50123623D-01 0.10989854D+00 0.19619208D+06 0.19619208D+06 0.19619208D+06 0.10984671D+01  1  2  3  2  7  2        1 -.676735812311D-04 0.100000000000D+01
0.590308945787D-05 0.000000000000D+00 0.000000000000D+00 0.634954632894D-05 0.000000000000D+00  7 -2 1 -24 -11 11 23 21 2 0.50123623D-01 0.10989854D+00 0.19619208D+06 0.19619208D+06 0.19619208D+06 0.10984671D+01  1  2 15  2  7  2        1 0.785205589020D-04 0.100000000000D+01
-.292273843864D-04 0.000000000000D+00 0.000000000000D+00 0.634954632894D-05 0.000000000000D+00  7 -2 1 -24 -11 11 23 21 2 0.50123623D-01 0.10989854D+00 0.19619208D+06 0.19619208D+06 0.19619208D+06 0.10984671D+01  1  2  4  2  7  2        1 -.388771095821D-03 0.100000000000D+01
  </mgrwgt>
  </event>
  <event>
  8     66 0.26562228E-05 0.26606299E+03 0.75467711E-02 0.90898626E-01
       -2 -1    0    0    0  501 0.00000000E+00 0.00000000E+00 0.27129872E+03 0.27129891E+03 0.32000000E+00 0.0000E+00 0.9000E+01
        1 -1    0    0  501    0 0.00000000E+00 0.00000000E+00 -.84292637E+03 0.84292643E+03 0.32000000E+00 0.0000E+00 0.9000E+01
       25  2    1    2    0    0 0.18433218E+03 -.90592242E+02 -.74776668E+03 0.83195333E+03 0.30134039E+03 0.0000E+00 0.0000E+00
       23  2    3    3    0    0 0.16044957E+02 0.21847990E+01 -.47055037E+03 0.48253624E+03 0.10564734E+03 0.0000E+00 0.0000E+00
      -24  1    1    2    0    0 -.18433218E+03 0.90592242E+02 0.17613903E+03 0.28227200E+03 0.80419002E+02 0.0000E+00 0.9000E+01
      -11  1    4    4    0    0 -.14210965E+02 -.42539671E+02 -.12522226E+03 0.13301199E+03 0.51099893E-03 0.0000E+00 0.9000E+01
       11  1    4    4    0    0 0.30255922E+02 0.44724470E+02 -.34532811E+03 0.34952425E+03 0.51099893E-03 0.0000E+00 0.9000E+01
       23  1    3    3    0    0 0.16828723E+03 -.92777041E+02 -.27721631E+03 0.34941709E+03 0.91188000E+02 0.0000E+00 0.9000E+01
#aMCatNLO 1  0  0  2  2 0.58719368D+03 0.00000000D+00  -5  7  0 0.00000000D+00 0.00000000D+00 0.00000000D+00 0.00000000D+00 0.00000000D+00
  <mgrwgt>
 0.1336510425D-02    3    2    0
 0.478210185216555D+03 0.000000000000000D+00 0.000000000000000D+00 0.478210185216555D+03
 0.478210185216555D+03 0.000000000000000D+00 0.000000000000000D+00 -.478210185216555D+03
 0.434119313007160D+03 -.184332184042736D+03 0.905922415652594D+02 0.373907814395012D+03
 0.801162593784948D+02 -.142109648984861D+02 -.425396706300555D+02 -.663855399627257D+02
 0.200800491520646D+03 0.302559223103392D+02 0.447244697017369D+02 -.193404080541187D+03
 0.241384306526810D+03 0.168287226630883D+03 -.927770406369408D+02 -.114118193891099D+03
 0.000000000000000D+00 0.000000000000000D+00 -.000000000000000D+00 0.000000000000000D+00
 0.113285616507647D+04 0.000000000000000D+00 0.000000000000000D+00 0.113285616507647D+04
 0.711919292021926D+03 0.000000000000000D+00 0.000000000000000D+00 -.711919292021926D+03
 0.635493587311235D+03 -.457433731383139D+03 0.219845880758716D+03 0.373907814395012D+03
 0.907242216599577D+02 -.578312313575871D+02 -.218950487400170D+02 -.663855399627257D+02
 0.230581319099961D+03 -.798877006208383D+02 0.968532995690452D+02 -.193404080541187D+03
 0.165491540167666D+03 0.644006492769435D+02 -.436095484820451D+02 -.114118193891099D+03
 0.722484788859573D+03 0.530752014084621D+03 -.251194583105699D+03 0.420936873054540D+03
0.103562326941D-03 0.000000000000D+00 0.000000000000D+00 0.173147345962D-07 0.000000000000D+00  7 -2 1 -24 -11 11 23 21 0 0.41738283D-01 0.12968100D+00 0.70789515D+05 0.70789515D+05 0.70789515D+05 0.11342458D+01  1  2  2  2  7  2        1 0.128980351907D-02 0.100000000000D+01
-.334867811824D-05 0.000000000000D+00 -.397706604042D-06 0.173147345962D-07 0.000000000000D+00  7 -2 1 -24 -11 11 23 21 2 0.41738283D-01 0.12968100D+00 0.70789515D+05 0.70789515D+05 0.70789515D+05 0.11342458D+01  1  2  3  2  7  2        1 -.536549141945D-04 0.100000000000D+01
0.626372134791D-05 0.000000000000D+00 0.000000000000D+00 0.173147345962D-07 0.000000000000D+00  7 -2 1 -24 -11 11 23 21 2 0.41738283D-01 0.12968100D+00 0.70789515D+05 0.70789515D+05 0.70789515D+05 0.11342458D+01  1  2 15  2  7  2        1 0.100361820275D-03 0.100000000000D+01
  </mgrwgt>
  </event>
  <event>
  8     66 0.26562228E-05 0.99363403E+02 0.75467711E-02 0.98167749E-01
       -2 -1    0    0    0  501 0.00000000E+00 0.00000000E+00 0.11097093E+03 0.11097139E+03 0.32000000E+00 0.0000E+00 0.9000E+01
        1 -1    0    0  501    0 0.00000000E+00 0.00000000E+00 -.14126750E+04 0.14126750E+04 0.32000000E+00 0.0000E+00 0.9000E+01
       25  2    1    2    0    0 0.92756376E+01 0.25972025E+03 -.33646567E+03 0.52080395E+03 0.30081052E+03 0.0000E+00 0.0000E+00
       23  2    3    3    0    0 0.33552288E+02 0.24421431E+03 -.12940367E+03 0.29272565E+03 0.90424597E+02 0.0000E+00 0.0000E+00
      -24  1    1    2    0    0 -.92756376E+01 -.25972025E+03 -.96523841E+03 0.10028425E+04 0.80419002E+02 0.0000E+00 0.9000E+01
      -13  1    4    4    0    0 -.18786653E+02 0.66250334E+02 -.43308086E+01 0.68998639E+02 0.10565837E+00 0.0000E+00 0.9000E+01
       13  1    4    4    0    0 0.52338940E+02 0.17796398E+03 -.12507286E+03 0.22372701E+03 0.10565837E+00 0.0000E+00 0.9000E+01
       23  1    3    3    0    0 -.24276650E+02 0.15505932E+02 -.20706200E+03 0.22807830E+03 0.91188000E+02 0.0000E+00 0.9000E+01
#aMCatNLO 1  0  0  2  1 0.11335981D+03 0.00000000D+00  -5  7  0 0.00000000D+00 0.00000000D+00 0.00000000D+00 0.00000000D+00 0.00000000D+00
  <mgrwgt>
 0.8562981465D-03    9    2    0
 0.395937165444549D+03 0.000000000000000D+00 0.000000000000000D+00 0.395937165444549D+03
 0.395937165444549D+03 0.000000000000000D+00 0.000000000000000D+00 -.395937165444549D+03
 0.342885975987297D+03 -.927563762643231D+01 -.259720246944365D+03 -.208717350616022D+03
 0.125641136993765D+03 -.187867499000429D+02 0.662501815093353D+02 0.105088851850514D+03
 0.224875474894099D+03 0.523390374648855D+02 0.177964133249765D+03 0.127115583791900D+03
 0.984717430139384D+02 -.242766499384104D+02 0.155059321852649D+02 -.234870850263923D+02
 0.000000000000000D+00 0.000000000000000D+00 0.000000000000000D+00 -.000000000000000D+00
 0.409882984538064D+03 0.000000000000000D+00 0.000000000000000D+00 0.409882984538064D+03
 0.724171203160107D+03 0.000000000000000D+00 0.000000000000000D+00 -.724171203160107D+03
 0.380642270991522D+03 -.310411914298719D+02 -.306422640315065D+03 -.208717350616022D+03
 0.119461812007995D+03 -.261600645510681D+02 0.504292451624870D+02 0.105088851850514D+03
 0.200911334680663D+03 0.395302967539431D+02 0.150480392074698D+03 0.127115583791900D+03
 0.989317064845307D+02 -.302150433860532D+02 0.276390920315406D+01 -.234870850263923D+02
 0.334107063533460D+03 0.478860026130501D+02 0.102749093874725D+03 -.314288218622043D+03
0.404094209055D-04 0.000000000000D+00 0.000000000000D+00 0.166045521299D-05 0.000000000000D+00  7 -2 1 -24 -13 13 23 21 0 0.17072489D-01 0.21733465D+00 0.96732481D+05 0.96732481D+05 0.96732481D+05 0.11229079D+01  1  2  2  2  7  2        1 0.905121377973D-03 0.100000000000D+01
-.208590163182D-05 0.000000000000D+00 -.155182816322D-06 0.166045521299D-05 0.000000000000D+00  7 -2 1 -24 -13 13 23 21 2 0.17072489D-01 0.21733465D+00 0.96732481D+05 0.96732481D+05 0.96732481D+05 0.11229079D+01  1  2  3  2  7  2        1 -.589123456734D-04 0.100000000000D+01
0.257543275941D-05 0.000000000000D+00 0.000000000000D+00 0.166045521299D-05 0.000000000000D+00  7 -2 1 -24 -13 13 23 21 2 0.17072489D-01 0.21733465D+00 0.96732481D+05 0.96732481D+05 0.96732481D+05 0.11229079D+01  1  2 15  2  7  2        1 0.727382263220D-04 0.100000000000D+01
0.983217592286D-04 0.000000000000D+00 0.000000000000D+00 0.166045521299D-05 0.000000000000D+00  7 -2 1 -24 -13 13 23 21 2 0.17072489D-01 0.39840776D+00 0.13696535D+06 0.13696535D+06 0.13696535D+06 0.11106810D+01  1  2 12  2  7  2        1 0.442141559983D-03 0.100000000000D+01
-.996709147691D-04 0.000000000000D+00 0.000000000000D+00 0.166045521299D-05 0.000000000000D+00  7 -2 1 -24 -13 13 23 21 2 0.17072489D-01 0.21733465D+00 0.96732481D+05 0.96732481D+05 0.96732481D+05 0.11229079D+01  1  2  4  2  7  2        1 -.281501643935D-02 0.100000000000D+01
-.109718099931D-03 0.000000000000D+00 -.117069913239D-04 0.166045521299D-05 0.000000000000D+00  7 -2 1 -24 -13 13 23 21 2 0.17072489D-01 0.40076454D+00 0.96732481D+05 0.96732481D+05 0.96732481D+05 0.11229079D+01  1  2  5  2  7  2        1 -.500876980192D-03 0.100000000000D+01
0.995493404796D-04 0.000000000000D+00 0.981184555627D-05 0.166045521299D-05 0.000000000000D+00  7 -2 1 -24 -13 13 23 21 2 0.17072489D-01 0.21733465D+00 0.96732481D+05 0.96732481D+05 0.96732481D+05 0.11229079D+01  1  2  6  2  7  2        1 0.281158280353D-02 0.100000000000D+01
0.651067610455D-05 0.000000000000D+00 0.000000000000D+00 0.166045521299D-05 0.000000000000D+00  7 -2 21 -24 -13 13 23 -1 2 0.17072489D-01 0.39840776D+00 0.13696535D+06 0.13696535D+06 0.13696535D+06 0.11106810D+01  1  2 12  4  7  2        1 0.963328251890D-05 0.100000000000D+01
-.668390730806D-05 0.000000000000D+00 -.781916448662D-06 0.166045521299D-05 0.000000000000D+00  7 -2 21 -24 -13 13 23 -1 2 0.17072489D-01 0.40076454D+00 0.96732481D+05 0.96732481D+05 0.96732481D+05 0.11229079D+01  1  2  5  4  7  2        1 -.101133385730D-04 0.100000000000D+01
  </mgrwgt>
  </event>
  <event>
  8     66 0.26562228E-05 0.18931712E+03 0.75467711E-02 0.10712171E+00
       -2 -1    0    0    0  501 0.00000000E+00 0.00000000E+00 0.27474326E+03 0.27474345E+03 0.32000000E+00 0.0000E+00 0.9000E+01
        1 -1    0    0  501    0 0.00000000E+00 0.00000000E+00 -.17714103E+03 0.17714132E+03 0.32000000E+00 0.0000E+00 0.9000E+01
       25  2    1    2    0    0 -.16371913E+02 0.20017711E+02 -.24352988E+02 0.30353033E+03 0.30144460E+03 0.0000E+00 0.0000E+00
       23  2    3    3    0    0 -.44975971E+02 -.10669593E+03 -.60243422E+01 0.14376259E+03 0.84997239E+02 0.0000E+00 0.0000E+00
      -24  1    1    2    0    0 0.16371913E+02 -.20017711E+02 0.12195522E+03 0.14835444E+03 0.80419002E+02 0.0000E+00 0.9000E+01
      -11  1    4    4    0    0 0.10286108E+02 -.66050831E+02 -.26900650E+02 0.72056653E+02 0.51099893E-03 0.0000E+00 0.9000E+01
       11  1    4    4    0    0 -.55262079E+02 -.40645101E+02 0.20876308E+02 0.71705940E+02 0.51099893E-03 0.0000E+00 0.9000E+01
       23  1    3    3    0    0 0.28604058E+02 0.12671364E+03 -.18328645E+02 0.15976774E+03 0.91188000E+02 0.0000E+00 0.9000E+01
#aMCatNLO 1  0  0  1  1 0.28449760D-01 0.00000000D+00  -5  7  0 0.00000000D+00 0.00000000D+00 0.00000000D+00 0.00000000D+00 0.00000000D+00
  <mgrwgt>
 0.1482791619D-03    6    2    0
 0.220609185182170D+03 0.000000000000000D+00 0.000000000000000D+00 0.220609185182170D+03
 0.220609185182170D+03 0.000000000000000D+00 0.000000000000000D+00 -.220609185182170D+03
 0.124963089111667D+03 0.163719129586497D+02 -.200177107609895D+02 0.920858806111104D+02
 0.797493257737466D+02 0.102861084163339D+02 -.660508305304284D+02 -.434906739572430D+02
 0.688213595909694D+02 -.552620790235791D+02 -.406451012961938D+02 0.551886750731977D+01
 0.167684595887958D+03 0.286040576485955D+02 0.126713642587612D+03 -.541140741611872D+02
 0.000000000000000D+00 -.000000000000000D+00 -.000000000000000D+00 -.000000000000000D+00
 0.220611545033715D+03 0.000000000000000D+00 0.000000000000000D+00 0.220611545033715D+03
 0.220694948044878D+03 0.000000000000000D+00 0.000000000000000D+00 -.220694948044878D+03
 0.124963496101274D+03 0.163792060769056D+02 -.200142849947029D+02 0.920858806111104D+02
 0.797481155288560D+02 0.102907627179159D+02 -.660486442845885D+02 -.434906739572430D+02
 0.688170202717494D+02 -.552580625921937D+02 -.406432146744842D+02 0.551886750731977D+01
 0.167689739379681D+03 0.286138442212605D+02 0.126718239593929D+03 -.541140741611872D+02
 0.881217970327062D-01 -.257504238883061D-01 -.120956401535847D-01 -.834030111633927D-01
0.123173965749D-05 0.000000000000D+00 0.000000000000D+00 0.583198459838D-08 0.000000000000D+00  7 -2 1 -24 -11 11 23 21 0 0.42268231D-01 0.27252503D-01 0.35840971D+05 0.35840971D+05 0.35840971D+05 0.11602349D+01  1  2  2  1  7  1       -2 0.125643480676D-03 0.100000000000D+01
-.664831141804D-07 0.000000000000D+00 -.473020460925D-08 0.583198459838D-08 0.000000000000D+00  7 -2 1 -24 -11 11 23 21 2 0.42268231D-01 0.27252503D-01 0.35840971D+05 0.35840971D+05 0.35840971D+05 0.11602349D+01  1  2  3  1  7  1       -2 -.912902169979D-05 0.100000000000D+01
0.771390085561D-07 0.000000000000D+00 0.000000000000D+00 0.583198459838D-08 0.000000000000D+00  7 -2 1 -24 -11 11 23 21 2 0.42268231D-01 0.27252503D-01 0.35840971D+05 0.35840971D+05 0.35840971D+05 0.11602349D+01  1  2 15  1  7  1       -2 0.105922186662D-04 0.100000000000D+01
-.340655670319D-04 0.000000000000D+00 0.000000000000D+00 0.583198459838D-08 0.000000000000D+00  7 -2 1 -24 -11 11 23 21 2 0.42268231D-01 0.27252503D-01 0.35840971D+05 0.35840971D+05 0.35840971D+05 0.11602349D+01  1  2  4  1  7  1       -2 -.467765844732D-02 0.100000000000D+01
0.340655695993D-04 0.000000000000D+00 0.000000000000D+00 0.583198459838D-08 0.517303338148D-04  7 -2 1 -24 -11 11 23 21 2 0.42268683D-01 0.27263098D-01 0.35846403D+05 0.35846403D+05 0.35846403D+05 0.11602289D+01  1  2 11  1  7  1       -2 0.467519542207D-02 0.100000000000D+01
0.150359670090D-07 0.000000000000D+00 0.000000000000D+00 0.583198459838D-08 0.103772886655D-09  7 21 1 -24 -11 11 23 2 2 0.42268683D-01 0.27263098D-01 0.35846403D+05 0.35846403D+05 0.35846403D+05 0.11602289D+01  1  2 11  3  7  1       -2 0.236355095177D-04 0.100000000000D+01
  </mgrwgt>
  </event>
  <event>
  9     66 -.26562228E-05 0.42830168E+03 0.75467711E-02 0.95846181E-01
       -2 -1    0    0    0  501 0.00000000E+00 0.00000000E+00 0.28041012E+03 0.28041030E+03 0.32000000E+00 0.0000E+00 0.9000E+01
        1 -1    0    0  502    0 0.00000000E+00 0.00000000E+00 -.78489787E+03 0.78489794E+03 0.32000000E+00 0.0000E+00 0.9000E+01
       25  2    1    2    0    0 0.30573783E+03 0.24928332E+03 -.41872538E+03 0.64875439E+03 0.29988917E+03 0.0000E+00 0.0000E+00
       23  2    3    3    0    0 0.30180075E+03 0.12623055E+03 -.25595956E+03 0.42522486E+03 0.91011221E+02 0.0000E+00 0.0000E+00
      -24  1    1    2    0    0 -.26521441E+03 -.23814129E+03 -.72953398E+02 0.37261155E+03 0.80419002E+02 0.0000E+00 0.9000E+01
      -13  1    4    4    0    0 0.68516542E+02 -.87325314E+01 -.65662248E+02 0.95301184E+02 0.10565837E+00 0.0000E+00 0.9000E+01
       13  1    4    4    0    0 0.23328421E+03 0.13496309E+03 -.19029731E+03 0.32992368E+03 0.10565837E+00 0.0000E+00 0.9000E+01
       23  1    3    3    0    0 0.39370798E+01 0.12305277E+03 -.16276582E+03 0.22352952E+03 0.91188000E+02 0.0000E+00 0.9000E+01
       21  1    1    2  502  501 -.40523424E+02 -.11142034E+02 -.12808978E+02 0.43942294E+02 0.75000000E+00 0.0000E+00 0.9000E+01
#aMCatNLO 2  0  0  2  1 0.42027286D+02 0.00000000D+00  -5  7  0 0.00000000D+00 0.00000000D+00 0.00000000D+00 0.00000000D+00 0.00000000D+00
  <mgrwgt>
 -.4951958543D-03    3    2    0
 0.447122486890307D+03 0.000000000000000D+00 0.000000000000000D+00 0.447122486890307D+03
 0.447122486890307D+03 0.000000000000000D+00 0.000000000000000D+00 -.447122486890307D+03
 0.400453899479654D+03 -.283002306287504D+03 -.243032125365040D+03 0.121413303762791D+03
 0.697495603012488D+02 0.652912760098378D+02 -.961946034719281D+01 -.225724704419680D+02
 0.259940685068311D+03 0.221240828738449D+03 0.131651855727041D+03 -.359088336838373D+02
 0.164100828931400D+03 -.352979846078254D+01 0.120999729985192D+03 -.629319996369862D+02
 0.000000000000000D+00 -.000000000000000D+00 -.000000000000000D+00 0.000000000000000D+00
 0.473922141614244D+03 0.000000000000000D+00 0.000000000000000D+00 0.473922141614244D+03
 0.464401950380828D+03 0.000000000000000D+00 0.000000000000000D+00 -.464401950380828D+03
 0.385043324780407D+03 -.265214406750452D+03 -.238141290256414D+03 0.121413303762791D+03
 0.726654185594567D+02 0.685163202981000D+02 -.873272496851309D+01 -.225724704419680D+02
 0.271893649407846D+03 0.233284430446817D+03 0.134963279312883D+03 -.359088336838373D+02
 0.165629625188141D+03 0.393707985659177D+01 0.123052770061699D+03 -.629319996369862D+02
 0.430920740592207D+02 -.405234238510577D+02 -.111420341496547D+02 0.952019123341645D+01
-.742392946934D-04 0.000000000000D+00 0.000000000000D+00 0.811456271479D-05 0.000000000000D+00  7 -2 1 -24 -13 13 23 21 2 0.40700243D-01 0.12407289D+00 0.20214827D+06 0.20214827D+06 0.20214827D+06 0.10974692D+01  1  2 13  2  7  2        1 -.121795134030D-02 0.100000000000D+01
-.389904981227D-06 0.000000000000D+00 0.000000000000D+00 0.811456271479D-05 0.000000000000D+00  7 -2 1 -24 -13 13 23 21 2 0.40700243D-01 0.11625973D+00 0.18344233D+06 0.18344233D+06 0.18344233D+06 0.11007195D+01  1  2  8  2  7  2        1 -.714574900739D-05 0.100000000000D+01
0.475876746996D-04 0.000000000000D+00 0.000000000000D+00 0.811456271479D-05 0.296312351517D-07  7 -2 1 -24 -13 13 23 21 2 0.43139736D-01 0.12075270D+00 0.20214827D+06 0.20214827D+06 0.20214827D+06 0.10974692D+01  1  2  1  2  7  2        1 0.729901235019D-03 0.100000000000D+01
  </mgrwgt>
  </event>
  <event>
  8     66 0.26562228E-05 0.15939319E+03 0.75467711E-02 0.98868144E-01
       -2 -1    0    0    0  501 0.00000000E+00 0.00000000E+00 0.52046946E+03 0.52046956E+03 0.32000000E+00 0.0000E+00 0.9000E+01
        1 -1    0    0  501    0 0.00000000E+00 0.00000000E+00 -.38542631E+03 0.38542644E+03 0.32000000E+00 0.0000E+00 0.9000E+01
       25  2    1    2    0    0 0.18647252E+02 0.31827033E+03 -.15802335E+03 0.46544292E+03 0.30003668E+03 0.0000E+00 0.0000E+00
       23  2    3    3    0    0 -.23369464E+02 0.18831572E+03 -.20630611E+03 0.29427025E+03 0.89575814E+02 0.0000E+00 0.0000E+00
      -24  1    1    2    0    0 -.18647252E+02 -.31827033E+03 0.29306651E+03 0.44045308E+03 0.80419002E+02 0.0000E+00 0.9000E+01
      -11  1    4    4    0    0 -.18219745E+01 0.15621561E+03 -.20200875E+03 0.25537065E+03 0.51099893E-03 0.0000E+00 0.9000E+01
       11  1    4    4    0    0 -.21547490E+02 0.32100110E+02 -.42973648E+01 0.38899598E+02 0.51099893E-03 0.0000E+00 0.9000E+01
       23  1    3    3    0    0 0.42016717E+02 0.12995461E+03 0.48282763E+02 0.17117267E+03 0.91188000E+02 0.0000E+00 0.9000E+01
#aMCatNLO 1  0  0  1  2 0.10539162D+02 0.00000000D+00  -5  7  0 0.00000000D+00 0.00000000D+00 0.00000000D+00 0.00000000D+00 0.00000000D+00
  <mgrwgt>
 0.7029049714D-03    9    2    0
 0.447886957194611D+03 0.000000000000000D+00 0.000000000000000D+00 0.447886957194611D+03
 0.447886957194611D+03 0.000000000000000D+00 0.000000000000000D+00 -.447886957194611D+03
 0.401248631132472D+03 -.186472524793456D+02 -.318270329679210D+03 0.229977227681721D+03
 0.288710297548644D+03 -.182197451453659D+01 0.156215611274416D+03 -.242790030919013D+03
 0.399870093660911D+02 -.215474896002155D+02 0.321001101948974D+02 -.102102661790919D+02
 0.165827976342016D+03 0.420167165940977D+02 0.129954608209897D+03 0.230230694163837D+02
 0.000000000000000D+00 0.000000000000000D+00 -.000000000000000D+00 0.000000000000000D+00
 0.515205156518051D+03 0.000000000000000D+00 0.000000000000000D+00 0.515205156518051D+03
 0.448330641531403D+03 0.000000000000000D+00 0.000000000000000D+00 -.448330641531403D+03
 0.397846635699961D+03 -.202959348795117D+02 -.313868251593887D+03 0.229977227681721D+03
 0.290458986973053D+03 -.301690864284489D+01 0.159406155031722D+03 -.242790030919013D+03
 0.404323731102192D+02 -.217134097677150D+02 0.325431267111101D+02 -.102102661790919D+02
 0.167097915328231D+03 0.413298284583037D+02 0.131788639560837D+03 0.230230694163837D+02
 0.676998869379899D+02 0.369642483176790D+01 -.986966970978258D+01 0.668745149866487D+02
0.666022189310D-04 0.000000000000D+00 0.000000000000D+00 0.497531826797D-05 0.000000000000D+00  7 -2 1 -24 -11 11 23 21 0 0.80072243D-01 0.59296372D-01 0.11830572D+06 0.11830572D+06 0.11830572D+06 0.11157799D+01  1  2  2  1  7  1       -2 0.666146839133D-03 0.100000000000D+01
-.338650967850D-05 0.000000000000D+00 -.255770057462D-06 0.497531826797D-05 0.000000000000D+00  7 -2 1 -24 -11 11 23 21 2 0.80072243D-01 0.59296372D-01 0.11830572D+06 0.11830572D+06 0.11830572D+06 0.11157799D+01  1  2  3  1  7  1       -2 -.421687406039D-04 0.100000000000D+01
0.425592416211D-05 0.000000000000D+00 0.000000000000D+00 0.497531826797D-05 0.000000000000D+00  7 -2 1 -24 -11 11 23 21 2 0.80072243D-01 0.59296372D-01 0.11830572D+06 0.11830572D+06 0.11830572D+06 0.11157799D+01  1  2 15  1  7  1       -2 0.529946697513D-04 0.100000000000D+01
0.435939254578D-02 0.000000000000D+00 0.000000000000D+00 0.497531826797D-05 0.000000000000D+00  7 -2 1 -24 -11 11 23 21 2 0.92143282D-01 0.59296372D-01 0.12223486D+06 0.12223486D+06 0.12223486D+06 0.11146361D+01  1  2 12  1  7  1       -2 0.392921886380D-01 0.100000000000D+01
-.433141943358D-02 0.000000000000D+00 0.000000000000D+00 0.497531826797D-05 0.000000000000D+00  7 -2 1 -24 -11 11 23 21 2 0.80072243D-01 0.59296372D-01 0.11830572D+06 0.11830572D+06 0.11830572D+06 0.11157799D+01  1  2  4  1  7  1       -2 -.539347351348D-01 0.100000000000D+01
-.451000669805D-02 0.000000000000D+00 -.608352684632D-04 0.497531826797D-05 0.000000000000D+00  7 -2 1 -24 -11 11 23 21 2 0.92146724D-01 0.59296372D-01 0.11830572D+06 0.11830572D+06 0.11830572D+06 0.11157799D+01  1  2  5  1  7  1       -2 -.407680507507D-01 0.100000000000D+01
0.447493519331D-02 0.000000000000D+00 0.602401124555D-04 0.497531826797D-05 0.000000000000D+00  7 -2 1 -24 -11 11 23 21 2 0.80072243D-01 0.59296372D-01 0.11830572D+06 0.11830572D+06 0.11830572D+06 0.11157799D+01  1  2  6  1  7  1       -2 0.557217900730D-01 0.100000000000D+01
0.942363625026D-04 0.000000000000D+00 0.000000000000D+00 0.497531826797D-05 0.000000000000D+00  7 21 1 -24 -11 11 23 2 2 0.92143282D-01 0.59296372D-01 0.12223486D+06 0.12223486D+06 0.12223486D+06 0.11146361D+01  1  2 12  3  7  1       -2 0.817054964082D-02 0.100000000000D+01
-.971383958637D-04 0.000000000000D+00 -.131535373596D-05 0.497531826797D-05 0.000000000000D+00  7 21 1 -24 -11 11 23 2 2 0.92146724D-01 0.59296372D-01 0.11830572D+06 0.11830572D+06 0.11830572D+06 0.11157799D+01  1  2  5  3  7  1       -2 -.845581026335D-02 0.100000000000D+01
  </mgrwgt>
  </event>
  <event>
  8     66 0.26562228E-05 0.34100600E+03 0.75467711E-02 0.91995643E-01
       -2 -1    0    0    0  501 0.00000000E+00 0.00000000E+00 0.15068024E+03 0.15068058E+03 0.32000000E+00 0.0000E+00 0.9000E+01
        1 -1    0    0  501    0 0.00000000E+00 0.00000000E+00 -.10835011E+04 0.10835012E+04 0.32000000E+00 0.0000E+00 0.9000E+01
       25  2    1    2    0    0 -.28810981E+03 0.82822708E+02 -.77990842E+03 0.88818131E+03 0.30123418E+03 0.0000E+00 0.0000E+00
       23  2    3    3    0    0 -.20132318E+03 -.64884095E+01 -.23595749E+03 0.32275557E+03 0.89006191E+02 0.0000E+00 0.0000E+00
      -24  1    1    2    0    0 0.28810981E+03 -.82822708E+02 -.15291245E+03 0.34600043E+03 0.80419002E+02 0.0000E+00 0.9000E+01
      -11  1    4    4    0    0 -.18496254E+03 -.31273303E+02 -.21973319E+03 0.28891493E+03 0.51099893E-03 0.0000E+00 0.9000E+01
       11  1    4    4    0    0 -.16360640E+02 0.24784893E+02 -.16224298E+02 0.33840646E+02 0.51099893E-03 0.0000E+00 0.9000E+01
       23  1    3    3    0    0 -.86786630E+02 0.89311118E+02 -.54395093E+03 0.56542574E+03 0.91188000E+02 0.0000E+00 0.9000E+01
#aMCatNLO 1  0  0  2  2 0.44440749D+03 0.00000000D+00  -5  7  0 0.00000000D+00 0.00000000D+00 0.00000000D+00 0.00000000D+00 0.00000000D+00
  <mgrwgt>
 0.1054423105D-02    5    2    0
 0.404057479161857D+03 0.000000000000000D+00 0.000000000000000D+00 0.404057479161857D+03
 0.404057479161857D+03 0.000000000000000D+00 0.000000000000000D+00 -.404057479161857D+03
 0.351914640403916D+03 0.288109809715142D+03 -.828227080292026D+02 0.165860889774718D+03
 0.187599326363257D+03 -.184962539724253D+03 -.312733027441706D+02 -.208487078095549D+01
 0.329546476102739D+02 -.163606400584934D+02 0.247848932088643D+02 0.142845134540504D+02
 0.235646343946268D+03 -.867866299323957D+02 0.893111175645089D+02 -.178060532447813D+03
 0.000000000000000D+00 -.000000000000000D+00 -.000000000000000D+00 -.000000000000000D+00
 0.599288374628671D+03 0.000000000000000D+00 0.000000000000000D+00 0.599288374628671D+03
 0.818490853996994D+03 0.000000000000000D+00 0.000000000000000D+00 -.818490853996994D+03
 0.455228334874017D+03 0.407056389506899D+03 0.869533318656985D+02 0.165860889774718D+03
 0.141645532048838D+03 -.136442573594764D+03 0.379807079194481D+02 -.208487078095549D+01
 0.436094392593746D+02 -.507758792651183D+01 0.408895337310990D+02 0.142845134540504D+02
 0.281768179531335D+03 -.105365852844197D+02 0.198145105433741D+03 -.178060532447813D+03
 0.495527742912100D+03 -.254999642701203D+03 -.363968678949987D+03 -.219202479368323D+03
0.462210934651D-04 0.000000000000D+00 0.000000000000D+00 0.327205121176D-06 0.000000000000D+00  7 -2 1 -24 -11 11 23 21 0 0.23181605D-01 0.16669251D+00 0.11628509D+06 0.11628509D+06 0.11628509D+06 0.11163844D+01  1  2  2  2  7  2        1 0.105155014379D-02 0.100000000000D+01
-.247797299591D-05 0.000000000000D+00 -.177501169199D-06 0.327205121176D-06 0.000000000000D+00  7 -2 1 -24 -11 11 23 21 2 0.23181605D-01 0.16669251D+00 0.11628509D+06 0.11628509D+06 0.11628509D+06 0.11163844D+01  1  2  3  2  7  2        1 -.702609209695D-04 0.100000000000D+01
0.296024185331D-05 0.000000000000D+00 0.000000000000D+00 0.327205121176D-06 0.000000000000D+00  7 -2 1 -24 -11 11 23 21 2 0.23181605D-01 0.16669251D+00 0.11628509D+06 0.11628509D+06 0.11628509D+06 0.11163844D+01  1  2 15  2  7  2        1 0.839352645286D-04 0.100000000000D+01
-.417961101451D-05 0.000000000000D+00 -.132037093069D-04 0.327205121176D-06 0.000000000000D+00  7 -2 1 -24 -11 11 23 21 2 0.23181605D-01 0.40150037D+00 0.11628509D+06 0.11628509D+06 0.11628509D+06 0.11163844D+01  1  2  5  2  7  2        1 -.111739970766D-04 0.100000000000D+01
0.426595204233D-06 0.000000000000D+00 -.127052349092D-05 0.327205121176D-06 0.000000000000D+00  7 -2 21 -24 -11 11 23 -1 2 0.23181605D-01 0.40150037D+00 0.11628509D+06 0.11628509D+06 0.11628509D+06 0.11163844D+01  1  2  5  4  7  2        1 0.372614392878D-06 0.100000000000D+01
  </mgrwgt>
  </event>
  <event>
  8     66 0.26562228E-05 0.20782772E+03 0.75467711E-02 0.10027297E+00
       -2 -1    0    0    0  501 0.00000000E+00 0.00000000E+00 0.35744914E+03 0.35744928E+03 0.32000000E+00 0.0000E+00 0.9000E+01
        1 -1    0    0  501    0 0.00000000E+00 0.00000000E+00 -.27811520E+03 0.27811539E+03 0.32000000E+00 0.0000E+00 0.9000E+01
       25  2    1    2    0    0 0.11091247E+03 -.20235202E+03 0.97946017E+02 0.39049011E+03 0.29940138E+03 0.0000E+00 0.0000E+00
       23  2    3    3    0    0 0.14863291E+03 -.17999530E+03 0.13261372E+03 0.28353331E+03 0.91184922E+02 0.0000E+00 0.0000E+00
      -24  1    1    2    0    0 -.11091247E+03 0.20235202E+03 -.18612082E+02 0.24507456E+03 0.80419002E+02 0.0000E+00 0.9000E+01
      -11  1    4    4    0    0 0.69830853E+01 0.84257668E+01 -.33010511E+01 0.11430397E+02 0.51099893E-03 0.0000E+00 0.9000E+01
       11  1    4    4    0    0 0.14164983E+03 -.18842107E+03 0.13591477E+03 0.27210292E+03 0.51099893E-03 0.0000E+00 0.9000E+01
       23  1    3    3    0    0 -.37720445E+02 -.22356720E+02 -.34667706E+02 0.10695680E+03 0.91188000E+02 0.0000E+00 0.9000E+01
#aMCatNLO 1  0  0  1  2 0.32173606D+02 0.00000000D+00  -5  7  0 0.00000000D+00 0.00000000D+00 0.00000000D+00 0.00000000D+00 0.00000000D+00
  <mgrwgt>
 0.1160556378D-02    9    2    0
 0.315296914105940D+03 0.000000000000000D+00 0.000000000000000D+00 0.315296914105940D+03
 0.315296914105940D+03 0.000000000000000D+00 0.000000000000000D+00 -.315296914105940D+03
 0.249347987607273D+03 -.110912466878206D+03 0.202352018845769D+03 -.495912102036086D+02
 0.119357996472364D+02 0.698308531033402D+01 0.842576682633273D+01 -.476511134768516D+01
 0.257148641781773D+03 0.141649826705617D+03 -.188421065331310D+03 0.102753358601526D+03
 0.112161399175597D+03 -.377204451377447D+02 -.223567203407924D+02 -.483970370502327D+02
 0.000000000000000D+00 -.000000000000000D+00 -.000000000000000D+00 0.000000000000000D+00
 0.524592587065428D+03 0.000000000000000D+00 0.000000000000000D+00 0.524592587065428D+03
 0.316945915950029D+03 0.000000000000000D+00 0.000000000000000D+00 -.316945915950029D+03
 0.247629026088288D+03 -.989137599950970D+02 0.206421167909779D+03 -.495912102036086D+02
 0.124268015817398D+02 0.757128094715602D+01 0.862524296558223D+01 -.476511134768516D+01
 0.261239868622209D+03 0.154165479575870D+03 -.184176603185630D+03 0.102753358601526D+03
 0.110118365217189D+03 -.323538594295586D+02 -.205367377856610D+02 -.483970370502327D+02
 0.210124441506031D+03 -.304691410983708D+02 -.103330699040707D+02 0.207646671115399D+03
0.299318706928D-04 0.000000000000D+00 0.000000000000D+00 0.214060196276D-05 0.000000000000D+00  7 -2 1 -24 -11 11 23 21 0 0.54992200D-01 0.42786980D-01 0.87681011D+05 0.87681011D+05 0.87681011D+05 0.11264376D+01  1  2  2  1  7  1       -2 0.102405206099D-02 0.100000000000D+01
-.165491190840D-05 0.000000000000D+00 -.114946264703D-06 0.214060196276D-05 0.000000000000D+00  7 -2 1 -24 -11 11 23 21 2 0.54992200D-01 0.42786980D-01 0.87681011D+05 0.87681011D+05 0.87681011D+05 0.11264376D+01  1  2  3  1  7  1       -2 -.718418253806D-04 0.100000000000D+01
0.194880672742D-05 0.000000000000D+00 0.000000000000D+00 0.214060196276D-05 0.000000000000D+00  7 -2 1 -24 -11 11 23 21 2 0.54992200D-01 0.42786980D-01 0.87681011D+05 0.87681011D+05 0.87681011D+05 0.11264376D+01  1  2 15  1  7  1       -2 0.846001723117D-04 0.100000000000D+01
0.532140240954D-03 0.000000000000D+00 0.000000000000D+00 0.214060196276D-05 0.000000000000D+00  7 -2 1 -24 -11 11 23 21 2 0.91556846D-01 0.42786980D-01 0.97768576D+05 0.97768576D+05 0.97768576D+05 0.11225272D+01  1  2 12  1  7  1       -2 0.764034334948D-02 0.100000000000D+01
-.472595169370D-03 0.000000000000D+00 0.000000000000D+00 0.214060196276D-05 0.000000000000D+00  7 -2 1 -24 -11 11 23 21 2 0.54992200D-01 0.42786980D-01 0.87681011D+05 0.87681011D+05 0.87681011D+05 0.11264376D+01  1  2  4  1  7  1       -2 -.205159558410D-01 0.100000000000D+01
-.534934721196D-03 0.000000000000D+00 -.103231690265D-04 0.214060196276D-05 0.000000000000D+00  7 -2 1 -24 -11 11 23 21 2 0.91671268D-01 0.42786980D-01 0.87681011D+05 0.87681011D+05 0.87681011D+05 0.11264376D+01  1  2  5  1  7  1       -2 -.773078485523D-02 0.100000000000D+01
0.477685083050D-03 0.000000000000D+00 0.910785539780D-05 0.214060196276D-05 0.000000000000D+00  7 -2 1 -24 -11 11 23 21 2 0.54992200D-01 0.42786980D-01 0.87681011D+05 0.87681011D+05 0.87681011D+05 0.11264376D+01  1  2  6  1  7  1       -2 0.207369154510D-01 0.100000000000D+01
0.304692480007D-04 0.000000000000D+00 0.000000000000D+00 0.214060196276D-05 0.000000000000D+00  7 21 1 -24 -11 11 23 2 2 0.91556846D-01 0.42786980D-01 0.97768576D+05 0.97768576D+05 0.97768576D+05 0.11225272D+01  1  2 12  3  7  1       -2 0.424443575757D-02 0.100000000000D+01
-.302122532109D-04 0.000000000000D+00 -.592242360535D-06 0.214060196276D-05 0.000000000000D+00  7 21 1 -24 -11 11 23 2 2 0.91671268D-01 0.42786980D-01 0.87681011D+05 0.87681011D+05 0.87681011D+05 0.11264376D+01  1  2  5  3  7  1       -2 -.425120789202D-02 0.100000000000D+01
  </mgrwgt>
  </event>
  <event>
  8     66 0.26562228E-05 0.14889277E+03 0.75467711E-02 0.10444113E+00
       -2 -1    0    0    0  501 0.00000000E+00 0.00000000E+00 0.83616897E+03 0.83616903E+03 0.32000000E+00 0.0000E+00 0.9000E+01
        1 -1    0    0  501    0 0.00000000E+00 0.00000000E+00 -.65308390E+02 0.65309174E+02 0.32000000E+00 0.0000E+00 0.9000E+01
       25  2    1    2    0    0 0.54947762E+01 0.73468008E+02 0.71435325E+03 0.77864484E+03 0.30093104E+03 0.0000E+00 0.0000E+00
       23  2    3    3    0    0 0.27369748E+02 0.15377104E+03 0.49472395E+03 0.52669371E+03 0.90883688E+02 0.0000E+00 0.0000E+00
      -24  1    1    2    0    0 -.54947762E+01 -.73468008E+02 0.56507336E+02 0.12283337E+03 0.80419002E+02 0.0000E+00 0.9000E+01
      -11  1    4    4    0    0 0.29683119E+02 0.51157220E+01 0.57963961E+02 0.65322882E+02 0.51099893E-03 0.0000E+00 0.9000E+01
       11  1    4    4    0    0 -.23133711E+01 0.14865532E+03 0.43675999E+03 0.46137083E+03 0.51099893E-03 0.0000E+00 0.9000E+01
       23  1    3    3    0    0 -.21874972E+02 -.80303036E+02 0.21962930E+03 0.25195113E+03 0.91188000E+02 0.0000E+00 0.9000E+01
#aMCatNLO 1  0  0  2  1 0.43616815D+02 0.00000000D+00  -5  7  0 0.00000000D+00 0.00000000D+00 0.00000000D+00 0.00000000D+00 0.00000000D+00
  <mgrwgt>
 0.1094855836D-02    9    2    0
 0.233686179862812D+03 0.000000000000000D+00 0.000000000000000D+00 0.233686179862812D+03
 0.233686179862812D+03 0.000000000000000D+00 0.000000000000000D+00 -.233686179862812D+03
 0.143723357383146D+03 -.549477618849623D+01 -.734680079623635D+02 -.936026000909884D+02
 0.303933724168523D+02 0.296831192992093D+02 0.511572194263863D+01 0.406188435876689D+01
 0.169532257631418D+03 -.231337109979824D+01 0.148655321504047D+03 0.814704245741259D+02
 0.123723372294208D+03 -.218749720109148D+02 -.803030354843225D+02 0.807029115809566D+01
 0.000000000000000D+00 -.000000000000000D+00 0.000000000000000D+00 -.000000000000000D+00
 0.255274873387137D+03 0.000000000000000D+00 0.000000000000000D+00 0.255274873387137D+03
 0.257819276519570D+03 0.000000000000000D+00 0.000000000000000D+00 -.257819276519570D+03
 0.148326467670714D+03 0.497748648002487D+01 -.821419682126539D+02 -.936026000909884D+02
 0.323542679550649D+02 0.319331113054823D+02 0.325209973952603D+01 0.406188435876689D+01
 0.161253250735746D+03 0.954786774847833D+01 0.138830900789467D+03 0.814704245741259D+02
 0.127469197639177D+03 -.128677604084490D+02 -.877635240032546D+02 0.807029115809566D+01
 0.436909659060038D+02 -.335907051255365D+02 0.278224916869159D+02 -.254440313243271D+01
0.223495140778D-04 0.000000000000D+00 0.000000000000D+00 0.507897899065D-06 0.000000000000D+00  7 -2 1 -24 -11 11 23 21 0 0.12864145D+00 0.10047510D-01 0.42295611D+05 0.42295611D+05 0.42295611D+05 0.11537432D+01  1  2  2  2  7  2        1 0.739739027364D-03 0.100000000000D+01
-.121699826145D-05 0.000000000000D+00 -.858280188209D-07 0.507897899065D-06 0.000000000000D+00  7 -2 1 -24 -11 11 23 21 2 0.12864145D+00 0.10047510D-01 0.42295611D+05 0.42295611D+05 0.42295611D+05 0.11537432D+01  1  2  3  2  7  2        1 -.536190018162D-04 0.100000000000D+01
0.138384147956D-05 0.000000000000D+00 0.000000000000D+00 0.507897899065D-06 0.000000000000D+00  7 -2 1 -24 -11 11 23 21 2 0.12864145D+00 0.10047510D-01 0.42295611D+05 0.42295611D+05 0.42295611D+05 0.11537432D+01  1  2 15  2  7  2        1 0.609698478268D-04 0.100000000000D+01
0.237640149503D-04 0.000000000000D+00 0.000000000000D+00 0.507897899065D-06 0.000000000000D+00  7 -2 1 -24 -11 11 23 21 2 0.12864145D+00 0.11505275D-01 0.52246424D+05 0.52246424D+05 0.52246424D+05 0.11456203D+01  1  2 12  2  7  2        1 0.862616089764D-03 0.100000000000D+01
-.198837678117D-04 0.000000000000D+00 0.000000000000D+00 0.507897899065D-06 0.000000000000D+00  7 -2 1 -24 -11 11 23 21 2 0.12864145D+00 0.10047510D-01 0.42295611D+05 0.42295611D+05 0.42295611D+05 0.11537432D+01  1  2  4  2  7  2        1 -.876047087479D-03 0.100000000000D+01
-.641588164826D-04 0.000000000000D+00 -.186854946104D-04 0.507897899065D-06 0.000000000000D+00  7 -2 1 -24 -11 11 23 21 2 0.12864145D+00 0.12121515D-01 0.42295611D+05 0.42295611D+05 0.42295611D+05 0.11537432D+01  1  2  5  2  7  2        1 -.220819686543D-02 0.100000000000D+01
0.668097158741D-04 0.000000000000D+00 0.183612470300D-04 0.507897899065D-06 0.000000000000D+00  7 -2 1 -24 -11 11 23 21 2 0.12864145D+00 0.10047510D-01 0.42295611D+05 0.42295611D+05 0.42295611D+05 0.11537432D+01  1  2  6  2  7  2        1 0.294352949406D-02 0.100000000000D+01
0.498823221442D-06 0.000000000000D+00 0.000000000000D+00 0.507897899065D-06 0.000000000000D+00  7 -2 21 -24 -11 11 23 -1 2 0.12864145D+00 0.11505275D-01 0.52246424D+05 0.52246424D+05 0.52246424D+05 0.11456203D+01  1  2 12  4  7  2        1 0.196365247251D-03 0.100000000000D+01
-.155521673430D-05 0.000000000000D+00 -.509072385178D-06 0.507897899065D-06 0.000000000000D+00  7 -2 21 -24 -11 11 23 -1 2 0.12864145D+00 0.12121515D-01 0.42295611D+05 0.42295611D+05 0.42295611D+05 0.11537432D+01  1  2  5  4  7  2        1 -.570500915951D-03 0.100000000000D+01
  </mgrwgt>
  </event>
  <event>
  8     66 0.26562228E-05 0.13157047E+03 0.75467711E-02 0.10310615E+00
       -2 -1    0    0    0  501 0.00000000E+00 0.00000000E+00 0.32068359E+03 0.32068375E+03 0.32000000E+00 0.0000E+00 0.9000E+01
        1 -1    0    0  501    0 0.00000000E+00 0.00000000E+00 -.14799395E+03 0.14799430E+03 0.32000000E+00 0.0000E+00 0.9000E+01
       25  2    1    2    0    0 0.59124334E+00 0.99317245E+02 0.12105385E+03 0.33084578E+03 0.29144575E+03 0.0000E+00 0.0000E+00
       23  2    3    3    0    0 -.33790305E+02 0.13820175E+03 0.14538982E+03 0.22313511E+03 0.91703713E+02 0.0000E+00 0.0000E+00
      -24  1    1    2    0    0 -.59124334E+00 -.99317245E+02 0.51635781E+02 0.13783227E+03 0.80419002E+02 0.0000E+00 0.9000E+01
      -11  1    4    4    0    0 -.24258486E+02 0.15009119E+03 0.12071404E+03 0.19413325E+03 0.51099893E-03 0.0000E+00 0.9000E+01
       11  1    4    4    0    0 -.95318190E+01 -.11889434E+02 0.24675782E+02 0.29001869E+02 0.51099893E-03 0.0000E+00 0.9000E+01
       23  1    3    3    0    0 0.34381548E+02 -.38884509E+02 -.24335963E+02 0.10771066E+03 0.91188000E+02 0.0000E+00 0.9000E+01
#aMCatNLO 1  0  0  2  1 0.93130830D+02 0.00000000D+00  -5  7  0 0.00000000D+00 0.00000000D+00 0.00000000D+00 0.00000000D+00 0.00000000D+00
  <mgrwgt>
 0.1623877920D-01    9    2    0
 0.217851669613900D+03 0.000000000000000D+00 0.000000000000000D+00 0.217851669613900D+03
 0.217851669613900D+03 0.000000000000000D+00 0.000000000000000D+00 -.217851669613900D+03
 0.127797952708289D+03 -.591243338322572D+00 -.993172457076309D+02 0.914274808003631D+00
 0.160980927050051D+03 -.242584854626980D+02 0.150091188190732D+03 0.529057651342858D+02
 0.214166077140974D+02 -.953181896497680D+01 -.118894335503434D+02 0.150484844104119D+02
 0.125507851755362D+03 0.343815477659973D+02 -.388845089327576D+02 -.688685243527013D+02
 0.000000000000000D+00 -.000000000000000D+00 0.000000000000000D+00 -.000000000000000D+00
 0.246920007452081D+03 0.000000000000000D+00 0.000000000000000D+00 0.246920007452081D+03
 0.312569085584894D+03 0.000000000000000D+00 0.000000000000000D+00 -.312569085584894D+03
 0.149423737763807D+03 0.130225836012907D+02 -.125258987185987D+03 0.914274808003631D+00
 0.133800229624057D+03 -.978234672627301D+01 0.122506273943554D+03 0.529057651342858D+02
 0.232039371721634D+02 -.734058935737168D+01 -.160649172150291D+02 0.150484844104119D+02
 0.139117549128518D+03 0.473767950185623D+02 -.636475198163775D+02 -.688685243527013D+02
 0.113943639348430D+03 -.432764425362083D+02 0.824651502738400D+02 -.656490781328134D+02
0.152654953933D-03 0.000000000000D+00 0.000000000000D+00 0.421468724775D-08 0.000000000000D+00  7 -2 1 -24 -11 11 23 21 0 0.49335975D-01 0.22768339D-01 0.39999527D+05 0.39999527D+05 0.39999527D+05 0.11559188D+01  1  2  2  2  7  2        1 0.146344524048D-01 0.100000000000D+01
-.840544623909D-05 0.000000000000D+00 -.586235218074D-06 0.421468724775D-08 0.000000000000D+00  7 -2 1 -24 -11 11 23 21 2 0.49335975D-01 0.22768339D-01 0.39999527D+05 0.39999527D+05 0.39999527D+05 0.11559188D+01  1  2  3  2  7  2        1 -.107666607590D-02 0.100000000000D+01
0.100747224569D-04 0.000000000000D+00 0.000000000000D+00 0.421468724775D-08 0.000000000000D+00  7 -2 1 -24 -11 11 23 21 2 0.49335975D-01 0.22768339D-01 0.39999527D+05 0.39999527D+05 0.39999527D+05 0.11559188D+01  1  2 15  2  7  2        1 0.129048614254D-02 0.100000000000D+01
0.872290312672D-04 0.000000000000D+00 0.000000000000D+00 0.421468724775D-08 0.000000000000D+00  7 -2 1 -24 -11 11 23 21 2 0.49335975D-01 0.33663997D-01 0.63500413D+05 0.63500413D+05 0.63500413D+05 0.11382750D+01  1  2 12  2  7  2        1 0.655327409220D-02 0.100000000000D+01
-.123749031956D-03 0.000000000000D+00 0.000000000000D+00 0.421468724775D-08 0.000000000000D+00  7 -2 1 -24 -11 11 23 21 2 0.49335975D-01 0.22768339D-01 0.39999527D+05 0.39999527D+05 0.39999527D+05 0.11559188D+01  1  2  4  2  7  2        1 -.158511970504D-01 0.100000000000D+01
-.155336671153D-03 0.000000000000D+00 -.626109964217D-04 0.421468724775D-08 0.000000000000D+00  7 -2 1 -24 -11 11 23 21 2 0.49335975D-01 0.36539421D-01 0.39999527D+05 0.39999527D+05 0.39999527D+05 0.11559188D+01  1  2  5  2  7  2        1 -.108481115266D-01 0.100000000000D+01
0.171780182780D-03 0.000000000000D+00 0.562049819760D-04 0.421468724775D-08 0.000000000000D+00  7 -2 1 -24 -11 11 23 21 2 0.49335975D-01 0.22768339D-01 0.39999527D+05 0.39999527D+05 0.39999527D+05 0.11559188D+01  1  2  6  2  7  2        1 0.220035784002D-01 0.100000000000D+01
0.408390039504D-05 0.000000000000D+00 0.000000000000D+00 0.421468724775D-08 0.000000000000D+00  7 -2 21 -24 -11 11 23 -1 2 0.49335975D-01 0.33663997D-01 0.63500413D+05 0.63500413D+05 0.63500413D+05 0.11382750D+01  1  2 12  4  7  2        1 0.186604666681D-02 0.100000000000D+01
-.573837865699D-05 0.000000000000D+00 -.338023766112D-05 0.421468724775D-08 0.000000000000D+00  7 -2 21 -24 -11 11 23 -1 2 0.49335975D-01 0.36539421D-01 0.39999527D+05 0.39999527D+05 0.39999527D+05 0.11559188D+01  1  2  5  4  7  2        1 -.233308385686D-02 0.100000000000D+01
  </mgrwgt>
  </event>
  <event>
  9     66 -.26562228E-05 0.96292228E+03 0.75467711E-02 0.87497875E-01
       -2 -1    0    0    0  502 0.00000000E+00 0.00000000E+00 0.36163972E+03 0.36163986E+03 0.32000000E+00 0.0000E+00 0.9000E+01
        1 -1    0    0  501    0 0.00000000E+00 0.00000000E+00 -.28646511E+04 0.28646511E+04 0.32000000E+00 0.0000E+00 0.9000E+01
       25  2    1    2    0    0 0.48742493E+03 -.79856484E+03 -.15872983E+04 0.18667850E+04 0.30013570E+03 0.0000E+00 0.0000E+00
       23  2    3    3    0    0 0.22252744E+03 -.55876026E+03 -.88986540E+03 0.10778586E+04 0.90483634E+02 0.0000E+00 0.0000E+00
      -24  1    1    2    0    0 -.53395091E+03 0.78336139E+03 -.89538857E+03 0.13065016E+04 0.80419002E+02 0.0000E+00 0.9000E+01
      -11  1    4    4    0    0 0.14914874E+03 -.45630545E+03 -.66642137E+03 0.82132664E+03 0.51099893E-03 0.0000E+00 0.9000E+01
       11  1    4    4    0    0 0.73378698E+02 -.10245481E+03 -.22344403E+03 0.25653198E+03 0.51099893E-03 0.0000E+00 0.9000E+01
       23  1    3    3    0    0 0.26489749E+03 -.23980459E+03 -.69743285E+03 0.78892633E+03 0.91188000E+02 0.0000E+00 0.9000E+01
       21  1    1    2  501  502 0.46525974E+02 0.15203453E+02 -.20324522E+02 0.53004339E+02 0.75000000E+00 0.0000E+00 0.9000E+01
#aMCatNLO 2  0  0  1  2 0.48947025D+02 0.00000000D+00  -5  7  0 0.00000000D+00 0.00000000D+00 0.00000000D+00 0.00000000D+00 0.00000000D+00
  <mgrwgt>
 -.2448690935D-03    3    2    0
 0.987878807165287D+03 0.000000000000000D+00 0.000000000000000D+00 0.987878807165287D+03
 0.987878807165287D+03 0.000000000000000D+00 0.000000000000000D+00 -.987878807165287D+03
 0.966718766630627D+03 -.511116152630730D+03 0.790823182556124D+03 0.203560630410781D+03
 0.481734774047767D+03 0.160489344088625D+03 -.452599644921801D+03 -.382769431579255D+02
 0.132184373664850D+03 0.764794187629808D+02 -.101441571944517D+03 -.365132116948182D+02
 0.395119699987331D+03 0.274147389779124D+03 -.236781965689805D+03 -.128770475558038D+03
 0.000000000000000D+00 0.000000000000000D+00 0.000000000000000D+00 0.000000000000000D+00
 0.103494116657135D+04 0.000000000000000D+00 0.000000000000000D+00 0.103494116657135D+04
 0.100099120093111D+04 0.000000000000000D+00 0.000000000000000D+00 -.100099120093111D+04
 0.972965973819402D+03 -.533950907110497D+03 0.783361390929250D+03 0.203560630410781D+03
 0.481586064726930D+03 0.149148740958676D+03 -.456305452994042D+03 -.382769431579255D+02
 0.131204554123007D+03 0.733786976131463D+02 -.102454805309194D+03 -.365132116948182D+02
 0.390607230588341D+03 0.264897494075107D+03 -.239804586072032D+03 -.128770475558038D+03
 0.595685442447872D+02 0.465259744635672D+02 0.152034534460173D+02 0.339499656402395D+02
-.627120846973D-02 0.000000000000D+00 0.000000000000D+00 0.451920388184D-04 0.000000000000D+00  7 -2 1 -24 -11 11 23 21 2 0.55978092D-01 0.43494143D+00 0.97538911D+06 0.97538911D+06 0.97538911D+06 0.10485851D+01  1  2 13  1  7  1       -2 -.175356052410D-02 0.100000000000D+01
-.328778587170D-02 0.000000000000D+00 0.000000000000D+00 0.451920388184D-04 0.000000000000D+00  7 -2 1 -24 -11 11 23 21 2 0.53106765D-01 0.43494143D+00 0.92721931D+06 0.92721931D+06 0.92721931D+06 0.10500555D+01  1  2  8  1  7  1       -2 -.103068693261D-02 0.100000000000D+01
0.955644676873D-02 0.000000000000D+00 0.000000000000D+00 0.451920388184D-04 0.110736824178D-06  7 -2 1 -24 -11 11 23 21 2 0.55636761D-01 0.44071453D+00 0.97538911D+06 0.97538911D+06 0.97538911D+06 0.10485851D+01  1  2  1  1  7  1       -2 0.253937836321D-02 0.100000000000D+01
  </mgrwgt>
  </event>
  <event>
  8     66 0.26562228E-05 0.39944250E+03 0.75467711E-02 0.96387275E-01
       -2 -1    0    0    0  501 0.00000000E+00 0.00000000E+00 0.71590160E+03 0.71590167E+03 0.32000000E+00 0.0000E+00 0.9000E+01
        1 -1    0    0  501    0 0.00000000E+00 0.00000000E+00 -.22670436E+03 0.22670459E+03 0.32000000E+00 0.0000E+00 0.9000E+01
       25  2    1    2    0    0 0.33605992E+03 0.47400047E+02 0.22983697E+03 0.50795927E+03 0.30002425E+03 0.0000E+00 0.0000E+00
       23  2    3    3    0    0 0.43044382E+02 0.11151210E+03 0.93476386E+02 0.16608514E+03 0.67517920E+02 0.0000E+00 0.0000E+00
      -24  1    1    2    0    0 -.33605992E+03 -.47400047E+02 0.25936027E+03 0.43464698E+03 0.80419002E+02 0.0000E+00 0.9000E+01
      -11  1    4    4    0    0 -.98630639E+01 0.66226338E+02 0.37553021E+02 0.76768725E+02 0.51099893E-03 0.0000E+00 0.9000E+01
       11  1    4    4    0    0 0.52907446E+02 0.45285767E+02 0.55923366E+02 0.89316412E+02 0.51099893E-03 0.0000E+00 0.9000E+01
       23  1    3    3    0    0 0.29301554E+03 -.64112057E+02 0.13636059E+03 0.34187414E+03 0.91188000E+02 0.0000E+00 0.9000E+01
#aMCatNLO 1  0  0  2  1 0.57673569D+02 0.00000000D+00  -5  7  0 0.00000000D+00 0.00000000D+00 0.00000000D+00 0.00000000D+00 0.00000000D+00
  <mgrwgt>
 0.2083092481D-02    4    2    0
 0.402862450044796D+03 0.000000000000000D+00 0.000000000000000D+00 0.402862450044796D+03
 0.402862450044796D+03 0.000000000000000D+00 0.000000000000000D+00 -.402862450044796D+03
 0.351016382553289D+03 -.336059923817007D+03 -.474000472596792D+02 0.395252829251544D+02
 0.670102743506965D+02 -.986306389977358D+01 0.662263375154701D+02 -.267750972951146D+01
 0.705360504557235D+02 0.529074461741664D+02 0.452857669968444D+02 0.111953499600316D+02
 0.317162192729884D+03 0.293015541542614D+03 -.641120572526352D+02 -.480431231556745D+02
 0.000000000000000D+00 0.000000000000000D+00 -.000000000000000D+00 0.000000000000000D+00
 0.502663885842739D+03 0.000000000000000D+00 0.000000000000000D+00 0.502663885842739D+03
 0.412312294102131D+03 0.000000000000000D+00 0.000000000000000D+00 -.412312294102131D+03
 0.348746410064682D+03 -.336293532132322D+03 -.223887211400309D+02 0.395252829251544D+02
 0.719285740532182D+02 -.990944714656779D+01 0.711923701264893D+02 -.267750972951146D+01
 0.739225519641694D+02 0.528592202165991D+02 0.504490898457131D+02 0.111953499600316D+02
 0.313188855936298D+03 0.292805105594763D+03 -.415816857976621D+02 -.480431231556745D+02
 0.107189787926503D+03 0.538653467527736D+00 -.576710530345094D+02 0.903515917406078D+02
0.253490018293D-03 0.000000000000D+00 0.000000000000D+00 0.139374692920D-07 0.000000000000D+00  7 -2 1 -24 -11 11 23 21 0 0.11013873D+00 0.34877617D-01 0.15955431D+06 0.15955431D+06 0.15955431D+06 0.11054418D+01  1  2  2  2  7  2        1 0.239367101567D-02 0.100000000000D+01
-.140815342885D-04 0.000000000000D+00 -.973468415702D-06 0.139374692920D-07 0.000000000000D+00  7 -2 1 -24 -11 11 23 21 2 0.11013873D+00 0.34877617D-01 0.15955431D+06 0.15955431D+06 0.15955431D+06 0.11054418D+01  1  2  3  2  7  2        1 -.162489524220D-03 0.100000000000D+01
0.164903140372D-04 0.000000000000D+00 0.000000000000D+00 0.139374692920D-07 0.000000000000D+00  7 -2 1 -24 -11 11 23 21 2 0.11013873D+00 0.34877617D-01 0.15955431D+06 0.15955431D+06 0.15955431D+06 0.11054418D+01  1  2 15  2  7  2        1 0.190284895613D-03 0.100000000000D+01
-.293238828112D-04 0.000000000000D+00 0.000000000000D+00 0.139374692920D-07 0.000000000000D+00  7 -2 1 -24 -11 11 23 21 2 0.11013873D+00 0.34877617D-01 0.15955431D+06 0.15955431D+06 0.15955431D+06 0.11054418D+01  1  2  4  2  7  2        1 -.338373906469D-03 0.100000000000D+01
  </mgrwgt>
  </event>
  <event>
  8     66 0.26562228E-05 0.26267804E+03 0.75467711E-02 0.96200513E-01
       -2 -1    0    0    0  501 0.00000000E+00 0.00000000E+00 0.83930659E+02 0.83931269E+02 0.32000000E+00 0.0000E+00 0.9000E+01
        1 -1    0    0  501    0 0.00000000E+00 0.00000000E+00 -.90182164E+03 0.90182170E+03 0.32000000E+00 0.0000E+00 0.9000E+01
       25  2    1    2    0    0 -.86157837E+02 0.15541712E+03 -.48940947E+03 0.60372552E+03 0.30558995E+03 0.0000E+00 0.0000E+00
       23  2    3    3    0    0 0.37905065E+02 -.24440819E+02 -.79409750E+02 0.13027488E+03 0.92905808E+02 0.0000E+00 0.0000E+00
      -24  1    1    2    0    0 0.86157837E+02 -.15541712E+03 -.32848151E+03 0.38202745E+03 0.80419002E+02 0.0000E+00 0.9000E+01
      -11  1    4    4    0    0 0.56944014E+02 -.39472088E+02 -.30546001E+02 0.75721362E+02 0.51099893E-03 0.0000E+00 0.9000E+01
       11  1    4    4    0    0 -.19038950E+02 0.15031269E+02 -.48863749E+02 0.54553521E+02 0.51099893E-03 0.0000E+00 0.9000E+01
       23  1    3    3    0    0 -.12406290E+03 0.17985794E+03 -.40999972E+03 0.47345063E+03 0.91188000E+02 0.0000E+00 0.9000E+01
#aMCatNLO 1  0  0  1  2 0.28031878D+03 0.00000000D+00  -5  7  0 0.00000000D+00 0.00000000D+00 0.00000000D+00 0.00000000D+00 0.00000000D+00
  <mgrwgt>
 0.1896108164D-02    3    2    0
 0.275119634853121D+03 0.000000000000000D+00 0.000000000000000D+00 0.275119634853121D+03
 0.275119634853121D+03 0.000000000000000D+00 0.000000000000000D+00 -.275119634853121D+03
 0.196137630932008D+03 0.861578369868173D+02 -.155417118159126D+03 -.206179732785597D+02
 0.902502985906853D+02 0.569440141066017D+02 -.394720877515186D+02 0.578312194378729D+02
 0.251001269160540D+02 -.190389498832324D+02 0.150312696041068D+02 -.644947227565491D+01
 0.238751213267493D+03 -.124062901210187D+03 0.179857936306538D+03 -.307637738836583D+02
 0.000000000000000D+00 0.000000000000000D+00 0.000000000000000D+00 -.000000000000000D+00
 0.330486828494746D+03 0.000000000000000D+00 0.000000000000000D+00 0.330486828494746D+03
 0.121311427128497D+04 0.000000000000000D+00 0.000000000000000D+00 -.121311427128497D+04
 0.222550335516736D+03 -.405569425579500D+00 -.206485279319294D+03 -.206179732785597D+02
 0.865188683084357D+02 0.203971284503056D+02 -.610329565290979D+02 0.578312194378729D+02
 0.326326158725344D+02 -.309751488614343D+02 0.798949804818344D+01 -.644947227565491D+01
 0.275827024598161D+03 -.230451545510506D+03 0.117093857836049D+03 -.307637738836583D+02
 0.926072255483845D+03 0.241435135347215D+03 0.142434879964159D+03 -.882627442790220D+03
0.230073747918D-04 0.000000000000D+00 0.000000000000D+00 0.105657935533D-07 0.000000000000D+00  7 -2 1 -24 -11 11 23 21 0 0.12912460D-01 0.13874184D+00 0.68999754D+05 0.68999754D+05 0.68999754D+05 0.11351914D+01  1  2  2  1  7  1       -2 0.187151893835D-02 0.100000000000D+01
-.127485932096D-05 0.000000000000D+00 -.883543771814D-07 0.105657935533D-07 0.000000000000D+00  7 -2 1 -24 -11 11 23 21 2 0.12912460D-01 0.13874184D+00 0.68999754D+05 0.68999754D+05 0.68999754D+05 0.11351914D+01  1  2  3  1  7  1       -2 -.133637263915D-03 0.100000000000D+01
0.150943314047D-05 0.000000000000D+00 0.000000000000D+00 0.105657935533D-07 0.000000000000D+00  7 -2 1 -24 -11 11 23 21 2 0.12912460D-01 0.13874184D+00 0.68999754D+05 0.68999754D+05 0.68999754D+05 0.11351914D+01  1  2 15  1  7  1       -2 0.158226489496D-03 0.100000000000D+01
  </mgrwgt>
  </event>
  <event>
  8     66 0.26562228E-05 0.93241133E+02 0.75467711E-02 0.10315011E+00
       -2 -1    0    0    0  501 0.00000000E+00 0.00000000E+00 0.10927035E+03 0.10927082E+03 0.32000000E+00 0.0000E+00 0.9000E+01
        1 -1    0    0  501    0 0.00000000E+00 0.00000000E+00 -.11854250E+04 0.11854251E+04 0.32000000E+00 0.0000E+00 0.9000E+01
       25  2    1    2    0    0 -.92626308E+02 -.70021289E+02 -.11047775E+04 0.11505810E+04 0.29970110E+03 0.0000E+00 0.0000E+00
       23  2    3    3    0    0 0.18392613E+02 0.34882159E+02 -.15309268E+03 0.18241307E+03 0.91006077E+02 0.0000E+00 0.0000E+00
      -24  1    1    2    0    0 0.92626308E+02 0.70021289E+02 0.28622818E+02 0.14411487E+03 0.80419002E+02 0.0000E+00 0.9000E+01
      -13  1    4    4    0    0 0.41644562E+02 0.53293489E+01 -.24886454E+02 0.48805924E+02 0.10565837E+00 0.0000E+00 0.9000E+01
       13  1    4    4    0    0 -.23251948E+02 0.29552810E+02 -.12820623E+03 0.13360715E+03 0.10565837E+00 0.0000E+00 0.9000E+01
       23  1    3    3    0    0 -.11101892E+03 -.10490345E+03 -.95168482E+03 0.96816795E+03 0.91188000E+02 0.0000E+00 0.9000E+01
#aMCatNLO 1  0  0  2  1 0.92021917D+02 0.00000000D+00  -5  7  0 0.00000000D+00 0.00000000D+00 0.00000000D+00 0.00000000D+00 0.00000000D+00
  <mgrwgt>
 0.6998939806D-03    6    2    0
 0.359905732968716D+03 0.000000000000000D+00 0.000000000000000D+00 0.359905732968716D+03
 0.359905732968716D+03 0.000000000000000D+00 0.000000000000000D+00 -.359905732968716D+03
 0.302006175502779D+03 0.926263082870437D+02 0.700212886410898D+02 0.266941754391477D+03
 0.505787403741294D+02 0.416446489629896D+02 0.532931633576242D+01 0.282051516212258D+02
 0.486389713202198D+02 -.232520356697209D+02 0.295528422262494D+02 -.308499900267990D+02
 0.318587578740304D+03 -.111018921580312D+03 -.104903447203102D+03 -.264296915985903D+03
 0.000000000000000D+00 -.000000000000000D+00 0.000000000000000D+00 0.000000000000000D+00
 0.411859712072943D+03 0.000000000000000D+00 0.000000000000000D+00 0.411859712072943D+03
 0.406017233506603D+03 0.000000000000000D+00 0.000000000000000D+00 -.406017233506603D+03
 0.307882403273714D+03 0.122543170069075D+03 0.452728342723236D+02 0.266941754391477D+03
 0.546583242369712D+02 0.468068422321816D+02 0.105893846337209D+01 0.282051516212258D+02
 0.443361903923306D+02 -.186913254696767D+02 0.257800358036603D+02 -.308499900267990D+02
 0.318792827689707D+03 -.797535032968690D+02 -.130767482787640D+03 -.264296915985903D+03
 0.922071999868235D+02 -.709051835347113D+02 0.586556742482840D+02 0.584247856634036D+01
0.278672219725D-04 0.000000000000D+00 0.000000000000D+00 0.670790239850D-05 0.000000000000D+00  7 -2 1 -24 -13 13 23 21 0 0.16810862D-01 0.18237312D+00 0.39744933D+05 0.39744933D+05 0.39744933D+05 0.11561685D+01  1  2  2  2  7  2        1 0.929395914602D-03 0.100000000000D+01
-.891321885683D-06 0.000000000000D+00 -.107017469983D-06 0.670790239850D-05 0.000000000000D+00  7 -2 1 -24 -13 13 23 21 2 0.16810862D-01 0.18237312D+00 0.39744933D+05 0.39744933D+05 0.39744933D+05 0.11561685D+01  1  2  3  2  7  2        1 -.397359811241D-04 0.100000000000D+01
0.169271218127D-05 0.000000000000D+00 0.000000000000D+00 0.670790239850D-05 0.000000000000D+00  7 -2 1 -24 -13 13 23 21 2 0.16810862D-01 0.18237312D+00 0.39744933D+05 0.39744933D+05 0.39744933D+05 0.11561685D+01  1  2 15  2  7  2        1 0.754627260518D-04 0.100000000000D+01
0.140337388305D-04 0.000000000000D+00 0.000000000000D+00 0.670790239850D-05 0.000000000000D+00  7 -2 1 -24 -13 13 23 21 2 0.16810862D-01 0.21724143D+00 0.63088598D+05 0.63088598D+05 0.63088598D+05 0.11385177D+01  1  2 12  2  7  2        1 0.422427552338D-03 0.100000000000D+01
-.156456977213D-04 0.000000000000D+00 0.000000000000D+00 0.670790239850D-05 0.000000000000D+00  7 -2 1 -24 -13 13 23 21 2 0.16810862D-01 0.18237312D+00 0.39744933D+05 0.39744933D+05 0.39744933D+05 0.11561685D+01  1  2  4  2  7  2        1 -.697500150407D-03 0.100000000000D+01
0.361959601246D-06 0.000000000000D+00 0.000000000000D+00 0.670790239850D-05 0.000000000000D+00  7 -2 21 -24 -13 13 23 -1 2 0.16810862D-01 0.21724143D+00 0.63088598D+05 0.63088598D+05 0.63088598D+05 0.11385177D+01  1  2 12  4  7  2        1 0.984391911544D-05 0.100000000000D+01
  </mgrwgt>
  </event>
  <event>
  8     66 0.26562228E-05 0.15444293E+03 0.75467711E-02 0.97047673E-01
       -2 -1    0    0    0  501 0.00000000E+00 0.00000000E+00 0.59800632E+03 0.59800640E+03 0.32000000E+00 0.0000E+00 0.9000E+01
        1 -1    0    0  501    0 0.00000000E+00 0.00000000E+00 -.27065869E+03 0.27065888E+03 0.32000000E+00 0.0000E+00 0.9000E+01
       25  2    1    2    0    0 0.23225898E+03 -.10906514E+03 -.57307769E+02 0.39933978E+03 0.30058051E+03 0.0000E+00 0.0000E+00
       23  2    3    3    0    0 0.59120262E+02 -.15449207E+03 -.45046736E+02 0.19807824E+03 0.99210767E+02 0.0000E+00 0.0000E+00
      -24  1    1    2    0    0 -.23225898E+03 0.10906514E+03 0.38465539E+03 0.46932550E+03 0.80419002E+02 0.0000E+00 0.9000E+01
      -11  1    4    4    0    0 0.47600345E+02 -.38500896E+02 -.53371333E+02 0.81219524E+02 0.51099893E-03 0.0000E+00 0.9000E+01
       11  1    4    4    0    0 0.11519916E+02 -.11599118E+03 0.83245971E+01 0.11685872E+03 0.51099893E-03 0.0000E+00 0.9000E+01
       23  1    3    3    0    0 0.17313872E+03 0.45426931E+02 -.12261033E+02 0.20126154E+03 0.91188000E+02 0.0000E+00 0.9000E+01
#aMCatNLO 1  0  0  2  1 0.15008016D+03 0.00000000D+00  -5  7  0 0.00000000D+00 0.00000000D+00 0.00000000D+00 0.00000000D+00 0.00000000D+00
  <mgrwgt>
 0.1015202801D-02    9    2    0
 0.402312971818734D+03 0.000000000000000D+00 0.000000000000000D+00 0.402312971818734D+03
 0.402312971818734D+03 0.000000000000000D+00 0.000000000000000D+00 -.402312971818734D+03
 0.350188487408449D+03 -.232258983603816D+03 0.109065140165637D+03 0.224333057071442D+03
 0.109396870013289D+03 0.476003451373887D+02 -.385008957737538D+02 -.906618074832196D+02
 0.122772669137836D+03 0.115199164293570D+02 -.115991175078983D+03 -.385547288472615D+02
 0.222267917077896D+03 0.173138722037070D+03 0.454269306871001D+02 -.951165207409613D+02
 0.000000000000000D+00 0.000000000000000D+00 -.000000000000000D+00 -.000000000000000D+00
 0.478726930884964D+03 0.000000000000000D+00 0.000000000000000D+00 0.478726930884964D+03
 0.490301800475020D+03 0.000000000000000D+00 0.000000000000000D+00 -.490301800475020D+03
 0.403139765239697D+03 -.288195466019399D+03 0.150573926142574D+03 0.224333057071442D+03
 0.998743076341460D+02 0.320614435929228D+02 -.269699429738643D+02 -.906618074832196D+02
 0.110271968778758D+03 -.578422322695298D+01 -.103150292018580D+03 -.385547288472615D+02
 0.205216837794172D+03 0.141396923704439D+03 0.689815672429601D+02 -.951165207409613D+02
 0.150525851913211D+03 0.120521321948991D+03 -.894352583930900D+02 -.115748695900566D+02
0.665897378714D-04 0.000000000000D+00 0.000000000000D+00 0.996568534452D-07 0.000000000000D+00  7 -2 1 -24 -11 11 23 21 0 0.92000993D-01 0.41639820D-01 0.10483684D+06 0.10483684D+06 0.10483684D+06 0.11200425D+01  1  2  2  2  7  2        1 0.776155939457D-03 0.100000000000D+01
-.348733203225D-05 0.000000000000D+00 -.255722126907D-06 0.996568534452D-07 0.000000000000D+00  7 -2 1 -24 -11 11 23 21 2 0.92000993D-01 0.41639820D-01 0.10483684D+06 0.10483684D+06 0.10483684D+06 0.11200425D+01  1  2  3  2  7  2        1 -.509922291256D-04 0.100000000000D+01
0.430996961919D-05 0.000000000000D+00 0.000000000000D+00 0.996568534452D-07 0.000000000000D+00  7 -2 1 -24 -11 11 23 21 2 0.92000993D-01 0.41639820D-01 0.10483684D+06 0.10483684D+06 0.10483684D+06 0.11200425D+01  1  2 15  2  7  2        1 0.630209444681D-04 0.100000000000D+01
0.268264820089D-04 0.000000000000D+00 0.000000000000D+00 0.996568534452D-07 0.000000000000D+00  7 -2 1 -24 -11 11 23 21 2 0.92000993D-01 0.53938920D-01 0.16487213D+06 0.16487213D+06 0.16487213D+06 0.11043265D+01  1  2 12  2  7  2        1 0.268043038438D-03 0.100000000000D+01
-.333157760595D-04 0.000000000000D+00 0.000000000000D+00 0.996568534452D-07 0.000000000000D+00  7 -2 1 -24 -11 11 23 21 2 0.92000993D-01 0.41639820D-01 0.10483684D+06 0.10483684D+06 0.10483684D+06 0.11200425D+01  1  2  4  2  7  2        1 -.487147673527D-03 0.100000000000D+01
-.622579310432D-04 0.000000000000D+00 -.321713928487D-04 0.996568534452D-07 0.000000000000D+00  7 -2 1 -24 -11 11 23 21 2 0.92000993D-01 0.59463188D-01 0.10483684D+06 0.10483684D+06 0.10483684D+06 0.11200425D+01  1  2  5  2  7  2        1 -.569028891177D-03 0.100000000000D+01
0.710990218802D-04 0.000000000000D+00 0.302320269069D-04 0.996568534452D-07 0.000000000000D+00  7 -2 1 -24 -11 11 23 21 2 0.92000993D-01 0.41639820D-01 0.10483684D+06 0.10483684D+06 0.10483684D+06 0.11200425D+01  1  2  6  2  7  2        1 0.103961927938D-02 0.100000000000D+01
0.931290602476D-06 0.000000000000D+00 0.000000000000D+00 0.996568534452D-07 0.000000000000D+00  7 -2 21 -24 -11 11 23 -1 2 0.92000993D-01 0.53938920D-01 0.16487213D+06 0.16487213D+06 0.16487213D+06 0.11043265D+01  1  2 12  4  7  2        1 0.383042325676D-04 0.100000000000D+01
-.179064369059D-05 0.000000000000D+00 -.140777926318D-05 0.996568534452D-07 0.000000000000D+00  7 -2 21 -24 -11 11 23 -1 2 0.92000993D-01 0.59463188D-01 0.10483684D+06 0.10483684D+06 0.10483684D+06 0.11200425D+01  1  2  5  4  7  2        1 -.627718391398D-04 0.100000000000D+01
  </mgrwgt>
  </event>
  <event>
  8     66 0.26562228E-05 0.27850142E+03 0.75467711E-02 0.92247548E-01
       -2 -1    0    0    0  501 0.00000000E+00 0.00000000E+00 0.13840349E+03 0.13840386E+03 0.32000000E+00 0.0000E+00 0.9000E+01
        1 -1    0    0  501    0 0.00000000E+00 0.00000000E+00 -.97733451E+03 0.97733457E+03 0.32000000E+00 0.0000E+00 0.9000E+01
       25  2    1    2    0    0 0.31278078E+02 -.19644907E+03 -.14268920E+03 0.38718476E+03 0.29996879E+03 0.0000E+00 0.0000E+00
       23  2    3    3    0    0 0.10332207E+03 -.17494932E+03 -.65176049E+02 0.24584787E+03 0.12210874E+03 0.0000E+00 0.0000E+00
      -24  1    1    2    0    0 -.31278078E+02 0.19644907E+03 -.69624182E+03 0.72855367E+03 0.80419002E+02 0.0000E+00 0.9000E+01
      -11  1    4    4    0    0 -.13776841E+02 -.54866301E-01 -.29243845E+02 0.32326566E+02 0.51099893E-03 0.0000E+00 0.9000E+01
       11  1    4    4    0    0 0.11709891E+03 -.17489446E+03 -.35932203E+02 0.21352131E+03 0.51099893E-03 0.0000E+00 0.9000E+01
       23  1    3    3    0    0 -.72043990E+02 -.21499752E+02 -.77513153E+02 0.14133689E+03 0.91188000E+02 0.0000E+00 0.9000E+01
#aMCatNLO 1  0  0  2  2 0.50263628D+03 0.00000000D+00  -5  7  0 0.00000000D+00 0.00000000D+00 0.00000000D+00 0.00000000D+00 0.00000000D+00
  <mgrwgt>
 0.2033828214D-02    5    2    0
 0.367786275633438D+03 0.000000000000000D+00 0.000000000000000D+00 0.367786275633438D+03
 0.367786275633438D+03 0.000000000000000D+00 0.000000000000000D+00 -.367786275633438D+03
 0.311018212695149D+03 -.312780776218687D+02 0.196449073725663D+03 -.225154515758231D+03
 0.156808763299726D+02 -.137768407242861D+02 -.548664294389098D-01 -.748902742740779D+01
 0.282894305768290D+03 0.117098909269738D+03 -.174894455170764D+03 0.189021065583924D+03
 0.125979156473465D+03 -.720439909235835D+02 -.214997521254606D+02 0.436224776017151D+02
 0.000000000000000D+00 0.000000000000000D+00 0.000000000000000D+00 -.000000000000000D+00
 0.555376223404882D+03 0.000000000000000D+00 0.000000000000000D+00 0.555376223404882D+03
 0.102003743620397D+04 0.000000000000000D+00 0.000000000000000D+00 -.102003743620397D+04
 0.333502687344846D+03 -.207832381574859D+03 0.104249564576847D+03 -.225154515758231D+03
 0.273543265752464D+02 -.255655201820588D+02 -.621110524765988D+01 -.748902742740779D+01
 0.327026576897146D+03 -.499773746780862D+02 -.262144389188229D+03 0.189021065583924D+03
 0.203020559105026D+03 -.162167237169109D+03 -.685635669444292D+02 0.436224776017151D+02
 0.684509509686584D+03 0.445542513604113D+03 0.232669496803471D+03 -.464661212799084D+03
0.629170374148D-04 0.000000000000D+00 0.000000000000D+00 0.187476046139D-07 0.000000000000D+00  7 -2 1 -24 -11 11 23 21 0 0.21292877D-01 0.15035919D+00 0.77563042D+05 0.77563042D+05 0.77563042D+05 0.11308912D+01  1  2  2  2  7  2        1 0.199488567824D-02 0.100000000000D+01
-.316675649791D-05 0.000000000000D+00 -.241617990109D-06 0.187476046139D-07 0.000000000000D+00  7 -2 1 -24 -11 11 23 21 2 0.21292877D-01 0.15035919D+00 0.77563042D+05 0.77563042D+05 0.77563042D+05 0.11308912D+01  1  2  3  2  7  2        1 -.128412136128D-03 0.100000000000D+01
0.401207574319D-05 0.000000000000D+00 0.000000000000D+00 0.187476046139D-07 0.000000000000D+00  7 -2 1 -24 -11 11 23 21 2 0.21292877D-01 0.15035919D+00 0.77563042D+05 0.77563042D+05 0.77563042D+05 0.11308912D+01  1  2 15  2  7  2        1 0.162689874270D-03 0.100000000000D+01
0.301065068936D-05 0.000000000000D+00 -.193459270186D-04 0.187476046139D-07 0.000000000000D+00  7 -2 1 -24 -11 11 23 21 2 0.21292877D-01 0.47811712D+00 0.77563042D+05 0.77563042D+05 0.77563042D+05 0.11308912D+01  1  2  5  2  7  2        1 0.428235463391D-05 0.100000000000D+01
0.125103740510D-05 0.000000000000D+00 -.257434934375D-05 0.187476046139D-07 0.000000000000D+00  7 -2 21 -24 -11 11 23 -1 2 0.21292877D-01 0.47811712D+00 0.77563042D+05 0.77563042D+05 0.77563042D+05 0.11308912D+01  1  2  5  4  7  2        1 0.382443246365D-06 0.100000000000D+01
  </mgrwgt>
  </event>
  <event>
  8     66 0.26562228E-05 0.15442197E+03 0.75467711E-02 0.97700667E-01
       -2 -1    0    0    0  501 0.00000000E+00 0.00000000E+00 0.31973094E+03 0.31973110E+03 0.32000000E+00 0.0000E+00 0.9000E+01
        1 -1    0    0  501    0 0.00000000E+00 0.00000000E+00 -.50882427E+03 0.50882437E+03 0.32000000E+00 0.0000E+00 0.9000E+01
       25  2    1    2    0    0 -.33825612E+02 -.25286911E+03 -.34090635E+03 0.52098212E+03 0.30019705E+03 0.0000E+00 0.0000E+00
       23  2    3    3    0    0 -.89712926E+02 -.48709904E+01 -.13115477E+03 0.17902096E+03 0.82309135E+02 0.0000E+00 0.0000E+00
      -24  1    1    2    0    0 0.33825612E+02 0.25286911E+03 0.15181302E+03 0.30757336E+03 0.80419002E+02 0.0000E+00 0.9000E+01
      -13  1    4    4    0    0 -.77812227E+02 0.18893028E+02 -.51883098E+02 0.95412557E+02 0.10565837E+00 0.0000E+00 0.9000E+01
       13  1    4    4    0    0 -.11900700E+02 -.23764018E+02 -.79271676E+02 0.83608402E+02 0.10565837E+00 0.0000E+00 0.9000E+01
       23  1    3    3    0    0 0.55887314E+02 -.24799812E+03 -.20975158E+03 0.34196116E+03 0.91188000E+02 0.0000E+00 0.9000E+01
#aMCatNLO 1  0  0  1  2 0.11431892D+03 0.00000000D+00  -5  7  0 0.00000000D+00 0.00000000D+00 0.00000000D+00 0.00000000D+00 0.00000000D+00
  <mgrwgt>
 0.1489581075D-02    7    2    0
 0.403344732529621D+03 0.000000000000000D+00 0.000000000000000D+00 0.403344732529621D+03
 0.403344732529621D+03 0.000000000000000D+00 0.000000000000000D+00 -.403344732529621D+03
 0.351496370937483D+03 0.338256123630471D+02 0.252869111801460D+03 0.228025268496401D+03
 0.858370872997798D+02 -.778123351052354D+02 0.188930978844358D+02 -.309240507357899D+02
 0.672928456012559D+02 -.119005914574514D+02 -.237640879315157D+02 -.618220924658854D+02
 0.302063161220722D+03 0.558873141996396D+02 -.247998121754380D+03 -.135279125294726D+03
 0.000000000000000D+00 0.000000000000000D+00 -.000000000000000D+00 0.000000000000000D+00
 0.845674881142420D+03 0.000000000000000D+00 0.000000000000000D+00 0.845674881142420D+03
 0.414828999090549D+03 0.000000000000000D+00 0.000000000000000D+00 -.414828999090549D+03
 0.385645435863204D+03 0.123138115164486D+02 0.300180001367232D+03 0.228025268496401D+03
 0.936962561934753D+02 -.830516058872209D+02 0.304158226967049D+02 -.309240507357899D+02
 0.655975827211973D+02 -.157786952390006D+02 -.152349768151634D+02 -.618220924658854D+02
 0.269810200907695D+03 0.391984956275740D+02 -.211294413958060D+03 -.135279125294726D+03
 0.445754404547397D+03 0.473179939821990D+02 -.104066433290714D+03 0.430845882051870D+03
0.895211985940D-04 0.000000000000D+00 0.000000000000D+00 0.156009760675D-06 0.000000000000D+00  7 -2 1 -24 -13 13 23 21 0 0.49189396D-01 0.78280677D-01 0.10375610D+06 0.10375610D+06 0.10375610D+06 0.11204103D+01  1  2  2  1  7  1       -2 0.170008007408D-02 0.100000000000D+01
-.466756652760D-05 0.000000000000D+00 -.343784974074D-06 0.156009760675D-06 0.000000000000D+00  7 -2 1 -24 -13 13 23 21 2 0.49189396D-01 0.78280677D-01 0.10375610D+06 0.10375610D+06 0.10375610D+06 0.11204103D+01  1  2  3  1  7  1       -2 -.111272589710D-03 0.100000000000D+01
0.580919946872D-05 0.000000000000D+00 0.000000000000D+00 0.156009760675D-06 0.000000000000D+00  7 -2 1 -24 -13 13 23 21 2 0.49189396D-01 0.78280677D-01 0.10375610D+06 0.10375610D+06 0.10375610D+06 0.11204103D+01  1  2 15  1  7  1       -2 0.138488581835D-03 0.100000000000D+01
0.347096545780D-03 0.000000000000D+00 0.000000000000D+00 0.156009760675D-06 0.000000000000D+00  7 -2 1 -24 -13 13 23 21 2 0.10305723D+00 0.78280677D-01 0.14789941D+06 0.14789941D+06 0.14789941D+06 0.11080356D+01  1  2 12  1  7  1       -2 0.161264717535D-02 0.100000000000D+01
-.378593127960D-03 0.000000000000D+00 -.268984979208D-04 0.156009760675D-06 0.000000000000D+00  7 -2 1 -24 -13 13 23 21 2 0.10427783D+00 0.78280677D-01 0.10375610D+06 0.10375610D+06 0.10375610D+06 0.11204103D+01  1  2  5  1  7  1       -2 -.177078384424D-02 0.100000000000D+01
0.277627869455D-04 0.000000000000D+00 0.000000000000D+00 0.156009760675D-06 0.000000000000D+00  7 21 1 -24 -13 13 23 2 2 0.10305723D+00 0.78280677D-01 0.14789941D+06 0.14789941D+06 0.14789941D+06 0.11080356D+01  1  2 12  3  7  1       -2 0.120908330285D-02 0.100000000000D+01
-.291001020926D-04 0.000000000000D+00 -.218640803407D-05 0.156009760675D-06 0.000000000000D+00  7 21 1 -24 -13 13 23 2 2 0.10427783D+00 0.78280677D-01 0.10375610D+06 0.10375610D+06 0.10375610D+06 0.11204103D+01  1  2  5  3  7  1       -2 -.128866162519D-02 0.100000000000D+01
  </mgrwgt>
  </event>
  <event>
  8     66 0.26562228E-05 0.40879328E+03 0.75467711E-02 0.93508084E-01
       -2 -1    0    0    0  501 0.00000000E+00 0.00000000E+00 0.22943709E+03 0.22943731E+03 0.32000000E+00 0.0000E+00 0.9000E+01
        1 -1    0    0  501    0 0.00000000E+00 0.00000000E+00 -.88125883E+03 0.88125889E+03 0.32000000E+00 0.0000E+00 0.9000E+01
       25  2    1    2    0    0 -.30945255E+03 0.20316260E+03 -.53019728E+03 0.71283235E+03 0.29997479E+03 0.0000E+00 0.0000E+00
       23  2    3    3    0    0 -.16974596E+03 -.53618654E+01 -.31821119E+03 0.37187232E+03 0.90488781E+02 0.0000E+00 0.0000E+00
      -24  1    1    2    0    0 0.30945255E+03 -.20316260E+03 -.12162446E+03 0.39786386E+03 0.80419002E+02 0.0000E+00 0.9000E+01
      -11  1    4    4    0    0 -.97592011E+02 -.15636598E+02 -.26140856E+03 0.27946939E+03 0.51099893E-03 0.0000E+00 0.9000E+01
       11  1    4    4    0    0 -.72153952E+02 0.10274733E+02 -.56802630E+02 0.92402932E+02 0.51099893E-03 0.0000E+00 0.9000E+01
       23  1    3    3    0    0 -.13970658E+03 0.20852447E+03 -.21198609E+03 0.34096002E+03 0.91188000E+02 0.0000E+00 0.9000E+01
#aMCatNLO 1  0  0  1  1 0.24441815D+03 0.00000000D+00  -5  7  0 0.00000000D+00 0.00000000D+00 0.00000000D+00 0.00000000D+00 0.00000000D+00
  <mgrwgt>
 0.1191016610D-02    4    2    0
 0.449659447406100D+03 0.000000000000000D+00 0.000000000000000D+00 0.449659447406100D+03
 0.449659447406100D+03 0.000000000000000D+00 0.000000000000000D+00 -.449659447406100D+03
 0.403225608793264D+03 0.309452547977519D+03 -.203162604085804D+03 0.138158432546205D+03
 0.155688720518998D+03 -.975920114966452D+02 -.156365981508791D+02 -.120292451081310D+03
 0.729512039451667D+02 -.721539524452819D+02 0.102747327268320D+02 -.318043565655326D+01
 0.267453361554772D+03 -.139706584035592D+03 0.208524469509851D+03 -.146855458083420D+02
 0.000000000000000D+00 0.000000000000000D+00 0.000000000000000D+00 -.000000000000000D+00
 0.534702311010923D+03 0.000000000000000D+00 0.000000000000000D+00 0.534702311010923D+03
 0.683265951442754D+03 0.000000000000000D+00 0.000000000000000D+00 -.683265951442754D+03
 0.363051991521706D+03 0.215810961074348D+03 -.244289601068176D+03 0.138158432546205D+03
 0.187329912733826D+03 -.139509991536710D+03 -.340468013055684D+02 -.120292451081310D+03
 0.924293050327724D+02 -.923639824620575D+02 0.139857127974917D+01 -.318043565655326D+01
 0.289130154716921D+03 -.207722879548348D+03 0.178651994332793D+03 -.146855458083420D+02
 0.286026898448452D+03 0.223785892472767D+03 0.982858367612019D+02 -.148563640431831D+03
0.915503448952D-04 0.000000000000D+00 0.000000000000D+00 0.764691118777D-05 0.000000000000D+00  7 -2 1 -24 -11 11 23 21 0 0.35298036D-01 0.13557830D+00 0.16711194D+06 0.16711194D+06 0.16711194D+06 0.11038685D+01  1  2  2  1  7  1       -2 0.141279683958D-02 0.100000000000D+01
-.502998917721D-05 0.000000000000D+00 -.351577430157D-06 0.764691118777D-05 0.000000000000D+00  7 -2 1 -24 -11 11 23 21 2 0.35298036D-01 0.13557830D+00 0.16711194D+06 0.16711194D+06 0.16711194D+06 0.11038685D+01  1  2  3  1  7  1       -2 -.945848186764D-04 0.100000000000D+01
0.585419811129D-05 0.000000000000D+00 0.000000000000D+00 0.764691118777D-05 0.000000000000D+00  7 -2 1 -24 -11 11 23 21 2 0.35298036D-01 0.13557830D+00 0.16711194D+06 0.16711194D+06 0.16711194D+06 0.11038685D+01  1  2 15  1  7  1       -2 0.110083391304D-03 0.100000000000D+01
-.126184077508D-04 0.000000000000D+00 0.000000000000D+00 0.764691118777D-05 0.000000000000D+00  7 -2 1 -24 -11 11 23 21 2 0.35298036D-01 0.13557830D+00 0.16711194D+06 0.16711194D+06 0.16711194D+06 0.11038685D+01  1  2  4  1  7  1       -2 -.237278802608D-03 0.100000000000D+01
  </mgrwgt>
  </event>
  <event>
  8     66 0.26562228E-05 0.16247978E+03 0.75467711E-02 0.10084827E+00
       -2 -1    0    0    0  501 0.00000000E+00 0.00000000E+00 0.62083717E+03 0.62083725E+03 0.32000000E+00 0.0000E+00 0.9000E+01
        1 -1    0    0  501    0 0.00000000E+00 0.00000000E+00 -.34924576E+03 0.34924590E+03 0.32000000E+00 0.0000E+00 0.9000E+01
       25  2    1    2    0    0 0.20122495E+03 -.14900845E+03 0.49103768E+03 0.62756472E+03 0.30004080E+03 0.0000E+00 0.0000E+00
       23  2    3    3    0    0 0.12654798E+03 -.83720212E+02 0.45408908E+03 0.48785197E+03 0.93697289E+02 0.0000E+00 0.0000E+00
      -24  1    1    2    0    0 -.20122495E+03 0.14900845E+03 -.21944626E+03 0.34251843E+03 0.80419002E+02 0.0000E+00 0.9000E+01
      -11  1    4    4    0    0 0.11957587E+02 -.71878361E+01 0.68250583E+00 0.13968346E+02 0.51099893E-03 0.0000E+00 0.9000E+01
       11  1    4    4    0    0 0.11459039E+03 -.76532376E+02 0.45340658E+03 0.47388362E+03 0.51099893E-03 0.0000E+00 0.9000E+01
       23  1    3    3    0    0 0.74676968E+02 -.65288236E+02 0.36948594E+02 0.13971275E+03 0.91188000E+02 0.0000E+00 0.9000E+01
#aMCatNLO 1  0  0  1  2 0.49893194D+02 0.00000000D+00  -5  7  0 0.00000000D+00 0.00000000D+00 0.00000000D+00 0.00000000D+00 0.00000000D+00
  <mgrwgt>
 0.1397439764D-02    9    2    0
 0.465644559650991D+03 0.000000000000000D+00 0.000000000000000D+00 0.465644559650991D+03
 0.465644559650991D+03 0.000000000000000D+00 0.000000000000000D+00 -.465644559650991D+03
 0.420783483133955D+03 -.201224946390795D+03 0.149008447568738D+03 -.328476067967134D+03
 0.143511762820740D+02 0.119575869715283D+02 -.718783612107668D+01 -.336264574316792D+01
 0.361397096339974D+03 0.114590391362386D+03 -.765323755470187D+02 0.334095344091338D+03
 0.134757363545978D+03 0.746769680568806D+02 -.652882359006428D+02 -.225663038103562D+01
 0.000000000000000D+00 0.000000000000000D+00 -.000000000000000D+00 0.000000000000000D+00
 0.526742194854236D+03 0.000000000000000D+00 0.000000000000000D+00 0.526742194854236D+03
 0.476610759105304D+03 0.000000000000000D+00 0.000000000000000D+00 -.476610759105304D+03
 0.432406486899676D+03 -.208551670795607D+03 0.170639465950173D+03 -.328476067967134D+03
 0.138015100723455D+02 0.117158272445992D+02 -.647407799286612D+01 -.336264574316792D+01
 0.356062428236520D+03 0.108429245084526D+03 -.583425459555643D+02 0.334095344091338D+03
 0.130354233797951D+03 0.724003360306251D+02 -.585668326531901D+02 -.225663038103562D+01
 0.707282949530477D+02 0.160062624358566D+02 -.472560093485528D+02 0.501314357489319D+02
0.131278962371D-03 0.000000000000D+00 0.000000000000D+00 0.409883493721D-05 0.000000000000D+00  7 -2 1 -24 -11 11 23 21 0 0.95513428D-01 0.53730134D-01 0.75480630D+05 0.75480630D+05 0.75480630D+05 0.11318871D+01  1  2  2  1  7  1       -2 0.101179061545D-02 0.100000000000D+01
-.482482131096D-05 0.000000000000D+00 -.504145782049D-06 0.409883493721D-05 0.000000000000D+00  7 -2 1 -24 -11 11 23 21 2 0.95513428D-01 0.53730134D-01 0.75480630D+05 0.75480630D+05 0.75480630D+05 0.11318871D+01  1  2  3  1  7  1       -2 -.476412278376D-04 0.100000000000D+01
0.802955277624D-05 0.000000000000D+00 0.000000000000D+00 0.409883493721D-05 0.000000000000D+00  7 -2 1 -24 -11 11 23 21 2 0.95513428D-01 0.53730134D-01 0.75480630D+05 0.75480630D+05 0.75480630D+05 0.11318871D+01  1  2 15  1  7  1       -2 0.792853721602D-04 0.100000000000D+01
0.402660220819D-03 0.000000000000D+00 0.000000000000D+00 0.409883493721D-05 0.000000000000D+00  7 -2 1 -24 -11 11 23 21 2 0.10907296D+00 0.53730134D-01 0.89386683D+05 0.89386683D+05 0.89386683D+05 0.11257427D+01  1  2 12  1  7  1       -2 0.284441798311D-02 0.100000000000D+01
-.412651196454D-03 0.000000000000D+00 0.000000000000D+00 0.409883493721D-05 0.000000000000D+00  7 -2 1 -24 -11 11 23 21 2 0.95513428D-01 0.53730134D-01 0.75480630D+05 0.75480630D+05 0.75480630D+05 0.11318871D+01  1  2  4  1  7  1       -2 -.407459849820D-02 0.100000000000D+01
-.644678365185D-03 0.000000000000D+00 -.120198129582D-03 0.409883493721D-05 0.000000000000D+00  7 -2 1 -24 -11 11 23 21 2 0.10959368D+00 0.53730134D-01 0.75480630D+05 0.75480630D+05 0.75480630D+05 0.11318871D+01  1  2  5  1  7  1       -2 -.457427565189D-02 0.100000000000D+01
0.656121387111D-03 0.000000000000D+00 0.119070555600D-03 0.409883493721D-05 0.000000000000D+00  7 -2 1 -24 -11 11 23 21 2 0.95513428D-01 0.53730134D-01 0.75480630D+05 0.75480630D+05 0.75480630D+05 0.11318871D+01  1  2  6  1  7  1       -2 0.647867070671D-02 0.100000000000D+01
0.831122567587D-05 0.000000000000D+00 0.000000000000D+00 0.409883493721D-05 0.000000000000D+00  7 21 1 -24 -11 11 23 2 2 0.10907296D+00 0.53730134D-01 0.89386683D+05 0.89386683D+05 0.89386683D+05 0.11257427D+01  1  2 12  3  7  1       -2 0.554465668283D-03 0.100000000000D+01
-.129860166163D-04 0.000000000000D+00 -.255414893615D-05 0.409883493721D-05 0.000000000000D+00  7 21 1 -24 -11 11 23 2 2 0.10959368D+00 0.53730134D-01 0.75480630D+05 0.75480630D+05 0.75480630D+05 0.11318871D+01  1  2  5  3  7  1       -2 -.874675204032D-03 0.100000000000D+01
  </mgrwgt>
  </event>
  <event>
  8     66 0.26562228E-05 0.50606204E+03 0.75467711E-02 0.90408944E-01
       -2 -1    0    0    0  501 0.00000000E+00 0.00000000E+00 0.77009903E+03 0.77009910E+03 0.32000000E+00 0.0000E+00 0.9000E+01
        1 -1    0    0  501    0 0.00000000E+00 0.00000000E+00 -.35975864E+03 0.35975878E+03 0.32000000E+00 0.0000E+00 0.9000E+01
       25  2    1    2    0    0 -.45443373E+03 0.55140589E+02 0.66327770E+02 0.55161710E+03 0.30055208E+03 0.0000E+00 0.0000E+00
       23  2    3    3    0    0 -.10408347E+03 -.81067137E+02 0.17322876E+02 0.16172663E+03 0.91924811E+02 0.0000E+00 0.0000E+00
      -24  1    1    2    0    0 0.45443373E+03 -.55140589E+02 0.34401263E+03 0.57824078E+03 0.80419002E+02 0.0000E+00 0.9000E+01
      -13  1    4    4    0    0 -.11073588E+03 -.94487804E+02 0.13067207E+02 0.14615452E+03 0.10565837E+00 0.0000E+00 0.9000E+01
       13  1    4    4    0    0 0.66524061E+01 0.13420667E+02 0.42556688E+01 0.15572112E+02 0.10565837E+00 0.0000E+00 0.9000E+01
       23  1    3    3    0    0 -.35035025E+03 0.13620773E+03 0.49004893E+02 0.38989047E+03 0.91188000E+02 0.0000E+00 0.9000E+01
#aMCatNLO 1  0  0  2  2 0.39290535D+03 0.00000000D+00  -5  7  0 0.00000000D+00 0.00000000D+00 0.00000000D+00 0.00000000D+00 0.00000000D+00
  <mgrwgt>
 0.1381002436D-02    3    2    0
 0.526355293611586D+03 0.000000000000000D+00 0.000000000000000D+00 0.526355293611586D+03
 0.526355293611586D+03 0.000000000000000D+00 0.000000000000000D+00 -.526355293611586D+03
 0.486522723939317D+03 0.454433726496056D+03 -.551405888142187D+02 0.143828539042472D+03
 0.151772027898535D+03 -.110736034612924D+03 -.944879463453757D+02 -.429453965643840D+02
 0.150542904296923D+02 0.665256118800981D+01 0.134208093747284D+02 -.150232010853668D+01
 0.399361544955628D+03 -.350350253071141D+03 0.136207725784866D+03 -.993808223695516D+02
 0.000000000000000D+00 -.000000000000000D+00 -.000000000000000D+00 0.000000000000000D+00
 0.123362226986010D+04 0.000000000000000D+00 0.000000000000000D+00 0.123362226986010D+04
 0.619269708313935D+03 0.000000000000000D+00 0.000000000000000D+00 -.619269708313935D+03
 0.686373426205433D+03 0.665321555515163D+03 -.360810666472883D+02 0.143828539042472D+03
 0.117661795605789D+03 -.622915801775236D+02 -.901096559647928D+02 -.429453965643840D+02
 0.189924041237591D+02 0.127741888348973D+02 0.139740669921842D+02 -.150232010853668D+01
 0.300615641563695D+03 -.224493697731826D+03 0.147582331031174D+03 -.993808223695516D+02
 0.729248710675364D+03 -.391310466440711D+03 -.353656754112769D+02 0.614352561546169D+03
0.324257780223D-03 0.000000000000D+00 0.000000000000D+00 0.533483115159D-05 0.000000000000D+00  7 -2 1 -24 -13 13 23 21 0 0.11847679D+00 0.55347498D-01 0.25609879D+06 0.25609879D+06 0.25609879D+06 0.10896725D+01  1  2  2  2  7  2        1 0.136631117094D-02 0.100000000000D+01
-.179804629233D-04 0.000000000000D+00 -.124523525509D-05 0.533483115159D-05 0.000000000000D+00  7 -2 1 -24 -13 13 23 21 2 0.11847679D+00 0.55347498D-01 0.25609879D+06 0.25609879D+06 0.25609879D+06 0.10896725D+01  1  2  3  2  7  2        1 -.899605442690D-04 0.100000000000D+01
0.209168140770D-04 0.000000000000D+00 0.000000000000D+00 0.533483115159D-05 0.000000000000D+00  7 -2 1 -24 -13 13 23 21 2 0.11847679D+00 0.55347498D-01 0.25609879D+06 0.25609879D+06 0.25609879D+06 0.10896725D+01  1  2 15  2  7  2        1 0.104651809399D-03 0.100000000000D+01
  </mgrwgt>
  </event>
  <event>
  8     66 0.26562228E-05 0.98352301E+02 0.75467711E-02 0.96642264E-01
       -2 -1    0    0    0  501 0.00000000E+00 0.00000000E+00 0.37976457E+03 0.37976471E+03 0.32000000E+00 0.0000E+00 0.9000E+01
        1 -1    0    0  501    0 0.00000000E+00 0.00000000E+00 -.65056448E+03 0.65056456E+03 0.32000000E+00 0.0000E+00 0.9000E+01
       25  2    1    2    0    0 -.17066667E+03 0.21642085E+03 -.51301478E+03 0.65469600E+03 0.29912806E+03 0.0000E+00 0.0000E+00
       23  2    3    3    0    0 -.79664664E+02 -.12280600E+02 -.27065511E+03 0.29742975E+03 0.93343414E+02 0.0000E+00 0.0000E+00
      -24  1    1    2    0    0 0.17066667E+03 -.21642085E+03 0.24221486E+03 0.37563327E+03 0.80419002E+02 0.0000E+00 0.9000E+01
      -13  1    4    4    0    0 -.44124012E+02 0.50690667E+01 -.30118419E+02 0.53663341E+02 0.10565837E+00 0.0000E+00 0.9000E+01
       13  1    4    4    0    0 -.35540652E+02 -.17349667E+02 -.24053669E+03 0.24376640E+03 0.10565837E+00 0.0000E+00 0.9000E+01
       23  1    3    3    0    0 -.91002007E+02 0.22870145E+03 -.24235967E+03 0.35726626E+03 0.91188000E+02 0.0000E+00 0.9000E+01
#aMCatNLO 1  0  0  1  2 0.16452347D+03 0.00000000D+00  -5  7  0 0.00000000D+00 0.00000000D+00 0.00000000D+00 0.00000000D+00 0.00000000D+00
  <mgrwgt>
 0.1042597538D-02    6    2    0
 0.497052765842079D+03 0.000000000000000D+00 0.000000000000000D+00 0.497052765842079D+03
 0.497052765842079D+03 0.000000000000000D+00 0.000000000000000D+00 -.497052765842079D+03
 0.455301474226629D+03 0.170666670775359D+03 -.216420847678994D+03 0.353365420853444D+03
 0.474141490485953D+02 -.441240227603968D+02 0.506909526549139D+01 -.165974822979804D+02
 0.187125528837322D+03 -.355406409955865D+02 -.173496959774112D+02 -.182898371861976D+03
 0.304264379571612D+03 -.910020070193761D+02 0.228701448390914D+03 -.153869566693488D+03
 0.000000000000000D+00 -.000000000000000D+00 0.000000000000000D+00 -.000000000000000D+00
 0.584356744696954D+03 0.000000000000000D+00 0.000000000000000D+00 0.584356744696954D+03
 0.587831209443166D+03 0.000000000000000D+00 0.000000000000000D+00 -.587831209443166D+03
 0.501557047760209D+03 0.183910286876568D+03 -.293942412607661D+03 0.353365420853444D+03
 0.460024238731452D+02 -.428310696217268D+02 -.249921160199541D+01 -.165974822979804D+02
 0.191510737812760D+03 -.303000403819283D+02 -.480255746522589D+02 -.182898371861976D+03
 0.268557589367025D+03 -.830737354132359D+02 0.182293275774718D+03 -.153869566693488D+03
 0.164560155326982D+03 -.277054414596766D+02 0.162173923087198D+03 -.347446474621185D+01
0.141966137507D-03 0.000000000000D+00 0.000000000000D+00 0.124801173961D-05 0.000000000000D+00  7 -2 1 -24 -13 13 23 21 0 0.58425335D-01 0.10008686D+00 0.10035077D+06 0.10035077D+06 0.10035077D+06 0.11215973D+01  1  2  2  1  7  1       -2 0.134922558202D-02 0.100000000000D+01
-.594097570208D-05 0.000000000000D+00 -.545187348568D-06 0.124801173961D-05 0.000000000000D+00  7 -2 1 -24 -13 13 23 21 2 0.58425335D-01 0.10008686D+00 0.10035077D+06 0.10035077D+06 0.10035077D+06 0.11215973D+01  1  2  3  1  7  1       -2 -.710283076391D-04 0.100000000000D+01
0.870873571720D-05 0.000000000000D+00 0.000000000000D+00 0.124801173961D-05 0.000000000000D+00  7 -2 1 -24 -13 13 23 21 2 0.58425335D-01 0.10008686D+00 0.10035077D+06 0.10035077D+06 0.10035077D+06 0.11215973D+01  1  2 15  1  7  1       -2 0.104118715627D-03 0.100000000000D+01
0.443866266052D-04 0.000000000000D+00 0.000000000000D+00 0.124801173961D-05 0.000000000000D+00  7 -2 1 -24 -13 13 23 21 2 0.73143866D-01 0.10008686D+00 0.17650869D+06 0.17650869D+06 0.17650869D+06 0.11020175D+01  1  2 12  1  7  1       -2 0.313401138828D-03 0.100000000000D+01
-.627346949302D-04 0.000000000000D+00 0.000000000000D+00 0.124801173961D-05 0.000000000000D+00  7 -2 1 -24 -13 13 23 21 2 0.58425335D-01 0.10008686D+00 0.10035077D+06 0.10035077D+06 0.10035077D+06 0.11215973D+01  1  2  4  1  7  1       -2 -.750034915913D-03 0.100000000000D+01
0.138744348375D-05 0.000000000000D+00 0.000000000000D+00 0.124801173961D-05 0.000000000000D+00  7 21 1 -24 -13 13 23 2 2 0.73143866D-01 0.10008686D+00 0.17650869D+06 0.17650869D+06 0.17650869D+06 0.11020175D+01  1  2 12  3  7  1       -2 0.969153248023D-04 0.100000000000D+01
  </mgrwgt>
  </event>
  <event>
  7     66 0.26562228E-05 0.18036080E+03 0.75467711E-02 0.10539725E+00
       -2 -1    0    0    0  501 0.00000000E+00 0.00000000E+00 0.17634717E+02 0.17637620E+02 0.32000000E+00 0.0000E+00 0.9000E+01
        1 -1    0    0  501    0 0.00000000E+00 0.00000000E+00 -.37097830E+04 0.37097830E+04 0.32000000E+00 0.0000E+00 0.9000E+01
       25  2    1    2    0    0 -.10682498E+03 0.26461642E+02 -.16915375E+04 0.17221719E+04 0.30408077E+03 0.0000E+00 0.0000E+00
      -24  1    1    2    0    0 0.10682498E+03 -.26461642E+02 -.20006107E+04 0.20052487E+04 0.80419002E+02 0.0000E+00 0.9000E+01
      -13  1    3    3    0    0 -.28688963E+02 -.11081081E+02 -.45964567E+03 0.46067342E+03 0.10565837E+00 0.0000E+00 0.9000E+01
       13  1    3    3    0    0 -.86310245E+02 0.52310352E+02 -.10713764E+04 0.10761195E+04 0.10565837E+00 0.0000E+00 0.9000E+01
       23  1    3    3    0    0 0.81742270E+01 -.14767629E+02 -.16051547E+03 0.18537898E+03 0.91188000E+02 0.0000E+00 0.9000E+01
#aMCatNLO 1  0  0  1  2 0.64428080D+02 0.00000000D+00  -5  7  0 0.00000000D+00 0.00000000D+00 0.00000000D+00 0.00000000D+00 0.00000000D+00
  <mgrwgt>
 0.5519823094D-03    4    2    0
 0.255785863860620D+03 0.000000000000000D+00 0.000000000000000D+00 0.255785863860620D+03
 0.255785863860620D+03 0.000000000000000D+00 0.000000000000000D+00 -.255785863860620D+03
 0.171733346463172D+03 0.106825072697897D+03 -.264616642474219D+02 -.104466791380874D+03
 0.391801944968999D+02 -.286887193461854D+02 -.110813399266250D+02 -.242744501177948D+02
 0.108429972604478D+03 -.863104688216669D+02 0.523105954731625D+02 -.396379052427741D+02
 0.192228214156690D+03 0.817411546995499D+01 -.147675912991157D+02 0.168379146741443D+03
 0.000000000000000D+00 0.000000000000000D+00 -.000000000000000D+00 -.000000000000000D+00
 0.284769012796402D+03 0.000000000000000D+00 0.000000000000000D+00 0.284769012796402D+03
 0.296294731314302D+03 0.000000000000000D+00 0.000000000000000D+00 -.296294731314302D+03
 0.161123076955005D+03 0.918609780954508D+02 -.119029481646351D+02 -.104466791380874D+03
 0.411061823806661D+02 -.322981222429238D+02 -.756971604305153D+01 -.242744501177948D+02
 0.121671681094970D+03 -.966550578753445D+02 0.623749487819803D+02 -.396379052427741D+02
 0.191711908597959D+03 -.908652880295872D+01 0.202546073987946D+01 0.168379146741443D+03
 0.654508950821040D+02 0.461787308257762D+02 -.449277453141732D+02 -.115257185179005D+02
0.959840275078D-04 0.000000000000D+00 0.000000000000D+00 0.259236661137D-10 0.000000000000D+00  7 -2 1 -24 -13 13 23 21 0 0.27132577D-02 0.57073607D+00 0.32530018D+05 0.32530018D+05 0.32530018D+05 0.11640874D+01  1  2  2  1  7  1       -2 0.860805044013D-03 0.100000000000D+01
-.454102534116D-05 0.000000000000D+00 -.368603938805D-06 0.259236661137D-10 0.000000000000D+00  7 -2 1 -24 -13 13 23 21 2 0.27132577D-02 0.57073607D+00 0.32530018D+05 0.32530018D+05 0.32530018D+05 0.11640874D+01  1  2  3  1  7  1       -2 -.551862591676D-04 0.100000000000D+01
0.616837080792D-05 0.000000000000D+00 0.000000000000D+00 0.259236661137D-10 0.000000000000D+00  7 -2 1 -24 -13 13 23 21 2 0.27132577D-02 0.57073607D+00 0.32530018D+05 0.32530018D+05 0.32530018D+05 0.11640874D+01  1  2 15  1  7  1       -2 0.749630941193D-04 0.100000000000D+01
-.270389585236D-04 0.000000000000D+00 0.000000000000D+00 0.259236661137D-10 0.000000000000D+00  7 -2 1 -24 -13 13 23 21 2 0.27132577D-02 0.57073607D+00 0.32530018D+05 0.32530018D+05 0.32530018D+05 0.11640874D+01  1  2  4  1  7  1       -2 -.328599569612D-03 0.100000000000D+01
  </mgrwgt>
  </event>
  <event>
  9     66 0.26562228E-05 0.17483914E+03 0.75467711E-02 0.10728723E+00
       21 -1    0    0  502  501 0.00000000E+00 0.00000000E+00 0.14894965E+03 0.14895154E+03 0.75000000E+00 0.0000E+00 0.9000E+01
        1 -1    0    0  501    0 0.00000000E+00 0.00000000E+00 -.43797555E+03 0.43797567E+03 0.32000000E+00 0.0000E+00 0.9000E+01
       25  2    1    2    0    0 0.57697407E+02 -.92493792E+02 -.10353909E+03 0.33512703E+03 0.29950908E+03 0.0000E+00 0.0000E+00
       23  2    3    3    0    0 0.21538834E+02 -.19765920E+02 0.73235735E+02 0.12027505E+03 0.90818504E+02 0.0000E+00 0.0000E+00
      -24  1    1    2    0    0 -.42286579E+02 0.10857893E+03 -.13081048E+03 0.19275927E+03 0.80419002E+02 0.0000E+00 0.9000E+01
      -11  1    4    4    0    0 0.48536725E+02 0.85762923E+01 0.62672053E+02 0.79731755E+02 0.51099893E-03 0.0000E+00 0.9000E+01
       11  1    4    4    0    0 -.26997891E+02 -.28342212E+02 0.10563682E+02 0.40543291E+02 0.51099893E-03 0.0000E+00 0.9000E+01
       23  1    3    3    0    0 0.36158573E+02 -.72727873E+02 -.17677482E+03 0.21485198E+03 0.91188000E+02 0.0000E+00 0.9000E+01
        2  1    1    2  502    0 -.15410827E+02 -.16085137E+02 -.54676333E+02 0.59040909E+02 0.32000000E+00 0.0000E+00 0.9000E+01
#aMCatNLO 2  0  0  1  1 0.22276113D+02 0.00000000D+00  -5  7  0 0.00000000D+00 0.00000000D+00 0.00000000D+00 0.00000000D+00 0.00000000D+00
  <mgrwgt>
 0.1745061389D-03    1    2    0
 0.236245635014218D+03 0.000000000000000D+00 0.000000000000000D+00 0.236245635014218D+03
 0.236245635014218D+03 0.000000000000000D+00 0.000000000000000D+00 -.236245635014218D+03
 0.148160965798161D+03 -.471513774143763D+02 0.103501269115856D+03 -.504845593345859D+02
 0.118289016094962D+03 0.446523502557547D+02 0.452195493845228D+01 0.109444099287655D+03
 0.523814763661195D+02 -.286744297004729D+02 -.300921090078100D+02 0.318757136878385D+02
 0.153659811769195D+03 0.311734568590944D+02 -.779311150464986D+02 -.908352536409076D+02
 0.000000000000000D+00 -.000000000000000D+00 -.000000000000000D+00 -.000000000000000D+00
 0.240024016465327D+03 0.000000000000000D+00 0.000000000000000D+00 0.240024016465327D+03
 0.271791719039308D+03 0.000000000000000D+00 0.000000000000000D+00 -.271791719039308D+03
 0.150311161732545D+03 -.422865792867362D+02 0.108578929208369D+03 -.504845593345859D+02
 0.120030734788588D+03 0.485367246108063D+02 0.857629226746990D+01 0.109444099287655D+03
 0.504799781477729D+02 -.269978905359439D+02 -.283422119337883D+02 0.318757136878385D+02
 0.152194219647738D+03 0.361585726609550D+02 -.727278727125885D+02 -.908352536409076D+02
 0.387996411879899D+02 -.154108274490813D+02 -.160851368294625D+02 -.317677025739803D+02
0.109118763922D-06 0.000000000000D+00 0.000000000000D+00 0.765284432145D-06 0.350125792959D-10  7 21 1 -24 -11 11 23 2 2 0.22915423D-01 0.67380825D-01 0.35044210D+05 0.35044210D+05 0.35044210D+05 0.11611249D+01  1  2  1  3  7  1       -2 0.174506138853D-03 0.100000000000D+01
  </mgrwgt>
  </event>
  <event>
  9     66 0.26562228E-05 0.63868984E+03 0.75467711E-02 0.88816159E-01
       -2 -1    0    0    0  501 0.00000000E+00 0.00000000E+00 0.91043479E+03 0.91043485E+03 0.32000000E+00 0.0000E+00 0.9000E+01
        1 -1    0    0  502    0 0.00000000E+00 0.00000000E+00 -.11918787E+04 0.11918787E+04 0.32000000E+00 0.0000E+00 0.9000E+01
       25  2    1    2    0    0 0.95995800E+02 -.46366728E+03 -.15183256E+03 0.58069231E+03 0.29991315E+03 0.0000E+00 0.0000E+00
       23  2    3    3    0    0 -.65933496E+02 -.26157190E+03 -.98145971E+02 0.30094039E+03 0.90362604E+02 0.0000E+00 0.0000E+00
      -24  1    1    2    0    0 0.16466835E+03 0.76291848E+03 0.38318956E+03 0.87319054E+03 0.80419002E+02 0.0000E+00 0.9000E+01
      -11  1    4    4    0    0 -.28679963E+02 -.66512594E+02 -.69349116E+02 0.10027844E+03 0.51099893E-03 0.0000E+00 0.9000E+01
       11  1    4    4    0    0 -.37253532E+02 -.19505930E+03 -.28796855E+02 0.20066195E+03 0.51099893E-03 0.0000E+00 0.9000E+01
       23  1    3    3    0    0 0.16192930E+03 -.20209538E+03 -.53686585E+02 0.27975192E+03 0.91188000E+02 0.0000E+00 0.9000E+01
       21  1    1    2  502  501 -.26066414E+03 -.29925121E+03 -.51280089E+03 0.64843072E+03 0.75000000E+00 0.0000E+00 0.9000E+01
#aMCatNLO 2  0  0  2  1 0.39685902D+03 0.00000000D+00  -5  7  0 0.00000000D+00 0.00000000D+00 0.00000000D+00 0.00000000D+00 0.00000000D+00
  <mgrwgt>
 0.1438733294D-03    2    2    0
 0.689701422528992D+03 0.000000000000000D+00 0.000000000000000D+00 0.689701422528992D+03
 0.689701422528992D+03 0.000000000000000D+00 0.000000000000000D+00 -.689701422528992D+03
 0.659441704868489D+03 0.274131794546969D+02 0.605344934360492D+03 0.247390731842898D+03
 0.137173356607377D+03 -.518244765742991D+02 -.930832736277136D+02 -.864075087100814D+02
 0.265682872833591D+03 -.811096288464034D+02 -.245407578851885D+03 -.615120904177750D+02
 0.317104910748527D+03 0.105520925966006D+03 -.266854081880893D+03 -.994711327150414D+02
 0.000000000000000D+00 -.000000000000000D+00 -.000000000000000D+00 -.000000000000000D+00
 0.775437740206282D+03 0.000000000000000D+00 0.000000000000000D+00 0.775437740206282D+03
 0.139937401646186D+04 0.000000000000000D+00 0.000000000000000D+00 -.139937401646186D+04
 0.822696580313354D+03 0.164668345265103D+03 0.762918481340441D+03 0.247390731842898D+03
 0.112750711641105D+03 -.286799631571533D+02 -.665125937503359D+02 -.864075087100814D+02
 0.207893471273773D+03 -.372535323645781D+02 -.195059304974297D+03 -.615120904177750D+02
 0.292016087755773D+03 0.161929295201303D+03 -.202095376681861D+03 -.994711327150414D+02
 0.739454905684139D+03 -.260664144944674D+03 -.299251205933947D+03 -.623936276255580D+03
-.156727942722D-03 0.000000000000D+00 0.000000000000D+00 0.146405203808D-04 0.000000000000D+00  7 -2 1 -24 -11 11 23 21 2 0.12458037D+00 0.18358763D+00 0.74567360D+06 0.74567360D+06 0.74567360D+06 0.10564548D+01  1  2 13  2  7  2        1 -.958819238091D-04 0.100000000000D+01
0.534148455389D-03 0.000000000000D+00 0.000000000000D+00 0.146405203808D-04 0.771011979660D-09  7 -2 1 -24 -11 11 23 21 2 0.14006687D+00 0.18336592D+00 0.74567360D+06 0.74567360D+06 0.74567360D+06 0.10564548D+01  1  2  1  2  7  2        1 0.239755253173D-03 0.100000000000D+01
  </mgrwgt>
  </event>
  <event>
  8     66 0.26562228E-05 0.22746676E+03 0.75467711E-02 0.87748165E-01
       -2 -1    0    0    0  501 0.00000000E+00 0.00000000E+00 0.45359583E+02 0.45360712E+02 0.32000000E+00 0.0000E+00 0.9000E+01
        1 -1    0    0  501    0 0.00000000E+00 0.00000000E+00 -.20942164E+04 0.20942165E+04 0.32000000E+00 0.0000E+00 0.9000E+01
       25  2    1    2    0    0 0.29065746E+02 -.11493451E+03 -.57873911E+03 0.66249621E+03 0.29984583E+03 0.0000E+00 0.0000E+00
       23  2    3    3    0    0 -.45375082E+02 -.15778147E+03 -.26565095E+03 0.32527708E+03 0.90999233E+02 0.0000E+00 0.0000E+00
      -24  1    1    2    0    0 -.29065746E+02 0.11493451E+03 -.14701178E+04 0.14770810E+04 0.80419002E+02 0.0000E+00 0.9000E+01
      -11  1    4    4    0    0 0.12132740E+02 -.11266203E+03 -.14241917E+03 0.18199768E+03 0.51099893E-03 0.0000E+00 0.9000E+01
       11  1    4    4    0    0 -.57507823E+02 -.45119438E+02 -.12323179E+03 0.14327940E+03 0.51099893E-03 0.0000E+00 0.9000E+01
       23  1    3    3    0    0 0.74440828E+02 0.42846965E+02 -.31308815E+03 0.33721913E+03 0.91188000E+02 0.0000E+00 0.9000E+01
#aMCatNLO 1  0  0  2  1 0.90709150D+03 0.00000000D+00  -5  7  0 0.00000000D+00 0.00000000D+00 0.00000000D+00 0.00000000D+00 0.00000000D+00
  <mgrwgt>
 0.1163686571D-02    3    2    0
 0.308210997716420D+03 0.000000000000000D+00 0.000000000000000D+00 0.308210997716420D+03
 0.308210997716420D+03 0.000000000000000D+00 0.000000000000000D+00 -.308210997716420D+03
 0.240529843260552D+03 -.290657459740073D+02 0.114934506054801D+03 -.193216539854871D+03
 0.158335686211233D+03 0.121327404309179D+02 -.112662032870138D+03 0.110590471954803D+03
 0.877208217320790D+02 -.575078227804785D+02 -.451194378091650D+02 0.484977238247854D+02
 0.129835644228976D+03 0.744408283235680D+02 0.428469646245024D+02 0.341283440752827D+02
 0.000000000000000D+00 0.000000000000000D+00 -.000000000000000D+00 0.000000000000000D+00
 0.105324176028889D+04 0.000000000000000D+00 0.000000000000000D+00 0.105324176028889D+04
 0.955788027392664D+03 0.000000000000000D+00 0.000000000000000D+00 -.955788027392664D+03
 0.532473574370831D+03 -.406880631809415D+03 0.272353468187502D+03 -.193216539854871D+03
 0.201462361875662D+03 -.163722961317837D+03 -.393906423234277D+02 0.110590471954803D+03
 0.208649899396712D+03 -.202362641807459D+03 0.152352388487619D+02 0.484977238247854D+02
 0.154132481130771D+03 -.643520701508455D+02 0.100675903738219D+03 0.341283440752827D+02
 0.912311470907576D+03 0.837318305085556D+03 -.348873968451056D+03 0.974537328962223D+02
0.350706769121D-04 0.000000000000D+00 0.000000000000D+00 0.405334427048D-05 0.000000000000D+00  7 -2 1 -24 -11 11 23 21 0 0.69784861D-02 0.32218723D+00 0.51741127D+05 0.51741127D+05 0.51741127D+05 0.11459901D+01  1  2  2  2  7  2        1 0.114455439754D-02 0.100000000000D+01
-.172975949232D-05 0.000000000000D+00 -.134680633664D-06 0.405334427048D-05 0.000000000000D+00  7 -2 1 -24 -11 11 23 21 2 0.69784861D-02 0.32218723D+00 0.51741127D+05 0.51741127D+05 0.51741127D+05 0.11459901D+01  1  2  3  2  7  2        1 -.741378064658D-04 0.100000000000D+01
0.217614522300D-05 0.000000000000D+00 0.000000000000D+00 0.405334427048D-05 0.000000000000D+00  7 -2 1 -24 -11 11 23 21 2 0.69784861D-02 0.32218723D+00 0.51741127D+05 0.51741127D+05 0.51741127D+05 0.11459901D+01  1  2 15  2  7  2        1 0.932699800756D-04 0.100000000000D+01
  </mgrwgt>
  </event>
  <event>
  8     66 0.26562228E-05 0.16840899E+03 0.75467711E-02 0.10326390E+00
       -2 -1    0    0    0  501 0.00000000E+00 0.00000000E+00 0.21923959E+03 0.21923983E+03 0.32000000E+00 0.0000E+00 0.9000E+01
        1 -1    0    0  501    0 0.00000000E+00 0.00000000E+00 -.31143927E+03 0.31143944E+03 0.32000000E+00 0.0000E+00 0.9000E+01
       25  2    1    2    0    0 -.45925421E+02 -.12354233E+03 -.15618822E+03 0.36354578E+03 0.30066414E+03 0.0000E+00 0.0000E+00
       23  2    3    3    0    0 -.49798427E+02 0.62403353E+02 -.53364613E+02 0.13229107E+03 0.90989475E+02 0.0000E+00 0.0000E+00
      -24  1    1    2    0    0 0.45925421E+02 0.12354233E+03 0.63988545E+02 0.16713348E+03 0.80419002E+02 0.0000E+00 0.9000E+01
      -13  1    4    4    0    0 -.49114567E+02 0.11227351E+02 -.62524618E+02 0.80297155E+02 0.10565837E+00 0.0000E+00 0.9000E+01
       13  1    4    4    0    0 -.68386015E+00 0.51176002E+02 0.91600043E+01 0.51993919E+02 0.10565837E+00 0.0000E+00 0.9000E+01
       23  1    3    3    0    0 0.38730057E+01 -.18594568E+03 -.10282361E+03 0.23125471E+03 0.91188000E+02 0.0000E+00 0.9000E+01
#aMCatNLO 1  0  0  2  1 0.33208930D+02 0.00000000D+00  -5  7  0 0.00000000D+00 0.00000000D+00 0.00000000D+00 0.00000000D+00 0.00000000D+00
  <mgrwgt>
 0.8476387387D-03    9    2    0
 0.261304277553364D+03 0.000000000000000D+00 0.000000000000000D+00 0.261304277553364D+03
 0.261304277553364D+03 0.000000000000000D+00 0.000000000000000D+00 -.261304277553364D+03
 0.181003537687301D+03 0.459254222746853D+02 0.123542327805064D+03 0.944627626652195D+02
 0.705064935212721D+02 -.491146317571618D+02 0.112272962110806D+02 -.493240954890430D+02
 0.544128707055336D+02 -.683794672720087D+00 0.511760531503520D+02 0.184744284678856D+02
 0.216685653192623D+03 0.387300415519666D+01 -.185945677166496D+03 -.636130956440622D+02
 0.000000000000000D+00 -.000000000000000D+00 -.000000000000000D+00 -.000000000000000D+00
 0.270523141471436D+03 0.000000000000000D+00 0.000000000000000D+00 0.270523141471436D+03
 0.293551685619526D+03 0.000000000000000D+00 0.000000000000000D+00 -.293551685619526D+03
 0.189627681796022D+03 0.517983546414801D+02 0.133735405465616D+03 0.944627626652195D+02
 0.697087804482999D+02 -.468928145503899D+02 0.150834883007808D+02 -.493240954890430D+02
 0.573186450589824D+02 0.108667581338529D+01 0.542488866232219D+02 0.184744284678856D+02
 0.207007508195396D+03 0.105867431774359D+02 -.174293293149052D+03 -.636130956440622D+02
 0.404122115922615D+02 -.165789590819113D+02 -.287744872405664D+02 -.230285441480895D+02
0.747950410823D-05 0.000000000000D+00 0.000000000000D+00 0.831627389426D-06 0.000000000000D+00  7 -2 1 -24 -13 13 23 21 0 0.33729199D-01 0.47913765D-01 0.53615161D+05 0.53615161D+05 0.53615161D+05 0.11446382D+01  1  2  2  2  7  2        1 0.556772480805D-03 0.100000000000D+01
-.408144261586D-06 0.000000000000D+00 -.287232651743D-07 0.831627389426D-06 0.000000000000D+00  7 -2 1 -24 -13 13 23 21 2 0.33729199D-01 0.47913765D-01 0.53615161D+05 0.53615161D+05 0.53615161D+05 0.11446382D+01  1  2  3  2  7  2        1 -.398066018063D-04 0.100000000000D+01
0.484694821155D-06 0.000000000000D+00 0.000000000000D+00 0.831627389426D-06 0.000000000000D+00  7 -2 1 -24 -13 13 23 21 2 0.33729199D-01 0.47913765D-01 0.53615161D+05 0.53615161D+05 0.53615161D+05 0.11446382D+01  1  2 15  2  7  2        1 0.472726326429D-04 0.100000000000D+01
0.182914688843D-04 0.000000000000D+00 0.000000000000D+00 0.831627389426D-06 0.000000000000D+00  7 -2 1 -24 -13 13 23 21 2 0.33729199D-01 0.54599214D-01 0.62036697D+05 0.62036697D+05 0.62036697D+05 0.11391455D+01  1  2 12  2  7  2        1 0.148855748227D-02 0.100000000000D+01
-.183111433747D-04 0.000000000000D+00 0.000000000000D+00 0.831627389426D-06 0.000000000000D+00  7 -2 1 -24 -13 13 23 21 2 0.33729199D-01 0.47913765D-01 0.53615161D+05 0.53615161D+05 0.53615161D+05 0.11446382D+01  1  2  4  2  7  2        1 -.178589891256D-02 0.100000000000D+01
-.387805330636D-04 0.000000000000D+00 -.759735092068D-05 0.831627389426D-06 0.000000000000D+00  7 -2 1 -24 -13 13 23 21 2 0.33729199D-01 0.55358674D-01 0.53615161D+05 0.53615161D+05 0.53615161D+05 0.11446382D+01  1  2  5  2  7  2        1 -.313085879950D-02 0.100000000000D+01
0.395432238009D-04 0.000000000000D+00 0.751879281410D-05 0.831627389426D-06 0.000000000000D+00  7 -2 1 -24 -13 13 23 21 2 0.33729199D-01 0.47913765D-01 0.53615161D+05 0.53615161D+05 0.53615161D+05 0.11446382D+01  1  2  6  2  7  2        1 0.385667890530D-02 0.100000000000D+01
0.372518406405D-06 0.000000000000D+00 0.000000000000D+00 0.831627389426D-06 0.000000000000D+00  7 -2 21 -24 -13 13 23 -1 2 0.33729199D-01 0.54599214D-01 0.62036697D+05 0.62036697D+05 0.62036697D+05 0.11391455D+01  1  2 12  4  7  2        1 0.127437756203D-03 0.100000000000D+01
-.808590369314D-06 0.000000000000D+00 -.168057740567D-06 0.831627389426D-06 0.000000000000D+00  7 -2 21 -24 -13 13 23 -1 2 0.33729199D-01 0.55358674D-01 0.53615161D+05 0.53615161D+05 0.53615161D+05 0.11446382D+01  1  2  5  4  7  2        1 -.272516204622D-03 0.100000000000D+01
  </mgrwgt>
  </event>
  <event>
  8     66 0.26562228E-05 0.22790678E+03 0.75467711E-02 0.10159546E+00
       -2 -1    0    0    0  501 0.00000000E+00 0.00000000E+00 0.33215344E+03 0.33215359E+03 0.32000000E+00 0.0000E+00 0.9000E+01
        1 -1    0    0  501    0 0.00000000E+00 0.00000000E+00 -.34018651E+03 0.34018666E+03 0.32000000E+00 0.0000E+00 0.9000E+01
       25  2    1    2    0    0 -.76417101E+02 -.17443150E+03 0.18208078E+03 0.39149080E+03 0.28956124E+03 0.0000E+00 0.0000E+00
       23  2    3    3    0    0 -.18177998E+02 -.19466083E+03 0.17970568E+03 0.28139124E+03 0.93078588E+02 0.0000E+00 0.0000E+00
      -24  1    1    2    0    0 0.76417101E+02 0.17443150E+03 -.19011385E+03 0.28084945E+03 0.80419002E+02 0.0000E+00 0.9000E+01
      -11  1    4    4    0    0 0.32100715E+02 -.28757906E+02 0.38897492E+02 0.58055904E+02 0.51099893E-03 0.0000E+00 0.9000E+01
       11  1    4    4    0    0 -.50278713E+02 -.16590293E+03 0.14080818E+03 0.22333534E+03 0.51099893E-03 0.0000E+00 0.9000E+01
       23  1    3    3    0    0 -.58239104E+02 0.20229327E+02 0.23751013E+01 0.11009955E+03 0.91188000E+02 0.0000E+00 0.9000E+01
#aMCatNLO 1  0  0  1  2 0.29677740D+02 0.00000000D+00  -5  7  0 0.00000000D+00 0.00000000D+00 0.00000000D+00 0.00000000D+00 0.00000000D+00
  <mgrwgt>
 0.8098195035D-02    9    2    0
 0.336146127901578D+03 0.000000000000000D+00 0.000000000000000D+00 0.336146127901578D+03
 0.336146127901578D+03 0.000000000000000D+00 0.000000000000000D+00 -.336146127901578D+03
 0.278597870894934D+03 0.764171012882385D+02 0.174431504633211D+03 -.186771610623555D+03
 0.585248256277078D+02 0.321007154182662D+02 -.287579061510116D+02 0.395939656791120D+02
 0.225033768511482D+03 -.502787129587416D+02 -.165902925361725D+03 0.143486819429918D+03
 0.110135790769032D+03 -.582391037477632D+02 0.202293268795254D+02 0.369082551452576D+01
 0.000000000000000D+00 -.000000000000000D+00 -.000000000000000D+00 0.000000000000000D+00
 0.362693428711699D+03 0.000000000000000D+00 0.000000000000000D+00 0.362693428711699D+03
 0.344871380040682D+03 0.000000000000000D+00 0.000000000000000D+00 -.344871380040682D+03
 0.285027769084229D+03 0.878248103661534D+02 0.179378876526737D+03 -.186771610623555D+03
 0.593767769196608D+02 0.344870284002840D+02 -.277229939091447D+02 0.395939656791120D+02
 0.220302732404754D+03 -.412651605511243D+02 -.161993867413482D+03 0.143486819429918D+03
 0.108239707223684D+03 -.538192122911967D+02 0.221461750928958D+02 0.369082551452576D+01
 0.346178231200532D+02 -.272274659241163D+02 -.118081902970057D+02 0.178220486710164D+02
0.185640634649D-03 0.000000000000D+00 0.000000000000D+00 0.412934183620D-08 0.000000000000D+00  7 -2 1 -24 -11 11 23 21 0 0.51100552D-01 0.52336409D-01 0.71087996D+05 0.71087996D+05 0.71087996D+05 0.11340906D+01  1  2  2  1  7  1       -2 0.565749845328D-02 0.100000000000D+01
-.964013127751D-05 0.000000000000D+00 -.712908917354D-06 0.412934183620D-08 0.000000000000D+00  7 -2 1 -24 -11 11 23 21 2 0.51100552D-01 0.52336409D-01 0.71087996D+05 0.71087996D+05 0.71087996D+05 0.11340906D+01  1  2  3  1  7  1       -2 -.377859097314D-03 0.100000000000D+01
0.119787711483D-04 0.000000000000D+00 0.000000000000D+00 0.412934183620D-08 0.000000000000D+00  7 -2 1 -24 -11 11 23 21 2 0.51100552D-01 0.52336409D-01 0.71087996D+05 0.71087996D+05 0.71087996D+05 0.11340906D+01  1  2 15  1  7  1       -2 0.469525520215D-03 0.100000000000D+01
0.551086053691D-03 0.000000000000D+00 0.000000000000D+00 0.412934183620D-08 0.000000000000D+00  7 -2 1 -24 -11 11 23 21 2 0.55762926D-01 0.52336409D-01 0.79686842D+05 0.79686842D+05 0.79686842D+05 0.11299054D+01  1  2 12  1  7  1       -2 0.179999626267D-01 0.100000000000D+01
-.544322842137D-03 0.000000000000D+00 0.000000000000D+00 0.412934183620D-08 0.000000000000D+00  7 -2 1 -24 -11 11 23 21 2 0.51100552D-01 0.52336409D-01 0.71087996D+05 0.71087996D+05 0.71087996D+05 0.11340906D+01  1  2  4  1  7  1       -2 -.213355328736D-01 0.100000000000D+01
-.135448900710D-02 0.000000000000D+00 -.246751035299D-03 0.412934183620D-08 0.000000000000D+00  7 -2 1 -24 -11 11 23 21 2 0.56303372D-01 0.52336409D-01 0.71087996D+05 0.71087996D+05 0.71087996D+05 0.11340906D+01  1  2  5  1  7  1       -2 -.437888568891D-01 0.100000000000D+01
0.137310969864D-02 0.000000000000D+00 0.245595699097D-03 0.412934183620D-08 0.000000000000D+00  7 -2 1 -24 -11 11 23 21 2 0.51100552D-01 0.52336409D-01 0.71087996D+05 0.71087996D+05 0.71087996D+05 0.11340906D+01  1  2  6  1  7  1       -2 0.538210503888D-01 0.100000000000D+01
0.796219795154D-05 0.000000000000D+00 0.000000000000D+00 0.412934183620D-08 0.000000000000D+00  7 21 1 -24 -11 11 23 2 2 0.55762926D-01 0.52336409D-01 0.79686842D+05 0.79686842D+05 0.79686842D+05 0.11299054D+01  1  2 12  3  7  1       -2 0.276588686886D-02 0.100000000000D+01
-.206515199051D-04 0.000000000000D+00 -.390208294583D-05 0.412934183620D-08 0.000000000000D+00  7 21 1 -24 -11 11 23 2 2 0.56303372D-01 0.52336409D-01 0.71087996D+05 0.71087996D+05 0.71087996D+05 0.11340906D+01  1  2  5  3  7  1       -2 -.711347996231D-02 0.100000000000D+01
  </mgrwgt>
  </event>
  <event>
  7     66 0.26562228E-05 0.27533002E+03 0.75467711E-02 0.87140814E-01
       -2 -1    0    0    0  501 0.00000000E+00 0.00000000E+00 0.49190325E+03 0.49190335E+03 0.32000000E+00 0.0000E+00 0.9000E+01
        1 -1    0    0  501    0 0.00000000E+00 0.00000000E+00 -.21446215E+04 0.21446215E+04 0.32000000E+00 0.0000E+00 0.9000E+01
       23  2    1    2    0    0 -.27762729E+03 0.13171215E+03 0.88541804E+02 0.33253865E+03 0.91199219E+02 0.0000E+00 0.0000E+00
      -24  1    1    2    0    0 0.78579805E+03 -.28822184E+03 -.14854500E+04 0.17069210E+04 0.80419002E+02 0.0000E+00 0.9000E+01
      -13  1    3    3    0    0 -.25149907E+03 0.11521608E+03 0.10692965E+03 0.29658134E+03 0.10565837E+00 0.0000E+00 0.9000E+01
       13  1    3    3    0    0 -.26128218E+02 0.16496076E+02 -.18387844E+02 0.35957312E+02 0.10565837E+00 0.0000E+00 0.9000E+01
       23  1    1    2    0    0 -.50817076E+03 0.15650969E+03 -.25581001E+03 0.59706517E+03 0.91188000E+02 0.0000E+00 0.9000E+01
#aMCatNLO 1  0  0  1  2 0.33430405D+03 0.00000000D+00  -5  7  0 0.00000000D+00 0.00000000D+00 0.00000000D+00 0.00000000D+00 0.00000000D+00
  <mgrwgt>
 0.4739661353D-02    9    2    0
 0.102710584746352D+04 0.000000000000000D+00 0.000000000000000D+00 0.102710584746352D+04
 0.102710584746352D+04 0.000000000000000D+00 0.000000000000000D+00 -.102710584746352D+04
 0.995666327087645D+03 0.785798074200565D+03 -.288221846157449D+03 -.533229568686982D+03
 0.466684993097841D+03 -.251499425168107D+03 0.115216210365583D+03 0.375856550816715D+03
 0.313557067373834D+02 -.261279337593194D+02 0.164959494574784D+02 0.532870284081675D+01
 0.560504668004180D+03 -.508170715273139D+03 0.156509686334387D+03 0.152044315029450D+03
 0.000000000000000D+00 -.000000000000000D+00 -.000000000000000D+00 0.000000000000000D+00
 0.123025606693783D+04 0.000000000000000D+00 0.000000000000000D+00 0.123025606693783D+04
 0.118795057524339D+04 0.000000000000000D+00 0.000000000000000D+00 -.118795057524339D+04
 0.108602476690334D+04 0.923134757252512D+03 -.190973886705314D+03 -.533229568686982D+03
 0.450257301928432D+03 -.191005428862672D+03 0.158051944920082D+03 0.375856550816715D+03
 0.298494113803778D+02 -.220900109703139D+02 0.193551982971167D+02 0.532870284081675D+01
 0.515104904151932D+03 -.437208865397691D+03 0.206757696887589D+03 0.152044315029450D+03
 0.336970257817133D+03 -.272830452021835D+03 -.193190953399474D+03 0.423054916944460D+02
0.819874056798D-02 0.000000000000D+00 0.000000000000D+00 0.111501618607D-07 0.000000000000D+00  7 -2 1 -24 -13 13 23 21 0 0.75677432D-01 0.32994177D+00 0.71222320D+06 0.71222320D+06 0.71222320D+06 0.10578180D+01  1  2  2  1  7  1       -2 0.336869138578D-02 0.100000000000D+01
-.434117859788D-03 0.000000000000D+00 -.314853225590D-04 0.111501618607D-07 0.000000000000D+00  7 -2 1 -24 -13 13 23 21 2 0.75677432D-01 0.32994177D+00 0.71222320D+06 0.71222320D+06 0.71222320D+06 0.10578180D+01  1  2  3  1  7  1       -2 -.199592240896D-03 0.100000000000D+01
0.520429161874D-03 0.000000000000D+00 0.000000000000D+00 0.111501618607D-07 0.000000000000D+00  7 -2 1 -24 -13 13 23 21 2 0.75677432D-01 0.32994177D+00 0.71222320D+06 0.71222320D+06 0.71222320D+06 0.10578180D+01  1  2 15  1  7  1       -2 0.239275165268D-03 0.100000000000D+01
0.377388165716D-02 0.000000000000D+00 0.000000000000D+00 0.111501618607D-07 0.000000000000D+00  7 -2 1 -24 -13 13 23 21 2 0.95555712D-01 0.32994177D+00 0.10504733D+07 0.10504733D+07 0.10504733D+07 0.10464434D+01  1  2 12  1  7  1       -2 0.962841289384D-03 0.100000000000D+01
-.405798345313D-02 0.000000000000D+00 0.000000000000D+00 0.111501618607D-07 0.000000000000D+00  7 -2 1 -24 -13 13 23 21 2 0.75677432D-01 0.32994177D+00 0.71222320D+06 0.71222320D+06 0.71222320D+06 0.10578180D+01  1  2  4  1  7  1       -2 -.186571916513D-02 0.100000000000D+01
-.793193210746D-02 0.000000000000D+00 -.364484277785D-02 0.111501618607D-07 0.000000000000D+00  7 -2 1 -24 -13 13 23 21 2 0.10551875D+00 0.32994177D+00 0.71222320D+06 0.71222320D+06 0.71222320D+06 0.10578180D+01  1  2  5  1  7  1       -2 -.166973761652D-02 0.100000000000D+01
0.884293880187D-02 0.000000000000D+00 0.345234566379D-02 0.111501618607D-07 0.000000000000D+00  7 -2 1 -24 -13 13 23 21 2 0.75677432D-01 0.32994177D+00 0.71222320D+06 0.71222320D+06 0.71222320D+06 0.10578180D+01  1  2  6  1  7  1       -2 0.406567463601D-02 0.100000000000D+01
0.121308489594D-03 0.000000000000D+00 0.000000000000D+00 0.111501618607D-07 0.000000000000D+00  7 21 1 -24 -13 13 23 2 2 0.95555712D-01 0.32994177D+00 0.10504733D+07 0.10504733D+07 0.10504733D+07 0.10464434D+01  1  2 12  3  7  1       -2 0.276743640796D-03 0.100000000000D+01
-.234615680029D-03 0.000000000000D+00 -.151707460219D-03 0.111501618607D-07 0.000000000000D+00  7 21 1 -24 -13 13 23 2 2 0.10551875D+00 0.32994177D+00 0.71222320D+06 0.71222320D+06 0.71222320D+06 0.10578180D+01  1  2  5  3  7  1       -2 -.438515742099D-03 0.100000000000D+01
  </mgrwgt>
  </event>
  <event>
  8     66 0.26562228E-05 0.37728502E+03 0.75467711E-02 0.94911540E-01
       -2 -1    0    0    0  501 0.00000000E+00 0.00000000E+00 0.11660886E+04 0.11660886E+04 0.32000000E+00 0.0000E+00 0.9000E+01
        1 -1    0    0  501    0 0.00000000E+00 0.00000000E+00 -.12996030E+03 0.12996069E+03 0.32000000E+00 0.0000E+00 0.9000E+01
       25  2    1    2    0    0 0.30996033E+03 0.56129827E+02 0.44900799E+03 0.62492830E+03 0.29950167E+03 0.0000E+00 0.0000E+00
       23  2    3    3    0    0 0.30175035E+03 -.12674814E+02 0.36840029E+03 0.48487712E+03 0.90405295E+02 0.0000E+00 0.0000E+00
      -24  1    1    2    0    0 -.30996033E+03 -.56129827E+02 0.58712027E+03 0.67112100E+03 0.80419002E+02 0.0000E+00 0.9000E+01
      -11  1    4    4    0    0 0.15723120E+03 -.51223678E+02 0.20432953E+03 0.26286131E+03 0.51099893E-03 0.0000E+00 0.9000E+01
       11  1    4    4    0    0 0.14451916E+03 0.38548864E+02 0.16407077E+03 0.22201581E+03 0.51099893E-03 0.0000E+00 0.9000E+01
       23  1    3    3    0    0 0.82099738E+01 0.68804641E+02 0.80607696E+02 0.14005118E+03 0.91188000E+02 0.0000E+00 0.9000E+01
#aMCatNLO 1  0  0  1  2 0.19727694D+03 0.00000000D+00  -5  7  0 0.00000000D+00 0.00000000D+00 0.00000000D+00 0.00000000D+00 0.00000000D+00
  <mgrwgt>
 0.7814990845D-03    4    2    0
 0.389288458256016D+03 0.000000000000000D+00 0.000000000000000D+00 0.389288458256016D+03
 0.389288458256016D+03 0.000000000000000D+00 0.000000000000000D+00 -.389288458256016D+03
 0.335835786974289D+03 -.309960328117300D+03 -.561298265739565D+02 0.842169663456428D+02
 0.165647890528269D+03 0.157231197043215D+03 -.512236778025746D+02 -.968034840288168D+01
 0.151231136339319D+03 0.144519157243418D+03 0.385488635844920D+02 -.223395368008912D+02
 0.125862102670155D+03 0.820997383066778D+01 0.688046407920392D+02 -.521970811418699D+02
 0.000000000000000D+00 -.000000000000000D+00 -.000000000000000D+00 -.000000000000000D+00
 0.463753401529124D+03 0.000000000000000D+00 0.000000000000000D+00 0.463753401529124D+03
 0.558107978440206D+03 0.000000000000000D+00 0.000000000000000D+00 -.558107978440206D+03
 0.268595083092711D+03 -.240565333523422D+03 -.266819338413026D+02 0.842169663456428D+02
 0.202486592090968D+03 0.199496891428331D+03 -.332881531756464D+02 -.968034840288168D+01
 0.193534830584305D+03 0.184101901268662D+03 0.553458733247642D+02 -.223395368008912D+02
 0.138564796897260D+03 0.385689514651534D+02 0.816875284136233D+02 -.521970811418699D+02
 0.218680077304086D+03 -.181602410638726D+03 -.770633147214384D+02 -.943545769110819D+02
0.186007526485D-03 0.000000000000D+00 0.000000000000D+00 0.211130450707D-05 0.000000000000D+00  7 -2 1 -24 -11 11 23 21 0 0.17939827D+00 0.19993926D-01 0.14234398D+06 0.14234398D+06 0.14234398D+06 0.11093519D+01  1  2  2  1  7  1       -2 0.981439450778D-03 0.100000000000D+01
-.103214268272D-04 0.000000000000D+00 -.714317878609D-06 0.211130450707D-05 0.000000000000D+00  7 -2 1 -24 -11 11 23 21 2 0.17939827D+00 0.19993926D-01 0.14234398D+06 0.14234398D+06 0.14234398D+06 0.11093519D+01  1  2  3  1  7  1       -2 -.670210698330D-04 0.100000000000D+01
0.118263089667D-04 0.000000000000D+00 0.000000000000D+00 0.211130450707D-05 0.000000000000D+00  7 -2 1 -24 -11 11 23 21 2 0.17939827D+00 0.19993926D-01 0.14234398D+06 0.14234398D+06 0.14234398D+06 0.11093519D+01  1  2 15  1  7  1       -2 0.767928593974D-04 0.100000000000D+01
-.322962417142D-04 0.000000000000D+00 0.000000000000D+00 0.211130450707D-05 0.000000000000D+00  7 -2 1 -24 -11 11 23 21 2 0.17939827D+00 0.19993926D-01 0.14234398D+06 0.14234398D+06 0.14234398D+06 0.11093519D+01  1  2  4  1  7  1       -2 -.209712155839D-03 0.100000000000D+01
  </mgrwgt>
  </event>
  <event>
  8     66 0.26562228E-05 0.30669186E+03 0.75467711E-02 0.98041985E-01
       -2 -1    0    0    0  501 0.00000000E+00 0.00000000E+00 0.70532153E+02 0.70532879E+02 0.32000000E+00 0.0000E+00 0.9000E+01
        1 -1    0    0  501    0 0.00000000E+00 0.00000000E+00 -.27076700E+04 0.27076701E+04 0.32000000E+00 0.0000E+00 0.9000E+01
       25  2    1    2    0    0 -.28265128E+03 0.15435742E+03 -.82237637E+03 0.93333315E+03 0.30181106E+03 0.0000E+00 0.0000E+00
       23  2    3    3    0    0 -.14681850E+03 -.33879023E+02 -.21956452E+03 0.28096755E+03 0.89614298E+02 0.0000E+00 0.0000E+00
      -24  1    1    2    0    0 0.28265128E+03 -.15435742E+03 -.18147615E+04 0.18448698E+04 0.80419002E+02 0.0000E+00 0.9000E+01
      -13  1    4    4    0    0 -.11230647E+03 0.62279247E+01 -.18878960E+03 0.21975681E+03 0.10565837E+00 0.0000E+00 0.9000E+01
       13  1    4    4    0    0 -.34512032E+02 -.40106948E+02 -.30774921E+02 0.61210739E+02 0.10565837E+00 0.0000E+00 0.9000E+01
       23  1    3    3    0    0 -.13583277E+03 0.18823645E+03 -.60281185E+03 0.65236560E+03 0.91188000E+02 0.0000E+00 0.9000E+01
#aMCatNLO 1  0  0  2  1 0.11628395D+01 0.00000000D+00  -5  7  0 0.00000000D+00 0.00000000D+00 0.00000000D+00 0.00000000D+00 0.00000000D+00
  <mgrwgt>
 0.2116137113D-02   10    2    0
 0.437011250831693D+03 0.000000000000000D+00 0.000000000000000D+00 0.437011250831693D+03
 0.437011250831693D+03 0.000000000000000D+00 0.000000000000000D+00 -.437011250831693D+03
 0.388601342400428D+03 0.282651277763542D+03 -.154357422759920D+03 -.202054023910925D+03
 0.128903819384206D+03 -.112306580486548D+03 0.622798972471575D+01 0.629653775915240D+02
 0.101711467640233D+03 -.345119239378188D+02 -.401070118265229D+02 0.868652828118779D+02
 0.254805872238519D+03 -.135832773339174D+03 0.188236444861727D+03 0.522233635075233D+02
 0.000000000000000D+00 0.000000000000000D+00 -.000000000000000D+00 -.000000000000000D+00
 0.437298129314216D+03 0.000000000000000D+00 0.000000000000000D+00 0.437298129314216D+03
 0.438191598107007D+03 0.000000000000000D+00 0.000000000000000D+00 -.438191598107007D+03
 0.388187377925465D+03 0.282275909888157D+03 -.154002293958544D+03 -.202054023910925D+03
 0.129018167982774D+03 -.112431216215518D+03 0.634590534813490D+01 0.629653775915240D+02
 0.101708240185583D+03 -.346102225118583D+02 -.400140133120927D+02 0.868652828118779D+02
 0.255109489116585D+03 -.136079179911270D+03 0.188469565691552D+03 0.522233635075233D+02
 0.146645221081617D+01 0.844708750488782D+00 -.799163769050813D+00 -.893468792791232D+00
0.602855891483D-04 0.000000000000D+00 0.000000000000D+00 0.273197501691D-06 0.000000000000D+00  7 -2 1 -24 -13 13 23 21 0 0.10851158D-01 0.41656468D+00 0.13940109D+06 0.13940109D+06 0.13940109D+06 0.11100721D+01  1  2  2  2  7  2        1 0.373481582288D-03 0.100000000000D+01
-.324830848794D-05 0.000000000000D+00 -.231512535890D-06 0.273197501691D-06 0.000000000000D+00  7 -2 1 -24 -13 13 23 21 2 0.10851158D-01 0.41656468D+00 0.13940109D+06 0.13940109D+06 0.13940109D+06 0.11100721D+01  1  2  3  2  7  2        1 -.247979255356D-04 0.100000000000D+01
0.386361150786D-05 0.000000000000D+00 0.000000000000D+00 0.273197501691D-06 0.000000000000D+00  7 -2 1 -24 -13 13 23 21 2 0.10851158D-01 0.41656468D+00 0.13940109D+06 0.13940109D+06 0.13940109D+06 0.11100721D+01  1  2 15  2  7  2        1 0.294952129165D-04 0.100000000000D+01
-.487348475850D-02 0.000000000000D+00 0.000000000000D+00 0.273197501691D-06 0.000000000000D+00  7 -2 1 -24 -13 13 23 21 2 0.10851158D-01 0.41656468D+00 0.13940109D+06 0.13940109D+06 0.13940109D+06 0.11100721D+01  1  2  4  2  7  2        1 -.372046905609D-01 0.100000000000D+01
-.227252802991D-01 0.000000000000D+00 -.171825787166D-02 0.273197501691D-06 0.000000000000D+00  7 -2 1 -24 -13 13 23 21 2 0.10851158D-01 0.41777902D+00 0.13940109D+06 0.13940109D+06 0.13940109D+06 0.11100721D+01  1  2  5  2  7  2        1 -.171276741258D+00 0.100000000000D+01
0.227301929236D-01 0.000000000000D+00 0.171825059209D-02 0.273197501691D-06 0.000000000000D+00  7 -2 1 -24 -13 13 23 21 2 0.10851158D-01 0.41656468D+00 0.13940109D+06 0.13940109D+06 0.13940109D+06 0.11100721D+01  1  2  6  2  7  2        1 0.173524661719D+00 0.100000000000D+01
0.487351449464D-02 0.000000000000D+00 0.000000000000D+00 0.273197501691D-06 0.132757951675D-05  7 -2 1 -24 -13 13 23 21 2 0.10858281D-01 0.41768980D+00 0.13981701D+06 0.13981701D+06 0.13981701D+06 0.11099693D+01  1  2 11  2  7  2        1 0.367161629504D-01 0.100000000000D+01
0.869065539991D-10 0.000000000000D+00 0.000000000000D+00 0.273197501691D-06 0.000000000000D+00  7 -2 21 -24 -13 13 23 -1 2 0.10851158D-01 0.41782630D+00 0.13981701D+06 0.13981701D+06 0.13981701D+06 0.11099693D+01  1  2 12  4  7  2        1 0.193881162163D-09 0.100000000000D+01
-.123438132874D-04 0.000000000000D+00 -.933726719158D-06 0.273197501691D-06 0.000000000000D+00  7 -2 21 -24 -13 13 23 -1 2 0.10851158D-01 0.41777902D+00 0.13940109D+06 0.13940109D+06 0.13940109D+06 0.11100721D+01  1  2  5  4  7  2        1 -.275724558935D-04 0.100000000000D+01
0.274798923997D-05 0.000000000000D+00 0.000000000000D+00 0.273197501691D-06 0.668364923240D-09  7 -2 21 -24 -13 13 23 -1 2 0.10858281D-01 0.41768980D+00 0.13981701D+06 0.13981701D+06 0.13981701D+06 0.11099693D+01  1  2 11  4  7  2        1 0.613765450710D-05 0.100000000000D+01
  </mgrwgt>
  </event>
  <event>
  8     66 0.26562228E-05 0.22176991E+03 0.75467711E-02 0.90901443E-01
       -2 -1    0    0    0  501 0.00000000E+00 0.00000000E+00 0.76711240E+02 0.76711907E+02 0.32000000E+00 0.0000E+00 0.9000E+01
        1 -1    0    0  501    0 0.00000000E+00 0.00000000E+00 -.98183005E+03 0.98183010E+03 0.32000000E+00 0.0000E+00 0.9000E+01
       25  2    1    2    0    0 -.10946597E+03 0.36860837E+02 -.30711164E+03 0.44419576E+03 0.29941743E+03 0.0000E+00 0.0000E+00
       23  2    3    3    0    0 0.48986517E+02 -.45136149E+02 -.16113459E+03 0.19629408E+03 0.90166831E+02 0.0000E+00 0.0000E+00
      -24  1    1    2    0    0 0.10946597E+03 -.36860837E+02 -.59800718E+03 0.61434625E+03 0.80419002E+02 0.0000E+00 0.9000E+01
      -11  1    4    4    0    0 0.44467666E+02 -.66830056E+02 -.15283167E+03 0.17263010E+03 0.51099893E-03 0.0000E+00 0.9000E+01
       11  1    4    4    0    0 0.45188512E+01 0.21693907E+02 -.83029208E+01 0.23663983E+02 0.51099893E-03 0.0000E+00 0.9000E+01
       23  1    3    3    0    0 -.15845248E+03 0.81996986E+02 -.14597704E+03 0.24790168E+03 0.91188000E+02 0.0000E+00 0.9000E+01
#aMCatNLO 1  0  0  1  1 0.63176122D+03 0.00000000D+00  -5  7  0 0.00000000D+00 0.00000000D+00 0.00000000D+00 0.00000000D+00 0.00000000D+00
  <mgrwgt>
 0.1388446106D-02    5    2    0
 0.274440852489060D+03 0.000000000000000D+00 0.000000000000000D+00 0.274440852489060D+03
 0.274440852489060D+03 0.000000000000000D+00 0.000000000000000D+00 -.274440852489060D+03
 0.198665343746072D+03 0.109465965153578D+03 -.368608369515012D+02 -.140211212189343D+03
 0.809015607377762D+02 0.444676658941841D+02 -.668300562328763D+02 -.100713853884112D+02
 0.319452998207379D+02 0.451885117234266D+01 0.216939068332706D+02 0.230099233164397D+02
 0.237369500673534D+03 -.158452482220104D+03 0.819969863511069D+02 0.127272674261315D+03
 0.000000000000000D+00 -.000000000000000D+00 -.000000000000000D+00 0.000000000000000D+00
 0.160825319419154D+04 0.000000000000000D+00 0.000000000000000D+00 0.160825319419154D+04
 0.502310444344088D+03 0.000000000000000D+00 0.000000000000000D+00 -.502310444344088D+03
 0.290283757013811D+03 0.160215919748198D+03 0.180191894011125D+03 -.140211212189343D+03
 0.601045982469989D+02 0.591032509784350D+02 -.423505024425539D+01 -.100713853884112D+02
 0.742059104670613D+02 0.155367037338824D+02 0.688162147629659D+02 0.230099233164397D+02
 0.412300810053720D+03 -.910206396834458D+02 0.370396566081469D+03 0.127272674261315D+03
 0.127366856275403D+04 -.143835234777070D+03 -.615169624611304D+03 0.110594274984745D+04
0.162359812981D-04 0.000000000000D+00 0.000000000000D+00 0.109377571082D-05 0.000000000000D+00  7 -2 1 -24 -11 11 23 21 0 0.11801785D-01 0.15105083D+00 0.49181891D+05 0.49181891D+05 0.49181891D+05 0.11479261D+01  1  2  2  1  7  1       -2 0.132051042543D-02 0.100000000000D+01
-.852198243191D-06 0.000000000000D+00 -.623504432168D-07 0.109377571082D-05 0.000000000000D+00  7 -2 1 -24 -11 11 23 21 2 0.11801785D-01 0.15105083D+00 0.49181891D+05 0.49181891D+05 0.49181891D+05 0.11479261D+01  1  2  3  1  7  1       -2 -.913338598146D-04 0.100000000000D+01
0.101251860595D-05 0.000000000000D+00 0.000000000000D+00 0.109377571082D-05 0.000000000000D+00  7 -2 1 -24 -11 11 23 21 2 0.11801785D-01 0.15105083D+00 0.49181891D+05 0.49181891D+05 0.49181891D+05 0.11479261D+01  1  2 15  1  7  1       -2 0.108516103095D-03 0.100000000000D+01
0.152899443441D-04 0.000000000000D+00 -.116804719130D-04 0.109377571082D-05 0.000000000000D+00  7 -2 1 -24 -11 11 23 21 2 0.11897686D+00 0.15105083D+00 0.49181891D+05 0.49181891D+05 0.49181891D+05 0.11479261D+01  1  2  5  1  7  1       -2 0.207733000341D-04 0.100000000000D+01
0.232031377657D-05 0.000000000000D+00 -.320898493699D-05 0.109377571082D-05 0.000000000000D+00  7 21 1 -24 -11 11 23 2 2 0.11897686D+00 0.15105083D+00 0.49181891D+05 0.49181891D+05 0.49181891D+05 0.11479261D+01  1  2  5  3  7  1       -2 0.299801374351D-04 0.100000000000D+01
  </mgrwgt>
  </event>
  <event>
  8     66 0.26562228E-05 0.68057110E+03 0.75467711E-02 0.88257936E-01
       -2 -1    0    0    0  501 0.00000000E+00 0.00000000E+00 0.23211780E+03 0.23211802E+03 0.32000000E+00 0.0000E+00 0.9000E+01
        1 -1    0    0  501    0 0.00000000E+00 0.00000000E+00 -.23361419E+04 0.23361419E+04 0.32000000E+00 0.0000E+00 0.9000E+01
       25  2    1    2    0    0 0.43930407E+03 0.49579790E+03 -.15053974E+04 0.16718087E+04 0.29986584E+03 0.0000E+00 0.0000E+00
       23  2    3    3    0    0 0.90703158E+02 0.30379348E+02 -.38145537E+03 0.40307002E+03 0.88358753E+02 0.0000E+00 0.0000E+00
      -24  1    1    2    0    0 -.43930407E+03 -.49579790E+03 -.59862673E+03 0.89645123E+03 0.80419002E+02 0.0000E+00 0.9000E+01
      -11  1    4    4    0    0 0.44496861E+02 -.79719804E+01 -.29104571E+03 0.29453544E+03 0.51099893E-03 0.0000E+00 0.9000E+01
       11  1    4    4    0    0 0.46206297E+02 0.38351328E+02 -.90409667E+02 0.10853458E+03 0.51099893E-03 0.0000E+00 0.9000E+01
       23  1    3    3    0    0 0.34860092E+03 0.46541856E+03 -.11239420E+04 0.12687387E+04 0.91188000E+02 0.0000E+00 0.9000E+01
#aMCatNLO 1  0  0  2  2 0.41299299D+03 0.00000000D+00  -5  7  0 0.00000000D+00 0.00000000D+00 0.00000000D+00 0.00000000D+00 0.00000000D+00
  <mgrwgt>
 0.1376988896D-02    4    2    0
 0.736383348635223D+03 0.000000000000000D+00 0.000000000000000D+00 0.736383348635223D+03
 0.736383348635223D+03 0.000000000000000D+00 0.000000000000000D+00 -.736383348635223D+03
 0.708051534210563D+03 -.439304072587543D+03 -.495797902704803D+03 0.236782876545325D+03
 0.978270334803552D+02 0.444968606854569D+02 -.797198037033507D+01 -.867560107294046D+02
 0.601051649891881D+02 0.462062968928007D+02 0.383513279264460D+02 -.260473263696635D+01
 0.606782964590339D+03 0.348600915009286D+03 0.465418555148693D+03 -.147422133178954D+03
 0.000000000000000D+00 0.000000000000000D+00 -.000000000000000D+00 0.000000000000000D+00
 0.107951162187372D+04 0.000000000000000D+00 0.000000000000000D+00 0.107951162187372D+04
 0.900275017760016D+03 0.000000000000000D+00 0.000000000000000D+00 -.900275017760016D+03
 0.625822034202168D+03 -.478457839640938D+03 -.316540625512139D+03 0.236782876545325D+03
 0.967539175307303D+02 0.387852419763600D+02 0.181774630985182D+02 -.867560107294046D+02
 0.701654606625384D+02 0.423824069444174D+02 0.558582027948800D+02 -.260473263696635D+01
 0.736835311065881D+03 0.309161107354705D+03 0.645985408997551D+03 -.147422133178954D+03
 0.450209916172415D+03 0.881290833654551D+02 -.403480449378810D+03 0.179236604113700D+03
0.119956028325D-02 0.000000000000D+00 0.000000000000D+00 0.543626873863D-05 0.000000000000D+00  7 -2 1 -24 -11 11 23 21 0 0.35710450D-01 0.35940647D+00 0.46317702D+06 0.46317702D+06 0.46317702D+06 0.10708664D+01  1  2  2  2  7  2        1 0.171240108095D-02 0.100000000000D+01
-.661388673071D-04 0.000000000000D+00 -.460662733914D-05 0.543626873863D-05 0.000000000000D+00  7 -2 1 -24 -11 11 23 21 2 0.35710450D-01 0.35940647D+00 0.46317702D+06 0.46317702D+06 0.46317702D+06 0.10708664D+01  1  2  3  2  7  2        1 -.108270645759D-03 0.100000000000D+01
0.763439079043D-04 0.000000000000D+00 0.000000000000D+00 0.543626873863D-05 0.000000000000D+00  7 -2 1 -24 -11 11 23 21 2 0.35710450D-01 0.35940647D+00 0.46317702D+06 0.46317702D+06 0.46317702D+06 0.10708664D+01  1  2 15  2  7  2        1 0.124976500885D-03 0.100000000000D+01
-.215096974529D-03 0.000000000000D+00 0.000000000000D+00 0.543626873863D-05 0.000000000000D+00  7 -2 1 -24 -11 11 23 21 2 0.35710450D-01 0.35940647D+00 0.46317702D+06 0.46317702D+06 0.46317702D+06 0.10708664D+01  1  2  4  2  7  2        1 -.352118040136D-03 0.100000000000D+01
  </mgrwgt>
  </event>
  <event>
  8     66 0.26562228E-05 0.25047169E+03 0.75467711E-02 0.92036188E-01
       -2 -1    0    0    0  501 0.00000000E+00 0.00000000E+00 0.21136063E+03 0.21136087E+03 0.32000000E+00 0.0000E+00 0.9000E+01
        1 -1    0    0  501    0 0.00000000E+00 0.00000000E+00 -.18202148E+04 0.18202149E+04 0.32000000E+00 0.0000E+00 0.9000E+01
       25  2    1    2    0    0 -.16880067E+03 0.59963413E+02 0.57272371E+02 0.35391836E+03 0.29981462E+03 0.0000E+00 0.0000E+00
       23  2    3    3    0    0 -.79935569E+02 0.11364645E+03 -.55301805E+02 0.17568517E+03 0.92205081E+02 0.0000E+00 0.0000E+00
      -24  1    1    2    0    0 0.16880067E+03 -.59963413E+02 -.16661266E+04 0.16776574E+04 0.80419002E+02 0.0000E+00 0.9000E+01
      -13  1    4    4    0    0 -.49804319E+02 0.10183857E+01 -.11385866E+02 0.51099476E+02 0.10565837E+00 0.0000E+00 0.9000E+01
       13  1    4    4    0    0 -.30131250E+02 0.11262807E+03 -.43915939E+02 0.12458569E+03 0.10565837E+00 0.0000E+00 0.9000E+01
       23  1    3    3    0    0 -.88865106E+02 -.53683039E+02 0.11257418E+03 0.17823320E+03 0.91188000E+02 0.0000E+00 0.9000E+01
#aMCatNLO 1  0  0  1  1 0.50990582D+03 0.00000000D+00  -5  7  0 0.00000000D+00 0.00000000D+00 0.00000000D+00 0.00000000D+00 0.00000000D+00
  <mgrwgt>
 0.1755531196D-02    5    2    0
 0.620259647880453D+03 0.000000000000000D+00 0.000000000000000D+00 0.620259647880453D+03
 0.620259647880453D+03 0.000000000000000D+00 0.000000000000000D+00 -.620259647880453D+03
 0.586635991553949D+03 0.168800674520730D+03 -.599634130257843D+02 -.552797695374863D+03
 0.689180164222477D+02 -.498043449634027D+02 0.101823919074041D+01 0.476254490718358D+02
 0.147076351478956D+03 -.301312237799093D+02 0.112628213279514D+03 0.896573928427029D+02
 0.437888936305752D+03 -.888651057774182D+02 -.536830394444705D+02 0.415514853460325D+03
 0.000000000000000D+00 -.000000000000000D+00 0.000000000000000D+00 0.000000000000000D+00
 0.989772136991481D+03 0.000000000000000D+00 0.000000000000000D+00 0.989772136991481D+03
 0.874277736770034D+03 0.000000000000000D+00 0.000000000000000D+00 -.874277736770034D+03
 0.667961691496227D+03 0.201923280313763D+03 -.305527907412236D+03 -.552797695374863D+03
 0.713616614615187D+02 -.461008242777745D+02 -.264389358364541D+02 0.476254490718358D+02
 0.111481340033031D+03 -.233050478619950D+02 0.620202856197836D+02 0.896573928427029D+02
 0.490423127392818D+03 -.643567594332341D+02 -.235383106035352D+03 0.415514853460325D+03
 0.522822053377921D+03 -.681606487407596D+02 0.505329663664259D+03 0.115494400221447D+03
0.321457956905D-03 0.000000000000D+00 0.000000000000D+00 0.199630886982D-04 0.000000000000D+00  7 -2 1 -24 -13 13 23 21 0 0.32517041D-01 0.28003307D+00 0.62736066D+05 0.62736066D+05 0.62736066D+05 0.11387268D+01  1  2  2  1  7  1       -2 0.133116926289D-02 0.100000000000D+01
-.422936055876D-08 0.000000000000D+00 -.123448319634D-05 0.199630886982D-04 0.000000000000D+00  7 -2 1 -24 -13 13 23 21 2 0.32517041D-01 0.28003307D+00 0.62736066D+05 0.62736066D+05 0.62736066D+05 0.11387268D+01  1  2  3  1  7  1       -2 -.227103010341D-07 0.100000000000D+01
0.199660727697D-04 0.000000000000D+00 0.000000000000D+00 0.199630886982D-04 0.000000000000D+00  7 -2 1 -24 -13 13 23 21 2 0.32517041D-01 0.28003307D+00 0.62736066D+05 0.62736066D+05 0.62736066D+05 0.11387268D+01  1  2 15  1  7  1       -2 0.107211366061D-03 0.100000000000D+01
0.127325536528D-03 0.000000000000D+00 -.968387902439D-04 0.199630886982D-04 0.000000000000D+00  7 -2 1 -24 -13 13 23 21 2 0.75778886D-01 0.28003307D+00 0.62736066D+05 0.62736066D+05 0.62736066D+05 0.11387268D+01  1  2  5  1  7  1       -2 0.130716804380D-03 0.100000000000D+01
0.178614869312D-04 0.000000000000D+00 -.893002567576D-05 0.199630886982D-04 0.000000000000D+00  7 21 1 -24 -13 13 23 2 2 0.75778886D-01 0.28003307D+00 0.62736066D+05 0.62736066D+05 0.62736066D+05 0.11387268D+01  1  2  5  3  7  1       -2 0.186456473311D-03 0.100000000000D+01
  </mgrwgt>
  </event>
  <event>
  8     66 0.26562228E-05 0.17478822E+03 0.75467711E-02 0.10538550E+00
       -2 -1    0    0    0  501 0.00000000E+00 0.00000000E+00 0.53581804E+02 0.53582760E+02 0.32000000E+00 0.0000E+00 0.9000E+01
        1 -1    0    0  501    0 0.00000000E+00 0.00000000E+00 -.17576354E+04 0.17576354E+04 0.32000000E+00 0.0000E+00 0.9000E+01
       25  2    1    2    0    0 -.11178062E+03 -.37079242E+01 -.46879373E+03 0.56830113E+03 0.30114774E+03 0.0000E+00 0.0000E+00
       23  2    3    3    0    0 -.13967005E+03 0.65460377E+02 -.38309092E+03 0.42262239E+03 0.89767716E+02 0.0000E+00 0.0000E+00
      -24  1    1    2    0    0 0.11178062E+03 0.37079242E+01 -.12352599E+04 0.12429171E+04 0.80419002E+02 0.0000E+00 0.9000E+01
      -11  1    4    4    0    0 -.10528085E+03 0.99334827E+01 -.29181950E+03 0.31038903E+03 0.51099893E-03 0.0000E+00 0.9000E+01
       11  1    4    4    0    0 -.34389196E+02 0.55526894E+02 -.91271427E+02 0.11223336E+03 0.51099893E-03 0.0000E+00 0.9000E+01
       23  1    3    3    0    0 0.27889434E+02 -.69168301E+02 -.85702804E+02 0.14567874E+03 0.91188000E+02 0.0000E+00 0.9000E+01
#aMCatNLO 1  0  0  2  1 0.63811142D+00 0.00000000D+00  -5  7  0 0.00000000D+00 0.00000000D+00 0.00000000D+00 0.00000000D+00 0.00000000D+00
  <mgrwgt>
 0.1750358779D-02   10    2    0
 0.306884616095759D+03 0.000000000000000D+00 0.000000000000000D+00 0.306884616095759D+03
 0.306884616095759D+03 0.000000000000000D+00 0.000000000000000D+00 -.306884616095759D+03
 0.238273531170396D+03 0.111780615482910D+03 0.370792420321393D+01 -.194418119017761D+03
 0.105750163763606D+03 -.105280853659288D+03 0.993348265126043D+01 0.604078817851928D+00
 0.777942092981707D+02 -.343891957245847D+02 0.555268943556990D+02 0.422621133044105D+02
 0.191951327959345D+03 0.278894339009628D+02 -.691683012101734D+02 0.151551926895499D+03
 0.000000000000000D+00 -.000000000000000D+00 -.000000000000000D+00 -.000000000000000D+00
 0.307050039840350D+03 0.000000000000000D+00 0.000000000000000D+00 0.307050039840350D+03
 0.307500767940845D+03 0.000000000000000D+00 0.000000000000000D+00 -.307500767940845D+03
 0.238374327283198D+03 0.111990897964811D+03 0.383897433923389D+01 -.194418119017761D+03
 0.105662789743346D+03 -.105187584719165D+03 0.999160878320897D+01 0.604078817851928D+00
 0.777944416778582D+02 -.343205547622837D+02 0.555696720867051D+02 0.422621133044105D+02
 0.191938005196535D+03 0.280587941536524D+02 -.690627542147669D+02 0.151551926895499D+03
 0.781243880258663D+00 -.541552637014799D+00 -.337500994381062D+00 -.450728100494881D+00
0.890927709177D-05 0.000000000000D+00 0.000000000000D+00 0.349907402778D-06 0.000000000000D+00  7 -2 1 -24 -11 11 23 21 0 0.82434302D-02 0.27040552D+00 0.45500501D+05 0.45500501D+05 0.45500501D+05 0.11509152D+01  1  2  2  2  7  2        1 0.375067111839D-03 0.100000000000D+01
-.415341018996D-06 0.000000000000D+00 -.342139698989D-07 0.349907402778D-06 0.000000000000D+00  7 -2 1 -24 -11 11 23 21 2 0.82434302D-02 0.27040552D+00 0.45500501D+05 0.45500501D+05 0.45500501D+05 0.11509152D+01  1  2  3  2  7  2        1 -.231610359231D-04 0.100000000000D+01
0.551386349326D-06 0.000000000000D+00 0.000000000000D+00 0.349907402778D-06 0.000000000000D+00  7 -2 1 -24 -11 11 23 21 2 0.82434302D-02 0.27040552D+00 0.45500501D+05 0.45500501D+05 0.45500501D+05 0.11509152D+01  1  2 15  2  7  2        1 0.307474544054D-04 0.100000000000D+01
-.108210220887D-02 0.000000000000D+00 0.000000000000D+00 0.349907402778D-06 0.000000000000D+00  7 -2 1 -24 -11 11 23 21 2 0.82434302D-02 0.27040552D+00 0.45500501D+05 0.45500501D+05 0.45500501D+05 0.11509152D+01  1  2  4  2  7  2        1 -.603422416421D-01 0.100000000000D+01
-.540745986934D-02 0.000000000000D+00 -.411577276075D-03 0.349907402778D-06 0.000000000000D+00  7 -2 1 -24 -11 11 23 21 2 0.82434302D-02 0.27101329D+00 0.45500501D+05 0.45500501D+05 0.45500501D+05 0.11509152D+01  1  2  5  2  7  2        1 -.299775787191D+00 0.100000000000D+01
0.540837130469D-02 0.000000000000D+00 0.411576238813D-03 0.349907402778D-06 0.000000000000D+00  7 -2 1 -24 -11 11 23 21 2 0.82434302D-02 0.27040552D+00 0.45500501D+05 0.45500501D+05 0.45500501D+05 0.11509152D+01  1  2  6  2  7  2        1 0.301591887977D+00 0.100000000000D+01
0.108210358099D-02 0.000000000000D+00 0.000000000000D+00 0.349907402778D-06 0.606946049855D-05  7 -2 1 -24 -11 11 23 21 2 0.82478738D-02 0.27094843D+00 0.45650704D+05 0.45650704D+05 0.45650704D+05 0.11507881D+01  1  2 11  2  7  2        1 0.599612277699D-01 0.100000000000D+01
0.218707780937D-13 0.000000000000D+00 0.000000000000D+00 0.349907402778D-06 0.000000000000D+00  7 -2 21 -24 -11 11 23 -1 2 0.82434302D-02 0.27102122D+00 0.45650704D+05 0.45650704D+05 0.45650704D+05 0.11507881D+01  1  2 12  4  7  2        1 0.815771504598D-12 0.100000000000D+01
-.226787231847D-05 0.000000000000D+00 -.172673310893D-06 0.349907402778D-06 0.000000000000D+00  7 -2 21 -24 -11 11 23 -1 2 0.82434302D-02 0.27101329D+00 0.45500501D+05 0.45500501D+05 0.45500501D+05 0.11509152D+01  1  2  5  4  7  2        1 -.846393767837D-04 0.100000000000D+01
0.462546558186D-06 0.000000000000D+00 0.000000000000D+00 0.349907402778D-06 0.227725610635D-08  7 -2 21 -24 -11 11 23 -1 2 0.82478738D-02 0.27094843D+00 0.45650704D+05 0.45650704D+05 0.45650704D+05 0.11507881D+01  1  2 11  4  7  2        1 0.172577105896D-04 0.100000000000D+01
  </mgrwgt>
  </event>
  <event>
  8     66 0.26562228E-05 0.14020385E+03 0.75467711E-02 0.10090182E+00
       -2 -1    0    0    0  501 0.00000000E+00 0.00000000E+00 0.45105787E+03 0.45105798E+03 0.32000000E+00 0.0000E+00 0.9000E+01
        1 -1    0    0  501    0 0.00000000E+00 0.00000000E+00 -.20146431E+03 0.20146457E+03 0.32000000E+00 0.0000E+00 0.9000E+01
       25  2    1    2    0    0 -.73781398E+02 -.14567220E+03 0.31035799E+03 0.46062774E+03 0.29864987E+03 0.0000E+00 0.0000E+00
       23  2    3    3    0    0 -.95066014E+02 0.23608046E+01 0.40392863E+02 0.13881533E+03 0.92709176E+02 0.0000E+00 0.0000E+00
      -24  1    1    2    0    0 0.73781398E+02 0.14567220E+03 -.60764437E+02 0.19189481E+03 0.80419002E+02 0.0000E+00 0.9000E+01
      -13  1    4    4    0    0 -.64227532E+02 0.43234449E+02 0.71166732E+01 0.77749930E+02 0.10565837E+00 0.0000E+00 0.9000E+01
       13  1    4    4    0    0 -.30838482E+02 -.40873644E+02 0.33276190E+02 0.61065397E+02 0.10565837E+00 0.0000E+00 0.9000E+01
       23  1    3    3    0    0 0.21284616E+02 -.14803301E+03 0.26996513E+03 0.32181241E+03 0.91188000E+02 0.0000E+00 0.9000E+01
#aMCatNLO 1  0  0  2  1 0.10237847D+03 0.00000000D+00  -5  7  0 0.00000000D+00 0.00000000D+00 0.00000000D+00 0.00000000D+00 0.00000000D+00
  <mgrwgt>
 0.1032540800D-02    9    2    0
 0.301450135730373D+03 0.000000000000000D+00 0.000000000000000D+00 0.301450135730373D+03
 0.301450135730373D+03 0.000000000000000D+00 0.000000000000000D+00 -.301450135730373D+03
 0.232844652507086D+03 0.737813980226497D+02 0.145672204758743D+03 -.145207886539697D+03
 0.812030308034831D+02 -.642275754552185D+02 0.432345568067263D+02 -.244851763428734D+02
 0.523154557760045D+02 -.308384382364053D+02 -.408737514387178D+02 0.107347139466502D+02
 0.236537132374172D+03 0.212846156689741D+02 -.148033010126751D+03 0.158958348935920D+03
 0.000000000000000D+00 0.000000000000000D+00 0.000000000000000D+00 -.000000000000000D+00
 0.333192280970744D+03 0.000000000000000D+00 0.000000000000000D+00 0.333192280970744D+03
 0.401304740846440D+03 0.000000000000000D+00 0.000000000000000D+00 -.401304740846440D+03
 0.209612567178196D+03 0.480982442465749D+02 0.118623104628629D+03 -.145207886539697D+03
 0.845512080628121D+02 -.738490516487075D+02 0.331013669646115D+02 -.244851763428734D+02
 0.617034326323784D+02 -.374568513034415D+02 -.478441616661210D+02 0.107347139466502D+02
 0.255663729973650D+03 -.728598929343872D+01 -.178123129165253D+03 0.158958348935920D+03
 0.122966083970147D+03 0.704936479990129D+02 0.742428192381342D+02 -.681124598756959D+02
0.282477521568D-04 0.000000000000D+00 0.000000000000D+00 0.253659484115D-06 0.000000000000D+00  7 -2 1 -24 -13 13 23 21 0 0.69393547D-01 0.30994538D-01 0.59002558D+05 0.59002558D+05 0.59002558D+05 0.11410242D+01  1  2  2  2  7  2        1 0.912048314552D-03 0.100000000000D+01
-.148034921507D-05 0.000000000000D+00 -.108478806086D-06 0.253659484115D-06 0.000000000000D+00  7 -2 1 -24 -13 13 23 21 2 0.69393547D-01 0.30994538D-01 0.59002558D+05 0.59002558D+05 0.59002558D+05 0.11410242D+01  1  2  3  2  7  2        1 -.622282881996D-04 0.100000000000D+01
0.181956749946D-05 0.000000000000D+00 0.000000000000D+00 0.253659484115D-06 0.000000000000D+00  7 -2 1 -24 -13 13 23 21 2 0.69393547D-01 0.30994538D-01 0.59002558D+05 0.59002558D+05 0.59002558D+05 0.11410242D+01  1  2 15  2  7  2        1 0.764877432989D-04 0.100000000000D+01
0.212284624348D-04 0.000000000000D+00 0.000000000000D+00 0.253659484115D-06 0.000000000000D+00  7 -2 1 -24 -13 13 23 21 2 0.69393547D-01 0.42476676D-01 0.88648701D+05 0.88648701D+05 0.88648701D+05 0.11260416D+01  1  2 12  2  7  2        1 0.574753384505D-03 0.100000000000D+01
-.271728936882D-04 0.000000000000D+00 0.000000000000D+00 0.253659484115D-06 0.000000000000D+00  7 -2 1 -24 -13 13 23 21 2 0.69393547D-01 0.30994538D-01 0.59002558D+05 0.59002558D+05 0.59002558D+05 0.11410242D+01  1  2  4  2  7  2        1 -.114224579068D-02 0.100000000000D+01
-.362982086989D-04 0.000000000000D+00 -.133632959908D-04 0.253659484115D-06 0.000000000000D+00  7 -2 1 -24 -13 13 23 21 2 0.69393547D-01 0.45005430D-01 0.59002558D+05 0.59002558D+05 0.59002558D+05 0.11410242D+01  1  2  5  2  7  2        1 -.942162920143D-03 0.100000000000D+01
0.393892386961D-04 0.000000000000D+00 0.124848126925D-04 0.253659484115D-06 0.000000000000D+00  7 -2 1 -24 -13 13 23 21 2 0.69393547D-01 0.30994538D-01 0.59002558D+05 0.59002558D+05 0.59002558D+05 0.11410242D+01  1  2  6  2  7  2        1 0.165577478111D-02 0.100000000000D+01
0.850275739312D-06 0.000000000000D+00 0.000000000000D+00 0.253659484115D-06 0.000000000000D+00  7 -2 21 -24 -13 13 23 -1 2 0.69393547D-01 0.42476676D-01 0.88648701D+05 0.88648701D+05 0.88648701D+05 0.11260416D+01  1  2 12  4  7  2        1 0.117198268865D-03 0.100000000000D+01
-.122781032220D-05 0.000000000000D+00 -.604442316155D-06 0.253659484115D-06 0.000000000000D+00  7 -2 21 -24 -13 13 23 -1 2 0.69393547D-01 0.45005430D-01 0.59002558D+05 0.59002558D+05 0.59002558D+05 0.11410242D+01  1  2  5  4  7  2        1 -.157084693257D-03 0.100000000000D+01
  </mgrwgt>
  </event>
  <event>
  8     66 0.26562228E-05 0.15113744E+03 0.75467711E-02 0.10139350E+00
       -2 -1    0    0    0  501 0.00000000E+00 0.00000000E+00 0.89140798E+02 0.89141372E+02 0.32000000E+00 0.0000E+00 0.9000E+01
        1 -1    0    0  501    0 0.00000000E+00 0.00000000E+00 -.11546849E+04 0.11546849E+04 0.32000000E+00 0.0000E+00 0.9000E+01
       25  2    1    2    0    0 0.29514299E+02 -.19688282E+03 -.91142029E+03 0.97952477E+03 0.29857643E+03 0.0000E+00 0.0000E+00
       23  2    3    3    0    0 0.75250934E+02 0.18936288E+02 -.32070601E+03 0.34239971E+03 0.91454520E+02 0.0000E+00 0.0000E+00
      -24  1    1    2    0    0 -.29514299E+02 0.19688282E+03 -.15412379E+03 0.26430153E+03 0.80419002E+02 0.0000E+00 0.9000E+01
      -13  1    4    4    0    0 0.33851324E+02 0.55295613E+02 -.17190641E+03 0.18372627E+03 0.10565837E+00 0.0000E+00 0.9000E+01
       13  1    4    4    0    0 0.41399610E+02 -.36359325E+02 -.14879960E+03 0.15867344E+03 0.10565837E+00 0.0000E+00 0.9000E+01
       23  1    3    3    0    0 -.45736634E+02 -.21581911E+03 -.59071428E+03 0.63712506E+03 0.91188000E+02 0.0000E+00 0.9000E+01
#aMCatNLO 1  0  0  1  2 0.13411817D+04 0.00000000D+00  -5  7  0 0.00000000D+00 0.00000000D+00 0.00000000D+00 0.00000000D+00 0.00000000D+00
  <mgrwgt>
 0.4909616711D-05    1    2    0
 0.320826926108148D+03 0.000000000000000D+00 0.000000000000000D+00 0.320826926108148D+03
 0.320826926108148D+03 0.000000000000000D+00 0.000000000000000D+00 -.320826926108148D+03
 0.256399145663233D+03 -.295142993615733D+02 0.196882821360016D+03 0.140140524934725D+03
 0.706762926660969D+02 0.338513135907377D+02 0.552957347831674D+02 -.281355403003910D+02
 0.604837866031035D+02 0.413996200513531D+02 -.363594470510608D+02 -.249469539542300D+02
 0.254094627283864D+03 -.457366342805175D+02 -.215819109092123D+03 -.870580306801043D+02
 0.000000000000000D+00 -.000000000000000D+00 0.000000000000000D+00 0.000000000000000D+00
 0.352287230473932D+03 0.000000000000000D+00 0.000000000000000D+00 0.352287230473932D+03
 0.323363564360102D+03 0.000000000000000D+00 0.000000000000000D+00 -.323363564360102D+03
 0.251113242234330D+03 -.278797594171229D+02 0.190194628622708D+03 0.140140524934725D+03
 0.694627166077627D+02 0.343026578611362D+02 0.534489292146929D+02 -.281355403003910D+02
 0.617312675003076D+02 0.417932368230988D+02 -.379700438694564D+02 -.249469539542300D+02
 0.259582852670586D+03 -.440822384872868D+02 -.222588547775152D+03 -.870580306801043D+02
 0.337607158210479D+02 -.413389677982525D+01 0.169150338072076D+02 0.289236661138302D+02
0.804079518170D-07 0.000000000000D+00 0.000000000000D+00 0.578107685273D-06 0.000000000000D+00  7 -2 1 -24 -13 13 23 21 2 0.13714017D-01 0.17764388D+00 0.82185721D+05 0.82185721D+05 0.82185721D+05 0.11287818D+01  1  2 14  1  7  1       -2 0.490961671142D-05 0.100000000000D+01
  </mgrwgt>
  </event>
  <event>
  8     66 0.26562228E-05 0.20153928E+03 0.75467711E-02 0.10504746E+00
       -2 -1    0    0    0  501 0.00000000E+00 0.00000000E+00 0.37410687E+03 0.37410701E+03 0.32000000E+00 0.0000E+00 0.9000E+01
        1 -1    0    0  501    0 0.00000000E+00 0.00000000E+00 -.41947551E+03 0.41947563E+03 0.32000000E+00 0.0000E+00 0.9000E+01
       25  2    1    2    0    0 0.68675590E+02 -.31144545E+02 0.29994965E+03 0.43109366E+03 0.30030923E+03 0.0000E+00 0.0000E+00
       23  2    3    3    0    0 -.72192091E+02 -.61796365E+02 0.12861892E+03 0.18932371E+03 0.10134176E+03 0.0000E+00 0.0000E+00
      -24  1    1    2    0    0 -.68675590E+02 0.31144545E+02 -.34531829E+03 0.36248897E+03 0.80419002E+02 0.0000E+00 0.9000E+01
      -11  1    4    4    0    0 -.56413601E+02 0.20844468E+01 0.10536496E+03 0.11953499E+03 0.51099893E-03 0.0000E+00 0.9000E+01
       11  1    4    4    0    0 -.15778490E+02 -.63880812E+02 0.23253960E+02 0.69788721E+02 0.51099893E-03 0.0000E+00 0.9000E+01
       23  1    3    3    0    0 0.14086768E+03 0.30651820E+02 0.17133073E+03 0.24176995E+03 0.91188000E+02 0.0000E+00 0.9000E+01
#aMCatNLO 1  0  0  2  1 0.31399643D+02 0.00000000D+00  -5  7  0 0.00000000D+00 0.00000000D+00 0.00000000D+00 0.00000000D+00 0.00000000D+00
  <mgrwgt>
 0.1101802699D-02    4    2    0
 0.396142362555372D+03 0.000000000000000D+00 0.000000000000000D+00 0.396142362555372D+03
 0.396142362555372D+03 0.000000000000000D+00 0.000000000000000D+00 -.396142362555372D+03
 0.343308820982838D+03 -.686755896827620D+02 0.311445450046991D+02 -.325126761907462D+03
 0.125764329773509D+03 -.564136007016865D+02 0.208444671153863D+01 0.112382504782361D+03
 0.712346404228048D+02 -.157784903645656D+02 -.638808119729777D+02 0.272883693110211D+02
 0.251976933931592D+03 0.140867680749014D+03 0.306518202567400D+02 0.185455887814079D+03
 0.000000000000000D+00 0.000000000000000D+00 0.000000000000000D+00 0.000000000000000D+00
 0.500648472455149D+03 0.000000000000000D+00 0.000000000000000D+00 0.500648472455149D+03
 0.398818950186558D+03 0.000000000000000D+00 0.000000000000000D+00 -.398818950186558D+03
 0.344662745577498D+03 -.784236885237322D+02 0.216218871643904D+02 -.325126761907462D+03
 0.127404645391686D+03 -.600008364441698D+02 -.141982823740046D+01 0.112382504782361D+03
 0.735070037944754D+02 -.178293830508564D+02 -.658842743544481D+02 0.272883693110211D+02
 0.247332297867199D+03 0.133792801523818D+03 0.237405593819633D+02 0.185455887814079D+03
 0.106560730010850D+03 0.224611064949405D+02 0.219416560454949D+02 0.101829522268591D+03
0.613612416979D-04 0.000000000000D+00 0.000000000000D+00 0.114226438155D-06 0.000000000000D+00  7 -2 1 -24 -11 11 23 21 0 0.57554923D-01 0.64534713D-01 0.40618082D+05 0.40618082D+05 0.40618082D+05 0.11553194D+01  1  2  2  2  7  2        1 0.112954039196D-02 0.100000000000D+01
-.151606597532D-05 0.000000000000D+00 -.235643324906D-06 0.114226438155D-06 0.000000000000D+00  7 -2 1 -24 -11 11 23 21 2 0.57554923D-01 0.64534713D-01 0.40618082D+05 0.40618082D+05 0.40618082D+05 0.11553194D+01  1  2  3  2  7  2        1 -.372503085695D-04 0.100000000000D+01
0.384126555058D-05 0.000000000000D+00 0.000000000000D+00 0.114226438155D-06 0.000000000000D+00  7 -2 1 -24 -11 11 23 21 2 0.57554923D-01 0.64534713D-01 0.40618082D+05 0.40618082D+05 0.40618082D+05 0.11553194D+01  1  2 15  2  7  2        1 0.943813325976D-04 0.100000000000D+01
-.345410760610D-05 0.000000000000D+00 0.000000000000D+00 0.114226438155D-06 0.000000000000D+00  7 -2 1 -24 -11 11 23 21 2 0.57554923D-01 0.64534713D-01 0.40618082D+05 0.40618082D+05 0.40618082D+05 0.11553194D+01  1  2  4  2  7  2        1 -.848687169648D-04 0.100000000000D+01
  </mgrwgt>
  </event>
  <event>
  8     66 0.26562228E-05 0.18015810E+03 0.75467711E-02 0.88497849E-01
       -2 -1    0    0    0  501 0.00000000E+00 0.00000000E+00 0.61443161E+03 0.61443169E+03 0.32000000E+00 0.0000E+00 0.9000E+01
        1 -1    0    0  501    0 0.00000000E+00 0.00000000E+00 -.28153522E+03 0.28153540E+03 0.32000000E+00 0.0000E+00 0.9000E+01
       25  2    1    2    0    0 0.67370659E+02 0.48402018E+02 -.18717045E+03 0.36322110E+03 0.30002538E+03 0.0000E+00 0.0000E+00
       23  2    3    3    0    0 0.88261350E+02 0.10364468E+03 -.19470864E+03 0.25431634E+03 0.90736197E+02 0.0000E+00 0.0000E+00
      -24  1    1    2    0    0 -.67370659E+02 -.48402018E+02 0.52006684E+03 0.53274599E+03 0.80419002E+02 0.0000E+00 0.9000E+01
      -13  1    4    4    0    0 0.47515052E+02 0.56416107E+02 -.17334129E+03 0.18838172E+03 0.10565837E+00 0.0000E+00 0.9000E+01
       13  1    4    4    0    0 0.40746298E+02 0.47228575E+02 -.21367352E+02 0.65934619E+02 0.10565837E+00 0.0000E+00 0.9000E+01
       23  1    3    3    0    0 -.20890691E+02 -.55242664E+02 0.75381911E+01 0.10890477E+03 0.91188000E+02 0.0000E+00 0.9000E+01
#aMCatNLO 1  0  0  1  2 0.84587692D+03 0.00000000D+00  -5  7  0 0.00000000D+00 0.00000000D+00 0.00000000D+00 0.00000000D+00 0.00000000D+00
  <mgrwgt>
 0.1370641589D-02    3    2    0
 0.415913762603053D+03 0.000000000000000D+00 0.000000000000000D+00 0.415913762603053D+03
 0.415913762603053D+03 0.000000000000000D+00 0.000000000000000D+00 -.415913762603053D+03
 0.365694208199599D+03 -.673706594114496D+02 -.484020179002126D+02 0.346963221206535D+03
 0.272278469449215D+03 0.475150615601716D+02 0.564161193368584D+02 -.262097511108956D+03
 0.795695548041273D+02 0.407462887448566D+02 0.472285622157459D+02 -.494015881959397D+02
 0.114285292753165D+03 -.208906908935787D+02 -.552426636523917D+02 -.354641219016393D+02
 0.000000000000000D+00 0.000000000000000D+00 -.000000000000000D+00 -.000000000000000D+00
 0.628134374014512D+03 0.000000000000000D+00 0.000000000000000D+00 0.628134374014512D+03
 0.571045751970224D+04 0.000000000000000D+00 0.000000000000000D+00 -.571045751970224D+04
 0.479249518421422D+03 -.101896854990473D+03 0.304050060065493D+03 0.346963221206535D+03
 0.440710349712020D+03 0.183808238110354D+02 0.353825737234884D+03 -.262097511108956D+03
 0.157240481922411D+03 0.310697275899580D+02 0.146009329381367D+03 -.494015881959397D+02
 0.109157434272980D+03 -.300210353780172D+02 0.379621865234018D+02 -.354641219016393D+02
 0.515223410938791D+04 0.824673389674972D+02 -.841847313205146D+03 -.508232314568773D+04
0.119889983411D-03 0.000000000000D+00 0.000000000000D+00 0.111226625012D-04 0.000000000000D+00  7 -2 1 -24 -13 13 23 21 0 0.94527960D-01 0.43313131D-01 0.32456941D+05 0.32456941D+05 0.32456941D+05 0.11641773D+01  1  2  2  1  7  1       -2 0.128030800163D-02 0.100000000000D+01
-.991999074741D-06 0.000000000000D+00 -.460409104054D-06 0.111226625012D-04 0.000000000000D+00  7 -2 1 -24 -13 13 23 21 2 0.94527960D-01 0.43313131D-01 0.32456941D+05 0.32456941D+05 0.32456941D+05 0.11641773D+01  1  2  3  1  7  1       -2 -.143575741582D-04 0.100000000000D+01
0.723336228756D-05 0.000000000000D+00 0.000000000000D+00 0.111226625012D-04 0.000000000000D+00  7 -2 1 -24 -13 13 23 21 2 0.94527960D-01 0.43313131D-01 0.32456941D+05 0.32456941D+05 0.32456941D+05 0.11641773D+01  1  2 15  1  7  1       -2 0.104691161616D-03 0.100000000000D+01
  </mgrwgt>
  </event>
  <event>
  8     66 0.26562228E-05 0.12758100E+03 0.75467711E-02 0.10131627E+00
       -2 -1    0    0    0  501 0.00000000E+00 0.00000000E+00 0.52765812E+02 0.52766783E+02 0.32000000E+00 0.0000E+00 0.9000E+01
        1 -1    0    0  501    0 0.00000000E+00 0.00000000E+00 -.20078912E+04 0.20078913E+04 0.32000000E+00 0.0000E+00 0.9000E+01
       25  2    1    2    0    0 0.74957821E+02 -.97832635E+02 -.49377620E+03 0.59191754E+03 0.30226071E+03 0.0000E+00 0.0000E+00
       23  2    3    3    0    0 0.72240311E+00 0.74130593E+02 -.18978463E+03 0.22339566E+03 0.91605398E+02 0.0000E+00 0.0000E+00
      -24  1    1    2    0    0 -.74957821E+02 0.97832635E+02 -.14613492E+04 0.14687405E+04 0.80419002E+02 0.0000E+00 0.9000E+01
      -11  1    4    4    0    0 0.19525817E+02 0.28170890E+02 -.83366963E+01 0.35275446E+02 0.51099893E-03 0.0000E+00 0.9000E+01
       11  1    4    4    0    0 -.18803414E+02 0.45959703E+02 -.18144793E+03 0.18812021E+03 0.51099893E-03 0.0000E+00 0.9000E+01
       23  1    3    3    0    0 0.74235418E+02 -.17196323E+03 -.30399157E+03 0.36852188E+03 0.91188000E+02 0.0000E+00 0.9000E+01
#aMCatNLO 1  0  0  2  1 0.11493096D+03 0.00000000D+00  -5  7  0 0.00000000D+00 0.00000000D+00 0.00000000D+00 0.00000000D+00 0.00000000D+00
  <mgrwgt>
 0.1104872194D-02    9    2    0
 0.325498137798889D+03 0.000000000000000D+00 0.000000000000000D+00 0.325498137798889D+03
 0.325498137798889D+03 0.000000000000000D+00 0.000000000000000D+00 -.325498137798889D+03
 0.260294751787621D+03 -.749578208239382D+02 0.978326346231081D+02 -.214700355271798D+03
 0.866231459604194D+02 0.195258174235143D+02 0.281708904376176D+02 0.795532073644768D+02
 0.505347992236618D+02 -.188034142983606D+02 0.459597028871297D+02 -.937567351323500D+01
 0.253543578626076D+03 0.742354176987846D+02 -.171963227947855D+03 0.144522821420557D+03
 0.000000000000000D+00 -.000000000000000D+00 -.000000000000000D+00 -.000000000000000D+00
 0.355662072000344D+03 0.000000000000000D+00 0.000000000000000D+00 0.355662072000344D+03
 0.461938773707578D+03 0.000000000000000D+00 0.000000000000000D+00 -.461938773707578D+03
 0.269490704665238D+03 -.458825006985107D+02 0.134002154917041D+03 -.214700355271798D+03
 0.939988349197591D+02 0.294385884364108D+02 0.405023169111138D+02 0.795532073644768D+02
 0.555604820501098D+02 -.129807662259014D+02 0.532030414544347D+02 -.937567351323500D+01
 0.242013724869923D+03 0.101432251934497D+03 -.138130532604320D+03 0.144522821420557D+03
 0.156537099202892D+03 -.720075734464960D+02 -.895769806782696D+02 -.106276701707235D+03
0.339394174225D-04 0.000000000000D+00 0.000000000000D+00 0.266759437434D-06 0.000000000000D+00  7 -2 1 -24 -11 11 23 21 0 0.81178939D-02 0.30890642D+00 0.48272016D+05 0.48272016D+05 0.48272016D+05 0.11486414D+01  1  2  2  2  7  2        1 0.100620059187D-02 0.100000000000D+01
-.153134988561D-05 0.000000000000D+00 -.130336299356D-06 0.266759437434D-06 0.000000000000D+00  7 -2 1 -24 -11 11 23 21 2 0.81178939D-02 0.30890642D+00 0.48272016D+05 0.48272016D+05 0.48272016D+05 0.11486414D+01  1  2  3  2  7  2        1 -.598995439291D-04 0.100000000000D+01
0.212467052739D-05 0.000000000000D+00 0.000000000000D+00 0.266759437434D-06 0.000000000000D+00  7 -2 1 -24 -11 11 23 21 2 0.81178939D-02 0.30890642D+00 0.48272016D+05 0.48272016D+05 0.48272016D+05 0.11486414D+01  1  2 15  2  7  2        1 0.831075881392D-04 0.100000000000D+01
0.170126928792D-04 0.000000000000D+00 0.000000000000D+00 0.266759437434D-06 0.000000000000D+00  7 -2 1 -24 -11 11 23 21 2 0.81178939D-02 0.44802301D+00 0.83164668D+05 0.83164668D+05 0.83164668D+05 0.11283518D+01  1  2 12  2  7  2        1 0.153274288064D-03 0.100000000000D+01
-.296871977019D-04 0.000000000000D+00 0.000000000000D+00 0.266759437434D-06 0.000000000000D+00  7 -2 1 -24 -11 11 23 21 2 0.81178939D-02 0.30890642D+00 0.48272016D+05 0.48272016D+05 0.48272016D+05 0.11486414D+01  1  2  4  2  7  2        1 -.116123011442D-02 0.100000000000D+01
-.331937888778D-04 0.000000000000D+00 -.113937415608D-04 0.266759437434D-06 0.000000000000D+00  7 -2 1 -24 -11 11 23 21 2 0.81178939D-02 0.44976690D+00 0.48272016D+05 0.48272016D+05 0.48272016D+05 0.11486414D+01  1  2  5  2  7  2        1 -.311368151787D-03 0.100000000000D+01
0.356855178235D-04 0.000000000000D+00 0.106343841161D-04 0.266759437434D-06 0.000000000000D+00  7 -2 1 -24 -11 11 23 21 2 0.81178939D-02 0.30890642D+00 0.48272016D+05 0.48272016D+05 0.48272016D+05 0.11486414D+01  1  2  6  2  7  2        1 0.139585751277D-02 0.100000000000D+01
0.767764084773D-06 0.000000000000D+00 0.000000000000D+00 0.266759437434D-06 0.000000000000D+00  7 -2 21 -24 -11 11 23 -1 2 0.81178939D-02 0.44802301D+00 0.83164668D+05 0.83164668D+05 0.83164668D+05 0.11283518D+01  1  2 12  4  7  2        1 0.178205993519D-05 0.100000000000D+01
-.115271919140D-05 0.000000000000D+00 -.518081111455D-06 0.266759437434D-06 0.000000000000D+00  7 -2 21 -24 -11 11 23 -1 2 0.81178939D-02 0.44976690D+00 0.48272016D+05 0.48272016D+05 0.48272016D+05 0.11486414D+01  1  2  5  4  7  2        1 -.285203639848D-05 0.100000000000D+01
  </mgrwgt>
  </event>
  <event>
  7     66 0.26562228E-05 0.14953464E+03 0.75467711E-02 0.10271136E+00
       -2 -1    0    0    0  501 0.00000000E+00 0.00000000E+00 0.31011619E+03 0.31011636E+03 0.32000000E+00 0.0000E+00 0.9000E+01
        1 -1    0    0  501    0 0.00000000E+00 0.00000000E+00 -.17884426E+03 0.17884454E+03 0.32000000E+00 0.0000E+00 0.9000E+01
       23  2    1    2    0    0 0.90951739E+02 -.14392919E+03 0.65979147E+02 0.20410367E+03 0.91198854E+02 0.0000E+00 0.0000E+00
      -24  1    1    2    0    0 -.11401919E+03 0.88730847E+02 0.59192864E+02 0.17562617E+03 0.80419002E+02 0.0000E+00 0.9000E+01
      -11  1    3    3    0    0 0.14841771E+02 -.10788828E+03 0.35460290E+02 0.11453205E+03 0.51099893E-03 0.0000E+00 0.9000E+01
       11  1    3    3    0    0 0.76109968E+02 -.36040909E+02 0.30518857E+02 0.89571620E+02 0.51099893E-03 0.0000E+00 0.9000E+01
       23  1    1    2    0    0 0.23067452E+02 0.55198340E+02 0.60999236E+01 0.10923106E+03 0.91188000E+02 0.0000E+00 0.9000E+01
#aMCatNLO 1  0  0  1  2 0.48992680D+02 0.00000000D+00  -5  7  0 0.00000000D+00 0.00000000D+00 0.00000000D+00 0.00000000D+00 0.00000000D+00
  <mgrwgt>
 0.7464042287D-02    9    2    0
 0.235505009600686D+03 0.000000000000000D+00 0.000000000000000D+00 0.235505009600686D+03
 0.235505009600686D+03 0.000000000000000D+00 0.000000000000000D+00 -.235505009600686D+03
 0.165822302816431D+03 -.114019191218625D+03 0.887308468568902D+02 0.125012402138007D+02
 0.109014143211296D+03 0.148417709648732D+02 -.107888277598716D+03 0.489129957185370D+01
 0.844796256571051D+02 0.761099682852760D+02 -.360409092527567D+02 0.671809042909072D+01
 0.111693947516540D+03 0.230674519684762D+02 0.551983399945824D+02 -.241106302147451D+02
 0.000000000000000D+00 0.000000000000000D+00 0.000000000000000D+00 0.000000000000000D+00
 0.278256983236414D+03 0.000000000000000D+00 0.000000000000000D+00 0.278256983236414D+03
 0.251241610621302D+03 0.000000000000000D+00 0.000000000000000D+00 -.251241610621302D+03
 0.176037210082010D+03 -.131240531816870D+03 0.845075451106542D+02 0.125012402138007D+02
 0.110775807341728D+03 0.376974442843632D+01 -.110603542925416D+03 0.489129957185370D+01
 0.781394596363254D+02 0.679179521208901D+02 -.380498908401582D+02 0.671809042909072D+01
 0.108598703760069D+03 0.119701016365818D+02 0.524768643482521D+02 -.241106302147451D+02
 0.559474130375834D+02 0.475827336309615D+02 0.116690243066678D+02 0.270153726151115D+02
0.625095386212D-04 0.000000000000D+00 0.000000000000D+00 0.308044403647D-09 0.000000000000D+00  7 -2 1 -24 -11 11 23 21 0 0.47710218D-01 0.27514536D-01 0.54645477D+05 0.54645477D+05 0.54645477D+05 0.11439169D+01  1  2  2  1  7  1       -2 0.501609670057D-02 0.100000000000D+01
-.347251959479D-05 0.000000000000D+00 -.240053087445D-06 0.308044403647D-09 0.000000000000D+00  7 -2 1 -24 -11 11 23 21 2 0.47710218D-01 0.27514536D-01 0.54645477D+05 0.54645477D+05 0.54645477D+05 0.11439169D+01  1  2  3  1  7  1       -2 -.364630744389D-03 0.100000000000D+01
0.409460708606D-05 0.000000000000D+00 0.000000000000D+00 0.308044403647D-09 0.000000000000D+00  7 -2 1 -24 -11 11 23 21 2 0.47710218D-01 0.27514536D-01 0.54645477D+05 0.54645477D+05 0.54645477D+05 0.11439169D+01  1  2 15  1  7  1       -2 0.429952830795D-03 0.100000000000D+01
0.779031726782D-04 0.000000000000D+00 0.000000000000D+00 0.308044403647D-09 0.000000000000D+00  7 -2 1 -24 -11 11 23 21 2 0.57749629D-01 0.27514536D-01 0.67338109D+05 0.67338109D+05 0.67338109D+05 0.11360937D+01  1  2 12  1  7  1       -2 0.553472367618D-02 0.100000000000D+01
-.777246059654D-04 0.000000000000D+00 0.000000000000D+00 0.308044403647D-09 0.000000000000D+00  7 -2 1 -24 -11 11 23 21 2 0.47710218D-01 0.27514536D-01 0.54645477D+05 0.54645477D+05 0.54645477D+05 0.11439169D+01  1  2  4  1  7  1       -2 -.816144593481D-02 0.100000000000D+01
-.162000864184D-03 0.000000000000D+00 -.396899655966D-04 0.308044403647D-09 0.000000000000D+00  7 -2 1 -24 -11 11 23 21 2 0.59485068D-01 0.27514536D-01 0.54645477D+05 0.54645477D+05 0.54645477D+05 0.11439169D+01  1  2  5  1  7  1       -2 -.109967116286D-01 0.100000000000D+01
0.167607959673D-03 0.000000000000D+00 0.387435947962D-04 0.308044403647D-09 0.000000000000D+00  7 -2 1 -24 -11 11 23 21 2 0.47710218D-01 0.27514536D-01 0.54645477D+05 0.54645477D+05 0.54645477D+05 0.11439169D+01  1  2  6  1  7  1       -2 0.175996170598D-01 0.100000000000D+01
0.215140585496D-05 0.000000000000D+00 0.000000000000D+00 0.308044403647D-09 0.000000000000D+00  7 21 1 -24 -11 11 23 2 2 0.57749629D-01 0.27514536D-01 0.67338109D+05 0.67338109D+05 0.67338109D+05 0.11360937D+01  1  2 12  3  7  1       -2 0.162417010079D-02 0.100000000000D+01
-.445410907994D-05 0.000000000000D+00 -.122357489107D-05 0.308044403647D-09 0.000000000000D+00  7 21 1 -24 -11 11 23 2 2 0.59485068D-01 0.27514536D-01 0.54645477D+05 0.54645477D+05 0.54645477D+05 0.11439169D+01  1  2  5  3  7  1       -2 -.321772977348D-02 0.100000000000D+01
  </mgrwgt>
  </event>
  <event>
  8     66 0.26562228E-05 0.46562943E+03 0.75467711E-02 0.89137924E-01
       -2 -1    0    0    0  501 0.00000000E+00 0.00000000E+00 0.15663054E+04 0.15663054E+04 0.32000000E+00 0.0000E+00 0.9000E+01
        1 -1    0    0  501    0 0.00000000E+00 0.00000000E+00 -.42746562E+03 0.42746574E+03 0.32000000E+00 0.0000E+00 0.9000E+01
       25  2    1    2    0    0 -.72131867E+03 0.29035870E+03 0.74769052E+03 0.11196581E+04 0.29997375E+03 0.0000E+00 0.0000E+00
       23  2    3    3    0    0 -.16979233E+03 0.16914036E+03 0.17085815E+03 0.30729975E+03 0.88333068E+02 0.0000E+00 0.0000E+00
      -24  1    1    2    0    0 0.72131867E+03 -.29035870E+03 0.39114928E+03 0.87411313E+03 0.80419002E+02 0.0000E+00 0.9000E+01
      -13  1    4    4    0    0 -.13196916E+03 0.17201977E+03 0.15309240E+03 0.26541280E+03 0.10565837E+00 0.0000E+00 0.9000E+01
       13  1    4    4    0    0 -.37823171E+02 -.28794126E+01 0.17765747E+02 0.41886945E+02 0.10565837E+00 0.0000E+00 0.9000E+01
       23  1    3    3    0    0 -.55152633E+03 0.12121834E+03 0.57683236E+03 0.81235830E+03 0.91188000E+02 0.0000E+00 0.9000E+01
#aMCatNLO 1  0  0  2  1 0.62531468D+02 0.00000000D+00  -5  7  0 0.00000000D+00 0.00000000D+00 0.00000000D+00 0.00000000D+00 0.00000000D+00
  <mgrwgt>
 0.1288107721D-02    9    2    0
 0.818255378266549D+03 0.000000000000000D+00 0.000000000000000D+00 0.818255378266549D+03
 0.818255378266549D+03 0.000000000000000D+00 0.000000000000000D+00 -.818255378266549D+03
 0.792738578959847D+03 0.721318668370305D+03 -.290358697574032D+03 -.131751447887717D+03
 0.216818063679287D+03 -.131969298388754D+03 0.172020017813142D+03 0.181397132875675D+01
 0.386677735974691D+02 -.378230358107902D+02 -.287966280182224D+01 -.750481306819872D+01
 0.588286340296495D+03 -.551526334170760D+03 0.121218342562712D+03 0.137442289627159D+03
 0.000000000000000D+00 0.000000000000000D+00 -.000000000000000D+00 -.000000000000000D+00
 0.827451373832918D+03 0.000000000000000D+00 0.000000000000000D+00 0.827451373832918D+03
 0.932535483981475D+03 0.000000000000000D+00 0.000000000000000D+00 -.932535483981475D+03
 0.763706027308189D+03 0.692926819001527D+03 -.281555784313519D+03 -.131751447887717D+03
 0.223739198111797D+03 -.140005713796486D+03 0.174511714174335D+03 0.181397132875675D+01
 0.400438054320606D+02 -.392588513138831D+02 -.243448717526632D+01 -.750481306819872D+01
 0.610215961127541D+03 -.573388787015616D+03 0.127996811747849D+03 0.137442289627159D+03
 0.122281865834804D+03 0.597265331244573D+02 -.185182544333987D+02 -.105084110148557D+03
0.239196092083D-02 0.000000000000D+00 0.000000000000D+00 0.626753163027D-05 0.000000000000D+00  7 -2 1 -24 -13 13 23 21 0 0.24097007D+00 0.65763953D-01 0.64678759D+06 0.64678759D+06 0.64678759D+06 0.10606981D+01  1  2  2  2  7  2        1 0.935294724284D-03 0.100000000000D+01
-.132838429024D-03 0.000000000000D+00 -.918575975376D-05 0.626753163027D-05 0.000000000000D+00  7 -2 1 -24 -13 13 23 21 2 0.24097007D+00 0.65763953D-01 0.64678759D+06 0.64678759D+06 0.64678759D+06 0.10606981D+01  1  2  3  2  7  2        1 -.584388601354D-04 0.100000000000D+01
0.153336377304D-03 0.000000000000D+00 0.000000000000D+00 0.626753163027D-05 0.000000000000D+00  7 -2 1 -24 -13 13 23 21 2 0.24097007D+00 0.65763953D-01 0.64678759D+06 0.64678759D+06 0.64678759D+06 0.10606981D+01  1  2 15  2  7  2        1 0.674564068001D-04 0.100000000000D+01
0.164602772975D-01 0.000000000000D+00 0.000000000000D+00 0.626753163027D-05 0.000000000000D+00  7 -2 1 -24 -13 13 23 21 2 0.24097007D+00 0.75285860D-01 0.69922142D+06 0.69922142D+06 0.69922142D+06 0.10583668D+01  1  2 12  2  7  2        1 0.594259878880D-02 0.100000000000D+01
-.166840807475D-01 0.000000000000D+00 0.000000000000D+00 0.626753163027D-05 0.000000000000D+00  7 -2 1 -24 -13 13 23 21 2 0.24097007D+00 0.65763953D-01 0.64678759D+06 0.64678759D+06 0.64678759D+06 0.10606981D+01  1  2  4  2  7  2        1 -.733973345251D-02 0.100000000000D+01
-.239856735357D-01 0.000000000000D+00 -.249859884927D-02 0.626753163027D-05 0.000000000000D+00  7 -2 1 -24 -13 13 23 21 2 0.24097007D+00 0.75433986D-01 0.64678759D+06 0.64678759D+06 0.64678759D+06 0.10606981D+01  1  2  5  2  7  2        1 -.871331848596D-02 0.100000000000D+01
0.241244082167D-01 0.000000000000D+00 0.247526998872D-02 0.626753163027D-05 0.000000000000D+00  7 -2 1 -24 -13 13 23 21 2 0.24097007D+00 0.65763953D-01 0.64678759D+06 0.64678759D+06 0.64678759D+06 0.10606981D+01  1  2  6  2  7  2        1 0.106129147114D-01 0.100000000000D+01
0.344965304711D-03 0.000000000000D+00 0.000000000000D+00 0.626753163027D-05 0.000000000000D+00  7 -2 21 -24 -13 13 23 -1 2 0.24097007D+00 0.75285860D-01 0.69922142D+06 0.69922142D+06 0.69922142D+06 0.10583668D+01  1  2 12  4  7  2        1 0.359452716930D-03 0.100000000000D+01
-.493928332834D-03 0.000000000000D+00 -.529901933953D-04 0.626753163027D-05 0.000000000000D+00  7 -2 21 -24 -13 13 23 -1 2 0.24097007D+00 0.75433986D-01 0.64678759D+06 0.64678759D+06 0.64678759D+06 0.10606981D+01  1  2  5  4  7  2        1 -.518118828415D-03 0.100000000000D+01
  </mgrwgt>
  </event>
  <event>
  8     66 0.26562228E-05 0.10900416E+03 0.75467711E-02 0.10372488E+00
       -2 -1    0    0    0  501 0.00000000E+00 0.00000000E+00 0.91969680E+02 0.91970236E+02 0.32000000E+00 0.0000E+00 0.9000E+01
        1 -1    0    0  501    0 0.00000000E+00 0.00000000E+00 -.16278885E+04 0.16278886E+04 0.32000000E+00 0.0000E+00 0.9000E+01
       25  2    1    2    0    0 0.13399397E+03 0.87330009E+01 -.21800020E+03 0.39267854E+03 0.29772756E+03 0.0000E+00 0.0000E+00
       23  2    3    3    0    0 -.51771067E+02 -.17004430E+02 -.27467674E+02 0.11020915E+03 0.91772486E+02 0.0000E+00 0.0000E+00
      -24  1    1    2    0    0 -.13399397E+03 -.87330009E+01 -.13179187E+04 0.13271803E+04 0.80419002E+02 0.0000E+00 0.9000E+01
      -13  1    4    4    0    0 -.64983895E+02 0.59009501E+01 -.44295166E+02 0.78865713E+02 0.10565837E+00 0.0000E+00 0.9000E+01
       13  1    4    4    0    0 0.13212829E+02 -.22905380E+02 0.16827491E+02 0.31343435E+02 0.10565837E+00 0.0000E+00 0.9000E+01
       23  1    3    3    0    0 0.18576503E+03 0.25737430E+02 -.19053253E+03 0.28246939E+03 0.91188000E+02 0.0000E+00 0.9000E+01
#aMCatNLO 1  0  0  2  1 0.28260621D+02 0.00000000D+00  -5  7  0 0.00000000D+00 0.00000000D+00 0.00000000D+00 0.00000000D+00 0.00000000D+00
  <mgrwgt>
 0.1431495329D-02    6    2    0
 0.386932673765724D+03 0.000000000000000D+00 0.000000000000000D+00 0.386932673765724D+03
 0.386932673765724D+03 0.000000000000000D+00 0.000000000000000D+00 -.386932673765724D+03
 0.333839144551220D+03 -.133993968460307D+03 -.873300088149021D+01 -.294874057170484D+03
 0.873589903994867D+02 -.649839988493461D+02 0.590098826530379D+01 0.580848640754073D+02
 0.103056637072069D+03 0.132129323977245D+02 -.229054178291644D+02 0.996063787923685D+02
 0.249610575508672D+03 0.185765034911929D+03 0.257374304453509D+02 0.137182814302708D+03
 0.000000000000000D+00 -.000000000000000D+00 -.000000000000000D+00 0.000000000000000D+00
 0.404941766835506D+03 0.000000000000000D+00 0.000000000000000D+00 0.404941766835506D+03
 0.398438628723201D+03 0.000000000000000D+00 0.000000000000000D+00 -.398438628723201D+03
 0.330577667300934D+03 -.125950587127817D+03 0.343764065557949D+00 -.294874057170484D+03
 0.860045989340655D+02 -.628852719157337D+02 0.826935180260000D+01 0.580848640754073D+02
 0.102819307742623D+03 0.157052515290167D+02 -.200928948375725D+02 0.996063787923685D+02
 0.254979623367517D+03 0.191873566956572D+03 0.326307638891810D+02 0.137182814302708D+03
 0.289991982135679D+02 -.187429594420380D+02 -.211509849197665D+02 0.650313811230589D+01
0.389184905299D-04 0.000000000000D+00 0.000000000000D+00 0.419328997517D-06 0.000000000000D+00  7 -2 1 -24 -13 13 23 21 0 0.14149227D-01 0.25044444D+00 0.52154268D+05 0.52154268D+05 0.52154268D+05 0.11456875D+01  1  2  2  2  7  2        1 0.862503467270D-03 0.100000000000D+01
-.143128339370D-05 0.000000000000D+00 -.149457251109D-06 0.419328997517D-06 0.000000000000D+00  7 -2 1 -24 -13 13 23 21 2 0.14149227D-01 0.25044444D+00 0.52154268D+05 0.52154268D+05 0.52154268D+05 0.11456875D+01  1  2  3  2  7  2        1 -.416354070323D-04 0.100000000000D+01
0.244750834718D-05 0.000000000000D+00 0.000000000000D+00 0.419328997517D-06 0.000000000000D+00  7 -2 1 -24 -13 13 23 21 2 0.14149227D-01 0.25044444D+00 0.52154268D+05 0.52154268D+05 0.52154268D+05 0.11456875D+01  1  2 15  2  7  2        1 0.711969458306D-04 0.100000000000D+01
0.730971112779D-04 0.000000000000D+00 0.000000000000D+00 0.419328997517D-06 0.000000000000D+00  7 -2 1 -24 -13 13 23 21 2 0.14149227D-01 0.26350566D+00 0.57974134D+05 0.57974134D+05 0.57974134D+05 0.11416853D+01  1  2 12  2  7  2        1 0.185479876892D-02 0.100000000000D+01
-.456672058228D-04 0.000000000000D+00 0.000000000000D+00 0.419328997517D-06 0.000000000000D+00  7 -2 1 -24 -13 13 23 21 2 0.14149227D-01 0.25044444D+00 0.52154268D+05 0.52154268D+05 0.52154268D+05 0.11456875D+01  1  2  4  2  7  2        1 -.132843901552D-02 0.100000000000D+01
0.743743030114D-06 0.000000000000D+00 0.000000000000D+00 0.419328997517D-06 0.000000000000D+00  7 -2 21 -24 -13 13 23 -1 2 0.14149227D-01 0.26350566D+00 0.57974134D+05 0.57974134D+05 0.57974134D+05 0.11416853D+01  1  2 12  4  7  2        1 0.130705696836D-04 0.100000000000D+01
  </mgrwgt>
  </event>
  <event>
  8     66 0.26562228E-05 0.10924808E+03 0.75467711E-02 0.94880463E-01
       -2 -1    0    0    0  501 0.00000000E+00 0.00000000E+00 0.12396748E+03 0.12396789E+03 0.32000000E+00 0.0000E+00 0.9000E+01
        1 -1    0    0  501    0 0.00000000E+00 0.00000000E+00 -.30287396E+04 0.30287396E+04 0.32000000E+00 0.0000E+00 0.9000E+01
       25  2    1    2    0    0 -.24895176E+03 -.23521238E+03 -.35126665E+03 0.57508084E+03 0.30004644E+03 0.0000E+00 0.0000E+00
       23  2    3    3    0    0 -.39507445E+02 -.20224797E+03 -.17168056E+03 0.28264283E+03 0.89149727E+02 0.0000E+00 0.0000E+00
      -24  1    1    2    0    0 0.24895176E+03 0.23521238E+03 -.25535054E+04 0.25776266E+04 0.80419002E+02 0.0000E+00 0.9000E+01
      -13  1    4    4    0    0 -.95034967E+01 0.56127101E+01 0.52910142E+00 0.11050343E+02 0.10565837E+00 0.0000E+00 0.9000E+01
       13  1    4    4    0    0 -.30003948E+02 -.20786068E+03 -.17220967E+03 0.27159249E+03 0.10565837E+00 0.0000E+00 0.9000E+01
       23  1    3    3    0    0 -.20944432E+03 -.32964410E+02 -.17958609E+03 0.29243801E+03 0.91188000E+02 0.0000E+00 0.9000E+01
#aMCatNLO 1  0  0  2  1 0.16947492D+03 0.00000000D+00  -5  7  0 0.00000000D+00 0.00000000D+00 0.00000000D+00 0.00000000D+00 0.00000000D+00
  <mgrwgt>
 0.2003202420D-02    9    2    0
 0.612752709490151D+03 0.000000000000000D+00 0.000000000000000D+00 0.612752709490151D+03
 0.612752709490151D+03 0.000000000000000D+00 0.000000000000000D+00 -.612752709490151D+03
 0.578660387684340D+03 0.248951761448944D+03 0.235212378963146D+03 -.459433113276117D+03
 0.296816056196634D+02 -.950346792644788D+01 0.561300990943926D+01 0.275531473572212D+02
 0.290510573823867D+03 -.300039765675750D+02 -.207860978929299D+03 0.200723611795319D+03
 0.326652851852432D+03 -.209444316954921D+03 -.329644099432859D+02 0.231156354123577D+03
 0.000000000000000D+00 -.000000000000000D+00 0.000000000000000D+00 -.000000000000000D+00
 0.660162740185379D+03 0.000000000000000D+00 0.000000000000000D+00 0.660162740185379D+03
 0.791279571450238D+03 0.000000000000000D+00 0.000000000000000D+00 -.791279571450238D+03
 0.551817661554590D+03 0.249352527548318D+03 0.157416794148162D+03 -.459433113276117D+03
 0.291810960783627D+02 -.948260049308725D+01 0.156228260387963D+01 0.275531473572212D+02
 0.321998592312436D+03 -.297868357663815D+02 -.250011738792520D+03 0.200723611795319D+03
 0.334170901153832D+03 -.209210048135598D+03 -.784400123748105D+02 0.231156354123577D+03
 0.214274060536397D+03 -.873043153251803D+00 0.169472674415289D+03 -.131116831264859D+03
0.102927076978D-02 0.000000000000D+00 0.000000000000D+00 0.981090082091D-05 0.000000000000D+00  7 -2 1 -24 -13 13 23 21 0 0.19071953D-01 0.46595997D+00 0.16146786D+06 0.16146786D+06 0.16146786D+06 0.11050359D+01  1  2  2  2  7  2        1 0.150175919421D-02 0.100000000000D+01
-.448045490948D-04 0.000000000000D+00 -.395267076919D-05 0.981090082091D-05 0.000000000000D+00  7 -2 1 -24 -13 13 23 21 2 0.19071953D-01 0.46595997D+00 0.16146786D+06 0.16146786D+06 0.16146786D+06 0.11050359D+01  1  2  3  2  7  2        1 -.798262124001D-04 0.100000000000D+01
0.639468525151D-04 0.000000000000D+00 0.000000000000D+00 0.981090082091D-05 0.000000000000D+00  7 -2 1 -24 -13 13 23 21 2 0.19071953D-01 0.46595997D+00 0.16146786D+06 0.16146786D+06 0.16146786D+06 0.11050359D+01  1  2 15  2  7  2        1 0.113931177399D-03 0.100000000000D+01
0.632129386127D-03 0.000000000000D+00 0.000000000000D+00 0.981090082091D-05 0.000000000000D+00  7 -2 1 -24 -13 13 23 21 2 0.19071953D-01 0.61580588D+00 0.23904368D+06 0.23904368D+06 0.23904368D+06 0.10919263D+01  1  2 12  2  7  2        1 0.167867146764D-03 0.100000000000D+01
-.820019129385D-03 0.000000000000D+00 0.000000000000D+00 0.981090082091D-05 0.000000000000D+00  7 -2 1 -24 -13 13 23 21 2 0.19071953D-01 0.46595997D+00 0.16146786D+06 0.16146786D+06 0.16146786D+06 0.11050359D+01  1  2  4  2  7  2        1 -.146099051362D-02 0.100000000000D+01
-.111561217465D-02 0.000000000000D+00 -.341349719379D-03 0.981090082091D-05 0.000000000000D+00  7 -2 1 -24 -13 13 23 21 2 0.19071953D-01 0.61075487D+00 0.16146786D+06 0.16146786D+06 0.16146786D+06 0.11050359D+01  1  2  5  2  7  2        1 -.335760339028D-03 0.100000000000D+01
0.117676093860D-02 0.000000000000D+00 0.329222788366D-03 0.981090082091D-05 0.000000000000D+00  7 -2 1 -24 -13 13 23 21 2 0.19071953D-01 0.46595997D+00 0.16146786D+06 0.16146786D+06 0.16146786D+06 0.11050359D+01  1  2  6  2  7  2        1 0.209658105096D-02 0.100000000000D+01
0.231731222415D-04 0.000000000000D+00 0.000000000000D+00 0.981090082091D-05 0.000000000000D+00  7 -2 21 -24 -13 13 23 -1 2 0.19071953D-01 0.61580588D+00 0.23904368D+06 0.23904368D+06 0.23904368D+06 0.10919263D+01  1  2 12  4  7  2        1 0.504906602888D-06 0.100000000000D+01
-.335094836114D-04 0.000000000000D+00 -.122431347994D-04 0.981090082091D-05 0.000000000000D+00  7 -2 21 -24 -13 13 23 -1 2 0.19071953D-01 0.61075487D+00 0.16146786D+06 0.16146786D+06 0.16146786D+06 0.11050359D+01  1  2  5  4  7  2        1 -.863990957333D-06 0.100000000000D+01
  </mgrwgt>
  </event>
  <event>
  8     66 0.26562228E-05 0.19048523E+03 0.75467711E-02 0.10058040E+00
       -2 -1    0    0    0  501 0.00000000E+00 0.00000000E+00 0.17159193E+03 0.17159223E+03 0.32000000E+00 0.0000E+00 0.9000E+01
        1 -1    0    0  501    0 0.00000000E+00 0.00000000E+00 -.33721252E+03 0.33721267E+03 0.32000000E+00 0.0000E+00 0.9000E+01
       25  2    1    2    0    0 0.24992358E+02 0.85349241E+02 -.21488676E+03 0.37917665E+03 0.29948206E+03 0.0000E+00 0.0000E+00
       23  2    3    3    0    0 -.31761756E+02 -.34316528E+02 0.10878482E+02 0.10200140E+03 0.89997283E+02 0.0000E+00 0.0000E+00
      -24  1    1    2    0    0 -.24992358E+02 -.85349241E+02 0.49266176E+02 0.12962825E+03 0.80419002E+02 0.0000E+00 0.9000E+01
      -11  1    4    4    0    0 -.24356252E+01 0.29729822E+02 -.37289742E+01 0.30061601E+02 0.51099893E-03 0.0000E+00 0.9000E+01
       11  1    4    4    0    0 -.29326131E+02 -.64046350E+02 0.14607456E+02 0.71939799E+02 0.51099893E-03 0.0000E+00 0.9000E+01
       23  1    3    3    0    0 0.56754114E+02 0.11966577E+03 -.22576524E+03 0.27717525E+03 0.91188000E+02 0.0000E+00 0.9000E+01
#aMCatNLO 1  0  0  1  1 0.18985165D+03 0.00000000D+00  -5  7  0 0.00000000D+00 0.00000000D+00 0.00000000D+00 0.00000000D+00 0.00000000D+00
  <mgrwgt>
 0.1253222707D-02    3    2    0
 0.240547422722447D+03 0.000000000000000D+00 0.000000000000000D+00 0.240547422722447D+03
 0.240547422722447D+03 0.000000000000000D+00 0.000000000000000D+00 -.240547422722447D+03
 0.154054822854673D+03 -.249923575102819D+02 -.853492412168627D+02 0.967293212019930D+02
 0.305093581181939D+02 -.243562524789991D+01 0.297298220966251D+02 0.640518075771622D+01
 0.811121092699144D+02 -.293261310266656D+02 -.640463498743658D+02 0.402146413261600D+02
 0.215418555202113D+03 0.567541137848475D+02 0.119665768994603D+03 -.143349143285869D+03
 0.000000000000000D+00 0.000000000000000D+00 -.000000000000000D+00 -.000000000000000D+00
 0.328207485358766D+03 0.000000000000000D+00 0.000000000000000D+00 0.328207485358766D+03
 0.388053286897403D+03 0.000000000000000D+00 0.000000000000000D+00 -.388053286897403D+03
 0.133427283420765D+03 -.318063465380668D+02 -.311033558700120D+02 0.967293212019930D+02
 0.445594460420646D+02 -.421492906094086D+01 0.438947862968699D+02 0.640518075771622D+01
 0.635646017270062D+02 -.327553027900188D+02 -.367468550335319D+02 0.402146413261600D+02
 0.275648725635186D+03 0.451146865283783D+02 0.212326768870427D+03 -.143349143285869D+03
 0.199060715431147D+03 0.236618918606481D+02 -.188371344263753D+03 -.598458015386375D+02
0.119960123707D-04 0.000000000000D+00 0.000000000000D+00 0.635849639075D-06 0.000000000000D+00  7 -2 1 -24 -11 11 23 21 0 0.26398794D-01 0.51878883D-01 0.36284624D+05 0.36284624D+05 0.36284624D+05 0.11597487D+01  1  2  2  1  7  1       -2 0.123193701623D-02 0.100000000000D+01
-.622325295552D-06 0.000000000000D+00 -.460678461262D-07 0.635849639075D-06 0.000000000000D+00  7 -2 1 -24 -11 11 23 21 2 0.26398794D-01 0.51878883D-01 0.36284624D+05 0.36284624D+05 0.36284624D+05 0.11597487D+01  1  2  3  1  7  1       -2 -.859600913560D-04 0.100000000000D+01
0.776427313026D-06 0.000000000000D+00 0.000000000000D+00 0.635849639075D-06 0.000000000000D+00  7 -2 1 -24 -11 11 23 21 2 0.26398794D-01 0.51878883D-01 0.36284624D+05 0.36284624D+05 0.36284624D+05 0.11597487D+01  1  2 15  1  7  1       -2 0.107245781645D-03 0.100000000000D+01
  </mgrwgt>
  </event>
  <event>
  8     66 0.26562228E-05 0.27826123E+03 0.75467711E-02 0.10158694E+00
       -2 -1    0    0    0  501 0.00000000E+00 0.00000000E+00 0.10862750E+03 0.10862797E+03 0.32000000E+00 0.0000E+00 0.9000E+01
        1 -1    0    0  501    0 0.00000000E+00 0.00000000E+00 -.83354590E+03 0.83354596E+03 0.32000000E+00 0.0000E+00 0.9000E+01
       25  2    1    2    0    0 -.18965020E+02 0.18964748E+03 -.60915210E+03 0.70511932E+03 0.29966837E+03 0.0000E+00 0.0000E+00
       23  2    3    3    0    0 -.13741633E+02 -.25403900E+02 -.25923869E+03 0.28437115E+03 0.11326102E+03 0.0000E+00 0.0000E+00
      -24  1    1    2    0    0 0.18965020E+02 -.18964748E+03 -.11576630E+03 0.23705462E+03 0.80419002E+02 0.0000E+00 0.9000E+01
      -13  1    4    4    0    0 -.58379658E+02 0.97581989E+01 -.14955745E+03 0.16084418E+03 0.10565837E+00 0.0000E+00 0.9000E+01
       13  1    4    4    0    0 0.44638025E+02 -.35162099E+02 -.10968124E+03 0.12352697E+03 0.10565837E+00 0.0000E+00 0.9000E+01
       23  1    3    3    0    0 -.52233869E+01 0.21505138E+03 -.34991341E+03 0.42074817E+03 0.91188000E+02 0.0000E+00 0.9000E+01
#aMCatNLO 1  0  0  1  2 0.81149078D+01 0.00000000D+00  -5  7  0 0.00000000D+00 0.00000000D+00 0.00000000D+00 0.00000000D+00 0.00000000D+00
  <mgrwgt>
 0.3938945840D-03    6    2    0
 0.300909056882607D+03 0.000000000000000D+00 0.000000000000000D+00 0.300909056882607D+03
 0.300909056882607D+03 0.000000000000000D+00 0.000000000000000D+00 -.300909056882607D+03
 0.231673920431529D+03 0.189650201989897D+02 -.189647482353966D+03 0.104306039611320D+03
 0.716596578205533D+02 -.583795086191665D+02 0.975792497287189D+01 -.403945841984696D+02
 0.612707947768579D+02 0.446378789151165D+02 -.351622385935050D+02 -.229169595636215D+02
 0.237213740736273D+03 -.522339049493972D+01 0.215051795974599D+03 -.409944958492289D+02
 0.000000000000000D+00 -.000000000000000D+00 0.000000000000000D+00 -.000000000000000D+00
 0.302806839344162D+03 0.000000000000000D+00 0.000000000000000D+00 0.302806839344162D+03
 0.309738101622157D+03 0.000000000000000D+00 0.000000000000000D+00 -.309738101622157D+03
 0.234258198978604D+03 0.195029899544046D+02 -.192742240616240D+03 0.104306039611320D+03
 0.714017230829039D+02 -.582143285577632D+02 0.880769988187825D+01 -.403945841984696D+02
 0.618465699426105D+02 0.447800314215144D+02 -.359799939398791D+02 -.229169595636215D+02
 0.234366329930695D+03 -.467889956008764D+01 0.211919523570052D+03 -.409944958492289D+02
 0.106721190315064D+02 -.138979325806823D+01 0.799501110418924D+01 -.693126227799517D+01
0.910140767625D-05 0.000000000000D+00 0.000000000000D+00 0.782396243486D-08 0.000000000000D+00  7 -2 1 -24 -13 13 23 21 0 0.16711965D-01 0.12823787D+00 0.77429311D+05 0.77429311D+05 0.77429311D+05 0.11309543D+01  1  2  2  1  7  1       -2 0.557460360471D-03 0.100000000000D+01
-.501869659400D-06 0.000000000000D+00 -.349518019325D-07 0.782396243486D-08 0.000000000000D+00  7 -2 1 -24 -13 13 23 21 2 0.16711965D-01 0.12823787D+00 0.77429311D+05 0.77429311D+05 0.77429311D+05 0.11309543D+01  1  2  3  1  7  1       -2 -.393175505656D-04 0.100000000000D+01
0.586453886846D-06 0.000000000000D+00 0.000000000000D+00 0.782396243486D-08 0.000000000000D+00  7 -2 1 -24 -13 13 23 21 2 0.16711965D-01 0.12823787D+00 0.77429311D+05 0.77429311D+05 0.77429311D+05 0.11309543D+01  1  2 15  1  7  1       -2 0.459440612092D-04 0.100000000000D+01
-.221382299942D-05 0.000000000000D+00 0.000000000000D+00 0.782396243486D-08 0.000000000000D+00  7 -2 1 -24 -13 13 23 21 2 0.16711965D-01 0.12823787D+00 0.77429311D+05 0.77429311D+05 0.77429311D+05 0.11309543D+01  1  2  4  1  7  1       -2 -.173435664207D-03 0.100000000000D+01
0.374182658762D-07 0.000000000000D+00 0.000000000000D+00 0.782396243486D-08 0.809470467477D-09  7 -2 1 -24 -13 13 23 21 2 0.16817364D-01 0.13200053D+00 0.79790403D+05 0.79790403D+05 0.79790403D+05 0.11298580D+01  1  2 11  1  7  1       -2 0.276453847833D-05 0.100000000000D+01
0.486120680294D-09 0.000000000000D+00 0.000000000000D+00 0.782396243486D-08 0.967706452448D-12  7 21 1 -24 -13 13 23 2 2 0.16817364D-01 0.13200053D+00 0.79790403D+05 0.79790403D+05 0.79790403D+05 0.11298580D+01  1  2 11  3  7  1       -2 0.478838625143D-06 0.100000000000D+01
  </mgrwgt>
  </event>
  <event>
  8     66 0.26562228E-05 0.23146443E+03 0.75467711E-02 0.93694051E-01
       -2 -1    0    0    0  501 0.00000000E+00 0.00000000E+00 0.19261767E+04 0.19261768E+04 0.32000000E+00 0.0000E+00 0.9000E+01
        1 -1    0    0  501    0 0.00000000E+00 0.00000000E+00 -.15593362E+03 0.15593394E+03 0.32000000E+00 0.0000E+00 0.9000E+01
       25  2    1    2    0    0 0.40544374E+03 0.10189003E+03 0.41095043E+03 0.65771258E+03 0.29822705E+03 0.0000E+00 0.0000E+00
       23  2    3    3    0    0 0.21549821E+03 0.17326831E+03 0.20912473E+03 0.35734110E+03 0.86591672E+02 0.0000E+00 0.0000E+00
      -24  1    1    2    0    0 -.40544374E+03 -.10189003E+03 0.13592927E+04 0.14243981E+04 0.80419002E+02 0.0000E+00 0.9000E+01
      -11  1    4    4    0    0 0.90464024E+02 0.10471320E+03 0.14674228E+03 0.20169752E+03 0.51099893E-03 0.0000E+00 0.9000E+01
       11  1    4    4    0    0 0.12503419E+03 0.68555116E+02 0.62382451E+02 0.15564357E+03 0.51099893E-03 0.0000E+00 0.9000E+01
       23  1    3    3    0    0 0.18994553E+03 -.71378285E+02 0.20182570E+03 0.30037148E+03 0.91188000E+02 0.0000E+00 0.9000E+01
#aMCatNLO 1  0  0  1  2 0.14968568D+03 0.00000000D+00  -5  7  0 0.00000000D+00 0.00000000D+00 0.00000000D+00 0.00000000D+00 0.00000000D+00
  <mgrwgt>
 0.4589854959D-02    9    2    0
 0.548047507769466D+03 0.000000000000000D+00 0.000000000000000D+00 0.548047507769466D+03
 0.548047507769466D+03 0.000000000000000D+00 0.000000000000000D+00 -.548047507769466D+03
 0.510426609519259D+03 -.405443737566402D+03 -.101890026442378D+03 0.281605940865447D+03
 0.146143401491293D+03 0.904640239580842D+02 0.104713195996822D+03 -.470031993899094D+02
 0.194905587004955D+03 0.125034185393384D+03 0.685551157364922D+02 -.132871503472774D+03
 0.244619417523425D+03 0.189945528214934D+03 -.713782852909358D+02 -.101731238002764D+03
 0.000000000000000D+00 -.000000000000000D+00 -.000000000000000D+00 0.000000000000000D+00
 0.635877595906692D+03 0.000000000000000D+00 0.000000000000000D+00 0.635877595906692D+03
 0.620830983085035D+03 0.000000000000000D+00 0.000000000000000D+00 -.620830983085035D+03
 0.458107698986869D+03 -.342189494442519D+03 -.836653565051424D+02 0.281605940865447D+03
 0.163329971172604D+03 0.110675495852191D+03 0.110536479717005D+03 -.470031993899094D+02
 0.215714135774428D+03 0.151851448910058D+03 0.762816452477862D+02 -.132871503472774D+03
 0.269116736162841D+03 0.223497247840563D+03 -.617114394667563D+02 -.101731238002764D+03
 0.150440036894985D+03 -.143834698160293D+03 -.414413289928921D+02 0.150466128216569D+02
0.355260849306D-02 0.000000000000D+00 0.000000000000D+00 0.785827650998D-07 0.000000000000D+00  7 -2 1 -24 -11 11 23 21 0 0.29633491D+00 0.23989814D-01 0.21583033D+06 0.21583033D+06 0.21583033D+06 0.10952936D+01  1  2  2  1  7  1       -2 0.248669469126D-02 0.100000000000D+01
-.190815099486D-03 0.000000000000D+00 -.136429520367D-04 0.785827650998D-07 0.000000000000D+00  7 -2 1 -24 -11 11 23 21 2 0.29633491D+00 0.23989814D-01 0.21583033D+06 0.21583033D+06 0.21583033D+06 0.10952936D+01  1  2  3  1  7  1       -2 -.160231880416D-03 0.100000000000D+01
0.229313629424D-03 0.000000000000D+00 0.000000000000D+00 0.785827650998D-07 0.000000000000D+00  7 -2 1 -24 -11 11 23 21 2 0.29633491D+00 0.23989814D-01 0.21583033D+06 0.21583033D+06 0.21583033D+06 0.10952936D+01  1  2 15  1  7  1       -2 0.192559992091D-03 0.100000000000D+01
0.208100893869D-02 0.000000000000D+00 0.000000000000D+00 0.785827650998D-07 0.000000000000D+00  7 -2 1 -24 -11 11 23 21 2 0.36071828D+00 0.23989814D-01 0.29513163D+06 0.29513163D+06 0.29513163D+06 0.10850780D+01  1  2 12  1  7  1       -2 0.636144850695D-03 0.100000000000D+01
-.196150864311D-02 0.000000000000D+00 0.000000000000D+00 0.785827650998D-07 0.000000000000D+00  7 -2 1 -24 -11 11 23 21 2 0.29633491D+00 0.23989814D-01 0.21583033D+06 0.21583033D+06 0.21583033D+06 0.10952936D+01  1  2  4  1  7  1       -2 -.164712446335D-02 0.100000000000D+01
-.561233042959D-02 0.000000000000D+00 -.175673437091D-02 0.785827650998D-07 0.000000000000D+00  7 -2 1 -24 -11 11 23 21 2 0.36462508D+00 0.23989814D-01 0.21583033D+06 0.21583033D+06 0.21583033D+06 0.10952936D+01  1  2  5  1  7  1       -2 -.167773727166D-02 0.100000000000D+01
0.588671397396D-02 0.000000000000D+00 0.171962439354D-02 0.785827650998D-07 0.000000000000D+00  7 -2 1 -24 -11 11 23 21 2 0.29633491D+00 0.23989814D-01 0.21583033D+06 0.21583033D+06 0.21583033D+06 0.10952936D+01  1  2  6  1  7  1       -2 0.494321074204D-02 0.100000000000D+01
0.587742006356D-04 0.000000000000D+00 0.000000000000D+00 0.785827650998D-07 0.000000000000D+00  7 21 1 -24 -11 11 23 2 2 0.36071828D+00 0.23989814D-01 0.29513163D+06 0.29513163D+06 0.29513163D+06 0.10850780D+01  1  2 12  3  7  1       -2 0.129207713288D-03 0.100000000000D+01
-.143589255460D-03 0.000000000000D+00 -.516838997501D-04 0.785827650998D-07 0.000000000000D+00  7 21 1 -24 -11 11 23 2 2 0.36462508D+00 0.23989814D-01 0.21583033D+06 0.21583033D+06 0.21583033D+06 0.10952936D+01  1  2  5  3  7  1       -2 -.312869414604D-03 0.100000000000D+01
  </mgrwgt>
  </event>
  <event>
  8     66 0.26562228E-05 0.36978004E+03 0.75467711E-02 0.88590726E-01
       -2 -1    0    0    0  501 0.00000000E+00 0.00000000E+00 0.43998675E+03 0.43998686E+03 0.32000000E+00 0.0000E+00 0.9000E+01
        1 -1    0    0  501    0 0.00000000E+00 0.00000000E+00 -.22820193E+04 0.22820193E+04 0.32000000E+00 0.0000E+00 0.9000E+01
       25  2    1    2    0    0 0.46424629E+02 0.30537312E+03 0.31879781E+03 0.53772986E+03 0.30350185E+03 0.0000E+00 0.0000E+00
       23  2    3    3    0    0 0.89324840E+02 0.15241045E+02 0.13787093E+03 0.18126551E+03 0.75083781E+02 0.0000E+00 0.0000E+00
      -24  1    1    2    0    0 -.46424629E+02 -.30537312E+03 -.21608303E+04 0.21842763E+04 0.80419002E+02 0.0000E+00 0.9000E+01
      -13  1    4    4    0    0 0.45148660E+02 0.41944203E+02 0.99134523E+02 0.11672781E+03 0.10565837E+00 0.0000E+00 0.9000E+01
       13  1    4    4    0    0 0.44176180E+02 -.26703157E+02 0.38736408E+02 0.64537694E+02 0.10565837E+00 0.0000E+00 0.9000E+01
       23  1    3    3    0    0 -.42900211E+02 0.29013208E+03 0.18092688E+03 0.35646435E+03 0.91188000E+02 0.0000E+00 0.9000E+01
#aMCatNLO 1  0  0  1  1 0.74582438D+03 0.00000000D+00  -5  7  0 0.00000000D+00 0.00000000D+00 0.00000000D+00 0.00000000D+00 0.00000000D+00
  <mgrwgt>
 0.4642361574D-02    3    2    0
 0.100202715666572D+04 0.000000000000000D+00 0.000000000000000D+00 0.100202715666572D+04
 0.100202715666572D+04 0.000000000000000D+00 0.000000000000000D+00 -.100202715666572D+04
 0.980658934384334D+03 -.464246287052109D+02 -.305373120817730D+03 -.927263037419842D+03
 0.249665560134802D+03 0.451486615999417D+02 0.419443385455603D+02 0.241940411542045D+03
 0.123262738659570D+03 0.441761778775055D+02 -.267032932896596D+02 0.111933472104991D+03
 0.650467080152725D+03 -.429002107722363D+02 0.290132075561830D+03 0.573389153772806D+03
 0.000000000000000D+00 0.000000000000000D+00 0.000000000000000D+00 -.000000000000000D+00
 0.122755259099736D+04 0.000000000000000D+00 0.000000000000000D+00 0.122755259099736D+04
 0.194718480933310D+04 0.000000000000000D+00 0.000000000000000D+00 -.194718480933310D+04
 0.111710111125099D+04 -.375701850920402D+03 -.490386638739005D+03 -.927263037419842D+03
 0.244099627429994D+03 -.323557363535708D+02 -.160365187807935D+01 0.241940411542045D+03
 0.122057144835778D+03 0.566927144672835D+01 -.483394640976347D+02 0.111933472104991D+03
 0.655079718950648D+03 -.247826805868339D+03 0.174988398087592D+03 0.573389153772806D+03
 0.103639979786305D+04 0.650215121695583D+03 0.365341356627127D+03 -.719632218335735D+03
0.895543093179D-02 0.000000000000D+00 0.000000000000D+00 0.986580611920D-08 0.000000000000D+00  7 -2 1 -24 -13 13 23 21 0 0.67690279D-01 0.35107990D+00 0.13673728D+06 0.13673728D+06 0.13673728D+06 0.11107386D+01  1  2  2  1  7  1       -2 0.425562152568D-02 0.100000000000D+01
0.103614242792D-03 0.000000000000D+00 -.343912127972D-04 0.986580611920D-08 0.000000000000D+00  7 -2 1 -24 -13 13 23 21 2 0.67690279D-01 0.35107990D+00 0.13673728D+06 0.13673728D+06 0.13673728D+06 0.11107386D+01  1  2  3  1  7  1       -2 0.607462844124D-04 0.100000000000D+01
0.556043835371D-03 0.000000000000D+00 0.000000000000D+00 0.986580611920D-08 0.000000000000D+00  7 -2 1 -24 -13 13 23 21 2 0.67690279D-01 0.35107990D+00 0.13673728D+06 0.13673728D+06 0.13673728D+06 0.11107386D+01  1  2 15  1  7  1       -2 0.325993763589D-03 0.100000000000D+01
  </mgrwgt>
  </event>
  <event>
  9     66 0.26562228E-05 0.38378825E+03 0.75467711E-02 0.95418123E-01
       21 -1    0    0  502  501 0.00000000E+00 0.00000000E+00 0.68350533E+03 0.68350574E+03 0.75000000E+00 0.0000E+00 0.9000E+01
        1 -1    0    0  501    0 0.00000000E+00 0.00000000E+00 -.32819954E+03 0.32819970E+03 0.32000000E+00 0.0000E+00 0.9000E+01
       25  2    1    2    0    0 -.27764250E+03 0.16843238E+02 0.12722940E+03 0.42831316E+03 0.29982627E+03 0.0000E+00 0.0000E+00
       23  2    3    3    0    0 -.24485265E+03 0.89901770E+02 0.40350013E+02 0.27906169E+03 0.90620929E+02 0.0000E+00 0.0000E+00
      -24  1    1    2    0    0 0.34450690E+03 -.15218203E+03 0.14854630E+03 0.41276821E+03 0.80419002E+02 0.0000E+00 0.9000E+01
      -11  1    4    4    0    0 -.24115676E+03 0.10284466E+03 0.41952686E+02 0.26550637E+03 0.51099893E-03 0.0000E+00 0.9000E+01
       11  1    4    4    0    0 -.36958924E+01 -.12942889E+02 -.16026730E+01 0.13555315E+02 0.51099893E-03 0.0000E+00 0.9000E+01
       23  1    3    3    0    0 -.32789850E+02 -.73058532E+02 0.86879388E+02 0.14925147E+03 0.91188000E+02 0.0000E+00 0.9000E+01
        2  1    1    2  502    0 -.66864396E+02 0.13533879E+03 0.79530088E+02 0.17062407E+03 0.32000000E+00 0.0000E+00 0.9000E+01
#aMCatNLO 2  0  0  1  2 0.15095508D+03 0.00000000D+00  -5  7  0 0.00000000D+00 0.00000000D+00 0.00000000D+00 0.00000000D+00 0.00000000D+00
  <mgrwgt>
 0.1051087779D-03    2    2    0
 0.390057110957357D+03 0.000000000000000D+00 0.000000000000000D+00 0.390057110957357D+03
 0.390057110957357D+03 0.000000000000000D+00 0.000000000000000D+00 -.390057110957357D+03
 0.336585084988240D+03 0.313851633554615D+03 -.901333614916597D+02 0.139797261591139D+02
 0.309937442257463D+03 -.265632518270509D+03 0.152385515175629D+03 -.477413669161691D+02
 0.132526100029899D+02 -.489150186604616D+01 -.105228815096988D+02 -.640108163661839D+01
 0.120339084666021D+03 -.433276134180594D+02 -.517292721742700D+02 0.401627223936736D+02
 0.000000000000000D+00 -.000000000000000D+00 0.000000000000000D+00 0.000000000000000D+00
 0.486278203216973D+03 0.000000000000000D+00 0.000000000000000D+00 0.486278203216973D+03
 0.461312602094263D+03 0.000000000000000D+00 0.000000000000000D+00 -.461312602094263D+03
 0.385366087745105D+03 0.344506899236133D+03 -.152182026746980D+03 0.139797261591139D+02
 0.266482354394312D+03 -.241156760521482D+03 0.102844659284262D+03 -.477413669161691D+02
 0.149047589614252D+02 -.369589244106429D+01 -.129428888832291D+02 -.640108163661839D+01
 0.127831995306784D+03 -.327898503693031D+02 -.730585321697675D+02 0.401627223936736D+02
 0.153005608903610D+03 -.668643959042837D+02 0.135338788515715D+03 0.249656011227092D+02
-.146377432818D-05 0.000000000000D+00 0.000000000000D+00 0.619754132488D-05 0.000000000000D+00  7 21 1 -24 -11 11 23 2 2 0.11124790D+00 0.42693103D-01 0.21764911D+06 0.21764911D+06 0.21764911D+06 0.10950158D+01  1  2 13  3  7  1       -2 -.112253717992D-03 0.100000000000D+01
0.304948243594D-05 0.000000000000D+00 0.000000000000D+00 0.619754132488D-05 0.728665869450D-10  7 21 1 -24 -11 11 23 2 2 0.10515467D+00 0.50492263D-01 0.21764911D+06 0.21764911D+06 0.21764911D+06 0.10950158D+01  1  2  1  3  7  1       -2 0.217362495882D-03 0.100000000000D+01
  </mgrwgt>
  </event>
  <event>
  8     66 0.26562228E-05 0.40550365E+02 0.75467711E-02 0.10253202E+00
       -2 -1    0    0    0  501 0.00000000E+00 0.00000000E+00 0.16068423E+04 0.16068423E+04 0.32000000E+00 0.0000E+00 0.9000E+01
        1 -1    0    0  501    0 0.00000000E+00 0.00000000E+00 -.61843611E+02 0.61844439E+02 0.32000000E+00 0.0000E+00 0.9000E+01
       25  2    1    2    0    0 0.38213277E+01 0.18104269E+03 0.53900810E+03 0.64336958E+03 0.30100437E+03 0.0000E+00 0.0000E+00
       23  2    3    3    0    0 0.49184960E+01 -.62750531E+01 0.34782654E+03 0.36060682E+03 0.94817764E+02 0.0000E+00 0.0000E+00
      -24  1    1    2    0    0 -.38213277E+01 -.18104269E+03 0.10059906E+04 0.10253172E+04 0.80419002E+02 0.0000E+00 0.9000E+01
      -11  1    4    4    0    0 -.34232466E+02 -.97213930E+01 0.57421947E+02 0.67554771E+02 0.51099893E-03 0.0000E+00 0.9000E+01
       11  1    4    4    0    0 0.39150962E+02 0.34463399E+01 0.29040459E+03 0.29305205E+03 0.51099893E-03 0.0000E+00 0.9000E+01
       23  1    3    3    0    0 -.10971683E+01 0.18731774E+03 0.19118156E+03 0.28276276E+03 0.91188000E+02 0.0000E+00 0.9000E+01
#aMCatNLO 1  0  0  2  1 0.41349342D+02 0.00000000D+00  -5  7  0 0.00000000D+00 0.00000000D+00 0.00000000D+00 0.00000000D+00 0.00000000D+00
  <mgrwgt>
 0.1102894670D-02    9    2    0
 0.315235861356162D+03 0.000000000000000D+00 0.000000000000000D+00 0.315235861356162D+03
 0.315235861356162D+03 0.000000000000000D+00 0.000000000000000D+00 -.315235861356162D+03
 0.248510890940630D+03 -.382132767631661D+01 -.181042687913139D+03 0.149997965218569D+03
 0.380840571377107D+02 -.342324655632580D+02 -.972139299303655D+01 -.135657004169967D+02
 0.639796495525063D+02 0.391509615196937D+02 0.344633987366065D+01 0.504848542675940D+02
 0.279897125081477D+03 -.109716828011906D+01 0.187317741032515D+03 -.186917119069166D+03
 0.000000000000000D+00 -.000000000000000D+00 -.000000000000000D+00 -.000000000000000D+00
 0.321011698161322D+03 0.000000000000000D+00 0.000000000000000D+00 0.321011698161322D+03
 0.399748400898302D+03 0.000000000000000D+00 0.000000000000000D+00 -.399748400898302D+03
 0.245331922434846D+03 0.116480219429382D+02 -.176310720678898D+03 0.149997965218569D+03
 0.358324470084907D+02 -.319170724577977D+02 -.901313022963068D+01 -.135657004169967D+02
 0.666386164547293D+02 0.432425055673145D+02 0.469791494613141D+01 0.504848542675940D+02
 0.284023225324435D+03 0.165673209491879D+02 0.192721186316254D+03 -.186917119069166D+03
 0.889338878371238D+02 -.395407760016430D+02 -.120952503538568D+02 -.787367027369799D+02
0.199024191751D-03 0.000000000000D+00 0.000000000000D+00 0.105013680959D-06 0.000000000000D+00  7 -2 1 -24 -11 11 23 21 0 0.24720657D+00 0.95144679D-02 0.57927493D+05 0.57927493D+05 0.57927493D+05 0.11417156D+01  1  2  2  2  7  2        1 0.101967521107D-02 0.100000000000D+01
-.100779699751D-04 0.000000000000D+00 -.764305300596D-06 0.105013680959D-06 0.000000000000D+00  7 -2 1 -24 -11 11 23 21 2 0.24720657D+00 0.95144679D-02 0.57927493D+05 0.57927493D+05 0.57927493D+05 0.11417156D+01  1  2  3  2  7  2        1 -.673046222399D-04 0.100000000000D+01
0.128230929745D-04 0.000000000000D+00 0.000000000000D+00 0.105013680959D-06 0.000000000000D+00  7 -2 1 -24 -11 11 23 21 2 0.24720657D+00 0.95144679D-02 0.57927493D+05 0.57927493D+05 0.57927493D+05 0.11417156D+01  1  2 15  2  7  2        1 0.856376264987D-04 0.100000000000D+01
0.929985329069D-03 0.000000000000D+00 0.000000000000D+00 0.105013680959D-06 0.000000000000D+00  7 -2 1 -24 -11 11 23 21 2 0.24720657D+00 0.12136158D-01 0.69167682D+05 0.69167682D+05 0.69167682D+05 0.11351015D+01  1  2 12  2  7  2        1 0.442459164175D-02 0.100000000000D+01
-.932868244217D-03 0.000000000000D+00 0.000000000000D+00 0.105013680959D-06 0.000000000000D+00  7 -2 1 -24 -11 11 23 21 2 0.24720657D+00 0.95144679D-02 0.57927493D+05 0.57927493D+05 0.57927493D+05 0.11417156D+01  1  2  4  2  7  2        1 -.623005872528D-02 0.100000000000D+01
-.110305518941D-02 0.000000000000D+00 -.128702010615D-03 0.105013680959D-06 0.000000000000D+00  7 -2 1 -24 -11 11 23 21 2 0.24720657D+00 0.12269815D-01 0.57927493D+05 0.57927493D+05 0.57927493D+05 0.11417156D+01  1  2  5  2  7  2        1 -.526197461184D-02 0.100000000000D+01
0.110394478410D-02 0.000000000000D+00 0.124648898268D-03 0.105013680959D-06 0.000000000000D+00  7 -2 1 -24 -11 11 23 21 2 0.24720657D+00 0.95144679D-02 0.57927493D+05 0.57927493D+05 0.57927493D+05 0.11417156D+01  1  2  6  2  7  2        1 0.737257472003D-02 0.100000000000D+01
0.308550622898D-04 0.000000000000D+00 0.000000000000D+00 0.105013680959D-06 0.000000000000D+00  7 -2 21 -24 -11 11 23 -1 2 0.24720657D+00 0.12136158D-01 0.69167682D+05 0.69167682D+05 0.69167682D+05 0.11351015D+01  1  2 12  4  7  2        1 0.154912321566D-02 0.100000000000D+01
-.355878154271D-04 0.000000000000D+00 -.441113099591D-05 0.105013680959D-06 0.000000000000D+00  7 -2 21 -24 -11 11 23 -1 2 0.24720657D+00 0.12269815D-01 0.57927493D+05 0.57927493D+05 0.57927493D+05 0.11417156D+01  1  2  5  4  7  2        1 -.178936978571D-02 0.100000000000D+01
  </mgrwgt>
  </event>
  <event>
  9     66 -.26562228E-05 0.37944710E+03 0.75467711E-02 0.97778272E-01
       -2 -1    0    0    0  501 0.00000000E+00 0.00000000E+00 0.80283861E+02 0.80284498E+02 0.32000000E+00 0.0000E+00 0.9000E+01
        1 -1    0    0  502    0 0.00000000E+00 0.00000000E+00 -.27919872E+04 0.27919873E+04 0.32000000E+00 0.0000E+00 0.9000E+01
       25  2    1    2    0    0 0.54205560E+02 -.30998379E+03 -.22281128E+04 0.22701870E+04 0.30038984E+03 0.0000E+00 0.0000E+00
       23  2    3    3    0    0 0.11410269E+03 -.54262492E+02 -.83726130E+03 0.85182024E+03 0.92883775E+02 0.0000E+00 0.0000E+00
      -24  1    1    2    0    0 -.48867767E+02 0.31012574E+03 -.38457561E+03 0.50292310E+03 0.80419002E+02 0.0000E+00 0.9000E+01
      -13  1    4    4    0    0 0.92323051E+02 0.61953015E+01 -.48676703E+03 0.49548368E+03 0.10565837E+00 0.0000E+00 0.9000E+01
       13  1    4    4    0    0 0.21779635E+02 -.60457794E+02 -.35049427E+03 0.35633655E+03 0.10565837E+00 0.0000E+00 0.9000E+01
       23  1    3    3    0    0 -.59897127E+02 -.25572130E+03 -.13908515E+04 0.14183668E+04 0.91188000E+02 0.0000E+00 0.9000E+01
       21  1    1    2  502  501 -.53377931E+01 -.14194575E+00 -.99014943E+02 0.99161654E+02 0.75000000E+00 0.0000E+00 0.9000E+01
#aMCatNLO 2  0  0  2  1 0.53396801D+01 0.00000000D+00  -5  7  0 0.00000000D+00 0.00000000D+00 0.00000000D+00 0.00000000D+00 0.00000000D+00
  <mgrwgt>
 -.1252990655D-02    5    2    0
 0.464750003693322D+03 0.000000000000000D+00 0.000000000000000D+00 0.464750003693322D+03
 0.464750003693322D+03 0.000000000000000D+00 0.000000000000000D+00 -.464750003693322D+03
 0.419689841674297D+03 -.512771891601947D+02 0.310061663235233D+03 0.266279481210732D+03
 0.109485285705507D+03 0.916928919651880D+02 0.617862762273516D+01 -.595085364445844D+02
 0.778057740436946D+02 0.213324077546079D+02 -.604697700537627D+02 -.440689659916666D+02
 0.322519105963146D+03 -.617481105596013D+02 -.255770520804205D+03 -.162701978774481D+03
 0.000000000000000D+00 -.000000000000000D+00 -.000000000000000D+00 -.000000000000000D+00
 0.465174688291262D+03 0.000000000000000D+00 0.000000000000000D+00 0.465174688291262D+03
 0.481850652638998D+03 0.000000000000000D+00 0.000000000000000D+00 -.481850652638998D+03
 0.419449649960551D+03 -.488677669119452D+02 0.310125736018217D+03 0.266279481210732D+03
 0.110014595991673D+03 0.923231422438622D+02 0.619538761130118D+01 -.595085364445844D+02
 0.779203279722838D+02 0.217795443017146D+02 -.604578795339636D+02 -.440689659916666D+02
 0.322130770712172D+03 -.598971265805650D+02 -.255721298342313D+03 -.162701978774481D+03
 0.175099962935806D+02 -.533779305306653D+01 -.141945753241697D+00 -.166759643477365D+02
-.869057012957D-03 0.000000000000D+00 0.000000000000D+00 0.360991662706D-05 0.000000000000D+00  7 -2 1 -24 -13 13 23 21 2 0.12339925D-01 0.42971468D+00 0.14601651D+06 0.14601651D+06 0.14601651D+06 0.11084755D+01  1  2 13  2  7  2        1 -.469208449895D-02 0.100000000000D+01
-.268226419692D-02 0.000000000000D+00 0.000000000000D+00 0.360991662706D-05 0.000000000000D+00  7 -2 1 -24 -13 13 23 21 2 0.12339925D-01 0.41428536D+00 0.14398010D+06 0.14398010D+06 0.14398010D+06 0.11089584D+01  1  2  8  2  7  2        1 -.170847074807D-01 0.100000000000D+01
-.135113674202D-02 0.000000000000D+00 0.000000000000D+00 0.360991662706D-05 0.000000000000D+00  7 -2 1 -24 -13 13 23 21 2 0.12339925D-01 0.42964048D+00 0.14398010D+06 0.14398010D+06 0.14398010D+06 0.11089584D+01  1  2  9  2  7  2        1 -.731207274059D-02 0.100000000000D+01
0.135024244177D-02 0.000000000000D+00 0.000000000000D+00 0.360991662706D-05 0.000000000000D+00  7 -2 1 -24 -13 13 23 21 2 0.12339925D-01 0.41428536D+00 0.14398010D+06 0.14398010D+06 0.14398010D+06 0.11089584D+01  1  2 10  2  7  2        1 0.860038215928D-02 0.100000000000D+01
0.356082039669D-02 0.000000000000D+00 0.000000000000D+00 0.360991662706D-05 0.830212674864D-06  7 -2 1 -24 -13 13 23 21 2 0.12351201D-01 0.42952914D+00 0.14601651D+06 0.14601651D+06 0.14601651D+06 0.11084755D+01  1  2  1  2  7  2        1 0.192354919061D-01 0.100000000000D+01
  </mgrwgt>
  </event>
  <event>
  8     66 0.26562228E-05 0.13981606E+03 0.75467711E-02 0.10081388E+00
       -2 -1    0    0    0  501 0.00000000E+00 0.00000000E+00 0.18536736E+03 0.18536763E+03 0.32000000E+00 0.0000E+00 0.9000E+01
        1 -1    0    0  501    0 0.00000000E+00 0.00000000E+00 -.55324076E+03 0.55324085E+03 0.32000000E+00 0.0000E+00 0.9000E+01
       25  2    1    2    0    0 -.18110907E+03 -.99078219E+02 -.36697245E+03 0.51705709E+03 0.30010376E+03 0.0000E+00 0.0000E+00
       23  2    3    3    0    0 0.37212416E+02 -.53631650E+01 -.16484822E+03 0.19207057E+03 0.91118826E+02 0.0000E+00 0.0000E+00
      -24  1    1    2    0    0 0.18110907E+03 0.99078219E+02 -.90095000E+00 0.22155139E+03 0.80419002E+02 0.0000E+00 0.9000E+01
      -13  1    4    4    0    0 0.62038025E+02 0.54126797E+01 -.71204224E+02 0.94594219E+02 0.10565837E+00 0.0000E+00 0.9000E+01
       13  1    4    4    0    0 -.24825609E+02 -.10775845E+02 -.93643992E+02 0.97476347E+02 0.10565837E+00 0.0000E+00 0.9000E+01
       23  1    3    3    0    0 -.21832149E+03 -.93715054E+02 -.20212423E+03 0.32498653E+03 0.91188000E+02 0.0000E+00 0.9000E+01
#aMCatNLO 1  0  0  1  2 0.33146746D+02 0.00000000D+00  -5  7  0 0.00000000D+00 0.00000000D+00 0.00000000D+00 0.00000000D+00 0.00000000D+00
  <mgrwgt>
 0.1136390583D-02    9    2    0
 0.320238835952661D+03 0.000000000000000D+00 0.000000000000000D+00 0.320238835952661D+03
 0.320238835952661D+03 0.000000000000000D+00 0.000000000000000D+00 -.320238835952661D+03
 0.254978910671535D+03 0.181109074259393D+03 0.990782191602342D+02 0.126214256888097D+03
 0.681896693474693D+02 0.620381416319539D+02 0.541270144319015D+01 -.277813363907806D+02
 0.586245479977064D+02 -.248257257483605D+02 -.107758664254830D+02 -.520038620852597D+02
 0.258684543888611D+03 -.218321490142986D+03 -.937150541779414D+02 -.464290584120569D+02
 0.000000000000000D+00 -.000000000000000D+00 -.000000000000000D+00 0.000000000000000D+00
 0.429262466715517D+03 0.000000000000000D+00 0.000000000000000D+00 0.429262466715517D+03
 0.323196777976530D+03 0.000000000000000D+00 0.000000000000000D+00 -.323196777976530D+03
 0.261358793745400D+03 0.182443441013287D+03 0.112363496310398D+03 0.126214256888097D+03
 0.688805133717078D+02 0.623923708373868D+02 0.893949282578776D+01 -.277813363907806D+02
 0.580197122480574D+02 -.245242830654554D+02 -.777463038929092D+01 -.520038620852597D+02
 0.253075803492326D+03 -.216998952610544D+03 -.805475516088671D+02 -.464290584120569D+02
 0.111124421834556D+03 -.331257617467376D+01 -.329808071380280D+02 0.106065688738986D+03
0.207935942870D-04 0.000000000000D+00 0.000000000000D+00 0.477475483421D-05 0.000000000000D+00  7 -2 1 -24 -13 13 23 21 0 0.28518083D-01 0.85113991D-01 0.79911033D+05 0.79911033D+05 0.79911033D+05 0.11298030D+01  1  2  2  1  7  1       -2 0.959566268183D-03 0.100000000000D+01
-.113334735684D-05 0.000000000000D+00 -.798528771412D-07 0.477475483421D-05 0.000000000000D+00  7 -2 1 -24 -13 13 23 21 2 0.28518083D-01 0.85113991D-01 0.79911033D+05 0.79911033D+05 0.79911033D+05 0.11298030D+01  1  2  3  1  7  1       -2 -.667596248361D-04 0.100000000000D+01
0.134271942748D-05 0.000000000000D+00 0.000000000000D+00 0.477475483421D-05 0.000000000000D+00  7 -2 1 -24 -13 13 23 21 2 0.28518083D-01 0.85113991D-01 0.79911033D+05 0.79911033D+05 0.79911033D+05 0.11298030D+01  1  2 15  1  7  1       -2 0.790926494841D-04 0.100000000000D+01
0.177544386481D-03 0.000000000000D+00 0.000000000000D+00 0.477475483421D-05 0.000000000000D+00  7 -2 1 -24 -13 13 23 21 2 0.38326197D-01 0.85113991D-01 0.89864177D+05 0.89864177D+05 0.89864177D+05 0.11255508D+01  1  2 12  1  7  1       -2 0.611408566720D-02 0.100000000000D+01
-.172513575368D-03 0.000000000000D+00 0.000000000000D+00 0.477475483421D-05 0.000000000000D+00  7 -2 1 -24 -13 13 23 21 2 0.28518083D-01 0.85113991D-01 0.79911033D+05 0.79911033D+05 0.79911033D+05 0.11298030D+01  1  2  4  1  7  1       -2 -.101618815283D-01 0.100000000000D+01
-.190841354464D-03 0.000000000000D+00 -.105491438035D-04 0.477475483421D-05 0.000000000000D+00  7 -2 1 -24 -13 13 23 21 2 0.38420915D-01 0.85113991D-01 0.79911033D+05 0.79911033D+05 0.79911033D+05 0.11298030D+01  1  2  5  1  7  1       -2 -.660430291024D-02 0.100000000000D+01
0.186109004947D-03 0.000000000000D+00 0.100972823490D-04 0.477475483421D-05 0.000000000000D+00  7 -2 1 -24 -13 13 23 21 2 0.28518083D-01 0.85113991D-01 0.79911033D+05 0.79911033D+05 0.79911033D+05 0.11298030D+01  1  2  6  1  7  1       -2 0.109627178939D-01 0.100000000000D+01
0.679002886014D-05 0.000000000000D+00 0.000000000000D+00 0.477475483421D-05 0.000000000000D+00  7 21 1 -24 -13 13 23 2 2 0.38326197D-01 0.85113991D-01 0.89864177D+05 0.89864177D+05 0.89864177D+05 0.11255508D+01  1  2 12  3  7  1       -2 0.265405069659D-02 0.100000000000D+01
-.710841611403D-05 0.000000000000D+00 -.405875917578D-06 0.477475483421D-05 0.000000000000D+00  7 21 1 -24 -13 13 23 2 2 0.38420915D-01 0.85113991D-01 0.79911033D+05 0.79911033D+05 0.79911033D+05 0.11298030D+01  1  2  5  3  7  1       -2 -.280017852938D-02 0.100000000000D+01
  </mgrwgt>
  </event>
  <event>
  8     66 0.26562228E-05 0.21000783E+03 0.75467711E-02 0.98318749E-01
       -2 -1    0    0    0  501 0.00000000E+00 0.00000000E+00 0.78051498E+02 0.78052154E+02 0.32000000E+00 0.0000E+00 0.9000E+01
        1 -1    0    0  501    0 0.00000000E+00 0.00000000E+00 -.75409325E+03 0.75409332E+03 0.32000000E+00 0.0000E+00 0.9000E+01
       25  2    1    2    0    0 0.12311682E+03 -.25359715E+02 -.54168459E+03 0.63134724E+03 0.29895865E+03 0.0000E+00 0.0000E+00
       23  2    3    3    0    0 0.59362048E+02 -.10679484E+03 -.14354439E+03 0.21000745E+03 0.92569679E+02 0.0000E+00 0.0000E+00
      -24  1    1    2    0    0 -.12311682E+03 0.25359715E+02 -.13435717E+03 0.20079824E+03 0.80419002E+02 0.0000E+00 0.9000E+01
      -13  1    4    4    0    0 0.16249218E+02 0.15280186E+01 -.70643343E+02 0.72504242E+02 0.10565837E+00 0.0000E+00 0.9000E+01
       13  1    4    4    0    0 0.43112830E+02 -.10832286E+03 -.72901047E+02 0.13750321E+03 0.10565837E+00 0.0000E+00 0.9000E+01
       23  1    3    3    0    0 0.63754774E+02 0.81435125E+02 -.39814020E+03 0.42133979E+03 0.91188000E+02 0.0000E+00 0.9000E+01
#aMCatNLO 1  0  0  2  2 0.24298134D+03 0.00000000D+00  -5  7  0 0.00000000D+00 0.00000000D+00 0.00000000D+00 0.00000000D+00 0.00000000D+00
  <mgrwgt>
 0.1327218081D-02    5    2    0
 0.242607520158746D+03 0.000000000000000D+00 0.000000000000000D+00 0.242607520158746D+03
 0.242607520158746D+03 0.000000000000000D+00 0.000000000000000D+00 -.242607520158746D+03
 0.157172145771052D+03 -.123116824993114D+03 0.253597158682747D+02 0.493457157877100D+02
 0.259187288791148D+02 0.162491822368378D+02 0.152816006650547D+01 -.201347786219326D+02
 0.134246841662999D+03 0.431128659937005D+02 -.108323001196833D+03 0.665554107042428D+02
 0.167877324004327D+03 0.637547767625756D+02 0.814351252620531D+02 -.957663478700202D+02
 0.000000000000000D+00 -.000000000000000D+00 0.000000000000000D+00 -.000000000000000D+00
 0.327141466093544D+03 0.000000000000000D+00 0.000000000000000D+00 0.327141466093544D+03
 0.535774784840597D+03 0.000000000000000D+00 0.000000000000000D+00 -.535774784840597D+03
 0.118578625046246D+03 -.705921122372975D+02 -.132449381562567D+02 0.493457157877100D+02
 0.350904006303292D+02 0.278701361637051D+02 -.701301764287763D+01 -.201347786219326D+02
 0.199660438445683D+03 0.106715168619374D+03 -.155069470795675D+03 0.665554107042428D+02
 0.189324720899346D+03 0.131794241344115D+03 0.314274269354438D+02 -.957663478700202D+02
 0.320262065912536D+03 -.195787433889897D+03 0.143899999659366D+03 -.208633318747054D+03
0.113060557663D-04 0.000000000000D+00 0.000000000000D+00 0.213079851733D-06 0.000000000000D+00  7 -2 1 -24 -13 13 23 21 0 0.12007978D-01 0.11601440D+00 0.44103290D+05 0.44103290D+05 0.44103290D+05 0.11521202D+01  1  2  2  2  7  2        1 0.136629274084D-02 0.100000000000D+01
-.612212134605D-06 0.000000000000D+00 -.434182310956D-07 0.213079851733D-06 0.000000000000D+00  7 -2 1 -24 -13 13 23 21 2 0.12007978D-01 0.11601440D+00 0.44103290D+05 0.44103290D+05 0.44103290D+05 0.11521202D+01  1  2  3  2  7  2        1 -.982042156723D-04 0.100000000000D+01
0.736574986505D-06 0.000000000000D+00 0.000000000000D+00 0.213079851733D-06 0.000000000000D+00  7 -2 1 -24 -13 13 23 21 2 0.12007978D-01 0.11601440D+00 0.44103290D+05 0.44103290D+05 0.44103290D+05 0.11521202D+01  1  2 15  2  7  2        1 0.118153111879D-03 0.100000000000D+01
-.239331013264D-05 0.000000000000D+00 -.343540694162D-05 0.213079851733D-06 0.000000000000D+00  7 -2 1 -24 -13 13 23 21 2 0.12007978D-01 0.29662834D+00 0.44103290D+05 0.44103290D+05 0.44103290D+05 0.11521202D+01  1  2  5  2  7  2        1 -.584656584263D-04 0.100000000000D+01
-.387588622266D-07 0.000000000000D+00 -.356307712179D-06 0.213079851733D-06 0.000000000000D+00  7 -2 21 -24 -13 13 23 -1 2 0.12007978D-01 0.29662834D+00 0.44103290D+05 0.44103290D+05 0.44103290D+05 0.11521202D+01  1  2  5  4  7  2        1 -.557897262684D-06 0.100000000000D+01
  </mgrwgt>
  </event>
  <event>
  9     66 0.26562228E-05 0.16829911E+03 0.75467711E-02 0.10744961E+00
       21 -1    0    0  502  501 0.00000000E+00 0.00000000E+00 0.18371662E+03 0.18371815E+03 0.75000000E+00 0.0000E+00 0.9000E+01
        1 -1    0    0  501    0 0.00000000E+00 0.00000000E+00 -.44227271E+03 0.44227283E+03 0.32000000E+00 0.0000E+00 0.9000E+01
       25  2    1    2    0    0 0.15632259E+02 -.49973360E+02 -.31326985E+03 0.43687919E+03 0.29997286E+03 0.0000E+00 0.0000E+00
       23  2    3    3    0    0 -.12623570E+02 0.40720032E+02 -.59906033E+01 0.10257473E+03 0.93103230E+02 0.0000E+00 0.0000E+00
      -24  1    1    2    0    0 0.74052921E+01 0.73988004E+02 0.89149426E+02 0.14122287E+03 0.80419002E+02 0.0000E+00 0.9000E+01
      -13  1    4    4    0    0 -.10084678E+02 -.26591131E+02 0.14826559E+02 0.32072215E+02 0.10565837E+00 0.0000E+00 0.9000E+01
       13  1    4    4    0    0 -.25388916E+01 0.67311163E+02 -.20817162E+02 0.70502510E+02 0.10565837E+00 0.0000E+00 0.9000E+01
       23  1    3    3    0    0 0.28255829E+02 -.90693391E+02 -.30727925E+03 0.33430446E+03 0.91188000E+02 0.0000E+00 0.9000E+01
        2  1    1    2  502    0 -.23037551E+02 -.24014644E+02 -.34435662E+02 0.47888925E+02 0.32000000E+00 0.0000E+00 0.9000E+01
#aMCatNLO 2  0  0  1  1 0.33278099D+02 0.00000000D+00  -5  7  0 0.00000000D+00 0.00000000D+00 0.00000000D+00 0.00000000D+00 0.00000000D+00
  <mgrwgt>
 0.1592174082D-03    1    2    0
 0.265925079042803D+03 0.000000000000000D+00 0.000000000000000D+00 0.265925079042803D+03
 0.265925079042803D+03 0.000000000000000D+00 0.000000000000000D+00 -.265925079042803D+03
 0.187410012576870D+03 -.775760265986326D+00 0.654599685469138D+02 0.156107935652031D+03
 0.427466909989033D+02 -.118973225414788D+02 -.284807620195071D+02 0.295732903561295D+02
 0.649320957234685D+02 -.540924068818474D+01 0.643191821155917D+02 0.706823755969628D+01
 0.236761358786365D+03 0.180823234956498D+02 -.101298388642998D+03 -.192749463567857D+03
 0.000000000000000D+00 -.000000000000000D+00 -.000000000000000D+00 -.000000000000000D+00
 0.276570845652287D+03 0.000000000000000D+00 0.000000000000000D+00 0.276570845652287D+03
 0.293787183375104D+03 0.000000000000000D+00 0.000000000000000D+00 -.293787183375104D+03
 0.190698627904290D+03 0.740529216833652D+01 0.739880044640429D+02 0.156107935652031D+03
 0.410289517432360D+02 -.100846876196204D+02 -.265912477006161D+02 0.295732903561295D+02
 0.677289778621338D+02 -.253888258788777D+01 0.673112808914971D+02 0.706823755969628D+01
 0.233433696252259D+03 0.282558291704613D+02 -.906933934428803D+02 -.192749463567857D+03
 0.374677752654721D+02 -.230375511312896D+02 -.240146442120436D+02 -.172163377228172D+02
0.149143028498D-06 0.000000000000D+00 0.000000000000D+00 0.901429359921D-06 0.440891663450D-10  7 21 1 -24 -13 13 23 2 2 0.28264154D-01 0.68041917D-01 0.34277095D+05 0.34277095D+05 0.34277095D+05 0.11620033D+01  1  2  1  3  7  1       -2 0.159217408204D-03 0.100000000000D+01
  </mgrwgt>
  </event>
  <event>
  8     66 0.26562228E-05 0.12908189E+03 0.75467711E-02 0.10287734E+00
       -2 -1    0    0    0  501 0.00000000E+00 0.00000000E+00 0.32697744E+04 0.32697744E+04 0.32000000E+00 0.0000E+00 0.9000E+01
        1 -1    0    0  501    0 0.00000000E+00 0.00000000E+00 -.26989043E+02 0.26990940E+02 0.32000000E+00 0.0000E+00 0.9000E+01
       25  2    1    2    0    0 0.92860948E+02 -.50932122E+02 0.30244395E+04 0.30411106E+04 0.29983662E+03 0.0000E+00 0.0000E+00
       23  2    3    3    0    0 -.35976093E+01 -.12485706E+03 0.19092737E+04 0.19156421E+04 0.93576576E+02 0.0000E+00 0.0000E+00
      -24  1    1    2    0    0 -.92860948E+02 0.50932122E+02 0.21834584E+03 0.25565477E+03 0.80419002E+02 0.0000E+00 0.9000E+01
      -11  1    4    4    0    0 -.25906839E+02 -.10308956E+03 0.17569320E+04 0.17601445E+04 0.51099893E-03 0.0000E+00 0.9000E+01
       11  1    4    4    0    0 0.22309230E+02 -.21767502E+02 0.15234168E+03 0.15549763E+03 0.51099893E-03 0.0000E+00 0.9000E+01
       23  1    3    3    0    0 0.96458557E+02 0.73924942E+02 0.11151658E+04 0.11254684E+04 0.91188000E+02 0.0000E+00 0.9000E+01
#aMCatNLO 1  0  0  1  2 0.92179924D+02 0.00000000D+00  -5  7  0 0.00000000D+00 0.00000000D+00 0.00000000D+00 0.00000000D+00 0.00000000D+00
  <mgrwgt>
 0.7930697433D-04    9    2    0
 0.297071092480817D+03 0.000000000000000D+00 0.000000000000000D+00 0.297071092480817D+03
 0.297071092480817D+03 0.000000000000000D+00 0.000000000000000D+00 -.297071092480817D+03
 0.226856599946749D+03 -.928609479384820D+02 0.509321220653849D+02 -.183791904813330D+03
 0.177449205518023D+03 -.259068388866913D+02 -.103089562121419D+03 0.142090106691109D+03
 0.313524855108763D+02 0.223092296132877D+02 -.217675015899886D+02 -.338415370530917D+01
 0.158483893985985D+03 0.964585572118856D+02 0.739249416460230D+02 0.450859518275302D+02
 0.000000000000000D+00 -.000000000000000D+00 0.000000000000000D+00 0.000000000000000D+00
 0.544807413342760D+03 0.000000000000000D+00 0.000000000000000D+00 0.544807413342760D+03
 0.309324801160208D+03 0.000000000000000D+00 0.000000000000000D+00 -.309324801160208D+03
 0.213809690561803D+03 -.596617944773061D+02 0.436849382350369D+02 -.183791904813330D+03
 0.179056366437932D+03 0.951769198513080D+00 -.108952641445065D+03 0.142090106691109D+03
 0.358294384550859D+02 0.273706174516655D+02 -.228723733796958D+02 -.338415370530917D+01
 0.172554930253623D+03 0.121398537791872D+03 0.684806876472022D+02 0.450859518275302D+02
 0.252881788794525D+03 -.900591299647445D+02 0.196593889425212D+02 0.235482612182552D+03
0.381943323969D-03 0.000000000000D+00 0.000000000000D+00 0.108285668942D-05 0.000000000000D+00  7 -2 1 -24 -11 11 23 21 0 0.50304236D+00 0.41523076D-02 0.44601788D+05 0.44601788D+05 0.44601788D+05 0.11516855D+01  1  2  2  1  7  1       -2 0.811825674999D-04 0.100000000000D+01
-.182154642493D-04 0.000000000000D+00 -.146676293203D-05 0.108285668942D-05 0.000000000000D+00  7 -2 1 -24 -11 11 23 21 2 0.50304236D+00 0.41523076D-02 0.44601788D+05 0.44601788D+05 0.44601788D+05 0.11516855D+01  1  2  3  1  7  1       -2 -.513537174235D-05 0.100000000000D+01
0.236801211682D-04 0.000000000000D+00 0.000000000000D+00 0.108285668942D-05 0.000000000000D+00  7 -2 1 -24 -11 11 23 21 2 0.50304236D+00 0.41523076D-02 0.44601788D+05 0.44601788D+05 0.44601788D+05 0.11516855D+01  1  2 15  1  7  1       -2 0.667598823937D-05 0.100000000000D+01
0.405211803829D-03 0.000000000000D+00 0.000000000000D+00 0.108285668942D-05 0.000000000000D+00  7 -2 1 -24 -11 11 23 21 2 0.92495117D+00 0.41523076D-02 0.65693442D+05 0.65693442D+05 0.65693442D+05 0.11370113D+01  1  2 12  1  7  1       -2 0.309027846676D-05 0.100000000000D+01
-.475828473565D-03 0.000000000000D+00 0.000000000000D+00 0.108285668942D-05 0.000000000000D+00  7 -2 1 -24 -11 11 23 21 2 0.50304236D+00 0.41523076D-02 0.44601788D+05 0.44601788D+05 0.44601788D+05 0.11516855D+01  1  2  4  1  7  1       -2 -.134147341177D-03 0.100000000000D+01
-.504915986039D-03 0.000000000000D+00 -.639260582613D-04 0.108285668942D-05 0.000000000000D+00  7 -2 1 -24 -11 11 23 21 2 0.92360689D+00 0.41523076D-02 0.44601788D+05 0.44601788D+05 0.44601788D+05 0.11516855D+01  1  2  5  1  7  1       -2 -.428309069912D-05 0.100000000000D+01
0.467942852360D-03 0.000000000000D+00 0.540040942237D-04 0.108285668942D-05 0.000000000000D+00  7 -2 1 -24 -11 11 23 21 2 0.50304236D+00 0.41523076D-02 0.44601788D+05 0.44601788D+05 0.44601788D+05 0.11516855D+01  1  2  6  1  7  1       -2 0.131924197383D-03 0.100000000000D+01
0.269513184589D-04 0.000000000000D+00 0.000000000000D+00 0.108285668942D-05 0.000000000000D+00  7 21 1 -24 -11 11 23 2 2 0.92495117D+00 0.41523076D-02 0.65693442D+05 0.65693442D+05 0.65693442D+05 0.11370113D+01  1  2 12  3  7  1       -2 0.831064847825D-09 0.100000000000D+01
-.300143546981D-04 0.000000000000D+00 -.424281030317D-05 0.108285668942D-05 0.000000000000D+00  7 21 1 -24 -11 11 23 2 2 0.92360689D+00 0.41523076D-02 0.44601788D+05 0.44601788D+05 0.44601788D+05 0.11516855D+01  1  2  5  3  7  1       -2 -.108470210191D-08 0.100000000000D+01
  </mgrwgt>
  </event>
  <event>
  8     66 0.26562228E-05 0.16804280E+03 0.75467711E-02 0.99638048E-01
       -2 -1    0    0    0  501 0.00000000E+00 0.00000000E+00 0.12657661E+04 0.12657661E+04 0.32000000E+00 0.0000E+00 0.9000E+01
        1 -1    0    0  501    0 0.00000000E+00 0.00000000E+00 -.11339953E+03 0.11339998E+03 0.32000000E+00 0.0000E+00 0.9000E+01
       25  2    1    2    0    0 0.10936573E+03 -.45112849E+01 0.12586283E+03 0.34371531E+03 0.30052878E+03 0.0000E+00 0.0000E+00
       23  2    3    3    0    0 0.88983612E+01 -.14512962E+02 -.63237596E+02 0.11076049E+03 0.89325734E+02 0.0000E+00 0.0000E+00
      -24  1    1    2    0    0 -.10936573E+03 0.45112849E+01 0.10265037E+04 0.10354508E+04 0.80419002E+02 0.0000E+00 0.9000E+01
      -11  1    4    4    0    0 0.26832473E+02 -.30191346E+02 0.28683883E+01 0.40493538E+02 0.51099893E-03 0.0000E+00 0.9000E+01
       11  1    4    4    0    0 -.17934111E+02 0.15678384E+02 -.66105984E+02 0.70266957E+02 0.51099893E-03 0.0000E+00 0.9000E+01
       23  1    3    3    0    0 0.10046737E+03 0.10001677E+02 0.18910042E+03 0.23295482E+03 0.91188000E+02 0.0000E+00 0.9000E+01
#aMCatNLO 1  0  0  1  2 0.21992506D+03 0.00000000D+00  -5  7  0 0.00000000D+00 0.00000000D+00 0.00000000D+00 0.00000000D+00 0.00000000D+00
  <mgrwgt>
 0.7933342641D-03    7    2    0
 0.378863579648662D+03 0.000000000000000D+00 0.000000000000000D+00 0.378863579648662D+03
 0.378863579648662D+03 0.000000000000000D+00 0.000000000000000D+00 -.378863579648662D+03
 0.323533417498545D+03 -.109365728039807D+03 0.451128489472694D+01 0.293641690028577D+03
 0.693414229036806D+02 0.268324726578830D+02 -.301913457655192D+02 -.563625228519617D+02
 0.228430677720651D+03 -.179341114639585D+02 0.156783837836776D+02 -.227185233789183D+03
 0.136421641174448D+03 0.100467366845882D+03 0.100016770871147D+02 -.100939333874320D+02
 0.000000000000000D+00 0.000000000000000D+00 0.000000000000000D+00 0.000000000000000D+00
 0.634770503470504D+03 0.000000000000000D+00 0.000000000000000D+00 0.634770503470504D+03
 0.444824251859993D+03 0.000000000000000D+00 0.000000000000000D+00 -.444824251859993D+03
 0.354028753626140D+03 -.164651714661354D+03 -.743875875126043D+02 0.293641690028577D+03
 0.749102635839049D+02 0.150621921594154D+02 -.469887643519709D+02 -.563625228519617D+02
 0.237118158409529D+03 -.559207757478379D+02 -.385325503365765D+02 -.227185233789183D+03
 0.122940592645566D+03 0.793045900555157D+02 -.201998138837854D+02 -.100939333874320D+02
 0.290596987065357D+03 0.126205708194260D+03 0.180108716084937D+03 0.189946251610512D+03
0.208269877985D-03 0.000000000000D+00 0.000000000000D+00 0.166778540832D-05 0.000000000000D+00  7 -2 1 -24 -11 11 23 21 0 0.19473328D+00 0.17446119D-01 0.28238383D+05 0.28238383D+05 0.28238383D+05 0.11697822D+01  1  2  2  1  7  1       -2 0.107374779572D-02 0.100000000000D+01
-.227294311956D-05 0.000000000000D+00 -.799811170180D-06 0.166778540832D-05 0.000000000000D+00  7 -2 1 -24 -11 11 23 21 2 0.19473328D+00 0.17446119D-01 0.28238383D+05 0.28238383D+05 0.28238383D+05 0.11697822D+01  1  2  3  1  7  1       -2 -.160352018137D-04 0.100000000000D+01
0.127843839591D-04 0.000000000000D+00 0.000000000000D+00 0.166778540832D-05 0.000000000000D+00  7 -2 1 -24 -11 11 23 21 2 0.19473328D+00 0.17446119D-01 0.28238383D+05 0.28238383D+05 0.28238383D+05 0.11697822D+01  1  2 15  1  7  1       -2 0.901915120903D-04 0.100000000000D+01
-.119382812470D-03 0.000000000000D+00 0.000000000000D+00 0.166778540832D-05 0.000000000000D+00  7 -2 1 -24 -11 11 23 21 2 0.19473328D+00 0.17446119D-01 0.28238383D+05 0.28238383D+05 0.28238383D+05 0.11697822D+01  1  2  4  1  7  1       -2 -.842224107840D-03 0.100000000000D+01
-.447059116715D-04 0.000000000000D+00 -.576682904332D-04 0.166778540832D-05 0.000000000000D+00  7 -2 1 -24 -11 11 23 21 2 0.34715754D+00 0.17446119D-01 0.28238383D+05 0.28238383D+05 0.28238383D+05 0.11697822D+01  1  2  5  1  7  1       -2 -.342094334365D-04 0.100000000000D+01
0.738184547025D-04 0.000000000000D+00 0.492119578797D-04 0.166778540832D-05 0.000000000000D+00  7 -2 1 -24 -11 11 23 21 2 0.19473328D+00 0.17446119D-01 0.28238383D+05 0.28238383D+05 0.28238383D+05 0.11697822D+01  1  2  6  1  7  1       -2 0.520775820805D-03 0.100000000000D+01
0.179088391489D-06 0.000000000000D+00 -.366487319742D-05 0.166778540832D-05 0.000000000000D+00  7 21 1 -24 -11 11 23 2 2 0.34715754D+00 0.17446119D-01 0.28238383D+05 0.28238383D+05 0.28238383D+05 0.11697822D+01  1  2  5  3  7  1       -2 0.108787853995D-05 0.100000000000D+01
  </mgrwgt>
  </event>
  <event>
  9     66 0.26562228E-05 0.45280230E+03 0.75467711E-02 0.95023467E-01
       -2 -1    0    0    0  501 0.00000000E+00 0.00000000E+00 0.63119568E+03 0.63119576E+03 0.32000000E+00 0.0000E+00 0.9000E+01
        1 -1    0    0  502    0 0.00000000E+00 0.00000000E+00 -.37970045E+03 0.37970059E+03 0.32000000E+00 0.0000E+00 0.9000E+01
       25  2    1    2    0    0 -.34516049E+03 -.19478126E+03 0.83398849E+02 0.50417455E+03 0.30026838E+03 0.0000E+00 0.0000E+00
       23  2    3    3    0    0 -.25534899E+03 -.23074772E+03 0.97409794E+02 0.37049115E+03 0.96578488E+02 0.0000E+00 0.0000E+00
      -24  1    1    2    0    0 0.32616364E+03 0.24958173E+03 0.13395016E+03 0.43941281E+03 0.80419002E+02 0.0000E+00 0.9000E+01
      -11  1    4    4    0    0 -.13010193E+03 -.17763917E+03 0.45220439E+02 0.22478228E+03 0.51099893E-03 0.0000E+00 0.9000E+01
       11  1    4    4    0    0 -.12524706E+03 -.53108556E+02 0.52189355E+02 0.14570887E+03 0.51099893E-03 0.0000E+00 0.9000E+01
       23  1    3    3    0    0 -.89811504E+02 0.35966469E+02 -.14010945E+02 0.13368340E+03 0.91188000E+02 0.0000E+00 0.9000E+01
       21  1    1    2  502  501 0.18996856E+02 -.54800479E+02 0.34146214E+02 0.67308985E+02 0.75000000E+00 0.0000E+00 0.9000E+01
#aMCatNLO 2  0  0  2  2 0.57999768D+02 0.00000000D+00  -5  7  0 0.00000000D+00 0.00000000D+00 0.00000000D+00 0.00000000D+00 0.00000000D+00
  <mgrwgt>
 0.5266427549D-03    1    2    0
 0.458190064653325D+03 0.000000000000000D+00 0.000000000000000D+00 0.458190064653325D+03
 0.458190064653325D+03 0.000000000000000D+00 0.000000000000000D+00 -.458190064653325D+03
 0.412524579326281D+03 0.334782691147366D+03 0.224718232316023D+03 0.336389412265514D+02
 0.228656512952667D+03 -.125453175901456D+03 -.191049478342015D+03 -.673783326859192D+01
 0.138236099418942D+03 -.122393094434419D+03 -.613414330075007D+02 0.191410086964458D+02
 0.136962937608761D+03 -.869364208114921D+02 0.276726790334930D+02 -.460421166544052D+02
 0.000000000000000D+00 0.000000000000000D+00 -.000000000000000D+00 0.000000000000000D+00
 0.499226253647570D+03 0.000000000000000D+00 0.000000000000000D+00 0.499226253647570D+03
 0.480069155359876D+03 0.000000000000000D+00 0.000000000000000D+00 -.480069155359876D+03
 0.419848251007878D+03 0.326163635518240D+03 0.249581734946059D+03 0.336389412265514D+02
 0.220289772398279D+03 -.130101925676693D+03 -.177639168995317D+03 -.673783326859192D+01
 0.137381670617575D+03 -.125247061798258D+03 -.531085559835876D+02 0.191410086964458D+02
 0.140694068919915D+03 -.898115040649021D+02 0.359664693405387D+02 -.460421166544052D+02
 0.610816460637988D+02 0.189968560216124D+02 -.548004793076934D+02 0.191570982876944D+02
0.687257547491D-04 0.000000000000D+00 0.000000000000D+00 0.346975577467D-06 0.660093174422D-09  7 -2 1 -24 -11 11 23 21 2 0.97106584D-01 0.58415195D-01 0.23313147D+06 0.23313147D+06 0.23313147D+06 0.10927489D+01  1  2  1  2  7  2        1 0.526642754851D-03 0.100000000000D+01
  </mgrwgt>
  </event>
  <event>
  8     66 0.26562228E-05 0.19112657E+03 0.75467711E-02 0.10127399E+00
       -2 -1    0    0    0  501 0.00000000E+00 0.00000000E+00 0.34682551E+03 0.34682565E+03 0.32000000E+00 0.0000E+00 0.9000E+01
        1 -1    0    0  501    0 0.00000000E+00 0.00000000E+00 -.39471910E+03 0.39471923E+03 0.32000000E+00 0.0000E+00 0.9000E+01
       25  2    1    2    0    0 0.20948136E+03 -.43453982E+01 0.19199111E+03 0.41304342E+03 0.29973816E+03 0.0000E+00 0.0000E+00
       23  2    3    3    0    0 -.29236377E+02 0.28486379E+02 0.53374603E+02 0.12047913E+03 0.10000066E+03 0.0000E+00 0.0000E+00
      -24  1    1    2    0    0 -.20948136E+03 0.43453982E+01 -.23988471E+03 0.32850146E+03 0.80419002E+02 0.0000E+00 0.9000E+01
      -13  1    4    4    0    0 -.13121206E+02 0.57228742E+02 0.11468021E+01 0.58724963E+02 0.10565837E+00 0.0000E+00 0.9000E+01
       13  1    4    4    0    0 -.16115171E+02 -.28742363E+02 0.52227801E+02 0.61754162E+02 0.10565837E+00 0.0000E+00 0.9000E+01
       23  1    3    3    0    0 0.23871773E+03 -.32831777E+02 0.13861651E+03 0.29256430E+03 0.91188000E+02 0.0000E+00 0.9000E+01
#aMCatNLO 1  0  0  2  1 0.45174130D+01 0.00000000D+00  -5  7  0 0.00000000D+00 0.00000000D+00 0.00000000D+00 0.00000000D+00 0.00000000D+00
  <mgrwgt>
 0.1017429767D-02   11    2    0
 0.369998319035355D+03 0.000000000000000D+00 0.000000000000000D+00 0.369998319035355D+03
 0.369998319035355D+03 0.000000000000000D+00 0.000000000000000D+00 -.369998319035355D+03
 0.313663099096463D+03 -.209481355551888D+03 0.434539816383750D+01 -.219125541576896D+03
 0.589220368268249D+02 -.131212154991995D+02 0.572288262121739D+02 0.494990687004093D+01
 0.652636098774182D+02 -.161151858125840D+02 -.287424431711188D+02 0.563339286843438D+02
 0.302147892270004D+03 0.238717756863672D+03 -.328317812048925D+02 0.157841706022511D+03
 0.000000000000000D+00 0.000000000000000D+00 0.000000000000000D+00 -.000000000000000D+00
 0.370562224711063D+03 0.000000000000000D+00 0.000000000000000D+00 0.370562224711063D+03
 0.379164369751081D+03 0.000000000000000D+00 0.000000000000000D+00 -.379164369751081D+03
 0.314435818979234D+03 -.210662352896587D+03 0.283520783661159D+01 -.219125541576896D+03
 0.586972755282300D+02 -.133423718992171D+02 0.569460243433890D+02 0.494990687004093D+01
 0.654636453689194D+02 -.163609887217796D+02 -.290567615542529D+02 0.563339286843438D+02
 0.301413686655509D+03 0.237582896411664D+03 -.342829743723176D+02 0.157841706022511D+03
 0.971616793025158D+01 0.278281710591935D+01 0.355850374656988D+01 -.860214504001764D+01
0.216588612462D-04 0.000000000000D+00 0.000000000000D+00 0.110273025599D-06 0.000000000000D+00  7 -2 1 -24 -13 13 23 21 0 0.53357792D-01 0.60726037D-01 0.82293507D+05 0.82293507D+05 0.82293507D+05 0.11287342D+01  1  2  2  2  7  2        1 0.496704163341D-03 0.100000000000D+01
-.110852995498D-05 0.000000000000D+00 -.831757300947D-07 0.110273025599D-06 0.000000000000D+00  7 -2 1 -24 -13 13 23 21 2 0.53357792D-01 0.60726037D-01 0.82293507D+05 0.82293507D+05 0.82293507D+05 0.11287342D+01  1  2  3  2  7  2        1 -.323886576953D-04 0.100000000000D+01
0.139826504596D-05 0.000000000000D+00 0.000000000000D+00 0.110273025599D-06 0.000000000000D+00  7 -2 1 -24 -13 13 23 21 2 0.53357792D-01 0.60726037D-01 0.82293507D+05 0.82293507D+05 0.82293507D+05 0.11287342D+01  1  2 15  2  7  2        1 0.408540407386D-04 0.100000000000D+01
0.241609217729D-04 0.000000000000D+00 0.000000000000D+00 0.110273025599D-06 0.000000000000D+00  7 -2 1 -24 -13 13 23 21 2 0.53357792D-01 0.62276065D-01 0.83706191D+05 0.83706191D+05 0.83706191D+05 0.11281163D+01  1  2 12  2  7  2        1 0.681628476389D-03 0.100000000000D+01
-.824249219256D-03 0.000000000000D+00 0.000000000000D+00 0.110273025599D-06 0.000000000000D+00  7 -2 1 -24 -13 13 23 21 2 0.53357792D-01 0.60726037D-01 0.82293507D+05 0.82293507D+05 0.82293507D+05 0.11287342D+01  1  2  4  2  7  2        1 -.240826381805D-01 0.100000000000D+01
-.169492488121D-02 0.000000000000D+00 -.115437557740D-03 0.110273025599D-06 0.000000000000D+00  7 -2 1 -24 -13 13 23 21 2 0.53357792D-01 0.62285150D-01 0.82293507D+05 0.82293507D+05 0.82293507D+05 0.11287342D+01  1  2  5  2  7  2        1 -.478743565645D-01 0.100000000000D+01
0.169734293657D-02 0.000000000000D+00 0.115400474870D-03 0.110273025599D-06 0.000000000000D+00  7 -2 1 -24 -13 13 23 21 2 0.53357792D-01 0.60726037D-01 0.82293507D+05 0.82293507D+05 0.82293507D+05 0.11287342D+01  1  2  6  2  7  2        1 0.495923985788D-01 0.100000000000D+01
0.799899272065D-03 0.000000000000D+00 0.000000000000D+00 0.110273025599D-06 0.366860600158D-07  7 -2 1 -24 -13 13 23 21 2 0.53439113D-01 0.62230417D-01 0.83706191D+05 0.83706191D+05 0.83706191D+05 0.11281163D+01  1  2 11  2  7  2        1 0.225206205994D-01 0.100000000000D+01
0.103318194287D-05 0.000000000000D+00 0.000000000000D+00 0.110273025599D-06 0.000000000000D+00  7 -2 21 -24 -13 13 23 -1 2 0.53357792D-01 0.62276065D-01 0.83706191D+05 0.83706191D+05 0.83706191D+05 0.11281163D+01  1  2 12  4  7  2        1 0.108061260245D-03 0.100000000000D+01
-.773162740763D-05 0.000000000000D+00 -.528419165025D-06 0.110273025599D-06 0.000000000000D+00  7 -2 21 -24 -13 13 23 -1 2 0.53357792D-01 0.62285150D-01 0.82293507D+05 0.82293507D+05 0.82293507D+05 0.11287342D+01  1  2  5  4  7  2        1 -.809979886978D-03 0.100000000000D+01
0.360497449978D-05 0.000000000000D+00 0.000000000000D+00 0.110273025599D-06 0.162808998394D-09  7 -2 21 -24 -13 13 23 -1 2 0.53439113D-01 0.62230417D-01 0.83706191D+05 0.83706191D+05 0.83706191D+05 0.11281163D+01  1  2 11  4  7  2        1 0.376525937898D-03 0.100000000000D+01
  </mgrwgt>
  </event>
  <event>
  8     66 0.26562228E-05 0.19630328E+03 0.75467711E-02 0.10041048E+00
       -2 -1    0    0    0  501 0.00000000E+00 0.00000000E+00 0.31233283E+03 0.31233300E+03 0.32000000E+00 0.0000E+00 0.9000E+01
        1 -1    0    0  501    0 0.00000000E+00 0.00000000E+00 -.37996953E+03 0.37996966E+03 0.32000000E+00 0.0000E+00 0.9000E+01
       25  2    1    2    0    0 0.11468055E+03 -.22678417E+03 -.13890599E+03 0.41638743E+03 0.29916705E+03 0.0000E+00 0.0000E+00
       23  2    3    3    0    0 0.45415071E+02 0.12124768E+02 0.23344169E+02 0.10571790E+03 0.91770290E+02 0.0000E+00 0.0000E+00
      -24  1    1    2    0    0 -.11468055E+03 0.22678417E+03 0.71269290E+02 0.27591523E+03 0.80419002E+02 0.0000E+00 0.9000E+01
      -13  1    4    4    0    0 0.49733252E+02 0.21132644E+00 -.25054133E+02 0.55688076E+02 0.10565837E+00 0.0000E+00 0.9000E+01
       13  1    4    4    0    0 -.43181809E+01 0.11913442E+02 0.48398302E+02 0.50029827E+02 0.10565837E+00 0.0000E+00 0.9000E+01
       23  1    3    3    0    0 0.69265478E+02 -.23890894E+03 -.16225016E+03 0.31066952E+03 0.91188000E+02 0.0000E+00 0.9000E+01
#aMCatNLO 1  0  0  2  1 0.25409218D+02 0.00000000D+00  -5  7  0 0.00000000D+00 0.00000000D+00 0.00000000D+00 0.00000000D+00 0.00000000D+00
  <mgrwgt>
 0.9914801134D-03    9    2    0
 0.344495373604673D+03 0.000000000000000D+00 0.000000000000000D+00 0.344495373604673D+03
 0.344495373604673D+03 0.000000000000000D+00 0.000000000000000D+00 -.344495373604673D+03
 0.284237880654242D+03 -.114680549577198D+03 0.226784171121138D+03 0.986978628036835D+02
 0.534962518190649D+02 0.497333235637490D+02 0.211311081176582D+00 -.197078875991118D+02
 0.550214718032943D+02 -.431825240522696D+01 0.119134576124279D+02 0.535423625112149D+02
 0.296235142932745D+03 0.692654784186762D+02 -.238908939814743D+03 -.132532337715787D+03
 0.000000000000000D+00 -.000000000000000D+00 0.000000000000000D+00 -.000000000000000D+00
 0.349091055887430D+03 0.000000000000000D+00 0.000000000000000D+00 0.349091055887430D+03
 0.381736836814246D+03 0.000000000000000D+00 0.000000000000000D+00 -.381736836814246D+03
 0.275102544862108D+03 -.110935084245837D+03 0.217178113990779D+03 0.986978628036835D+02
 0.541916345121455D+02 0.504544251084636D+02 -.163811002474526D+01 -.197078875991118D+02
 0.545916834012255D+02 -.358425884075198D+01 0.100309721293492D+02 0.535423625112149D+02
 0.305573257177616D+03 0.732953185587926D+02 -.249244337739278D+03 -.132532337715787D+03
 0.413687727485827D+02 -.923040058066777D+01 0.236733616438947D+02 -.326457809268160D+02
0.237236769413D-04 0.000000000000D+00 0.000000000000D+00 0.113884980243D-05 0.000000000000D+00  7 -2 1 -24 -13 13 23 21 0 0.48051228D-01 0.58456874D-01 0.88177035D+05 0.88177035D+05 0.88177035D+05 0.11262340D+01  1  2  2  2  7  2        1 0.702216228568D-03 0.100000000000D+01
-.128262973719D-05 0.000000000000D+00 -.911051660423D-07 0.113884980243D-05 0.000000000000D+00  7 -2 1 -24 -13 13 23 21 2 0.48051228D-01 0.58456874D-01 0.88177035D+05 0.88177035D+05 0.88177035D+05 0.11262340D+01  1  2  3  2  7  2        1 -.481556729986D-04 0.100000000000D+01
0.151432842647D-05 0.000000000000D+00 0.000000000000D+00 0.113884980243D-05 0.000000000000D+00  7 -2 1 -24 -13 13 23 21 2 0.48051228D-01 0.58456874D-01 0.88177035D+05 0.88177035D+05 0.88177035D+05 0.11262340D+01  1  2 15  2  7  2        1 0.568546809754D-04 0.100000000000D+01
0.139619389353D-03 0.000000000000D+00 0.000000000000D+00 0.113884980243D-05 0.000000000000D+00  7 -2 1 -24 -13 13 23 21 2 0.48051228D-01 0.65139800D-01 0.95687205D+05 0.95687205D+05 0.95687205D+05 0.11232966D+01  1  2 12  2  7  2        1 0.450641573683D-02 0.100000000000D+01
-.142165771946D-03 0.000000000000D+00 0.000000000000D+00 0.113884980243D-05 0.000000000000D+00  7 -2 1 -24 -13 13 23 21 2 0.48051228D-01 0.58456874D-01 0.88177035D+05 0.88177035D+05 0.88177035D+05 0.11262340D+01  1  2  4  2  7  2        1 -.533754070013D-02 0.100000000000D+01
-.235253591604D-03 0.000000000000D+00 -.302717494947D-04 0.113884980243D-05 0.000000000000D+00  7 -2 1 -24 -13 13 23 21 2 0.48051228D-01 0.65346034D-01 0.88177035D+05 0.88177035D+05 0.88177035D+05 0.11262340D+01  1  2  5  2  7  2        1 -.761033990282D-02 0.100000000000D+01
0.237338582092D-03 0.000000000000D+00 0.300848553411D-04 0.113884980243D-05 0.000000000000D+00  7 -2 1 -24 -13 13 23 21 2 0.48051228D-01 0.58456874D-01 0.88177035D+05 0.88177035D+05 0.88177035D+05 0.11262340D+01  1  2  6  2  7  2        1 0.891075484827D-02 0.100000000000D+01
0.242748350015D-05 0.000000000000D+00 0.000000000000D+00 0.113884980243D-05 0.000000000000D+00  7 -2 21 -24 -13 13 23 -1 2 0.48051228D-01 0.65139800D-01 0.95687205D+05 0.95687205D+05 0.95687205D+05 0.11232966D+01  1  2 12  4  7  2        1 0.277482957038D-03 0.100000000000D+01
-.406974759306D-05 0.000000000000D+00 -.539390007789D-06 0.113884980243D-05 0.000000000000D+00  7 -2 21 -24 -13 13 23 -1 2 0.48051228D-01 0.65346034D-01 0.88177035D+05 0.88177035D+05 0.88177035D+05 0.11262340D+01  1  2  5  4  7  2        1 -.466208062344D-03 0.100000000000D+01
  </mgrwgt>
  </event>
  <event>
  8     66 0.26562228E-05 0.18901858E+03 0.75467711E-02 0.99859476E-01
       -2 -1    0    0    0  501 0.00000000E+00 0.00000000E+00 0.18890988E+03 0.18891015E+03 0.32000000E+00 0.0000E+00 0.9000E+01
        1 -1    0    0  501    0 0.00000000E+00 0.00000000E+00 -.68896465E+03 0.68896472E+03 0.32000000E+00 0.0000E+00 0.9000E+01
       25  2    1    2    0    0 -.18698653E+03 -.18505366E+03 -.44512319E+03 0.59735123E+03 0.29914046E+03 0.0000E+00 0.0000E+00
       23  2    3    3    0    0 -.64314411E+02 0.47741743E+02 -.12346156E+03 0.17188254E+03 0.88798836E+02 0.0000E+00 0.0000E+00
      -24  1    1    2    0    0 0.18698653E+03 0.18505366E+03 -.54931581E+02 0.28052364E+03 0.80419002E+02 0.0000E+00 0.9000E+01
      -11  1    4    4    0    0 -.38470097E+02 0.22479501E+02 -.13949053E+01 0.44578269E+02 0.51099893E-03 0.0000E+00 0.9000E+01
       11  1    4    4    0    0 -.25844315E+02 0.25262243E+02 -.12206665E+03 0.12730427E+03 0.51099893E-03 0.0000E+00 0.9000E+01
       23  1    3    3    0    0 -.12267212E+03 -.23279540E+03 -.32166163E+03 0.42546869E+03 0.91188000E+02 0.0000E+00 0.9000E+01
#aMCatNLO 1  0  0  2  1 0.11780305D+02 0.00000000D+00  -5  7  0 0.00000000D+00 0.00000000D+00 0.00000000D+00 0.00000000D+00 0.00000000D+00
  <mgrwgt>
 0.9653313126D-03    9    2    0
 0.360766377545281D+03 0.000000000000000D+00 0.000000000000000D+00 0.360766377545281D+03
 0.360766377545281D+03 0.000000000000000D+00 0.000000000000000D+00 -.360766377545281D+03
 0.303237596366635D+03 0.186986529885857D+03 0.185053661162026D+03 0.127581362383457D+03
 0.532707803628713D+02 -.384700966016031D+02 0.224795005682775D+02 0.291975985679201D+02
 0.702909287531354D+02 -.258443147382278D+02 0.252622427058285D+02 -.602885159392864D+02
 0.294733449607920D+03 -.122672118546027D+03 -.232795404436132D+03 -.964904450120906D+02
 0.000000000000000D+00 -.000000000000000D+00 -.000000000000000D+00 -.000000000000000D+00
 0.363786256901354D+03 0.000000000000000D+00 0.000000000000000D+00 0.363786256901354D+03
 0.372488833271091D+03 0.000000000000000D+00 0.000000000000000D+00 -.372488833271091D+03
 0.307172194188364D+03 0.191676181715027D+03 0.186737190360283D+03 0.127581362383457D+03
 0.528107315665505D+02 -.376550943454817D+02 0.227720766794273D+02 0.291975985679201D+02
 0.700425145388756D+02 -.247661619968871D+02 0.256492867095938D+02 -.602885159392864D+02
 0.291603475600040D+03 -.118167413548895D+03 -.231178268949649D+03 -.964904450120906D+02
 0.146461742786153D+02 -.110875118237633D+02 -.398028479965482D+01 -.870257636973782D+01
0.116204635106D-04 0.000000000000D+00 0.000000000000D+00 0.276997292574D-06 0.000000000000D+00  7 -2 1 -24 -11 11 23 21 0 0.29063085D-01 0.10599459D+00 0.10057798D+06 0.10057798D+06 0.10057798D+06 0.11215167D+01  1  2  2  2  7  2        1 0.376714105389D-03 0.100000000000D+01
-.632542264044D-06 0.000000000000D+00 -.446256396189D-07 0.276997292574D-06 0.000000000000D+00  7 -2 1 -24 -11 11 23 21 2 0.29063085D-01 0.10599459D+00 0.10057798D+06 0.10057798D+06 0.10057798D+06 0.11215167D+01  1  2  3  2  7  2        1 -.257922645748D-04 0.100000000000D+01
0.721569937787D-06 0.000000000000D+00 0.000000000000D+00 0.276997292574D-06 0.000000000000D+00  7 -2 1 -24 -11 11 23 21 2 0.29063085D-01 0.10599459D+00 0.10057798D+06 0.10057798D+06 0.10057798D+06 0.11215167D+01  1  2 15  2  7  2        1 0.294224177616D-04 0.100000000000D+01
0.322778888254D-04 0.000000000000D+00 0.000000000000D+00 0.276997292574D-06 0.000000000000D+00  7 -2 1 -24 -11 11 23 21 2 0.29063085D-01 0.10987302D+00 0.10434220D+06 0.10434220D+06 0.10434220D+06 0.11202103D+01  1  2 12  2  7  2        1 0.124331030119D-02 0.100000000000D+01
-.323266837635D-04 0.000000000000D+00 0.000000000000D+00 0.276997292574D-06 0.000000000000D+00  7 -2 1 -24 -11 11 23 21 2 0.29063085D-01 0.10599459D+00 0.10057798D+06 0.10057798D+06 0.10057798D+06 0.11215167D+01  1  2  4  2  7  2        1 -.131813860962D-02 0.100000000000D+01
-.323166986207D-03 0.000000000000D+00 -.402035627248D-04 0.276997292574D-06 0.000000000000D+00  7 -2 1 -24 -11 11 23 21 2 0.29063085D-01 0.11003482D+00 0.10057798D+06 0.10057798D+06 0.10057798D+06 0.11215167D+01  1  2  5  2  7  2        1 -.124566547798D-01 0.100000000000D+01
0.324472004519D-03 0.000000000000D+00 0.401754483488D-04 0.276997292574D-06 0.000000000000D+00  7 -2 1 -24 -11 11 23 21 2 0.29063085D-01 0.10599459D+00 0.10057798D+06 0.10057798D+06 0.10057798D+06 0.11215167D+01  1  2  6  2  7  2        1 0.132305274499D-01 0.100000000000D+01
0.689622749870D-06 0.000000000000D+00 0.000000000000D+00 0.276997292574D-06 0.000000000000D+00  7 -2 21 -24 -11 11 23 -1 2 0.29063085D-01 0.10987302D+00 0.10434220D+06 0.10434220D+06 0.10434220D+06 0.11202103D+01  1  2 12  4  7  2        1 0.547728465320D-04 0.100000000000D+01
-.212466222787D-05 0.000000000000D+00 -.266822077683D-06 0.276997292574D-06 0.000000000000D+00  7 -2 21 -24 -11 11 23 -1 2 0.29063085D-01 0.11003482D+00 0.10057798D+06 0.10057798D+06 0.10057798D+06 0.11215167D+01  1  2  5  4  7  2        1 -.168830154158D-03 0.100000000000D+01
  </mgrwgt>
  </event>
  <event>
  7     66 0.26562228E-05 0.15617913E+03 0.75467711E-02 0.96683404E-01
       -2 -1    0    0    0  501 0.00000000E+00 0.00000000E+00 0.14268034E+02 0.14271621E+02 0.32000000E+00 0.0000E+00 0.9000E+01
        1 -1    0    0  501    0 0.00000000E+00 0.00000000E+00 -.25970082E+04 0.25970082E+04 0.32000000E+00 0.0000E+00 0.9000E+01
       23  2    1    2    0    0 0.66025742E+02 0.65890718E+02 -.80828774E+03 0.81870646E+03 0.90830740E+02 0.0000E+00 0.0000E+00
      -24  1    1    2    0    0 -.37532099E+01 0.98114434E+01 -.26343985E+03 0.27564129E+03 0.80419002E+02 0.0000E+00 0.9000E+01
      -13  1    3    3    0    0 0.14270750E+02 0.33341215E+02 -.79766061E+02 0.87623779E+02 0.10565837E+00 0.0000E+00 0.9000E+01
       13  1    3    3    0    0 0.51754992E+02 0.32549502E+02 -.72852168E+03 0.73108269E+03 0.10565837E+00 0.0000E+00 0.9000E+01
       23  1    1    2    0    0 -.62272532E+02 -.75702161E+02 -.15110126E+04 0.15169321E+04 0.91188000E+02 0.0000E+00 0.9000E+01
#aMCatNLO 1  0  0  2  1 0.35967285D+03 0.00000000D+00  -5  7  0 0.00000000D+00 0.00000000D+00 0.00000000D+00 0.00000000D+00 0.00000000D+00
  <mgrwgt>
 0.2061571189D-01    3    2    0
 0.192506909523250D+03 0.000000000000000D+00 0.000000000000000D+00 0.192506909523250D+03
 0.192506909523250D+03 0.000000000000000D+00 0.000000000000000D+00 -.192506909523250D+03
 0.102303610721694D+03 -.375531591288542D+01 0.981694874625432D+01 0.623565388073561D+02
 0.591888059154487D+02 0.142622639115894D+02 0.333305336009250D+02 0.467865162593930D+02
 0.713735287767939D+02 0.517517912449867D+02 0.325437318290363D+02 -.368352851438254D+02
 0.152147873632562D+03 -.622587392436907D+02 -.756912141762156D+02 -.723077699229237D+02
 0.000000000000000D+00 0.000000000000000D+00 -.000000000000000D+00 0.000000000000000D+00
 0.560432827455791D+03 0.000000000000000D+00 0.000000000000000D+00 0.560432827455791D+03
 0.372333844643584D+03 0.000000000000000D+00 0.000000000000000D+00 -.372333844643584D+03
 0.149459822064570D+03 -.131264784255879D+02 0.108675572643127D+03 0.623565388073561D+02
 0.110738250797770D+03 0.793722279604074D+01 0.100054897832867D+03 0.467865162593930D+02
 0.123375829976400D+03 0.445028120349274D+02 0.109014938938306D+03 -.368352851438254D+02
 0.143303883161535D+03 -.732560727203575D+02 0.403222742852886D+02 -.723077699229237D+02
 0.405888886099100D+03 0.339425163149773D+02 -.358067683699589D+03 0.188098982812207D+03
0.243184249384D-03 0.000000000000D+00 0.000000000000D+00 0.300673307413D-09 0.000000000000D+00  7 -2 1 -24 -13 13 23 21 0 0.21953596D-02 0.39954000D+00 0.24391920D+05 0.24391920D+05 0.24391920D+05 0.11757677D+01  1  2  2  2  7  2        1 0.203773878901D-01 0.100000000000D+01
-.127918289223D-04 0.000000000000D+00 -.933891549520D-06 0.300673307413D-09 0.000000000000D+00  7 -2 1 -24 -13 13 23 21 2 0.21953596D-02 0.39954000D+00 0.24391920D+05 0.24391920D+05 0.24391920D+05 0.11757677D+01  1  2  3  2  7  2        1 -.148179710581D-02 0.100000000000D+01
0.148491954604D-04 0.000000000000D+00 0.000000000000D+00 0.300673307413D-09 0.000000000000D+00  7 -2 1 -24 -13 13 23 21 2 0.21953596D-02 0.39954000D+00 0.24391920D+05 0.24391920D+05 0.24391920D+05 0.11757677D+01  1  2 15  2  7  2        1 0.172012110157D-02 0.100000000000D+01
  </mgrwgt>
  </event>
  <event>
  8     66 0.26562228E-05 0.13599525E+03 0.75467711E-02 0.10160816E+00
       -2 -1    0    0    0  501 0.00000000E+00 0.00000000E+00 0.14203557E+03 0.14203593E+03 0.32000000E+00 0.0000E+00 0.9000E+01
        1 -1    0    0  501    0 0.00000000E+00 0.00000000E+00 -.25806792E+04 0.25806792E+04 0.32000000E+00 0.0000E+00 0.9000E+01
       25  2    1    2    0    0 0.16653009E+03 0.10697523E+03 -.98240522E+02 0.37258113E+03 0.29998254E+03 0.0000E+00 0.0000E+00
       23  2    3    3    0    0 0.12461108E+03 -.51462705E+02 -.92014999E+02 0.18492775E+03 0.86920548E+02 0.0000E+00 0.0000E+00
      -24  1    1    2    0    0 -.16653009E+03 -.10697523E+03 -.23404031E+04 0.23501340E+04 0.80419002E+02 0.0000E+00 0.9000E+01
      -13  1    4    4    0    0 0.10934692E+03 -.17164012E+02 -.33935656E+02 0.11577129E+03 0.10565837E+00 0.0000E+00 0.9000E+01
       13  1    4    4    0    0 0.15264164E+02 -.34298693E+02 -.58079342E+02 0.69156462E+02 0.10565837E+00 0.0000E+00 0.9000E+01
       23  1    3    3    0    0 0.41919014E+02 0.15843793E+03 -.62255234E+01 0.18765338E+03 0.91188000E+02 0.0000E+00 0.9000E+01
#aMCatNLO 1  0  0  2  1 0.12989892D+02 0.00000000D+00  -5  7  0 0.00000000D+00 0.00000000D+00 0.00000000D+00 0.00000000D+00 0.00000000D+00
  <mgrwgt>
 0.2848428980D-02    9    2    0
 0.605432694150859D+03 0.000000000000000D+00 0.000000000000000D+00 0.605432694150859D+03
 0.605432694150859D+03 0.000000000000000D+00 0.000000000000000D+00 -.605432694150859D+03
 0.570944009081364D+03 -.166530092580470D+03 -.106975226857951D+03 -.529465650118456D+03
 0.191974716478330D+03 0.109347054361853D+03 -.171639872314083D+02 0.156853151105234D+03
 0.385329802125337D+02 0.152640245584938D+02 -.342987178633380D+02 0.868320627811811D+01
 0.409413682529491D+03 0.419190136601233D+02 0.158437931952698D+03 0.363929292735105D+03
 0.000000000000000D+00 0.000000000000000D+00 0.000000000000000D+00 -.000000000000000D+00
 0.608298420390534D+03 0.000000000000000D+00 0.000000000000000D+00 0.608298420390534D+03
 0.620368970767350D+03 0.000000000000000D+00 0.000000000000000D+00 -.620368970767350D+03
 0.573018504190590D+03 -.172405033973508D+03 -.108745665640911D+03 -.529465650118456D+03
 0.190915732441987D+03 0.107380679658780D+03 -.177565626808035D+02 0.156853151105234D+03
 0.384845798640721D+02 0.148684926713599D+02 -.344179130937294D+02 0.868320627811811D+01
 0.408516246120724D+03 0.377184473490054D+02 0.157172073281085D+03 0.363929292735105D+03
 0.177323285405122D+02 0.124374142943622D+02 0.374806813435922D+01 -.120705503768163D+02
0.252070422058D-03 0.000000000000D+00 0.000000000000D+00 0.195586722627D-05 0.000000000000D+00  7 -2 1 -24 -13 13 23 21 0 0.21851655D-01 0.39702759D+00 0.75465742D+05 0.75465742D+05 0.75465742D+05 0.11318943D+01  1  2  2  2  7  2        1 0.640711052784D-03 0.100000000000D+01
-.337144874466D-05 0.000000000000D+00 -.968016792370D-06 0.195586722627D-05 0.000000000000D+00  7 -2 1 -24 -13 13 23 21 2 0.21851655D-01 0.39702759D+00 0.75465742D+05 0.75465742D+05 0.75465742D+05 0.11318943D+01  1  2  3  2  7  2        1 -.109791479167D-04 0.100000000000D+01
0.157862364015D-04 0.000000000000D+00 0.000000000000D+00 0.195586722627D-05 0.000000000000D+00  7 -2 1 -24 -13 13 23 21 2 0.21851655D-01 0.39702759D+00 0.75465742D+05 0.75465742D+05 0.75465742D+05 0.11318943D+01  1  2 15  2  7  2        1 0.514079962731D-04 0.100000000000D+01
0.392924365319D-03 0.000000000000D+00 0.000000000000D+00 0.195586722627D-05 0.000000000000D+00  7 -2 1 -24 -13 13 23 21 2 0.21851655D-01 0.40774792D+00 0.79532496D+05 0.79532496D+05 0.79532496D+05 0.11299760D+01  1  2 12  2  7  2        1 0.113804769911D-02 0.100000000000D+01
-.397990715350D-03 0.000000000000D+00 0.000000000000D+00 0.195586722627D-05 0.000000000000D+00  7 -2 1 -24 -13 13 23 21 2 0.21851655D-01 0.39702759D+00 0.75465742D+05 0.75465742D+05 0.75465742D+05 0.11318943D+01  1  2  4  2  7  2        1 -.129605972513D-02 0.100000000000D+01
-.685176876100D-02 0.000000000000D+00 -.844450934673D-03 0.195586722627D-05 0.000000000000D+00  7 -2 1 -24 -13 13 23 21 2 0.21851655D-01 0.40744433D+00 0.75465742D+05 0.75465742D+05 0.75465742D+05 0.11318943D+01  1  2  5  2  7  2        1 -.200346677858D-01 0.100000000000D+01
0.687161727269D-02 0.000000000000D+00 0.844167813072D-03 0.195586722627D-05 0.000000000000D+00  7 -2 1 -24 -13 13 23 21 2 0.21851655D-01 0.39702759D+00 0.75465742D+05 0.75465742D+05 0.75465742D+05 0.11318943D+01  1  2  6  2  7  2        1 0.223774727655D-01 0.100000000000D+01
0.135611534447D-04 0.000000000000D+00 0.000000000000D+00 0.195586722627D-05 0.000000000000D+00  7 -2 21 -24 -13 13 23 -1 2 0.21851655D-01 0.40774792D+00 0.79532496D+05 0.79532496D+05 0.79532496D+05 0.11299760D+01  1  2 12  4  7  2        1 0.126918959937D-04 0.100000000000D+01
-.318108415675D-04 0.000000000000D+00 -.394588698304D-05 0.195586722627D-05 0.000000000000D+00  7 -2 21 -24 -13 13 23 -1 2 0.21851655D-01 0.40744433D+00 0.75465742D+05 0.75465742D+05 0.75465742D+05 0.11318943D+01  1  2  5  4  7  2        1 -.301957711337D-04 0.100000000000D+01
  </mgrwgt>
  </event>
  <event>
  8     66 0.26562228E-05 0.43196051E+03 0.75467711E-02 0.90095688E-01
       -2 -1    0    0    0  501 0.00000000E+00 0.00000000E+00 0.95588601E+03 0.95588606E+03 0.32000000E+00 0.0000E+00 0.9000E+01
        1 -1    0    0  501    0 0.00000000E+00 0.00000000E+00 -.52715194E+03 0.52715203E+03 0.32000000E+00 0.0000E+00 0.9000E+01
       25  2    1    2    0    0 0.27741755E+03 -.55511497E+03 -.55945390E+02 0.69152403E+03 0.29993744E+03 0.0000E+00 0.0000E+00
       23  2    3    3    0    0 0.24870989E+03 -.36208710E+03 0.50295301E+02 0.45134446E+03 0.90656100E+02 0.0000E+00 0.0000E+00
      -24  1    1    2    0    0 -.27741755E+03 0.55511497E+03 0.48467946E+03 0.79151407E+03 0.80419002E+02 0.0000E+00 0.9000E+01
      -11  1    4    4    0    0 0.30491331E+02 -.11100997E+03 0.15074714E+01 0.11513126E+03 0.51099893E-03 0.0000E+00 0.9000E+01
       11  1    4    4    0    0 0.21821856E+03 -.25107713E+03 0.48787830E+02 0.33621320E+03 0.51099893E-03 0.0000E+00 0.9000E+01
       23  1    3    3    0    0 0.28707664E+02 -.19302787E+03 -.10624069E+03 0.24017957E+03 0.91188000E+02 0.0000E+00 0.9000E+01
#aMCatNLO 1  0  0  1  2 0.21859705D+03 0.00000000D+00  -5  7  0 0.00000000D+00 0.00000000D+00 0.00000000D+00 0.00000000D+00 0.00000000D+00
  <mgrwgt>
 0.1267061266D-02    9    2    0
 0.709857219134621D+03 0.000000000000000D+00 0.000000000000000D+00 0.709857219134621D+03
 0.709857219134621D+03 0.000000000000000D+00 0.000000000000000D+00 -.709857219134621D+03
 0.680451569600101D+03 -.277417553269271D+03 0.555114966424202D+03 0.267271393543753D+03
 0.119811231321864D+03 0.304913305196947D+02 -.111009965879765D+03 -.331933335080004D+02
 0.336476102618866D+03 0.218218558510245D+03 -.251077130208226D+03 -.505678063761289D+02
 0.282975534728411D+03 0.287076642393307D+02 -.193027870336210D+03 -.183510253659624D+03
 0.000000000000000D+00 -.000000000000000D+00 -.000000000000000D+00 0.000000000000000D+00
 0.859932106609771D+03 0.000000000000000D+00 0.000000000000000D+00 0.859932106609771D+03
 0.802522698995845D+03 0.000000000000000D+00 0.000000000000000D+00 -.802522698995845D+03
 0.727479315823398D+03 -.209091860798294D+03 0.638439922731651D+03 0.267271393543753D+03
 0.110982871945159D+03 0.416915727241934D+02 -.973509796540619D+02 -.331933335080004D+02
 0.331852085976419D+03 0.250651959010520D+03 -.211523756040298D+03 -.505678063761289D+02
 0.266130557935398D+03 0.553553174797821D+02 -.160530365200791D+03 -.183510253659624D+03
 0.226009973925241D+03 -.138606988416201D+03 -.169034821836500D+03 0.574094076139259D+02
0.598951274057D-03 0.000000000000D+00 0.000000000000D+00 0.258934571894D-04 0.000000000000D+00  7 -2 1 -24 -11 11 23 21 0 0.14705940D+00 0.81100309D-01 0.41534439D+06 0.41534439D+06 0.41534439D+06 0.10742511D+01  1  2  2  1  7  1       -2 0.826052993022D-03 0.100000000000D+01
-.328972862633D-04 0.000000000000D+00 -.230013059987D-05 0.258934571894D-04 0.000000000000D+00  7 -2 1 -24 -11 11 23 21 2 0.14705940D+00 0.81100309D-01 0.41534439D+06 0.41534439D+06 0.41534439D+06 0.10742511D+01  1  2  3  1  7  1       -2 -.523586061019D-04 0.100000000000D+01
0.378320747992D-04 0.000000000000D+00 0.000000000000D+00 0.258934571894D-04 0.000000000000D+00  7 -2 1 -24 -11 11 23 21 2 0.14705940D+00 0.81100309D-01 0.41534439D+06 0.41534439D+06 0.41534439D+06 0.10742511D+01  1  2 15  1  7  1       -2 0.602127083243D-04 0.100000000000D+01
0.372931184563D-03 0.000000000000D+00 0.000000000000D+00 0.258934571894D-04 0.000000000000D+00  7 -2 1 -24 -11 11 23 21 2 0.18608438D+00 0.81100309D-01 0.57898545D+06 0.57898545D+06 0.57898545D+06 0.10640375D+01  1  2 12  1  7  1       -2 0.290656454236D-03 0.100000000000D+01
-.385453969850D-03 0.000000000000D+00 0.000000000000D+00 0.258934571894D-04 0.000000000000D+00  7 -2 1 -24 -11 11 23 21 2 0.14705940D+00 0.81100309D-01 0.41534439D+06 0.41534439D+06 0.41534439D+06 0.10742511D+01  1  2  4  1  7  1       -2 -.613480164177D-03 0.100000000000D+01
-.849415285106D-03 0.000000000000D+00 -.286831133266D-03 0.258934571894D-04 0.000000000000D+00  7 -2 1 -24 -11 11 23 21 2 0.19298953D+00 0.81100309D-01 0.41534439D+06 0.41534439D+06 0.41534439D+06 0.10742511D+01  1  2  5  1  7  1       -2 -.614072781198D-03 0.100000000000D+01
0.904054456644D-03 0.000000000000D+00 0.276552932303D-03 0.258934571894D-04 0.000000000000D+00  7 -2 1 -24 -11 11 23 21 2 0.14705940D+00 0.81100309D-01 0.41534439D+06 0.41534439D+06 0.41534439D+06 0.10742511D+01  1  2  6  1  7  1       -2 0.143887343203D-02 0.100000000000D+01
0.120692547805D-04 0.000000000000D+00 0.000000000000D+00 0.258934571894D-04 0.000000000000D+00  7 21 1 -24 -11 11 23 2 2 0.18608438D+00 0.81100309D-01 0.57898545D+06 0.57898545D+06 0.57898545D+06 0.10640375D+01  1  2 12  3  7  1       -2 0.741300330230D-04 0.100000000000D+01
-.250604190014D-04 0.000000000000D+00 -.103210830875D-04 0.258934571894D-04 0.000000000000D+00  7 21 1 -24 -11 11 23 2 2 0.19298953D+00 0.81100309D-01 0.41534439D+06 0.41534439D+06 0.41534439D+06 0.10742511D+01  1  2  5  3  7  1       -2 -.142952802946D-03 0.100000000000D+01
  </mgrwgt>
  </event>
  <event>
  8     66 0.26562228E-05 0.25097383E+03 0.75467711E-02 0.91687629E-01
       -2 -1    0    0    0  501 0.00000000E+00 0.00000000E+00 0.14091882E+03 0.14091919E+03 0.32000000E+00 0.0000E+00 0.9000E+01
        1 -1    0    0  501    0 0.00000000E+00 0.00000000E+00 -.22312096E+04 0.22312097E+04 0.32000000E+00 0.0000E+00 0.9000E+01
       25  2    1    2    0    0 0.79461239E+02 -.50682772E+03 -.12525477E+04 0.13864975E+04 0.30051807E+03 0.0000E+00 0.0000E+00
       23  2    3    3    0    0 0.39364748E+02 -.14098051E+03 -.66797459E+03 0.68972430E+03 0.90024803E+02 0.0000E+00 0.0000E+00
      -24  1    1    2    0    0 -.79461239E+02 0.50682772E+03 -.83774307E+03 0.98563132E+03 0.80419002E+02 0.0000E+00 0.9000E+01
      -13  1    4    4    0    0 0.35843513E+02 -.14206449E+03 -.66978130E+03 0.68561948E+03 0.10565837E+00 0.0000E+00 0.9000E+01
       13  1    4    4    0    0 0.35212357E+01 0.10839772E+01 0.18067114E+01 0.41048115E+01 0.10565837E+00 0.0000E+00 0.9000E+01
       23  1    3    3    0    0 0.40096491E+02 -.36584721E+03 -.58457315E+03 0.69677323E+03 0.91188000E+02 0.0000E+00 0.9000E+01
#aMCatNLO 1  0  0  2  1 0.22914261D+03 0.00000000D+00  -5  7  0 0.00000000D+00 0.00000000D+00 0.00000000D+00 0.00000000D+00 0.00000000D+00
  <mgrwgt>
 0.1429940129D-02    9    2    0
 0.560731570374722D+03 0.000000000000000D+00 0.000000000000000D+00 0.560731570374722D+03
 0.560731570374722D+03 0.000000000000000D+00 0.000000000000000D+00 -.560731570374722D+03
 0.523350093634143D+03 -.794612389521915D+02 0.506827723318159D+03 0.651127862467154D+02
 0.201825938824377D+03 0.358435571974358D+02 -.142064686561610D+03 -.138804084312843D+03
 0.120497947736980D+02 0.352119121426320D+01 0.108417438193583D+01 0.114727212303964D+02
 0.384237313517225D+03 0.400964905404925D+02 -.365847211138485D+03 0.622185768357309D+02
 0.000000000000000D+00 0.000000000000000D+00 0.000000000000000D+00 -.000000000000000D+00
 0.607771539063507D+03 0.000000000000000D+00 0.000000000000000D+00 0.607771539063507D+03
 0.942551328222255D+03 0.000000000000000D+00 0.000000000000000D+00 -.942551328222255D+03
 0.467349780491419D+03 -.145830091746197D+03 0.431789891937609D+03 0.651127862467154D+02
 0.222886681800834D+03 0.739125783390712D+01 -.174233373410183D+03 -.138804084312843D+03
 0.116561654014181D+02 0.193308423828167D+01 -.711368232727849D+00 0.114727212303964D+02
 0.442740898828837D+03 -.153043393904590D+02 -.428484396500181D+03 0.622185768357309D+02
 0.405689340763254D+03 0.151810089064467D+03 0.171639246205483D+03 -.334779789158749D+03
0.299960132029D-03 0.000000000000D+00 0.000000000000D+00 0.466651220702D-05 0.000000000000D+00  7 -2 1 -24 -13 13 23 21 0 0.21679849D-01 0.34326305D+00 0.27491732D+06 0.27491732D+06 0.27491732D+06 0.10873685D+01  1  2  2  2  7  2        1 0.124982932921D-02 0.100000000000D+01
-.165731458792D-04 0.000000000000D+00 -.115192588831D-05 0.466651220702D-05 0.000000000000D+00  7 -2 1 -24 -13 13 23 21 2 0.21679849D-01 0.34326305D+00 0.27491732D+06 0.27491732D+06 0.27491732D+06 0.10873685D+01  1  2  3  2  7  2        1 -.816480119133D-04 0.100000000000D+01
0.187457725372D-04 0.000000000000D+00 0.000000000000D+00 0.466651220702D-05 0.000000000000D+00  7 -2 1 -24 -13 13 23 21 2 0.21679849D-01 0.34326305D+00 0.27491732D+06 0.27491732D+06 0.27491732D+06 0.10873685D+01  1  2 15  2  7  2        1 0.923515107269D-04 0.100000000000D+01
0.227216927920D-03 0.000000000000D+00 0.000000000000D+00 0.466651220702D-05 0.000000000000D+00  7 -2 1 -24 -13 13 23 21 2 0.21679849D-01 0.58300994D+00 0.42688679D+06 0.42688679D+06 0.42688679D+06 0.10733968D+01  1  2 12  2  7  2        1 0.700451830784D-04 0.100000000000D+01
-.283974761568D-03 0.000000000000D+00 0.000000000000D+00 0.466651220702D-05 0.000000000000D+00  7 -2 1 -24 -13 13 23 21 2 0.21679849D-01 0.34326305D+00 0.27491732D+06 0.27491732D+06 0.27491732D+06 0.10873685D+01  1  2  4  2  7  2        1 -.139900866646D-02 0.100000000000D+01
-.320962408348D-03 0.000000000000D+00 -.774753727717D-04 0.466651220702D-05 0.000000000000D+00  7 -2 1 -24 -13 13 23 21 2 0.21679849D-01 0.58554077D+00 0.27491732D+06 0.27491732D+06 0.27491732D+06 0.10873685D+01  1  2  5  2  7  2        1 -.101615081358D-03 0.100000000000D+01
0.324783805922D-03 0.000000000000D+00 0.676038491186D-04 0.466651220702D-05 0.000000000000D+00  7 -2 1 -24 -13 13 23 21 2 0.21679849D-01 0.34326305D+00 0.27491732D+06 0.27491732D+06 0.27491732D+06 0.10873685D+01  1  2  6  2  7  2        1 0.160005542993D-02 0.100000000000D+01
0.134196582756D-04 0.000000000000D+00 0.000000000000D+00 0.466651220702D-05 0.000000000000D+00  7 -2 21 -24 -13 13 23 -1 2 0.21679849D-01 0.58300994D+00 0.42688679D+06 0.42688679D+06 0.42688679D+06 0.10733968D+01  1  2 12  4  7  2        1 0.399622365200D-06 0.100000000000D+01
-.153297659265D-04 0.000000000000D+00 -.460636637524D-05 0.466651220702D-05 0.000000000000D+00  7 -2 21 -24 -13 13 23 -1 2 0.21679849D-01 0.58554077D+00 0.27491732D+06 0.27491732D+06 0.27491732D+06 0.10873685D+01  1  2  5  4  7  2        1 -.469186354553D-06 0.100000000000D+01
  </mgrwgt>
  </event>
  <event>
  8     66 0.26562228E-05 0.26963848E+03 0.75467711E-02 0.93986109E-01
       -2 -1    0    0    0  501 0.00000000E+00 0.00000000E+00 0.42439775E+02 0.42440981E+02 0.32000000E+00 0.0000E+00 0.9000E+01
        1 -1    0    0  501    0 0.00000000E+00 0.00000000E+00 -.27973201E+04 0.27973201E+04 0.32000000E+00 0.0000E+00 0.9000E+01
       25  2    1    2    0    0 0.18369210E+03 -.39674221E+01 -.24494162E+04 0.24743380E+04 0.29824498E+03 0.0000E+00 0.0000E+00
       23  2    3    3    0    0 0.11986402E+03 0.11352330E+03 -.12805480E+04 0.12943184E+04 0.90564603E+02 0.0000E+00 0.0000E+00
      -24  1    1    2    0    0 -.18369210E+03 0.39674221E+01 -.30546412E+03 0.36542314E+03 0.80419002E+02 0.0000E+00 0.9000E+01
      -11  1    4    4    0    0 0.98317272E+02 0.51040926E+02 -.56728868E+03 0.57800338E+03 0.51099893E-03 0.0000E+00 0.9000E+01
       11  1    4    4    0    0 0.21546747E+02 0.62482375E+02 -.71325937E+03 0.71631504E+03 0.51099893E-03 0.0000E+00 0.9000E+01
       23  1    3    3    0    0 0.63828078E+02 -.11749072E+03 -.11688682E+04 0.11800195E+04 0.91188000E+02 0.0000E+00 0.9000E+01
#aMCatNLO 1  0  0  1  2 0.38744269D+03 0.00000000D+00  -5  7  0 0.00000000D+00 0.00000000D+00 0.00000000D+00 0.00000000D+00 0.00000000D+00
  <mgrwgt>
 0.1483661560D-02    5    2    0
 0.344556780748384D+03 0.000000000000000D+00 0.000000000000000D+00 0.344556780748384D+03
 0.344556780748384D+03 0.000000000000000D+00 0.000000000000000D+00 -.344556780748384D+03
 0.284709713449786D+03 -.183692097186154D+03 0.396742211910342D+01 0.202073941841520D+03
 0.114029237888738D+03 0.983172724043186D+02 0.510409259688270D+02 -.270408009627337D+02
 0.100446992025313D+03 0.215467470540043D+02 0.624823749069271D+02 -.756392009761759D+02
 0.189927618132930D+03 0.638280777278314D+02 -.117490722994858D+03 -.993939399026099D+02
 0.000000000000000D+00 0.000000000000000D+00 -.000000000000000D+00 0.000000000000000D+00
 0.639376377287353D+03 0.000000000000000D+00 0.000000000000000D+00 0.639376377287353D+03
 0.549024565830694D+03 0.000000000000000D+00 0.000000000000000D+00 -.549024565830694D+03
 0.411008702458446D+03 -.330197975879497D+03 0.112233490081696D+03 0.202073941841520D+03
 0.103415640927497D+03 0.525272626677618D+02 0.848791879577714D+02 -.270408009627337D+02
 0.126369946588521D+03 -.262168511695288D+02 0.977790948578787D+02 -.756392009761759D+02
 0.149768383040210D+03 -.770583599718634D+01 -.646280281046836D+02 -.993939399026099D+02
 0.397838270103374D+03 0.311593400378450D+03 -.230263744792662D+03 0.903518114566592D+02
0.100378714238D-03 0.000000000000D+00 0.000000000000D+00 0.362783801614D-06 0.000000000000D+00  7 -2 1 -24 -11 11 23 21 0 0.65292904D-02 0.43035703D+00 0.72704911D+05 0.72704911D+05 0.72704911D+05 0.11332625D+01  1  2  2  1  7  1       -2 0.119786602317D-02 0.100000000000D+01
-.516901854866D-05 0.000000000000D+00 -.385480692996D-06 0.362783801614D-06 0.000000000000D+00  7 -2 1 -24 -11 11 23 21 2 0.65292904D-02 0.43035703D+00 0.72704911D+05 0.72704911D+05 0.72704911D+05 0.11332625D+01  1  2  3  1  7  1       -2 -.792201688068D-04 0.100000000000D+01
0.639035359437D-05 0.000000000000D+00 0.000000000000D+00 0.362783801614D-06 0.000000000000D+00  7 -2 1 -24 -11 11 23 21 2 0.65292904D-02 0.43035703D+00 0.72704911D+05 0.72704911D+05 0.72704911D+05 0.11332625D+01  1  2 15  1  7  1       -2 0.979383002238D-04 0.100000000000D+01
0.582163860992D-04 0.000000000000D+00 -.382900515993D-04 0.362783801614D-06 0.000000000000D+00  7 -2 1 -24 -11 11 23 21 2 0.28509947D-01 0.43035703D+00 0.72704911D+05 0.72704911D+05 0.72704911D+05 0.11332625D+01  1  2  5  1  7  1       -2 0.855746433585D-04 0.100000000000D+01
0.102166533631D-04 0.000000000000D+00 -.680412522571D-05 0.362783801614D-06 0.000000000000D+00  7 21 1 -24 -11 11 23 2 2 0.28509947D-01 0.43035703D+00 0.72704911D+05 0.72704911D+05 0.72704911D+05 0.11332625D+01  1  2  5  3  7  1       -2 0.181502762440D-03 0.100000000000D+01
  </mgrwgt>
  </event>
  <event>
  8     66 0.26562228E-05 0.10854040E+03 0.75467711E-02 0.10406036E+00
       -2 -1    0    0    0  501 0.00000000E+00 0.00000000E+00 0.21216361E+03 0.21216385E+03 0.32000000E+00 0.0000E+00 0.9000E+01
        1 -1    0    0  501    0 0.00000000E+00 0.00000000E+00 -.32307958E+03 0.32307973E+03 0.32000000E+00 0.0000E+00 0.9000E+01
       25  2    1    2    0    0 -.92539458E+02 0.62984123E+02 -.19390520E+03 0.37435549E+03 0.30002043E+03 0.0000E+00 0.0000E+00
       23  2    3    3    0    0 -.41081559E+02 -.85007017E+02 -.43041653E+02 0.13850733E+03 0.91748625E+02 0.0000E+00 0.0000E+00
      -24  1    1    2    0    0 0.92539458E+02 -.62984123E+02 0.82989231E+02 0.16088810E+03 0.80419002E+02 0.0000E+00 0.9000E+01
      -13  1    4    4    0    0 -.64923977E+02 -.77813203E+02 -.49492835E+02 0.11278107E+03 0.10565837E+00 0.0000E+00 0.9000E+01
       13  1    4    4    0    0 0.23842418E+02 -.71938139E+01 0.64511814E+01 0.25726266E+02 0.10565837E+00 0.0000E+00 0.9000E+01
       23  1    3    3    0    0 -.51457898E+02 0.14799114E+03 -.15086354E+03 0.23584816E+03 0.91188000E+02 0.0000E+00 0.9000E+01
#aMCatNLO 1  0  0  1  2 0.24978726D+02 0.00000000D+00  -5  7  0 0.00000000D+00 0.00000000D+00 0.00000000D+00 0.00000000D+00 0.00000000D+00
  <mgrwgt>
 0.1218076739D-02    6    2    0
 0.261812597875269D+03 0.000000000000000D+00 0.000000000000000D+00 0.261812597875269D+03
 0.261812597875269D+03 0.000000000000000D+00 0.000000000000000D+00 -.261812597875269D+03
 0.182036986649409D+03 0.925394580440885D+02 -.629841238089514D+02 0.118910459619629D+03
 0.104799866831987D+03 -.649240940733482D+02 -.778132964985159D+02 -.267014041726532D+02
 0.276634967335866D+02 0.238425348838009D+02 -.719372052599033D+01 0.120437937062139D+02
 0.209124845535556D+03 -.514578988545411D+02 0.147991140833458D+03 -.104252849153190D+03
 0.000000000000000D+00 0.000000000000000D+00 -.000000000000000D+00 -.000000000000000D+00
 0.271853389763437D+03 0.000000000000000D+00 0.000000000000000D+00 0.271853389763437D+03
 0.278120081012324D+03 0.000000000000000D+00 0.000000000000000D+00 -.278120081012324D+03
 0.177180313639762D+03 0.842970632230798D+02 -.606626352224039D+02 0.118910459619629D+03
 0.106893828695554D+03 -.697814965933599D+02 -.764451984207907D+02 -.267014041726532D+02
 0.265071445859187D+02 0.225995663154631D+02 -.684363570143440D+01 0.120437937062139D+02
 0.213639355893934D+03 -.611584045416704D+02 0.150723309544790D+03 -.104252849153190D+03
 0.257528279605921D+02 0.240432715964875D+02 -.677184020016111D+01 -.626669124888686D+01
0.906376701901D-05 0.000000000000D+00 0.000000000000D+00 0.229898503762D-05 0.000000000000D+00  7 -2 1 -24 -13 13 23 21 0 0.32640586D-01 0.49704581D-01 0.49587179D+05 0.49587179D+05 0.49587179D+05 0.11476122D+01  1  2  2  1  7  1       -2 0.681816492086D-03 0.100000000000D+01
-.487497900318D-06 0.000000000000D+00 -.348072518977D-07 0.229898503762D-05 0.000000000000D+00  7 -2 1 -24 -13 13 23 21 2 0.32640586D-01 0.49704581D-01 0.49587179D+05 0.49587179D+05 0.49587179D+05 0.11476122D+01  1  2  3  1  7  1       -2 -.482971888964D-04 0.100000000000D+01
0.591397620694D-06 0.000000000000D+00 0.000000000000D+00 0.229898503762D-05 0.000000000000D+00  7 -2 1 -24 -13 13 23 21 2 0.32640586D-01 0.49704581D-01 0.49587179D+05 0.49587179D+05 0.49587179D+05 0.11476122D+01  1  2 15  1  7  1       -2 0.585906987104D-04 0.100000000000D+01
0.139464740343D-04 0.000000000000D+00 0.000000000000D+00 0.229898503762D-05 0.000000000000D+00  7 -2 1 -24 -13 13 23 21 2 0.34860230D-01 0.49704581D-01 0.55207091D+05 0.55207091D+05 0.55207091D+05 0.11435301D+01  1  2 12  1  7  1       -2 0.121999662410D-02 0.100000000000D+01
-.863056330492D-05 0.000000000000D+00 0.000000000000D+00 0.229898503762D-05 0.000000000000D+00  7 -2 1 -24 -13 13 23 21 2 0.32640586D-01 0.49704581D-01 0.49587179D+05 0.49587179D+05 0.49587179D+05 0.11476122D+01  1  2  4  1  7  1       -2 -.855043572388D-03 0.100000000000D+01
0.157062175930D-06 0.000000000000D+00 0.000000000000D+00 0.229898503762D-05 0.000000000000D+00  7 21 1 -24 -13 13 23 2 2 0.34860230D-01 0.49704581D-01 0.55207091D+05 0.55207091D+05 0.55207091D+05 0.11435301D+01  1  2 12  3  7  1       -2 0.161013685251D-03 0.100000000000D+01
  </mgrwgt>
  </event>
  <event>
  8     66 0.26562228E-05 0.57582399E+02 0.75467711E-02 0.10834529E+00
       -2 -1    0    0    0  501 0.00000000E+00 0.00000000E+00 0.33832854E+03 0.33832869E+03 0.32000000E+00 0.0000E+00 0.9000E+01
        1 -1    0    0  501    0 0.00000000E+00 0.00000000E+00 -.16988217E+03 0.16988247E+03 0.32000000E+00 0.0000E+00 0.9000E+01
       25  2    1    2    0    0 -.40738492E+02 -.90449968E+02 0.20368560E+03 0.37573535E+03 0.29974723E+03 0.0000E+00 0.0000E+00
       23  2    3    3    0    0 -.29395170E+02 -.28563909E+02 0.23917178E+03 0.25940360E+03 0.91690334E+02 0.0000E+00 0.0000E+00
      -24  1    1    2    0    0 0.40738492E+02 0.90449968E+02 -.35239229E+02 0.13247581E+03 0.80419002E+02 0.0000E+00 0.9000E+01
      -11  1    4    4    0    0 0.24267798E+02 -.37507413E+02 0.87002797E+02 0.97801936E+02 0.51099893E-03 0.0000E+00 0.9000E+01
       11  1    4    4    0    0 -.53662967E+02 0.89435034E+01 0.15216898E+03 0.16160167E+03 0.51099893E-03 0.0000E+00 0.9000E+01
       23  1    3    3    0    0 -.11343323E+02 -.61886059E+02 -.35486172E+02 0.11633175E+03 0.91188000E+02 0.0000E+00 0.9000E+01
#aMCatNLO 1  0  0  1  2 0.11799480D+02 0.00000000D+00  -5  7  0 0.00000000D+00 0.00000000D+00 0.00000000D+00 0.00000000D+00 0.00000000D+00
  <mgrwgt>
 0.7395920782D-03    9    2    0
 0.239741736710093D+03 0.000000000000000D+00 0.000000000000000D+00 0.239741736710093D+03
 0.239741736710093D+03 0.000000000000000D+00 0.000000000000000D+00 -.239741736710093D+03
 0.152792766482067D+03 0.407384923827809D+02 0.904499679621453D+02 -.838903574250221D+02
 0.730968456825857D+02 0.242677975350247D+02 -.375074126383775D+02 0.578568651822519D+02
 0.117825661215750D+03 -.536629672534217D+02 0.894350344241541D+01 0.104514047537459D+03
 0.135768200039783D+03 -.113433226643840D+02 -.618860587661832D+02 -.784805552946892D+02
 0.000000000000000D+00 -.000000000000000D+00 0.000000000000000D+00 0.000000000000000D+00
 0.288782168430115D+03 0.000000000000000D+00 0.000000000000000D+00 0.288782168430115D+03
 0.240525130183274D+03 0.000000000000000D+00 0.000000000000000D+00 -.240525130183274D+03
 0.153319906592385D+03 0.444096019066477D+02 0.896101165757651D+02 -.838903574250221D+02
 0.739069773532417D+02 0.260307664750934D+02 -.379107326425440D+02 0.578568651822519D+02
 0.116524930764503D+03 -.508524769803409D+02 0.830053865563652D+01 0.104514047537459D+03
 0.135876821847735D+03 -.808557244794746D+01 -.626313446308427D+02 -.784805552946892D+02
 0.496786620555253D+02 -.115023189534527D+02 0.263142204198508D+01 0.482570382468411D+02
0.920111097537D-05 0.000000000000D+00 0.000000000000D+00 0.121452022855D-05 0.000000000000D+00  7 -2 1 -24 -11 11 23 21 0 0.52050580D-01 0.26135753D-01 0.28487850D+05 0.28487850D+05 0.28487850D+05 0.11694257D+01  1  2  2  1  7  1       -2 0.665455881826D-03 0.100000000000D+01
-.434625638652D-06 0.000000000000D+00 -.353346888536D-07 0.121452022855D-05 0.000000000000D+00  7 -2 1 -24 -11 11 23 21 2 0.52050580D-01 0.26135753D-01 0.28487850D+05 0.28487850D+05 0.28487850D+05 0.11694257D+01  1  2  3  1  7  1       -2 -.429872439562D-04 0.100000000000D+01
0.594777267698D-06 0.000000000000D+00 0.000000000000D+00 0.121452022855D-05 0.000000000000D+00  7 -2 1 -24 -11 11 23 21 2 0.52050580D-01 0.26135753D-01 0.28487850D+05 0.28487850D+05 0.28487850D+05 0.11694257D+01  1  2 15  1  7  1       -2 0.588272601345D-04 0.100000000000D+01
0.196484421033D-03 0.000000000000D+00 0.000000000000D+00 0.121452022855D-05 0.000000000000D+00  7 -2 1 -24 -11 11 23 21 2 0.62771632D-01 0.26135753D-01 0.30374500D+05 0.30374500D+05 0.30374500D+05 0.11668364D+01  1  2 12  1  7  1       -2 0.133055967637D-01 0.100000000000D+01
-.194614392355D-03 0.000000000000D+00 0.000000000000D+00 0.121452022855D-05 0.000000000000D+00  7 -2 1 -24 -11 11 23 21 2 0.52050580D-01 0.26135753D-01 0.28487850D+05 0.28487850D+05 0.28487850D+05 0.11694257D+01  1  2  4  1  7  1       -2 -.192486029758D-01 0.100000000000D+01
-.208014119539D-03 0.000000000000D+00 -.668420462471D-05 0.121452022855D-05 0.000000000000D+00  7 -2 1 -24 -11 11 23 21 2 0.62793520D-01 0.26135753D-01 0.28487850D+05 0.28487850D+05 0.28487850D+05 0.11694257D+01  1  2  5  1  7  1       -2 -.141412527780D-01 0.100000000000D+01
0.205751666792D-03 0.000000000000D+00 0.656824015395D-05 0.121452022855D-05 0.000000000000D+00  7 -2 1 -24 -11 11 23 21 2 0.52050580D-01 0.26135753D-01 0.28487850D+05 0.28487850D+05 0.28487850D+05 0.11694257D+01  1  2  6  1  7  1       -2 0.203501503552D-01 0.100000000000D+01
0.534487787137D-05 0.000000000000D+00 0.000000000000D+00 0.121452022855D-05 0.000000000000D+00  7 21 1 -24 -11 11 23 2 2 0.62771632D-01 0.26135753D-01 0.30374500D+05 0.30374500D+05 0.30374500D+05 0.11668364D+01  1  2 12  3  7  1       -2 0.389020152163D-02 0.100000000000D+01
-.559775707579D-05 0.000000000000D+00 -.182090169995D-06 0.121452022855D-05 0.000000000000D+00  7 21 1 -24 -11 11 23 2 2 0.62793520D-01 0.26135753D-01 0.28487850D+05 0.28487850D+05 0.28487850D+05 0.11694257D+01  1  2  5  3  7  1       -2 -.409779670641D-02 0.100000000000D+01
  </mgrwgt>
  </event>
  <event>
  7     66 0.26562228E-05 0.18134204E+03 0.75467711E-02 0.96659098E-01
       -2 -1    0    0    0  501 0.00000000E+00 0.00000000E+00 0.67951206E+02 0.67951960E+02 0.32000000E+00 0.0000E+00 0.9000E+01
        1 -1    0    0  501    0 0.00000000E+00 0.00000000E+00 -.71882715E+03 0.71882722E+03 0.32000000E+00 0.0000E+00 0.9000E+01
       23  2    1    2    0    0 0.12841423E+03 -.23325033E+01 -.30785867E+03 0.34672267E+03 0.94572687E+02 0.0000E+00 0.0000E+00
      -24  1    1    2    0    0 -.46343551E+02 -.11047906E+02 -.21845368E+02 0.95990713E+02 0.80419002E+02 0.0000E+00 0.9000E+01
      -11  1    3    3    0    0 0.95340344E+02 0.29599661E+02 -.13528755E+03 0.16813281E+03 0.51099893E-03 0.0000E+00 0.9000E+01
       11  1    3    3    0    0 0.33073884E+02 -.31932165E+02 -.17257113E+03 0.17858986E+03 0.51099893E-03 0.0000E+00 0.9000E+01
       23  1    1    2    0    0 -.82070677E+02 0.13380409E+02 -.32117191E+03 0.34406580E+03 0.91188000E+02 0.0000E+00 0.9000E+01
#aMCatNLO 1  0  0  1  2 0.34723051D+03 0.00000000D+00  -5  7  0 0.00000000D+00 0.00000000D+00 0.00000000D+00 0.00000000D+00 0.00000000D+00
  <mgrwgt>
 0.7814625829D-02    5    2    0
 0.221010173484273D+03 0.000000000000000D+00 0.000000000000000D+00 0.221010173484273D+03
 0.221010173484273D+03 0.000000000000000D+00 0.000000000000000D+00 -.221010173484273D+03
 0.138692416960569D+03 -.463435508356580D+02 -.110479061416447D+02 0.102462625546206D+03
 0.100058706337620D+03 0.953403435974820D+02 0.295996612852253D+02 0.676931669166641D+01
 0.637717028721811D+02 0.330738839401510D+02 -.319321645249133D+02 -.441959857575893D+02
 0.139497520798176D+03 -.820706767019750D+02 0.133804093813328D+02 -.650359564802829D+02
 0.000000000000000D+00 -.000000000000000D+00 -.000000000000000D+00 0.000000000000000D+00
 0.872296144488610D+03 0.000000000000000D+00 0.000000000000000D+00 0.872296144488610D+03
 0.332028284203463D+03 0.000000000000000D+00 0.000000000000000D+00 -.332028284203463D+03
 0.148901486719824D+03 0.899007686782324D+01 0.715892846527472D+02 0.102462625546206D+03
 0.188230806177277D+03 0.150807807796741D+03 0.112436728221773D+03 0.676931669166641D+01
 0.747076279276592D+02 0.597175771375600D+02 0.785846640968211D+01 -.441959857575893D+02
 0.150255276933517D+03 -.263216735744771D+02 0.966379364809767D+02 -.650359564802829D+02
 0.642229230933795D+03 -.193193788227648D+03 -.288522415765179D+03 0.540267860285146D+03
0.469535055070D-04 0.000000000000D+00 0.000000000000D+00 0.139796301612D-09 0.000000000000D+00  7 -2 1 -24 -11 11 23 21 0 0.10454095D-01 0.11058886D+00 0.32884936D+05 0.32884936D+05 0.32884936D+05 0.11636542D+01  1  2  2  1  7  1       -2 0.753602259689D-02 0.100000000000D+01
-.248441032845D-05 0.000000000000D+00 -.180313824289D-06 0.139796301612D-09 0.000000000000D+00  7 -2 1 -24 -11 11 23 21 2 0.10454095D-01 0.11058886D+00 0.32884936D+05 0.32884936D+05 0.32884936D+05 0.11636542D+01  1  2  3  1  7  1       -2 -.539939814333D-03 0.100000000000D+01
0.297191174597D-05 0.000000000000D+00 0.000000000000D+00 0.139796301612D-09 0.000000000000D+00  7 -2 1 -24 -11 11 23 21 2 0.10454095D-01 0.11058886D+00 0.32884936D+05 0.32884936D+05 0.32884936D+05 0.11636542D+01  1  2 15  1  7  1       -2 0.645889069917D-03 0.100000000000D+01
0.854347800920D-05 0.000000000000D+00 -.213630535071D-04 0.139796301612D-09 0.000000000000D+00  7 -2 1 -24 -11 11 23 21 2 0.59728012D-01 0.11058886D+00 0.32884936D+05 0.32884936D+05 0.32884936D+05 0.11636542D+01  1  2  5  1  7  1       -2 0.938103339137D-04 0.100000000000D+01
0.664116106625D-06 0.000000000000D+00 -.456066890188D-05 0.139796301612D-09 0.000000000000D+00  7 21 1 -24 -11 11 23 2 2 0.59728012D-01 0.11058886D+00 0.32884936D+05 0.32884936D+05 0.32884936D+05 0.11636542D+01  1  2  5  3  7  1       -2 0.788436431059D-04 0.100000000000D+01
  </mgrwgt>
  </event>
  <event>
  8     66 0.26562228E-05 0.98405777E+02 0.75467711E-02 0.10548914E+00
       -2 -1    0    0    0  501 0.00000000E+00 0.00000000E+00 0.54698939E+02 0.54699875E+02 0.32000000E+00 0.0000E+00 0.9000E+01
        1 -1    0    0  501    0 0.00000000E+00 0.00000000E+00 -.85130283E+03 0.85130289E+03 0.32000000E+00 0.0000E+00 0.9000E+01
       25  2    1    2    0    0 0.44995521E+02 -.39925321E+02 -.44500446E+03 0.54034172E+03 0.30053548E+03 0.0000E+00 0.0000E+00
       23  2    3    3    0    0 -.43754525E+02 -.11364756E+03 -.28650540E+03 0.32412714E+03 0.90237643E+02 0.0000E+00 0.0000E+00
      -24  1    1    2    0    0 -.44995521E+02 0.39925321E+02 -.35159943E+03 0.36566105E+03 0.80419002E+02 0.0000E+00 0.9000E+01
      -11  1    4    4    0    0 -.41101369E+02 -.10766471E+02 -.13042267E+03 0.13716892E+03 0.51099893E-03 0.0000E+00 0.9000E+01
       11  1    4    4    0    0 -.26531557E+01 -.10288109E+03 -.15608273E+03 0.18695822E+03 0.51099893E-03 0.0000E+00 0.9000E+01
       23  1    3    3    0    0 0.88750046E+02 0.73722241E+02 -.15849907E+03 0.21621458E+03 0.91188000E+02 0.0000E+00 0.9000E+01
#aMCatNLO 1  0  0  2  1 0.29722014D+02 0.00000000D+00  -5  7  0 0.00000000D+00 0.00000000D+00 0.00000000D+00 0.00000000D+00 0.00000000D+00
  <mgrwgt>
 0.1424540855D-02    9    2    0
 0.215791133566531D+03 0.000000000000000D+00 0.000000000000000D+00 0.215791133566531D+03
 0.215791133566531D+03 0.000000000000000D+00 0.000000000000000D+00 -.215791133566531D+03
 0.118643541491638D+03 -.449955208688649D+02 0.399253208187182D+02 -.631699757999752D+02
 0.472220824346414D+02 -.411013694081767D+02 -.107664713443206D+02 -.206079013251855D+02
 0.104379997431432D+03 -.265315569042854D+01 -.102881090440752D+03 0.174248632244209D+02
 0.161336645775351D+03 0.887500459674701D+02 0.737222409663547D+02 0.663530139007397D+02
 0.000000000000000D+00 0.000000000000000D+00 -.000000000000000D+00 -.000000000000000D+00
 0.228895926072761D+03 0.000000000000000D+00 0.000000000000000D+00 0.228895926072761D+03
 0.233838789071833D+03 0.000000000000000D+00 0.000000000000000D+00 -.233838789071833D+03
 0.122712387675724D+03 -.529037827729010D+02 0.424482986756244D+02 -.631699757999752D+02
 0.498052155943024D+02 -.442805632539669D+02 -.975221109686374D+01 -.206079013251855D+02
 0.102647849330722D+03 -.943662456675546D+01 -.100716956023397D+03 0.174248632244209D+02
 0.157439045079883D+03 0.783050502276922D+02 0.770545146425073D+02 0.663530139007397D+02
 0.301302174639623D+02 0.283159203659312D+02 -.903364619787095D+01 -.494286299907170D+01
0.384607917456D-05 0.000000000000D+00 0.000000000000D+00 0.347563329490D-06 0.000000000000D+00  7 -2 1 -24 -11 11 23 21 0 0.84152981D-02 0.13096974D+00 0.38591072D+05 0.38591072D+05 0.38591072D+05 0.11573228D+01  1  2  2  2  7  2        1 0.662434780899D-03 0.100000000000D+01
-.211379302074D-06 0.000000000000D+00 -.147699567262D-07 0.347563329490D-06 0.000000000000D+00  7 -2 1 -24 -11 11 23 21 2 0.84152981D-02 0.13096974D+00 0.38591072D+05 0.38591072D+05 0.38591072D+05 0.11573228D+01  1  2  3  2  7  2        1 -.487636679562D-04 0.100000000000D+01
0.251279078791D-06 0.000000000000D+00 0.000000000000D+00 0.347563329490D-06 0.000000000000D+00  7 -2 1 -24 -11 11 23 21 2 0.84152981D-02 0.13096974D+00 0.38591072D+05 0.38591072D+05 0.38591072D+05 0.11573228D+01  1  2 15  2  7  2        1 0.579682563158D-04 0.100000000000D+01
0.594216439015D-05 0.000000000000D+00 0.000000000000D+00 0.347563329490D-06 0.000000000000D+00  7 -2 1 -24 -11 11 23 21 2 0.84152981D-02 0.14561485D+00 0.44986314D+05 0.44986314D+05 0.44986314D+05 0.11513538D+01  1  2 12  2  7  2        1 0.114298068536D-02 0.100000000000D+01
-.516202126931D-05 0.000000000000D+00 0.000000000000D+00 0.347563329490D-06 0.000000000000D+00  7 -2 1 -24 -11 11 23 21 2 0.84152981D-02 0.13096974D+00 0.38591072D+05 0.38591072D+05 0.38591072D+05 0.11573228D+01  1  2  4  2  7  2        1 -.119084077149D-02 0.100000000000D+01
-.185420496594D-04 0.000000000000D+00 -.413472317765D-05 0.347563329490D-06 0.000000000000D+00  7 -2 1 -24 -11 11 23 21 2 0.84152981D-02 0.14809744D+00 0.38591072D+05 0.38591072D+05 0.38591072D+05 0.11573228D+01  1  2  5  2  7  2        1 -.350119192103D-02 0.100000000000D+01
0.189380433905D-04 0.000000000000D+00 0.410369017549D-05 0.347563329490D-06 0.000000000000D+00  7 -2 1 -24 -11 11 23 21 2 0.84152981D-02 0.13096974D+00 0.38591072D+05 0.38591072D+05 0.38591072D+05 0.11573228D+01  1  2  6  2  7  2        1 0.436886890330D-02 0.100000000000D+01
0.101475109050D-06 0.000000000000D+00 0.000000000000D+00 0.347563329490D-06 0.000000000000D+00  7 -2 21 -24 -11 11 23 -1 2 0.84152981D-02 0.14561485D+00 0.44986314D+05 0.44986314D+05 0.44986314D+05 0.11513538D+01  1  2 12  4  7  2        1 0.299558857019D-04 0.100000000000D+01
-.338961643348D-06 0.000000000000D+00 -.800415074554D-07 0.347563329490D-06 0.000000000000D+00  7 -2 21 -24 -11 11 23 -1 2 0.84152981D-02 0.14809744D+00 0.38591072D+05 0.38591072D+05 0.38591072D+05 0.11573228D+01  1  2  5  4  7  2        1 -.968712963814D-04 0.100000000000D+01
  </mgrwgt>
  </event>
  <event>
  8     66 0.26562228E-05 0.19848423E+03 0.75467711E-02 0.10255245E+00
       -2 -1    0    0    0  501 0.00000000E+00 0.00000000E+00 0.28695771E+02 0.28697555E+02 0.32000000E+00 0.0000E+00 0.9000E+01
        1 -1    0    0  501    0 0.00000000E+00 0.00000000E+00 -.29257788E+04 0.29257788E+04 0.32000000E+00 0.0000E+00 0.9000E+01
       25  2    1    2    0    0 -.45281232E+01 0.16154828E+03 -.24294463E+04 0.24532083E+04 0.29983877E+03 0.0000E+00 0.0000E+00
       23  2    3    3    0    0 0.16854591E+02 0.70397129E+02 -.20218511E+04 0.20251723E+04 0.90559311E+02 0.0000E+00 0.0000E+00
      -24  1    1    2    0    0 0.45281232E+01 -.16154828E+03 -.46763664E+03 0.50126799E+03 0.80419002E+02 0.0000E+00 0.9000E+01
      -13  1    4    4    0    0 0.22726048E+02 0.95853764E+01 -.12907969E+03 0.13141510E+03 0.10565837E+00 0.0000E+00 0.9000E+01
       13  1    4    4    0    0 -.58714576E+01 0.60811753E+02 -.18927714E+04 0.18937571E+04 0.10565837E+00 0.0000E+00 0.9000E+01
       23  1    3    3    0    0 -.21382714E+02 0.91151147E+02 -.40759525E+03 0.42803609E+03 0.91188000E+02 0.0000E+00 0.9000E+01
#aMCatNLO 1  0  0  1  1 0.14116781D+03 0.00000000D+00  -5  7  0 0.00000000D+00 0.00000000D+00 0.00000000D+00 0.00000000D+00 0.00000000D+00
  <mgrwgt>
 0.1216904006D-02    7    2    0
 0.289758757881858D+03 0.000000000000000D+00 0.000000000000000D+00 0.289758757881858D+03
 0.289758757881858D+03 0.000000000000000D+00 0.000000000000000D+00 -.289758757881858D+03
 0.217771228140916D+03 0.452812315917895D+01 -.161548276158569D+03 0.121814376912098D+03
 0.246897034800730D+02 0.227260871760033D+02 0.958530666362086D+01 -.110829407964410D+01
 0.192479036745159D+03 -.587149633185479D+01 0.608118223620764D+02 -.182525689638945D+03
 0.144577547397567D+03 -.213827140033275D+02 0.911511471328713D+02 0.618196068064913D+02
 0.000000000000000D+00 -.000000000000000D+00 0.000000000000000D+00 0.000000000000000D+00
 0.373350463091705D+03 0.000000000000000D+00 0.000000000000000D+00 0.373350463091705D+03
 0.364554755961720D+03 0.000000000000000D+00 0.000000000000000D+00 -.364554755961720D+03
 0.262865021992014D+03 0.164924473466494D+02 -.217990964469922D+03 0.121814376912098D+03
 0.242754607657221D+02 0.239449613220283D+02 0.383516712904498D+01 -.110829407964410D+01
 0.183319397267407D+03 0.348313368705565D+01 0.166805820051542D+02 -.182525689638945D+03
 0.126003782373471D+03 -.146472196506602D+02 0.593758957761240D+02 0.618196068064913D+02
 0.141441556654811D+03 -.292733227050732D+02 0.138099319559599D+03 0.879570712998547D+01
0.639319829515D-04 0.000000000000D+00 0.000000000000D+00 0.317296773358D-05 0.000000000000D+00  7 -2 1 -24 -13 13 23 21 0 0.44148725D-02 0.45011995D+00 0.39395991D+05 0.39395991D+05 0.39395991D+05 0.11565136D+01  1  2  2  1  7  1       -2 0.112772509469D-02 0.100000000000D+01
-.293363309780D-05 0.000000000000D+00 -.245515648212D-06 0.317296773358D-05 0.000000000000D+00  7 -2 1 -24 -13 13 23 21 2 0.44148725D-02 0.45011995D+00 0.39395991D+05 0.39395991D+05 0.39395991D+05 0.11565136D+01  1  2  3  1  7  1       -2 -.692137511306D-04 0.100000000000D+01
0.412310247885D-05 0.000000000000D+00 0.000000000000D+00 0.317296773358D-05 0.000000000000D+00  7 -2 1 -24 -13 13 23 21 2 0.44148725D-02 0.45011995D+00 0.39395991D+05 0.39395991D+05 0.39395991D+05 0.11565136D+01  1  2 15  1  7  1       -2 0.972771233972D-04 0.100000000000D+01
-.187929222710D-04 0.000000000000D+00 0.000000000000D+00 0.317296773358D-05 0.000000000000D+00  7 -2 1 -24 -13 13 23 21 2 0.44148725D-02 0.45011995D+00 0.39395991D+05 0.39395991D+05 0.39395991D+05 0.11565136D+01  1  2  4  1  7  1       -2 -.443384909333D-03 0.100000000000D+01
-.638188462651D-05 0.000000000000D+00 -.210737061781D-04 0.317296773358D-05 0.000000000000D+00  7 -2 1 -24 -13 13 23 21 2 0.83367091D-02 0.45011995D+00 0.39395991D+05 0.39395991D+05 0.39395991D+05 0.11565136D+01  1  2  5  1  7  1       -2 -.586047292077D-04 0.100000000000D+01
0.193726196591D-04 0.000000000000D+00 0.174314555934D-04 0.317296773358D-05 0.000000000000D+00  7 -2 1 -24 -13 13 23 21 2 0.44148725D-02 0.45011995D+00 0.39395991D+05 0.39395991D+05 0.39395991D+05 0.11565136D+01  1  2  6  1  7  1       -2 0.457061817594D-03 0.100000000000D+01
0.753675775567D-06 0.000000000000D+00 -.145677534029D-05 0.317296773358D-05 0.000000000000D+00  7 21 1 -24 -13 13 23 2 2 0.83367091D-02 0.45011995D+00 0.39395991D+05 0.39395991D+05 0.39395991D+05 0.11565136D+01  1  2  5  3  7  1       -2 0.106043359999D-03 0.100000000000D+01
  </mgrwgt>
  </event>
  <event>
  8     66 0.26562228E-05 0.63413159E+03 0.75467711E-02 0.88244633E-01
       -2 -1    0    0    0  501 0.00000000E+00 0.00000000E+00 0.76034249E+03 0.76034256E+03 0.32000000E+00 0.0000E+00 0.9000E+01
        1 -1    0    0  501    0 0.00000000E+00 0.00000000E+00 -.66115928E+03 0.66115936E+03 0.32000000E+00 0.0000E+00 0.9000E+01
       25  2    1    2    0    0 -.61578913E+03 0.17802752E+02 0.32785447E+03 0.75948157E+03 0.29968402E+03 0.0000E+00 0.0000E+00
       23  2    3    3    0    0 -.43913183E+03 0.34655903E+02 0.10757692E+03 0.46227914E+03 0.89952289E+02 0.0000E+00 0.0000E+00
      -24  1    1    2    0    0 0.61578913E+03 -.17802752E+02 -.22867126E+03 0.66202035E+03 0.80419002E+02 0.0000E+00 0.9000E+01
      -11  1    4    4    0    0 -.22750464E+03 -.21510056E+02 0.77315988E+02 0.24124429E+03 0.51099893E-03 0.0000E+00 0.9000E+01
       11  1    4    4    0    0 -.21162720E+03 0.56165959E+02 0.30260928E+02 0.22103486E+03 0.51099893E-03 0.0000E+00 0.9000E+01
       23  1    3    3    0    0 -.17665729E+03 -.16853151E+02 0.22027755E+03 0.29720242E+03 0.91188000E+02 0.0000E+00 0.9000E+01
#aMCatNLO 1  0  0  1  2 0.49147652D+03 0.00000000D+00  -5  7  0 0.00000000D+00 0.00000000D+00 0.00000000D+00 0.00000000D+00 0.00000000D+00
  <mgrwgt>
 0.1061766558D-02    3    2    0
 0.709018755788850D+03 0.000000000000000D+00 0.000000000000000D+00 0.709018755788850D+03
 0.709018755788850D+03 0.000000000000000D+00 0.000000000000000D+00 -.709018755788850D+03
 0.679631911971729D+03 0.615789125031626D+03 -.178027523202119D+02 -.275534272493619D+03
 0.236425879087138D+03 -.227504638807282D+03 -.215100559698559D+02 0.606312882550563D+02
 0.219458298177990D+03 -.211627195943173D+03 0.561659594469272D+02 0.148747966646835D+02
 0.282521422340842D+03 -.176657290281170D+03 -.168531511568595D+02 0.200028187573879D+03
 0.000000000000000D+00 -.000000000000000D+00 0.000000000000000D+00 -.000000000000000D+00
 0.850724225972708D+03 0.000000000000000D+00 0.000000000000000D+00 0.850724225972708D+03
 0.135229675973168D+04 0.000000000000000D+00 0.000000000000000D+00 -.135229675973168D+04
 0.932728282522629D+03 0.887280233962254D+03 -.181516986682433D+02 -.275534272493619D+03
 0.171382483271289D+03 -.158837386349717D+03 -.215983136924340D+02 0.606312882550563D+02
 0.158893032550717D+03 -.147919953172194D+03 0.560840768033458D+02 0.148747966646835D+02
 0.237789177297340D+03 -.890467785813141D+02 -.169657565686067D+02 0.200028187573879D+03
 0.702228010062416D+03 -.491476115859030D+03 0.631692125938182D+00 -.501572533758977D+03
0.578384708848D-03 0.000000000000D+00 0.000000000000D+00 0.876708842001D-05 0.000000000000D+00  7 -2 1 -24 -11 11 23 21 0 0.11697578D+00 0.10171682D+00 0.40212287D+06 0.40212287D+06 0.40212287D+06 0.10752619D+01  1  2  2  1  7  1       -2 0.105153087282D-02 0.100000000000D+01
-.316456815560D-04 0.000000000000D+00 -.222114957417D-05 0.876708842001D-05 0.000000000000D+00  7 -2 1 -24 -11 11 23 21 2 0.11697578D+00 0.10171682D+00 0.40212287D+06 0.40212287D+06 0.40212287D+06 0.10752619D+01  1  2  3  1  7  1       -2 -.665193857575D-04 0.100000000000D+01
0.365151677386D-04 0.000000000000D+00 0.000000000000D+00 0.876708842001D-05 0.000000000000D+00  7 -2 1 -24 -11 11 23 21 2 0.11697578D+00 0.10171682D+00 0.40212287D+06 0.40212287D+06 0.40212287D+06 0.10752619D+01  1  2 15  1  7  1       -2 0.767550708143D-04 0.100000000000D+01
  </mgrwgt>
  </event>
  <event>
  8     66 0.26562228E-05 0.37336665E+03 0.75467711E-02 0.91230076E-01
       -2 -1    0    0    0  501 0.00000000E+00 0.00000000E+00 0.70720873E+03 0.70720881E+03 0.32000000E+00 0.0000E+00 0.9000E+01
        1 -1    0    0  501    0 0.00000000E+00 0.00000000E+00 -.65882606E+03 0.65882614E+03 0.32000000E+00 0.0000E+00 0.9000E+01
       25  2    1    2    0    0 -.61643604E+03 -.17121305E+03 -.70219914E+02 0.71041227E+03 0.30074485E+03 0.0000E+00 0.0000E+00
       23  2    3    3    0    0 -.32804379E+03 0.15190989E+02 0.27593259E+02 0.34190281E+03 0.91063996E+02 0.0000E+00 0.0000E+00
      -24  1    1    2    0    0 0.61643604E+03 0.17121305E+03 0.11860258E+03 0.65562267E+03 0.80419002E+02 0.0000E+00 0.9000E+01
      -13  1    4    4    0    0 -.17895489E+03 -.31621653E+02 0.36606388E+02 0.18537751E+03 0.10565837E+00 0.0000E+00 0.9000E+01
       13  1    4    4    0    0 -.14908890E+03 0.46812642E+02 -.90131284E+01 0.15652530E+03 0.10565837E+00 0.0000E+00 0.9000E+01
       23  1    3    3    0    0 -.28839225E+03 -.18640404E+03 -.97813173E+02 0.36850946E+03 0.91188000E+02 0.0000E+00 0.9000E+01
#aMCatNLO 1  0  0  1  2 0.26012549D+02 0.00000000D+00  -5  7  0 0.00000000D+00 0.00000000D+00 0.00000000D+00 0.00000000D+00 0.00000000D+00
  <mgrwgt>
 0.1045814018D-02    9    2    0
 0.682588930156642D+03 0.000000000000000D+00 0.000000000000000D+00 0.682588930156642D+03
 0.682588930156642D+03 0.000000000000000D+00 0.000000000000000D+00 -.682588930156642D+03
 0.651830941392559D+03 0.616436037078637D+03 0.171213053706519D+03 0.954414094280489D+02
 0.184196579640748D+03 -.178954932792216D+03 -.316217585718533D+02 0.300595469943807D+02
 0.156942964015026D+03 -.149088854838129D+03 0.468127480017003D+02 -.145661917262580D+02
 0.372207375264952D+03 -.288392249448292D+03 -.186404043136366D+03 -.110934764696172D+03
 0.000000000000000D+00 -.000000000000000D+00 0.000000000000000D+00 0.000000000000000D+00
 0.713361178153135D+03 0.000000000000000D+00 0.000000000000000D+00 0.713361178153135D+03
 0.688232319678651D+03 0.000000000000000D+00 0.000000000000000D+00 -.688232319678651D+03
 0.649550534775062D+03 0.617338435788043D+03 0.158848589346454D+03 0.954414094280489D+02
 0.184582744640194D+03 -.178699215316302D+03 -.351255419707291D+02 0.300595469943807D+02
 0.155875052545425D+03 -.148871941827154D+03 0.438406546625988D+02 -.145661917262580D+02
 0.375417331702407D+03 -.287873834530728D+03 -.193507247856341D+03 -.110934764696172D+03
 0.361678341686986D+02 -.189344411385859D+01 0.259435458180174D+02 0.251288584744832D+02
0.213412006579D-03 0.000000000000D+00 0.000000000000D+00 0.662696729983D-05 0.000000000000D+00  7 -2 1 -24 -13 13 23 21 0 0.10880136D+00 0.10135787D+00 0.44762106D+06 0.44762106D+06 0.44762106D+06 0.10719236D+01  1  2  2  1  7  1       -2 0.465769713832D-03 0.100000000000D+01
-.118504323633D-04 0.000000000000D+00 -.819558297934D-06 0.662696729983D-05 0.000000000000D+00  7 -2 1 -24 -13 13 23 21 2 0.10880136D+00 0.10135787D+00 0.44762106D+06 0.44762106D+06 0.44762106D+06 0.10719236D+01  1  2  3  1  7  1       -2 -.297176385063D-04 0.100000000000D+01
0.135618617139D-04 0.000000000000D+00 0.000000000000D+00 0.662696729983D-05 0.000000000000D+00  7 -2 1 -24 -13 13 23 21 2 0.10880136D+00 0.10135787D+00 0.44762106D+06 0.44762106D+06 0.44762106D+06 0.10719236D+01  1  2 15  1  7  1       -2 0.340094345533D-04 0.100000000000D+01
0.915131889335D-03 0.000000000000D+00 0.000000000000D+00 0.662696729983D-05 0.000000000000D+00  7 -2 1 -24 -13 13 23 21 2 0.11414354D+00 0.10135787D+00 0.46544951D+06 0.46544951D+06 0.46544951D+06 0.10707152D+01  1  2 12  1  7  1       -2 0.202720855805D-02 0.100000000000D+01
-.928869646919D-03 0.000000000000D+00 0.000000000000D+00 0.662696729983D-05 0.000000000000D+00  7 -2 1 -24 -13 13 23 21 2 0.10880136D+00 0.10135787D+00 0.44762106D+06 0.44762106D+06 0.44762106D+06 0.10719236D+01  1  2  4  1  7  1       -2 -.232935065493D-02 0.100000000000D+01
-.434513725181D-02 0.000000000000D+00 -.512726221890D-03 0.662696729983D-05 0.000000000000D+00  7 -2 1 -24 -13 13 23 21 2 0.11426886D+00 0.10135787D+00 0.44762106D+06 0.44762106D+06 0.44762106D+06 0.10719236D+01  1  2  5  1  7  1       -2 -.963663668836D-02 0.100000000000D+01
0.436564356642D-02 0.000000000000D+00 0.512110548386D-03 0.662696729983D-05 0.000000000000D+00  7 -2 1 -24 -13 13 23 21 2 0.10880136D+00 0.10135787D+00 0.44762106D+06 0.44762106D+06 0.44762106D+06 0.10719236D+01  1  2  6  1  7  1       -2 0.109478383047D-01 0.100000000000D+01
0.147491892782D-04 0.000000000000D+00 0.000000000000D+00 0.662696729983D-05 0.000000000000D+00  7 21 1 -24 -13 13 23 2 2 0.11414354D+00 0.10135787D+00 0.46544951D+06 0.46544951D+06 0.46544951D+06 0.10707152D+01  1  2 12  3  7  1       -2 0.289675299544D-03 0.100000000000D+01
-.367316425153D-04 0.000000000000D+00 -.438559265444D-05 0.662696729983D-05 0.000000000000D+00  7 21 1 -24 -13 13 23 2 2 0.11426886D+00 0.10135787D+00 0.44762106D+06 0.44762106D+06 0.44762106D+06 0.10719236D+01  1  2  5  3  7  1       -2 -.722982310487D-03 0.100000000000D+01
  </mgrwgt>
  </event>
  <event>
  8     66 0.26562228E-05 0.19721222E+03 0.75467711E-02 0.10640840E+00
       -2 -1    0    0    0  501 0.00000000E+00 0.00000000E+00 0.18682203E+02 0.18684943E+02 0.32000000E+00 0.0000E+00 0.9000E+01
        1 -1    0    0  501    0 0.00000000E+00 0.00000000E+00 -.33528098E+04 0.33528099E+04 0.32000000E+00 0.0000E+00 0.9000E+01
       25  2    1    2    0    0 0.10751415E+03 -.87860020E+02 -.19332556E+04 0.19614635E+04 0.30097017E+03 0.0000E+00 0.0000E+00
       23  2    3    3    0    0 0.11510854E+03 -.75988809E+02 -.17318148E+04 0.17398958E+04 0.95028876E+02 0.0000E+00 0.0000E+00
      -24  1    1    2    0    0 -.10751415E+03 0.87860020E+02 -.14008720E+04 0.14100313E+04 0.80419002E+02 0.0000E+00 0.9000E+01
      -13  1    4    4    0    0 0.39448274E+02 -.45253868E+02 -.12312828E+04 0.12327455E+04 0.10565837E+00 0.0000E+00 0.9000E+01
       13  1    4    4    0    0 0.75660267E+02 -.30734941E+02 -.50053200E+03 0.50715028E+03 0.10565837E+00 0.0000E+00 0.9000E+01
       23  1    3    3    0    0 -.75943953E+01 -.11871211E+02 -.20144080E+03 0.22156770E+03 0.91188000E+02 0.0000E+00 0.9000E+01
#aMCatNLO 1  0  0  1  2 0.35049149D+01 0.00000000D+00  -5  7  0 0.00000000D+00 0.00000000D+00 0.00000000D+00 0.00000000D+00 0.00000000D+00
  <mgrwgt>
 0.9039093777D-03    8    2    0
 0.250284876076572D+03 0.000000000000000D+00 0.000000000000000D+00 0.250284876076572D+03
 0.250284876076572D+03 0.000000000000000D+00 0.000000000000000D+00 -.250284876076572D+03
 0.166264796780175D+03 -.107514152854612D+03 0.878600264437743D+02 -.435670676456057D+02
 0.101765994186810D+03 0.394482407862542D+02 -.452538862645681D+02 -.821720125690807D+02
 0.819405101492858D+02 0.756603030007607D+02 -.307349245370801D+02 0.671789900625811D+01
 0.150598451036873D+03 -.759439093240241D+01 -.118712156421260D+02 0.119021181208428D+03
 0.000000000000000D+00 0.000000000000000D+00 -.000000000000000D+00 -.000000000000000D+00
 0.250661331981291D+03 0.000000000000000D+00 0.000000000000000D+00 0.250661331981291D+03
 0.258584111257967D+03 0.000000000000000D+00 0.000000000000000D+00 -.258584111257967D+03
 0.167154493004230D+03 -.108642203498790D+03 0.881600295645454D+02 -.435670676456057D+02
 0.101420118781866D+03 0.387608053779118D+02 -.450710640048621D+02 -.821720125690807D+02
 0.813752426968560D+02 0.751077601640175D+02 -.305879767238429D+02 0.671789900625811D+01
 0.150632167965902D+03 -.861353830696401D+01 -.116001751578425D+02 0.119021181208428D+03
 0.866342079040418D+01 0.338717626382434D+01 -.900813677997841D+00 -.792277927667586D+01
0.525074742060D-04 0.000000000000D+00 0.000000000000D+00 0.375361014023D-07 0.000000000000D+00  7 -2 1 -24 -13 13 23 21 0 0.28743970D-02 0.51581711D+00 0.38892660D+05 0.38892660D+05 0.38892660D+05 0.11570174D+01  1  2  2  1  7  1       -2 0.835669146914D-03 0.100000000000D+01
-.271564047339D-05 0.000000000000D+00 -.201642526487D-06 0.375361014023D-07 0.000000000000D+00  7 -2 1 -24 -13 13 23 21 2 0.28743970D-02 0.51581711D+00 0.38892660D+05 0.38892660D+05 0.38892660D+05 0.11570174D+01  1  2  3  1  7  1       -2 -.578582543538D-04 0.100000000000D+01
0.337920570882D-05 0.000000000000D+00 0.000000000000D+00 0.375361014023D-07 0.000000000000D+00  7 -2 1 -24 -13 13 23 21 2 0.28743970D-02 0.51581711D+00 0.38892660D+05 0.38892660D+05 0.38892660D+05 0.11570174D+01  1  2 15  1  7  1       -2 0.719958865434D-04 0.100000000000D+01
-.113324480931D-04 0.000000000000D+00 0.000000000000D+00 0.375361014023D-07 0.000000000000D+00  7 -2 1 -24 -13 13 23 21 2 0.28743970D-02 0.51581711D+00 0.38892660D+05 0.38892660D+05 0.38892660D+05 0.11570174D+01  1  2  4  1  7  1       -2 -.241444208337D-03 0.100000000000D+01
0.332789523330D-07 0.000000000000D+00 0.000000000000D+00 0.375361014023D-07 0.000000000000D+00  7 -2 1 -24 -13 13 23 21 2 0.30801379D-02 0.51581711D+00 0.38892660D+05 0.38892660D+05 0.38892660D+05 0.11570174D+01  1  2  5  1  7  1       -2 0.640861857407D-06 0.100000000000D+01
-.331995877105D-07 0.000000000000D+00 0.000000000000D+00 0.375361014023D-07 0.000000000000D+00  7 -2 1 -24 -13 13 23 21 2 0.28743970D-02 0.51581711D+00 0.38892660D+05 0.38892660D+05 0.38892660D+05 0.11570174D+01  1  2  6  1  7  1       -2 -.707335970655D-06 0.100000000000D+01
0.112333990866D-04 0.000000000000D+00 0.000000000000D+00 0.375361014023D-07 0.218016145404D-07  7 -2 1 -24 -13 13 23 21 2 0.28787205D-02 0.53292117D+00 0.39551409D+05 0.39551409D+05 0.39551409D+05 0.11563595D+01  1  2 11  1  7  1       -2 0.194897188511D-03 0.100000000000D+01
0.327369484789D-06 0.000000000000D+00 0.000000000000D+00 0.375361014023D-07 0.622022878769D-11  7 21 1 -24 -13 13 23 2 2 0.28787205D-02 0.53292117D+00 0.39551409D+05 0.39551409D+05 0.39551409D+05 0.11563595D+01  1  2 11  3  7  1       -2 0.100716092585D-03 0.100000000000D+01
  </mgrwgt>
  </event>
  <event>
  8     66 0.26562228E-05 0.16492572E+03 0.75467711E-02 0.95335080E-01
       -2 -1    0    0    0  501 0.00000000E+00 0.00000000E+00 0.22589072E+02 0.22591339E+02 0.32000000E+00 0.0000E+00 0.9000E+01
        1 -1    0    0  501    0 0.00000000E+00 0.00000000E+00 -.18405875E+04 0.18405875E+04 0.32000000E+00 0.0000E+00 0.9000E+01
       25  2    1    2    0    0 -.12625782E+01 0.14460091E+02 -.16395028E+04 0.16668663E+04 0.30043871E+03 0.0000E+00 0.0000E+00
       23  2    3    3    0    0 0.89517759E+02 -.47333997E+02 -.11134301E+04 0.11217725E+04 0.91613688E+02 0.0000E+00 0.0000E+00
      -24  1    1    2    0    0 0.12625782E+01 -.14460091E+02 -.17849569E+03 0.19631254E+03 0.80419002E+02 0.0000E+00 0.9000E+01
      -13  1    4    4    0    0 0.48394044E+02 -.91022750E+01 -.89116995E+03 0.89252940E+03 0.10565837E+00 0.0000E+00 0.9000E+01
       13  1    4    4    0    0 0.41123715E+02 -.38231722E+02 -.22226012E+03 0.22924310E+03 0.10565837E+00 0.0000E+00 0.9000E+01
       23  1    3    3    0    0 -.90780337E+02 0.61794088E+02 -.52607268E+03 0.54509384E+03 0.91188000E+02 0.0000E+00 0.9000E+01
#aMCatNLO 1  0  0  1  2 0.40561620D+03 0.00000000D+00  -5  7  0 0.00000000D+00 0.00000000D+00 0.00000000D+00 0.00000000D+00 0.00000000D+00
  <mgrwgt>
 0.3048605304D-02    5    2    0
 0.203910033753291D+03 0.000000000000000D+00 0.000000000000000D+00 0.203910033753291D+03
 0.203910033753291D+03 0.000000000000000D+00 0.000000000000000D+00 -.203910033753291D+03
 0.101173373831781D+03 0.126258060879159D+01 -.144601183047319D+02 0.596502010638201D+02
 0.104939356907701D+03 0.483940381484755D+02 -.910221918948761D+01 -.926684159016025D+02
 0.565256628359844D+02 0.411236767152997D+02 -.382317369277036D+02 0.650600214830696D+01
 0.145181673931115D+03 -.907802954725668D+02 0.617940744219231D+02 0.265122126894754D+02
 0.000000000000000D+00 -.000000000000000D+00 -.000000000000000D+00 0.000000000000000D+00
 0.505306170842237D+03 0.000000000000000D+00 0.000000000000000D+00 0.505306170842237D+03
 0.476518707536636D+03 0.000000000000000D+00 0.000000000000000D+00 -.476518707536636D+03
 0.136699300626076D+03 0.866671896075701D+02 0.339136343652396D+02 0.596502010638201D+02
 0.185425523345465D+03 0.152645184781933D+03 0.499463408581318D+02 -.926684159016025D+02
 0.965724237376177D+02 0.960912439320047D+02 -.709773218740963D+01 0.650600214830696D+01
 0.156491162206720D+03 0.175308027846183D+02 0.123142218742577D+03 0.265122126894754D+02
 0.406636468462993D+03 -.352934421106126D+03 -.199904461778539D+03 0.287874633056011D+02
0.172388195412D-04 0.000000000000D+00 0.000000000000D+00 0.496824540068D-06 0.000000000000D+00  7 -2 1 -24 -13 13 23 21 0 0.34754184D-02 0.28316749D+00 0.27200494D+05 0.27200494D+05 0.27200494D+05 0.11713040D+01  1  2  2  1  7  1       -2 0.231374905850D-02 0.100000000000D+01
-.905286949782D-06 0.000000000000D+00 -.662016061236D-07 0.496824540068D-06 0.000000000000D+00  7 -2 1 -24 -13 13 23 21 2 0.34754184D-02 0.28316749D+00 0.27200494D+05 0.27200494D+05 0.27200494D+05 0.11713040D+01  1  2  3  1  7  1       -2 -.166699467706D-03 0.100000000000D+01
0.107186379672D-05 0.000000000000D+00 0.000000000000D+00 0.496824540068D-06 0.000000000000D+00  7 -2 1 -24 -13 13 23 21 2 0.34754184D-02 0.28316749D+00 0.27200494D+05 0.27200494D+05 0.27200494D+05 0.11713040D+01  1  2 15  1  7  1       -2 0.197372915195D-03 0.100000000000D+01
0.327727195007D-04 0.000000000000D+00 -.115250892523D-04 0.496824540068D-06 0.000000000000D+00  7 -2 1 -24 -13 13 23 21 2 0.31869241D-01 0.28316749D+00 0.27200494D+05 0.27200494D+05 0.27200494D+05 0.11713040D+01  1  2  5  1  7  1       -2 0.194779251315D-03 0.100000000000D+01
0.705253943763D-05 0.000000000000D+00 -.306588557101D-05 0.496824540068D-06 0.000000000000D+00  7 21 1 -24 -13 13 23 2 2 0.31869241D-01 0.28316749D+00 0.27200494D+05 0.27200494D+05 0.27200494D+05 0.11713040D+01  1  2  5  3  7  1       -2 0.509403546784D-03 0.100000000000D+01
  </mgrwgt>
  </event>
  <event>
  8     66 0.26562228E-05 0.25067269E+03 0.75467711E-02 0.10182937E+00
       -2 -1    0    0    0  501 0.00000000E+00 0.00000000E+00 0.26525358E+03 0.26525377E+03 0.32000000E+00 0.0000E+00 0.9000E+01
        1 -1    0    0  501    0 0.00000000E+00 0.00000000E+00 -.27280455E+03 0.27280474E+03 0.32000000E+00 0.0000E+00 0.9000E+01
       25  2    1    2    0    0 0.76828440E+02 -.15504526E+03 -.91688929E+01 0.34724059E+03 0.30091580E+03 0.0000E+00 0.0000E+00
       23  2    3    3    0    0 -.21180752E+02 0.32442176E+02 0.48414075E+02 0.10977819E+03 0.90588134E+02 0.0000E+00 0.0000E+00
      -24  1    1    2    0    0 -.76828440E+02 0.15504526E+03 0.16179188E+01 0.19081792E+03 0.80419002E+02 0.0000E+00 0.9000E+01
      -13  1    4    4    0    0 0.48967130E+00 0.51378553E+02 0.59788660E+02 0.78833308E+02 0.10565837E+00 0.0000E+00 0.9000E+01
       13  1    4    4    0    0 -.21670423E+02 -.18936377E+02 -.11374585E+02 0.30944885E+02 0.10565837E+00 0.0000E+00 0.9000E+01
       23  1    3    3    0    0 0.98009191E+02 -.18748744E+03 -.57582968E+02 0.23746240E+03 0.91188000E+02 0.0000E+00 0.9000E+01
#aMCatNLO 1  0  0  1  2 0.49484315D+02 0.00000000D+00  -5  7  0 0.00000000D+00 0.00000000D+00 0.00000000D+00 0.00000000D+00 0.00000000D+00
  <mgrwgt>
 0.1245526024D-02    4    2    0
 0.269002761583734D+03 0.000000000000000D+00 0.000000000000000D+00 0.269002761583734D+03
 0.269002761583734D+03 0.000000000000000D+00 0.000000000000000D+00 -.269002761583734D+03
 0.190859420759099D+03 -.768284418101948D+02 0.155045269078876D+03 0.429623130250253D+01
 0.796802765139495D+02 0.489702869357888D+00 0.513786453246626D+02 0.609010793093334D+02
 0.307882228286489D+02 -.216704521361770D+02 -.189364733141797D+02 -.109414874483115D+02
 0.236677603065770D+03 0.980091910770139D+02 -.187487441089359D+03 -.542558231635245D+02
 0.000000000000000D+00 0.000000000000000D+00 -.000000000000000D+00 -.000000000000000D+00
 0.274233274287623D+03 0.000000000000000D+00 0.000000000000000D+00 0.274233274287623D+03
 0.419629515293861D+03 0.000000000000000D+00 0.000000000000000D+00 -.419629515293861D+03
 0.207334671764226D+03 -.876833679168178D+02 0.169745749721659D+03 0.429623130250253D+01
 0.837914395761479D+02 -.396659980313071D+01 0.574136740785967D+02 0.609010793093334D+02
 0.307010239207175D+02 -.233466729600135D+02 -.166664208484330D+02 -.109414874483115D+02
 0.218449312823107D+03 0.856022540232714D+02 -.170685121460165D+03 -.542558231635245D+02
 0.153586341497286D+03 0.293943866566906D+02 -.398078814916576D+02 -.145396241006238D+03
0.206568219513D-04 0.000000000000D+00 0.000000000000D+00 0.513584564538D-06 0.000000000000D+00  7 -2 1 -24 -13 13 23 21 0 0.40808272D-01 0.41969960D-01 0.62836796D+05 0.62836796D+05 0.62836796D+05 0.11386669D+01  1  2  2  1  7  1       -2 0.129147715125D-02 0.100000000000D+01
-.114065166573D-05 0.000000000000D+00 -.793276353592D-07 0.513584564538D-06 0.000000000000D+00  7 -2 1 -24 -13 13 23 21 2 0.40808272D-01 0.41969960D-01 0.62836796D+05 0.62836796D+05 0.62836796D+05 0.11386669D+01  1  2  3  1  7  1       -2 -.924633579101D-04 0.100000000000D+01
0.134327620626D-05 0.000000000000D+00 0.000000000000D+00 0.513584564538D-06 0.000000000000D+00  7 -2 1 -24 -13 13 23 21 2 0.40808272D-01 0.41969960D-01 0.62836796D+05 0.62836796D+05 0.62836796D+05 0.11386669D+01  1  2 15  1  7  1       -2 0.108888482228D-03 0.100000000000D+01
-.769489418494D-06 0.000000000000D+00 0.000000000000D+00 0.513584564538D-06 0.000000000000D+00  7 -2 1 -24 -13 13 23 21 2 0.40808272D-01 0.41969960D-01 0.62836796D+05 0.62836796D+05 0.62836796D+05 0.11386669D+01  1  2  4  1  7  1       -2 -.623762517938D-04 0.100000000000D+01
  </mgrwgt>
  </event>
  <event>
  9     66 0.26562228E-05 0.35890397E+03 0.75467711E-02 0.96759327E-01
       21 -1    0    0  502  501 0.00000000E+00 0.00000000E+00 0.95886977E+02 0.95889910E+02 0.75000000E+00 0.0000E+00 0.9000E+01
        1 -1    0    0  501    0 0.00000000E+00 0.00000000E+00 -.26857280E+04 0.26857280E+04 0.32000000E+00 0.0000E+00 0.9000E+01
       25  2    1    2    0    0 0.90059586E+02 -.24906470E+03 -.13011556E+04 0.13613869E+04 0.30037416E+03 0.0000E+00 0.0000E+00
       23  2    3    3    0    0 0.10879239E+03 -.20759324E+03 -.11606204E+04 0.11877892E+04 0.94194765E+02 0.0000E+00 0.0000E+00
      -24  1    1    2    0    0 -.17996748E+03 0.31547738E+03 -.49755255E+03 0.62124072E+03 0.80419002E+02 0.0000E+00 0.9000E+01
      -13  1    4    4    0    0 0.11466011E+03 -.15191596E+03 -.99271245E+03 0.10107935E+04 0.10565837E+00 0.0000E+00 0.9000E+01
       13  1    4    4    0    0 -.58677244E+01 -.55677276E+02 -.16790799E+03 0.17699575E+03 0.10565837E+00 0.0000E+00 0.9000E+01
       23  1    3    3    0    0 -.18732800E+02 -.41471466E+02 -.14053512E+03 0.17359773E+03 0.91188000E+02 0.0000E+00 0.9000E+01
        2  1    1    2  502    0 0.89907897E+02 -.66412677E+02 -.79113290E+03 0.79899027E+03 0.32000000E+00 0.0000E+00 0.9000E+01
#aMCatNLO 2  0  0  1  2 0.11177689D+03 0.00000000D+00  -5  7  0 0.00000000D+00 0.00000000D+00 0.00000000D+00 0.00000000D+00 0.00000000D+00
  <mgrwgt>
 0.1301406401D-03    1    2    0
 0.413209228833666D+03 0.000000000000000D+00 0.000000000000000D+00 0.413209228833666D+03
 0.413209228833666D+03 0.000000000000000D+00 0.000000000000000D+00 -.413209228833666D+03
 0.362534282206100D+03 -.138471394871540D+03 0.284825275714780D+03 0.157048161201116D+03
 0.288988416117949D+03 0.144491780448713D+03 -.173951867857777D+03 -.179936593559822D+03
 0.630057085693931D+02 0.718964184099882D+00 -.605426848566120D+02 -.174294495950456D+02
 0.111890050773889D+03 -.673934976127299D+01 -.503307230003908D+02 0.403178819537515D+02
 0.000000000000000D+00 0.000000000000000D+00 -.000000000000000D+00 -.000000000000000D+00
 0.434785313276375D+03 0.000000000000000D+00 0.000000000000000D+00 0.434785313276375D+03
 0.592315984838559D+03 0.000000000000000D+00 0.000000000000000D+00 -.592315984838559D+03
 0.403789070841611D+03 -.179967483147119D+03 0.315477380884590D+03 0.157048161201116D+03
 0.261921076071078D+03 0.114660262423310D+03 -.151916084103483D+03 -.179936593559822D+03
 0.586358521123186D+02 -.586787532686201D+01 -.556771540122146D+02 -.174294495950456D+02
 0.109597368792694D+03 -.187328006690556D+02 -.414714658064864D+02 0.403178819537515D+02
 0.193157930297232D+03 0.899078967197261D+02 -.664126769624062D+02 -.157530671562184D+03
0.203891946597D-05 0.000000000000D+00 0.000000000000D+00 0.954158387277D-06 0.662011137090D-11  7 21 1 -24 -13 13 23 2 2 0.14752065D-01 0.41318903D+00 0.17305638D+06 0.17305638D+06 0.17305638D+06 0.11026847D+01  1  2  1  3  7  1       -2 0.130140640061D-03 0.100000000000D+01
  </mgrwgt>
  </event>
  <event>
  8     66 0.26562228E-05 0.20859631E+03 0.75467711E-02 0.98205625E-01
       -2 -1    0    0    0  501 0.00000000E+00 0.00000000E+00 0.87192210E+02 0.87192798E+02 0.32000000E+00 0.0000E+00 0.9000E+01
        1 -1    0    0  501    0 0.00000000E+00 0.00000000E+00 -.70727236E+03 0.70727244E+03 0.32000000E+00 0.0000E+00 0.9000E+01
       25  2    1    2    0    0 -.78341366E+02 -.55279088E+02 -.58524708E+03 0.66456640E+03 0.29990201E+03 0.0000E+00 0.0000E+00
       23  2    3    3    0    0 -.53557372E+00 -.13014907E+03 -.40478898E+03 0.43535115E+03 0.93474280E+02 0.0000E+00 0.0000E+00
      -24  1    1    2    0    0 0.78341366E+02 0.55279088E+02 -.34833077E+02 0.12989883E+03 0.80419002E+02 0.0000E+00 0.9000E+01
      -11  1    4    4    0    0 0.33830863E+02 -.97943680E+02 -.33870350E+03 0.35419988E+03 0.51099893E-03 0.0000E+00 0.9000E+01
       11  1    4    4    0    0 -.34366436E+02 -.32205386E+02 -.66085481E+02 0.81151276E+02 0.51099893E-03 0.0000E+00 0.9000E+01
       23  1    3    3    0    0 -.77805792E+02 0.74869979E+02 -.18045809E+03 0.22921525E+03 0.91188000E+02 0.0000E+00 0.9000E+01
#aMCatNLO 1  0  0  2  2 0.26375739D+03 0.00000000D+00  -5  7  0 0.00000000D+00 0.00000000D+00 0.00000000D+00 0.00000000D+00 0.00000000D+00
  <mgrwgt>
 0.9840610224D-03    5    2    0
 0.248332242857682D+03 0.000000000000000D+00 0.000000000000000D+00 0.248332242857682D+03
 0.248332242857682D+03 0.000000000000000D+00 0.000000000000000D+00 -.248332242857682D+03
 0.164297645926727D+03 0.783413660121702D+02 0.552790875407851D+02 0.106458223518425D+03
 0.143711040352701D+03 0.338308626548619D+02 -.979436803867128D+02 -.995759575579817D+02
 0.473027024081570D+02 -.343664363683353D+02 -.322053856999116D+02 -.439395475349371D+01
 0.141353097027780D+03 -.778057922986969D+02 0.748699785458394D+02 -.248831120694961D+01
 0.000000000000000D+00 0.000000000000000D+00 -.000000000000000D+00 -.000000000000000D+00
 0.340586154228893D+03 0.000000000000000D+00 0.000000000000000D+00 0.340586154228893D+03
 0.573930432704357D+03 0.000000000000000D+00 0.000000000000000D+00 -.573930432704357D+03
 0.152210014091746D+03 0.158715673388166D+01 0.732447951341399D+02 0.106458223518425D+03
 0.133371199574604D+03 -.333625450163334D+02 -.822158509194727D+02 -.995759575579817D+02
 0.674315103759422D+02 -.621898823440076D+02 -.256928061379744D+02 -.439395475349371D+01
 0.209342656683453D+03 -.162850733301983D+03 0.947762814929450D+02 -.248831120694961D+01
 0.352161206207505D+03 0.256816003928442D+03 -.601124195696378D+02 -.233344278475464D+03
0.890731333661D-05 0.000000000000D+00 0.000000000000D+00 0.557716557756D-06 0.000000000000D+00  7 -2 1 -24 -11 11 23 21 0 0.13414237D-01 0.10881118D+00 0.43512420D+05 0.43512420D+05 0.43512420D+05 0.11526425D+01  1  2  2  2  7  2        1 0.997381090107D-03 0.100000000000D+01
-.476557832090D-06 0.000000000000D+00 -.342064285621D-07 0.557716557756D-06 0.000000000000D+00  7 -2 1 -24 -11 11 23 21 2 0.13414237D-01 0.10881118D+00 0.43512420D+05 0.43512420D+05 0.43512420D+05 0.11526425D+01  1  2  3  2  7  2        1 -.708955959306D-04 0.100000000000D+01
0.580829677605D-06 0.000000000000D+00 0.000000000000D+00 0.557716557756D-06 0.000000000000D+00  7 -2 1 -24 -11 11 23 21 2 0.13414237D-01 0.10881118D+00 0.43512420D+05 0.43512420D+05 0.43512420D+05 0.11526425D+01  1  2 15  2  7  2        1 0.864076998744D-04 0.100000000000D+01
-.137319653612D-05 0.000000000000D+00 -.274903359871D-05 0.557716557756D-06 0.000000000000D+00  7 -2 1 -24 -11 11 23 21 2 0.13414237D-01 0.29424480D+00 0.43512420D+05 0.43512420D+05 0.43512420D+05 0.11526425D+01  1  2  5  2  7  2        1 -.289246240318D-04 0.100000000000D+01
0.735239594395D-08 0.000000000000D+00 -.305133422326D-06 0.557716557756D-06 0.000000000000D+00  7 -2 21 -24 -11 11 23 -1 2 0.13414237D-01 0.29424480D+00 0.43512420D+05 0.43512420D+05 0.43512420D+05 0.11526425D+01  1  2  5  4  7  2        1 0.924524059809D-07 0.100000000000D+01
  </mgrwgt>
  </event>
  <event>
  8     66 0.26562228E-05 0.72257539E+02 0.75467711E-02 0.10271828E+00
       -2 -1    0    0    0  501 0.00000000E+00 0.00000000E+00 0.54418016E+02 0.54418957E+02 0.32000000E+00 0.0000E+00 0.9000E+01
        1 -1    0    0  501    0 0.00000000E+00 0.00000000E+00 -.10693065E+04 0.10693066E+04 0.32000000E+00 0.0000E+00 0.9000E+01
       25  2    1    2    0    0 -.22655624E+01 -.64925714E+02 -.41713484E+03 0.51709784E+03 0.29861049E+03 0.0000E+00 0.0000E+00
       23  2    3    3    0    0 -.90251532E+02 0.42685492E+02 -.23048468E+03 0.26714738E+03 0.90978810E+02 0.0000E+00 0.0000E+00
      -24  1    1    2    0    0 0.22655624E+01 0.64925714E+02 -.59775369E+03 0.60662770E+03 0.80419002E+02 0.0000E+00 0.9000E+01
      -13  1    4    4    0    0 -.10671387E+03 0.31777077E+02 -.16743714E+03 0.20107919E+03 0.10565837E+00 0.0000E+00 0.9000E+01
       13  1    4    4    0    0 0.16462340E+02 0.10908415E+02 -.63047546E+02 0.66068195E+02 0.10565837E+00 0.0000E+00 0.9000E+01
       23  1    3    3    0    0 0.87985970E+02 -.10761121E+03 -.18665015E+03 0.24995046E+03 0.91188000E+02 0.0000E+00 0.9000E+01
#aMCatNLO 1  0  0  1  2 0.10552027D+03 0.00000000D+00  -5  7  0 0.00000000D+00 0.00000000D+00 0.00000000D+00 0.00000000D+00 0.00000000D+00
  <mgrwgt>
 0.1113465569D-02    9    2    0
 0.241226233705744D+03 0.000000000000000D+00 0.000000000000000D+00 0.241226233705744D+03
 0.241226233705744D+03 0.000000000000000D+00 0.000000000000000D+00 -.241226233705744D+03
 0.155517264249899D+03 0.226556244847417D+01 0.649257155119777D+02 -.116180558689706D+03
 0.116131336416479D+03 -.106714036070226D+03 0.317771033338317D+02 0.329972348415883D+02
 0.212585195519154D+02 0.164625056732417D+02 0.109083862951825D+02 -.786877810925744D+01
 0.189545347193195D+03 0.879859679485098D+02 -.107611205140992D+03 0.910521019573748D+02
 0.000000000000000D+00 0.000000000000000D+00 -.000000000000000D+00 0.000000000000000D+00
 0.312860108643579D+03 0.000000000000000D+00 0.000000000000000D+00 0.312860108643579D+03
 0.289148636517752D+03 0.000000000000000D+00 0.000000000000000D+00 -.289148636517752D+03
 0.164228944910726D+03 -.296032804781990D+02 0.782921066238275D+02 -.116180558689706D+03
 0.143088363379338D+03 -.132550251354774D+03 0.426132971403597D+02 0.329972348415883D+02
 0.193634432278274D+02 0.124137478956304D+02 0.126065113290036D+02 -.786877810925744D+01
 0.167176425334607D+03 0.524318008887774D+02 -.926991198898931D+02 0.910521019573748D+02
 0.108151568308833D+03 0.973079830485654D+02 -.408127952032977D+02 0.237114721258272D+02
0.796521461917D-05 0.000000000000D+00 0.000000000000D+00 0.329791671212D-06 0.000000000000D+00  7 -2 1 -24 -13 13 23 21 0 0.83720785D-02 0.16450877D+00 0.40143808D+05 0.40143808D+05 0.40143808D+05 0.11557781D+01  1  2  2  1  7  1       -2 0.944338313743D-03 0.100000000000D+01
-.423973521173D-06 0.000000000000D+00 -.305885214268D-07 0.329791671212D-06 0.000000000000D+00  7 -2 1 -24 -13 13 23 21 2 0.83720785D-02 0.16450877D+00 0.40143808D+05 0.40143808D+05 0.40143808D+05 0.11557781D+01  1  2  3  1  7  1       -2 -.671456356792D-04 0.100000000000D+01
0.501795241960D-06 0.000000000000D+00 0.000000000000D+00 0.329791671212D-06 0.000000000000D+00  7 -2 1 -24 -13 13 23 21 2 0.83720785D-02 0.16450877D+00 0.40143808D+05 0.40143808D+05 0.40143808D+05 0.11557781D+01  1  2 15  1  7  1       -2 0.794704358164D-04 0.100000000000D+01
0.225615356475D-05 0.000000000000D+00 0.000000000000D+00 0.329791671212D-06 0.000000000000D+00  7 -2 1 -24 -13 13 23 21 2 0.11485086D-01 0.16450877D+00 0.67268596D+05 0.67268596D+05 0.67268596D+05 0.11361320D+01  1  2 12  1  7  1       -2 0.212556520871D-03 0.100000000000D+01
-.370107606506D-05 0.000000000000D+00 0.000000000000D+00 0.329791671212D-06 0.000000000000D+00  7 -2 1 -24 -13 13 23 21 2 0.83720785D-02 0.16450877D+00 0.40143808D+05 0.40143808D+05 0.40143808D+05 0.11557781D+01  1  2  4  1  7  1       -2 -.586147701861D-03 0.100000000000D+01
-.515278150471D-05 0.000000000000D+00 -.310876090286D-05 0.329791671212D-06 0.000000000000D+00  7 -2 1 -24 -13 13 23 21 2 0.13094134D-01 0.16450877D+00 0.40143808D+05 0.40143808D+05 0.40143808D+05 0.11557781D+01  1  2  5  1  7  1       -2 -.411219224076D-03 0.100000000000D+01
0.619967973490D-05 0.000000000000D+00 0.282178468550D-05 0.329791671212D-06 0.000000000000D+00  7 -2 1 -24 -13 13 23 21 2 0.83720785D-02 0.16450877D+00 0.40143808D+05 0.40143808D+05 0.40143808D+05 0.11557781D+01  1  2  6  1  7  1       -2 0.981857158569D-03 0.100000000000D+01
0.905742122585D-07 0.000000000000D+00 0.000000000000D+00 0.329791671212D-06 0.000000000000D+00  7 21 1 -24 -13 13 23 2 2 0.11485086D-01 0.16450877D+00 0.67268596D+05 0.67268596D+05 0.67268596D+05 0.11361320D+01  1  2 12  3  7  1       -2 0.122414302060D-03 0.100000000000D+01
-.143759829100D-06 0.000000000000D+00 -.160802202176D-06 0.329791671212D-06 0.000000000000D+00  7 21 1 -24 -13 13 23 2 2 0.13094134D-01 0.16450877D+00 0.40143808D+05 0.40143808D+05 0.40143808D+05 0.11557781D+01  1  2  5  3  7  1       -2 -.162658600501D-03 0.100000000000D+01
  </mgrwgt>
  </event>
  <event>
  8     66 0.26562228E-05 0.26292606E+03 0.75467711E-02 0.10107551E+00
       -2 -1    0    0    0  501 0.00000000E+00 0.00000000E+00 0.52808741E+03 0.52808751E+03 0.32000000E+00 0.0000E+00 0.9000E+01
        1 -1    0    0  501    0 0.00000000E+00 0.00000000E+00 -.50610921E+03 0.50610931E+03 0.32000000E+00 0.0000E+00 0.9000E+01
       25  2    1    2    0    0 -.42160934E+02 0.20830706E+03 -.40684853E+03 0.54888356E+03 0.30096188E+03 0.0000E+00 0.0000E+00
       23  2    3    3    0    0 -.42525799E+02 0.30934751E+02 -.10787135E+02 0.10544139E+03 0.90753088E+02 0.0000E+00 0.0000E+00
      -24  1    1    2    0    0 0.42160934E+02 -.20830706E+03 0.42882674E+03 0.48531326E+03 0.80419002E+02 0.0000E+00 0.9000E+01
      -11  1    4    4    0    0 0.24484036E+02 0.19270050E+02 0.12465922E+02 0.33558935E+02 0.51099893E-03 0.0000E+00 0.9000E+01
       11  1    4    4    0    0 -.67009835E+02 0.11664700E+02 -.23253057E+02 0.71882459E+02 0.51099893E-03 0.0000E+00 0.9000E+01
       23  1    3    3    0    0 0.36486448E+00 0.17737231E+03 -.39606140E+03 0.44344216E+03 0.91188000E+02 0.0000E+00 0.9000E+01
#aMCatNLO 1  0  0  1  1 0.57074150D+02 0.00000000D+00  -5  7  0 0.00000000D+00 0.00000000D+00 0.00000000D+00 0.00000000D+00 0.00000000D+00
  <mgrwgt>
 0.8603431810D-03    4    2    0
 0.516981629297131D+03 0.000000000000000D+00 0.000000000000000D+00 0.516981629297131D+03
 0.516981629297131D+03 0.000000000000000D+00 0.000000000000000D+00 -.516981629297131D+03
 0.476307631767434D+03 0.421609342820337D+02 -.208307061146297D+03 0.418607654042052D+03
 0.333015363346473D+02 0.244840364776606D+02 0.192700504451458D+02 0.117554002845480D+02
 0.723929699104383D+02 -.670098352405629D+02 0.116647003137536D+02 -.247862631325612D+02
 0.451961120581743D+03 0.364864480868555D+00 0.177372310387397D+03 -.405576791194038D+03
 0.000000000000000D+00 -.000000000000000D+00 -.000000000000000D+00 -.000000000000000D+00
 0.525869527655521D+03 0.000000000000000D+00 0.000000000000000D+00 0.525869527655521D+03
 0.618296535221315D+03 0.000000000000000D+00 0.000000000000000D+00 -.618296535221315D+03
 0.472173040674147D+03 0.633462996488330D+02 -.192963837760628D+03 0.418607654042052D+03
 0.350707444212507D+02 0.260112070261615D+02 0.203760837123551D+02 0.117554002845480D+02
 0.698850979914284D+02 -.638318971551994D+02 0.139662803481472D+02 -.247862631325612D+02
 0.458408406787091D+03 0.206989752503182D+02 0.192099023780480D+03 -.405576791194038D+03
 0.108628773002918D+03 -.462245847701133D+02 -.334775500803547D+02 -.924270075657939D+02
0.142723162822D-03 0.000000000000D+00 0.000000000000D+00 0.373540468931D-05 0.000000000000D+00  7 -2 1 -24 -11 11 23 21 0 0.81244233D-01 0.77862970D-01 0.69130111D+05 0.69130111D+05 0.69130111D+05 0.11351216D+01  1  2  2  1  7  1       -2 0.970322748116D-03 0.100000000000D+01
-.352179465858D-05 0.000000000000D+00 -.548094525108D-06 0.373540468931D-05 0.000000000000D+00  7 -2 1 -24 -11 11 23 21 2 0.81244233D-01 0.77862970D-01 0.69130111D+05 0.69130111D+05 0.69130111D+05 0.11351216D+01  1  2  3  1  7  1       -2 -.308510921420D-04 0.100000000000D+01
0.866895023653D-05 0.000000000000D+00 0.000000000000D+00 0.373540468931D-05 0.000000000000D+00  7 -2 1 -24 -11 11 23 21 2 0.81244233D-01 0.77862970D-01 0.69130111D+05 0.69130111D+05 0.69130111D+05 0.11351216D+01  1  2 15  1  7  1       -2 0.759404248256D-04 0.100000000000D+01
-.177018311227D-04 0.000000000000D+00 0.000000000000D+00 0.373540468931D-05 0.000000000000D+00  7 -2 1 -24 -11 11 23 21 2 0.81244233D-01 0.77862970D-01 0.69130111D+05 0.69130111D+05 0.69130111D+05 0.11351216D+01  1  2  4  1  7  1       -2 -.155068899806D-03 0.100000000000D+01
  </mgrwgt>
  </event>
  <event>
  9     66 0.26562228E-05 0.21358169E+03 0.75467711E-02 0.10000183E+00
       -4 -1    0    0    0  501 0.00000000E+00 0.00000000E+00 0.16365041E+03 0.16365775E+03 0.15500000E+01 0.0000E+00 0.9000E+01
       21 -1    0    0  501  502 0.00000000E+00 0.00000000E+00 -.84857519E+03 0.84857552E+03 0.75000000E+00 0.0000E+00 0.9000E+01
       25  2    1    2    0    0 0.23194772E+02 -.11799737E+03 -.31089973E+03 0.44885101E+03 0.30057813E+03 0.0000E+00 0.0000E+00
       23  2    3    3    0    0 -.13652119E+02 -.12494929E+03 -.39725022E+02 0.16030813E+03 0.91224513E+02 0.0000E+00 0.0000E+00
      -24  1    1    2    0    0 0.16056018E+03 0.13983096E+03 -.14894763E+03 0.27200162E+03 0.80419002E+02 0.0000E+00 0.9000E+01
      -13  1    4    4    0    0 -.42374016E+01 -.28101494E+01 -.37441532E+02 0.37785341E+02 0.10565837E+00 0.0000E+00 0.9000E+01
       13  1    4    4    0    0 -.94147171E+01 -.12213914E+03 -.22834897E+01 0.12252279E+03 0.10565837E+00 0.0000E+00 0.9000E+01
       23  1    3    3    0    0 0.36846891E+02 0.69519209E+01 -.27117471E+03 0.28854289E+03 0.91188000E+02 0.0000E+00 0.9000E+01
       -3  1    1    2    0  502 -.18375495E+03 -.21833592E+02 -.22507741E+03 0.29138064E+03 0.50000000E+00 0.0000E+00 0.9000E+01
#aMCatNLO 2  0  0  2  1 0.18504753D+03 0.00000000D+00  -5  7  0 0.00000000D+00 0.00000000D+00 0.00000000D+00 0.00000000D+00 0.00000000D+00
  <mgrwgt>
 0.2749562344D-04    1    2    0
 0.261689862025463D+03 0.000000000000000D+00 0.000000000000000D+00 0.261689862025463D+03
 0.261689862025463D+03 0.000000000000000D+00 0.000000000000000D+00 -.261689862025463D+03
 0.181556845182983D+03 0.904703506999707D+02 0.131502959331772D+03 0.319023417578999D+02
 0.207500656643853D+02 -.108481211657668D+02 -.359547013749618D+01 -.173192403626579D+02
 0.175145609613676D+03 -.660407073373097D+02 -.128867550796170D+03 0.985279853297059D+02
 0.145927203589882D+03 -.135815221968942D+02 0.960061601894274D+00 -.113111086724948D+03
 0.000000000000000D+00 -.000000000000000D+00 -.000000000000000D+00 -.000000000000000D+00
 0.348074370801190D+03 0.000000000000000D+00 0.000000000000000D+00 0.348074370801190D+03
 0.398975991365890D+03 0.000000000000000D+00 0.000000000000000D+00 -.398975991365890D+03
 0.229820029313954D+03 0.160560178922997D+03 0.139830967435950D+03 0.319023417578999D+02
 0.180501425088053D+02 -.423739485986494D+01 -.280998979540047D+01 -.173192403626579D+02
 0.157208175953699D+03 -.941472473151497D+01 -.122139304287311D+03 0.985279853297059D+02
 0.150051296883278D+03 0.368468891746522D+02 0.695191846943732D+01 -.113111086724948D+03
 0.191920717507343D+03 -.183754948506269D+03 -.218335918226754D+02 -.509016205647001D+02
0.718622767722D-06 0.000000000000D+00 0.000000000000D+00 0.132189133325D-05 0.239854530363D-10  7 -4 21 -24 -13 13 23 -3 2 0.25177555D-01 0.13055050D+00 0.10202438D+06 0.10202438D+06 0.10202438D+06 0.11210085D+01  1  2  1  4  7  2        3 0.274956234424D-04 0.100000000000D+01
  </mgrwgt>
  </event>
  <event>
  8     66 0.26562228E-05 0.26591543E+03 0.75467711E-02 0.89727095E-01
       -2 -1    0    0    0  501 0.00000000E+00 0.00000000E+00 0.28944347E+03 0.28944365E+03 0.32000000E+00 0.0000E+00 0.9000E+01
        1 -1    0    0  501    0 0.00000000E+00 0.00000000E+00 -.17513414E+04 0.17513414E+04 0.32000000E+00 0.0000E+00 0.9000E+01
       25  2    1    2    0    0 -.48454011E+03 0.47408676E+03 -.74314090E+03 0.10495151E+04 0.29947635E+03 0.0000E+00 0.0000E+00
       23  2    3    3    0    0 -.30471326E+03 0.38575184E+03 -.39189881E+03 0.63499484E+03 0.89325896E+02 0.0000E+00 0.0000E+00
      -24  1    1    2    0    0 0.48454011E+03 -.47408676E+03 -.71875703E+03 0.99127002E+03 0.80419002E+02 0.0000E+00 0.9000E+01
      -13  1    4    4    0    0 -.19257866E+03 0.21898523E+03 -.28328487E+03 0.40656045E+03 0.10565837E+00 0.0000E+00 0.9000E+01
       13  1    4    4    0    0 -.11213460E+03 0.16676660E+03 -.10861393E+03 0.22843438E+03 0.10565837E+00 0.0000E+00 0.9000E+01
       23  1    3    3    0    0 -.17982685E+03 0.88334926E+02 -.35124210E+03 0.41452022E+03 0.91188000E+02 0.0000E+00 0.9000E+01
#aMCatNLO 1  0  0  2  1 0.16979696D+03 0.00000000D+00  -5  7  0 0.00000000D+00 0.00000000D+00 0.00000000D+00 0.00000000D+00 0.00000000D+00
  <mgrwgt>
 0.1077497031D-02    9    2    0
 0.711979316609401D+03 0.000000000000000D+00 0.000000000000000D+00 0.711979316609401D+03
 0.711979316609401D+03 0.000000000000000D+00 0.000000000000000D+00 -.711979316609401D+03
 0.682758360299993D+03 0.484540110031382D+03 -.474086761920546D+03 -.124252383330141D+02
 0.291840701486924D+03 -.192578767620361D+03 0.218985305709709D+03 0.113951388507515D+02
 0.215879055095476D+03 -.112134491792489D+03 0.166766530599928D+03 0.788577608800739D+02
 0.233480516336410D+03 -.179826850618531D+03 0.883349256109087D+02 -.778276613978113D+02
 0.000000000000000D+00 0.000000000000000D+00 -.000000000000000D+00 -.000000000000000D+00
 0.763431675377053D+03 0.000000000000000D+00 0.000000000000000D+00 0.763431675377053D+03
 0.872334395948738D+03 0.000000000000000D+00 0.000000000000000D+00 -.872334395948738D+03
 0.624326584099854D+03 0.407293973701514D+03 -.466126270551467D+03 -.124252383330141D+02
 0.319427680971591D+03 -.228703520650249D+03 0.222708091060118D+03 0.113951388507515D+02
 0.232747716221909D+03 -.138647447118681D+03 0.169498785727119D+03 0.788577608800739D+02
 0.257544459976995D+03 -.208845456045963D+03 0.913253969668004D+02 -.778276613978113D+02
 0.201719630055443D+03 0.168902450113379D+03 -.174060032025698D+02 -.108902720571685D+03
0.280038955717D-03 0.000000000000D+00 0.000000000000D+00 0.311331867068D-05 0.000000000000D+00  7 -2 1 -24 -13 13 23 21 0 0.44529781D-01 0.26943716D+00 0.48675141D+06 0.48675141D+06 0.48675141D+06 0.10693356D+01  1  2  2  2  7  2        1 0.650281011818D-03 0.100000000000D+01
-.155499289588D-04 0.000000000000D+00 -.107542332590D-05 0.311331867068D-05 0.000000000000D+00  7 -2 1 -24 -13 13 23 21 2 0.44529781D-01 0.26943716D+00 0.48675141D+06 0.48675141D+06 0.48675141D+06 0.10693356D+01  1  2  3  2  7  2        1 -.412894514212D-04 0.100000000000D+01
0.177840507109D-04 0.000000000000D+00 0.000000000000D+00 0.311331867068D-05 0.000000000000D+00  7 -2 1 -24 -13 13 23 21 2 0.44529781D-01 0.26943716D+00 0.48675141D+06 0.48675141D+06 0.48675141D+06 0.10693356D+01  1  2 15  2  7  2        1 0.472216754074D-04 0.100000000000D+01
0.302489534695D-03 0.000000000000D+00 0.000000000000D+00 0.311331867068D-05 0.000000000000D+00  7 -2 1 -24 -13 13 23 21 2 0.44529781D-01 0.33822605D+00 0.62229178D+06 0.62229178D+06 0.62229178D+06 0.10618587D+01  1  2 12  2  7  2        1 0.391195694446D-03 0.100000000000D+01
-.309367712110D-03 0.000000000000D+00 0.000000000000D+00 0.311331867068D-05 0.000000000000D+00  7 -2 1 -24 -13 13 23 21 2 0.44529781D-01 0.26943716D+00 0.48675141D+06 0.48675141D+06 0.48675141D+06 0.10693356D+01  1  2  4  2  7  2        1 -.821458615941D-03 0.100000000000D+01
-.597267223620D-03 0.000000000000D+00 -.144599064127D-03 0.311331867068D-05 0.000000000000D+00  7 -2 1 -24 -13 13 23 21 2 0.44529781D-01 0.33946428D+00 0.48675141D+06 0.48675141D+06 0.48675141D+06 0.10693356D+01  1  2  5  2  7  2        1 -.784939704497D-03 0.100000000000D+01
0.617885780817D-03 0.000000000000D+00 0.140823971348D-03 0.311331867068D-05 0.000000000000D+00  7 -2 1 -24 -13 13 23 21 2 0.44529781D-01 0.26943716D+00 0.48675141D+06 0.48675141D+06 0.48675141D+06 0.10693356D+01  1  2  6  2  7  2        1 0.164066118878D-02 0.100000000000D+01
0.954037459857D-05 0.000000000000D+00 0.000000000000D+00 0.311331867068D-05 0.000000000000D+00  7 -2 21 -24 -13 13 23 -1 2 0.44529781D-01 0.33822605D+00 0.62229178D+06 0.62229178D+06 0.62229178D+06 0.10618587D+01  1  2 12  4  7  2        1 0.513211000506D-05 0.100000000000D+01
-.169368167596D-04 0.000000000000D+00 -.461531359835D-05 0.311331867068D-05 0.000000000000D+00  7 -2 21 -24 -13 13 23 -1 2 0.44529781D-01 0.33946428D+00 0.48675141D+06 0.48675141D+06 0.48675141D+06 0.10693356D+01  1  2  5  4  7  2        1 -.930687773745D-05 0.100000000000D+01
  </mgrwgt>
  </event>
  <event>
  8     66 0.26562228E-05 0.11174819E+03 0.75467711E-02 0.10247623E+00
       -2 -1    0    0    0  501 0.00000000E+00 0.00000000E+00 0.10674446E+03 0.10674494E+03 0.32000000E+00 0.0000E+00 0.9000E+01
        1 -1    0    0  501    0 0.00000000E+00 0.00000000E+00 -.50428744E+03 0.50428754E+03 0.32000000E+00 0.0000E+00 0.9000E+01
       25  2    1    2    0    0 0.46561423E+02 0.87076971E+02 -.35902270E+03 0.47798590E+03 0.29970461E+03 0.0000E+00 0.0000E+00
       23  2    3    3    0    0 0.14190418E+03 0.67662932E+02 -.19101158E+03 0.26348616E+03 0.90688854E+02 0.0000E+00 0.0000E+00
      -24  1    1    2    0    0 -.46561423E+02 -.87076971E+02 -.38520275E+02 0.13304658E+03 0.80419002E+02 0.0000E+00 0.9000E+01
      -11  1    4    4    0    0 0.90679404E+02 0.28873834E+01 -.13867511E+03 0.16571626E+03 0.51099893E-03 0.0000E+00 0.9000E+01
       11  1    4    4    0    0 0.51224775E+02 0.64775548E+02 -.52336464E+02 0.97769907E+02 0.51099893E-03 0.0000E+00 0.9000E+01
       23  1    3    3    0    0 -.95342755E+02 0.19414039E+02 -.16801113E+03 0.21449973E+03 0.91188000E+02 0.0000E+00 0.9000E+01
#aMCatNLO 1  0  0  2  1 0.86742100D+02 0.00000000D+00  -5  7  0 0.00000000D+00 0.00000000D+00 0.00000000D+00 0.00000000D+00 0.00000000D+00
  <mgrwgt>
 0.7138113164D-03    9    2    0
 0.232013076778741D+03 0.000000000000000D+00 0.000000000000000D+00 0.232013076778741D+03
 0.232013076778741D+03 0.000000000000000D+00 0.000000000000000D+00 -.232013076778741D+03
 0.142195254717474D+03 -.465614230068634D+02 -.870769712435951D+02 0.632606471387609D+02
 0.994096951829108D+02 0.906794037392311D+02 0.288738340836132D+01 -.406349141860775D+02
 0.839060352756320D+02 0.512247746601360D+02 0.647755484674383D+02 0.148449835781797D+02
 0.138515168381464D+03 -.953427553925038D+02 0.194140393677954D+02 -.374707165308632D+02
 0.000000000000000D+00 -.000000000000000D+00 -.000000000000000D+00 -.000000000000000D+00
 0.265487484504012D+03 0.000000000000000D+00 0.000000000000000D+00 0.265487484504012D+03
 0.299892775643705D+03 0.000000000000000D+00 0.000000000000000D+00 -.299892775643705D+03
 0.129468981396074D+03 -.241799133977089D+02 -.755541097560602D+02 0.632606471387609D+02
 0.116449695476097D+03 0.108463338405705D+03 0.120432365855451D+02 -.406349141860775D+02
 0.994156494456698D+02 0.663280363439495D+02 0.725512881486166D+02 0.148449835781797D+02
 0.126729719172694D+03 -.734901144836313D+02 0.306646189188183D+02 -.374707165308632D+02
 0.933162146571825D+02 -.771213468683141D+02 -.397050338969197D+02 -.344052911396924D+02
0.403376498069D-05 0.000000000000D+00 0.000000000000D+00 0.879924434930D-06 0.000000000000D+00  7 -2 1 -24 -11 11 23 21 0 0.16422269D-01 0.77582727D-01 0.47090446D+05 0.47090446D+05 0.47090446D+05 0.11495927D+01  1  2  2  2  7  2        1 0.530499358111D-03 0.100000000000D+01
-.222879273917D-06 0.000000000000D+00 -.154907196406D-07 0.879924434930D-06 0.000000000000D+00  7 -2 1 -24 -11 11 23 21 2 0.16422269D-01 0.77582727D-01 0.47090446D+05 0.47090446D+05 0.47090446D+05 0.11495927D+01  1  2  3  2  7  2        1 -.387375304121D-04 0.100000000000D+01
0.257861416331D-06 0.000000000000D+00 0.000000000000D+00 0.879924434930D-06 0.000000000000D+00  7 -2 1 -24 -11 11 23 21 2 0.16422269D-01 0.77582727D-01 0.47090446D+05 0.47090446D+05 0.47090446D+05 0.11495927D+01  1  2 15  2  7  2        1 0.448176013932D-04 0.100000000000D+01
0.238767715215D-05 0.000000000000D+00 0.000000000000D+00 0.879924434930D-06 0.000000000000D+00  7 -2 1 -24 -11 11 23 21 2 0.16422269D-01 0.10457387D+00 0.69748301D+05 0.69748301D+05 0.69748301D+05 0.11347926D+01  1  2 12  2  7  2        1 0.264933570162D-03 0.100000000000D+01
-.282068827821D-05 0.000000000000D+00 0.000000000000D+00 0.879924434930D-06 0.000000000000D+00  7 -2 1 -24 -11 11 23 21 2 0.16422269D-01 0.77582727D-01 0.47090446D+05 0.47090446D+05 0.47090446D+05 0.11495927D+01  1  2  4  2  7  2        1 -.490249703527D-03 0.100000000000D+01
-.485198680404D-05 0.000000000000D+00 -.186269497422D-05 0.879924434930D-06 0.000000000000D+00  7 -2 1 -24 -11 11 23 21 2 0.16422269D-01 0.11118224D+00 0.47090446D+05 0.47090446D+05 0.47090446D+05 0.11495927D+01  1  2  5  2  7  2        1 -.504806370003D-03 0.100000000000D+01
0.529043849110D-05 0.000000000000D+00 0.174828898695D-05 0.879924434930D-06 0.000000000000D+00  7 -2 1 -24 -11 11 23 21 2 0.16422269D-01 0.77582727D-01 0.47090446D+05 0.47090446D+05 0.47090446D+05 0.11495927D+01  1  2  6  2  7  2        1 0.919504619431D-03 0.100000000000D+01
0.919734259625D-07 0.000000000000D+00 0.000000000000D+00 0.879924434930D-06 0.000000000000D+00  7 -2 21 -24 -11 11 23 -1 2 0.16422269D-01 0.10457387D+00 0.69748301D+05 0.69748301D+05 0.69748301D+05 0.11347926D+01  1  2 12  4  7  2        1 0.225912011376D-04 0.100000000000D+01
-.159000674290D-06 0.000000000000D+00 -.820911922184D-07 0.879924434930D-06 0.000000000000D+00  7 -2 21 -24 -11 11 23 -1 2 0.16422269D-01 0.11118224D+00 0.47090446D+05 0.47090446D+05 0.47090446D+05 0.11495927D+01  1  2  5  4  7  2        1 -.347414299387D-04 0.100000000000D+01
  </mgrwgt>
  </event>
  <event>
  8     66 0.26562228E-05 0.20422276E+03 0.75467711E-02 0.92240572E-01
       -2 -1    0    0    0  501 0.00000000E+00 0.00000000E+00 0.34752025E+03 0.34752040E+03 0.32000000E+00 0.0000E+00 0.9000E+01
        1 -1    0    0  501    0 0.00000000E+00 0.00000000E+00 -.33951117E+03 0.33951132E+03 0.32000000E+00 0.0000E+00 0.9000E+01
       25  2    1    2    0    0 -.16825506E+02 0.85180750E+02 0.26142173E+03 0.40734611E+03 0.30008444E+03 0.0000E+00 0.0000E+00
       23  2    3    3    0    0 -.56264632E+02 -.55438841E+02 0.39371464E+02 0.12636411E+03 0.90435620E+02 0.0000E+00 0.0000E+00
      -24  1    1    2    0    0 0.16825506E+02 -.85180750E+02 -.25341264E+03 0.27968561E+03 0.80419002E+02 0.0000E+00 0.9000E+01
      -13  1    4    4    0    0 -.69102331E+01 0.23682161E+02 0.18417503E+02 0.30786550E+02 0.10565837E+00 0.0000E+00 0.9000E+01
       13  1    4    4    0    0 -.49354399E+02 -.79121002E+02 0.20953961E+02 0.95577556E+02 0.10565837E+00 0.0000E+00 0.9000E+01
       23  1    3    3    0    0 0.39439126E+02 0.14061959E+03 0.22205026E+03 0.28098200E+03 0.91188000E+02 0.0000E+00 0.9000E+01
#aMCatNLO 1  0  0  1  1 0.57723535D+03 0.00000000D+00  -5  7  0 0.00000000D+00 0.00000000D+00 0.00000000D+00 0.00000000D+00 0.00000000D+00
  <mgrwgt>
 0.1960882371D-02    3    2    0
 0.343492516900670D+03 0.000000000000000D+00 0.000000000000000D+00 0.343492516900670D+03
 0.343492516900670D+03 0.000000000000000D+00 0.000000000000000D+00 -.343492516900670D+03
 0.282658981063192D+03 0.168255057804152D+02 -.851807501476543D+02 -.256690525303969D+03
 0.305738366932136D+02 -.691017517741045D+01 0.236823014525931D+02 0.180598329745682D+02
 0.953398518438799D+02 -.493544564600964D+02 -.791211421714827D+02 0.198411148532895D+02
 0.278412364201055D+03 0.394391258570916D+02 0.140619590866544D+03 0.218789577476111D+03
 0.000000000000000D+00 0.000000000000000D+00 0.000000000000000D+00 -.000000000000000D+00
 0.545114729712160D+03 0.000000000000000D+00 0.000000000000000D+00 0.545114729712160D+03
 0.131218473179327D+04 0.000000000000000D+00 0.000000000000000D+00 -.131218473179327D+04
 0.431062470194502D+03 -.756334254523833D+02 -.328233448066048D+03 -.256690525303969D+03
 0.233995530492232D+02 -.139021493177466D+02 0.530205244987154D+01 0.180598329745682D+02
 0.201409157081397D+03 -.877967593518964D+02 -.180176879107511D+03 0.198411148532895D+02
 0.241429822384754D+03 -.279037470476644D+02 -.364089203528262D+02 0.218789577476111D+03
 0.959998458795549D+03 0.205236081169691D+03 0.539517195076514D+03 -.767070002081105D+03
0.675353333703D-04 0.000000000000D+00 0.000000000000D+00 0.744260933072D-05 0.000000000000D+00  7 -2 1 -24 -13 13 23 21 0 0.53464677D-01 0.52232510D-01 0.41706938D+05 0.41706938D+05 0.41706938D+05 0.11542883D+01  1  2  2  1  7  1       -2 0.190065326899D-02 0.100000000000D+01
-.251865993824D-05 0.000000000000D+00 -.259353462604D-06 0.744260933072D-05 0.000000000000D+00  7 -2 1 -24 -13 13 23 21 2 0.53464677D-01 0.52232510D-01 0.41706938D+05 0.41706938D+05 0.41706938D+05 0.11542883D+01  1  2  3  1  7  1       -2 -.944430503529D-04 0.100000000000D+01
0.412488321297D-05 0.000000000000D+00 0.000000000000D+00 0.744260933072D-05 0.000000000000D+00  7 -2 1 -24 -13 13 23 21 2 0.53464677D-01 0.52232510D-01 0.41706938D+05 0.41706938D+05 0.41706938D+05 0.11542883D+01  1  2 15  1  7  1       -2 0.154672152071D-03 0.100000000000D+01
  </mgrwgt>
  </event>
  <event>
  8     66 0.26562228E-05 0.32540187E+03 0.75467711E-02 0.96213981E-01
       -2 -1    0    0    0  501 0.00000000E+00 0.00000000E+00 0.39199685E+03 0.39199698E+03 0.32000000E+00 0.0000E+00 0.9000E+01
        1 -1    0    0  501    0 0.00000000E+00 0.00000000E+00 -.39039309E+03 0.39039322E+03 0.32000000E+00 0.0000E+00 0.9000E+01
       25  2    1    2    0    0 -.22261940E+03 -.16291726E+03 -.17605323E+03 0.44455792E+03 0.30089130E+03 0.0000E+00 0.0000E+00
       23  2    3    3    0    0 -.21281043E+03 -.14235323E+03 -.32809834E+02 0.27323070E+03 0.89586876E+02 0.0000E+00 0.0000E+00
      -24  1    1    2    0    0 0.22261940E+03 0.16291726E+03 0.17765699E+03 0.33783228E+03 0.80419002E+02 0.0000E+00 0.9000E+01
      -13  1    4    4    0    0 -.14921794E+03 -.14183283E+03 -.11617181E+02 0.20619775E+03 0.10565837E+00 0.0000E+00 0.9000E+01
       13  1    4    4    0    0 -.63592493E+02 -.52040153E+00 -.21192654E+02 0.67032945E+02 0.10565837E+00 0.0000E+00 0.9000E+01
       23  1    3    3    0    0 -.98089715E+01 -.20564030E+02 -.14324340E+03 0.17132722E+03 0.91188000E+02 0.0000E+00 0.9000E+01
#aMCatNLO 1  0  0  1  1 0.18823967D+03 0.00000000D+00  -5  7  0 0.00000000D+00 0.00000000D+00 0.00000000D+00 0.00000000D+00 0.00000000D+00
  <mgrwgt>
 0.8247813302D-03    4    2    0
 0.391194280861199D+03 0.000000000000000D+00 0.000000000000000D+00 0.391194280861199D+03
 0.391194280861199D+03 0.000000000000000D+00 0.000000000000000D+00 -.391194280861199D+03
 0.337468829617735D+03 0.222619404505229D+03 0.162917257375781D+03 0.176964863733126D+03
 0.206222194019035D+03 -.149218058674413D+03 -.141833021594764D+03 -.120398611604530D+02
 0.670763333396515D+02 -.635923738169002D+02 -.520205066854359D+00 -.213301165798992D+02
 0.171621204745977D+03 -.980897201391556D+01 -.205640307141622D+02 -.143594885992774D+03
 0.000000000000000D+00 -.000000000000000D+00 -.000000000000000D+00 -.000000000000000D+00
 0.464509623977727D+03 0.000000000000000D+00 0.000000000000000D+00 0.464509623977727D+03
 0.544887314583640D+03 0.000000000000000D+00 0.000000000000000D+00 -.544887314583640D+03
 0.405624867801393D+03 0.309884848231215D+03 0.175268751536491D+03 0.176964863733126D+03
 0.171777687992934D+03 -.104827522801601D+03 -.135550014012227D+03 -.120398611604530D+02
 0.538238015278499D+02 -.493944281844892D+02 0.148936292575750D+01 -.213301165798992D+02
 0.173488520384575D+03 0.307190978678078D+02 -.148277140564389D+02 -.143594885992774D+03
 0.204682060854614D+03 -.186381995112933D+03 -.263803863935833D+02 -.803776906059127D+02
0.592587302692D-04 0.000000000000D+00 0.000000000000D+00 0.779924654287D-06 0.000000000000D+00  7 -2 1 -24 -13 13 23 21 0 0.60307228D-01 0.60060496D-01 0.10588638D+06 0.10588638D+06 0.10588638D+06 0.11196893D+01  1  2  2  1  7  1       -2 0.107186151094D-02 0.100000000000D+01
-.315642241900D-05 0.000000000000D+00 -.227569127416D-06 0.779924654287D-06 0.000000000000D+00  7 -2 1 -24 -13 13 23 21 2 0.60307228D-01 0.60060496D-01 0.10588638D+06 0.10588638D+06 0.10588638D+06 0.11196893D+01  1  2  3  1  7  1       -2 -.715774986383D-04 0.100000000000D+01
0.373051289858D-05 0.000000000000D+00 0.000000000000D+00 0.779924654287D-06 0.000000000000D+00  7 -2 1 -24 -13 13 23 21 2 0.60307228D-01 0.60060496D-01 0.10588638D+06 0.10588638D+06 0.10588638D+06 0.11196893D+01  1  2 15  1  7  1       -2 0.845960224814D-04 0.100000000000D+01
-.114698249869D-04 0.000000000000D+00 0.000000000000D+00 0.779924654287D-06 0.000000000000D+00  7 -2 1 -24 -13 13 23 21 2 0.60307228D-01 0.60060496D-01 0.10588638D+06 0.10588638D+06 0.10588638D+06 0.11196893D+01  1  2  4  1  7  1       -2 -.260098704610D-03 0.100000000000D+01
  </mgrwgt>
  </event>
  <event>
  8     66 0.26562228E-05 0.19472448E+03 0.75467711E-02 0.10012605E+00
       -2 -1    0    0    0  501 0.00000000E+00 0.00000000E+00 0.32467647E+03 0.32467663E+03 0.32000000E+00 0.0000E+00 0.9000E+01
        1 -1    0    0  501    0 0.00000000E+00 0.00000000E+00 -.37729565E+03 0.37729579E+03 0.32000000E+00 0.0000E+00 0.9000E+01
       25  2    1    2    0    0 0.10266413E+03 0.67114984E+02 -.28221101E+03 0.42953165E+03 0.29968324E+03 0.0000E+00 0.0000E+00
       23  2    3    3    0    0 0.39983246E+02 0.80225389E+02 -.28344161E+03 0.31809763E+03 0.11319090E+03 0.0000E+00 0.0000E+00
      -24  1    1    2    0    0 -.10266413E+03 -.67114984E+02 0.22959183E+03 0.27244076E+03 0.80419002E+02 0.0000E+00 0.9000E+01
      -13  1    4    4    0    0 0.21567019E+02 -.20022256E+02 -.13408756E+03 0.13727896E+03 0.10565837E+00 0.0000E+00 0.9000E+01
       13  1    4    4    0    0 0.18416227E+02 0.10024765E+03 -.14935405E+03 0.18081867E+03 0.10565837E+00 0.0000E+00 0.9000E+01
       23  1    3    3    0    0 0.62680887E+02 -.13110406E+02 0.12306015E+01 0.11143403E+03 0.91188000E+02 0.0000E+00 0.9000E+01
#aMCatNLO 1  0  0  1  1 0.19721110D+03 0.00000000D+00  -5  7  0 0.00000000D+00 0.00000000D+00 0.00000000D+00 0.00000000D+00 0.00000000D+00
  <mgrwgt>
 0.7027896101D-03    7    2    0
 0.349998748379405D+03 0.000000000000000D+00 0.000000000000000D+00 0.349998748379405D+03
 0.349998748379405D+03 0.000000000000000D+00 0.000000000000000D+00 -.349998748379405D+03
 0.290467945802437D+03 -.102664133759385D+03 -.671149836735129D+02 0.250719098176138D+03
 0.127586766483208D+03 0.215669873422201D+02 -.200222196627793D+02 -.124146521330227D+03
 0.170101823683803D+03 0.184162076004389D+02 0.100247640548100D+03 -.136183274607097D+03
 0.111840960789363D+03 0.626809388167262D+02 -.131104372118081D+02 0.961069776118605D+01
 0.000000000000000D+00 -.000000000000000D+00 0.000000000000000D+00 0.000000000000000D+00
 0.495022793742179D+03 0.000000000000000D+00 0.000000000000000D+00 0.495022793742179D+03
 0.437620024676673D+03 0.000000000000000D+00 0.000000000000000D+00 -.437620024676673D+03
 0.289562038933004D+03 -.379300015968524D+02 -.114368733600031D+03 0.250719098176138D+03
 0.140787017734394D+03 0.515187906518807D+02 -.418860336379069D+02 -.124146521330227D+03
 0.164262488505827D+03 0.557328707822403D+02 0.730077253568754D+02 -.136183274607097D+03
 0.132635809081989D+03 0.899657205487253D+02 -.330274146963650D+02 0.961069776118605D+01
 0.205395464163638D+03 -.159287380385994D+03 0.116274456577427D+03 0.574027690655064D+02
0.277501832844D-04 0.000000000000D+00 0.000000000000D+00 0.172689326958D-07 0.000000000000D+00  7 -2 1 -24 -13 13 23 21 0 0.49950249D-01 0.58045507D-01 0.37917622D+05 0.37917622D+05 0.37917622D+05 0.11580142D+01  1  2  2  1  7  1       -2 0.777857760287D-03 0.100000000000D+01
-.897240894425D-06 0.000000000000D+00 -.106568010603D-06 0.172689326958D-07 0.000000000000D+00  7 -2 1 -24 -13 13 23 21 2 0.49950249D-01 0.58045507D-01 0.37917622D+05 0.37917622D+05 0.37917622D+05 0.11580142D+01  1  2  3  1  7  1       -2 -.337264915472D-04 0.100000000000D+01
0.169305416774D-05 0.000000000000D+00 0.000000000000D+00 0.172689326958D-07 0.000000000000D+00  7 -2 1 -24 -13 13 23 21 2 0.49950249D-01 0.58045507D-01 0.37917622D+05 0.37917622D+05 0.37917622D+05 0.11580142D+01  1  2 15  1  7  1       -2 0.636404085368D-04 0.100000000000D+01
-.114284328117D-04 0.000000000000D+00 0.000000000000D+00 0.172689326958D-07 0.000000000000D+00  7 -2 1 -24 -13 13 23 21 2 0.49950249D-01 0.58045507D-01 0.37917622D+05 0.37917622D+05 0.37917622D+05 0.11580142D+01  1  2  4  1  7  1       -2 -.429584680119D-03 0.100000000000D+01
-.486454850760D-05 0.000000000000D+00 -.939761353146D-05 0.172689326958D-07 0.000000000000D+00  7 -2 1 -24 -13 13 23 21 2 0.85303565D-01 0.58045507D-01 0.37917622D+05 0.37917622D+05 0.37917622D+05 0.11580142D+01  1  2  5  1  7  1       -2 -.599796190732D-04 0.100000000000D+01
0.967680610441D-05 0.000000000000D+00 0.819560756343D-05 0.172689326958D-07 0.000000000000D+00  7 -2 1 -24 -13 13 23 21 2 0.49950249D-01 0.58045507D-01 0.37917622D+05 0.37917622D+05 0.37917622D+05 0.11580142D+01  1  2  6  1  7  1       -2 0.363742581633D-03 0.100000000000D+01
0.166554282121D-06 0.000000000000D+00 -.559730491121D-06 0.172689326958D-07 0.000000000000D+00  7 21 1 -24 -13 13 23 2 2 0.85303565D-01 0.58045507D-01 0.37917622D+05 0.37917622D+05 0.37917622D+05 0.11580142D+01  1  2  5  3  7  1       -2 0.208396503808D-04 0.100000000000D+01
  </mgrwgt>
  </event>
  <event>
  8     66 0.26562228E-05 0.11795339E+03 0.75467711E-02 0.10386815E+00
       -2 -1    0    0    0  501 0.00000000E+00 0.00000000E+00 0.50626252E+02 0.50627263E+02 0.32000000E+00 0.0000E+00 0.9000E+01
        1 -1    0    0  501    0 0.00000000E+00 0.00000000E+00 -.20215546E+04 0.20215546E+04 0.32000000E+00 0.0000E+00 0.9000E+01
       25  2    1    2    0    0 -.24000307E+01 0.11875559E+03 -.18679420E+04 0.18955975E+04 0.29995643E+03 0.0000E+00 0.0000E+00
       23  2    3    3    0    0 0.28838691E+02 -.61251699E+02 -.84187859E+03 0.84941402E+03 0.90339177E+02 0.0000E+00 0.0000E+00
      -24  1    1    2    0    0 0.24000307E+01 -.11875559E+03 -.10298636E+03 0.17658442E+03 0.80419002E+02 0.0000E+00 0.9000E+01
      -13  1    4    4    0    0 -.13948960E+02 0.13814530E+00 -.21496319E+02 0.25626070E+02 0.10565837E+00 0.0000E+00 0.9000E+01
       13  1    4    4    0    0 0.42787650E+02 -.61389845E+02 -.82038227E+03 0.82378795E+03 0.10565837E+00 0.0000E+00 0.9000E+01
       23  1    3    3    0    0 -.31238721E+02 0.18000729E+03 -.10260634E+04 0.10461835E+04 0.91188000E+02 0.0000E+00 0.9000E+01
#aMCatNLO 1  0  0  2  1 0.47571320D+02 0.00000000D+00  -5  7  0 0.00000000D+00 0.00000000D+00 0.00000000D+00 0.00000000D+00 0.00000000D+00
  <mgrwgt>
 0.1844262992D-02    9    2    0
 0.319913748903463D+03 0.000000000000000D+00 0.000000000000000D+00 0.319913748903463D+03
 0.319913748903463D+03 0.000000000000000D+00 0.000000000000000D+00 -.319913748903463D+03
 0.254656594441502D+03 0.240003071345677D+01 -.118755587749839D+03 0.210414152016773D+03
 0.167764977817518D+02 -.139490372213057D+02 0.138229419039186D+00 0.931966367673552D+01
 0.140856549331512D+03 0.427877279061955D+02 -.613899286327067D+02 -.119335889373973D+03
 0.227537856252160D+03 -.312387213983465D+02 0.180007286963506D+03 -.100397926319536D+03
 0.000000000000000D+00 0.000000000000000D+00 -.000000000000000D+00 -.000000000000000D+00
 0.334603487677792D+03 0.000000000000000D+00 0.000000000000000D+00 0.334603487677792D+03
 0.361773731909958D+03 0.000000000000000D+00 0.000000000000000D+00 -.361773731909958D+03
 0.247868122333069D+03 -.779696519317086D+01 -.103133321867326D+03 0.210414152016773D+03
 0.173982859432453D+02 -.146424959072593D+02 0.120063996325284D+01 0.931966367673552D+01
 0.135684290204386D+03 0.371762908671137D+02 -.527929494625435D+02 -.119335889373973D+03
 0.240642831293288D+03 -.407388243686143D+02 0.194561880872513D+03 -.100397926319536D+03
 0.547836898137615D+02 0.260019946019307D+02 -.398362495058971D+02 -.271702442321653D+02
0.311880691630D-04 0.000000000000D+00 0.000000000000D+00 0.474000421291D-05 0.000000000000D+00  7 -2 1 -24 -13 13 23 21 0 0.77887339D-02 0.31100848D+00 0.47614065D+05 0.47614065D+05 0.47614065D+05 0.11491679D+01  1  2  2  2  7  2        1 0.964447623379D-03 0.100000000000D+01
-.142427404189D-05 0.000000000000D+00 -.119770397593D-06 0.474000421291D-05 0.000000000000D+00  7 -2 1 -24 -13 13 23 21 2 0.77887339D-02 0.31100848D+00 0.47614065D+05 0.47614065D+05 0.47614065D+05 0.11491679D+01  1  2  3  2  7  2        1 -.581635192870D-04 0.100000000000D+01
0.195640549257D-05 0.000000000000D+00 0.000000000000D+00 0.474000421291D-05 0.000000000000D+00  7 -2 1 -24 -13 13 23 21 2 0.77887339D-02 0.31100848D+00 0.47614065D+05 0.47614065D+05 0.47614065D+05 0.11491679D+01  1  2 15  2  7  2        1 0.798943358184D-04 0.100000000000D+01
0.484884696447D-04 0.000000000000D+00 0.000000000000D+00 0.474000421291D-05 0.000000000000D+00  7 -2 1 -24 -13 13 23 21 2 0.77887339D-02 0.35816700D+00 0.56773630D+05 0.56773630D+05 0.56773630D+05 0.11424735D+01  1  2 12  2  7  2        1 0.122557394974D-02 0.100000000000D+01
-.487735811302D-04 0.000000000000D+00 0.000000000000D+00 0.474000421291D-05 0.000000000000D+00  7 -2 1 -24 -13 13 23 21 2 0.77887339D-02 0.31100848D+00 0.47614065D+05 0.47614065D+05 0.47614065D+05 0.11491679D+01  1  2  4  2  7  2        1 -.199178180837D-02 0.100000000000D+01
-.101815794214D-03 0.000000000000D+00 -.235200515484D-04 0.474000421291D-05 0.000000000000D+00  7 -2 1 -24 -13 13 23 21 2 0.77887339D-02 0.35789654D+00 0.47614065D+05 0.47614065D+05 0.47614065D+05 0.11491679D+01  1  2  5  2  7  2        1 -.262429980001D-02 0.100000000000D+01
0.104318362913D-03 0.000000000000D+00 0.232900476593D-04 0.474000421291D-05 0.000000000000D+00  7 -2 1 -24 -13 13 23 21 2 0.77887339D-02 0.31100848D+00 0.47614065D+05 0.47614065D+05 0.47614065D+05 0.11491679D+01  1  2  6  2  7  2        1 0.426008123075D-02 0.100000000000D+01
0.105283297553D-05 0.000000000000D+00 0.000000000000D+00 0.474000421291D-05 0.000000000000D+00  7 -2 21 -24 -13 13 23 -1 2 0.77887339D-02 0.35816700D+00 0.56773630D+05 0.56773630D+05 0.56773630D+05 0.11424735D+01  1  2 12  4  7  2        1 0.113213505640D-04 0.100000000000D+01
-.205611224425D-05 0.000000000000D+00 -.508454048286D-06 0.474000421291D-05 0.000000000000D+00  7 -2 21 -24 -13 13 23 -1 2 0.77887339D-02 0.35789654D+00 0.47614065D+05 0.47614065D+05 0.47614065D+05 0.11491679D+01  1  2  5  4  7  2        1 -.228103702165D-04 0.100000000000D+01
  </mgrwgt>
  </event>
  <event>
  8     66 0.26562228E-05 0.50390217E+03 0.75467711E-02 0.82914755E-01
       -2 -1    0    0    0  501 0.00000000E+00 0.00000000E+00 0.44636302E+03 0.44636313E+03 0.32000000E+00 0.0000E+00 0.9000E+01
        1 -1    0    0  501    0 0.00000000E+00 0.00000000E+00 -.64192379E+03 0.64192387E+03 0.32000000E+00 0.0000E+00 0.9000E+01
       25  2    1    2    0    0 -.47702518E+03 -.88922760E+02 -.17353238E+03 0.59593272E+03 0.29926916E+03 0.0000E+00 0.0000E+00
       23  2    3    3    0    0 -.28044076E+03 -.14009572E+02 0.19806275E+02 0.29601188E+03 0.91583046E+02 0.0000E+00 0.0000E+00
      -24  1    1    2    0    0 0.47702518E+03 0.88922760E+02 -.22028389E+02 0.49235429E+03 0.80419002E+02 0.0000E+00 0.9000E+01
      -13  1    4    4    0    0 -.43424483E+02 -.23643136E+02 0.31305730E+02 0.58521308E+02 0.10565837E+00 0.0000E+00 0.9000E+01
       13  1    4    4    0    0 -.23701628E+03 0.96335644E+01 -.11499455E+02 0.23749057E+03 0.10565837E+00 0.0000E+00 0.9000E+01
       23  1    3    3    0    0 -.19658442E+03 -.74913188E+02 -.19333866E+03 0.29992084E+03 0.91188000E+02 0.0000E+00 0.9000E+01
#aMCatNLO 1  0  0  1  1 0.14716475D+04 0.00000000D+00  -5  7  0 0.00000000D+00 0.00000000D+00 0.00000000D+00 0.00000000D+00 0.00000000D+00
  <mgrwgt>
 0.1139586247D-02    5    2    0
 0.535286043179092D+03 0.000000000000000D+00 0.000000000000000D+00 0.535286043179092D+03
 0.535286043179092D+03 0.000000000000000D+00 0.000000000000000D+00 -.535286043179092D+03
 0.496477439595585D+03 0.477025182309996D+03 0.889227595577824D+02 0.675451726458749D+02
 0.652080364757469D+02 -.434242250701604D+02 -.236431803434451D+02 0.425138180045703D+02
 0.239319997371546D+03 -.237016538479831D+03 0.963360863194424D+01 0.316925103720452D+02
 0.269566612915306D+03 -.196584418760005D+03 -.749131878462815D+02 -.141751501022490D+03
 0.000000000000000D+00 -.000000000000000D+00 0.000000000000000D+00 0.000000000000000D+00
 0.407582381886296D+04 0.000000000000000D+00 0.000000000000000D+00 0.407582381886296D+04
 0.108094887741072D+04 0.000000000000000D+00 0.000000000000000D+00 -.108094887741072D+04
 0.907236990074087D+03 0.674058858465345D+03 -.598075283873989D+03 0.675451726458749D+02
 0.125631160591730D+03 -.166369044029584D+02 -.117042629849923D+03 0.425138180045703D+02
 0.304265363103519D+03 -.160715675843663D+03 -.256404889791417D+03 0.316925103720452D+02
 0.482721114663983D+03 -.909888550481025D+02 -.443093628269855D+03 -.141751501022490D+03
 0.333691806784035D+04 -.405717423170621D+03 0.141461643178518D+04 0.299487494145224D+04
0.168086287147D-03 0.000000000000D+00 0.000000000000D+00 0.366150760093D-05 0.000000000000D+00  7 -2 1 -24 -13 13 23 21 0 0.68671249D-01 0.98757522D-01 0.25391740D+06 0.25391740D+06 0.25391740D+06 0.10899515D+01  1  2  2  1  7  1       -2 0.112910050754D-02 0.100000000000D+01
-.929668035513D-05 0.000000000000D+00 -.645495600782D-06 0.366150760093D-05 0.000000000000D+00  7 -2 1 -24 -13 13 23 21 2 0.68671249D-01 0.98757522D-01 0.25391740D+06 0.25391740D+06 0.25391740D+06 0.10899515D+01  1  2  3  1  7  1       -2 -.741895186856D-04 0.100000000000D+01
0.106070015615D-04 0.000000000000D+00 0.000000000000D+00 0.366150760093D-05 0.000000000000D+00  7 -2 1 -24 -13 13 23 21 2 0.68671249D-01 0.98757522D-01 0.25391740D+06 0.25391740D+06 0.25391740D+06 0.10899515D+01  1  2 15  1  7  1       -2 0.846461651347D-04 0.100000000000D+01
0.632955152667D-04 0.000000000000D+00 -.103850179297D-03 0.366150760093D-05 0.000000000000D+00  7 -2 1 -24 -13 13 23 21 2 0.62147192D+00 0.98757522D-01 0.25391740D+06 0.25391740D+06 0.25391740D+06 0.10899515D+01  1  2  5  1  7  1       -2 0.226827194563D-07 0.100000000000D+01
0.199317601452D-05 0.000000000000D+00 -.274953881623D-04 0.366150760093D-05 0.000000000000D+00  7 21 1 -24 -13 13 23 2 2 0.62147192D+00 0.98757522D-01 0.25391740D+06 0.25391740D+06 0.25391740D+06 0.10899515D+01  1  2  5  3  7  1       -2 0.640992414712D-08 0.100000000000D+01
  </mgrwgt>
  </event>
  <event>
  8     66 0.26562228E-05 0.11850227E+03 0.75467711E-02 0.10186611E+00
       -4 -1    0    0    0  501 0.00000000E+00 0.00000000E+00 0.29812657E+03 0.29813060E+03 0.15500000E+01 0.0000E+00 0.9000E+01
        3 -1    0    0  501    0 0.00000000E+00 0.00000000E+00 -.30120692E+03 0.30120734E+03 0.50000000E+00 0.0000E+00 0.9000E+01
       25  2    1    2    0    0 -.50811820E+02 -.12566628E+03 -.17182115E+03 0.36843854E+03 0.29639601E+03 0.0000E+00 0.0000E+00
       23  2    3    3    0    0 0.89185755E+02 -.78451145E+02 -.59017160E+02 0.16139125E+03 0.91953403E+02 0.0000E+00 0.0000E+00
      -24  1    1    2    0    0 0.50811820E+02 0.12566628E+03 0.16874080E+03 0.23089939E+03 0.80419002E+02 0.0000E+00 0.9000E+01
      -13  1    4    4    0    0 0.80272361E+02 -.29765707E+02 -.70123121E+02 0.11066577E+03 0.10565837E+00 0.0000E+00 0.9000E+01
       13  1    4    4    0    0 0.89133947E+01 -.48685438E+02 0.11105962E+02 0.50725477E+02 0.10565837E+00 0.0000E+00 0.9000E+01
       23  1    3    3    0    0 -.13999758E+03 -.47215137E+02 -.11280399E+03 0.20704730E+03 0.91188000E+02 0.0000E+00 0.9000E+01
#aMCatNLO 1  0  0  2  1 0.83599192D+02 0.00000000D+00  -5  7  0 0.00000000D+00 0.00000000D+00 0.00000000D+00 0.00000000D+00 0.00000000D+00
  <mgrwgt>
 0.2043585652D-03    9    2    0
 0.299665009833076D+03 0.000000000000000D+00 0.000000000000000D+00 0.299665009833076D+03
 0.299665009833076D+03 0.000000000000000D+00 0.000000000000000D+00 -.299665009833076D+03
 0.231769714057231D+03 0.508118201404006D+02 0.125666282378341D+03 0.169929776104797D+03
 0.110306900052152D+03 0.802724540311937D+02 -.297656821116752D+02 -.695553699677610D+02
 0.507831491223235D+02 0.891330047035679D+01 -.486854629107146D+02 0.113669261753000D+02
 0.206470256434446D+03 -.139997574641951D+03 -.472151373559515D+02 -.111741332312336D+03
 0.000000000000000D+00 -.000000000000000D+00 0.000000000000000D+00 -.000000000000000D+00
 0.330975219676016D+03 0.000000000000000D+00 0.000000000000000D+00 0.330975219676016D+03
 0.364068113157719D+03 0.000000000000000D+00 0.000000000000000D+00 -.364068113157719D+03
 0.221718944716179D+03 0.653086943750894D+02 0.977277858322818D+02 0.169929776104797D+03
 0.120217254324204D+03 0.876417224999821D+02 -.439677975697494D+02 -.695553699677610D+02
 0.578752981055555D+02 0.123868335202455D+02 -.553796846819654D+02 0.113669261753000D+02
 0.205320965574835D+03 -.126833660967541D+03 -.725847412285645D+02 -.111741332312336D+03
 0.899108701129607D+02 -.385035894277765D+02 0.742044376479975D+02 -.330928934817032D+02
0.221635029773D-04 0.000000000000D+00 0.000000000000D+00 0.641933679736D-07 0.000000000000D+00  7 -4 3 -24 -13 13 23 21 0 0.45865968D-01 0.46339868D-01 0.54367883D+05 0.54367883D+05 0.54367883D+05 0.11441098D+01  1  2  2  2  7  2        3 0.152737349067D-03 0.100000000000D+01
-.113706222002D-05 0.000000000000D+00 -.851136872171D-07 0.641933679736D-07 0.000000000000D+00  7 -4 3 -24 -13 13 23 21 2 0.45865968D-01 0.46339868D-01 0.54367883D+05 0.54367883D+05 0.54367883D+05 0.11441098D+01  1  2  3  2  7  2        3 -.102571441932D-04 0.100000000000D+01
0.140375350620D-05 0.000000000000D+00 0.000000000000D+00 0.641933679736D-07 0.000000000000D+00  7 -4 3 -24 -13 13 23 21 2 0.45865968D-01 0.46339868D-01 0.54367883D+05 0.54367883D+05 0.54367883D+05 0.11441098D+01  1  2 15  2  7  2        3 0.126628973078D-04 0.100000000000D+01
0.183274759165D-04 0.000000000000D+00 0.000000000000D+00 0.641933679736D-07 0.000000000000D+00  7 -4 3 -24 -13 13 23 21 2 0.45865968D-01 0.58311117D-01 0.76471588D+05 0.76471588D+05 0.76471588D+05 0.11314095D+01  1  2 12  2  7  2        3 0.102424939250D-03 0.100000000000D+01
-.202110216748D-04 0.000000000000D+00 0.000000000000D+00 0.641933679736D-07 0.000000000000D+00  7 -4 3 -24 -13 13 23 21 2 0.45865968D-01 0.46339868D-01 0.54367883D+05 0.54367883D+05 0.54367883D+05 0.11441098D+01  1  2  4  2  7  2        3 -.182318399081D-03 0.100000000000D+01
-.357076789612D-04 0.000000000000D+00 -.127854269424D-04 0.641933679736D-07 0.000000000000D+00  7 -4 3 -24 -13 13 23 21 2 0.45865968D-01 0.61294738D-01 0.54367883D+05 0.54367883D+05 0.54367883D+05 0.11441098D+01  1  2  5  2  7  2        3 -.182898443478D-03 0.100000000000D+01
0.382616074630D-04 0.000000000000D+00 0.123011401250D-04 0.641933679736D-07 0.000000000000D+00  7 -4 3 -24 -13 13 23 21 2 0.45865968D-01 0.46339868D-01 0.54367883D+05 0.54367883D+05 0.54367883D+05 0.11441098D+01  1  2  6  2  7  2        3 0.345148064811D-03 0.100000000000D+01
0.582621303806D-06 0.000000000000D+00 0.000000000000D+00 0.641933679736D-07 0.000000000000D+00  7 -4 21 -24 -13 13 23 -3 2 0.45865968D-01 0.58311117D-01 0.76471588D+05 0.76471588D+05 0.76471588D+05 0.11314095D+01  1  2 12  4  7  2        3 0.492928743802D-04 0.100000000000D+01
-.105512976887D-05 0.000000000000D+00 -.469748516484D-06 0.641933679736D-07 0.000000000000D+00  7 -4 21 -24 -13 13 23 -3 2 0.45865968D-01 0.61294738D-01 0.54367883D+05 0.54367883D+05 0.54367883D+05 0.11441098D+01  1  2  5  4  7  2        3 -.824335728845D-04 0.100000000000D+01
  </mgrwgt>
  </event>
  <event>
  8     66 0.26562228E-05 0.43003027E+03 0.75467711E-02 0.93266270E-01
       -2 -1    0    0    0  501 0.00000000E+00 0.00000000E+00 0.11174260E+04 0.11174260E+04 0.32000000E+00 0.0000E+00 0.9000E+01
        1 -1    0    0  501    0 0.00000000E+00 0.00000000E+00 -.17460154E+03 0.17460184E+03 0.32000000E+00 0.0000E+00 0.9000E+01
       25  2    1    2    0    0 -.28879830E+03 -.25425857E+03 0.47737108E+03 0.68279398E+03 0.30045398E+03 0.0000E+00 0.0000E+00
       23  2    3    3    0    0 -.24957031E+03 -.25520292E+03 0.44603089E+03 0.57869217E+03 0.92342866E+02 0.0000E+00 0.0000E+00
      -24  1    1    2    0    0 0.28879830E+03 0.25425857E+03 0.46545335E+03 0.60923387E+03 0.80419002E+02 0.0000E+00 0.9000E+01
      -11  1    4    4    0    0 -.18067252E+03 -.12283613E+03 0.24384301E+03 0.32739989E+03 0.51099893E-03 0.0000E+00 0.9000E+01
       11  1    4    4    0    0 -.68897794E+02 -.13236679E+03 0.20218788E+03 0.25129229E+03 0.51099893E-03 0.0000E+00 0.9000E+01
       23  1    3    3    0    0 -.39227993E+02 0.94435152E+00 0.31340186E+02 0.10410181E+03 0.91188000E+02 0.0000E+00 0.9000E+01
#aMCatNLO 1  0  0  2  1 0.23603618D+03 0.00000000D+00  -5  7  0 0.00000000D+00 0.00000000D+00 0.00000000D+00 0.00000000D+00 0.00000000D+00
  <mgrwgt>
 0.4570054168D-03    4    2    0
 0.441706371333948D+03 0.000000000000000D+00 0.000000000000000D+00 0.441706371333948D+03
 0.441706371333948D+03 0.000000000000000D+00 0.000000000000000D+00 -.441706371333948D+03
 0.394273630424448D+03 0.288798303056937D+03 0.254258567375386D+03 0.305385127560775D+02
 0.218593887912219D+03 -.180672515910657D+03 -.122836126438722D+03 0.721220275805181D+01
 0.151739898515626D+03 -.688977944407539D+02 -.132366792461408D+03 0.275158677168363D+02
 0.118805325815603D+03 -.392279927055259D+02 0.944351524744462D+00 -.652665832309656D+02
 0.000000000000000D+00 0.000000000000000D+00 -.000000000000000D+00 0.000000000000000D+00
 0.581241114687278D+03 0.000000000000000D+00 0.000000000000000D+00 0.581241114687278D+03
 0.569489496468764D+03 0.000000000000000D+00 0.000000000000000D+00 -.569489496468764D+03
 0.378541594977672D+03 0.202684521402038D+03 0.307917045966187D+03 0.305385127560775D+02
 0.249875565597494D+03 -.232873449465679D+03 -.903091299260495D+02 0.721220275805181D+01
 0.153982982371990D+03 -.102964091980329D+03 -.111139694288892D+03 0.275158677168363D+02
 0.132001930147364D+03 -.671751145627863D+02 0.183585216033733D+02 -.652665832309656D+02
 0.236328538061522D+03 0.200328134606756D+03 -.124826743354619D+03 0.117516182185140D+02
0.180442970518D-03 0.000000000000D+00 0.000000000000D+00 0.220471350987D-05 0.000000000000D+00  7 -2 1 -24 -11 11 23 21 0 0.17191171D+00 0.26861802D-01 0.18492603D+06 0.18492603D+06 0.18492603D+06 0.11004487D+01  1  2  2  2  7  2        1 0.726773526712D-03 0.100000000000D+01
-.100158619250D-04 0.000000000000D+00 -.692948518516D-06 0.220471350987D-05 0.000000000000D+00  7 -2 1 -24 -11 11 23 21 2 0.17191171D+00 0.26861802D-01 0.18492603D+06 0.18492603D+06 0.18492603D+06 0.11004487D+01  1  2  3  2  7  2        1 -.488525329815D-04 0.100000000000D+01
0.116339322467D-04 0.000000000000D+00 0.000000000000D+00 0.220471350987D-05 0.000000000000D+00  7 -2 1 -24 -11 11 23 21 2 0.17191171D+00 0.26861802D-01 0.18492603D+06 0.18492603D+06 0.18492603D+06 0.11004487D+01  1  2 15  2  7  2        1 0.567446978649D-04 0.100000000000D+01
-.569265666478D-04 0.000000000000D+00 0.000000000000D+00 0.220471350987D-05 0.000000000000D+00  7 -2 1 -24 -11 11 23 21 2 0.17191171D+00 0.26861802D-01 0.18492603D+06 0.18492603D+06 0.18492603D+06 0.11004487D+01  1  2  4  2  7  2        1 -.277660274824D-03 0.100000000000D+01
  </mgrwgt>
  </event>
  <event>
  8     66 0.26562228E-05 0.17706171E+03 0.75467711E-02 0.96984281E-01
       -2 -1    0    0    0  501 0.00000000E+00 0.00000000E+00 0.54168605E+03 0.54168615E+03 0.32000000E+00 0.0000E+00 0.9000E+01
        1 -1    0    0  501    0 0.00000000E+00 0.00000000E+00 -.26646257E+04 0.26646257E+04 0.32000000E+00 0.0000E+00 0.9000E+01
       25  2    1    2    0    0 0.32464771E+03 -.36623878E+02 -.25916260E+04 0.26293616E+04 0.30046578E+03 0.0000E+00 0.0000E+00
       23  2    3    3    0    0 0.27998918E+03 -.10281799E+03 -.20981711E+04 0.21212385E+04 0.91463469E+02 0.0000E+00 0.0000E+00
      -24  1    1    2    0    0 -.32464771E+03 0.36623878E+02 0.46868638E+03 0.57695024E+03 0.80419002E+02 0.0000E+00 0.9000E+01
      -11  1    4    4    0    0 0.22749046E+03 -.11638799E+03 -.16247169E+04 0.16446893E+04 0.51099893E-03 0.0000E+00 0.9000E+01
       11  1    4    4    0    0 0.52498726E+02 0.13569998E+02 -.47345420E+03 0.47654920E+03 0.51099893E-03 0.0000E+00 0.9000E+01
       23  1    3    3    0    0 0.44658522E+02 0.66194110E+02 -.49345497E+03 0.50812312E+03 0.91188000E+02 0.0000E+00 0.9000E+01
#aMCatNLO 1  0  0  2  1 0.46362966D+02 0.00000000D+00  -5  7  0 0.00000000D+00 0.00000000D+00 0.00000000D+00 0.00000000D+00 0.00000000D+00
  <mgrwgt>
 0.2117880415D-02    9    2    0
 0.120141198987650D+04 0.000000000000000D+00 0.000000000000000D+00 0.120141198987650D+04
 0.120141198987650D+04 0.000000000000000D+00 0.000000000000000D+00 -.120141198987650D+04
 0.118397158063831D+04 -.324647706414175D+03 0.366238782752062D+02 0.113515815905314D+04
 0.759194622584873D+03 0.227490458086187D+03 -.116387985631560D+03 -.714897477434458D+03
 0.217598405530379D+03 0.524987262828191D+02 0.135699976679151D+02 -.210733967341142D+03
 0.242059370999440D+03 0.446585220451685D+02 0.661941096884383D+02 -.209526714277537D+03
 0.000000000000000D+00 0.000000000000000D+00 -.000000000000000D+00 -.000000000000000D+00
 0.121443926777845D+04 0.000000000000000D+00 0.000000000000000D+00 0.121443926777845D+04
 0.124360653967546D+04 0.000000000000000D+00 0.000000000000000D+00 -.124360653967546D+04
 0.118937884333236D+04 -.341908569209150D+03 0.516652808827834D+02 0.113515815905314D+04
 0.754551265950113D+03 0.216481312607894D+03 -.106794433358345D+03 -.714897477434458D+03
 0.217047232544166D+03 0.493376428425205D+02 0.163246182953102D+02 -.210733967341142D+03
 0.242293887627334D+03 0.411359258634091D+02 0.692637585248325D+02 -.209526714277537D+03
 0.547745779999357D+02 0.349536878953265D+02 -.304592243445814D+02 -.291672718970013D+02
0.405265802795D-02 0.000000000000D+00 0.000000000000D+00 0.861522571464D-04 0.000000000000D+00  7 -2 1 -24 -11 11 23 21 0 0.83336325D-01 0.40994243D+00 0.14723555D+06 0.14723555D+06 0.14723555D+06 0.11081900D+01  1  2  2  2  7  2        1 0.663320825485D-03 0.100000000000D+01
0.131461881777D-03 0.000000000000D+00 -.155632739167D-04 0.861522571464D-04 0.000000000000D+00  7 -2 1 -24 -11 11 23 21 2 0.83336325D-01 0.40994243D+00 0.14723555D+06 0.14723555D+06 0.14723555D+06 0.11081900D+01  1  2  3  2  7  2        1 0.264248148657D-04 0.100000000000D+01
0.248923506584D-03 0.000000000000D+00 0.000000000000D+00 0.861522571464D-04 0.000000000000D+00  7 -2 1 -24 -11 11 23 21 2 0.83336325D-01 0.40994243D+00 0.14723555D+06 0.14723555D+06 0.14723555D+06 0.11081900D+01  1  2 15  2  7  2        1 0.500354740726D-04 0.100000000000D+01
0.834895917470D-02 0.000000000000D+00 0.000000000000D+00 0.861522571464D-04 0.000000000000D+00  7 -2 1 -24 -11 11 23 21 2 0.83336325D-01 0.42651017D+00 0.16663335D+06 0.16663335D+06 0.16663335D+06 0.11039658D+01  1  2 12  2  7  2        1 0.138296089452D-02 0.100000000000D+01
-.826599276487D-02 0.000000000000D+00 0.000000000000D+00 0.861522571464D-04 0.000000000000D+00  7 -2 1 -24 -11 11 23 21 2 0.83336325D-01 0.40994243D+00 0.14723555D+06 0.14723555D+06 0.14723555D+06 0.11081900D+01  1  2  4  2  7  2        1 -.166152595368D-02 0.100000000000D+01
-.515168359023D-01 0.000000000000D+00 -.909988193049D-02 0.861522571464D-04 0.000000000000D+00  7 -2 1 -24 -11 11 23 21 2 0.83336325D-01 0.42584386D+00 0.14723555D+06 0.14723555D+06 0.14723555D+06 0.11081900D+01  1  2  5  2  7  2        1 -.875252827449D-02 0.100000000000D+01
0.518321889025D-01 0.000000000000D+00 0.909329640519D-02 0.861522571464D-04 0.000000000000D+00  7 -2 1 -24 -11 11 23 21 2 0.83336325D-01 0.40994243D+00 0.14723555D+06 0.14723555D+06 0.14723555D+06 0.11081900D+01  1  2  6  2  7  2        1 0.104186550300D-01 0.100000000000D+01
0.151031419271D-03 0.000000000000D+00 0.000000000000D+00 0.861522571464D-04 0.000000000000D+00  7 -2 21 -24 -11 11 23 -1 2 0.83336325D-01 0.42651017D+00 0.16663335D+06 0.16663335D+06 0.16663335D+06 0.11039658D+01  1  2 12  4  7  2        1 0.699805112027D-05 0.100000000000D+01
-.342783668226D-03 0.000000000000D+00 -.613809823562D-04 0.861522571464D-04 0.000000000000D+00  7 -2 21 -24 -11 11 23 -1 2 0.83336325D-01 0.42584386D+00 0.14723555D+06 0.14723555D+06 0.14723555D+06 0.11081900D+01  1  2  5  4  7  2        1 -.164604472863D-04 0.100000000000D+01
  </mgrwgt>
  </event>
  <event>
  8     66 0.26562228E-05 0.26661623E+03 0.75467711E-02 0.97937245E-01
       -2 -1    0    0    0  501 0.00000000E+00 0.00000000E+00 0.51404084E+02 0.51405080E+02 0.32000000E+00 0.0000E+00 0.9000E+01
        1 -1    0    0  501    0 0.00000000E+00 0.00000000E+00 -.27084078E+04 0.27084078E+04 0.32000000E+00 0.0000E+00 0.9000E+01
       25  2    1    2    0    0 -.29055959E+03 0.71211779E+01 -.11738958E+04 0.12463560E+04 0.30149006E+03 0.0000E+00 0.0000E+00
       23  2    3    3    0    0 -.15657041E+03 -.11406883E+03 -.67025424E+03 0.70357591E+03 0.90842267E+02 0.0000E+00 0.0000E+00
      -24  1    1    2    0    0 0.29055959E+03 -.71211779E+01 -.14831079E+04 0.15134570E+04 0.80419002E+02 0.0000E+00 0.9000E+01
      -13  1    4    4    0    0 -.14079937E+03 -.66531638E+02 -.57790649E+03 0.59852054E+03 0.10565837E+00 0.0000E+00 0.9000E+01
       13  1    4    4    0    0 -.15771035E+02 -.47537195E+02 -.92347754E+02 0.10505536E+03 0.10565837E+00 0.0000E+00 0.9000E+01
       23  1    3    3    0    0 -.13398918E+03 0.12119001E+03 -.50364154E+03 0.54278004E+03 0.91188000E+02 0.0000E+00 0.9000E+01
#aMCatNLO 1  0  0  2  1 0.43519909D+02 0.00000000D+00  -5  7  0 0.00000000D+00 0.00000000D+00 0.00000000D+00 0.00000000D+00 0.00000000D+00
  <mgrwgt>
 0.1414854611D-02    9    2    0
 0.373128159118767D+03 0.000000000000000D+00 0.000000000000000D+00 0.373128159118767D+03
 0.373128159118767D+03 0.000000000000000D+00 0.000000000000000D+00 -.373128159118767D+03
 0.316559769548277D+03 0.290559590684052D+03 -.712117788020853D+01 -.962667379171146D+02
 0.155851449344739D+03 -.140799540114573D+03 -.665316624941414D+02 -.622106519385642D+01
 0.597177160328981D+02 -.157708661050385D+02 -.475371684392358D+02 0.325223462754846D+02
 0.214127383311619D+03 -.133989184464440D+03 0.121190008813586D+03 0.699654568354865D+02
 0.000000000000000D+00 0.000000000000000D+00 -.000000000000000D+00 -.000000000000000D+00
 0.385109174553871D+03 0.000000000000000D+00 0.000000000000000D+00 0.385109174553871D+03
 0.415490601299820D+03 0.000000000000000D+00 0.000000000000000D+00 -.415490601299820D+03
 0.300528924431810D+03 0.273083724074952D+03 -.290056579366841D+01 -.962667379171146D+02
 0.163187000431609D+03 -.149834664961060D+03 -.643495814572775D+02 -.622106519385642D+01
 0.600623760086084D+02 -.191630217730382D+02 -.467179259071184D+02 0.325223462754846D+02
 0.223745929470773D+03 -.146389696223154D+03 0.124184867436554D+03 0.699654568354865D+02
 0.530755455108893D+02 0.423036588823004D+02 -.102167942784901D+02 -.303814267459489D+02
0.596135975950D-04 0.000000000000D+00 0.000000000000D+00 0.552589085839D-06 0.000000000000D+00  7 -2 1 -24 -13 13 23 21 0 0.79083987D-02 0.41667820D+00 0.12593760D+06 0.12593760D+06 0.12593760D+06 0.11135946D+01  1  2  2  2  7  2        1 0.602996165887D-03 0.100000000000D+01
-.330173876058D-05 0.000000000000D+00 -.228931911386D-06 0.552589085839D-06 0.000000000000D+00  7 -2 1 -24 -13 13 23 21 2 0.79083987D-02 0.41667820D+00 0.12593760D+06 0.12593760D+06 0.12593760D+06 0.11135946D+01  1  2  3  2  7  2        1 -.414158124693D-04 0.100000000000D+01
0.385566143649D-05 0.000000000000D+00 0.000000000000D+00 0.552589085839D-06 0.000000000000D+00  7 -2 1 -24 -13 13 23 21 2 0.79083987D-02 0.41667820D+00 0.12593760D+06 0.12593760D+06 0.12593760D+06 0.11135946D+01  1  2 15  2  7  2        1 0.483640174398D-04 0.100000000000D+01
0.110194193426D-03 0.000000000000D+00 0.000000000000D+00 0.552589085839D-06 0.000000000000D+00  7 -2 1 -24 -13 13 23 21 2 0.79083987D-02 0.47014877D+00 0.14224310D+06 0.14224310D+06 0.14224310D+06 0.11093763D+01  1  2 12  2  7  2        1 0.764583938515D-03 0.100000000000D+01
-.110177221255D-03 0.000000000000D+00 0.000000000000D+00 0.552589085839D-06 0.000000000000D+00  7 -2 1 -24 -13 13 23 21 2 0.79083987D-02 0.41667820D+00 0.12593760D+06 0.12593760D+06 0.12593760D+06 0.11135946D+01  1  2  4  2  7  2        1 -.138202306868D-02 0.100000000000D+01
-.256902455644D-03 0.000000000000D+00 -.450924212011D-04 0.552589085839D-06 0.000000000000D+00  7 -2 1 -24 -13 13 23 21 2 0.79083987D-02 0.46830938D+00 0.12593760D+06 0.12593760D+06 0.12593760D+06 0.11135946D+01  1  2  5  2  7  2        1 -.184361173262D-02 0.100000000000D+01
0.260695132343D-03 0.000000000000D+00 0.447865014136D-04 0.552589085839D-06 0.000000000000D+00  7 -2 1 -24 -13 13 23 21 2 0.79083987D-02 0.41667820D+00 0.12593760D+06 0.12593760D+06 0.12593760D+06 0.11135946D+01  1  2  6  2  7  2        1 0.327006510680D-02 0.100000000000D+01
0.210155499846D-05 0.000000000000D+00 0.000000000000D+00 0.552589085839D-06 0.000000000000D+00  7 -2 21 -24 -13 13 23 -1 2 0.79083987D-02 0.47014877D+00 0.14224310D+06 0.14224310D+06 0.14224310D+06 0.11093763D+01  1  2 12  4  7  2        1 0.318241036359D-05 0.100000000000D+01
-.456669274035D-05 0.000000000000D+00 -.836398046248D-06 0.552589085839D-06 0.000000000000D+00  7 -2 21 -24 -13 13 23 -1 2 0.79083987D-02 0.46830938D+00 0.12593760D+06 0.12593760D+06 0.12593760D+06 0.11135946D+01  1  2  5  4  7  2        1 -.728641382698D-05 0.100000000000D+01
  </mgrwgt>
  </event>
  <event>
  8     66 0.26562228E-05 0.29609827E+03 0.75467711E-02 0.99144098E-01
       -2 -1    0    0    0  501 0.00000000E+00 0.00000000E+00 0.55896567E+02 0.55897483E+02 0.32000000E+00 0.0000E+00 0.9000E+01
        1 -1    0    0  501    0 0.00000000E+00 0.00000000E+00 -.22952160E+04 0.22952161E+04 0.32000000E+00 0.0000E+00 0.9000E+01
       25  2    1    2    0    0 -.24559863E+03 -.41842229E+02 -.83681670E+03 0.92438627E+03 0.30357592E+03 0.0000E+00 0.0000E+00
       23  2    3    3    0    0 -.25883081E+02 -.61878826E+02 -.10298318E+03 0.15269769E+03 0.90620780E+02 0.0000E+00 0.0000E+00
      -24  1    1    2    0    0 0.24559863E+03 0.41842229E+02 -.14025028E+04 0.14267273E+04 0.80419002E+02 0.0000E+00 0.9000E+01
      -13  1    4    4    0    0 -.46531838E+02 -.47611201E+02 -.10822084E+03 0.12705825E+03 0.10565837E+00 0.0000E+00 0.9000E+01
       13  1    4    4    0    0 0.20648756E+02 -.14267625E+02 0.52376629E+01 0.25639434E+02 0.10565837E+00 0.0000E+00 0.9000E+01
       23  1    3    3    0    0 -.21971555E+03 0.20036597E+02 -.73383352E+03 0.77168858E+03 0.91188000E+02 0.0000E+00 0.9000E+01
#aMCatNLO 1  0  0  2  1 0.92162319D+02 0.00000000D+00  -5  7  0 0.00000000D+00 0.00000000D+00 0.00000000D+00 0.00000000D+00 0.00000000D+00
  <mgrwgt>
 0.9521054859D-03    4    2    0
 0.358184030655280D+03 0.000000000000000D+00 0.000000000000000D+00 0.358184030655280D+03
 0.358184030655280D+03 0.000000000000000D+00 0.000000000000000D+00 -.358184030655280D+03
 0.298374615842774D+03 0.245598636479913D+03 0.418422304284011D+02 -.143145844986630D+03
 0.787127864920437D+02 -.465319347427957D+02 -.476112453885758D+02 0.419958464491796D+02
 0.100521002332167D+03 0.206488415610009D+02 -.142675769274791D+02 0.973372153940655D+02
 0.238759656643576D+03 -.219715543298118D+03 0.200365918876537D+02 0.381278314338518D+01
 0.000000000000000D+00 0.000000000000000D+00 -.000000000000000D+00 0.000000000000000D+00
 0.439892271019418D+03 0.000000000000000D+00 0.000000000000000D+00 0.439892271019418D+03
 0.388098708728181D+03 0.000000000000000D+00 0.000000000000000D+00 -.388098708728181D+03
 0.298967598839405D+03 0.236986318985111D+03 0.791274976122711D+02 -.143145844986630D+03
 0.747406668491421D+02 -.487443848733316D+02 -.380328950435264D+02 0.419958464491796D+02
 0.989631326211448D+02 0.177727335894455D+02 -.181605569247852D+01 0.973372153940655D+02
 0.249600774920400D+03 -.226756591101454D+03 0.505193683018085D+02 0.381278314338518D+01
 0.105718806517506D+03 0.207419234002298D+02 -.897979151780747D+02 0.517935622912373D+02
0.805886219045D-04 0.000000000000D+00 0.000000000000D+00 0.108940524126D-06 0.000000000000D+00  7 -2 1 -24 -13 13 23 21 0 0.85995440D-02 0.35311023D+00 0.87674188D+05 0.87674188D+05 0.87674188D+05 0.11264404D+01  1  2  2  2  7  2        1 0.139414362479D-02 0.100000000000D+01
-.427989721958D-05 0.000000000000D+00 -.309481527585D-06 0.108940524126D-06 0.000000000000D+00  7 -2 1 -24 -13 13 23 21 2 0.85995440D-02 0.35311023D+00 0.87674188D+05 0.87674188D+05 0.87674188D+05 0.11264404D+01  1  2  3  2  7  2        1 -.939471469419D-04 0.100000000000D+01
0.519430091222D-05 0.000000000000D+00 0.000000000000D+00 0.108940524126D-06 0.000000000000D+00  7 -2 1 -24 -13 13 23 21 2 0.85995440D-02 0.35311023D+00 0.87674188D+05 0.87674188D+05 0.87674188D+05 0.11264404D+01  1  2 15  2  7  2        1 0.114019035043D-03 0.100000000000D+01
-.210520860294D-04 0.000000000000D+00 0.000000000000D+00 0.108940524126D-06 0.000000000000D+00  7 -2 1 -24 -13 13 23 21 2 0.85995440D-02 0.35311023D+00 0.87674188D+05 0.87674188D+05 0.87674188D+05 0.11264404D+01  1  2  4  2  7  2        1 -.462110026985D-03 0.100000000000D+01
  </mgrwgt>
  </event>
  <event>
  8     66 0.26562228E-05 0.27144941E+03 0.75467711E-02 0.95103393E-01
       -2 -1    0    0    0  501 0.00000000E+00 0.00000000E+00 0.13792425E+03 0.13792462E+03 0.32000000E+00 0.0000E+00 0.9000E+01
        1 -1    0    0  501    0 0.00000000E+00 0.00000000E+00 -.12820057E+04 0.12820057E+04 0.32000000E+00 0.0000E+00 0.9000E+01
       25  2    1    2    0    0 -.39290752E+02 -.21050259E+03 -.14677200E+03 0.39672536E+03 0.29998981E+03 0.0000E+00 0.0000E+00
       23  2    3    3    0    0 0.29631308E+02 -.17377529E+03 0.10280273E+02 0.19903922E+03 0.91842579E+02 0.0000E+00 0.0000E+00
      -24  1    1    2    0    0 0.39290752E+02 0.21050259E+03 -.99730946E+03 0.10232050E+04 0.80419002E+02 0.0000E+00 0.9000E+01
      -13  1    4    4    0    0 -.98487762E+01 -.14477923E+03 0.26349115E+02 0.14748665E+03 0.10565837E+00 0.0000E+00 0.9000E+01
       13  1    4    4    0    0 0.39480084E+02 -.28996061E+02 -.16068842E+02 0.51552570E+02 0.10565837E+00 0.0000E+00 0.9000E+01
       23  1    3    3    0    0 -.68922060E+02 -.36727301E+02 -.15705227E+03 0.19768614E+03 0.91188000E+02 0.0000E+00 0.9000E+01
#aMCatNLO 1  0  0  1  1 0.36752901D+03 0.00000000D+00  -5  7  0 0.00000000D+00 0.00000000D+00 0.00000000D+00 0.00000000D+00 0.00000000D+00
  <mgrwgt>
 0.1267665519D-02    5    2    0
 0.420499661283062D+03 0.000000000000000D+00 0.000000000000000D+00 0.420499661283062D+03
 0.420499661283062D+03 0.000000000000000D+00 0.000000000000000D+00 -.420499661283062D+03
 0.370840481832075D+03 0.392907521142702D+02 0.210502592215284D+03 -.291890977044539D+03
 0.284859380000431D+03 -.984884131168577D+01 -.144779383745306D+03 0.245126083355845D+03
 0.651804936079968D+02 0.394801496650867D+02 -.289959077781956D+02 0.430006030367347D+02
 0.120118967125622D+03 -.689220604676711D+02 -.367273006917829D+02 0.376429065195902D+01
 0.000000000000000D+00 0.000000000000000D+00 -.000000000000000D+00 0.000000000000000D+00
 0.747337988067044D+03 0.000000000000000D+00 0.000000000000000D+00 0.747337988067044D+03
 0.575977019720549D+03 0.000000000000000D+00 0.000000000000000D+00 -.575977019720549D+03
 0.496661672853049D+03 0.389013915616499D+02 0.391780474987422D+03 -.291890977044539D+03
 0.247611739077073D+03 -.100878300543173D+02 -.335113752655844D+02 0.245126083355845D+03
 0.584241846719912D+02 0.394246722399510D+02 -.316681414619145D+01 0.430006030367347D+02
 0.115102728575566D+03 -.690276349021919D+02 0.124258809441297D+02 0.376429065195902D+01
 0.405514682609914D+03 0.789401154908253D+00 -.367528166519775D+03 0.171360968346495D+03
0.585436315753D-04 0.000000000000D+00 0.000000000000D+00 0.917833622409D-05 0.000000000000D+00  7 -2 1 -24 -13 13 23 21 0 0.21219147D-01 0.19723168D+00 0.73684781D+05 0.73684781D+05 0.73684781D+05 0.11327705D+01  1  2  2  1  7  1       -2 0.113228088248D-02 0.100000000000D+01
-.249493199832D-05 0.000000000000D+00 -.224822960141D-06 0.917833622409D-05 0.000000000000D+00  7 -2 1 -24 -13 13 23 21 2 0.21219147D-01 0.19723168D+00 0.73684781D+05 0.73684781D+05 0.73684781D+05 0.11327705D+01  1  2  3  1  7  1       -2 -.619180212309D-04 0.100000000000D+01
0.366782653323D-05 0.000000000000D+00 0.000000000000D+00 0.917833622409D-05 0.000000000000D+00  7 -2 1 -24 -13 13 23 21 2 0.21219147D-01 0.19723168D+00 0.73684781D+05 0.73684781D+05 0.73684781D+05 0.11327705D+01  1  2 15  1  7  1       -2 0.910263531468D-04 0.100000000000D+01
0.440829489777D-05 0.000000000000D+00 -.178236635736D-04 0.917833622409D-05 0.000000000000D+00  7 -2 1 -24 -13 13 23 21 2 0.51644721D-01 0.19723168D+00 0.73684781D+05 0.73684781D+05 0.73684781D+05 0.11327705D+01  1  2  5  1  7  1       -2 0.222018379450D-04 0.100000000000D+01
0.154471152068D-05 0.000000000000D+00 -.173801178218D-05 0.917833622409D-05 0.000000000000D+00  7 21 1 -24 -13 13 23 2 2 0.51644721D-01 0.19723168D+00 0.73684781D+05 0.73684781D+05 0.73684781D+05 0.11327705D+01  1  2  5  3  7  1       -2 0.840744666492D-04 0.100000000000D+01
  </mgrwgt>
  </event>
  <event>
  8     66 0.26562228E-05 0.16804516E+03 0.75467711E-02 0.10745166E+00
       -2 -1    0    0    0  501 0.00000000E+00 0.00000000E+00 0.13736544E+03 0.13736581E+03 0.32000000E+00 0.0000E+00 0.9000E+01
        1 -1    0    0  501    0 0.00000000E+00 0.00000000E+00 -.33098955E+03 0.33098970E+03 0.32000000E+00 0.0000E+00 0.9000E+01
       25  2    1    2    0    0 0.12745137E+02 0.13588797E+02 -.22990955E+03 0.37818377E+03 0.29969563E+03 0.0000E+00 0.0000E+00
       23  2    3    3    0    0 0.50403419E+02 -.70376018E+02 -.21226801E+03 0.24743703E+03 0.93134759E+02 0.0000E+00 0.0000E+00
      -24  1    1    2    0    0 -.12745137E+02 -.13588797E+02 0.36285448E+02 0.90171745E+02 0.80419002E+02 0.0000E+00 0.9000E+01
      -13  1    4    4    0    0 0.73798014E+02 -.35244802E+02 -.11229449E+03 0.13891871E+03 0.10565837E+00 0.0000E+00 0.9000E+01
       13  1    4    4    0    0 -.23394595E+02 -.35131216E+02 -.99973520E+02 0.10851832E+03 0.10565837E+00 0.0000E+00 0.9000E+01
       23  1    3    3    0    0 -.37658282E+02 0.83964815E+02 -.17641540E+02 0.13074675E+03 0.91188000E+02 0.0000E+00 0.9000E+01
#aMCatNLO 1  0  0  1  1 0.30726455D+02 0.00000000D+00  -5  7  0 0.00000000D+00 0.00000000D+00 0.00000000D+00 0.00000000D+00 0.00000000D+00
  <mgrwgt>
 0.4107727974D-03    4    2    0
 0.213229099825340D+03 0.000000000000000D+00 0.000000000000000D+00 0.213229099825340D+03
 0.213229099825340D+03 0.000000000000000D+00 0.000000000000000D+00 -.213229099825340D+03
 0.115505284072078D+03 -.127451391352346D+02 -.135887986581922D+02 0.807908452341694D+02
 0.101581904196161D+03 0.737981274925776D+02 -.352448045618083D+02 -.602538246927720D+02
 0.737888310571933D+02 -.233947063865469D+02 -.351312145524733D+02 -.605250119036946D+02
 0.135582180325247D+03 -.376582819707962D+02 0.839648177724738D+02 0.399879913622973D+02
 0.000000000000000D+00 -.000000000000000D+00 0.000000000000000D+00 -.000000000000000D+00
 0.220923347719738D+03 0.000000000000000D+00 0.000000000000000D+00 0.220923347719738D+03
 0.246832143958325D+03 0.000000000000000D+00 0.000000000000000D+00 -.246832143958325D+03
 0.116262090084105D+03 -.897075792919265D+01 -.210243303074878D+02 0.807908452341694D+02
 0.106516353277797D+03 0.771870520764601D+02 -.419209865966799D+02 -.602538246927720D+02
 0.754742201317211D+02 -.209639257073635D+02 -.399198529241438D+02 -.605250119036946D+02
 0.129311028903440D+03 -.333444394631482D+02 0.754665472627682D+02 0.399879913622973D+02
 0.401917992809995D+02 -.139079289767557D+02 0.273986225655433D+02 -.259087962385861D+02
0.409690794871D-05 0.000000000000D+00 0.000000000000D+00 0.258045312775D-06 0.000000000000D+00  7 -2 1 -24 -13 13 23 21 0 0.21133186D-01 0.50921509D-01 0.28239176D+05 0.28239176D+05 0.28239176D+05 0.11697811D+01  1  2  2  1  7  1       -2 0.623460497635D-03 0.100000000000D+01
-.211912868333D-06 0.000000000000D+00 -.157332052637D-07 0.258045312775D-06 0.000000000000D+00  7 -2 1 -24 -13 13 23 21 2 0.21133186D-01 0.50921509D-01 0.28239176D+05 0.28239176D+05 0.28239176D+05 0.11697811D+01  1  2  3  1  7  1       -2 -.441285095785D-04 0.100000000000D+01
0.254201851789D-06 0.000000000000D+00 0.000000000000D+00 0.258045312775D-06 0.000000000000D+00  7 -2 1 -24 -13 13 23 21 2 0.21133186D-01 0.50921509D-01 0.28239176D+05 0.28239176D+05 0.28239176D+05 0.11697811D+01  1  2 15  1  7  1       -2 0.529347223686D-04 0.100000000000D+01
-.106365274693D-05 0.000000000000D+00 0.000000000000D+00 0.258045312775D-06 0.000000000000D+00  7 -2 1 -24 -13 13 23 21 2 0.21133186D-01 0.50921509D-01 0.28239176D+05 0.28239176D+05 0.28239176D+05 0.11697811D+01  1  2  4  1  7  1       -2 -.221493913043D-03 0.100000000000D+01
  </mgrwgt>
  </event>
  <event>
  8     66 0.26562228E-05 0.15913587E+03 0.75467711E-02 0.99753645E-01
       -2 -1    0    0    0  501 0.00000000E+00 0.00000000E+00 0.10099046E+03 0.10099096E+03 0.32000000E+00 0.0000E+00 0.9000E+01
        1 -1    0    0  501    0 0.00000000E+00 0.00000000E+00 -.11094588E+04 0.11094588E+04 0.32000000E+00 0.0000E+00 0.9000E+01
       25  2    1    2    0    0 0.19931844E+02 -.25132467E+03 -.48219369E+03 0.62138818E+03 0.30008525E+03 0.0000E+00 0.0000E+00
       23  2    3    3    0    0 0.57032632E+02 0.12808169E+02 -.16084825E+03 0.19392969E+03 0.91212907E+02 0.0000E+00 0.0000E+00
      -24  1    1    2    0    0 -.19931844E+02 0.25132467E+03 -.52627463E+03 0.58906160E+03 0.80419002E+02 0.0000E+00 0.9000E+01
      -11  1    4    4    0    0 0.18931582E+02 -.15414963E+02 -.14003499E+03 0.14214719E+03 0.51099893E-03 0.0000E+00 0.9000E+01
       11  1    4    4    0    0 0.38101049E+02 0.28223133E+02 -.20813261E+02 0.51782497E+02 0.51099893E-03 0.0000E+00 0.9000E+01
       23  1    3    3    0    0 -.37100788E+02 -.26413284E+03 -.32134544E+03 0.42745849E+03 0.91188000E+02 0.0000E+00 0.9000E+01
#aMCatNLO 1  0  0  1  2 0.31135663D+02 0.00000000D+00  -5  7  0 0.00000000D+00 0.00000000D+00 0.00000000D+00 0.00000000D+00 0.00000000D+00
  <mgrwgt>
 0.1094220616D-02    6    2    0
 0.334731360291845D+03 0.000000000000000D+00 0.000000000000000D+00 0.334731360291845D+03
 0.334731360291845D+03 0.000000000000000D+00 0.000000000000000D+00 -.334731360291845D+03
 0.272305224969966D+03 -.199318436994601D+02 0.251324667317405D+03 -.641993208383826D+02
 0.460685661758043D+02 0.189315823447855D+02 -.154149634714197D+02 -.390677217225661D+02
 0.622747125209632D+02 0.381010494271237D+02 0.282231328427673D+02 0.403720772893840D+02
 0.288814216916957D+03 -.371007880724491D+02 -.264132836688752D+03 0.628949652715647D+02
 0.000000000000000D+00 -.000000000000000D+00 -.000000000000000D+00 -.000000000000000D+00
 0.349341218660851D+03 0.000000000000000D+00 0.000000000000000D+00 0.349341218660851D+03
 0.352103061470811D+03 0.000000000000000D+00 0.000000000000000D+00 -.352103061470811D+03
 0.272259978736531D+03 -.729117552196628D+01 0.251959453148009D+03 -.641993208383826D+02
 0.469617762581756D+02 0.210910403511777D+02 -.153065203634292D+02 -.390677217225661D+02
 0.641776508457929D+02 0.410363129267001D+02 0.283705351519222D+02 0.403720772893840D+02
 0.286786959089698D+03 -.237397003295075D+02 -.263461873013288D+03 0.628949652715647D+02
 0.312579152014652D+02 -.310964774264040D+02 -.156159492321396D+01 -.276184280996011D+01
0.155406929323D-04 0.000000000000D+00 0.000000000000D+00 0.386908355470D-05 0.000000000000D+00  7 -2 1 -24 -11 11 23 21 0 0.15537036D-01 0.17068601D+00 0.95586421D+05 0.95586421D+05 0.95586421D+05 0.11233343D+01  1  2  2  1  7  1       -2 0.656128574437D-03 0.100000000000D+01
-.856748045464D-06 0.000000000000D+00 -.596803528184D-07 0.386908355470D-05 0.000000000000D+00  7 -2 1 -24 -11 11 23 21 2 0.15537036D-01 0.17068601D+00 0.95586421D+05 0.95586421D+05 0.95586421D+05 0.11233343D+01  1  2  3  1  7  1       -2 -.456446362169D-04 0.100000000000D+01
0.989946957598D-06 0.000000000000D+00 0.000000000000D+00 0.386908355470D-05 0.000000000000D+00  7 -2 1 -24 -11 11 23 21 2 0.15537036D-01 0.17068601D+00 0.95586421D+05 0.95586421D+05 0.95586421D+05 0.11233343D+01  1  2 15  1  7  1       -2 0.527410234465D-04 0.100000000000D+01
0.262044939372D-04 0.000000000000D+00 0.000000000000D+00 0.386908355470D-05 0.000000000000D+00  7 -2 1 -24 -11 11 23 21 2 0.16599686D-01 0.17068601D+00 0.10610394D+06 0.10610394D+06 0.10610394D+06 0.11196166D+01  1  2 12  1  7  1       -2 0.124467516200D-02 0.100000000000D+01
-.188185166432D-04 0.000000000000D+00 0.000000000000D+00 0.386908355470D-05 0.000000000000D+00  7 -2 1 -24 -11 11 23 21 2 0.15537036D-01 0.17068601D+00 0.95586421D+05 0.95586421D+05 0.95586421D+05 0.11233343D+01  1  2  4  1  7  1       -2 -.100258687588D-02 0.100000000000D+01
0.299551215681D-06 0.000000000000D+00 0.000000000000D+00 0.386908355470D-05 0.000000000000D+00  7 21 1 -24 -11 11 23 2 2 0.16599686D-01 0.17068601D+00 0.10610394D+06 0.10610394D+06 0.10610394D+06 0.11196166D+01  1  2 12  3  7  1       -2 0.188907368188D-03 0.100000000000D+01
  </mgrwgt>
  </event>
  <event>
  8     66 0.26562228E-05 0.25065915E+03 0.75467711E-02 0.10058979E+00
       -2 -1    0    0    0  501 0.00000000E+00 0.00000000E+00 0.78808457E+02 0.78809107E+02 0.32000000E+00 0.0000E+00 0.9000E+01
        1 -1    0    0  501    0 0.00000000E+00 0.00000000E+00 -.15815512E+04 0.15815512E+04 0.32000000E+00 0.0000E+00 0.9000E+01
       25  2    1    2    0    0 0.19579919E+03 -.10333251E+03 -.12833611E+04 0.13384745E+04 0.30900407E+03 0.0000E+00 0.0000E+00
       23  2    3    3    0    0 0.37715558E+02 -.47836300E+02 -.13238675E+03 0.17180089E+03 0.90986362E+02 0.0000E+00 0.0000E+00
      -24  1    1    2    0    0 -.19579919E+03 0.10333251E+03 -.21938165E+03 0.32188578E+03 0.80419002E+02 0.0000E+00 0.9000E+01
      -11  1    4    4    0    0 -.12009000E+01 -.33541709E+02 -.51661420E+00 0.33567176E+02 0.51099893E-03 0.0000E+00 0.9000E+01
       11  1    4    4    0    0 0.38916458E+02 -.14294591E+02 -.13187014E+03 0.13823371E+03 0.51099893E-03 0.0000E+00 0.9000E+01
       23  1    3    3    0    0 0.15808363E+03 -.55496211E+02 -.11509743E+04 0.11666736E+04 0.91188000E+02 0.0000E+00 0.9000E+01
#aMCatNLO 1  0  0  2  1 0.10348200D+03 0.00000000D+00  -5  7  0 0.00000000D+00 0.00000000D+00 0.00000000D+00 0.00000000D+00 0.00000000D+00
  <mgrwgt>
 0.1423775771D-02    4    2    0
 0.353044153077670D+03 0.000000000000000D+00 0.000000000000000D+00 0.353044153077670D+03
 0.353044153077670D+03 0.000000000000000D+00 0.000000000000000D+00 -.353044153077670D+03
 0.290009334635867D+03 -.195799192270128D+03 0.103332511004993D+03 0.169184120700900D+03
 0.778334209730497D+02 -.120089989094804D+01 -.335417090962798D+02 0.702250169862595D+02
 0.444007933711426D+02 0.389164578883855D+02 -.142945912385261D+02 -.158935338654393D+02
 0.293844757175280D+03 0.158083634272690D+03 -.554962106701869D+02 -.223515603821720D+03
 0.000000000000000D+00 -.000000000000000D+00 -.000000000000000D+00 0.000000000000000D+00
 0.475488516645324D+03 0.000000000000000D+00 0.000000000000000D+00 0.475488516645324D+03
 0.379374394568490D+03 0.000000000000000D+00 0.000000000000000D+00 -.379374394568490D+03
 0.295349708584266D+03 -.178540635076583D+03 0.142352412468334D+03 0.169184120700900D+03
 0.740980251334269D+02 0.327860304404047D+01 -.234139932526072D+02 0.702250169862595D+02
 0.452662324639966D+02 0.415601746151960D+02 -.831740757130094D+01 -.158935338654393D+02
 0.298917045639400D+03 0.175560452294922D+03 -.159828429261393D+02 -.223515603821720D+03
 0.141231899392724D+03 -.418585948775762D+02 -.946381687182861D+02 0.961141220768339D+02
0.573883218519D-04 0.000000000000D+00 0.000000000000D+00 0.296370589409D-07 0.000000000000D+00  7 -2 1 -24 -11 11 23 21 0 0.12124430D-01 0.24331562D+00 0.62830008D+05 0.62830008D+05 0.62830008D+05 0.11386709D+01  1  2  2  2  7  2        1 0.172946420186D-02 0.100000000000D+01
-.273351243616D-05 0.000000000000D+00 -.220386266603D-06 0.296370589409D-07 0.000000000000D+00  7 -2 1 -24 -11 11 23 21 2 0.12124430D-01 0.24331562D+00 0.62830008D+05 0.62830008D+05 0.62830008D+05 0.11386709D+01  1  2  3  2  7  2        1 -.106808442752D-03 0.100000000000D+01
0.361712744052D-05 0.000000000000D+00 0.000000000000D+00 0.296370589409D-07 0.000000000000D+00  7 -2 1 -24 -11 11 23 21 2 0.12124430D-01 0.24331562D+00 0.62830008D+05 0.62830008D+05 0.62830008D+05 0.11386709D+01  1  2 15  2  7  2        1 0.141334549661D-03 0.100000000000D+01
-.870699586102D-05 0.000000000000D+00 0.000000000000D+00 0.296370589409D-07 0.000000000000D+00  7 -2 1 -24 -11 11 23 21 2 0.12124430D-01 0.24331562D+00 0.62830008D+05 0.62830008D+05 0.62830008D+05 0.11386709D+01  1  2  4  2  7  2        1 -.340214537407D-03 0.100000000000D+01
  </mgrwgt>
  </event>
  <event>
  8     66 0.26562228E-05 0.35925199E+03 0.75467711E-02 0.89575680E-01
       -2 -1    0    0    0  501 0.00000000E+00 0.00000000E+00 0.40511885E+03 0.40511898E+03 0.32000000E+00 0.0000E+00 0.9000E+01
        1 -1    0    0  501    0 0.00000000E+00 0.00000000E+00 -.58982973E+03 0.58982982E+03 0.32000000E+00 0.0000E+00 0.9000E+01
       25  2    1    2    0    0 0.85675927E+01 0.29720517E+03 0.22805442E+03 0.47992770E+03 0.29986240E+03 0.0000E+00 0.0000E+00
       23  2    3    3    0    0 -.34824343E+02 -.24332360E+01 0.10082686E+03 0.13909322E+03 0.89231241E+02 0.0000E+00 0.0000E+00
      -24  1    1    2    0    0 -.85675927E+01 -.29720517E+03 -.41276531E+03 0.51502110E+03 0.80419002E+02 0.0000E+00 0.9000E+01
      -11  1    4    4    0    0 -.45396240E+02 -.36736281E+02 0.50058904E+02 0.76917272E+02 0.51099893E-03 0.0000E+00 0.9000E+01
       11  1    4    4    0    0 0.10571897E+02 0.34303045E+02 0.50767954E+02 0.62175952E+02 0.51099893E-03 0.0000E+00 0.9000E+01
       23  1    3    3    0    0 0.43391935E+02 0.29963841E+03 0.12722757E+03 0.34083448E+03 0.91188000E+02 0.0000E+00 0.9000E+01
#aMCatNLO 1  0  0  2  1 0.65703299D+03 0.00000000D+00  -5  7  0 0.00000000D+00 0.00000000D+00 0.00000000D+00 0.00000000D+00 0.00000000D+00
  <mgrwgt>
 0.1520392550D-02    5    2    0
 0.488826403103743D+03 0.000000000000000D+00 0.000000000000000D+00 0.488826403103743D+03
 0.488826403103743D+03 0.000000000000000D+00 0.000000000000000D+00 -.488826403103743D+03
 0.446147527619972D+03 -.856759271031293D+01 -.297205173767601D+03 -.322763197232836D+03
 0.877358216401851D+02 -.453962396166366D+02 -.367362812383757D+02 0.654767246303772D+02
 0.728676704191135D+02 0.105718968455007D+02 0.343030452262342D+02 0.634131963995159D+02
 0.370901786528216D+03 0.433919354814489D+02 0.299638409779743D+03 0.193873276202943D+03
 0.000000000000000D+00 0.000000000000000D+00 0.000000000000000D+00 -.000000000000000D+00
 0.627346748172331D+03 0.000000000000000D+00 0.000000000000000D+00 0.627346748172331D+03
 0.340045624276090D+04 0.000000000000000D+00 0.000000000000000D+00 -.340045624276090D+04
 0.711390021128130D+03 -.191278233978617D+03 -.599036811827428D+03 -.322763197232836D+03
 0.142627471936722D+03 -.817577599315813D+02 -.968042508039190D+02 0.654767246303772D+02
 0.643935169137627D+02 -.110939917349278D+02 -.148825075334400D+01 0.634131963995159D+02
 0.259509769120892D+03 -.561149010096613D+02 0.135256569467778D+03 0.193873276202943D+03
 0.284988221183372D+04 0.340244886654788D+03 0.562072743916913D+03 -.277310949458857D+04
0.157619695320D-03 0.000000000000D+00 0.000000000000D+00 0.495505654644D-05 0.000000000000D+00  7 -2 1 -24 -11 11 23 21 0 0.62325994D-01 0.90743052D-01 0.12906200D+06 0.12906200D+06 0.12906200D+06 0.11127416D+01  1  2  2  2  7  2        1 0.150091255413D-02 0.100000000000D+01
-.774676002751D-05 0.000000000000D+00 -.605301132249D-06 0.495505654644D-05 0.000000000000D+00  7 -2 1 -24 -11 11 23 21 2 0.62325994D-01 0.90743052D-01 0.12906200D+06 0.12906200D+06 0.12906200D+06 0.11127416D+01  1  2  3  2  7  2        1 -.913384521347D-04 0.100000000000D+01
0.995443489247D-05 0.000000000000D+00 0.000000000000D+00 0.495505654644D-05 0.000000000000D+00  7 -2 1 -24 -11 11 23 21 2 0.62325994D-01 0.90743052D-01 0.12906200D+06 0.12906200D+06 0.12906200D+06 0.11127416D+01  1  2 15  2  7  2        1 0.117368121863D-03 0.100000000000D+01
-.306538930052D-03 0.000000000000D+00 -.861820914345D-04 0.495505654644D-05 0.000000000000D+00  7 -2 1 -24 -11 11 23 21 2 0.62325994D-01 0.64830256D+00 0.12906200D+06 0.12906200D+06 0.12906200D+06 0.11127416D+01  1  2  5  2  7  2        1 -.642822866613D-05 0.100000000000D+01
-.820696660397D-04 0.000000000000D+00 -.206974212965D-04 0.495505654644D-05 0.000000000000D+00  7 -2 21 -24 -11 11 23 -1 2 0.62325994D-01 0.64830256D+00 0.12906200D+06 0.12906200D+06 0.12906200D+06 0.11127416D+01  1  2  5  4  7  2        1 -.121445275869D-06 0.100000000000D+01
  </mgrwgt>
  </event>
  <event>
  8     66 0.26562228E-05 0.23977376E+03 0.75467711E-02 0.93630277E-01
       -2 -1    0    0    0  501 0.00000000E+00 0.00000000E+00 0.44250197E+02 0.44251354E+02 0.32000000E+00 0.0000E+00 0.9000E+01
        1 -1    0    0  501    0 0.00000000E+00 0.00000000E+00 -.18946764E+04 0.18946764E+04 0.32000000E+00 0.0000E+00 0.9000E+01
       25  2    1    2    0    0 -.78656802E+02 -.13181276E+03 -.15972344E+04 0.16321138E+04 0.29845654E+03 0.0000E+00 0.0000E+00
       23  2    3    3    0    0 -.13349278E+03 -.11580822E+03 -.67571754E+03 0.70433599E+03 0.90901748E+02 0.0000E+00 0.0000E+00
      -24  1    1    2    0    0 0.78656802E+02 0.13181276E+03 -.25319177E+03 0.30681392E+03 0.80419002E+02 0.0000E+00 0.9000E+01
      -13  1    4    4    0    0 -.10307858E+02 0.15497644E+02 -.69231812E+02 0.71690193E+02 0.10565837E+00 0.0000E+00 0.9000E+01
       13  1    4    4    0    0 -.12318492E+03 -.13130587E+03 -.60648573E+03 0.63264580E+03 0.10565837E+00 0.0000E+00 0.9000E+01
       23  1    3    3    0    0 0.54835981E+02 -.16004537E+02 -.92151688E+03 0.92777785E+03 0.91188000E+02 0.0000E+00 0.9000E+01
#aMCatNLO 1  0  0  1  1 0.46450292D+03 0.00000000D+00  -5  7  0 0.00000000D+00 0.00000000D+00 0.00000000D+00 0.00000000D+00 0.00000000D+00
  <mgrwgt>
 0.1362401334D-02    5    2    0
 0.289553019439340D+03 0.000000000000000D+00 0.000000000000000D+00 0.289553019439340D+03
 0.289553019439340D+03 0.000000000000000D+00 0.000000000000000D+00 -.289553019439340D+03
 0.218228351767462D+03 0.786568021125192D+02 0.131812759188535D+03 0.132645774743526D+03
 0.188111019089217D+02 -.103077056794510D+02 0.154978423372423D+02 -.272500303552673D+01
 0.180273644020517D+03 -.123185076989159D+03 -.131306064150509D+03 -.909621090968346D+01
 0.161792941181778D+03 0.548359805560913D+02 -.160045373752678D+02 -.120824560798316D+03
 0.000000000000000D+00 0.000000000000000D+00 0.000000000000000D+00 0.000000000000000D+00
 0.113083637514138D+04 0.000000000000000D+00 0.000000000000000D+00 0.113083637514138D+04
 0.442197219136280D+03 0.000000000000000D+00 0.000000000000000D+00 -.442197219136280D+03
 0.163490256519503D+03 -.241807199264059D+02 0.456315597911442D+02 0.132645774743526D+03
 0.224671237817416D+02 -.214283331574808D+02 0.617839360776569D+01 -.272500303552673D+01
 0.374478930614411D+03 -.272639095948806D+03 -.256553409218075D+03 -.909621090968346D+01
 0.181942813822915D+03 -.377687091641630D+02 -.936102893584195D+02 -.120824560798316D+03
 0.830654469539088D+03 0.356016858196855D+03 0.298353745177585D+03 0.688639156005097D+03
0.280668434064D-04 0.000000000000D+00 0.000000000000D+00 0.446933198703D-06 0.000000000000D+00  7 -2 1 -24 -13 13 23 21 0 0.68078137D-02 0.29148877D+00 0.57491457D+05 0.57491457D+05 0.57491457D+05 0.11420000D+01  1  2  2  1  7  1       -2 0.127877470640D-02 0.100000000000D+01
-.149180352006D-05 0.000000000000D+00 -.107784068850D-06 0.446933198703D-06 0.000000000000D+00  7 -2 1 -24 -13 13 23 21 2 0.68078137D-02 0.29148877D+00 0.57491457D+05 0.57491457D+05 0.57491457D+05 0.11420000D+01  1  2  3  1  7  1       -2 -.886429700089D-04 0.100000000000D+01
0.181713586181D-05 0.000000000000D+00 0.000000000000D+00 0.446933198703D-06 0.000000000000D+00  7 -2 1 -24 -13 13 23 21 2 0.68078137D-02 0.29148877D+00 0.57491457D+05 0.57491457D+05 0.57491457D+05 0.11420000D+01  1  2 15  1  7  1       -2 0.107974218812D-03 0.100000000000D+01
0.994201879407D-05 0.000000000000D+00 -.140621884660D-04 0.446933198703D-06 0.000000000000D+00  7 -2 1 -24 -13 13 23 21 2 0.44013677D-01 0.29148877D+00 0.57491457D+05 0.57491457D+05 0.57491457D+05 0.11420000D+01  1  2  5  1  7  1       -2 0.277560343337D-04 0.100000000000D+01
0.116778868735D-05 0.000000000000D+00 -.321506547589D-05 0.446933198703D-06 0.000000000000D+00  7 21 1 -24 -13 13 23 2 2 0.44013677D-01 0.29148877D+00 0.57491457D+05 0.57491457D+05 0.57491457D+05 0.11420000D+01  1  2  5  3  7  1       -2 0.365393441854D-04 0.100000000000D+01
  </mgrwgt>
  </event>
  <event>
  8     66 0.26562228E-05 0.39083729E+03 0.75467711E-02 0.87582015E-01
       -2 -1    0    0    0  501 0.00000000E+00 0.00000000E+00 0.59327863E+03 0.59327872E+03 0.32000000E+00 0.0000E+00 0.9000E+01
        1 -1    0    0  501    0 0.00000000E+00 0.00000000E+00 -.41245141E+03 0.41245154E+03 0.32000000E+00 0.0000E+00 0.9000E+01
       25  2    1    2    0    0 -.14447233E+03 -.33441300E+03 0.35839407E+03 0.59256986E+03 0.29998069E+03 0.0000E+00 0.0000E+00
       23  2    3    3    0    0 -.56074682E+02 -.20596615E+03 0.33838451E+03 0.41083276E+03 0.93343743E+02 0.0000E+00 0.0000E+00
      -24  1    1    2    0    0 0.14447233E+03 0.33441300E+03 -.17756685E+03 0.41316040E+03 0.80419002E+02 0.0000E+00 0.9000E+01
      -13  1    4    4    0    0 -.43329752E+02 -.32783739E+02 0.12073629E+03 0.13239904E+03 0.10565837E+00 0.0000E+00 0.9000E+01
       13  1    4    4    0    0 -.12744931E+02 -.17318241E+03 0.21764822E+03 0.27843372E+03 0.10565837E+00 0.0000E+00 0.9000E+01
       23  1    3    3    0    0 -.88397650E+02 -.12844685E+03 0.20009557E+02 0.18173710E+03 0.91188000E+02 0.0000E+00 0.9000E+01
#aMCatNLO 1  0  0  2  2 0.82344495D+03 0.00000000D+00  -5  7  0 0.00000000D+00 0.00000000D+00 0.00000000D+00 0.00000000D+00 0.00000000D+00
  <mgrwgt>
 0.1350276125D-02    3    2    0
 0.494670308990396D+03 0.000000000000000D+00 0.000000000000000D+00 0.494670308990396D+03
 0.494670308990396D+03 0.000000000000000D+00 0.000000000000000D+00 -.494670308990396D+03
 0.452459771329975D+03 0.144472332593311D+03 0.334413003582935D+03 -.256024055251240D+03
 0.112524584759428D+03 -.433297904651124D+02 -.327835591754524D+02 0.985370472529025D+02
 0.243265726438647D+03 -.127448915628942D+02 -.173182593670776D+03 0.170363055408840D+03
 0.181090535452742D+03 -.883976505653043D+02 -.128446850736707D+03 -.128760474105026D+02
 0.000000000000000D+00 -.000000000000000D+00 0.000000000000000D+00 0.000000000000000D+00
 0.272598050892904D+04 0.000000000000000D+00 0.000000000000000D+00 0.272598050892904D+04
 0.724999090612368D+03 0.000000000000000D+00 0.000000000000000D+00 -.724999090612368D+03
 0.474803649274382D+03 0.379872571038699D+03 0.954976560710148D+02 -.256024055251240D+03
 0.140526281943079D+03 0.209111070370858D+02 -.979837325167213D+02 0.985370472529025D+02
 0.411734617972436D+03 0.153537131247503D+03 -.341947619259090D+03 0.170363055408840D+03
 0.260124807068481D+03 0.236117251173532D+02 -.242128804045449D+03 -.128760474105026D+02
 0.216379024328303D+04 -.577932534440641D+03 0.586562499750245D+03 0.200098141831667D+04
0.198066483436D-03 0.000000000000D+00 0.000000000000D+00 0.311332505390D-05 0.000000000000D+00  7 -2 1 -24 -13 13 23 21 0 0.91273652D-01 0.63454080D-01 0.15275378D+06 0.15275378D+06 0.15275378D+06 0.11069290D+01  1  2  2  2  7  2        1 0.133237620258D-02 0.100000000000D+01
-.102610657211D-04 0.000000000000D+00 -.760627448498D-06 0.311332505390D-05 0.000000000000D+00  7 -2 1 -24 -13 13 23 21 2 0.91273652D-01 0.63454080D-01 0.15275378D+06 0.15275378D+06 0.15275378D+06 0.11069290D+01  1  2  3  2  7  2        1 -.845761368391D-04 0.100000000000D+01
0.124327454068D-04 0.000000000000D+00 0.000000000000D+00 0.311332505390D-05 0.000000000000D+00  7 -2 1 -24 -13 13 23 21 2 0.91273652D-01 0.63454080D-01 0.15275378D+06 0.15275378D+06 0.15275378D+06 0.11069290D+01  1  2 15  2  7  2        1 0.102476059056D-03 0.100000000000D+01
  </mgrwgt>
  </event>
  <event>
  8     66 0.26562228E-05 0.17962047E+03 0.75467711E-02 0.89606836E-01
       -2 -1    0    0    0  501 0.00000000E+00 0.00000000E+00 0.20210697E+03 0.20210722E+03 0.32000000E+00 0.0000E+00 0.9000E+01
        1 -1    0    0  501    0 0.00000000E+00 0.00000000E+00 -.51169661E+03 0.51169671E+03 0.32000000E+00 0.0000E+00 0.9000E+01
       25  2    1    2    0    0 -.21289856E+02 0.11267436E+02 0.82999800E+02 0.31233924E+03 0.30014433E+03 0.0000E+00 0.0000E+00
       23  2    3    3    0    0 -.35176122E+02 0.11674437E+03 0.67435114E+01 0.15281343E+03 0.91868720E+02 0.0000E+00 0.0000E+00
      -24  1    1    2    0    0 0.21289856E+02 -.11267436E+02 -.39258944E+03 0.40146469E+03 0.80419002E+02 0.0000E+00 0.9000E+01
      -11  1    4    4    0    0 -.48732730E+02 0.62465849E+02 -.31270598E+02 0.85174594E+02 0.51099893E-03 0.0000E+00 0.9000E+01
       11  1    4    4    0    0 0.13556608E+02 0.54278519E+02 0.38014109E+02 0.67638833E+02 0.51099893E-03 0.0000E+00 0.9000E+01
       23  1    3    3    0    0 0.13886266E+02 -.10547693E+03 0.76256288E+02 0.15952581E+03 0.91188000E+02 0.0000E+00 0.9000E+01
#aMCatNLO 1  0  0  2  2 0.75732146D+03 0.00000000D+00  -5  7  0 0.00000000D+00 0.00000000D+00 0.00000000D+00 0.00000000D+00 0.00000000D+00
  <mgrwgt>
 0.1043148615D-02    5    2    0
 0.321586032320555D+03 0.000000000000000D+00 0.000000000000000D+00 0.321586032320555D+03
 0.321586032320555D+03 0.000000000000000D+00 0.000000000000000D+00 -.321586032320555D+03
 0.256580562664505D+03 0.212898560797898D+02 -.112674359002807D+02 -.242458565736908D+03
 0.794762548738663D+02 -.487327299280540D+02 0.624658486245216D+02 0.629395568410271D+01
 0.933648131816215D+02 0.135566082562620D+02 0.542785192826820D+02 0.747465655231385D+02
 0.213750433921118D+03 0.138862655920022D+02 -.105476932006923D+03 0.161418044529667D+03
 0.000000000000000D+00 -.000000000000000D+00 0.000000000000000D+00 -.000000000000000D+00
 0.796890485014410D+03 0.000000000000000D+00 0.000000000000000D+00 0.796890485014410D+03
 0.974579638681424D+03 0.000000000000000D+00 0.000000000000000D+00 -.974579638681424D+03
 0.413616503716466D+03 0.727976662048582D+02 -.317057944054695D+03 -.242458565736908D+03
 0.407145118233365D+02 -.394955018046071D+02 0.762646261784806D+01 0.629395568410271D+01
 0.838588850623047D+02 0.271770865554338D+02 -.265832562479927D+02 0.747465655231385D+02
 0.455392554293184D+03 0.653130648311846D+02 -.410786496399585D+03 0.161418044529667D+03
 0.777887668800543D+03 -.125792315786869D+03 0.746801234084425D+03 -.177689153667014D+03
0.214689808391D-04 0.000000000000D+00 0.000000000000D+00 0.435837273481D-05 0.000000000000D+00  7 -2 1 -24 -11 11 23 21 0 0.31093407D-01 0.78722583D-01 0.32263512D+05 0.32263512D+05 0.32263512D+05 0.11644162D+01  1  2  2  2  7  2        1 0.957187231106D-03 0.100000000000D+01
-.700804534165D-06 0.000000000000D+00 -.824465393345D-07 0.435837273481D-05 0.000000000000D+00  7 -2 1 -24 -11 11 23 21 2 0.31093407D-01 0.78722583D-01 0.32263512D+05 0.32263512D+05 0.32263512D+05 0.11644162D+01  1  2  3  2  7  2        1 -.423641851518D-04 0.100000000000D+01
0.135372105254D-05 0.000000000000D+00 0.000000000000D+00 0.435837273481D-05 0.000000000000D+00  7 -2 1 -24 -11 11 23 21 2 0.31093407D-01 0.78722583D-01 0.32263512D+05 0.32263512D+05 0.32263512D+05 0.11644162D+01  1  2 15  2  7  2        1 0.818335020936D-04 0.100000000000D+01
0.235257433876D-04 0.000000000000D+00 -.928801848488D-05 0.435837273481D-05 0.000000000000D+00  7 -2 1 -24 -11 11 23 21 2 0.31093407D-01 0.40384288D+00 0.32263512D+05 0.32263512D+05 0.32263512D+05 0.11644162D+01  1  2  5  2  7  2        1 0.436534838691D-04 0.100000000000D+01
0.438533362579D-05 0.000000000000D+00 -.185351445539D-05 0.435837273481D-05 0.000000000000D+00  7 -2 21 -24 -11 11 23 -1 2 0.31093407D-01 0.40384288D+00 0.32263512D+05 0.32263512D+05 0.32263512D+05 0.11644162D+01  1  2  5  4  7  2        1 0.283858262594D-05 0.100000000000D+01
  </mgrwgt>
  </event>
  <event>
  8     66 0.26562228E-05 0.29167897E+03 0.75467711E-02 0.99262180E-01
       -2 -1    0    0    0  501 0.00000000E+00 0.00000000E+00 0.27429769E+03 0.27429788E+03 0.32000000E+00 0.0000E+00 0.9000E+01
        1 -1    0    0  501    0 0.00000000E+00 0.00000000E+00 -.45642979E+03 0.45642991E+03 0.32000000E+00 0.0000E+00 0.9000E+01
       25  2    1    2    0    0 -.74870312E+02 0.27255668E+03 -.83821938E+02 0.42084908E+03 0.30032503E+03 0.0000E+00 0.0000E+00
       23  2    3    3    0    0 -.12880037E+03 0.18294358E+03 -.12821390E+03 0.27516155E+03 0.96006172E+02 0.0000E+00 0.0000E+00
      -24  1    1    2    0    0 0.74870312E+02 -.27255668E+03 -.98310164E+02 0.30987870E+03 0.80419002E+02 0.0000E+00 0.9000E+01
      -13  1    4    4    0    0 0.58406557E+01 0.60029976E+02 -.42000344E+02 0.73496608E+02 0.10565837E+00 0.0000E+00 0.9000E+01
       13  1    4    4    0    0 -.13464103E+03 0.12291361E+03 -.86213554E+02 0.20166494E+03 0.10565837E+00 0.0000E+00 0.9000E+01
       23  1    3    3    0    0 0.53930063E+02 0.89613095E+02 0.44391960E+02 0.14568753E+03 0.91188000E+02 0.0000E+00 0.9000E+01
#aMCatNLO 1  0  0  2  1 0.21705399D+01 0.00000000D+00  -5  7  0 0.00000000D+00 0.00000000D+00 0.00000000D+00 0.00000000D+00 0.00000000D+00
  <mgrwgt>
 0.9010859061D-03   10    2    0
 0.353832938251140D+03 0.000000000000000D+00 0.000000000000000D+00 0.353832938251140D+03
 0.353832938251140D+03 0.000000000000000D+00 0.000000000000000D+00 -.353832938251140D+03
 0.294675141090798D+03 0.748703118855583D+02 -.272556678913934D+03 -.217604227917802D+02
 0.650819804776083D+02 0.584082041350739D+01 0.600298976403397D+02 -.244532286022782D+02
 0.186048289547383D+03 -.134641197635990D+03 0.122913684788759D+03 -.371206146811038D+02
 0.161860465386490D+03 0.539300653369240D+02 0.896130964848355D+02 0.833342660751622D+02
 0.000000000000000D+00 0.000000000000000D+00 -.000000000000000D+00 -.000000000000000D+00
 0.354451209473009D+03 0.000000000000000D+00 0.000000000000000D+00 0.354451209473009D+03
 0.355744751340484D+03 0.000000000000000D+00 0.000000000000000D+00 -.355744751340484D+03
 0.293903597338148D+03 0.742629300768726D+02 -.271888965922220D+03 -.217604227917802D+02
 0.652064338749713D+02 0.570636973156211D+01 0.601777032970055D+02 -.244532286022782D+02
 0.186605929825893D+03 -.135025756878448D+03 0.123336442267829D+03 -.371206146811038D+02
 0.161953244175566D+03 0.535959068909088D+02 0.899804468606694D+02 0.833342660751622D+02
 0.252675559891357D+01 0.146055017910456D+01 -.160562650328396D+01 -.129354186747506D+01
0.140040881518D-04 0.000000000000D+00 0.000000000000D+00 0.235812505485D-06 0.000000000000D+00  7 -2 1 -24 -13 13 23 21 0 0.42199668D-01 0.70219991D-01 0.11399098D+06 0.11399098D+06 0.11399098D+06 0.11170848D+01  1  2  2  2  7  2        1 0.413670091091D-03 0.100000000000D+01
-.775925300520D-06 0.000000000000D+00 -.537793858639D-07 0.235812505485D-06 0.000000000000D+00  7 -2 1 -24 -13 13 23 21 2 0.42199668D-01 0.70219991D-01 0.11399098D+06 0.11399098D+06 0.11399098D+06 0.11170848D+01  1  2  3  2  7  2        1 -.286016773962D-04 0.100000000000D+01
0.892120950504D-06 0.000000000000D+00 0.000000000000D+00 0.235812505485D-06 0.000000000000D+00  7 -2 1 -24 -13 13 23 21 2 0.42199668D-01 0.70219991D-01 0.11399098D+06 0.11399098D+06 0.11399098D+06 0.11170848D+01  1  2 15  2  7  2        1 0.328848094109D-04 0.100000000000D+01
-.628240685310D-03 0.000000000000D+00 0.000000000000D+00 0.235812505485D-06 0.000000000000D+00  7 -2 1 -24 -13 13 23 21 2 0.42199668D-01 0.70219991D-01 0.11399098D+06 0.11399098D+06 0.11399098D+06 0.11170848D+01  1  2  4  2  7  2        1 -.231578186668D-01 0.100000000000D+01
-.310317657827D-02 0.000000000000D+00 -.275629104970D-03 0.235812505485D-06 0.000000000000D+00  7 -2 1 -24 -13 13 23 21 2 0.42199668D-01 0.70694207D-01 0.11399098D+06 0.11399098D+06 0.11399098D+06 0.11170848D+01  1  2  5  2  7  2        1 -.113341938501D+00 0.100000000000D+01
0.310496763928D-02 0.000000000000D+00 0.275622861969D-03 0.235812505485D-06 0.000000000000D+00  7 -2 1 -24 -13 13 23 21 2 0.42199668D-01 0.70219991D-01 0.11399098D+06 0.11399098D+06 0.11399098D+06 0.11170848D+01  1  2  6  2  7  2        1 0.114453392208D+00 0.100000000000D+01
0.628255661656D-03 0.000000000000D+00 0.000000000000D+00 0.235812505485D-06 0.332992194789D-06  7 -2 1 -24 -13 13 23 21 2 0.42273406D-01 0.70599401D-01 0.11473782D+06 0.11473782D+06 0.11473782D+06 0.11168551D+01  1  2 11  2  7  2        1 0.229015260679D-01 0.100000000000D+01
0.154029427015D-08 0.000000000000D+00 0.000000000000D+00 0.235812505485D-06 0.000000000000D+00  7 -2 21 -24 -13 13 23 -1 2 0.42199668D-01 0.70660530D-01 0.11473782D+06 0.11473782D+06 0.11473782D+06 0.11168551D+01  1  2 12  4  7  2        1 0.183426923340D-06 0.100000000000D+01
-.387228061483D-05 0.000000000000D+00 -.344354557642D-06 0.235812505485D-06 0.000000000000D+00  7 -2 21 -24 -13 13 23 -1 2 0.42199668D-01 0.70694207D-01 0.11399098D+06 0.11399098D+06 0.11399098D+06 0.11170848D+01  1  2  5  4  7  2        1 -.460960302168D-03 0.100000000000D+01
0.746205437774D-06 0.000000000000D+00 0.000000000000D+00 0.235812505485D-06 0.333928843131D-09  7 -2 21 -24 -13 13 23 -1 2 0.42273406D-01 0.70599401D-01 0.11473782D+06 0.11473782D+06 0.11473782D+06 0.11168551D+01  1  2 11  4  7  2        1 0.887484504396D-04 0.100000000000D+01
  </mgrwgt>
  </event>
  <event>
  8     66 0.26562228E-05 0.25398480E+03 0.75467711E-02 0.88449301E-01
       -2 -1    0    0    0  501 0.00000000E+00 0.00000000E+00 0.13403172E+04 0.13403172E+04 0.32000000E+00 0.0000E+00 0.9000E+01
        1 -1    0    0  501    0 0.00000000E+00 0.00000000E+00 -.90762073E+02 0.90762637E+02 0.32000000E+00 0.0000E+00 0.9000E+01
       25  2    1    2    0    0 0.14967828E+03 0.88531524E+02 0.11751409E+04 0.12255413E+04 0.30125384E+03 0.0000E+00 0.0000E+00
       23  2    3    3    0    0 0.14437423E+03 0.13750385E+03 0.98334934E+03 0.10075374E+04 0.91676259E+02 0.0000E+00 0.0000E+00
      -24  1    1    2    0    0 -.14967828E+03 -.88531524E+02 0.74414216E+02 0.20553858E+03 0.80419002E+02 0.0000E+00 0.9000E+01
      -11  1    4    4    0    0 0.43059511E+02 0.14294914E+01 0.11576895E+03 0.12352577E+03 0.51099893E-03 0.0000E+00 0.9000E+01
       11  1    4    4    0    0 0.10131472E+03 0.13607436E+03 0.86758039E+03 0.88401167E+03 0.51099893E-03 0.0000E+00 0.9000E+01
       23  1    3    3    0    0 0.53040512E+01 -.48972326E+02 0.19179156E+03 0.21800384E+03 0.91188000E+02 0.0000E+00 0.9000E+01
#aMCatNLO 1  0  0  2  1 0.82916037D+03 0.00000000D+00  -5  7  0 0.00000000D+00 0.00000000D+00 0.00000000D+00 0.00000000D+00 0.00000000D+00
  <mgrwgt>
 0.1217455600D-02    3    2    0
 0.348784169958470D+03 0.000000000000000D+00 0.000000000000000D+00 0.348784169958470D+03
 0.348784169958470D+03 0.000000000000000D+00 0.000000000000000D+00 -.348784169958470D+03
 0.288369544371106D+03 -.149678279265935D+03 -.885315238604481D+02 -.215518816267547D+03
 0.460392916689896D+02 0.430595114566750D+02 0.142949144484252D+01 0.162311861767370D+02
 0.259475347511105D+03 0.101314716628837D+03 0.136074358559335D+03 0.196332761155883D+03
 0.103684156365739D+03 0.530405118042363D+01 -.489723261437290D+02 0.295486893492652D+01
 0.000000000000000D+00 -.000000000000000D+00 0.000000000000000D+00 0.000000000000000D+00
 0.972688726682895D+03 0.000000000000000D+00 0.000000000000000D+00 0.972688726682895D+03
 0.940653151177015D+03 0.000000000000000D+00 0.000000000000000D+00 -.940653151177015D+03
 0.396318191087169D+03 0.759572481035866D+02 -.313660690758980D+03 -.215518816267547D+03
 0.106546748643075D+03 0.933435020878141D+02 -.487416542567942D+02 0.162311861767370D+02
 0.374062942672282D+03 0.310094192017914D+03 -.722365839053244D+02 0.196332761155883D+03
 0.206634992666831D+03 0.107568223910142D+03 -.151007002502586D+03 0.295486893492652D+01
 0.829779002790554D+03 -.586963166119457D+03 0.585645931423685D+03 0.320355755058801D+02
0.211774820176D-03 0.000000000000D+00 0.000000000000D+00 0.111497596856D-05 0.000000000000D+00  7 -2 1 -24 -11 11 23 21 0 0.20620269D+00 0.13963442D-01 0.64508279D+05 0.64508279D+05 0.64508279D+05 0.11376884D+01  1  2  2  2  7  2        1 0.119742679341D-02 0.100000000000D+01
-.103261649203D-04 0.000000000000D+00 -.813271071065D-06 0.111497596856D-05 0.000000000000D+00  7 -2 1 -24 -11 11 23 21 2 0.20620269D+00 0.13963442D-01 0.64508279D+05 0.64508279D+05 0.64508279D+05 0.11376884D+01  1  2  3  2  7  2        1 -.755719037342D-04 0.100000000000D+01
0.130629063759D-04 0.000000000000D+00 0.000000000000D+00 0.111497596856D-05 0.000000000000D+00  7 -2 1 -24 -11 11 23 21 2 0.20620269D+00 0.13963442D-01 0.64508279D+05 0.64508279D+05 0.64508279D+05 0.11376884D+01  1  2 15  2  7  2        1 0.956007105007D-04 0.100000000000D+01
  </mgrwgt>
  </event>
  <event>
  8     66 0.26562228E-05 0.19692778E+03 0.75467711E-02 0.10266804E+00
       -2 -1    0    0    0  501 0.00000000E+00 0.00000000E+00 0.51083455E+02 0.51084457E+02 0.32000000E+00 0.0000E+00 0.9000E+01
        1 -1    0    0  501    0 0.00000000E+00 0.00000000E+00 -.19756268E+04 0.19756268E+04 0.32000000E+00 0.0000E+00 0.9000E+01
       25  2    1    2    0    0 0.10137606E+03 -.11018449E+03 -.17544921E+04 0.17862901E+04 0.30028627E+03 0.0000E+00 0.0000E+00
       23  2    3    3    0    0 -.15313144E+02 -.17483229E+01 -.11711152E+04 0.11747194E+04 0.90649548E+02 0.0000E+00 0.0000E+00
      -24  1    1    2    0    0 -.10137606E+03 0.11018449E+03 -.17005121E+03 0.24042121E+03 0.80419002E+02 0.0000E+00 0.9000E+01
      -11  1    4    4    0    0 -.21997609E+02 0.12004642E+02 -.11376517E+04 0.11379276E+04 0.51099893E-03 0.0000E+00 0.9000E+01
       11  1    4    4    0    0 0.66844657E+01 -.13752965E+02 -.33463501E+02 0.36791738E+02 0.51099893E-03 0.0000E+00 0.9000E+01
       23  1    3    3    0    0 0.11668920E+03 -.10843617E+03 -.58337695E+03 0.61157068E+03 0.91188000E+02 0.0000E+00 0.9000E+01
#aMCatNLO 1  0  0  1  1 0.11035654D+03 0.00000000D+00  -5  7  0 0.00000000D+00 0.00000000D+00 0.00000000D+00 0.00000000D+00 0.00000000D+00
  <mgrwgt>
 0.1411766183D-02    4    2    0
 0.317683622812353D+03 0.000000000000000D+00 0.000000000000000D+00 0.317683622812353D+03
 0.317683622812353D+03 0.000000000000000D+00 0.000000000000000D+00 -.317683622812353D+03
 0.251812560676534D+03 -.101376059789393D+03 0.110184494360390D+03 0.185808023142772D+03
 0.183816289723256D+03 -.219976093906297D+02 0.120046418085185D+02 -.182100033288768D+03
 0.159974775968423D+02 0.668446567970329D+01 -.137529646766277D+02 0.470033729021333D+01
 0.183740917628074D+03 0.116689203500320D+03 -.108436171492281D+03 -.840832714421742D+01
 0.000000000000000D+00 0.000000000000000D+00 0.000000000000000D+00 -.000000000000000D+00
 0.365997056721605D+03 0.000000000000000D+00 0.000000000000000D+00 0.365997056721605D+03
 0.392339958961958D+03 0.000000000000000D+00 0.000000000000000D+00 -.392339958961958D+03
 0.244201059737316D+03 -.116997329307982D+03 0.703842673687266D+02 0.185808023142772D+03
 0.186023382722740D+03 -.336452032553404D+02 -.176713636640564D+02 -.182100033288768D+03
 0.180364056201747D+02 0.561261514855538D+01 -.164838499219055D+02 0.470033729021333D+01
 0.196619065099598D+03 0.104710286874367D+03 -.138956328657473D+03 -.840832714421742D+01
 0.113457102503735D+03 0.403196305403999D+02 0.102727274874708D+03 -.263429022403529D+02
0.656953651501D-04 0.000000000000D+00 0.000000000000D+00 0.487048513879D-05 0.000000000000D+00  7 -2 1 -24 -11 11 23 21 0 0.78590722D-02 0.30394266D+00 0.38780552D+05 0.38780552D+05 0.38780552D+05 0.11571306D+01  1  2  2  1  7  1       -2 0.215609709127D-02 0.100000000000D+01
-.263490333421D-05 0.000000000000D+00 -.252287500163D-06 0.487048513879D-05 0.000000000000D+00  7 -2 1 -24 -11 11 23 21 2 0.78590722D-02 0.30394266D+00 0.38780552D+05 0.38780552D+05 0.38780552D+05 0.11571306D+01  1  2  3  1  7  1       -2 -.115787867255D-03 0.100000000000D+01
0.400078172436D-05 0.000000000000D+00 0.000000000000D+00 0.487048513879D-05 0.000000000000D+00  7 -2 1 -24 -11 11 23 21 2 0.78590722D-02 0.30394266D+00 0.38780552D+05 0.38780552D+05 0.38780552D+05 0.11571306D+01  1  2 15  1  7  1       -2 0.175809858829D-03 0.100000000000D+01
-.183040951345D-04 0.000000000000D+00 0.000000000000D+00 0.487048513879D-05 0.000000000000D+00  7 -2 1 -24 -11 11 23 21 2 0.78590722D-02 0.30394266D+00 0.38780552D+05 0.38780552D+05 0.38780552D+05 0.11571306D+01  1  2  4  1  7  1       -2 -.804352899833D-03 0.100000000000D+01
  </mgrwgt>
  </event>
  <event>
  8     66 0.26562228E-05 0.30919744E+03 0.75467711E-02 0.96646910E-01
       -2 -1    0    0    0  501 0.00000000E+00 0.00000000E+00 0.13890505E+03 0.13890541E+03 0.32000000E+00 0.0000E+00 0.9000E+01
        1 -1    0    0  501    0 0.00000000E+00 0.00000000E+00 -.10572018E+04 0.10572019E+04 0.32000000E+00 0.0000E+00 0.9000E+01
       25  2    1    2    0    0 -.25363952E+03 0.15522418E+02 -.82490815E+03 0.91368456E+03 0.29961987E+03 0.0000E+00 0.0000E+00
       23  2    3    3    0    0 -.81184852E+02 -.90365327E+02 -.19546452E+03 0.24625115E+03 0.87614929E+02 0.0000E+00 0.0000E+00
      -24  1    1    2    0    0 0.25363952E+03 -.15522418E+02 -.93388635E+02 0.28242274E+03 0.80419002E+02 0.0000E+00 0.9000E+01
      -11  1    4    4    0    0 -.33642572E+02 -.70986554E+02 -.52854033E+02 0.94680844E+02 0.51099893E-03 0.0000E+00 0.9000E+01
       11  1    4    4    0    0 -.47542280E+02 -.19378773E+02 -.14261049E+03 0.15157030E+03 0.51099893E-03 0.0000E+00 0.9000E+01
       23  1    3    3    0    0 -.17245466E+03 0.10588774E+03 -.62944363E+03 0.66743342E+03 0.91188000E+02 0.0000E+00 0.9000E+01
#aMCatNLO 1  0  0  1  2 0.19442769D+03 0.00000000D+00  -5  7  0 0.00000000D+00 0.00000000D+00 0.00000000D+00 0.00000000D+00 0.00000000D+00
  <mgrwgt>
 0.1363682466D-02    4    2    0
 0.383211324899851D+03 0.000000000000000D+00 0.000000000000000D+00 0.383211324899851D+03
 0.383211324899851D+03 0.000000000000000D+00 0.000000000000000D+00 -.383211324899851D+03
 0.328864776767124D+03 0.253639515648953D+03 -.155224175348934D+02 0.192641833719876D+03
 0.844348221592539D+02 -.336425720224461D+02 -.709865536232907D+02 0.309568368130053D+02
 0.656760233810699D+02 -.475422800502950D+02 -.193787730935185D+02 -.409577197627026D+02
 0.287447027492255D+03 -.172454663576212D+03 0.105887744251703D+03 -.182640950770179D+03
 0.000000000000000D+00 0.000000000000000D+00 -.000000000000000D+00 -.000000000000000D+00
 0.455023939454789D+03 0.000000000000000D+00 0.000000000000000D+00 0.455023939454789D+03
 0.553718713390386D+03 0.000000000000000D+00 0.000000000000000D+00 -.553718713390386D+03
 0.284170441655529D+03 0.190747356096641D+03 0.281103895297251D+02 0.192641833719876D+03
 0.838565717705078D+02 -.509078267423052D+02 -.590084066893076D+02 0.309568368130053D+02
 0.748634495746768D+02 -.619604255187937D+02 -.937587028441182D+01 -.409577197627026D+02
 0.347809104869031D+03 -.237626498460102D+03 0.151102125786347D+03 -.182640950770179D+03
 0.218043084975430D+03 0.159747394624560D+03 -.110828238342353D+03 -.986947739355969D+02
0.613501006990D-04 0.000000000000D+00 0.000000000000D+00 0.600115855675D-06 0.000000000000D+00  7 -2 1 -24 -11 11 23 21 0 0.21370039D-01 0.16264647D+00 0.95603056D+05 0.95603056D+05 0.95603056D+05 0.11233281D+01  1  2  2  1  7  1       -2 0.167921519416D-02 0.100000000000D+01
-.321748095843D-05 0.000000000000D+00 -.235600540537D-06 0.600115855675D-06 0.000000000000D+00  7 -2 1 -24 -11 11 23 21 2 0.21370039D-01 0.16264647D+00 0.95603056D+05 0.95603056D+05 0.95603056D+05 0.11233281D+01  1  2  3  1  7  1       -2 -.111127181575D-03 0.100000000000D+01
0.394380947863D-05 0.000000000000D+00 0.000000000000D+00 0.600115855675D-06 0.000000000000D+00  7 -2 1 -24 -11 11 23 21 2 0.21370039D-01 0.16264647D+00 0.95603056D+05 0.95603056D+05 0.95603056D+05 0.11233281D+01  1  2 15  1  7  1       -2 0.136213527816D-03 0.100000000000D+01
-.986199209086D-05 0.000000000000D+00 0.000000000000D+00 0.600115855675D-06 0.000000000000D+00  7 -2 1 -24 -11 11 23 21 2 0.21370039D-01 0.16264647D+00 0.95603056D+05 0.95603056D+05 0.95603056D+05 0.11233281D+01  1  2  4  1  7  1       -2 -.340619074341D-03 0.100000000000D+01
  </mgrwgt>
  </event>
  <event>
  8     66 0.26562228E-05 0.51865595E+03 0.75467711E-02 0.87600449E-01
       -2 -1    0    0    0  501 0.00000000E+00 0.00000000E+00 0.25227261E+03 0.25227281E+03 0.32000000E+00 0.0000E+00 0.9000E+01
        1 -1    0    0  501    0 0.00000000E+00 0.00000000E+00 -.58870849E+04 0.58870849E+04 0.32000000E+00 0.0000E+00 0.9000E+01
       25  2    1    2    0    0 -.68405977E+03 0.63219134E+03 -.47580221E+04 0.48576277E+04 0.30028075E+03 0.0000E+00 0.0000E+00
       23  2    3    3    0    0 -.53605569E+03 0.47547024E+03 -.39539688E+04 0.40202009E+04 0.12131740E+03 0.0000E+00 0.0000E+00
      -24  1    1    2    0    0 0.68405977E+03 -.63219134E+03 -.87679017E+03 0.12817300E+04 0.80419002E+02 0.0000E+00 0.9000E+01
      -11  1    4    4    0    0 -.46300826E+03 0.36982268E+03 -.30359921E+04 0.30932820E+04 0.51099893E-03 0.0000E+00 0.9000E+01
       11  1    4    4    0    0 -.73047432E+02 0.10564756E+03 -.91797674E+03 0.92691889E+03 0.51099893E-03 0.0000E+00 0.9000E+01
       23  1    3    3    0    0 -.14800408E+03 0.15672110E+03 -.80405330E+03 0.83742681E+03 0.91188000E+02 0.0000E+00 0.9000E+01
#aMCatNLO 1  0  0  1  2 0.64054119D+02 0.00000000D+00  -5  7  0 0.00000000D+00 0.00000000D+00 0.00000000D+00 0.00000000D+00 0.00000000D+00
  <mgrwgt>
 0.6164532730D-05    9    2    0
 0.121866767082373D+04 0.000000000000000D+00 0.000000000000000D+00 0.121866767082373D+04
 0.121866767082373D+04 0.000000000000000D+00 0.000000000000000D+00 -.121866767082373D+04
 0.120149701137903D+04 0.684059765916129D+03 -.632191343178853D+03 0.754668267958081D+03
 0.772777971163303D+03 -.463008258614524D+03 0.369822684574567D+03 -.496024522724509D+03
 0.212551801498064D+03 -.730474316812591D+02 0.105647555019240D+03 -.169354466027031D+03
 0.250508557607062D+03 -.148004075620346D+03 0.156721103585045D+03 -.892892792065402D+02
 0.000000000000000D+00 -.000000000000000D+00 0.000000000000000D+00 0.000000000000000D+00
 0.132570707796137D+04 0.000000000000000D+00 0.000000000000000D+00 0.132570707796137D+04
 0.122870901422875D+04 0.000000000000000D+00 0.000000000000000D+00 -.122870901422875D+04
 0.122635491533450D+04 0.708622117736802D+03 -.652540927453665D+03 0.754668267958081D+03
 0.757474174433101D+03 -.447526840180017D+03 0.356996533747207D+03 -.496024522724509D+03
 0.209375582937441D+03 -.687788316298097D+02 0.102111076219627D+03 -.169354466027031D+03
 0.244972207208807D+03 -.142991342870100D+03 0.152568120666594D+03 -.892892792065402D+02
 0.116239212276263D+03 -.493251030568749D+02 0.408651968202370D+02 0.969980637326231D+02
0.558774642122D-01 0.000000000000D+00 0.000000000000D+00 0.138522986155D-06 0.000000000000D+00  7 -2 1 -24 -11 11 23 21 0 0.38811186D-01 0.90570538D+00 0.89301581D+06 0.89301581D+06 0.89301581D+06 0.10511508D+01  1  2  2  1  7  1       -2 0.440398120097D-05 0.100000000000D+01
-.286015540361D-02 0.000000000000D+00 -.214584175449D-03 0.138522986155D-06 0.000000000000D+00  7 -2 1 -24 -11 11 23 21 2 0.38811186D-01 0.90570538D+00 0.89301581D+06 0.89301581D+06 0.89301581D+06 0.10511508D+01  1  2  3  1  7  1       -2 -.249074052211D-06 0.100000000000D+01
0.354640848859D-02 0.000000000000D+00 0.000000000000D+00 0.138522986155D-06 0.000000000000D+00  7 -2 1 -24 -11 11 23 21 2 0.38811186D-01 0.90570538D+00 0.89301581D+06 0.89301581D+06 0.89301581D+06 0.10511508D+01  1  2 15  1  7  1       -2 0.308835782816D-06 0.100000000000D+01
0.297619026721D+00 0.000000000000D+00 0.000000000000D+00 0.138522986155D-06 0.000000000000D+00  7 -2 1 -24 -11 11 23 21 2 0.42371519D-01 0.90570538D+00 0.95493771D+06 0.95493771D+06 0.95493771D+06 0.10491996D+01  1  2 12  1  7  1       -2 0.216288803696D-04 0.100000000000D+01
-.302989576055D+00 0.000000000000D+00 0.000000000000D+00 0.138522986155D-06 0.000000000000D+00  7 -2 1 -24 -11 11 23 21 2 0.38811186D-01 0.90570538D+00 0.89301581D+06 0.89301581D+06 0.89301581D+06 0.10511508D+01  1  2  4  1  7  1       -2 -.263855738015D-04 0.100000000000D+01
-.430283611031D+00 0.000000000000D+00 -.519133705762D-01 0.138522986155D-06 0.000000000000D+00  7 -2 1 -24 -11 11 23 21 2 0.44852211D-01 0.90570538D+00 0.89301581D+06 0.89301581D+06 0.89301581D+06 0.10511508D+01  1  2  5  1  7  1       -2 -.283770231272D-04 0.100000000000D+01
0.433785143460D+00 0.000000000000D+00 0.513748516177D-01 0.138522986155D-06 0.000000000000D+00  7 -2 1 -24 -11 11 23 21 2 0.38811186D-01 0.90570538D+00 0.89301581D+06 0.89301581D+06 0.89301581D+06 0.10511508D+01  1  2  6  1  7  1       -2 0.377757877542D-04 0.100000000000D+01
0.439092675453D-02 0.000000000000D+00 0.000000000000D+00 0.138522986155D-06 0.000000000000D+00  7 21 1 -24 -11 11 23 2 2 0.42371519D-01 0.90570538D+00 0.95493771D+06 0.95493771D+06 0.95493771D+06 0.10491996D+01  1  2 12  3  7  1       -2 0.333568896749D-05 0.100000000000D+01
-.919311203237D-02 0.000000000000D+00 -.114986818205D-02 0.138522986155D-06 0.000000000000D+00  7 21 1 -24 -11 11 23 2 2 0.44852211D-01 0.90570538D+00 0.89301581D+06 0.89301581D+06 0.89301581D+06 0.10511508D+01  1  2  5  3  7  1       -2 -.627697036417D-05 0.100000000000D+01
  </mgrwgt>
  </event>
  <event>
  8     66 0.26562228E-05 0.19947210E+03 0.75467711E-02 0.89715081E-01
       -2 -1    0    0    0  501 0.00000000E+00 0.00000000E+00 0.27978606E+03 0.27978624E+03 0.32000000E+00 0.0000E+00 0.9000E+01
        1 -1    0    0  501    0 0.00000000E+00 0.00000000E+00 -.24473631E+03 0.24473652E+03 0.32000000E+00 0.0000E+00 0.9000E+01
       25  2    1    2    0    0 -.19742758E+02 -.15898636E+03 0.55603555E+02 0.34408963E+03 0.29939852E+03 0.0000E+00 0.0000E+00
       23  2    3    3    0    0 0.15245313E+01 -.11171154E+03 0.14633866E+03 0.20539818E+03 0.91058301E+02 0.0000E+00 0.0000E+00
      -24  1    1    2    0    0 0.19742758E+02 0.15898636E+03 -.20553800E+02 0.18043313E+03 0.80419002E+02 0.0000E+00 0.9000E+01
      -11  1    4    4    0    0 0.93096968E+01 -.14253516E+02 -.10919763E+02 0.20225587E+02 0.51099893E-03 0.0000E+00 0.9000E+01
       11  1    4    4    0    0 -.77851655E+01 -.97458028E+02 0.15725843E+03 0.18517259E+03 0.51099893E-03 0.0000E+00 0.9000E+01
       23  1    3    3    0    0 -.21267290E+02 -.47274820E+02 -.90735110E+02 0.13869145E+03 0.91188000E+02 0.0000E+00 0.9000E+01
#aMCatNLO 1  0  0  1  2 0.73153031D+03 0.00000000D+00  -5  7  0 0.00000000D+00 0.00000000D+00 0.00000000D+00 0.00000000D+00 0.00000000D+00
  <mgrwgt>
 0.1314983464D-02    3    2    0
 0.261675199303116D+03 0.000000000000000D+00 0.000000000000000D+00 0.261675199303116D+03
 0.261675199303116D+03 0.000000000000000D+00 0.000000000000000D+00 -.261675199303116D+03
 0.182213847589834D+03 0.197427583593336D+02 0.158986363760978D+03 -.326837869523654D+02
 0.210022117695466D+02 0.930969676117723D+01 -.142535158855003D+02 -.122987694640399D+02
 0.175055507926819D+03 -.778516546824063D+01 -.974580282648257D+02 0.145209348118092D+03
 0.145078831320033D+03 -.212672896522703D+02 -.472748196106519D+02 -.100226791701687D+03
 0.000000000000000D+00 -.000000000000000D+00 0.000000000000000D+00 -.000000000000000D+00
 0.680370800716601D+03 0.000000000000000D+00 0.000000000000000D+00 0.680370800716601D+03
 0.102978797885808D+04 0.000000000000000D+00 0.000000000000000D+00 -.102978797885808D+04
 0.176768901044769D+03 0.151156304680569D+03 0.293865623707846D+02 -.326837869523654D+02
 0.593506290150644D+02 0.387246249287686D+02 -.432624647735239D+02 -.122987694640399D+02
 0.388767250693181D+03 0.198614580727625D+03 -.301009084170300D+03 0.145209348118092D+03
 0.274575410547850D+03 0.132356393832146D+03 -.198778218048299D+03 -.100226791701687D+03
 0.810696588273814D+03 -.520851904169110D+03 0.513663204621338D+03 -.349417178141477D+03
0.198399141429D-04 0.000000000000D+00 0.000000000000D+00 0.121519403446D-05 0.000000000000D+00  7 -2 1 -24 -11 11 23 21 0 0.43044040D-01 0.37651770D-01 0.39789118D+05 0.39789118D+05 0.39789118D+05 0.11561251D+01  1  2  2  1  7  1       -2 0.129327104524D-02 0.100000000000D+01
-.100348421011D-05 0.000000000000D+00 -.761904942780D-07 0.121519403446D-05 0.000000000000D+00  7 -2 1 -24 -11 11 23 21 2 0.43044040D-01 0.37651770D-01 0.39789118D+05 0.39789118D+05 0.39789118D+05 0.11561251D+01  1  2  3  1  7  1       -2 -.874319058828D-04 0.100000000000D+01
0.125268464543D-05 0.000000000000D+00 0.000000000000D+00 0.121519403446D-05 0.000000000000D+00  7 -2 1 -24 -11 11 23 21 2 0.43044040D-01 0.37651770D-01 0.39789118D+05 0.39789118D+05 0.39789118D+05 0.11561251D+01  1  2 15  1  7  1       -2 0.109144324262D-03 0.100000000000D+01
  </mgrwgt>
  </event>
  <event>
  9     66 0.26562228E-05 0.19574979E+03 0.75467711E-02 0.10080382E+00
       -2 -1    0    0    0  501 0.00000000E+00 0.00000000E+00 0.33814161E+03 0.33814176E+03 0.32000000E+00 0.0000E+00 0.9000E+01
       21 -1    0    0  501  502 0.00000000E+00 0.00000000E+00 -.36237642E+03 0.36237720E+03 0.75000000E+00 0.0000E+00 0.9000E+01
       25  2    1    2    0    0 -.27719424E+02 -.19055037E+03 0.11460367E+03 0.37047648E+03 0.29502714E+03 0.0000E+00 0.0000E+00
       23  2    3    3    0    0 -.95371975E+02 -.13288011E+03 0.14569897E+03 0.23938531E+03 0.96561904E+02 0.0000E+00 0.0000E+00
      -24  1    1    2    0    0 -.73495766E+02 0.57148839E+02 -.19840310E+02 0.12461329E+03 0.80419002E+02 0.0000E+00 0.9000E+01
      -11  1    4    4    0    0 -.31833676E+02 -.11022867E+03 0.12302157E+03 0.16822024E+03 0.51099893E-03 0.0000E+00 0.9000E+01
       11  1    4    4    0    0 -.63538299E+02 -.22651440E+02 0.22677400E+02 0.71165074E+02 0.51099893E-03 0.0000E+00 0.9000E+01
       23  1    3    3    0    0 0.67652550E+02 -.57670259E+02 -.31095300E+02 0.13109117E+03 0.91188000E+02 0.0000E+00 0.9000E+01
       -1  1    1    2    0  502 0.10121519E+03 0.13340153E+03 -.11899818E+03 0.20542919E+03 0.32000000E+00 0.0000E+00 0.9000E+01
#aMCatNLO 2  0  0  2  1 0.16745293D+03 0.00000000D+00  -5  7  0 0.00000000D+00 0.00000000D+00 0.00000000D+00 0.00000000D+00 0.00000000D+00
  <mgrwgt>
 0.1128240337D-03    2    2    0
 0.228086225409369D+03 0.000000000000000D+00 0.000000000000000D+00 0.228086225409369D+03
 0.228086225409369D+03 0.000000000000000D+00 0.000000000000000D+00 -.228086225409369D+03
 0.139771160083449D+03 -.444238203883397D+02 0.954656366556638D+02 -.445151394104950D+02
 0.117717450923037D+03 -.335102021271094D+01 -.726885541424081D+02 0.925340100289497D+02
 0.518035130287114D+02 -.506582913477036D+02 -.567560171805807D+01 0.922653916617839D+01
 0.146880326783542D+03 0.984331319487543D+02 -.171014807951976D+02 -.572454097846331D+02
 0.000000000000000D+00 0.000000000000000D+00 0.000000000000000D+00 -.000000000000000D+00
 0.278569925439460D+03 0.000000000000000D+00 0.000000000000000D+00 0.278569925439460D+03
 0.439870822115728D+03 0.000000000000000D+00 0.000000000000000D+00 -.439870822115728D+03
 0.130829778783178D+03 -.734957662332432D+02 0.571488387558077D+02 -.445151394104950D+02
 0.147398389383231D+03 -.318336758320573D+02 -.110228668066672D+03 0.925340100289497D+02
 0.680832740879725D+02 -.635382990711563D+02 -.226514400579139D+02 0.922653916617839D+01
 0.139624548807587D+03 0.676525505421561D+02 -.576702587947429D+02 -.572454097846331D+02
 0.232504756493219D+03 0.101215190594301D+03 0.133401528163521D+03 -.161300896676268D+03
-.162664243289D-07 0.000000000000D+00 0.000000000000D+00 0.688674329022D-09 0.000000000000D+00  7 -2 21 -24 -11 11 23 -1 2 0.42594206D-01 0.56374842D-01 0.90004502D+05 0.90004502D+05 0.90004502D+05 0.11254946D+01  1  2 13  4  7  2        1 -.325468230587D-05 0.100000000000D+01
0.832692587803D-06 0.000000000000D+00 0.000000000000D+00 0.688674329022D-09 0.212844975544D-13  7 -2 21 -24 -11 11 23 -1 2 0.52021838D-01 0.55750270D-01 0.90004502D+05 0.90004502D+05 0.90004502D+05 0.11254946D+01  1  2  1  4  7  2        1 0.116078716016D-03 0.100000000000D+01
  </mgrwgt>
  </event>
  <event>
  8     66 0.26562228E-05 0.46267141E+02 0.75467711E-02 0.10823644E+00
       -2 -1    0    0    0  501 0.00000000E+00 0.00000000E+00 0.45322847E+02 0.45323977E+02 0.32000000E+00 0.0000E+00 0.9000E+01
        1 -1    0    0  501    0 0.00000000E+00 0.00000000E+00 -.22663129E+04 0.22663129E+04 0.32000000E+00 0.0000E+00 0.9000E+01
       25  2    1    2    0    0 -.66699933E+02 -.53860715E+02 -.51856025E+03 0.60515388E+03 0.29992770E+03 0.0000E+00 0.0000E+00
       23  2    3    3    0    0 -.38098087E+02 0.26451390E+02 -.38915524E+02 0.10953062E+03 0.91276493E+02 0.0000E+00 0.0000E+00
      -24  1    1    2    0    0 0.66699933E+02 0.53860715E+02 -.17024298E+04 0.17064830E+04 0.80419002E+02 0.0000E+00 0.9000E+01
      -13  1    4    4    0    0 -.19072776E+01 -.15261360E+01 0.28201522E+02 0.28307310E+02 0.10565837E+00 0.0000E+00 0.9000E+01
       13  1    4    4    0    0 -.36190809E+02 0.27977526E+02 -.67117047E+02 0.81223308E+02 0.10565837E+00 0.0000E+00 0.9000E+01
       23  1    3    3    0    0 -.28601846E+02 -.80312105E+02 -.47964473E+03 0.49562326E+03 0.91188000E+02 0.0000E+00 0.9000E+01
#aMCatNLO 1  0  0  1  2 0.45546054D+02 0.00000000D+00  -5  7  0 0.00000000D+00 0.00000000D+00 0.00000000D+00 0.00000000D+00 0.00000000D+00
  <mgrwgt>
 0.8177754870D-03    9    2    0
 0.320495060563919D+03 0.000000000000000D+00 0.000000000000000D+00 0.320495060563919D+03
 0.320495060563919D+03 0.000000000000000D+00 0.000000000000000D+00 -.320495060563919D+03
 0.255369713836942D+03 0.666999326418386D+02 0.538607149222345D+02 -.226708220328314D+03
 0.199802833160676D+03 -.190723189033286D+01 -.152617539776728D+01 0.199787901020569D+03
 0.603634617470067D+02 -.361908550854202D+02 0.279775655092696D+02 0.393855982618391D+02
 0.125454112383213D+03 -.286018456660855D+02 -.803121050337369D+02 -.124652789540945D+02
 0.000000000000000D+00 -.000000000000000D+00 0.000000000000000D+00 0.000000000000000D+00
 0.356742216620347D+03 0.000000000000000D+00 0.000000000000000D+00 0.356742216620347D+03
 0.335936978503185D+03 0.000000000000000D+00 0.000000000000000D+00 -.335936978503185D+03
 0.259074210110600D+03 0.837509255220682D+02 0.473433807393040D+02 -.226708220328314D+03
 0.200218722894236D+03 0.113512874287255D+02 -.659392727474658D+01 0.199787901020569D+03
 0.574038020882836D+02 -.322875165800860D+02 0.264856077302091D+02 0.393855982618391D+02
 0.125909503895037D+03 -.202705212359689D+02 -.834965545188130D+02 -.124652789540945D+02
 0.500729561353745D+02 -.425441751347388D+02 0.162614933240465D+02 0.208052381171618D+02
0.307248184567D-04 0.000000000000D+00 0.000000000000D+00 0.619591553060D-05 0.000000000000D+00  7 -2 1 -24 -13 13 23 21 0 0.69728344D-02 0.34866361D+00 0.21107169D+05 0.21107169D+05 0.21107169D+05 0.11817736D+01  1  2  2  1  7  1       -2 0.792065046597D-03 0.100000000000D+01
-.407806012443D-06 0.000000000000D+00 -.117991392904D-06 0.619591553060D-05 0.000000000000D+00  7 -2 1 -24 -13 13 23 21 2 0.69728344D-02 0.34866361D+00 0.21107169D+05 0.21107169D+05 0.21107169D+05 0.11817736D+01  1  2  3  1  7  1       -2 -.146822881124D-04 0.100000000000D+01
0.189557895961D-05 0.000000000000D+00 0.000000000000D+00 0.619591553060D-05 0.000000000000D+00  7 -2 1 -24 -13 13 23 21 2 0.69728344D-02 0.34866361D+00 0.21107169D+05 0.21107169D+05 0.21107169D+05 0.11817736D+01  1  2 15  1  7  1       -2 0.682467535436D-04 0.100000000000D+01
0.451473358596D-04 0.000000000000D+00 0.000000000000D+00 0.619591553060D-05 0.000000000000D+00  7 -2 1 -24 -13 13 23 21 2 0.79152387D-02 0.34866361D+00 0.30820628D+05 0.30820628D+05 0.30820628D+05 0.11662501D+01  1  2 12  1  7  1       -2 0.129783885855D-02 0.100000000000D+01
-.476648176550D-04 0.000000000000D+00 0.000000000000D+00 0.619591553060D-05 0.000000000000D+00  7 -2 1 -24 -13 13 23 21 2 0.69728344D-02 0.34866361D+00 0.21107169D+05 0.21107169D+05 0.21107169D+05 0.11817736D+01  1  2  4  1  7  1       -2 -.171608206913D-02 0.100000000000D+01
-.785019150413D-04 0.000000000000D+00 -.264162422347D-04 0.619591553060D-05 0.000000000000D+00  7 -2 1 -24 -13 13 23 21 2 0.82110155D-02 0.34866361D+00 0.21107169D+05 0.21107169D+05 0.21107169D+05 0.11817736D+01  1  2  5  1  7  1       -2 -.221752174419D-02 0.100000000000D+01
0.820699838532D-04 0.000000000000D+00 0.260672407964D-04 0.619591553060D-05 0.000000000000D+00  7 -2 1 -24 -13 13 23 21 2 0.69728344D-02 0.34866361D+00 0.21107169D+05 0.21107169D+05 0.21107169D+05 0.11817736D+01  1  2  6  1  7  1       -2 0.295477533814D-02 0.100000000000D+01
0.896877590178D-06 0.000000000000D+00 0.000000000000D+00 0.619591553060D-05 0.000000000000D+00  7 21 1 -24 -13 13 23 2 2 0.79152387D-02 0.34866361D+00 0.30820628D+05 0.30820628D+05 0.30820628D+05 0.11662501D+01  1  2 12  3  7  1       -2 0.400148819317D-03 0.100000000000D+01
-.170486510119D-05 0.000000000000D+00 -.645622673478D-06 0.619591553060D-05 0.000000000000D+00  7 21 1 -24 -13 13 23 2 2 0.82110155D-02 0.34866361D+00 0.21107169D+05 0.21107169D+05 0.21107169D+05 0.11817736D+01  1  2  5  3  7  1       -2 -.747013227731D-03 0.100000000000D+01
  </mgrwgt>
  </event>
  <event>
  8     66 0.26562228E-05 0.75846070E+02 0.75467711E-02 0.99546781E-01
       -4 -1    0    0    0  501 0.00000000E+00 0.00000000E+00 0.11906696E+03 0.11907705E+03 0.15500000E+01 0.0000E+00 0.9000E+01
        3 -1    0    0  501    0 0.00000000E+00 0.00000000E+00 -.12812129E+04 0.12812130E+04 0.50000000E+00 0.0000E+00 0.9000E+01
       25  2    1    2    0    0 0.81901923E+02 0.96207488E+02 -.12086536E+03 0.34829372E+03 0.30122462E+03 0.0000E+00 0.0000E+00
       23  2    3    3    0    0 0.49732705E+02 0.16536664E+03 -.25428059E+02 0.19584249E+03 0.88815691E+02 0.0000E+00 0.0000E+00
      -24  1    1    2    0    0 -.81901923E+02 -.96207488E+02 -.10412805E+04 0.10519963E+04 0.80419002E+02 0.0000E+00 0.9000E+01
      -11  1    4    4    0    0 -.96120817E+01 0.10041783E+03 -.36269415E+02 0.10719890E+03 0.51099893E-03 0.0000E+00 0.9000E+01
       11  1    4    4    0    0 0.59344787E+02 0.64948807E+02 0.10841357E+02 0.88643591E+02 0.51099893E-03 0.0000E+00 0.9000E+01
       23  1    3    3    0    0 0.32169218E+02 -.69159151E+02 -.95437302E+02 0.15245123E+03 0.91188000E+02 0.0000E+00 0.9000E+01
#aMCatNLO 1  0  0  2  1 0.17921985D+03 0.00000000D+00  -5  7  0 0.00000000D+00 0.00000000D+00 0.00000000D+00 0.00000000D+00 0.00000000D+00
  <mgrwgt>
 0.1026920970D-03    8    2    0
 0.390585777484471D+03 0.000000000000000D+00 0.000000000000000D+00 0.390585777484471D+03
 0.390585777484471D+03 0.000000000000000D+00 0.000000000000000D+00 -.390585777484471D+03
 0.336648165736853D+03 -.819019232017416D+02 -.962074880468175D+02 -.301497870239898D+03
 0.138201644077635D+03 -.961208174929638D+01 0.100417832760554D+03 0.944646027561626D+02
 0.175026820258674D+03 0.593447869526753D+02 0.649488067643405D+02 0.151308415401431D+03
 0.131294924895780D+03 0.321692179983626D+02 -.691591514780768D+02 0.557248520823045D+02
 0.000000000000000D+00 0.000000000000000D+00 -.000000000000000D+00 -.000000000000000D+00
 0.424548277635383D+03 0.000000000000000D+00 0.000000000000000D+00 0.424548277635383D+03
 0.737913678890535D+03 0.000000000000000D+00 0.000000000000000D+00 -.737913678890535D+03
 0.326677151395746D+03 -.941360863851706D+02 -.220947226856953D+02 -.301497870239898D+03
 0.164882018565711D+03 -.152020613433796D+02 0.134281108884817D+03 0.944646027561626D+02
 0.192058438804517D+03 0.525743820764920D+02 0.105962926035532D+03 0.151308415401431D+03
 0.117849017087132D+03 0.275740856196411D+02 -.413225138036045D+02 0.557248520823045D+02
 0.360995330672811D+03 0.291896800324171D+02 -.176826798431049D+03 -.313365401255152D+03
0.378970311998D-04 0.000000000000D+00 0.000000000000D+00 0.304319405191D-06 0.000000000000D+00  7 -4 3 -24 -11 11 23 21 0 0.18318777D-01 0.19711045D+00 0.52328291D+05 0.52328291D+05 0.52328291D+05 0.11455608D+01  1  2  2  2  7  2        3 0.451564889378D-04 0.100000000000D+01
-.137269431550D-05 0.000000000000D+00 -.145534578325D-06 0.304319405191D-06 0.000000000000D+00  7 -4 3 -24 -11 11 23 21 2 0.18318777D-01 0.19711045D+00 0.52328291D+05 0.52328291D+05 0.52328291D+05 0.11455608D+01  1  2  3  2  7  2        3 -.214647130281D-05 0.100000000000D+01
0.238242450421D-05 0.000000000000D+00 0.000000000000D+00 0.304319405191D-06 0.000000000000D+00  7 -4 3 -24 -11 11 23 21 2 0.18318777D-01 0.19711045D+00 0.52328291D+05 0.52328291D+05 0.52328291D+05 0.11455608D+01  1  2 15  2  7  2        3 0.372537845585D-05 0.100000000000D+01
0.462817666722D-05 0.000000000000D+00 0.000000000000D+00 0.304319405191D-06 0.000000000000D+00  7 -4 3 -24 -11 11 23 21 2 0.18318777D-01 0.37397915D+00 0.10964539D+06 0.10964539D+06 0.10964539D+06 0.11184551D+01  1  2 12  2  7  2        3 0.222572576705D-06 0.100000000000D+01
-.375378424496D-04 0.000000000000D+00 -.109658810988D-04 0.304319405191D-06 0.000000000000D+00  7 -4 3 -24 -11 11 23 21 2 0.18318777D-01 0.38107692D+00 0.52328291D+05 0.52328291D+05 0.52328291D+05 0.11455608D+01  1  2  5  2  7  2        3 -.175775648310D-05 0.100000000000D+01
0.381815630802D-04 0.000000000000D+00 0.894968493519D-05 0.304319405191D-06 0.000000000000D+00  7 -4 3 -24 -11 11 23 21 2 0.18318777D-01 0.19711045D+00 0.52328291D+05 0.52328291D+05 0.52328291D+05 0.11455608D+01  1  2  6  2  7  2        3 0.597042098324D-04 0.100000000000D+01
0.322124676182D-06 0.000000000000D+00 0.000000000000D+00 0.304319405191D-06 0.000000000000D+00  7 -4 21 -24 -11 11 23 -3 2 0.18318777D-01 0.37397915D+00 0.10964539D+06 0.10964539D+06 0.10964539D+06 0.11184551D+01  1  2 12  4  7  2        3 0.410757500343D-06 0.100000000000D+01
-.204579800025D-05 0.000000000000D+00 -.784015046492D-06 0.304319405191D-06 0.000000000000D+00  7 -4 21 -24 -11 11 23 -3 2 0.18318777D-01 0.38107692D+00 0.52328291D+05 0.52328291D+05 0.52328291D+05 0.11455608D+01  1  2  5  4  7  2        3 -.262308252977D-05 0.100000000000D+01
  </mgrwgt>
  </event>
  <event>
  8     66 0.26562228E-05 0.23124431E+03 0.75467711E-02 0.84778417E-01
       -2 -1    0    0    0  501 0.00000000E+00 0.00000000E+00 0.25818719E+03 0.25818738E+03 0.32000000E+00 0.0000E+00 0.9000E+01
        1 -1    0    0  501    0 0.00000000E+00 0.00000000E+00 -.28316755E+03 0.28316774E+03 0.32000000E+00 0.0000E+00 0.9000E+01
       25  2    1    2    0    0 0.76649914E+02 -.84537960E+02 0.11401123E+03 0.34435827E+03 0.30424034E+03 0.0000E+00 0.0000E+00
       23  2    3    3    0    0 0.16229401E+03 -.63174505E+02 0.59514651E+02 0.20624080E+03 0.93074757E+02 0.0000E+00 0.0000E+00
      -24  1    1    2    0    0 -.76649914E+02 0.84537960E+02 -.13899160E+03 0.19699685E+03 0.80419002E+02 0.0000E+00 0.9000E+01
      -13  1    4    4    0    0 -.32443064E+01 0.13252535E+02 -.20511643E+01 0.13797595E+02 0.10565837E+00 0.0000E+00 0.9000E+01
       13  1    4    4    0    0 0.16553831E+03 -.76427039E+02 0.61565815E+02 0.19244320E+03 0.10565837E+00 0.0000E+00 0.9000E+01
       23  1    3    3    0    0 -.85644094E+02 -.21363456E+02 0.54496582E+02 0.13811748E+03 0.91188000E+02 0.0000E+00 0.9000E+01
#aMCatNLO 1  0  0  1  2 0.12943818D+04 0.00000000D+00  -5  7  0 0.00000000D+00 0.00000000D+00 0.00000000D+00 0.00000000D+00 0.00000000D+00
  <mgrwgt>
 0.1761430022D-02    3    2    0
 0.270389231900810D+03 0.000000000000000D+00 0.000000000000000D+00 0.270389231900810D+03
 0.270389231900810D+03 0.000000000000000D+00 0.000000000000000D+00 -.270389231900810D+03
 0.190786501824114D+03 -.766499521102342D+02 0.845380021533429D+02 -.130039933702430D+03
 0.137173202275511D+02 -.324453278187526D+01 0.132526452101843D+02 -.141607774698239D+01
 0.195492551554720D+03 0.165538481221060D+03 -.764271638638338D+02 0.705211852717343D+02
 0.140782090195234D+03 -.856439963289509D+02 -.213634834996933D+02 0.609348261776781D+02
 0.000000000000000D+00 0.000000000000000D+00 -.000000000000000D+00 -.000000000000000D+00
 0.778220948040901D+03 0.000000000000000D+00 0.000000000000000D+00 0.778220948040901D+03
 0.615399442990831D+04 0.000000000000000D+00 0.000000000000000D+00 -.615399442990831D+04
 0.717170546657121D+03 -.667528532573471D+03 0.212982747848457D+03 -.130039933702430D+03
 0.499102486156026D+02 -.446519623725785D+02 0.222537614115815D+02 -.141607774698239D+01
 0.810764530156279D+02 -.144465754443541D+02 -.373021463108439D+02 0.705211852717343D+02
 0.554649055646195D+03 -.538215369558615D+03 0.770161445074681D+02 0.609348261776781D+02
 0.552940907401466D+04 0.126484243994902D+04 -.274950507456663D+03 -.537577348186740D+04
0.278157354137D-04 0.000000000000D+00 0.000000000000D+00 0.199186909755D-07 0.000000000000D+00  7 -2 1 -24 -13 13 23 21 0 0.39721135D-01 0.43564268D-01 0.53473931D+05 0.53473931D+05 0.53473931D+05 0.11447382D+01  1  2  2  1  7  1       -2 0.174283468971D-02 0.100000000000D+01
-.149936657481D-05 0.000000000000D+00 -.106819748040D-06 0.199186909755D-07 0.000000000000D+00  7 -2 1 -24 -13 13 23 21 2 0.39721135D-01 0.43564268D-01 0.53473931D+05 0.53473931D+05 0.53473931D+05 0.11447382D+01  1  2  3  1  7  1       -2 -.123107878698D-03 0.100000000000D+01
0.172584452235D-05 0.000000000000D+00 0.000000000000D+00 0.199186909755D-07 0.000000000000D+00  7 -2 1 -24 -13 13 23 21 2 0.39721135D-01 0.43564268D-01 0.53473931D+05 0.53473931D+05 0.53473931D+05 0.11447382D+01  1  2 15  1  7  1       -2 0.141703210994D-03 0.100000000000D+01
  </mgrwgt>
  </event>
  <event>
  9     66 0.26562228E-05 0.24752651E+03 0.75467711E-02 0.10291369E+00
       -2 -1    0    0    0  501 0.00000000E+00 0.00000000E+00 0.99192652E+02 0.99193168E+02 0.32000000E+00 0.0000E+00 0.9000E+01
        1 -1    0    0  502    0 0.00000000E+00 0.00000000E+00 -.77694558E+03 0.77694564E+03 0.32000000E+00 0.0000E+00 0.9000E+01
       25  2    1    2    0    0 -.13571523E+03 0.81876433E+02 -.56156859E+03 0.66050324E+03 0.30948808E+03 0.0000E+00 0.0000E+00
       23  2    3    3    0    0 0.58137430E+02 -.28603216E+02 -.14822683E+03 0.18201471E+03 0.83426956E+02 0.0000E+00 0.0000E+00
      -24  1    1    2    0    0 0.12729062E+03 -.67736474E+02 -.10745293E+03 0.19698853E+03 0.80419002E+02 0.0000E+00 0.9000E+01
      -11  1    4    4    0    0 0.17429970E+02 -.42244975E+02 -.12523670E+03 0.13331419E+03 0.51099893E-03 0.0000E+00 0.9000E+01
       11  1    4    4    0    0 0.40707460E+02 0.13641759E+02 -.22990132E+02 0.48700524E+02 0.51099893E-03 0.0000E+00 0.9000E+01
       23  1    3    3    0    0 -.19385266E+03 0.11047965E+03 -.41334176E+03 0.47848853E+03 0.91188000E+02 0.0000E+00 0.9000E+01
       21  1    1    2  502  501 0.84246094E+01 -.14139959E+02 -.87314032E+01 0.18647048E+02 0.75000000E+00 0.0000E+00 0.9000E+01
#aMCatNLO 2  0  0  2  2 0.16459419D+02 0.00000000D+00  -5  7  0 0.00000000D+00 0.00000000D+00 0.00000000D+00 0.00000000D+00 0.00000000D+00
  <mgrwgt>
 0.8611275754D-03    2    2    0
 0.268063152888677D+03 0.000000000000000D+00 0.000000000000000D+00 0.268063152888677D+03
 0.268063152888677D+03 0.000000000000000D+00 0.000000000000000D+00 -.268063152888677D+03
 0.184765942749618D+03 0.130162907656258D+03 -.725573524102217D+02 0.739208071348773D+02
 0.583331813353005D+02 0.183352778277816D+02 -.437644554602285D+02 -.339300761853667D+02
 0.494835923155016D+02 0.414824733350248D+02 0.123409670297425D+02 0.239902239928380D+02
 0.243543589376935D+03 -.189980658819065D+03 0.103980840840708D+03 -.639809549423487D+02
 0.000000000000000D+00 0.000000000000000D+00 -.000000000000000D+00 0.000000000000000D+00
 0.282291596004700D+03 0.000000000000000D+00 0.000000000000000D+00 0.282291596004700D+03
 0.272992134212020D+03 0.000000000000000D+00 0.000000000000000D+00 -.272992134212020D+03
 0.180893985459017D+03 0.127290621309354D+03 -.677364748129356D+02 0.739208071348773D+02
 0.569182902723908D+02 0.174299688157138D+02 -.422449746676524D+02 -.339300761853667D+02
 0.491805416730636D+02 0.407074591124580D+02 0.136417595872734D+02 0.239902239928380D+02
 0.249386086194727D+03 -.193852658641589D+03 0.110479648740284D+03 -.639809549423487D+02
 0.189048266175212D+02 0.842460940406275D+01 -.141399588469699D+02 0.929946179267998D+01
-.199095455913D-05 0.000000000000D+00 0.000000000000D+00 0.157953516646D-09 0.000000000000D+00  7 -2 1 -24 -11 11 23 21 2 0.14490883D-01 0.11736880D+00 0.61269373D+05 0.61269373D+05 0.61269373D+05 0.11396109D+01  1  2  8  2  7  2        1 -.228681071984D-03 0.100000000000D+01
0.106405590827D-04 0.000000000000D+00 0.000000000000D+00 0.157953516646D-09 0.403022186319D-11  7 -2 1 -24 -11 11 23 21 2 0.15260041D-01 0.11952691D+00 0.65339407D+05 0.65339407D+05 0.65339407D+05 0.11372122D+01  1  2  1  2  7  2        1 0.108980864741D-02 0.100000000000D+01
  </mgrwgt>
  </event>
  <event>
  8     66 0.26562228E-05 0.22310392E+03 0.75467711E-02 0.10084079E+00
       -2 -1    0    0    0  501 0.00000000E+00 0.00000000E+00 0.10153256E+03 0.10153306E+03 0.32000000E+00 0.0000E+00 0.9000E+01
        1 -1    0    0  501    0 0.00000000E+00 0.00000000E+00 -.11356463E+04 0.11356463E+04 0.32000000E+00 0.0000E+00 0.9000E+01
       25  2    1    2    0    0 -.83132871E+02 0.25175461E+03 -.64162089E+03 0.75675322E+03 0.30117540E+03 0.0000E+00 0.0000E+00
       23  2    3    3    0    0 -.85065016E+01 0.22424899E+02 -.37027625E+03 0.38244804E+03 0.92664776E+02 0.0000E+00 0.0000E+00
      -24  1    1    2    0    0 0.83132871E+02 -.25175461E+03 -.39249282E+03 0.48042615E+03 0.80419002E+02 0.0000E+00 0.9000E+01
      -11  1    4    4    0    0 0.98116416E+01 -.10214287E+02 -.31712384E+03 0.31743996E+03 0.51099893E-03 0.0000E+00 0.9000E+01
       11  1    4    4    0    0 -.18318143E+02 0.32639186E+02 -.53152418E+02 0.65008079E+02 0.51099893E-03 0.0000E+00 0.9000E+01
       23  1    3    3    0    0 -.74626370E+02 0.22932971E+03 -.27134463E+03 0.37430519E+03 0.91188000E+02 0.0000E+00 0.9000E+01
#aMCatNLO 1  0  0  2  1 0.10720147D+02 0.00000000D+00  -5  7  0 0.00000000D+00 0.00000000D+00 0.00000000D+00 0.00000000D+00 0.00000000D+00
  <mgrwgt>
 0.1765375941D-03    7    2    0
 0.339566503500784D+03 0.000000000000000D+00 0.000000000000000D+00 0.339566503500784D+03
 0.339566503500784D+03 0.000000000000000D+00 0.000000000000000D+00 -.339566503500784D+03
 0.277546690699082D+03 0.831328711836244D+02 -.251754607215238D+03 0.165376249295229D+02
 0.953981950058742D+02 0.981164162595918D+01 -.102142865649417D+02 -.943409542508014D+02
 0.374904626377378D+02 -.183181432115889D+02 0.326391858043151D+02 0.215962221296503D+01
 0.268697658658873D+03 -.746263695979946D+02 0.229329707975865D+03 0.756437071083135D+02
 0.000000000000000D+00 -.000000000000000D+00 0.000000000000000D+00 -.000000000000000D+00
 0.339645075121572D+03 0.000000000000000D+00 0.000000000000000D+00 0.339645075121572D+03
 0.113173986012351D+04 0.000000000000000D+00 0.000000000000000D+00 -.113173986012351D+04
 0.279843324424427D+03 0.873927565750621D+02 -.252851899993746D+03 0.165376249295229D+02
 0.956002794963929D+02 0.112713585014737D+02 -.105902912314962D+02 -.943409542508014D+02
 0.370866039386367D+02 -.177481836719036D+02 0.324923714115628D+02 0.215962221296503D+01
 0.266687402896144D+03 -.705346583354475D+02 0.228275734733027D+03 0.756437071083135D+02
 0.792167324489478D+03 -.103812730691846D+02 0.267408508065190D+01 -.792094785001935D+03
0.468033752931D-05 0.000000000000D+00 0.000000000000D+00 0.418304810844D-06 0.000000000000D+00  7 -2 1 -24 -11 11 23 21 0 0.15620436D-01 0.17471485D+00 0.85988346D+05 0.85988346D+05 0.85988346D+05 0.11271421D+01  1  2  2  2  7  2        1 0.187941977772D-03 0.100000000000D+01
-.253216304166D-06 0.000000000000D+00 -.179737284737D-07 0.418304810844D-06 0.000000000000D+00  7 -2 1 -24 -11 11 23 21 2 0.15620436D-01 0.17471485D+00 0.85988346D+05 0.85988346D+05 0.85988346D+05 0.11271421D+01  1  2  3  2  7  2        1 -.129180095428D-04 0.100000000000D+01
0.294561390688D-06 0.000000000000D+00 0.000000000000D+00 0.418304810844D-06 0.000000000000D+00  7 -2 1 -24 -11 11 23 21 2 0.15620436D-01 0.17471485D+00 0.85988346D+05 0.85988346D+05 0.85988346D+05 0.11271421D+01  1  2 15  2  7  2        1 0.150272584871D-04 0.100000000000D+01
0.466504161012D-02 0.000000000000D+00 0.000000000000D+00 0.418304810844D-06 0.000000000000D+00  7 -2 1 -24 -11 11 23 21 2 0.15620436D-01 0.58226501D+00 0.89490337D+05 0.89490337D+05 0.89490337D+05 0.11257010D+01  1  2 12  2  7  2        1 0.308680474568D-02 0.100000000000D+01
-.466255719393D-02 0.000000000000D+00 -.142335089458D-05 0.418304810844D-06 0.000000000000D+00  7 -2 1 -24 -11 11 23 21 2 0.15620436D-01 0.58231944D+00 0.85988346D+05 0.85988346D+05 0.85988346D+05 0.11271421D+01  1  2  5  2  7  2        1 -.310005776156D-02 0.100000000000D+01
0.651475034761D-03 0.000000000000D+00 0.000000000000D+00 0.418304810844D-06 0.000000000000D+00  7 -2 21 -24 -11 11 23 -1 2 0.15620436D-01 0.58226501D+00 0.89490337D+05 0.89490337D+05 0.89490337D+05 0.11257010D+01  1  2 12  4  7  2        1 0.445201692152D-04 0.100000000000D+01
-.651134807189D-03 0.000000000000D+00 -.198790278499D-06 0.418304810844D-06 0.000000000000D+00  7 -2 21 -24 -11 11 23 -1 2 0.15620436D-01 0.58231944D+00 0.85988346D+05 0.85988346D+05 0.85988346D+05 0.11271421D+01  1  2  5  4  7  2        1 -.447807859653D-04 0.100000000000D+01
  </mgrwgt>
  </event>
  <event>
  8     66 0.26562228E-05 0.15383920E+03 0.75467711E-02 0.10555417E+00
       -2 -1    0    0    0  501 0.00000000E+00 0.00000000E+00 0.27838306E+03 0.27838324E+03 0.32000000E+00 0.0000E+00 0.9000E+01
        1 -1    0    0  501    0 0.00000000E+00 0.00000000E+00 -.35919410E+03 0.35919424E+03 0.32000000E+00 0.0000E+00 0.9000E+01
       25  2    1    2    0    0 -.39082307E+02 -.10960865E+03 -.25701362E+03 0.41162163E+03 0.29972468E+03 0.0000E+00 0.0000E+00
       23  2    3    3    0    0 0.19088457E+02 -.11925209E+03 -.23028683E+02 0.15366614E+03 0.92182062E+02 0.0000E+00 0.0000E+00
      -24  1    1    2    0    0 0.39082307E+02 0.10960865E+03 0.17620258E+03 0.22595585E+03 0.80419002E+02 0.0000E+00 0.9000E+01
      -13  1    4    4    0    0 0.52793026E+02 -.97504183E+02 -.24393949E+02 0.11353081E+03 0.10565837E+00 0.0000E+00 0.9000E+01
       13  1    4    4    0    0 -.33704570E+02 -.21747903E+02 0.13652662E+01 0.40135327E+02 0.10565837E+00 0.0000E+00 0.9000E+01
       23  1    3    3    0    0 -.58170764E+02 0.96434386E+01 -.23398494E+03 0.25795549E+03 0.91188000E+02 0.0000E+00 0.9000E+01
#aMCatNLO 1  0  0  2  1 0.18942353D+02 0.00000000D+00  -5  7  0 0.00000000D+00 0.00000000D+00 0.00000000D+00 0.00000000D+00 0.00000000D+00
  <mgrwgt>
 0.9863475640D-03    6    2    0
 0.316217732822369D+03 0.000000000000000D+00 0.000000000000000D+00 0.316217732822369D+03
 0.316217732822369D+03 0.000000000000000D+00 0.000000000000000D+00 -.316217732822369D+03
 0.250307714021273D+03 0.390823071433318D+02 0.109608648266503D+03 0.206507271634025D+03
 0.111336967981655D+03 0.527931394341532D+02 -.975042827921960D+02 -.100856187323171D+02
 0.406360037421175D+02 -.337046827487558D+02 -.217478040564664D+02 0.650478129199236D+01
 0.230154779899693D+03 -.581707638287292D+02 0.964343858215990D+01 -.202926434193700D+03
 0.000000000000000D+00 -.000000000000000D+00 -.000000000000000D+00 0.000000000000000D+00
 0.326956565933140D+03 0.000000000000000D+00 0.000000000000000D+00 0.326956565933140D+03
 0.324824477109997D+03 0.000000000000000D+00 0.000000000000000D+00 -.324824477109997D+03
 0.253839002782045D+03 0.429497789128863D+02 0.116090855077468D+03 0.206507271634025D+03
 0.109689125162965D+03 0.544887017517895D+02 -.946623782460993D+02 -.100856187323171D+02
 0.395776095211062D+02 -.330893382974489D+02 -.207164351852697D+02 0.650478129199236D+01
 0.229613339957511D+03 -.546437345635905D+02 0.155550352239083D+02 -.202926434193700D+03
 0.190619656195097D+02 -.970540780363628D+01 -.162670768700070D+02 0.213208882314232D+01
0.138374701701D-04 0.000000000000D+00 0.000000000000D+00 0.277910160613D-05 0.000000000000D+00  7 -2 1 -24 -13 13 23 21 0 0.42828188D-01 0.55260656D-01 0.40207206D+05 0.40207206D+05 0.40207206D+05 0.11557164D+01  1  2  2  2  7  2        1 0.553995983438D-03 0.100000000000D+01
-.574793720194D-06 0.000000000000D+00 -.531395289427D-07 0.277910160613D-05 0.000000000000D+00  7 -2 1 -24 -13 13 23 21 2 0.42828188D-01 0.55260656D-01 0.40207206D+05 0.40207206D+05 0.40207206D+05 0.11557164D+01  1  2  3  2  7  2        1 -.307372154163D-04 0.100000000000D+01
0.865185464362D-06 0.000000000000D+00 0.000000000000D+00 0.277910160613D-05 0.000000000000D+00  7 -2 1 -24 -13 13 23 21 2 0.42828188D-01 0.55260656D-01 0.40207206D+05 0.40207206D+05 0.40207206D+05 0.11557164D+01  1  2 15  2  7  2        1 0.462659751817D-04 0.100000000000D+01
0.272015715428D-04 0.000000000000D+00 0.000000000000D+00 0.277910160613D-05 0.000000000000D+00  7 -2 1 -24 -13 13 23 21 2 0.42828188D-01 0.57674996D-01 0.44575074D+05 0.44575074D+05 0.44575074D+05 0.11517086D+01  1  2 12  2  7  2        1 0.136440444214D-02 0.100000000000D+01
-.188917671326D-04 0.000000000000D+00 0.000000000000D+00 0.277910160613D-05 0.000000000000D+00  7 -2 1 -24 -13 13 23 21 2 0.42828188D-01 0.55260656D-01 0.40207206D+05 0.40207206D+05 0.40207206D+05 0.11557164D+01  1  2  4  2  7  2        1 -.101024123185D-02 0.100000000000D+01
0.308065560293D-06 0.000000000000D+00 0.000000000000D+00 0.277910160613D-05 0.000000000000D+00  7 -2 21 -24 -13 13 23 -1 2 0.42828188D-01 0.57674996D-01 0.44575074D+05 0.44575074D+05 0.44575074D+05 0.11517086D+01  1  2 12  4  7  2        1 0.626596104601D-04 0.100000000000D+01
  </mgrwgt>
  </event>
  <event>
  8     66 0.26562228E-05 0.22044953E+03 0.75467711E-02 0.10154908E+00
       -4 -1    0    0    0  501 0.00000000E+00 0.00000000E+00 0.95607890E+02 0.95620454E+02 0.15500000E+01 0.0000E+00 0.9000E+01
        3 -1    0    0  501    0 0.00000000E+00 0.00000000E+00 -.54732257E+03 0.54732280E+03 0.50000000E+00 0.0000E+00 0.9000E+01
       25  2    1    2    0    0 -.45716773E+01 0.10887955E+03 -.34462718E+03 0.47028577E+03 0.30087398E+03 0.0000E+00 0.0000E+00
       23  2    3    3    0    0 0.29896782E+02 0.17264352E+03 -.17089724E+03 0.26111774E+03 0.90978057E+02 0.0000E+00 0.0000E+00
      -24  1    1    2    0    0 0.45716773E+01 -.10887955E+03 -.10708749E+03 0.17265748E+03 0.80419002E+02 0.0000E+00 0.9000E+01
      -13  1    4    4    0    0 -.14265985E+02 0.11733630E+03 -.14177436E+03 0.18458415E+03 0.10565837E+00 0.0000E+00 0.9000E+01
       13  1    4    4    0    0 0.44162766E+02 0.55307219E+02 -.29122876E+02 0.76533597E+02 0.10565837E+00 0.0000E+00 0.9000E+01
       23  1    3    3    0    0 -.34468459E+02 -.63763970E+02 -.17372995E+03 0.20916803E+03 0.91188000E+02 0.0000E+00 0.9000E+01
#aMCatNLO 1  0  0  2  1 0.11136808D+03 0.00000000D+00  -5  7  0 0.00000000D+00 0.00000000D+00 0.00000000D+00 0.00000000D+00 0.00000000D+00
  <mgrwgt>
 0.4098022039D-04    4    2    0
 0.228762908108504D+03 0.000000000000000D+00 0.000000000000000D+00 0.228762908108504D+03
 0.228762908108504D+03 0.000000000000000D+00 0.000000000000000D+00 -.228762908108504D+03
 0.136901511995661D+03 0.457167832101970D+01 -.108879576752793D+03 0.199786274751118D+02
 0.119415331564766D+03 -.142660651235466D+02 0.117336388536789D+03 -.169903715014512D+02
 0.787966491195417D+02 0.441628412899796D+02 0.553071324022640D+02 0.346363460414443D+02
 0.122412323537041D+03 -.344684544874528D+02 -.637639441862600D+02 -.376246020151049D+02
 0.000000000000000D+00 -.000000000000000D+00 -.000000000000000D+00 0.000000000000000D+00
 0.293024575171163D+03 0.000000000000000D+00 0.000000000000000D+00 0.293024575171163D+03
 0.289291108177852D+03 0.000000000000000D+00 0.000000000000000D+00 -.289291108177852D+03
 0.122571193672323D+03 0.261507992512769D+02 -.864492435283133D+02 0.199786274751118D+02
 0.141077249506339D+03 0.739787403297102D+01 0.139854885736283D+03 -.169903715014512D+02
 0.982520360684390D+02 0.588871452524287D+02 0.706122528213803D+02 0.346363460414443D+02
 0.108984561706526D+03 -.152242671009568D+02 -.437606485418954D+02 -.376246020151049D+02
 0.111430642395389D+03 -.772115514357198D+02 -.802572464874546D+02 0.373346699331115D+01
0.422751114622D-05 0.000000000000D+00 0.000000000000D+00 0.296805279915D-06 0.000000000000D+00  7 -4 3 -24 -13 13 23 21 0 0.14709890D-01 0.84204456D-01 0.48597995D+05 0.48597995D+05 0.48597995D+05 0.11483834D+01  1  2  2  2  7  2        3 0.750971864076D-04 0.100000000000D+01
-.234470435198D-06 0.000000000000D+00 -.162347559307D-07 0.296805279915D-06 0.000000000000D+00  7 -4 3 -24 -13 13 23 21 2 0.14709890D-01 0.84204456D-01 0.48597995D+05 0.48597995D+05 0.48597995D+05 0.11483834D+01  1  2  3  2  7  2        3 -.549288898356D-05 0.100000000000D+01
0.274143156073D-06 0.000000000000D+00 0.000000000000D+00 0.296805279915D-06 0.000000000000D+00  7 -4 3 -24 -13 13 23 21 2 0.14709890D-01 0.84204456D-01 0.48597995D+05 0.48597995D+05 0.48597995D+05 0.11483834D+01  1  2 15  2  7  2        3 0.642229337203D-05 0.100000000000D+01
-.149599559455D-05 0.000000000000D+00 0.000000000000D+00 0.296805279915D-06 0.000000000000D+00  7 -4 3 -24 -13 13 23 21 2 0.14709890D-01 0.84204456D-01 0.48597995D+05 0.48597995D+05 0.48597995D+05 0.11483834D+01  1  2  4  2  7  2        3 -.350463704040D-04 0.100000000000D+01
  </mgrwgt>
  </event>
  <event>
  8     66 0.26562228E-05 0.21433159E+03 0.75467711E-02 0.96202111E-01
       -2 -1    0    0    0  501 0.00000000E+00 0.00000000E+00 0.14790273E+03 0.14790308E+03 0.32000000E+00 0.0000E+00 0.9000E+01
        1 -1    0    0  501    0 0.00000000E+00 0.00000000E+00 -.12680888E+04 0.12680889E+04 0.32000000E+00 0.0000E+00 0.9000E+01
       25  2    1    2    0    0 -.98651165E+02 -.68726478E+02 -.35453659E+02 0.32165788E+03 0.29622871E+03 0.0000E+00 0.0000E+00
       23  2    3    3    0    0 0.49230735E+01 -.12253031E+03 0.36460157E+02 0.15700879E+03 0.91019242E+02 0.0000E+00 0.0000E+00
      -24  1    1    2    0    0 0.98651165E+02 0.68726478E+02 -.10847324E+04 0.10943341E+04 0.80419002E+02 0.0000E+00 0.9000E+01
      -11  1    4    4    0    0 0.29549495E+02 -.92281188E+02 0.57517207E+02 0.11268194E+03 0.51099893E-03 0.0000E+00 0.9000E+01
       11  1    4    4    0    0 -.24626421E+02 -.30249120E+02 -.21057050E+02 0.44326846E+02 0.51099893E-03 0.0000E+00 0.9000E+01
       23  1    3    3    0    0 -.10357424E+03 0.53803831E+02 -.71913816E+02 0.16464909E+03 0.91188000E+02 0.0000E+00 0.9000E+01
#aMCatNLO 1  0  0  1  1 0.32329824D+03 0.00000000D+00  -5  7  0 0.00000000D+00 0.00000000D+00 0.00000000D+00 0.00000000D+00 0.00000000D+00
  <mgrwgt>
 0.2444480269D-02    3    2    0
 0.433075138952284D+03 0.000000000000000D+00 0.000000000000000D+00 0.433075138952284D+03
 0.433075138952284D+03 0.000000000000000D+00 0.000000000000000D+00 -.433075138952284D+03
 0.386152432367701D+03 0.986511652305634D+02 0.687264776929824D+02 -.358037852652048D+03
 0.258600269051901D+03 0.295494947478580D+02 -.922811884193000D+02 0.239760523810288D+03
 0.452330761568673D+02 -.246264212504782D+02 -.302491197840211D+02 0.229033034145492D+02
 0.176164500328098D+03 -.103574238727943D+03 0.538038305103387D+02 0.953740254272105D+02
 0.000000000000000D+00 -.000000000000000D+00 -.000000000000000D+00 -.000000000000000D+00
 0.520578774728149D+03 0.000000000000000D+00 0.000000000000000D+00 0.520578774728149D+03
 0.910324144760374D+03 0.000000000000000D+00 0.000000000000000D+00 -.910324144760374D+03
 0.455463796997601D+03 0.196008942173801D+03 0.185389981059710D+03 -.358037852652048D+03
 0.256648542001137D+03 0.891532393840567D+02 -.208582175857639D+02 0.239760523810288D+03
 0.337230798436804D+02 -.154928095685910D+02 -.193043429962203D+02 0.229033034145492D+02
 0.178685028847745D+03 -.625254089828609D+02 0.102992507958856D+03 0.953740254272105D+02
 0.506382471798360D+03 -.207143963006405D+03 -.248219928436582D+03 -.389745370032225D+03
0.130342633391D-03 0.000000000000D+00 0.000000000000D+00 0.308460070624D-06 0.000000000000D+00  7 -2 1 -24 -11 11 23 21 0 0.22754296D-01 0.19509062D+00 0.45938030D+05 0.45938030D+05 0.45938030D+05 0.11505462D+01  1  2  2  1  7  1       -2 0.232158567726D-02 0.100000000000D+01
-.288529529418D-05 0.000000000000D+00 -.500550032226D-06 0.308460070624D-06 0.000000000000D+00  7 -2 1 -24 -11 11 23 21 2 0.22754296D-01 0.19509062D+00 0.45938030D+05 0.45938030D+05 0.45938030D+05 0.11505462D+01  1  2  3  1  7  1       -2 -.680293990292D-04 0.100000000000D+01
0.809755927179D-05 0.000000000000D+00 0.000000000000D+00 0.308460070624D-06 0.000000000000D+00  7 -2 1 -24 -11 11 23 21 2 0.22754296D-01 0.19509062D+00 0.45938030D+05 0.45938030D+05 0.45938030D+05 0.11505462D+01  1  2 15  1  7  1       -2 0.190923990336D-03 0.100000000000D+01
  </mgrwgt>
  </event>
  <event>
  8     66 0.26562228E-05 0.27213919E+03 0.75467711E-02 0.96797895E-01
       -2 -1    0    0    0  501 0.00000000E+00 0.00000000E+00 0.17741269E+03 0.17741298E+03 0.32000000E+00 0.0000E+00 0.9000E+01
        1 -1    0    0  501    0 0.00000000E+00 0.00000000E+00 -.75547571E+03 0.75547578E+03 0.32000000E+00 0.0000E+00 0.9000E+01
       25  2    1    2    0    0 -.20810818E+03 0.53384692E+02 -.59811922E+03 0.70260978E+03 0.29959133E+03 0.0000E+00 0.0000E+00
       23  2    3    3    0    0 -.12496260E+02 -.49715348E+02 -.78821752E+02 0.13087667E+03 0.91038791E+02 0.0000E+00 0.0000E+00
      -24  1    1    2    0    0 0.20810818E+03 -.53384692E+02 0.20056209E+02 0.23027898E+03 0.80419002E+02 0.0000E+00 0.9000E+01
      -11  1    4    4    0    0 -.29026222E+02 -.69569095E+01 -.79616203E+02 0.85027407E+02 0.51099893E-03 0.0000E+00 0.9000E+01
       11  1    4    4    0    0 0.16529962E+02 -.42758438E+02 0.79445030E+00 0.45849262E+02 0.51099893E-03 0.0000E+00 0.9000E+01
       23  1    3    3    0    0 -.19561192E+03 0.10310004E+03 -.51929747E+03 0.57173311E+03 0.91188000E+02 0.0000E+00 0.9000E+01
#aMCatNLO 1  0  0  1  1 0.24583540D+03 0.00000000D+00  -5  7  0 0.00000000D+00 0.00000000D+00 0.00000000D+00 0.00000000D+00 0.00000000D+00
  <mgrwgt>
 0.1587040982D-02    3    2    0
 0.366102645720065D+03 0.000000000000000D+00 0.000000000000000D+00 0.366102645720065D+03
 0.366102645720065D+03 0.000000000000000D+00 0.000000000000000D+00 -.366102645720065D+03
 0.309228057943269D+03 0.208108178249430D+03 -.533846920971982D+02 0.207354374587048D+03
 0.454762212765220D+02 -.290262219042736D+02 -.695690954701979D+01 -.343098608727819D+02
 0.590428720795788D+02 0.165299622220897D+02 -.427584379548316D+02 0.372093681215444D+02
 0.318458140140760D+03 -.195611918567246D+03 0.103100039599050D+03 -.210253881835811D+03
 0.000000000000000D+00 0.000000000000000D+00 -.000000000000000D+00 -.000000000000000D+00
 0.463128859314819D+03 0.000000000000000D+00 0.000000000000000D+00 0.463128859314819D+03
 0.582550692438955D+03 0.000000000000000D+00 0.000000000000000D+00 -.582550692438955D+03
 0.264871824885765D+03 0.143143594867753D+03 0.142808351259755D+02 0.207354374587048D+03
 0.530353913912476D+02 -.401737000115363D+02 0.465403204718847D+01 -.343098608727819D+02
 0.480824129079081D+02 0.440776934763486D+01 -.301322572075179D+02 0.372093681215444D+02
 0.406383100506999D+03 -.277634247128777D+03 0.188532498598760D+03 -.210253881835811D+03
 0.273306822061855D+03 0.170256582924925D+03 -.177335108564406D+03 -.119421833124137D+03
0.493098920409D-04 0.000000000000D+00 0.000000000000D+00 0.596962065916D-05 0.000000000000D+00  7 -2 1 -24 -11 11 23 21 0 0.27294288D-01 0.11622706D+00 0.74059739D+05 0.74059739D+05 0.74059739D+05 0.11325841D+01  1  2  2  1  7  1       -2 0.155779879880D-02 0.100000000000D+01
-.244642632971D-05 0.000000000000D+00 -.189362969030D-06 0.596962065916D-05 0.000000000000D+00  7 -2 1 -24 -11 11 23 21 2 0.27294288D-01 0.11622706D+00 0.74059739D+05 0.74059739D+05 0.74059739D+05 0.11325841D+01  1  2  3  1  7  1       -2 -.991403309297D-04 0.100000000000D+01
0.316801810721D-05 0.000000000000D+00 0.000000000000D+00 0.596962065916D-05 0.000000000000D+00  7 -2 1 -24 -11 11 23 21 2 0.27294288D-01 0.11622706D+00 0.74059739D+05 0.74059739D+05 0.74059739D+05 0.11325841D+01  1  2 15  1  7  1       -2 0.128382514415D-03 0.100000000000D+01
  </mgrwgt>
  </event>
  <event>
  8     66 0.26562228E-05 0.30223653E+03 0.75467711E-02 0.86875791E-01
       -2 -1    0    0    0  501 0.00000000E+00 0.00000000E+00 0.91869342E+02 0.91869899E+02 0.32000000E+00 0.0000E+00 0.9000E+01
        1 -1    0    0  501    0 0.00000000E+00 0.00000000E+00 -.16104286E+04 0.16104286E+04 0.32000000E+00 0.0000E+00 0.9000E+01
       25  2    1    2    0    0 0.19827675E+03 -.10218938E+03 -.13752964E+04 0.14252646E+04 0.30030432E+03 0.0000E+00 0.0000E+00
       23  2    3    3    0    0 0.21721315E+03 -.13863700E+03 -.96469972E+03 0.10026633E+04 0.91029078E+02 0.0000E+00 0.0000E+00
      -24  1    1    2    0    0 -.19827675E+03 0.10218938E+03 -.14326290E+03 0.27703396E+03 0.80419002E+02 0.0000E+00 0.9000E+01
      -11  1    4    4    0    0 0.12445380E+03 -.37205464E+02 -.57326151E+03 0.58779397E+03 0.51099893E-03 0.0000E+00 0.9000E+01
       11  1    4    4    0    0 0.92759349E+02 -.10143154E+03 -.39143821E+03 0.41486929E+03 0.51099893E-03 0.0000E+00 0.9000E+01
       23  1    3    3    0    0 -.18936403E+02 0.36447620E+02 -.41059666E+03 0.42260133E+03 0.91188000E+02 0.0000E+00 0.9000E+01
#aMCatNLO 1  0  0  2  1 0.10011391D+04 0.00000000D+00  -5  7  0 0.00000000D+00 0.00000000D+00 0.00000000D+00 0.00000000D+00 0.00000000D+00
  <mgrwgt>
 0.1260459603D-02    3    2    0
 0.384642064461179D+03 0.000000000000000D+00 0.000000000000000D+00 0.384642064461179D+03
 0.384642064461179D+03 0.000000000000000D+00 0.000000000000000D+00 -.384642064461179D+03
 0.330230783908156D+03 -.198276748420850D+03 0.102189384480773D+03 0.229845198821555D+03
 0.169078286836691D+03 0.124453803005197D+03 -.372054644030878D+02 -.108233411734661D+03
 0.145341959223919D+03 0.927593485557346D+02 -.101431540317686D+03 -.472401417794736D+02
 0.124633098953591D+03 -.189364031400814D+02 0.364476202400005D+02 -.743716453074204D+02
 0.000000000000000D+00 -.000000000000000D+00 0.000000000000000D+00 0.000000000000000D+00
 0.201555291554167D+04 0.000000000000000D+00 0.000000000000000D+00 0.201555291554167D+04
 0.812296327377872D+03 0.000000000000000D+00 0.000000000000000D+00 -.812296327377872D+03
 0.275828374507105D+03 0.997072896665775D+02 0.827267622652194D+02 0.229845198821555D+03
 0.442269757686035D+03 0.425038253308830D+03 -.568379307515472D+02 -.108233411734661D+03
 0.367601526690828D+03 0.344960753519552D+03 -.117903901382887D+03 -.472401417794736D+02
 0.176868176479249D+03 0.129304187393869D+03 0.267653881678036D+02 -.743716453074204D+02
 0.156528140755633D+04 -.999010483888829D+03 0.652496817014108D+02 0.120325658816380D+04
0.552529559531D-04 0.000000000000D+00 0.000000000000D+00 0.548583447304D-05 0.000000000000D+00  7 -2 1 -24 -11 11 23 21 0 0.14133790D-01 0.24775829D+00 0.91346918D+05 0.91346918D+05 0.91346918D+05 0.11249619D+01  1  2  2  2  7  2        1 0.124155309518D-02 0.100000000000D+01
-.285265310589D-05 0.000000000000D+00 -.212185899297D-06 0.548583447304D-05 0.000000000000D+00  7 -2 1 -24 -11 11 23 21 2 0.14133790D-01 0.24775829D+00 0.91346918D+05 0.91346918D+05 0.91346918D+05 0.11249619D+01  1  2  3  2  7  2        1 -.811212015629D-04 0.100000000000D+01
0.351750652813D-05 0.000000000000D+00 0.000000000000D+00 0.548583447304D-05 0.000000000000D+00  7 -2 1 -24 -11 11 23 21 2 0.14133790D-01 0.24775829D+00 0.91346918D+05 0.91346918D+05 0.91346918D+05 0.11249619D+01  1  2 15  2  7  2        1 0.100027709461D-03 0.100000000000D+01
  </mgrwgt>
  </event>
  <event>
  8     66 0.26562228E-05 0.61859859E+03 0.75467711E-02 0.88400575E-01
       -2 -1    0    0    0  501 0.00000000E+00 0.00000000E+00 0.20185204E+03 0.20185230E+03 0.32000000E+00 0.0000E+00 0.9000E+01
        1 -1    0    0  501    0 0.00000000E+00 0.00000000E+00 -.20753577E+04 0.20753577E+04 0.32000000E+00 0.0000E+00 0.9000E+01
       25  2    1    2    0    0 0.46028197E+03 0.38522548E+03 -.11726342E+04 0.13509562E+04 0.29958886E+03 0.0000E+00 0.0000E+00
       23  2    3    3    0    0 0.15814886E+03 0.14909890E+03 -.25550632E+03 0.35271825E+03 0.10901899E+03 0.0000E+00 0.0000E+00
      -24  1    1    2    0    0 -.46028197E+03 -.38522548E+03 -.70087150E+03 0.92625387E+03 0.80419002E+02 0.0000E+00 0.9000E+01
      -11  1    4    4    0    0 0.64852120E+02 0.40170057E+01 -.38561260E+02 0.75557293E+02 0.51099893E-03 0.0000E+00 0.9000E+01
       11  1    4    4    0    0 0.93296743E+02 0.14508189E+03 -.21694506E+03 0.27716096E+03 0.51099893E-03 0.0000E+00 0.9000E+01
       23  1    3    3    0    0 0.30213311E+03 0.23612659E+03 -.91712785E+03 0.99823791E+03 0.91188000E+02 0.0000E+00 0.9000E+01
#aMCatNLO 1  0  0  2  1 0.48759019D+03 0.00000000D+00  -5  7  0 0.00000000D+00 0.00000000D+00 0.00000000D+00 0.00000000D+00 0.00000000D+00
  <mgrwgt>
 0.1059571436D-02    3    2    0
 0.647236827080768D+03 0.000000000000000D+00 0.000000000000000D+00 0.647236827080768D+03
 0.647236827080768D+03 0.000000000000000D+00 0.000000000000000D+00 -.647236827080768D+03
 0.615066891047040D+03 -.460281968120567D+03 -.385225483497198D+03 0.107619241752153D+03
 0.771086273333652D+02 0.648521195802364D+02 0.401700573628724D+01 0.415187507049665D+02
 0.173588633708166D+03 0.932967433287304D+02 0.145081890298194D+03 0.194929870574914D+02
 0.428709502072964D+03 0.302133105211601D+03 0.236126587462716D+03 -.168630979514611D+03
 0.000000000000000D+00 0.000000000000000D+00 0.000000000000000D+00 0.000000000000000D+00
 0.107626494956089D+04 0.000000000000000D+00 0.000000000000000D+00 0.107626494956089D+04
 0.846155363627232D+03 0.000000000000000D+00 0.000000000000000D+00 -.846155363627232D+03
 0.871884396403609D+03 -.602792773975153D+03 -.615446305688601D+03 0.107619241752153D+03
 0.682535415801937D+02 0.509204729906845D+02 -.184890429320460D+02 0.415187507049665D+02
 0.120532199663267D+03 0.651079268314204D+02 0.995439223406263D+02 0.194929870574914D+02
 0.322589143336618D+03 0.230127938466465D+03 0.119804961248568D+03 -.168630979514611D+03
 0.539161032204432D+03 0.256636435686583D+03 0.414586465031452D+03 0.230109585933656D+03
0.375734914926D-03 0.000000000000D+00 0.000000000000D+00 0.550583756803D-07 0.000000000000D+00  7 -2 1 -24 -11 11 23 21 0 0.31054182D-01 0.31928582D+00 0.38266421D+06 0.38266421D+06 0.38266421D+06 0.10768175D+01  1  2  2  2  7  2        1 0.104944381260D-02 0.100000000000D+01
-.208221818676D-04 0.000000000000D+00 -.144292100659D-05 0.550583756803D-07 0.000000000000D+00  7 -2 1 -24 -11 11 23 21 2 0.31054182D-01 0.31928582D+00 0.38266421D+06 0.38266421D+06 0.38266421D+06 0.10768175D+01  1  2  3  2  7  2        1 -.674354253747D-04 0.100000000000D+01
0.239493099928D-04 0.000000000000D+00 0.000000000000D+00 0.550583756803D-07 0.000000000000D+00  7 -2 1 -24 -11 11 23 21 2 0.31054182D-01 0.31928582D+00 0.38266421D+06 0.38266421D+06 0.38266421D+06 0.10768175D+01  1  2 15  2  7  2        1 0.775630487271D-04 0.100000000000D+01
  </mgrwgt>
  </event>
  <event>
  8     66 0.26562228E-05 0.37939919E+03 0.75467711E-02 0.89419507E-01
       -2 -1    0    0    0  501 0.00000000E+00 0.00000000E+00 0.89833031E+03 0.89833037E+03 0.32000000E+00 0.0000E+00 0.9000E+01
        1 -1    0    0  501    0 0.00000000E+00 0.00000000E+00 -.45862400E+03 0.45862411E+03 0.32000000E+00 0.0000E+00 0.9000E+01
       25  2    1    2    0    0 -.15258691E+03 0.28687021E+03 0.76924689E+03 0.88722958E+03 0.29976368E+03 0.0000E+00 0.0000E+00
       23  2    3    3    0    0 -.17144829E+03 0.26865911E+03 0.48209108E+03 0.58480421E+03 0.89509312E+02 0.0000E+00 0.0000E+00
      -24  1    1    2    0    0 0.15258691E+03 -.28687021E+03 -.32954058E+03 0.46972491E+03 0.80419002E+02 0.0000E+00 0.9000E+01
      -11  1    4    4    0    0 -.85799760E+02 0.63122657E+02 0.18584505E+03 0.21420656E+03 0.51099893E-03 0.0000E+00 0.9000E+01
       11  1    4    4    0    0 -.85648530E+02 0.20553645E+03 0.29624604E+03 0.37059765E+03 0.51099893E-03 0.0000E+00 0.9000E+01
       23  1    3    3    0    0 0.18861378E+02 0.18211101E+02 0.28715581E+03 0.30242537E+03 0.91188000E+02 0.0000E+00 0.9000E+01
#aMCatNLO 1  0  0  1  2 0.63195383D+03 0.00000000D+00  -5  7  0 0.00000000D+00 0.00000000D+00 0.00000000D+00 0.00000000D+00 0.00000000D+00
  <mgrwgt>
 0.1121202707D-02    5    2    0
 0.641869112623672D+03 0.000000000000000D+00 0.000000000000000D+00 0.641869112623672D+03
 0.641869112623672D+03 0.000000000000000D+00 0.000000000000000D+00 -.641869112623672D+03
 0.609389341286615D+03 0.152586911997449D+03 -.286870208511541D+03 -.509225756492139D+03
 0.162767849222192D+03 -.857997596685873D+02 0.631226574163719D+02 0.123074384426355D+03
 0.290263919178685D+03 -.856485299243926D+02 0.205536450074406D+03 0.186204832884573D+03
 0.221317115559853D+03 0.188613775955305D+02 0.182111010207632D+02 0.199946539181211D+03
 0.000000000000000D+00 0.000000000000000D+00 0.000000000000000D+00 0.000000000000000D+00
 0.137445183660120D+04 0.000000000000000D+00 0.000000000000000D+00 0.137445183660120D+04
 0.866927065823883D+03 0.000000000000000D+00 0.000000000000000D+00 -.866927065823883D+03
 0.732607584955081D+03 -.584615544290154D+02 -.517221454657574D+03 -.509225756492139D+03
 0.187042638325312D+03 -.140812528694482D+03 0.307834572991862D+01 0.123074384426355D+03
 0.277408070330158D+03 -.174923177635116D+03 0.108096621689875D+03 0.186204832884573D+03
 0.233797911760397D+03 -.527120565050767D+02 -.599085366870537D+02 0.199946539181211D+03
 0.810522697054134D+03 0.426909317263690D+03 0.465955023924834D+03 0.507524770777314D+03
0.520484475783D-03 0.000000000000D+00 0.000000000000D+00 0.852021375485D-05 0.000000000000D+00  7 -2 1 -24 -11 11 23 21 0 0.13820468D+00 0.70557552D-01 0.14394375D+06 0.14394375D+06 0.14394375D+06 0.11089671D+01  1  2  2  1  7  1       -2 0.107994909874D-02 0.100000000000D+01
-.191961578608D-04 0.000000000000D+00 -.199879743372D-05 0.852021375485D-05 0.000000000000D+00  7 -2 1 -24 -11 11 23 21 2 0.13820468D+00 0.70557552D-01 0.14394375D+06 0.14394375D+06 0.14394375D+06 0.11089671D+01  1  2  3  1  7  1       -2 -.489831999654D-04 0.100000000000D+01
0.323098829194D-04 0.000000000000D+00 0.000000000000D+00 0.852021375485D-05 0.000000000000D+00  7 -2 1 -24 -11 11 23 21 2 0.13820468D+00 0.70557552D-01 0.14394375D+06 0.14394375D+06 0.14394375D+06 0.11089671D+01  1  2 15  1  7  1       -2 0.824457408286D-04 0.100000000000D+01
0.272199665629D-05 0.000000000000D+00 -.139539308051D-03 0.852021375485D-05 0.000000000000D+00  7 -2 1 -24 -11 11 23 21 2 0.33852557D+00 0.70557552D-01 0.14394375D+06 0.14394375D+06 0.14394375D+06 0.11089671D+01  1  2  5  1  7  1       -2 0.307872238759D-06 0.100000000000D+01
0.897413011090D-05 0.000000000000D+00 -.137171925499D-04 0.852021375485D-05 0.000000000000D+00  7 21 1 -24 -11 11 23 2 2 0.33852557D+00 0.70557552D-01 0.14394375D+06 0.14394375D+06 0.14394375D+06 0.11089671D+01  1  2  5  3  7  1       -2 0.748319471677D-05 0.100000000000D+01
  </mgrwgt>
  </event>
  <event>
  8     66 0.26562228E-05 0.26726654E+03 0.75467711E-02 0.93950748E-01
       -2 -1    0    0    0  501 0.00000000E+00 0.00000000E+00 0.18960705E+03 0.18960732E+03 0.32000000E+00 0.0000E+00 0.9000E+01
        1 -1    0    0  501    0 0.00000000E+00 0.00000000E+00 -.43911124E+03 0.43911136E+03 0.32000000E+00 0.0000E+00 0.9000E+01
       25  2    1    2    0    0 -.16156461E+03 0.57853190E+02 -.42452839E+02 0.34802741E+03 0.29978445E+03 0.0000E+00 0.0000E+00
       23  2    3    3    0    0 -.21405289E+03 0.61728199E+02 -.36742928E+02 0.24258600E+03 0.88706903E+02 0.0000E+00 0.0000E+00
      -24  1    1    2    0    0 0.16156461E+03 -.57853190E+02 -.20705135E+03 0.28069128E+03 0.80419002E+02 0.0000E+00 0.9000E+01
      -13  1    4    4    0    0 -.19298911E+03 0.82737898E+02 -.33958857E+02 0.21270536E+03 0.10565837E+00 0.0000E+00 0.9000E+01
       13  1    4    4    0    0 -.21063781E+02 -.21009699E+02 -.27840705E+01 0.29880639E+02 0.10565837E+00 0.0000E+00 0.9000E+01
       23  1    3    3    0    0 0.52488284E+02 -.38750085E+01 -.57099111E+01 0.10544141E+03 0.91188000E+02 0.0000E+00 0.9000E+01
#aMCatNLO 1  0  0  2  2 0.40765909D+03 0.00000000D+00  -5  7  0 0.00000000D+00 0.00000000D+00 0.00000000D+00 0.00000000D+00 0.00000000D+00
  <mgrwgt>
 0.1447335509D-02    5    2    0
 0.288545853870139D+03 0.000000000000000D+00 0.000000000000000D+00 0.288545853870139D+03
 0.288545853870139D+03 0.000000000000000D+00 0.000000000000000D+00 -.288545853870139D+03
 0.216283940335655D+03 0.161564606101425D+03 -.578531901044485D+02 -.104218104678490D+03
 0.217052346727493D+03 -.192989352531124D+03 0.827380447433376D+02 0.549658710617653D+02
 0.313498288329650D+02 -.210635373958454D+02 -.210098461781603D+02 0.988562207451157D+01
 0.112405591844166D+03 0.524882838255450D+02 -.387500846072883D+01 0.393666115422136D+02
 0.000000000000000D+00 0.000000000000000D+00 -.000000000000000D+00 -.000000000000000D+00
 0.430082168103183D+03 0.000000000000000D+00 0.000000000000000D+00 0.430082168103183D+03
 0.894216743347161D+03 0.000000000000000D+00 0.000000000000000D+00 -.894216743347161D+03
 0.155601105394822D+03 0.786890307179012D+02 0.262889928985567D+02 -.104218104678490D+03
 0.403050355348666D+03 -.331180895378709D+03 0.223041602624407D+03 0.549658710617653D+02
 0.382502471808832D+02 -.365741001694964D+02 -.526223169294479D+01 0.988562207451157D+01
 0.109653861174735D+03 0.300174181592173D+01 0.463678484327565D+02 0.393666115422136D+02
 0.617743342351238D+03 0.286064223014382D+03 -.290436212262775D+03 -.464134575243979D+03
0.235377696603D-04 0.000000000000D+00 0.000000000000D+00 0.648977768081D-06 0.000000000000D+00  7 -2 1 -24 -13 13 23 21 0 0.29170345D-01 0.67555606D-01 0.71431405D+05 0.71431405D+05 0.71431405D+05 0.11339130D+01  1  2  2  2  7  2        1 0.143549525579D-02 0.100000000000D+01
-.129832309721D-05 0.000000000000D+00 -.903912331328D-07 0.648977768081D-06 0.000000000000D+00  7 -2 1 -24 -13 13 23 21 2 0.29170345D-01 0.67555606D-01 0.71431405D+05 0.71431405D+05 0.71431405D+05 0.11339130D+01  1  2  3  2  7  2        1 -.101807257213D-03 0.100000000000D+01
0.151187549280D-05 0.000000000000D+00 0.000000000000D+00 0.648977768081D-06 0.000000000000D+00  7 -2 1 -24 -13 13 23 21 2 0.29170345D-01 0.67555606D-01 0.71431405D+05 0.71431405D+05 0.71431405D+05 0.11339130D+01  1  2 15  2  7  2        1 0.118552845205D-03 0.100000000000D+01
-.666990311909D-06 0.000000000000D+00 -.867344195203D-05 0.648977768081D-06 0.000000000000D+00  7 -2 1 -24 -13 13 23 21 2 0.29170345D-01 0.26138281D+00 0.71431405D+05 0.71431405D+05 0.71431405D+05 0.11339130D+01  1  2  5  2  7  2        1 -.512213915679D-05 0.100000000000D+01
0.407219872001D-07 0.000000000000D+00 -.139425958879D-05 0.648977768081D-06 0.000000000000D+00  7 -2 21 -24 -13 13 23 -1 2 0.29170345D-01 0.26138281D+00 0.71431405D+05 0.71431405D+05 0.71431405D+05 0.11339130D+01  1  2  5  4  7  2        1 0.216804282334D-06 0.100000000000D+01
  </mgrwgt>
  </event>
  <event>
  9     66 0.26562228E-05 0.28927310E+03 0.75467711E-02 0.96097182E-01
       -2 -1    0    0    0  501 0.00000000E+00 0.00000000E+00 0.16051899E+03 0.16051931E+03 0.32000000E+00 0.0000E+00 0.9000E+01
        1 -1    0    0  502    0 0.00000000E+00 0.00000000E+00 -.14262838E+04 0.14262839E+04 0.32000000E+00 0.0000E+00 0.9000E+01
       25  2    1    2    0    0 -.20568048E+03 -.13429136E+03 -.27739911E+03 0.47661169E+03 0.29978294E+03 0.0000E+00 0.0000E+00
       23  2    3    3    0    0 -.19016822E+03 0.81716424E+01 -.10235516E+03 0.23270193E+03 0.86272121E+02 0.0000E+00 0.0000E+00
      -24  1    1    2    0    0 -.15264608E+02 0.24228145E+03 -.43431742E+03 0.50401602E+03 0.80419002E+02 0.0000E+00 0.9000E+01
      -11  1    4    4    0    0 -.15324386E+03 -.29236081E+02 -.70110048E+02 0.17103757E+03 0.51099893E-03 0.0000E+00 0.9000E+01
       11  1    4    4    0    0 -.36924360E+02 0.37407724E+02 -.32245111E+02 0.61664361E+02 0.51099893E-03 0.0000E+00 0.9000E+01
       23  1    3    3    0    0 -.15512261E+02 -.14246301E+03 -.17504395E+03 0.24390977E+03 0.91188000E+02 0.0000E+00 0.9000E+01
       21  1    1    2  502  501 0.22094509E+03 -.10799009E+03 -.55404830E+03 0.60617544E+03 0.75000000E+00 0.0000E+00 0.9000E+01
#aMCatNLO 2  0  0  2  1 0.24592396D+03 0.00000000D+00  -5  7  0 0.00000000D+00 0.00000000D+00 0.00000000D+00 0.00000000D+00 0.00000000D+00
  <mgrwgt>
 0.1485883618D-03    2    2    0
 0.314090631511807D+03 0.000000000000000D+00 0.000000000000000D+00 0.314090631511807D+03
 0.314090631511807D+03 0.000000000000000D+00 0.000000000000000D+00 -.314090631511807D+03
 0.247706454603283D+03 0.732892572400142D+02 0.198999478920736D+03 -.995949991728525D+02
 0.138693127946131D+03 -.100101069238575D+03 -.552103856673217D+02 0.785326237384268D+02
 0.403107897555716D+02 -.206552995451251D+02 0.294559863074796D+02 0.181841480986222D+02
 0.201470890718629D+03 0.474671115436863D+02 -.173245079560894D+03 0.287822733580345D+01
 0.000000000000000D+00 0.000000000000000D+00 -.000000000000000D+00 -.000000000000000D+00
 0.402685830961595D+03 0.000000000000000D+00 0.000000000000000D+00 0.402685830961595D+03
 0.568546010002433D+03 0.000000000000000D+00 0.000000000000000D+00 -.568546010002433D+03
 0.274444331047826D+03 -.152646081380050D+02 0.242281453619692D+03 -.995949991728525D+02
 0.174659104979954D+03 -.153243862877843D+03 -.292360813282866D+02 0.785326237384268D+02
 0.556184271064412D+02 -.369243604931510D+02 0.374077237197576D+02 0.181841480986222D+02
 0.169881940950386D+03 -.155122606358610D+02 -.142463006055744D+03 0.287822733580345D+01
 0.296628036879421D+03 0.220945092144860D+03 -.107990089955419D+03 -.165860179040839D+03
-.393622215064D-06 0.000000000000D+00 0.000000000000D+00 0.168549363150D-06 0.000000000000D+00  7 -2 1 -24 -11 11 23 21 2 0.19262014D-01 0.22506314D+00 0.19363802D+06 0.19363802D+06 0.19363802D+06 0.10989053D+01  1  2 13  2  7  2        1 -.793747225859D-05 0.100000000000D+01
0.111484678523D-04 0.000000000000D+00 0.000000000000D+00 0.168549363150D-06 0.214403999191D-10  7 -2 1 -24 -11 11 23 21 2 0.24695230D-01 0.21942807D+00 0.19363802D+06 0.19363802D+06 0.19363802D+06 0.10989053D+01  1  2  1  2  7  2        1 0.156525834105D-03 0.100000000000D+01
  </mgrwgt>
  </event>
  <event>
  8     66 0.26562228E-05 0.20481109E+03 0.75467711E-02 0.10545061E+00
       -4 -1    0    0    0  501 0.00000000E+00 0.00000000E+00 0.32635242E+03 0.32635610E+03 0.15500000E+01 0.0000E+00 0.9000E+01
        3 -1    0    0  501    0 0.00000000E+00 0.00000000E+00 -.14353634E+03 0.14353721E+03 0.50000000E+00 0.0000E+00 0.9000E+01
       25  2    1    2    0    0 -.49168114E+02 0.67630452E+02 0.92503677E+02 0.32287315E+03 0.29782337E+03 0.0000E+00 0.0000E+00
       23  2    3    3    0    0 -.61046451E+02 -.70794108E+02 0.86651501E+02 0.15658439E+03 0.90948959E+02 0.0000E+00 0.0000E+00
      -24  1    1    2    0    0 0.49168114E+02 -.67630452E+02 0.90312400E+02 0.14702016E+03 0.80419002E+02 0.0000E+00 0.9000E+01
      -11  1    4    4    0    0 0.20754831E+02 -.25808656E+01 0.28137542E+02 0.35059167E+02 0.51099893E-03 0.0000E+00 0.9000E+01
       11  1    4    4    0    0 -.81801282E+02 -.68213243E+02 0.58513959E+02 0.12152522E+03 0.51099893E-03 0.0000E+00 0.9000E+01
       23  1    3    3    0    0 0.11878337E+02 0.13842456E+03 0.58521763E+01 0.16628876E+03 0.91188000E+02 0.0000E+00 0.9000E+01
#aMCatNLO 1  0  0  1  1 0.15607744D+02 0.00000000D+00  -5  7  0 0.00000000D+00 0.00000000D+00 0.00000000D+00 0.00000000D+00 0.00000000D+00
  <mgrwgt>
 0.2589232115D-03    4    2    0
 0.216435906062692D+03 0.000000000000000D+00 0.000000000000000D+00 0.216435906062692D+03
 0.216435906062692D+03 0.000000000000000D+00 0.000000000000000D+00 -.216435906062692D+03
 0.121452191949869D+03 0.491681144794722D+02 -.676304517926431D+02 0.359449229226286D+02
 0.261741985716310D+02 0.207548310266180D+02 -.258086559375443D+01 0.157373693071835D+02
 0.107206326058736D+03 -.818012823831956D+02 -.682132425272318D+02 0.121942646927883D+02
 0.178039095545147D+03 0.118783368771055D+02 0.138424559913629D+03 -.638765569226004D+02
 0.000000000000000D+00 0.000000000000000D+00 -.000000000000000D+00 -.000000000000000D+00
 0.218371345868386D+03 0.000000000000000D+00 0.000000000000000D+00 0.218371345868386D+03
 0.250508211361164D+03 0.000000000000000D+00 0.000000000000000D+00 -.250508211361164D+03
 0.118844457447491D+03 0.453094469717828D+02 -.656643407247459D+02 0.359449229226286D+02
 0.254821839570223D+02 0.199253362944693D+02 -.215821223728099D+01 0.157373693071835D+02
 0.108787356695463D+03 -.852696944796606D+02 -.664459787250775D+02 0.121942646927883D+02
 0.180039101170174D+03 0.612834116829061D+01 0.141354361504705D+03 -.638765569226004D+02
 0.357264579593993D+02 0.139065700451179D+02 -.708582981760102D+01 -.321368654927787D+02
0.136688542340D-04 0.000000000000D+00 0.000000000000D+00 0.680667976101D-07 0.000000000000D+00  7 -4 3 -24 -11 11 23 21 0 0.50208414D-01 0.22082864D-01 0.41947582D+05 0.41947582D+05 0.41947582D+05 0.11540645D+01  1  2  2  1  7  1       -4 0.304175932178D-03 0.100000000000D+01
-.756566814975D-06 0.000000000000D+00 -.524919993506D-07 0.680667976101D-07 0.000000000000D+00  7 -4 3 -24 -11 11 23 21 2 0.50208414D-01 0.22082864D-01 0.41947582D+05 0.41947582D+05 0.41947582D+05 0.11540645D+01  1  2  3  1  7  1       -4 -.224233333827D-04 0.100000000000D+01
0.891140911306D-06 0.000000000000D+00 0.000000000000D+00 0.680667976101D-07 0.000000000000D+00  7 -4 3 -24 -11 11 23 21 2 0.50208414D-01 0.22082864D-01 0.41947582D+05 0.41947582D+05 0.41947582D+05 0.11540645D+01  1  2 15  1  7  1       -4 0.264118771134D-04 0.100000000000D+01
-.166140804972D-05 0.000000000000D+00 0.000000000000D+00 0.680667976101D-07 0.000000000000D+00  7 -4 3 -24 -11 11 23 21 2 0.50208414D-01 0.22082864D-01 0.41947582D+05 0.41947582D+05 0.41947582D+05 0.11540645D+01  1  2  4  1  7  1       -4 -.492412644147D-04 0.100000000000D+01
  </mgrwgt>
  </event>
  <event>
  8     66 0.26562228E-05 0.28090792E+03 0.75467711E-02 0.99532691E-01
       -2 -1    0    0    0  501 0.00000000E+00 0.00000000E+00 0.83667672E+02 0.83668283E+02 0.32000000E+00 0.0000E+00 0.9000E+01
        1 -1    0    0  501    0 0.00000000E+00 0.00000000E+00 -.12159370E+04 0.12159370E+04 0.32000000E+00 0.0000E+00 0.9000E+01
       25  2    1    2    0    0 -.18565387E+02 0.21685663E+03 -.47452240E+03 0.60213152E+03 0.30003231E+03 0.0000E+00 0.0000E+00
       23  2    3    3    0    0 0.13980870E+02 -.18252170E+02 -.23538219E+03 0.25307751E+03 0.90082443E+02 0.0000E+00 0.0000E+00
      -24  1    1    2    0    0 0.18565387E+02 -.21685663E+03 -.65774691E+03 0.69747379E+03 0.80419002E+02 0.0000E+00 0.9000E+01
      -13  1    4    4    0    0 0.42268143E+02 -.78895543E+00 -.20043245E+03 0.20484237E+03 0.10565837E+00 0.0000E+00 0.9000E+01
       13  1    4    4    0    0 -.28287273E+02 -.17463214E+02 -.34949739E+02 0.48235144E+02 0.10565837E+00 0.0000E+00 0.9000E+01
       23  1    3    3    0    0 -.32546257E+02 0.23510880E+03 -.23914022E+03 0.34905401E+03 0.91188000E+02 0.0000E+00 0.9000E+01
#aMCatNLO 1  0  0  2  2 0.95993979D+02 0.00000000D+00  -5  7  0 0.00000000D+00 0.00000000D+00 0.00000000D+00 0.00000000D+00 0.00000000D+00
  <mgrwgt>
 0.5065032080D-03    4    2    0
 0.318959310044483D+03 0.000000000000000D+00 0.000000000000000D+00 0.318959310044483D+03
 0.318959310044483D+03 0.000000000000000D+00 0.000000000000000D+00 -.318959310044483D+03
 0.253471200267679D+03 0.185653872347446D+02 -.216856632935433D+03 -.102024313570334D+03
 0.615607376851938D+02 0.422682394970929D+02 -.788932617061201D+00 -.447492786476762D+02
 0.362336335982468D+02 -.282873697803954D+02 -.174632373087678D+02 0.144130585698120D+02
 0.286653048537847D+03 -.325462569514422D+02 0.235108802861262D+03 0.132360533648198D+03
 0.000000000000000D+00 0.000000000000000D+00 0.000000000000000D+00 0.000000000000000D+00
 0.382095436444452D+03 0.000000000000000D+00 0.000000000000000D+00 0.382095436444452D+03
 0.361238927232203D+03 0.000000000000000D+00 0.000000000000000D+00 -.361238927232203D+03
 0.280389425722545D+03 -.592727647341974D+01 -.248408777897960D+03 -.102024313570334D+03
 0.584473831360497D+02 0.367624606431617D+02 -.788163329677305D+01 -.447492786476762D+02
 0.413275865757715D+02 -.318457533547478D+02 -.220472480847298D+02 0.144130585698120D+02
 0.264936379510735D+03 -.578522894784037D+02 0.202508853087284D+03 0.132360533648198D+03
 0.982335887315542D+02 0.588628586634095D+02 0.758288061921785D+02 0.208565092122492D+02
0.207954800764D-04 0.000000000000D+00 0.000000000000D+00 0.209224830703D-05 0.000000000000D+00  7 -2 1 -24 -13 13 23 21 0 0.12872000D-01 0.18706728D+00 0.78909260D+05 0.78909260D+05 0.78909260D+05 0.11302629D+01  1  2  2  2  7  2        1 0.998299269544D-03 0.100000000000D+01
-.113263527259D-05 0.000000000000D+00 -.798601190691D-07 0.209224830703D-05 0.000000000000D+00  7 -2 1 -24 -13 13 23 21 2 0.12872000D-01 0.18706728D+00 0.78909260D+05 0.78909260D+05 0.78909260D+05 0.11302629D+01  1  2  3  2  7  2        1 -.694609707969D-04 0.100000000000D+01
0.134865062087D-05 0.000000000000D+00 0.000000000000D+00 0.209224830703D-05 0.000000000000D+00  7 -2 1 -24 -13 13 23 21 2 0.12872000D-01 0.18706728D+00 0.78909260D+05 0.78909260D+05 0.78909260D+05 0.11302629D+01  1  2 15  2  7  2        1 0.827085149640D-04 0.100000000000D+01
-.823527508300D-05 0.000000000000D+00 0.000000000000D+00 0.209224830703D-05 0.000000000000D+00  7 -2 1 -24 -13 13 23 21 2 0.12872000D-01 0.18706728D+00 0.78909260D+05 0.78909260D+05 0.78909260D+05 0.11302629D+01  1  2  4  2  7  2        1 -.505043605729D-03 0.100000000000D+01
  </mgrwgt>
  </event>
  <event>
  8     66 0.26562228E-05 0.22689584E+03 0.75467711E-02 0.81963614E-01
       -2 -1    0    0    0  501 0.00000000E+00 0.00000000E+00 0.58395150E+03 0.58395158E+03 0.32000000E+00 0.0000E+00 0.9000E+01
        1 -1    0    0  501    0 0.00000000E+00 0.00000000E+00 -.18657676E+03 0.18657703E+03 0.32000000E+00 0.0000E+00 0.9000E+01
       25  2    1    2    0    0 -.11586769E+03 -.79772750E+02 -.10321407E+02 0.33181187E+03 0.30033910E+03 0.0000E+00 0.0000E+00
       23  2    3    3    0    0 -.17060053E+03 -.27828413E+02 -.53971101E+02 0.20565941E+03 0.97488205E+02 0.0000E+00 0.0000E+00
      -24  1    1    2    0    0 0.11586769E+03 0.79772750E+02 0.40769615E+03 0.43871674E+03 0.80419002E+02 0.0000E+00 0.9000E+01
      -13  1    4    4    0    0 -.72910483E+02 -.18749339E+02 -.73957883E+02 0.10553320E+03 0.10565837E+00 0.0000E+00 0.9000E+01
       13  1    4    4    0    0 -.97690049E+02 -.90790748E+01 0.19986782E+02 0.10012621E+03 0.10565837E+00 0.0000E+00 0.9000E+01
       23  1    3    3    0    0 0.54732838E+02 -.51944337E+02 0.43649694E+02 0.12615247E+03 0.91188000E+02 0.0000E+00 0.9000E+01
#aMCatNLO 1  0  0  1  1 0.18003420D+04 0.00000000D+00  -5  7  0 0.00000000D+00 0.00000000D+00 0.00000000D+00 0.00000000D+00 0.00000000D+00
  <mgrwgt>
 0.7427269350D-03    5    2    0
 0.330078650392318D+03 0.000000000000000D+00 0.000000000000000D+00 0.330078650392318D+03
 0.330078650392318D+03 0.000000000000000D+00 0.000000000000000D+00 -.330078650392318D+03
 0.266657131443689D+03 0.115867693819616D+03 0.797727503080455D+02 0.211777703341547D+03
 0.167695471030223D+03 -.729104657307756D+02 -.187493474549653D+02 -.149847579096169D+03
 0.104835344292158D+03 -.976900726468185D+02 -.907906257860462D+01 -.369414366505745D+02
 0.120969354018565D+03 0.547328445579783D+02 -.519443402744756D+02 -.249886875948035D+02
 0.000000000000000D+00 0.000000000000000D+00 0.000000000000000D+00 0.000000000000000D+00
 0.335749432206388D+04 0.000000000000000D+00 0.000000000000000D+00 0.335749432206388D+04
 0.129658958584097D+04 0.000000000000000D+00 0.000000000000000D+00 -.129658958584097D+04
 0.417514879896524D+03 -.349561016357136D+03 -.284386918015557D+02 0.211777703341547D+03
 0.692356263410681D+03 -.657986678746244D+03 -.154778645540992D+03 -.149847579096169D+03
 0.569615951091532D+03 -.556505971696181D+03 -.115753036515644D+03 -.369414366505745D+02
 0.238073558246146D+03 -.189516959268581D+03 -.108732034993656D+03 -.249886875948035D+02
 0.273652325525997D+04 0.175357062606814D+04 0.407702408851847D+03 0.206090473622291D+04
0.360641552080D-04 0.000000000000D+00 0.000000000000D+00 0.144963643530D-06 0.000000000000D+00  7 -2 1 -24 -13 13 23 21 0 0.89838720D-01 0.28704144D-01 0.51481723D+05 0.51481723D+05 0.51481723D+05 0.11461815D+01  1  2  2  1  7  1       -2 0.728357538188D-03 0.100000000000D+01
-.166128823819D-05 0.000000000000D+00 -.138495851909D-06 0.144963643530D-06 0.000000000000D+00  7 -2 1 -24 -13 13 23 21 2 0.89838720D-01 0.28704144D-01 0.51481723D+05 0.51481723D+05 0.51481723D+05 0.11461815D+01  1  2  3  1  7  1       -2 -.440778705179D-04 0.100000000000D+01
0.220249892790D-05 0.000000000000D+00 0.000000000000D+00 0.144963643530D-06 0.000000000000D+00  7 -2 1 -24 -13 13 23 21 2 0.89838720D-01 0.28704144D-01 0.51481723D+05 0.51481723D+05 0.51481723D+05 0.11461815D+01  1  2 15  1  7  1       -2 0.584374585506D-04 0.100000000000D+01
0.644123087793D-04 0.000000000000D+00 -.251636015571D-04 0.144963643530D-06 0.000000000000D+00  7 -2 1 -24 -13 13 23 21 2 0.96078146D+00 0.28704144D-01 0.51481723D+05 0.51481723D+05 0.51481723D+05 0.11461815D+01  1  2  5  1  7  1       -2 0.980426810835D-08 0.100000000000D+01
0.137273021363D-04 0.000000000000D+00 -.704230613305D-05 0.144963643530D-06 0.000000000000D+00  7 21 1 -24 -13 13 23 2 2 0.96078146D+00 0.28704144D-01 0.51481723D+05 0.51481723D+05 0.51481723D+05 0.11461815D+01  1  2  5  3  7  1       -2 0.452402153877D-11 0.100000000000D+01
  </mgrwgt>
  </event>
  <event>
  8     66 0.26562228E-05 0.18619489E+03 0.75467711E-02 0.10584058E+00
       -2 -1    0    0    0  501 0.00000000E+00 0.00000000E+00 0.13014825E+03 0.13014865E+03 0.32000000E+00 0.0000E+00 0.9000E+01
        1 -1    0    0  501    0 0.00000000E+00 0.00000000E+00 -.46003912E+03 0.46003924E+03 0.32000000E+00 0.0000E+00 0.9000E+01
       25  2    1    2    0    0 -.55900996E+02 0.10719571E+02 -.37408248E+03 0.48220666E+03 0.29890756E+03 0.0000E+00 0.0000E+00
       23  2    3    3    0    0 0.18193510E+02 -.97146729E+02 -.23419969E+03 0.27005676E+03 0.91173826E+02 0.0000E+00 0.0000E+00
      -24  1    1    2    0    0 0.55900996E+02 -.10719571E+02 0.44191608E+02 0.10798122E+03 0.80419002E+02 0.0000E+00 0.9000E+01
      -11  1    4    4    0    0 0.29441427E+02 -.18182020E+02 -.15054674E+03 0.15447234E+03 0.51099893E-03 0.0000E+00 0.9000E+01
       11  1    4    4    0    0 -.11247916E+02 -.78964709E+02 -.83652946E+02 0.11558441E+03 0.51099893E-03 0.0000E+00 0.9000E+01
       23  1    3    3    0    0 -.74094506E+02 0.10786630E+03 -.13988279E+03 0.21214990E+03 0.91188000E+02 0.0000E+00 0.9000E+01
#aMCatNLO 1  0  0  1  1 0.37085779D+02 0.00000000D+00  -5  7  0 0.00000000D+00 0.00000000D+00 0.00000000D+00 0.00000000D+00 0.00000000D+00
  <mgrwgt>
 0.6692046865D-03    4    2    0
 0.244690492837245D+03 0.000000000000000D+00 0.000000000000000D+00 0.244690492837245D+03
 0.244690492837245D+03 0.000000000000000D+00 0.000000000000000D+00 -.244690492837245D+03
 0.160013609110525D+03 0.559009960194036D+02 -.107195708015458D+02 0.126084529550912D+03
 0.848085864539106D+02 0.294414266053878D+02 -.181820203589878D+02 -.774281142183855D+02
 0.830031758658503D+02 -.112479164321430D+02 -.789647089482948D+02 -.229692472768240D+02
 0.161555614244204D+03 -.740945061926484D+02 0.107866300108828D+03 -.256871680557022D+02
 0.000000000000000D+00 -.000000000000000D+00 -.000000000000000D+00 -.000000000000000D+00
 0.251183932722136D+03 0.000000000000000D+00 0.000000000000000D+00 0.251183932722136D+03
 0.304758086205796D+03 0.000000000000000D+00 0.000000000000000D+00 -.304758086205796D+03
 0.163029232967355D+03 0.648703936466645D+02 -.241625404412161D+01 0.126084529550912D+03
 0.857529809570729D+02 0.341771282485437D+02 -.137979989959182D+02 -.774281142183855D+02
 0.785505170892535D+02 -.676232157745985D+01 -.748122210698776D+02 -.229692472768240D+02
 0.163451441659773D+03 -.650705714807150D+02 0.116220103945528D+03 -.256871680557022D+02
 0.651578462544767D+02 -.272146288370333D+02 -.251936298356107D+02 -.535741534836601D+02
0.722215449554D-05 0.000000000000D+00 0.000000000000D+00 0.403849522208D-06 0.000000000000D+00  7 -2 1 -24 -11 11 23 21 0 0.20022847D-01 0.70775289D-01 0.34668536D+05 0.34668536D+05 0.34668536D+05 0.11615524D+01  1  2  2  1  7  1       -2 0.779863775747D-03 0.100000000000D+01
-.364819368070D-06 0.000000000000D+00 -.277349748998D-07 0.403849522208D-06 0.000000000000D+00  7 -2 1 -24 -11 11 23 21 2 0.20022847D-01 0.70775289D-01 0.34668536D+05 0.34668536D+05 0.34668536D+05 0.11615524D+01  1  2  3  1  7  1       -2 -.531505135780D-04 0.100000000000D+01
0.458960298379D-06 0.000000000000D+00 0.000000000000D+00 0.403849522208D-06 0.000000000000D+00  7 -2 1 -24 -11 11 23 21 2 0.20022847D-01 0.70775289D-01 0.34668536D+05 0.34668536D+05 0.34668536D+05 0.11615524D+01  1  2 15  1  7  1       -2 0.668659005135D-04 0.100000000000D+01
-.853692932413D-06 0.000000000000D+00 0.000000000000D+00 0.403849522208D-06 0.000000000000D+00  7 -2 1 -24 -11 11 23 21 2 0.20022847D-01 0.70775289D-01 0.34668536D+05 0.34668536D+05 0.34668536D+05 0.11615524D+01  1  2  4  1  7  1       -2 -.124374476157D-03 0.100000000000D+01
  </mgrwgt>
  </event>
  <event>
  9     66 0.26562228E-05 0.38442272E+03 0.75467711E-02 0.97047247E-01
       -4 -1    0    0    0  502 0.00000000E+00 0.00000000E+00 0.15372123E+03 0.15372905E+03 0.15500000E+01 0.0000E+00 0.9000E+01
        3 -1    0    0  501    0 0.00000000E+00 0.00000000E+00 -.12877526E+04 0.12877527E+04 0.50000000E+00 0.0000E+00 0.9000E+01
       25  2    1    2    0    0 0.11056430E+02 -.34895567E+03 -.69724199E+03 0.83531638E+03 0.29952421E+03 0.0000E+00 0.0000E+00
       23  2    3    3    0    0 -.21465128E+02 -.28743522E+03 -.63875771E+03 0.70656048E+03 0.90202795E+02 0.0000E+00 0.0000E+00
      -24  1    1    2    0    0 -.53521903E+02 0.34708171E+03 -.31996362E+03 0.48184462E+03 0.80419002E+02 0.0000E+00 0.9000E+01
      -11  1    4    4    0    0 -.36942813E+02 -.10084052E+03 -.16210436E+03 0.19445155E+03 0.51099893E-03 0.0000E+00 0.9000E+01
       11  1    4    4    0    0 0.15477685E+02 -.18659470E+03 -.47665336E+03 0.51210894E+03 0.51099893E-03 0.0000E+00 0.9000E+01
       23  1    3    3    0    0 0.32521558E+02 -.61520453E+02 -.58484276E+02 0.12875589E+03 0.91188000E+02 0.0000E+00 0.9000E+01
       21  1    1    2  501  502 0.42465473E+02 0.18739633E+01 -.11682576E+03 0.12432075E+03 0.75000000E+00 0.0000E+00 0.9000E+01
#aMCatNLO 2  0  0  1  1 0.42506801D+02 0.00000000D+00  -5  7  0 0.00000000D+00 0.00000000D+00 0.00000000D+00 0.00000000D+00 0.00000000D+00
  <mgrwgt>
 0.1403112543D-04    1    2    0
 0.417851354010643D+03 0.000000000000000D+00 0.000000000000000D+00 0.417851354010643D+03
 0.417851354010643D+03 0.000000000000000D+00 0.000000000000000D+00 -.417851354010643D+03
 0.368044446578398D+03 -.347949752813367D+02 0.347908110997891D+03 0.820899183814873D+02
 0.107062914836815D+03 -.314561955521089D+02 -.100598400128992D+03 -.187866278567990D+02
 0.227333289524636D+03 0.270051718211708D+02 -.186086001911142D+03 -.127762064454702D+03
 0.133262057081437D+03 0.392459990122747D+02 -.612237089577570D+02 0.644587739300137D+02
 0.000000000000000D+00 0.000000000000000D+00 0.000000000000000D+00 -.000000000000000D+00
 0.428843290355276D+03 0.000000000000000D+00 0.000000000000000D+00 0.428843290355276D+03
 0.461609734620761D+03 0.000000000000000D+00 0.000000000000000D+00 -.461609734620761D+03
 0.369508155722584D+03 -.535219034798249D+02 0.347081708447956D+03 0.820899183814873D+02
 0.109025314466069D+03 -.369428126992370D+02 -.100840519624130D+03 -.187866278567990D+02
 0.226672198886908D+03 0.154776846200165D+02 -.186594699585230D+03 -.127762064454702D+03
 0.131577363950457D+03 0.325215581977204D+02 -.615204525014463D+02 0.644587739300137D+02
 0.536699919500187D+02 0.424654733613251D+02 0.187396326284965D+01 -.327664442654852D+02
0.160255975829D-04 0.000000000000D+00 0.000000000000D+00 0.239559253504D-05 0.866907441503D-08  7 -4 3 -24 -11 11 23 21 2 0.23649887D-01 0.19811520D+00 0.16488389D+06 0.16488389D+06 0.16488389D+06 0.11043241D+01  1  2  1  1  7  1       -4 0.140311254290D-04 0.100000000000D+01
  </mgrwgt>
  </event>
  <event>
  8     66 0.26562228E-05 0.21785688E+03 0.75467711E-02 0.10260272E+00
       -2 -1    0    0    0  501 0.00000000E+00 0.00000000E+00 0.36109260E+03 0.36109274E+03 0.32000000E+00 0.0000E+00 0.9000E+01
        1 -1    0    0  501    0 0.00000000E+00 0.00000000E+00 -.45607972E+03 0.45607984E+03 0.32000000E+00 0.0000E+00 0.9000E+01
       25  2    1    2    0    0 0.65914510E+02 0.94562900E+02 -.38049249E+03 0.49894720E+03 0.30147455E+03 0.0000E+00 0.0000E+00
       23  2    3    3    0    0 -.65369578E+02 0.98128769E+02 -.25232903E+03 0.29403416E+03 0.94253456E+02 0.0000E+00 0.0000E+00
      -24  1    1    2    0    0 -.65914510E+02 -.94562900E+02 0.28550537E+03 0.31822538E+03 0.80419002E+02 0.0000E+00 0.9000E+01
      -13  1    4    4    0    0 -.76642358E+02 0.65706178E+02 -.11753584E+03 0.15493882E+03 0.10565837E+00 0.0000E+00 0.9000E+01
       13  1    4    4    0    0 0.11272780E+02 0.32422590E+02 -.13479319E+03 0.13909535E+03 0.10565837E+00 0.0000E+00 0.9000E+01
       23  1    3    3    0    0 0.13128409E+03 -.35658689E+01 -.12816346E+03 0.20491303E+03 0.91188000E+02 0.0000E+00 0.9000E+01
#aMCatNLO 1  0  0  2  2 0.85336822D+02 0.00000000D+00  -5  7  0 0.00000000D+00 0.00000000D+00 0.00000000D+00 0.00000000D+00 0.00000000D+00
  <mgrwgt>
 0.1277930233D-02    4    2    0
 0.405816607415268D+03 0.000000000000000D+00 0.000000000000000D+00 0.405816607415268D+03
 0.405816607415268D+03 0.000000000000000D+00 0.000000000000000D+00 -.405816607415268D+03
 0.353810548308122D+03 -.659145104015568D+02 -.945629001269773D+02 0.324696509648351D+03
 0.142240827647185D+03 -.766424670479939D+02 0.657062196502109D+02 -.100205179476071D+03
 0.124269517023159D+03 0.112728888470150D+02 0.324225489929365D+02 -.119434555950163D+03
 0.191312321852069D+03 0.131284088602536D+03 -.356586851617008D+01 -.105056774222116D+03
 0.000000000000000D+00 -.000000000000000D+00 0.000000000000000D+00 0.000000000000000D+00
 0.707159293581029D+03 0.000000000000000D+00 0.000000000000000D+00 0.707159293581029D+03
 0.414140353796063D+03 0.000000000000000D+00 0.000000000000000D+00 -.414140353796063D+03
 0.351928720296465D+03 -.304286834026864D+02 -.105037517410182D+03 0.324696509648351D+03
 0.133340405397959D+03 -.627857519762774D+02 0.616160292994756D+02 -.100205179476071D+03
 0.125126199776425D+03 0.238129495384200D+02 0.287210053751196D+02 -.119434555950163D+03
 0.205711805139860D+03 0.151247168611772D+03 -.945852033170742D+01 -.105056774222116D+03
 0.305192516766383D+03 -.818456827712281D+02 0.241590030672939D+02 0.293018939784965D+03
0.724423406539D-04 0.000000000000D+00 0.000000000000D+00 0.195102315415D-06 0.000000000000D+00  7 -2 1 -24 -13 13 23 21 0 0.55552728D-01 0.70166131D-01 0.47461618D+05 0.47461618D+05 0.47461618D+05 0.11492910D+01  1  2  2  2  7  2        1 0.127623884401D-02 0.100000000000D+01
-.213105288995D-05 0.000000000000D+00 -.278197662617D-06 0.195102315415D-06 0.000000000000D+00  7 -2 1 -24 -13 13 23 21 2 0.55552728D-01 0.70166131D-01 0.47461618D+05 0.47461618D+05 0.47461618D+05 0.11492910D+01  1  2  3  2  7  2        1 -.495899581005D-04 0.100000000000D+01
0.443886702784D-05 0.000000000000D+00 0.000000000000D+00 0.195102315415D-06 0.000000000000D+00  7 -2 1 -24 -13 13 23 21 2 0.55552728D-01 0.70166131D-01 0.47461618D+05 0.47461618D+05 0.47461618D+05 0.11492910D+01  1  2 15  2  7  2        1 0.103293180081D-03 0.100000000000D+01
-.223512929075D-05 0.000000000000D+00 0.000000000000D+00 0.195102315415D-06 0.000000000000D+00  7 -2 1 -24 -13 13 23 21 2 0.55552728D-01 0.70166131D-01 0.47461618D+05 0.47461618D+05 0.47461618D+05 0.11492910D+01  1  2  4  2  7  2        1 -.520118333996D-04 0.100000000000D+01
  </mgrwgt>
  </event>
  <event>
  8     66 0.26562228E-05 0.17982828E+03 0.75467711E-02 0.99762329E-01
       -2 -1    0    0    0  501 0.00000000E+00 0.00000000E+00 0.78322412E+02 0.78323065E+02 0.32000000E+00 0.0000E+00 0.9000E+01
        1 -1    0    0  501    0 0.00000000E+00 0.00000000E+00 -.74705921E+03 0.74705928E+03 0.32000000E+00 0.0000E+00 0.9000E+01
       25  2    1    2    0    0 -.26108961E+02 0.11705102E+03 -.53987298E+03 0.63184755E+03 0.30559101E+03 0.0000E+00 0.0000E+00
       23  2    3    3    0    0 -.63146824E+01 0.32077922E+02 -.22819364E+02 0.99614575E+02 0.91287852E+02 0.0000E+00 0.0000E+00
      -24  1    1    2    0    0 0.26108961E+02 -.11705102E+03 -.12886382E+03 0.19353480E+03 0.80419002E+02 0.0000E+00 0.9000E+01
      -13  1    4    4    0    0 0.33938365E+02 0.34930789E+02 -.31940538E+02 0.58242439E+02 0.10565837E+00 0.0000E+00 0.9000E+01
       13  1    4    4    0    0 -.40253047E+02 -.28528671E+01 0.91211738E+01 0.41372136E+02 0.10565837E+00 0.0000E+00 0.9000E+01
       23  1    3    3    0    0 -.19794278E+02 0.84973098E+02 -.51705362E+03 0.53223297E+03 0.91188000E+02 0.0000E+00 0.9000E+01
#aMCatNLO 1  0  0  2  2 0.22654514D+03 0.00000000D+00  -5  7  0 0.00000000D+00 0.00000000D+00 0.00000000D+00 0.00000000D+00 0.00000000D+00
  <mgrwgt>
 0.7936170463D-03    5    2    0
 0.241892077723384D+03 0.000000000000000D+00 0.000000000000000D+00 0.241892077723384D+03
 0.241892077723384D+03 0.000000000000000D+00 0.000000000000000D+00 -.241892077723384D+03
 0.152060395450922D+03 0.261090499228322D+02 -.117051419211415D+03 0.476700187019149D+02
 0.552156222314463D+02 0.339384372381117D+02 0.349309520011733D+02 0.260149189607091D+02
 0.831928824684310D+02 -.402531728186661D+02 -.285280326336624D+01 0.727502528172741D+02
 0.193315255295969D+03 -.197943143422778D+02 0.849732704736075D+02 -.146435190479898D+03
 0.000000000000000D+00 0.000000000000000D+00 0.000000000000000D+00 -.000000000000000D+00
 0.371203886264299D+03 0.000000000000000D+00 0.000000000000000D+00 0.371203886264299D+03
 0.390348930971361D+03 0.000000000000000D+00 0.000000000000000D+00 -.390348930971361D+03
 0.191124468171897D+03 -.348899697661064D+02 -.163007992768144D+03 0.476700187019149D+02
 0.384335804332143D+02 0.172928617401392D+02 0.223901994010888D+02 0.260149189607091D+02
 0.107721542985464D+03 -.741870493720439D+02 -.284185369725763D+02 0.727502528172741D+02
 0.196920565870270D+03 -.891563552183306D+02 0.327160088025122D+02 -.146435190479898D+03
 0.227352659774816D+03 0.180940512616342D+03 0.136320321537119D+03 -.191450447070620D+02
0.636022704694D-05 0.000000000000D+00 0.000000000000D+00 0.143347560147D-07 0.000000000000D+00  7 -2 1 -24 -13 13 23 21 0 0.12049657D-01 0.11493224D+00 0.32338210D+05 0.32338210D+05 0.32338210D+05 0.11643238D+01  1  2  2  2  7  2        1 0.774611871398D-03 0.100000000000D+01
-.315580066882D-06 0.000000000000D+00 -.244249465465D-07 0.143347560147D-07 0.000000000000D+00  7 -2 1 -24 -13 13 23 21 2 0.12049657D-01 0.11493224D+00 0.32338210D+05 0.32338210D+05 0.32338210D+05 0.11643238D+01  1  2  3  2  7  2        1 -.521037054246D-04 0.100000000000D+01
0.418872918628D-06 0.000000000000D+00 0.000000000000D+00 0.143347560147D-07 0.000000000000D+00  7 -2 1 -24 -13 13 23 21 2 0.12049657D-01 0.11493224D+00 0.32338210D+05 0.32338210D+05 0.32338210D+05 0.11643238D+01  1  2 15  2  7  2        1 0.691578253918D-04 0.100000000000D+01
-.439583289526D-07 0.000000000000D+00 -.195331690991D-05 0.143347560147D-07 0.000000000000D+00  7 -2 1 -24 -13 13 23 21 2 0.12049657D-01 0.24748850D+00 0.32338210D+05 0.32338210D+05 0.32338210D+05 0.11643238D+01  1  2  5  2  7  2        1 -.176557664072D-05 0.100000000000D+01
0.118623816508D-06 0.000000000000D+00 -.162182168119D-06 0.143347560147D-07 0.000000000000D+00  7 -2 21 -24 -13 13 23 -1 2 0.12049657D-01 0.24748850D+00 0.32338210D+05 0.32338210D+05 0.32338210D+05 0.11643238D+01  1  2  5  4  7  2        1 0.371663157384D-05 0.100000000000D+01
  </mgrwgt>
  </event>
  <event>
  8     66 0.26562228E-05 0.24071333E+03 0.75467711E-02 0.96237400E-01
       -2 -1    0    0    0  501 0.00000000E+00 0.00000000E+00 0.86321219E+02 0.86321812E+02 0.32000000E+00 0.0000E+00 0.9000E+01
        1 -1    0    0  501    0 0.00000000E+00 0.00000000E+00 -.15947329E+04 0.15947329E+04 0.32000000E+00 0.0000E+00 0.9000E+01
       25  2    1    2    0    0 -.53420492E+02 -.14796288E+03 -.27866941E+03 0.43868602E+03 0.30007003E+03 0.0000E+00 0.0000E+00
       23  2    3    3    0    0 0.19292570E+02 0.43451018E+02 -.36628268E+02 0.10879872E+03 0.90748756E+02 0.0000E+00 0.0000E+00
      -24  1    1    2    0    0 0.53420492E+02 0.14796288E+03 -.12297422E+04 0.12423687E+04 0.80419002E+02 0.0000E+00 0.9000E+01
      -13  1    4    4    0    0 0.20814220E+02 0.60246534E+02 0.49476825E+01 0.63932521E+02 0.10565837E+00 0.0000E+00 0.9000E+01
       13  1    4    4    0    0 -.15216494E+01 -.16795515E+02 -.41575951E+02 0.44866196E+02 0.10565837E+00 0.0000E+00 0.9000E+01
       23  1    3    3    0    0 -.72713063E+02 -.19141390E+03 -.24204114E+03 0.32988731E+03 0.91188000E+02 0.0000E+00 0.9000E+01
#aMCatNLO 1  0  0  1  2 0.28616302D+03 0.00000000D+00  -5  7  0 0.00000000D+00 0.00000000D+00 0.00000000D+00 0.00000000D+00 0.00000000D+00
  <mgrwgt>
 0.2235583203D-02    3    2    0
 0.371025350659421D+03 0.000000000000000D+00 0.000000000000000D+00 0.371025350659421D+03
 0.371025350659421D+03 0.000000000000000D+00 0.000000000000000D+00 -.371025350659421D+03
 0.314711941465133D+03 0.534204923079456D+02 0.147962880468401D+03 -.260441216306969D+03
 0.154891500639963D+03 0.208142499362700D+02 0.602466378817180D+02 0.141168291744426D+03
 0.171265172718547D+02 -.152167965378664D+01 -.167956197428011D+02 -.298483539740796D+01
 0.255320741941890D+03 -.727130625904289D+02 -.191413898607318D+03 0.122257759959951D+03
 0.000000000000000D+00 0.000000000000000D+00 -.000000000000000D+00 -.000000000000000D+00
 0.438527864822775D+03 0.000000000000000D+00 0.000000000000000D+00 0.438527864822775D+03
 0.898576835666584D+03 0.000000000000000D+00 0.000000000000000D+00 -.898576835666584D+03
 0.367821962793763D+03 -.281485895207010D+02 0.245364647240852D+03 -.260441216306969D+03
 0.178668661224332D+03 -.190492586280823D+02 0.107847715114305D+03 0.141168291744426D+03
 0.137669315360150D+02 -.521373104940839D+01 -.123869354608853D+02 -.298483539740796D+01
 0.235059059160386D+03 -.131317961004463D+03 -.121433698768385D+03 0.122257759959951D+03
 0.541788085774863D+03 0.183729540202655D+03 -.219391728125887D+03 -.460048970843810D+03
0.849995445218D-04 0.000000000000D+00 0.000000000000D+00 0.104847721528D-04 0.000000000000D+00  7 -2 1 -24 -13 13 23 21 0 0.13280236D-01 0.24534357D+00 0.57942905D+05 0.57942905D+05 0.57942905D+05 0.11417055D+01  1  2  2  1  7  1       -2 0.218179783223D-02 0.100000000000D+01
-.364739982305D-05 0.000000000000D+00 -.326420631858D-06 0.104847721528D-04 0.000000000000D+00  7 -2 1 -24 -13 13 23 21 2 0.13280236D-01 0.24534357D+00 0.57942905D+05 0.57942905D+05 0.57942905D+05 0.11417055D+01  1  2  3  1  7  1       -2 -.122036432243D-03 0.100000000000D+01
0.525492595160D-05 0.000000000000D+00 0.000000000000D+00 0.104847721528D-04 0.000000000000D+00  7 -2 1 -24 -13 13 23 21 2 0.13280236D-01 0.24534357D+00 0.57942905D+05 0.57942905D+05 0.57942905D+05 0.11417055D+01  1  2 15  1  7  1       -2 0.175821803462D-03 0.100000000000D+01
  </mgrwgt>
  </event>
  <event>
  8     66 0.26562228E-05 0.20148550E+03 0.75467711E-02 0.97995952E-01
       -2 -1    0    0    0  501 0.00000000E+00 0.00000000E+00 0.13943019E+03 0.13943056E+03 0.32000000E+00 0.0000E+00 0.9000E+01
        1 -1    0    0  501    0 0.00000000E+00 0.00000000E+00 -.10295145E+04 0.10295145E+04 0.32000000E+00 0.0000E+00 0.9000E+01
       25  2    1    2    0    0 -.29140307E+02 -.66932802E+02 -.38729564E+02 0.31069032E+03 0.29949848E+03 0.0000E+00 0.0000E+00
       23  2    3    3    0    0 -.74787313E+02 -.12943446E+03 -.68048845E+02 0.18754416E+03 0.90530350E+02 0.0000E+00 0.0000E+00
      -24  1    1    2    0    0 0.29140307E+02 0.66932802E+02 -.85135474E+03 0.85825478E+03 0.80419002E+02 0.0000E+00 0.9000E+01
      -11  1    4    4    0    0 -.46044912E+02 -.13741578E+03 -.55743836E+02 0.15527590E+03 0.51099893E-03 0.0000E+00 0.9000E+01
       11  1    4    4    0    0 -.28742401E+02 0.79813205E+01 -.12305010E+02 0.32268256E+02 0.51099893E-03 0.0000E+00 0.9000E+01
       23  1    3    3    0    0 0.45647006E+02 0.62501656E+02 0.29319281E+02 0.12314616E+03 0.91188000E+02 0.0000E+00 0.9000E+01
#aMCatNLO 1  0  0  1  1 0.26478670D+03 0.00000000D+00  -5  7  0 0.00000000D+00 0.00000000D+00 0.00000000D+00 0.00000000D+00 0.00000000D+00
  <mgrwgt>
 0.1440227992D-02    5    2    0
 0.378874181553497D+03 0.000000000000000D+00 0.000000000000000D+00 0.378874181553497D+03
 0.378874181553497D+03 0.000000000000000D+00 0.000000000000000D+00 -.378874181553497D+03
 0.323953493371116D+03 0.291403074224248D+02 0.669328017732840D+02 -.305204017737454D+03
 0.174058166473911D+03 -.460449122647010D+02 -.137415778815709D+03 0.964002858049079D+02
 0.353248190037086D+02 -.287424007072206D+02 0.798132054751880D+01 0.189213044356908D+02
 0.224411884258258D+03 0.456470055494967D+02 0.625016564949057D+02 0.189882427496856D+03
 0.000000000000000D+00 -.000000000000000D+00 0.000000000000000D+00 0.000000000000000D+00
 0.577821386174371D+03 0.000000000000000D+00 0.000000000000000D+00 0.577821386174371D+03
 0.500658958271934D+03 0.000000000000000D+00 0.000000000000000D+00 -.500658958271934D+03
 0.339682127920501D+03 0.125292115380042D+03 0.831417192144002D+01 -.305204017737454D+03
 0.195636400078869D+03 0.751882034051019D+01 -.170070730207283D+03 0.964002858049079D+02
 0.273919563347783D+02 -.196555898962962D+02 0.244157656585489D+01 0.189213044356908D+02
 0.239969139724011D+03 0.112929522648566D+03 0.214830937751158D+02 0.189882427496856D+03
 0.275800720388145D+03 -.226084868472822D+03 0.137831887944873D+03 0.771624279024372D+02
0.422883927467D-04 0.000000000000D+00 0.000000000000D+00 0.491347519052D-05 0.000000000000D+00  7 -2 1 -24 -11 11 23 21 0 0.21450831D-01 0.15838688D+00 0.40596407D+05 0.40596407D+05 0.40596407D+05 0.11553403D+01  1  2  2  1  7  1       -2 0.122461235123D-02 0.100000000000D+01
-.121026349165D-05 0.000000000000D+00 -.162398562937D-06 0.491347519052D-05 0.000000000000D+00  7 -2 1 -24 -11 11 23 21 2 0.21450831D-01 0.15838688D+00 0.40596407D+05 0.40596407D+05 0.40596407D+05 0.11553403D+01  1  2  3  1  7  1       -2 -.467818291980D-04 0.100000000000D+01
0.260658974620D-05 0.000000000000D+00 0.000000000000D+00 0.491347519052D-05 0.000000000000D+00  7 -2 1 -24 -11 11 23 21 2 0.21450831D-01 0.15838688D+00 0.40596407D+05 0.40596407D+05 0.40596407D+05 0.11553403D+01  1  2 15  1  7  1       -2 0.100755775199D-03 0.100000000000D+01
0.269072705789D-05 0.000000000000D+00 -.133147619217D-04 0.491347519052D-05 0.000000000000D+00  7 -2 1 -24 -11 11 23 21 2 0.43011980D-01 0.15838688D+00 0.40596407D+05 0.40596407D+05 0.40596407D+05 0.11553403D+01  1  2  5  1  7  1       -2 0.308466066967D-04 0.100000000000D+01
0.100304312560D-05 0.000000000000D+00 -.100220186402D-05 0.491347519052D-05 0.000000000000D+00  7 21 1 -24 -11 11 23 2 2 0.43011980D-01 0.15838688D+00 0.40596407D+05 0.40596407D+05 0.40596407D+05 0.11553403D+01  1  2  5  3  7  1       -2 0.130795088118D-03 0.100000000000D+01
  </mgrwgt>
  </event>
  <event>
  8     66 0.26562228E-05 0.16162836E+03 0.75467711E-02 0.99059793E-01
       -2 -1    0    0    0  501 0.00000000E+00 0.00000000E+00 0.47900936E+02 0.47902005E+02 0.32000000E+00 0.0000E+00 0.9000E+01
        1 -1    0    0  501    0 0.00000000E+00 0.00000000E+00 -.22402908E+04 0.22402908E+04 0.32000000E+00 0.0000E+00 0.9000E+01
       25  2    1    2    0    0 -.98932939E+02 -.18928354E+03 -.84961247E+03 0.92615966E+03 0.30052353E+03 0.0000E+00 0.0000E+00
       23  2    3    3    0    0 -.10044832E+03 0.22132314E+02 -.36057992E+03 0.38563488E+03 0.90092595E+02 0.0000E+00 0.0000E+00
      -24  1    1    2    0    0 0.98932939E+02 0.18928354E+03 -.13427774E+04 0.13620332E+04 0.80419002E+02 0.0000E+00 0.9000E+01
      -13  1    4    4    0    0 -.40253386E+02 -.17912452E+02 -.24769163E+03 0.25157970E+03 0.10565837E+00 0.0000E+00 0.9000E+01
       13  1    4    4    0    0 -.60194938E+02 0.40044766E+02 -.11288830E+03 0.13405519E+03 0.10565837E+00 0.0000E+00 0.9000E+01
       23  1    3    3    0    0 0.15153854E+01 -.21141585E+03 -.48903254E+03 0.54052478E+03 0.91188000E+02 0.0000E+00 0.9000E+01
#aMCatNLO 1  0  0  2  1 0.10412452D+03 0.00000000D+00  -5  7  0 0.00000000D+00 0.00000000D+00 0.00000000D+00 0.00000000D+00 0.00000000D+00
  <mgrwgt>
 0.1261723505D-02    9    2    0
 0.327587049994881D+03 0.000000000000000D+00 0.000000000000000D+00 0.327587049994881D+03
 0.327587049994881D+03 0.000000000000000D+00 0.000000000000000D+00 -.327587049994881D+03
 0.263598579446366D+03 0.989329389359499D+02 0.189283541190049D+03 -.131912887011929D+03
 0.497977721913570D+02 -.402533588804128D+02 -.179125314859598D+02 -.232083267348483D+02
 0.904324368613051D+02 -.601949649910938D+02 0.400448452179994D+02 0.543231276516862D+02
 0.251345311490734D+03 0.151538493555671D+01 -.211415854922089D+03 0.100798086095091D+03
 0.000000000000000D+00 -.000000000000000D+00 -.000000000000000D+00 -.000000000000000D+00
 0.358583421848819D+03 0.000000000000000D+00 0.000000000000000D+00 0.358583421848819D+03
 0.432515306881429D+03 0.000000000000000D+00 0.000000000000000D+00 -.432515306881429D+03
 0.298589538094493D+03 0.132245867203154D+03 0.218628719872244D+03 -.131912887011929D+03
 0.437405730503260D+02 -.347106658066079D+02 -.130300030775672D+02 -.232083267348483D+02
 0.885955650598592D+02 -.495865106325985D+02 0.493897753963058D+02 0.543231276516862D+02
 0.232470900071099D+03 0.301843202036492D+02 -.186161544603813D+03 0.100798086095091D+03
 0.127702152454470D+03 -.781330109675966D+02 -.688269475871704D+02 -.739318850326102D+02
0.360571857694D-04 0.000000000000D+00 0.000000000000D+00 0.126224247716D-05 0.000000000000D+00  7 -2 1 -24 -13 13 23 21 0 0.73694587D-02 0.34466021D+00 0.82605287D+05 0.82605287D+05 0.82605287D+05 0.11285968D+01  1  2  2  2  7  2        1 0.858895485281D-03 0.100000000000D+01
-.196148260683D-05 0.000000000000D+00 -.138469087429D-06 0.126224247716D-05 0.000000000000D+00  7 -2 1 -24 -13 13 23 21 2 0.73694587D-02 0.34466021D+00 0.82605287D+05 0.82605287D+05 0.82605287D+05 0.11285968D+01  1  2  3  2  7  2        1 -.595128279074D-04 0.100000000000D+01
0.230214065816D-05 0.000000000000D+00 0.000000000000D+00 0.126224247716D-05 0.000000000000D+00  7 -2 1 -24 -13 13 23 21 2 0.73694587D-02 0.34466021D+00 0.82605287D+05 0.82605287D+05 0.82605287D+05 0.11285968D+01  1  2 15  2  7  2        1 0.698486442502D-04 0.100000000000D+01
0.255433759874D-04 0.000000000000D+00 0.000000000000D+00 0.126224247716D-05 0.000000000000D+00  7 -2 1 -24 -13 13 23 21 2 0.73694587D-02 0.46737280D+00 0.11852160D+06 0.11852160D+06 0.11852160D+06 0.11157159D+01  1  2 12  2  7  2        1 0.207523891956D-03 0.100000000000D+01
-.293506835417D-04 0.000000000000D+00 0.000000000000D+00 0.126224247716D-05 0.000000000000D+00  7 -2 1 -24 -13 13 23 21 2 0.73694587D-02 0.34466021D+00 0.82605287D+05 0.82605287D+05 0.82605287D+05 0.11285968D+01  1  2  4  2  7  2        1 -.890521370162D-03 0.100000000000D+01
-.458263837352D-04 0.000000000000D+00 -.133784945887D-04 0.126224247716D-05 0.000000000000D+00  7 -2 1 -24 -13 13 23 21 2 0.73694587D-02 0.46734593D+00 0.82605287D+05 0.82605287D+05 0.82605287D+05 0.11285968D+01  1  2  5  2  7  2        1 -.387196443083D-03 0.100000000000D+01
0.482433926714D-04 0.000000000000D+00 0.127813162765D-04 0.126224247716D-05 0.000000000000D+00  7 -2 1 -24 -13 13 23 21 2 0.73694587D-02 0.34466021D+00 0.82605287D+05 0.82605287D+05 0.82605287D+05 0.11285968D+01  1  2  6  2  7  2        1 0.146374008912D-02 0.100000000000D+01
0.998221476705D-06 0.000000000000D+00 0.000000000000D+00 0.126224247716D-05 0.000000000000D+00  7 -2 21 -24 -13 13 23 -1 2 0.73694587D-02 0.46737280D+00 0.11852160D+06 0.11852160D+06 0.11852160D+06 0.11157159D+01  1  2 12  4  7  2        1 0.181996941272D-05 0.100000000000D+01
-.148365357735D-05 0.000000000000D+00 -.522753159402D-06 0.126224247716D-05 0.000000000000D+00  7 -2 21 -24 -13 13 23 -1 2 0.73694587D-02 0.46734593D+00 0.82605287D+05 0.82605287D+05 0.82605287D+05 0.11285968D+01  1  2  5  4  7  2        1 -.287393424030D-05 0.100000000000D+01
  </mgrwgt>
  </event>
  <event>
  8     66 0.26562228E-05 0.94720693E+02 0.75467711E-02 0.10776938E+00
       -2 -1    0    0    0  501 0.00000000E+00 0.00000000E+00 0.32488974E+03 0.32488990E+03 0.32000000E+00 0.0000E+00 0.9000E+01
        1 -1    0    0  501    0 0.00000000E+00 0.00000000E+00 -.13258676E+03 0.13258715E+03 0.32000000E+00 0.0000E+00 0.9000E+01
       25  2    1    2    0    0 -.64414116E+02 -.27555866E+02 0.13302594E+03 0.33545456E+03 0.29987557E+03 0.0000E+00 0.0000E+00
       23  2    3    3    0    0 -.97472869E+02 -.16575035E+02 0.18194909E+03 0.22626579E+03 0.91186864E+02 0.0000E+00 0.0000E+00
      -24  1    1    2    0    0 0.64414116E+02 0.27555866E+02 0.59277044E+02 0.12202249E+03 0.80419002E+02 0.0000E+00 0.9000E+01
      -13  1    4    4    0    0 -.49575340E+02 0.35197968E+02 0.60191097E+02 0.85554606E+02 0.10565837E+00 0.0000E+00 0.9000E+01
       13  1    4    4    0    0 -.47897529E+02 -.51773003E+02 0.12175800E+03 0.14071119E+03 0.10565837E+00 0.0000E+00 0.9000E+01
       23  1    3    3    0    0 0.33058753E+02 -.10980831E+02 -.48923158E+02 0.10918877E+03 0.91188000E+02 0.0000E+00 0.9000E+01
#aMCatNLO 1  0  0  2  1 0.26561532D+02 0.00000000D+00  -5  7  0 0.00000000D+00 0.00000000D+00 0.00000000D+00 0.00000000D+00 0.00000000D+00
  <mgrwgt>
 0.9612984648D-03    9    2    0
 0.207548075048809D+03 0.000000000000000D+00 0.000000000000000D+00 0.207548075048809D+03
 0.207548075048809D+03 0.000000000000000D+00 0.000000000000000D+00 -.207548075048809D+03
 0.107019404831351D+03 0.644141384140951D+02 0.275558752892622D+02 0.879940711062751D+01
 0.664046681036533D+02 -.495753439591035D+02 0.351980799839065D+02 0.267013179962983D+02
 0.986704634659733D+02 -.478975300480647D+02 -.517731199747532D+02 0.690016740663915D+02
 0.143001613696640D+03 0.330587355930731D+02 -.109808352984154D+02 -.104502399173317D+03
 0.000000000000000D+00 0.000000000000000D+00 -.000000000000000D+00 -.000000000000000D+00
 0.210971651118512D+03 0.000000000000000D+00 0.000000000000000D+00 0.210971651118512D+03
 0.266783120761984D+03 0.000000000000000D+00 0.000000000000000D+00 -.266783120761984D+03
 0.106287491778524D+03 0.604642823824415D+02 0.331127761547881D+02 0.879940711062751D+01
 0.702141335967456D+02 -.521051477606212D+02 0.387571638648395D+02 0.267013179962983D+02
 0.979476760619476D+02 -.515383562786728D+02 -.466509812765420D+02 0.690016740663915D+02
 0.141495801708816D+03 0.277906272942387D+02 -.356933590935508D+01 -.104502399173317D+03
 0.618096687344626D+02 0.153885943626138D+02 -.216496228337305D+02 -.558114696434716D+02
0.756163405252D-05 0.000000000000D+00 0.000000000000D+00 0.765483054947D-06 0.000000000000D+00  7 -2 1 -24 -13 13 23 21 0 0.49983079D-01 0.20398005D-01 0.28157349D+05 0.28157349D+05 0.28157349D+05 0.11698988D+01  1  2  2  2  7  2        1 0.812088402042D-03 0.100000000000D+01
-.397008738357D-06 0.000000000000D+00 -.290386657856D-07 0.765483054947D-06 0.000000000000D+00  7 -2 1 -24 -13 13 23 21 2 0.49983079D-01 0.20398005D-01 0.28157349D+05 0.28157349D+05 0.28157349D+05 0.11698988D+01  1  2  3  2  7  2        1 -.583558374035D-04 0.100000000000D+01
0.492554453990D-06 0.000000000000D+00 0.000000000000D+00 0.765483054947D-06 0.000000000000D+00  7 -2 1 -24 -13 13 23 21 2 0.49983079D-01 0.20398005D-01 0.28157349D+05 0.28157349D+05 0.28157349D+05 0.11698988D+01  1  2 15  2  7  2        1 0.723999873363D-04 0.100000000000D+01
0.395051544788D-04 0.000000000000D+00 0.000000000000D+00 0.765483054947D-06 0.000000000000D+00  7 -2 1 -24 -13 13 23 21 2 0.49983079D-01 0.26354249D-01 0.32821650D+05 0.32821650D+05 0.32821650D+05 0.11637310D+01  1  2 12  2  7  2        1 0.414333583718D-02 0.100000000000D+01
-.393189690052D-04 0.000000000000D+00 0.000000000000D+00 0.765483054947D-06 0.000000000000D+00  7 -2 1 -24 -13 13 23 21 2 0.49983079D-01 0.20398005D-01 0.28157349D+05 0.28157349D+05 0.28157349D+05 0.11698988D+01  1  2  4  2  7  2        1 -.577944800822D-02 0.100000000000D+01
-.459721986516D-04 0.000000000000D+00 -.470676956894D-05 0.765483054947D-06 0.000000000000D+00  7 -2 1 -24 -13 13 23 21 2 0.49983079D-01 0.26533633D-01 0.28157349D+05 0.28157349D+05 0.28157349D+05 0.11698988D+01  1  2  5  2  7  2        1 -.482880519085D-02 0.100000000000D+01
0.457761565567D-04 0.000000000000D+00 0.454857942049D-05 0.765483054947D-06 0.000000000000D+00  7 -2 1 -24 -13 13 23 21 2 0.49983079D-01 0.20398005D-01 0.28157349D+05 0.28157349D+05 0.28157349D+05 0.11698988D+01  1  2  6  2  7  2        1 0.672858224742D-02 0.100000000000D+01
0.136128946817D-05 0.000000000000D+00 0.000000000000D+00 0.765483054947D-06 0.000000000000D+00  7 -2 21 -24 -13 13 23 -1 2 0.49983079D-01 0.26354249D-01 0.32821650D+05 0.32821650D+05 0.32821650D+05 0.11637310D+01  1  2 12  4  7  2        1 0.103449324119D-02 0.100000000000D+01
-.152915183415D-05 0.000000000000D+00 -.165328307632D-06 0.765483054947D-06 0.000000000000D+00  7 -2 21 -24 -13 13 23 -1 2 0.49983079D-01 0.26533633D-01 0.28157349D+05 0.28157349D+05 0.28157349D+05 0.11698988D+01  1  2  5  4  7  2        1 -.116299221391D-02 0.100000000000D+01
  </mgrwgt>
  </event>
  <event>
  8     66 0.26562228E-05 0.35560541E+03 0.75467711E-02 0.95178099E-01
       -2 -1    0    0    0  501 0.00000000E+00 0.00000000E+00 0.14856383E+03 0.14856417E+03 0.32000000E+00 0.0000E+00 0.9000E+01
        1 -1    0    0  501    0 0.00000000E+00 0.00000000E+00 -.12190085E+04 0.12190085E+04 0.32000000E+00 0.0000E+00 0.9000E+01
       25  2    1    2    0    0 -.29934193E+03 -.10329133E+03 -.89741700E+03 0.99786949E+03 0.30018586E+03 0.0000E+00 0.0000E+00
       23  2    3    3    0    0 -.21756679E+03 0.44150625E+01 -.31482688E+03 0.39287830E+03 0.88783956E+02 0.0000E+00 0.0000E+00
      -24  1    1    2    0    0 0.29934193E+03 0.10329133E+03 -.17302767E+03 0.36970323E+03 0.80419002E+02 0.0000E+00 0.9000E+01
      -13  1    4    4    0    0 -.13166582E+03 0.22590404E+02 -.12163164E+03 0.18066677E+03 0.10565837E+00 0.0000E+00 0.9000E+01
       13  1    4    4    0    0 -.85900967E+02 -.18175341E+02 -.19319525E+03 0.21221153E+03 0.10565837E+00 0.0000E+00 0.9000E+01
       23  1    3    3    0    0 -.81775139E+02 -.10770639E+03 -.58259012E+03 0.60499119E+03 0.91188000E+02 0.0000E+00 0.9000E+01
#aMCatNLO 1  0  0  2  1 0.20857089D+03 0.00000000D+00  -5  7  0 0.00000000D+00 0.00000000D+00 0.00000000D+00 0.00000000D+00 0.00000000D+00
  <mgrwgt>
 0.1410334461D-02    4    2    0
 0.425559439190314D+03 0.000000000000000D+00 0.000000000000000D+00 0.425559439190314D+03
 0.425559439190314D+03 0.000000000000000D+00 0.000000000000000D+00 -.425559439190314D+03
 0.376421572160196D+03 0.299341927452269D+03 0.103291331050919D+03 0.186952655589786D+03
 0.137319304432998D+03 -.131665885502399D+03 0.225904612940386D+02 0.317861136874894D+02
 0.980002118144680D+02 -.859009025618544D+02 -.181753987240332D+02 -.435285117590967D+02
 0.239377789972966D+03 -.817751393880153D+02 -.107706393620924D+03 -.175210257518179D+03
 0.000000000000000D+00 0.000000000000000D+00 0.000000000000000D+00 0.000000000000000D+00
 0.624043249310392D+03 0.000000000000000D+00 0.000000000000000D+00 0.624043249310392D+03
 0.496655064855794D+03 0.000000000000000D+00 0.000000000000000D+00 -.496655064855794D+03
 0.327692746389966D+03 0.254985445182682D+03 0.307643851741606D+02 0.186952655589786D+03
 0.153493954280990D+03 -.149985997470110D+03 -.736461406705205D+01 0.317861136874894D+02
 0.115682518860475D+03 -.993620891970255D+02 -.401856823302107D+02 -.435285117590967D+02
 0.279432762074358D+03 -.114458200145176D+03 -.161146217009414D+03 -.175210257518179D+03
 0.244396332560397D+03 0.108820841629630D+03 0.177932128232516D+03 0.127388184454597D+03
0.937002379250D-04 0.000000000000D+00 0.000000000000D+00 0.182494145952D-05 0.000000000000D+00  7 -2 1 -24 -13 13 23 21 0 0.22856004D-01 0.18753980D+00 0.12645521D+06 0.12645521D+06 0.12645521D+06 0.11134517D+01  1  2  2  2  7  2        1 0.174470742936D-02 0.100000000000D+01
-.500145150599D-05 0.000000000000D+00 -.359833585471D-06 0.182494145952D-05 0.000000000000D+00  7 -2 1 -24 -13 13 23 21 2 0.22856004D-01 0.18753980D+00 0.12645521D+06 0.12645521D+06 0.12645521D+06 0.11134517D+01  1  2  3  2  7  2        1 -.115457130603D-03 0.100000000000D+01
0.598627820962D-05 0.000000000000D+00 0.000000000000D+00 0.182494145952D-05 0.000000000000D+00  7 -2 1 -24 -13 13 23 21 2 0.22856004D-01 0.18753980D+00 0.12645521D+06 0.12645521D+06 0.12645521D+06 0.11134517D+01  1  2 15  2  7  2        1 0.138191583832D-03 0.100000000000D+01
-.154694252363D-04 0.000000000000D+00 0.000000000000D+00 0.182494145952D-05 0.000000000000D+00  7 -2 1 -24 -13 13 23 21 2 0.22856004D-01 0.18753980D+00 0.12645521D+06 0.12645521D+06 0.12645521D+06 0.11134517D+01  1  2  4  2  7  2        1 -.357107421261D-03 0.100000000000D+01
  </mgrwgt>
  </event>
  <event>
  8     66 0.26562228E-05 0.19013792E+03 0.75467711E-02 0.10508563E+00
       -2 -1    0    0    0  501 0.00000000E+00 0.00000000E+00 0.68584537E+03 0.68584544E+03 0.32000000E+00 0.0000E+00 0.9000E+01
        1 -1    0    0  501    0 0.00000000E+00 0.00000000E+00 -.13681122E+04 0.13681122E+04 0.32000000E+00 0.0000E+00 0.9000E+01
       25  2    1    2    0    0 -.72122853E+02 -.86887625E+02 0.64435168E+03 0.72011546E+03 0.30104158E+03 0.0000E+00 0.0000E+00
       23  2    3    3    0    0 0.43334725E+02 0.14574250E+02 0.84407241E+02 0.13234171E+03 0.91101257E+02 0.0000E+00 0.0000E+00
      -24  1    1    2    0    0 0.72122853E+02 0.86887625E+02 -.13266185E+04 0.13338422E+04 0.80419002E+02 0.0000E+00 0.9000E+01
      -13  1    4    4    0    0 -.72658600E+01 -.48395165E+01 0.77171434E+02 0.77663731E+02 0.10565837E+00 0.0000E+00 0.9000E+01
       13  1    4    4    0    0 0.50600585E+02 0.19413766E+02 0.72358072E+01 0.54677981E+02 0.10565837E+00 0.0000E+00 0.9000E+01
       23  1    3    3    0    0 -.11545758E+03 -.10146187E+03 0.55994443E+03 0.58777375E+03 0.91188000E+02 0.0000E+00 0.9000E+01
#aMCatNLO 1  0  0  2  2 0.55700415D+02 0.00000000D+00  -5  7  0 0.00000000D+00 0.00000000D+00 0.00000000D+00 0.00000000D+00 0.00000000D+00
  <mgrwgt>
 0.2794989579D-02    4    2    0
 0.968665833983799D+03 0.000000000000000D+00 0.000000000000000D+00 0.968665833983799D+03
 0.968665833983799D+03 0.000000000000000D+00 0.000000000000000D+00 -.968665833983799D+03
 0.946945541941939D+03 0.721228532598756D+02 0.868876246087248D+02 -.936743016081172D+03
 0.109516429612965D+03 -.726593784880862D+01 -.483954911756714D+01 0.109167913173640D+03
 0.605177116109814D+02 0.506006626159204D+02 0.194137989125684D+02 0.269271382297130D+02
 0.820351984801712D+03 -.115457578026987D+03 -.101461874403726D+03 0.800647964677819D+03
 0.000000000000000D+00 0.000000000000000D+00 0.000000000000000D+00 0.000000000000000D+00
 0.109195892726979D+04 0.000000000000000D+00 0.000000000000000D+00 0.109195892726979D+04
 0.975377581218515D+03 0.000000000000000D+00 0.000000000000000D+00 -.975377581218515D+03
 0.944175339491777D+03 0.599747907186192D+02 0.625731735766125D+02 -.936743016081172D+03
 0.109779524504195D+03 -.867463730943753D+01 -.765907313121964D+01 0.109167913173640D+03
 0.593931782795922D+02 0.498303866361723D+02 0.178720849538864D+02 0.269271382297130D+02
 0.824784184357277D+03 -.126025499553334D+03 -.122613659685610D+03 0.800647964677819D+03
 0.129204281855468D+03 0.248949595079796D+02 0.498274742863309D+02 0.116581346051280D+03
0.349898943416D-02 0.000000000000D+00 0.000000000000D+00 0.259125819138D-04 0.000000000000D+00  7 -2 1 -24 -13 13 23 21 0 0.10551468D+00 0.21047880D+00 0.36152427D+05 0.36152427D+05 0.36152427D+05 0.11598929D+01  1  2  2  2  7  2        1 0.265196590682D-02 0.100000000000D+01
0.432155056978D-03 0.000000000000D+00 -.134370407323D-04 0.259125819138D-04 0.000000000000D+00  7 -2 1 -24 -13 13 23 21 2 0.10551468D+00 0.21047880D+00 0.36152427D+05 0.36152427D+05 0.36152427D+05 0.11598929D+01  1  2  3  2  7  2        1 0.440657018691D-03 0.100000000000D+01
0.215570392910D-03 0.000000000000D+00 0.000000000000D+00 0.259125819138D-04 0.000000000000D+00  7 -2 1 -24 -13 13 23 21 2 0.10551468D+00 0.21047880D+00 0.36152427D+05 0.36152427D+05 0.36152427D+05 0.11598929D+01  1  2 15  2  7  2        1 0.219811396682D-03 0.100000000000D+01
-.507461252038D-03 0.000000000000D+00 0.000000000000D+00 0.259125819138D-04 0.000000000000D+00  7 -2 1 -24 -13 13 23 21 2 0.10551468D+00 0.21047880D+00 0.36152427D+05 0.36152427D+05 0.36152427D+05 0.11598929D+01  1  2  4  2  7  2        1 -.517444743070D-03 0.100000000000D+01
  </mgrwgt>
  </event>
  <event>
  8     66 0.26562228E-05 0.31351766E+03 0.75467711E-02 0.88394829E-01
       -2 -1    0    0    0  501 0.00000000E+00 0.00000000E+00 0.28064567E+03 0.28064585E+03 0.32000000E+00 0.0000E+00 0.9000E+01
        1 -1    0    0  501    0 0.00000000E+00 0.00000000E+00 -.71502441E+03 0.71502448E+03 0.32000000E+00 0.0000E+00 0.9000E+01
       25  2    1    2    0    0 -.22948785E+03 -.85940045E+02 0.10143479E+03 0.40101605E+03 0.30078978E+03 0.0000E+00 0.0000E+00
       23  2    3    3    0    0 -.21517977E+03 0.24661961E+02 0.20460783E+02 0.23575999E+03 0.90849223E+02 0.0000E+00 0.0000E+00
      -24  1    1    2    0    0 0.22948785E+03 0.85940045E+02 -.53581353E+03 0.59465429E+03 0.80419002E+02 0.0000E+00 0.9000E+01
      -13  1    4    4    0    0 -.41170977E+02 -.19479558E+02 -.23042441E+02 0.51043783E+02 0.10565837E+00 0.0000E+00 0.9000E+01
       13  1    4    4    0    0 -.17400879E+03 0.44141519E+02 0.43503225E+02 0.18471620E+03 0.10565837E+00 0.0000E+00 0.9000E+01
       23  1    3    3    0    0 -.14308078E+02 -.11060201E+03 0.80974002E+02 0.16525606E+03 0.91188000E+02 0.0000E+00 0.9000E+01
#aMCatNLO 1  0  0  2  1 0.81340627D+03 0.00000000D+00  -5  7  0 0.00000000D+00 0.00000000D+00 0.00000000D+00 0.00000000D+00 0.00000000D+00
  <mgrwgt>
 0.1467015149D-02    5    2    0
 0.447960521673298D+03 0.000000000000000D+00 0.000000000000000D+00 0.447960521673298D+03
 0.447960521673298D+03 0.000000000000000D+00 0.000000000000000D+00 -.447960521673298D+03
 0.401077331805561D+03 0.229487849015309D+03 0.859400451238375D+02 -.307157037901359D+03
 0.455546998988707D+02 -.411707969371891D+02 -.194796439985546D+02 -.860018675661472D+00
 0.226374344610836D+03 -.174008973764428D+03 0.441416046280712D+02 0.137904821120565D+03
 0.222914667031329D+03 -.143080783136919D+02 -.110602005753354D+03 0.170112235456456D+03
 0.000000000000000D+00 0.000000000000000D+00 -.000000000000000D+00 -.000000000000000D+00
 0.675427861329197D+03 0.000000000000000D+00 0.000000000000000D+00 0.675427861329197D+03
 0.295505854312477D+04 0.000000000000000D+00 0.000000000000000D+00 -.295505854312477D+04
 0.417897928431776D+03 -.275380815219061D+02 0.270310323086179D+03 -.307157037901359D+03
 0.815933289037943D+02 -.810747378810302D+02 0.914431883753604D+01 -.860018675661472D+00
 0.457485083987152D+03 -.388630360424031D+03 0.198094183001734D+03 0.137904821120565D+03
 0.253108069497995D+03 -.163702318596194D+03 -.343827503837217D+01 0.170112235456456D+03
 0.242040199363325D+04 0.660945498423161D+03 -.474110549887077D+03 -.227963068179557D+04
0.964386649650D-04 0.000000000000D+00 0.000000000000D+00 0.411826718657D-05 0.000000000000D+00  7 -2 1 -24 -13 13 23 21 0 0.43176276D-01 0.11000378D+00 0.98293325D+05 0.98293325D+05 0.98293325D+05 0.11223361D+01  1  2  2  2  7  2        1 0.144241606259D-02 0.100000000000D+01
-.452817734633D-05 0.000000000000D+00 -.370349866349D-06 0.411826718657D-05 0.000000000000D+00  7 -2 1 -24 -13 13 23 21 2 0.43176276D-01 0.11000378D+00 0.98293325D+05 0.98293325D+05 0.98293325D+05 0.11223361D+01  1  2  3  2  7  2        1 -.853117035426D-04 0.100000000000D+01
0.584564562690D-05 0.000000000000D+00 0.000000000000D+00 0.411826718657D-05 0.000000000000D+00  7 -2 1 -24 -13 13 23 21 2 0.43176276D-01 0.11000378D+00 0.98293325D+05 0.98293325D+05 0.98293325D+05 0.11223361D+01  1  2 15  2  7  2        1 0.110133051026D-03 0.100000000000D+01
-.291600400402D-04 0.000000000000D+00 -.499839981963D-04 0.411826718657D-05 0.000000000000D+00  7 -2 1 -24 -13 13 23 21 2 0.43176276D-01 0.75477220D+00 0.98293325D+05 0.98293325D+05 0.98293325D+05 0.11223361D+01  1  2  5  2  7  2        1 -.218788350234D-06 0.100000000000D+01
-.113792124203D-04 0.000000000000D+00 -.117749280017D-04 0.411826718657D-05 0.000000000000D+00  7 -2 21 -24 -13 13 23 -1 2 0.43176276D-01 0.75477220D+00 0.98293325D+05 0.98293325D+05 0.98293325D+05 0.11223361D+01  1  2  5  4  7  2        1 -.347312007315D-08 0.100000000000D+01
  </mgrwgt>
  </event>
  <event>
  8     66 0.26562228E-05 0.15783612E+03 0.75467711E-02 0.92105839E-01
       -2 -1    0    0    0  501 0.00000000E+00 0.00000000E+00 0.18255948E+03 0.18255976E+03 0.32000000E+00 0.0000E+00 0.9000E+01
        1 -1    0    0  501    0 0.00000000E+00 0.00000000E+00 -.21981329E+04 0.21981330E+04 0.32000000E+00 0.0000E+00 0.9000E+01
       25  2    1    2    0    0 -.38832796E+03 -.44382694E+03 -.12084710E+04 0.13778654E+04 0.30054959E+03 0.0000E+00 0.0000E+00
       23  2    3    3    0    0 -.20546298E+03 -.93680897E+02 -.59121717E+03 0.63938091E+03 0.90989348E+02 0.0000E+00 0.0000E+00
      -24  1    1    2    0    0 0.38832796E+03 0.44382694E+03 -.80710251E+03 0.10028273E+04 0.80419002E+02 0.0000E+00 0.9000E+01
      -11  1    4    4    0    0 -.18537124E+03 -.73471426E+02 -.56994566E+03 0.60382000E+03 0.51099893E-03 0.0000E+00 0.9000E+01
       11  1    4    4    0    0 -.20091741E+02 -.20209471E+02 -.21271512E+02 0.35560905E+02 0.51099893E-03 0.0000E+00 0.9000E+01
       23  1    3    3    0    0 -.18286498E+03 -.35014605E+03 -.61725379E+03 0.73848449E+03 0.91188000E+02 0.0000E+00 0.9000E+01
#aMCatNLO 1  0  0  1  2 0.28215069D+02 0.00000000D+00  -5  7  0 0.00000000D+00 0.00000000D+00 0.00000000D+00 0.00000000D+00 0.00000000D+00
  <mgrwgt>
 0.8438091535D-03    9    2    0
 0.633474833872911D+03 0.000000000000000D+00 0.000000000000000D+00 0.633474833872911D+03
 0.633474833872911D+03 0.000000000000000D+00 0.000000000000000D+00 -.633474833872911D+03
 0.600378476699604D+03 0.388327963736328D+03 0.443826943767688D+03 0.787790320833945D+02
 0.227903726294584D+03 -.185371238790013D+03 -.734714255082831D+02 -.110361052560192D+03
 0.329810212715001D+02 -.200917407253303D+02 -.202094713250766D+02 0.166026198986230D+02
 0.405686443480133D+03 -.182864984220985D+03 -.350146046934328D+03 0.149794005781748D+02
 0.000000000000000D+00 -.000000000000000D+00 0.000000000000000D+00 0.000000000000000D+00
 0.817406046728441D+03 0.000000000000000D+00 0.000000000000000D+00 0.817406046728441D+03
 0.634714875885325D+03 0.000000000000000D+00 0.000000000000000D+00 -.634714875885325D+03
 0.604667389295558D+03 0.400695336777517D+03 0.438625748117790D+03 0.787790320833945D+02
 0.224789147109032D+03 -.180725256594267D+03 -.754253297291340D+02 -.110361052560192D+03
 0.327512221440796D+02 -.194171314029014D+02 -.204931835622277D+02 0.166026198986230D+02
 0.405056046164375D+03 -.174544342581759D+03 -.353645357980754D+03 0.149794005781748D+02
 0.184857117900722D+03 -.260086061985890D+02 0.109381231543259D+02 0.182691170843117D+03
0.300712675954D-03 0.000000000000D+00 0.000000000000D+00 0.116860650461D-04 0.000000000000D+00  7 -2 1 -24 -11 11 23 21 0 0.28086097D-01 0.33817432D+00 0.37730009D+06 0.37730009D+06 0.37730009D+06 0.10772615D+01  1  2  2  1  7  1       -2 0.830863152716D-03 0.100000000000D+01
-.166869628613D-04 0.000000000000D+00 -.115481585513D-05 0.116860650461D-04 0.000000000000D+00  7 -2 1 -24 -11 11 23 21 2 0.28086097D-01 0.33817432D+00 0.37730009D+06 0.37730009D+06 0.37730009D+06 0.10772615D+01  1  2  3  1  7  1       -2 -.535053695517D-04 0.100000000000D+01
0.189474957687D-04 0.000000000000D+00 0.000000000000D+00 0.116860650461D-04 0.000000000000D+00  7 -2 1 -24 -11 11 23 21 2 0.28086097D-01 0.33817432D+00 0.37730009D+06 0.37730009D+06 0.37730009D+06 0.10772615D+01  1  2 15  1  7  1       -2 0.607535817996D-04 0.100000000000D+01
0.114712804775D-01 0.000000000000D+00 0.000000000000D+00 0.116860650461D-04 0.000000000000D+00  7 -2 1 -24 -11 11 23 21 2 0.36262943D-01 0.33817432D+00 0.39474318D+06 0.39474318D+06 0.39474318D+06 0.10758420D+01  1  2 12  1  7  1       -2 0.230799243326D-01 0.100000000000D+01
-.111510630563D-01 0.000000000000D+00 0.000000000000D+00 0.116860650461D-04 0.000000000000D+00  7 -2 1 -24 -11 11 23 21 2 0.28086097D-01 0.33817432D+00 0.37730009D+06 0.37730009D+06 0.37730009D+06 0.10772615D+01  1  2  4  1  7  1       -2 -.357549636012D-01 0.100000000000D+01
-.117720642645D-01 0.000000000000D+00 -.172312369839D-03 0.116860650461D-04 0.000000000000D+00  7 -2 1 -24 -11 11 23 21 2 0.36273398D-01 0.33817432D+00 0.37730009D+06 0.37730009D+06 0.37730009D+06 0.10772615D+01  1  2  5  1  7  1       -2 -.237952569681D-01 0.100000000000D+01
0.114451084589D-01 0.000000000000D+00 0.166824158692D-03 0.116860650461D-04 0.000000000000D+00  7 -2 1 -24 -11 11 23 21 2 0.28086097D-01 0.33817432D+00 0.37730009D+06 0.37730009D+06 0.37730009D+06 0.10772615D+01  1  2  6  1  7  1       -2 0.366977959227D-01 0.100000000000D+01
0.394522343730D-03 0.000000000000D+00 0.000000000000D+00 0.116860650461D-04 0.000000000000D+00  7 21 1 -24 -11 11 23 2 2 0.36262943D-01 0.33817432D+00 0.39474318D+06 0.39474318D+06 0.39474318D+06 0.10758420D+01  1  2 12  3  7  1       -2 0.875293960935D-02 0.100000000000D+01
-.402204545341D-03 0.000000000000D+00 -.593111299491D-05 0.116860650461D-04 0.000000000000D+00  7 21 1 -24 -11 11 23 2 2 0.36273398D-01 0.33817432D+00 0.37730009D+06 0.37730009D+06 0.37730009D+06 0.10772615D+01  1  2  5  3  7  1       -2 -.897474150676D-02 0.100000000000D+01
  </mgrwgt>
  </event>
  <event>
  8     66 0.26562228E-05 0.44983922E+03 0.75467711E-02 0.84703707E-01
       -2 -1    0    0    0  501 0.00000000E+00 0.00000000E+00 0.34267447E+03 0.34267462E+03 0.32000000E+00 0.0000E+00 0.9000E+01
        1 -1    0    0  501    0 0.00000000E+00 0.00000000E+00 -.66191111E+03 0.66191119E+03 0.32000000E+00 0.0000E+00 0.9000E+01
       25  2    1    2    0    0 0.41770533E+03 -.38623856E+02 -.10257215E+03 0.52564921E+03 0.29969401E+03 0.0000E+00 0.0000E+00
       23  2    3    3    0    0 0.27836431E+03 0.34104491E+02 0.35957447E+02 0.29715188E+03 0.91413851E+02 0.0000E+00 0.0000E+00
      -24  1    1    2    0    0 -.41770533E+03 0.38623856E+02 -.21666450E+03 0.47893660E+03 0.80419002E+02 0.0000E+00 0.9000E+01
      -13  1    4    4    0    0 0.69623220E+02 0.43130949E+02 -.12020503E+02 0.82777866E+02 0.10565837E+00 0.0000E+00 0.9000E+01
       13  1    4    4    0    0 0.20874110E+03 -.90264584E+01 0.47977950E+02 0.21437401E+03 0.10565837E+00 0.0000E+00 0.9000E+01
       23  1    3    3    0    0 0.13934101E+03 -.72728347E+02 -.13852960E+03 0.22849733E+03 0.91188000E+02 0.0000E+00 0.9000E+01
#aMCatNLO 1  0  0  1  2 0.12288358D+04 0.00000000D+00  -5  7  0 0.00000000D+00 0.00000000D+00 0.00000000D+00 0.00000000D+00 0.00000000D+00
  <mgrwgt>
 0.1096325788D-02    3    2    0
 0.476256392798963D+03 0.000000000000000D+00 0.000000000000000D+00 0.476256392798963D+03
 0.476256392798963D+03 0.000000000000000D+00 0.000000000000000D+00 -.476256392798963D+03
 0.432504074339459D+03 -.417705328908294D+03 0.386238559772073D+02 -.679927519440705D+02
 0.832743490065157D+02 0.696230336934143D+02 0.431310187314761D+02 0.150653776909088D+02
 0.242173768394676D+03 0.208741281158821D+03 -.902652799190142D+01 0.122448901306070D+03
 0.194560593857275D+03 0.139341014056059D+03 -.727283467167820D+02 -.695215270529083D+02
 0.000000000000000D+00 0.000000000000000D+00 -.000000000000000D+00 -.000000000000000D+00
 0.135685726261227D+04 0.000000000000000D+00 0.000000000000000D+00 0.135685726261227D+04
 0.142885870061858D+04 0.000000000000000D+00 0.000000000000000D+00 -.142885870061858D+04
 0.124690410651751D+04 -.123920929459694D+04 0.896657390729473D+02 -.679927519440705D+02
 0.497303530689726D+02 0.456208457114980D+01 0.471734013588232D+02 0.150653776909088D+02
 0.125795928772030D+03 0.287442030682246D+02 0.215709400044462D+01 0.122448901306070D+03
 0.132342234153445D+03 -.205676803678316D+02 -.627928610372520D+02 -.695215270529083D+02
 0.123094334071889D+04 0.122647068732540D+04 -.762033733949631D+02 -.720014380063089D+02
0.971936522388D-04 0.000000000000D+00 0.000000000000D+00 0.700042513377D-05 0.000000000000D+00  7 -2 1 -24 -13 13 23 21 0 0.52719166D-01 0.10183250D+00 0.20235532D+06 0.20235532D+06 0.20235532D+06 0.10974351D+01  1  2  2  1  7  1       -2 0.108633945024D-02 0.100000000000D+01
-.537826754604D-05 0.000000000000D+00 -.373249216274D-06 0.700042513377D-05 0.000000000000D+00  7 -2 1 -24 -13 13 23 21 2 0.52719166D-01 0.10183250D+00 0.20235532D+06 0.20235532D+06 0.20235532D+06 0.10974351D+01  1  2  3  1  7  1       -2 -.723981938387D-04 0.100000000000D+01
0.612012576628D-05 0.000000000000D+00 0.000000000000D+00 0.700042513377D-05 0.000000000000D+00  7 -2 1 -24 -13 13 23 21 2 0.52719166D-01 0.10183250D+00 0.20235532D+06 0.20235532D+06 0.20235532D+06 0.10974351D+01  1  2 15  1  7  1       -2 0.823845314037D-04 0.100000000000D+01
  </mgrwgt>
  </event>
  <event>
  8     66 0.26562228E-05 0.19663350E+03 0.75467711E-02 0.10453435E+00
       -4 -1    0    0    0  501 0.00000000E+00 0.00000000E+00 0.12454329E+03 0.12455294E+03 0.15500000E+01 0.0000E+00 0.9000E+01
        3 -1    0    0  501    0 0.00000000E+00 0.00000000E+00 -.48757698E+03 0.48757724E+03 0.50000000E+00 0.0000E+00 0.9000E+01
       25  2    1    2    0    0 0.12705479E+03 0.20626551E+02 -.31019860E+03 0.45142193E+03 0.30164584E+03 0.0000E+00 0.0000E+00
       23  2    3    3    0    0 0.11771811E+03 -.18080573E+00 -.32311504E+03 0.35654198E+03 0.94134328E+02 0.0000E+00 0.0000E+00
      -24  1    1    2    0    0 -.12705479E+03 -.20626551E+02 -.52835090E+02 0.16070824E+03 0.80419002E+02 0.0000E+00 0.9000E+01
      -13  1    4    4    0    0 0.14224905E+02 -.35418014E+02 -.11929137E+03 0.12524866E+03 0.10565837E+00 0.0000E+00 0.9000E+01
       13  1    4    4    0    0 0.10349321E+03 0.35237208E+02 -.20382367E+03 0.23129333E+03 0.10565837E+00 0.0000E+00 0.9000E+01
       23  1    3    3    0    0 0.93366847E+01 0.20807357E+02 0.12916435E+02 0.94879953E+02 0.91188000E+02 0.0000E+00 0.9000E+01
#aMCatNLO 1  0  0  1  2 0.60859479D+02 0.00000000D+00  -5  7  0 0.00000000D+00 0.00000000D+00 0.00000000D+00 0.00000000D+00 0.00000000D+00
  <mgrwgt>
 0.1106526388D-03    4    2    0
 0.246429446310503D+03 0.000000000000000D+00 0.000000000000000D+00 0.246429446310503D+03
 0.246429446310503D+03 0.000000000000000D+00 0.000000000000000D+00 -.246429446310503D+03
 0.160681807533880D+03 -.127054822808921D+03 -.206265559751434D+02 0.527545685944095D+02
 0.676900561041305D+02 0.142247996909352D+02 -.354180921288209D+02 -.559031083132903D+02
 0.137132166537575D+03 0.103493318374335D+03 0.352372906836129D+02 -.827810213541495D+02
 0.127354862445421D+03 0.933670474365059D+01 0.208073574203514D+02 0.859295610730303D+02
 0.000000000000000D+00 0.000000000000000D+00 -.000000000000000D+00 -.000000000000000D+00
 0.255392760601531D+03 0.000000000000000D+00 0.000000000000000D+00 0.255392760601531D+03
 0.378872824825833D+03 0.000000000000000D+00 0.000000000000000D+00 -.378872824825833D+03
 0.173676859197465D+03 -.144306714463033D+03 -.943202627371630D+01 0.527545685944095D+02
 0.643500387728830D+02 0.741193184131195D+01 -.309973101633644D+02 -.559031083132903D+02
 0.129821755589530D+03 0.897193068130394D+02 0.441750689065578D+02 -.827810213541495D+02
 0.128753565688565D+03 -.387771226867254D+01 0.293820219671369D+02 0.859295610730303D+02
 0.137663366178922D+03 0.510531880773537D+02 -.331277544366140D+02 -.123480064224302D+03
0.824377568479D-05 0.000000000000D+00 0.000000000000D+00 0.228721139263D-07 0.000000000000D+00  7 -4 3 -24 -13 13 23 21 0 0.19161268D-01 0.75012605D-01 0.38664733D+05 0.38664733D+05 0.38664733D+05 0.11572480D+01  1  2  2  1  7  1       -4 0.117031910673D-03 0.100000000000D+01
-.429612942578D-06 0.000000000000D+00 -.316582692656D-07 0.228721139263D-07 0.000000000000D+00  7 -4 3 -24 -13 13 23 21 2 0.19161268D-01 0.75012605D-01 0.38664733D+05 0.38664733D+05 0.38664733D+05 0.11572480D+01  1  2  3  1  7  1       -4 -.816786086768D-05 0.100000000000D+01
0.535351402062D-06 0.000000000000D+00 0.000000000000D+00 0.228721139263D-07 0.000000000000D+00  7 -4 3 -24 -13 13 23 21 2 0.19161268D-01 0.75012605D-01 0.38664733D+05 0.38664733D+05 0.38664733D+05 0.11572480D+01  1  2 15  1  7  1       -4 0.101781751293D-04 0.100000000000D+01
-.441275245174D-06 0.000000000000D+00 0.000000000000D+00 0.228721139263D-07 0.000000000000D+00  7 -4 3 -24 -13 13 23 21 2 0.19161268D-01 0.75012605D-01 0.38664733D+05 0.38664733D+05 0.38664733D+05 0.11572480D+01  1  2  4  1  7  1       -4 -.838958618263D-05 0.100000000000D+01
  </mgrwgt>
  </event>
  <event>
  8     66 0.26562228E-05 0.35956010E+03 0.75467711E-02 0.86486167E-01
       -2 -1    0    0    0  501 0.00000000E+00 0.00000000E+00 0.87223889E+03 0.87223894E+03 0.32000000E+00 0.0000E+00 0.9000E+01
        1 -1    0    0  501    0 0.00000000E+00 0.00000000E+00 -.10186973E+04 0.10186973E+04 0.32000000E+00 0.0000E+00 0.9000E+01
       25  2    1    2    0    0 -.66046917E+03 -.40580384E+03 0.41614841E+03 0.92974435E+03 0.30058073E+03 0.0000E+00 0.0000E+00
       23  2    3    3    0    0 -.56469662E+03 -.30639187E+03 0.25027144E+03 0.69546772E+03 0.91001663E+02 0.0000E+00 0.0000E+00
      -24  1    1    2    0    0 0.66046917E+03 0.40580384E+03 -.56260678E+03 0.96119191E+03 0.80419002E+02 0.0000E+00 0.9000E+01
      -11  1    4    4    0    0 -.53937299E+03 -.28079960E+03 0.25453747E+03 0.65921238E+03 0.51099893E-03 0.0000E+00 0.9000E+01
       11  1    4    4    0    0 -.25323626E+02 -.25592275E+02 -.42660275E+01 0.36255338E+02 0.51099893E-03 0.0000E+00 0.9000E+01
       23  1    3    3    0    0 -.95772554E+02 -.99411966E+02 0.16587696E+03 0.23427663E+03 0.91188000E+02 0.0000E+00 0.9000E+01
#aMCatNLO 1  0  0  1  2 0.53785306D+03 0.00000000D+00  -5  7  0 0.00000000D+00 0.00000000D+00 0.00000000D+00 0.00000000D+00 0.00000000D+00
  <mgrwgt>
 0.1304872216D-02    9    2    0
 0.942627957387506D+03 0.000000000000000D+00 0.000000000000000D+00 0.942627957387506D+03
 0.942627957387506D+03 0.000000000000000D+00 0.000000000000000D+00 -.942627957387506D+03
 0.920381227804787D+03 0.660469169824105D+03 0.405803840720478D+03 -.489630582285710D+03
 0.680972658832975D+03 -.539372989501174D+03 -.280799599827741D+03 0.306516108893479D+03
 0.360331652136775D+02 -.253236258430382D+02 -.255922747392797D+02 -.146234166568768D+01
 0.247868862923573D+03 -.957725544798928D+02 -.994119661534572D+02 0.184576815057918D+03
 0.000000000000000D+00 -.000000000000000D+00 -.000000000000000D+00 0.000000000000000D+00
 0.158800934057142D+04 0.000000000000000D+00 0.000000000000000D+00 0.158800934057142D+04
 0.109923402109394D+04 0.000000000000000D+00 0.000000000000000D+00 -.109923402109394D+04
 0.116246787147055D+04 0.834356154329956D+03 0.639512343015500D+03 -.489630582285710D+03
 0.552015736507789D+03 -.436436759473224D+03 -.142450704882596D+03 0.306516108893479D+03
 0.273004548595775D+02 -.200362086142965D+02 -.184858523405604D+02 -.146234166568768D+01
 0.218694393707349D+03 -.568214476498267D+02 -.470606940564828D+02 0.184576815057918D+03
 0.726764905120103D+03 -.321061738592609D+03 -.431515091735861D+03 0.488775319477482D+03
0.212987093678D-02 0.000000000000D+00 0.000000000000D+00 0.299591681851D-04 0.000000000000D+00  7 -2 1 -24 -11 11 23 21 0 0.13419061D+00 0.15672266D+00 0.63112476D+06 0.63112476D+06 0.63112476D+06 0.10614346D+01  1  2  2  1  7  1       -2 0.130556911150D-02 0.100000000000D+01
-.114117258330D-03 0.000000000000D+00 -.817926520515D-05 0.299591681851D-04 0.000000000000D+00  7 -2 1 -24 -11 11 23 21 2 0.13419061D+00 0.15672266D+00 0.63112476D+06 0.63112476D+06 0.63112476D+06 0.10614346D+01  1  2  3  1  7  1       -2 -.788105526404D-04 0.100000000000D+01
0.133961176091D-03 0.000000000000D+00 0.000000000000D+00 0.299591681851D-04 0.000000000000D+00  7 -2 1 -24 -11 11 23 21 2 0.13419061D+00 0.15672266D+00 0.63112476D+06 0.63112476D+06 0.63112476D+06 0.10614346D+01  1  2 15  1  7  1       -2 0.925149664005D-04 0.100000000000D+01
0.343428565459D-03 0.000000000000D+00 0.000000000000D+00 0.299591681851D-04 0.000000000000D+00  7 -2 1 -24 -11 11 23 21 2 0.23083003D+00 0.15672266D+00 0.12054162D+07 0.12054162D+07 0.12054162D+07 0.10425053D+01  1  2 12  1  7  1       -2 0.427914131010D-04 0.100000000000D+01
-.133663925082D-02 0.000000000000D+00 0.000000000000D+00 0.299591681851D-04 0.000000000000D+00  7 -2 1 -24 -11 11 23 21 2 0.13419061D+00 0.15672266D+00 0.63112476D+06 0.63112476D+06 0.63112476D+06 0.10614346D+01  1  2  4  1  7  1       -2 -.923096817958D-03 0.100000000000D+01
-.130113507239D-02 0.000000000000D+00 -.625557342151D-03 0.299591681851D-04 0.000000000000D+00  7 -2 1 -24 -11 11 23 21 2 0.24374873D+00 0.15672266D+00 0.63112476D+06 0.63112476D+06 0.63112476D+06 0.10614346D+01  1  2  5  1  7  1       -2 -.144828595034D-03 0.100000000000D+01
0.149685322867D-02 0.000000000000D+00 0.528573367268D-03 0.299591681851D-04 0.000000000000D+00  7 -2 1 -24 -11 11 23 21 2 0.13419061D+00 0.15672266D+00 0.63112476D+06 0.63112476D+06 0.63112476D+06 0.10614346D+01  1  2  6  1  7  1       -2 0.103374223934D-02 0.100000000000D+01
0.206824475418D-04 0.000000000000D+00 0.000000000000D+00 0.299591681851D-04 0.000000000000D+00  7 21 1 -24 -11 11 23 2 2 0.23083003D+00 0.15672266D+00 0.12054162D+07 0.12054162D+07 0.12054162D+07 0.10425053D+01  1  2 12  3  7  1       -2 0.186496465550D-04 0.100000000000D+01
-.513015159583D-04 0.000000000000D+00 -.408706702392D-04 0.299591681851D-04 0.000000000000D+00  7 21 1 -24 -11 11 23 2 2 0.24374873D+00 0.15672266D+00 0.63112476D+06 0.63112476D+06 0.63112476D+06 0.10614346D+01  1  2  5  3  7  1       -2 -.416591952768D-04 0.100000000000D+01
  </mgrwgt>
  </event>
  <event>
  8     66 0.26562228E-05 0.19144366E+03 0.75467711E-02 0.99550417E-01
       -2 -1    0    0    0  501 0.00000000E+00 0.00000000E+00 0.31366454E+02 0.31368086E+02 0.32000000E+00 0.0000E+00 0.9000E+01
        1 -1    0    0  501    0 0.00000000E+00 0.00000000E+00 -.16950794E+04 0.16950794E+04 0.32000000E+00 0.0000E+00 0.9000E+01
       25  2    1    2    0    0 -.56547107E+02 -.84692352E+02 -.98838265E+03 0.10387640E+04 0.30291921E+03 0.0000E+00 0.0000E+00
       23  2    3    3    0    0 0.45886034E+02 -.51444512E+02 -.14284801E+03 0.18153473E+03 0.88301976E+02 0.0000E+00 0.0000E+00
      -24  1    1    2    0    0 0.56547107E+02 0.84692352E+02 -.67533029E+03 0.68768349E+03 0.80419002E+02 0.0000E+00 0.9000E+01
      -13  1    4    4    0    0 0.72188383E+02 -.30401432E+02 -.98751763E+02 0.12604496E+03 0.10565837E+00 0.0000E+00 0.9000E+01
       13  1    4    4    0    0 -.26302349E+02 -.21043080E+02 -.44096246E+02 0.55489773E+02 0.10565837E+00 0.0000E+00 0.9000E+01
       23  1    3    3    0    0 -.10243314E+03 -.33247839E+02 -.84553464E+03 0.85722929E+03 0.91188000E+02 0.0000E+00 0.9000E+01
#aMCatNLO 1  0  0  2  2 0.22209892D+03 0.00000000D+00  -5  7  0 0.00000000D+00 0.00000000D+00 0.00000000D+00 0.00000000D+00 0.00000000D+00
  <mgrwgt>
 0.1309443956D-02    3    2    0
 0.230586348313998D+03 0.000000000000000D+00 0.000000000000000D+00 0.230586348313998D+03
 0.230586348313998D+03 0.000000000000000D+00 0.000000000000000D+00 -.230586348313998D+03
 0.138112667483317D+03 0.565472145246414D+02 0.846925131825225D+02 -.473020475806203D+02
 0.115608328416573D+03 0.721884114908710D+02 -.304014747337870D+02 0.850286374094629D+02
 0.486513194818768D+02 -.263025308180131D+02 -.210431072124964D+02 0.351043501398117D+02
 0.158800381246228D+03 -.102433095197499D+03 -.332479312362391D+02 -.728309399686543D+02
 0.000000000000000D+00 -.000000000000000D+00 0.000000000000000D+00 0.000000000000000D+00
 0.501186994244753D+03 0.000000000000000D+00 0.000000000000000D+00 0.501186994244753D+03
 0.306216308582372D+03 0.000000000000000D+00 0.000000000000000D+00 -.306216308582372D+03
 0.178046607150225D+03 0.128582931200490D+03 0.803885841516503D+02 -.473020475806203D+02
 0.163893613246979D+03 0.135871890975579D+03 -.342063813660700D+02 0.850286374094629D+02
 0.419591136882010D+02 -.565728009974383D+01 -.222766021788314D+02 0.351043501398117D+02
 0.127968017936441D+03 -.370939803508657D+02 -.371517573688416D+02 -.728309399686543D+02
 0.295535950805278D+03 -.221703561725459D+03 0.132461567620927D+02 0.194970685662382D+03
0.125716476792D-04 0.000000000000D+00 0.000000000000D+00 0.760237620286D-08 0.000000000000D+00  7 -2 1 -24 -13 13 23 21 0 0.48257361D-02 0.26078157D+00 0.36650674D+05 0.36650674D+05 0.36650674D+05 0.11593525D+01  1  2  2  2  7  2        1 0.129050722062D-02 0.100000000000D+01
-.669036480007D-06 0.000000000000D+00 -.482784372790D-07 0.760237620286D-08 0.000000000000D+00  7 -2 1 -24 -13 13 23 21 2 0.48257361D-02 0.26078157D+00 0.36650674D+05 0.36650674D+05 0.36650674D+05 0.11593525D+01  1  2  3  2  7  2        1 -.923100660583D-04 0.100000000000D+01
0.806284424086D-06 0.000000000000D+00 0.000000000000D+00 0.760237620286D-08 0.000000000000D+00  7 -2 1 -24 -13 13 23 21 2 0.48257361D-02 0.26078157D+00 0.36650674D+05 0.36650674D+05 0.36650674D+05 0.11593525D+01  1  2 15  2  7  2        1 0.111246801442D-03 0.100000000000D+01
  </mgrwgt>
  </event>
  <event>
  8     66 0.26562228E-05 0.17841503E+03 0.75467711E-02 0.10718894E+00
       -2 -1    0    0    0  501 0.00000000E+00 0.00000000E+00 0.13425717E+03 0.13425756E+03 0.32000000E+00 0.0000E+00 0.9000E+01
        1 -1    0    0  501    0 0.00000000E+00 0.00000000E+00 -.94894609E+03 0.94894614E+03 0.32000000E+00 0.0000E+00 0.9000E+01
       25  2    1    2    0    0 -.10809915E+03 0.72229986E+02 -.87385242E+02 0.34000760E+03 0.30177208E+03 0.0000E+00 0.0000E+00
       23  2    3    3    0    0 -.50355476E+02 0.45285474E+02 -.16760606E+03 0.20285450E+03 0.92041887E+02 0.0000E+00 0.0000E+00
      -24  1    1    2    0    0 0.10809915E+03 -.72229986E+02 -.72730367E+03 0.74319610E+03 0.80419002E+02 0.0000E+00 0.9000E+01
      -13  1    4    4    0    0 0.15140500E+02 0.56690039E+01 0.24624747E+01 0.16353816E+02 0.10565837E+00 0.0000E+00 0.9000E+01
       13  1    4    4    0    0 -.65495976E+02 0.39616470E+02 -.17006854E+03 0.18650069E+03 0.10565837E+00 0.0000E+00 0.9000E+01
       23  1    3    3    0    0 -.57743678E+02 0.26944512E+02 0.80220822E+02 0.13715309E+03 0.91188000E+02 0.0000E+00 0.9000E+01
#aMCatNLO 1  0  0  2  2 0.19552734D+02 0.00000000D+00  -5  7  0 0.00000000D+00 0.00000000D+00 0.00000000D+00 0.00000000D+00 0.00000000D+00
  <mgrwgt>
 0.1470877820D-02    4    2    0
 0.356935646563818D+03 0.000000000000000D+00 0.000000000000000D+00 0.356935646563818D+03
 0.356935646563818D+03 0.000000000000000D+00 0.000000000000000D+00 -.356935646563818D+03
 0.297681850691596D+03 0.108099155031865D+03 -.722299867218209D+02 -.255430362283668D+03
 0.276248779443863D+02 0.151406059472326D+02 0.566895930103764D+01 0.223999739606108D+02
 0.889030539137987D+02 -.654960818924528D+02 0.396165144422715D+02 -.452166787301125D+02
 0.299661510577854D+03 -.577436790866445D+02 0.269445129785117D+02 0.278247067053169D+03
 0.000000000000000D+00 -.000000000000000D+00 -.000000000000000D+00 0.000000000000000D+00
 0.433229961549266D+03 0.000000000000000D+00 0.000000000000000D+00 0.433229961549266D+03
 0.358324454630979D+03 0.000000000000000D+00 0.000000000000000D+00 -.358324454630979D+03
 0.300739111899199D+03 0.116292670833109D+03 -.721674594653641D+02 -.255430362283668D+03
 0.280511077940405D+02 0.159029155877951D+02 0.567477672197771D+01 0.223999739606108D+02
 0.871508084241834D+02 -.630855712434086D+02 0.396349097955241D+02 -.452166787301125D+02
 0.298197986743461D+03 -.495578508078044D+02 0.270069815691044D+02 0.278247067053169D+03
 0.774154013193605D+02 -.195521643696916D+02 -.149208621242089D+00 0.749055069182870D+02
0.424226402548D-04 0.000000000000D+00 0.000000000000D+00 0.604384313949D-06 0.000000000000D+00  7 -2 1 -24 -13 13 23 21 0 0.20654983D-01 0.14599174D+00 0.31831923D+05 0.31831923D+05 0.31831923D+05 0.11649551D+01  1  2  2  2  7  2        1 0.150683488498D-02 0.100000000000D+01
-.978879814973D-06 0.000000000000D+00 -.162914108716D-06 0.604384313949D-06 0.000000000000D+00  7 -2 1 -24 -13 13 23 21 2 0.20654983D-01 0.14599174D+00 0.31831923D+05 0.31831923D+05 0.31831923D+05 0.11649551D+01  1  2  3  2  7  2        1 -.471862759022D-04 0.100000000000D+01
0.266053885569D-05 0.000000000000D+00 0.000000000000D+00 0.604384313949D-06 0.000000000000D+00  7 -2 1 -24 -13 13 23 21 2 0.20654983D-01 0.14599174D+00 0.31831923D+05 0.31831923D+05 0.31831923D+05 0.11649551D+01  1  2 15  2  7  2        1 0.128249575252D-03 0.100000000000D+01
-.242758874870D-05 0.000000000000D+00 0.000000000000D+00 0.604384313949D-06 0.000000000000D+00  7 -2 1 -24 -13 13 23 21 2 0.20654983D-01 0.14599174D+00 0.31831923D+05 0.31831923D+05 0.31831923D+05 0.11649551D+01  1  2  4  2  7  2        1 -.117020364217D-03 0.100000000000D+01
  </mgrwgt>
  </event>
  <event>
  8     66 0.26562228E-05 0.17015688E+03 0.75467711E-02 0.96451222E-01
       -2 -1    0    0    0  501 0.00000000E+00 0.00000000E+00 0.83784384E+02 0.83784995E+02 0.32000000E+00 0.0000E+00 0.9000E+01
        1 -1    0    0  501    0 0.00000000E+00 0.00000000E+00 -.56922468E+03 0.56922477E+03 0.32000000E+00 0.0000E+00 0.9000E+01
       25  2    1    2    0    0 0.43118068E+02 0.17121211E+02 -.21483922E+03 0.36692505E+03 0.29381252E+03 0.0000E+00 0.0000E+00
       23  2    3    3    0    0 0.57582796E+02 -.74320884E+02 -.19269344E+02 0.13211936E+03 0.90801133E+02 0.0000E+00 0.0000E+00
      -24  1    1    2    0    0 -.43118068E+02 -.17121211E+02 -.27060108E+03 0.28608472E+03 0.80419002E+02 0.0000E+00 0.9000E+01
      -11  1    4    4    0    0 -.45878391E+01 -.50874350E+02 -.37325429E+02 0.63264804E+02 0.51099893E-03 0.0000E+00 0.9000E+01
       11  1    4    4    0    0 0.62170635E+02 -.23446534E+02 0.18056085E+02 0.68854557E+02 0.51099893E-03 0.0000E+00 0.9000E+01
       23  1    3    3    0    0 -.14464728E+02 0.91442095E+02 -.19556987E+03 0.23480569E+03 0.91188000E+02 0.0000E+00 0.9000E+01
#aMCatNLO 1  0  0  1  2 0.35994014D+03 0.00000000D+00  -5  7  0 0.00000000D+00 0.00000000D+00 0.00000000D+00 0.00000000D+00 0.00000000D+00
  <mgrwgt>
 0.1522523551D-01    3    2    0
 0.218385824097215D+03 0.000000000000000D+00 0.000000000000000D+00 0.218385824097215D+03
 0.218385824097215D+03 0.000000000000000D+00 0.000000000000000D+00 -.218385824097215D+03
 0.126966676517118D+03 -.431180679755107D+02 -.171212115359981D+02 -.866084136849929D+02
 0.531015863913221D+02 -.458783912934627D+01 -.508743499315405D+02 0.145096770619283D+02
 0.123011303629226D+03 0.621706352065269D+02 -.234465338144711D+02 0.103522234281653D+03
 0.133692081656763D+03 -.144647281016699D+02 0.914420952820097D+02 -.314234976585882D+02
 0.000000000000000D+00 -.000000000000000D+00 -.000000000000000D+00 -.000000000000000D+00
 0.397877165824984D+03 0.000000000000000D+00 0.000000000000000D+00 0.397877165824984D+03
 0.564901389859607D+03 0.000000000000000D+00 0.000000000000000D+00 -.564901389859607D+03
 0.131947008466215D+03 0.125346170274622D+02 0.573119808046874D+02 -.866084136849929D+02
 0.329682849336625D+02 0.139126099195486D+02 -.261307552177925D+02 0.145096770619283D+02
 0.174604448772778D+03 0.126142208286635D+03 0.621128314372427D+02 0.103522234281653D+03
 0.226454085403560D+03 0.629475616030109D+02 0.194977869859886D+03 -.314234976585882D+02
 0.396804728108375D+03 -.215536996836657D+03 -.288271926884024D+03 -.167024224034623D+03
0.922720264164D-04 0.000000000000D+00 0.000000000000D+00 0.869543293235D-08 0.000000000000D+00  7 -2 1 -24 -11 11 23 21 0 0.12889959D-01 0.87573082D-01 0.28953363D+05 0.28953363D+05 0.28953363D+05 0.11687695D+01  1  2  2  1  7  1       -2 0.149829380186D-01 0.100000000000D+01
-.473810179863D-05 0.000000000000D+00 -.354348877221D-06 0.869543293235D-08 0.000000000000D+00  7 -2 1 -24 -11 11 23 21 2 0.12889959D-01 0.87573082D-01 0.28953363D+05 0.28953363D+05 0.28953363D+05 0.11687695D+01  1  2  3  1  7  1       -2 -.105096697938D-02 0.100000000000D+01
0.583045788086D-05 0.000000000000D+00 0.000000000000D+00 0.869543293235D-08 0.000000000000D+00  7 -2 1 -24 -11 11 23 21 2 0.12889959D-01 0.87573082D-01 0.28953363D+05 0.28953363D+05 0.28953363D+05 0.11687695D+01  1  2 15  1  7  1       -2 0.129326446917D-02 0.100000000000D+01
  </mgrwgt>
  </event>
  <event>
  8     66 0.26562228E-05 0.47238144E+03 0.75467711E-02 0.77620436E-01
       -2 -1    0    0    0  501 0.00000000E+00 0.00000000E+00 0.85215992E+03 0.85215998E+03 0.32000000E+00 0.0000E+00 0.9000E+01
        1 -1    0    0  501    0 0.00000000E+00 0.00000000E+00 -.42172279E+03 0.42172291E+03 0.32000000E+00 0.0000E+00 0.9000E+01
       25  2    1    2    0    0 -.40888928E+03 0.17012536E+03 -.13442734E+03 0.55161413E+03 0.30012390E+03 0.0000E+00 0.0000E+00
       23  2    3    3    0    0 -.68487617E+02 0.17483826E+02 0.52704198E+02 0.12440669E+03 0.87767046E+02 0.0000E+00 0.0000E+00
      -24  1    1    2    0    0 0.40888928E+03 -.17012536E+03 0.56486447E+03 0.72226876E+03 0.80419002E+02 0.0000E+00 0.9000E+01
      -13  1    4    4    0    0 -.88846335E+02 0.13535968E+02 0.32822542E+02 0.95677709E+02 0.10565837E+00 0.0000E+00 0.9000E+01
       13  1    4    4    0    0 0.20358718E+02 0.39478575E+01 0.19881656E+02 0.28728982E+02 0.10565837E+00 0.0000E+00 0.9000E+01
       23  1    3    3    0    0 -.34040166E+03 0.15264153E+03 -.18713154E+03 0.42720744E+03 0.91188000E+02 0.0000E+00 0.9000E+01
#aMCatNLO 1  0  0  1  2 0.30919685D+04 0.00000000D+00  -5  7  0 0.00000000D+00 0.00000000D+00 0.00000000D+00 0.00000000D+00 0.00000000D+00
  <mgrwgt>
 0.1045840504D-02    5    2    0
 0.599479251593952D+03 0.000000000000000D+00 0.000000000000000D+00 0.599479251593952D+03
 0.599479251593952D+03 0.000000000000000D+00 0.000000000000000D+00 -.599479251593952D+03
 0.564612682981253D+03 0.408889281759647D+03 -.170125356278131D+03 0.340862412480808D+03
 0.898732283655718D+02 -.888464928839560D+02 0.135359820637121D+02 0.524469867809445D+00
 0.233864970699931D+02 0.203588761170710D+02 0.394784363959464D+01 0.108101313151998D+02
 0.521086094771086D+03 -.340401664992762D+03 0.152641530574824D+03 -.352197013663818D+03
 0.000000000000000D+00 0.000000000000000D+00 -.000000000000000D+00 0.000000000000000D+00
 0.429827110271515D+04 0.000000000000000D+00 0.000000000000000D+00 0.429827110271515D+04
 0.256342942798290D+04 0.000000000000000D+00 0.000000000000000D+00 -.256342942798290D+04
 0.551722594091260D+03 -.781499619036396D+02 0.419089494128214D+03 0.340862412480808D+03
 0.421470734968438D+03 -.311937693412062D+03 0.283429322397939D+03 0.524469867809445D+00
 0.390833491250254D+02 -.689571958321999D+01 0.369201610398216D+02 0.108101313151998D+02
 0.230401203372812D+04 -.157294683671490D+04 0.164376145247870D+04 -.352197013663818D+03
 0.354541181878520D+04 0.196993021161382D+04 -.238320043004467D+04 0.173484167473226D+04
0.392557045105D-03 0.000000000000D+00 0.000000000000D+00 0.206350049971D-05 0.000000000000D+00  7 -2 1 -24 -13 13 23 21 0 0.13110154D+00 0.64880443D-01 0.22314422D+06 0.22314422D+06 0.22314422D+06 0.10941916D+01  1  2  2  1  7  1       -2 0.103173613429D-02 0.100000000000D+01
-.203032718625D-04 0.000000000000D+00 -.150752241585D-05 0.206350049971D-05 0.000000000000D+00  7 -2 1 -24 -13 13 23 21 2 0.13110154D+00 0.64880443D-01 0.22314422D+06 0.22314422D+06 0.22314422D+06 0.10941916D+01  1  2  3  1  7  1       -2 -.638879000905D-04 0.100000000000D+01
0.247836447930D-04 0.000000000000D+00 0.000000000000D+00 0.206350049971D-05 0.000000000000D+00  7 -2 1 -24 -13 13 23 21 2 0.13110154D+00 0.64880443D-01 0.22314422D+06 0.22314422D+06 0.22314422D+06 0.10941916D+01  1  2 15  1  7  1       -2 0.779862001130D-04 0.100000000000D+01
0.433477241665D-03 0.000000000000D+00 -.192284416433D-03 0.206350049971D-05 0.000000000000D+00  7 -2 1 -24 -13 13 23 21 2 0.97549138D+00 0.64880443D-01 0.22314422D+06 0.22314422D+06 0.22314422D+06 0.10941916D+01  1  2  5  1  7  1       -2 0.606726674039D-08 0.100000000000D+01
0.856950267669D-04 0.000000000000D+00 -.470440586216D-04 0.206350049971D-05 0.000000000000D+00  7 21 1 -24 -13 13 23 2 2 0.97549138D+00 0.64880443D-01 0.22314422D+06 0.22314422D+06 0.22314422D+06 0.10941916D+01  1  2  5  3  7  1       -2 0.239905099190D-11 0.100000000000D+01
  </mgrwgt>
  </event>
  <event>
  8     66 0.26562228E-05 0.41389972E+03 0.75467711E-02 0.82736186E-01
       -2 -1    0    0    0  501 0.00000000E+00 0.00000000E+00 0.16603765E+03 0.16603796E+03 0.32000000E+00 0.0000E+00 0.9000E+01
        1 -1    0    0  501    0 0.00000000E+00 0.00000000E+00 -.10767449E+04 0.10767450E+04 0.32000000E+00 0.0000E+00 0.9000E+01
       25  2    1    2    0    0 -.12934067E+03 -.34050715E+03 -.47880264E+03 0.67209654E+03 0.29964590E+03 0.0000E+00 0.0000E+00
       23  2    3    3    0    0 0.42500910E+02 -.19552493E+03 -.16239462E+03 0.27337526E+03 0.91245257E+02 0.0000E+00 0.0000E+00
      -24  1    1    2    0    0 0.12934067E+03 0.34050715E+03 -.43190464E+03 0.57068640E+03 0.80419002E+02 0.0000E+00 0.9000E+01
      -11  1    4    4    0    0 -.18870486E+01 -.14458187E+03 -.14232601E+03 0.20288956E+03 0.51099893E-03 0.0000E+00 0.9000E+01
       11  1    4    4    0    0 0.44387958E+02 -.50943059E+02 -.20068611E+02 0.70485710E+02 0.51099893E-03 0.0000E+00 0.9000E+01
       23  1    3    3    0    0 -.17184158E+03 -.14498222E+03 -.31640802E+03 0.39872128E+03 0.91188000E+02 0.0000E+00 0.9000E+01
#aMCatNLO 1  0  0  1  2 0.15593186D+04 0.00000000D+00  -5  7  0 0.00000000D+00 0.00000000D+00 0.00000000D+00 0.00000000D+00 0.00000000D+00
  <mgrwgt>
 0.9265789964D-03    5    2    0
 0.422824338077867D+03 0.000000000000000D+00 0.000000000000000D+00 0.422824338077867D+03
 0.422824338077867D+03 0.000000000000000D+00 0.000000000000000D+00 -.422824338077867D+03
 0.373560115501997D+03 0.129340667022569D+03 0.340507152510235D+03 -.201448475552258D+02
 0.144895091413890D+03 -.188704857783752D+01 -.144581869180169D+03 0.933325601668558D+01
 0.819747127723680D+02 0.443879582634177D+02 -.509430591058803D+02 0.464151637318248D+02
 0.245218756467480D+03 -.171841576708149D+03 -.144982224224186D+03 -.356035721932846D+02
 0.000000000000000D+00 -.000000000000000D+00 0.000000000000000D+00 0.000000000000000D+00
 0.430839940328082D+04 0.000000000000000D+00 0.000000000000000D+00 0.430839940328082D+04
 0.106459553655274D+04 0.000000000000000D+00 0.000000000000000D+00 -.106459553655274D+04
 0.847592165639569D+03 0.830387581909565D+03 0.148310189220313D+03 -.201448475552258D+02
 0.371070656815011D+03 0.294321869481989D+03 -.225789636223361D+03 0.933325601668558D+01
 0.275725513111778D+03 0.249738792621308D+03 -.107241440761265D+03 0.464151637318248D+02
 0.279476426509097D+03 0.129378791105384D+03 -.227563915613793D+03 -.356035721932846D+02
 0.359913017775810D+04 -.150382703511825D+04 0.412284803378106D+03 0.324380386672808D+04
0.473766578274D-04 0.000000000000D+00 0.000000000000D+00 0.450306473267D-05 0.000000000000D+00  7 -2 1 -24 -11 11 23 21 0 0.25544281D-01 0.16565309D+00 0.17131298D+06 0.17131298D+06 0.17131298D+06 0.11030272D+01  1  2  2  1  7  1       -2 0.915625499983D-03 0.100000000000D+01
-.263058014472D-05 0.000000000000D+00 -.181938840618D-06 0.450306473267D-05 0.000000000000D+00  7 -2 1 -24 -11 11 23 21 2 0.25544281D-01 0.16565309D+00 0.17131298D+06 0.17131298D+06 0.17131298D+06 0.11030272D+01  1  2  3  1  7  1       -2 -.618553759560D-04 0.100000000000D+01
0.305551752271D-05 0.000000000000D+00 0.000000000000D+00 0.450306473267D-05 0.000000000000D+00  7 -2 1 -24 -11 11 23 21 2 0.25544281D-01 0.16565309D+00 0.17131298D+06 0.17131298D+06 0.17131298D+06 0.11030272D+01  1  2 15  1  7  1       -2 0.718473396398D-04 0.100000000000D+01
0.803393512655D-04 0.000000000000D+00 -.546601066969D-04 0.450306473267D-05 0.000000000000D+00  7 -2 1 -24 -11 11 23 21 2 0.44081325D+00 0.16565309D+00 0.17131298D+06 0.17131298D+06 0.17131298D+06 0.11030272D+01  1  2  5  1  7  1       -2 0.430662753882D-06 0.100000000000D+01
0.121356509401D-04 0.000000000000D+00 -.171439359072D-04 0.450306473267D-05 0.000000000000D+00  7 21 1 -24 -11 11 23 2 2 0.44081325D+00 0.16565309D+00 0.17131298D+06 0.17131298D+06 0.17131298D+06 0.11030272D+01  1  2  5  3  7  1       -2 0.530869995357D-06 0.100000000000D+01
  </mgrwgt>
  </event>
  <event>
  7     66 0.26562228E-05 0.20123679E+03 0.75467711E-02 0.99722219E-01
       -2 -1    0    0    0  501 0.00000000E+00 0.00000000E+00 0.68968172E+02 0.68968914E+02 0.32000000E+00 0.0000E+00 0.9000E+01
        1 -1    0    0  501    0 0.00000000E+00 0.00000000E+00 -.27030502E+04 0.27030503E+04 0.32000000E+00 0.0000E+00 0.9000E+01
       23  2    1    2    0    0 0.52256328E+02 -.10964821E+03 -.24830610E+03 0.29131170E+03 0.91940910E+02 0.0000E+00 0.0000E+00
      -24  1    1    2    0    0 -.78800906E+02 -.24039400E+02 -.22856932E+04 0.22885908E+04 0.80419002E+02 0.0000E+00 0.9000E+01
      -11  1    3    3    0    0 0.46406894E+02 -.10756146E+03 -.25593721E+03 0.28147278E+03 0.51099893E-03 0.0000E+00 0.9000E+01
       11  1    3    3    0    0 0.58494342E+01 -.20867563E+01 0.76311143E+01 0.98389195E+01 0.51099893E-03 0.0000E+00 0.9000E+01
       23  1    1    2    0    0 0.26544577E+02 0.13368761E+03 -.10008281E+03 0.19211667E+03 0.91188000E+02 0.0000E+00 0.9000E+01
#aMCatNLO 1  0  0  2  2 0.19081106D+03 0.00000000D+00  -5  7  0 0.00000000D+00 0.00000000D+00 0.00000000D+00 0.00000000D+00 0.00000000D+00
  <mgrwgt>
 0.2810813174D-02    7    2    0
 0.431770180738607D+03 0.000000000000000D+00 0.000000000000000D+00 0.431770180738607D+03
 0.431770180738607D+03 0.000000000000000D+00 0.000000000000000D+00 -.431770180738607D+03
 0.374405487901331D+03 -.788009058753067D+02 -.240393996311694D+02 -.356265038861333D+03
 0.122852753076102D+03 0.464068939479284D+02 -.107561457540450D+03 0.370098903572752D+02
 0.548609624795793D+02 0.584943428141038D+01 -.208675608279410D+01 0.545083000269151D+02
 0.311421158020202D+03 0.265445776459679D+02 0.133687613254413D+03 0.264746848477143D+03
 0.000000000000000D+00 0.000000000000000D+00 -.000000000000000D+00 -.000000000000000D+00
 0.531866021908535D+03 0.000000000000000D+00 0.000000000000000D+00 0.531866021908535D+03
 0.543680758505305D+03 0.000000000000000D+00 0.000000000000000D+00 -.543680758505305D+03
 0.379791897953206D+03 -.865711139207059D+02 0.579252459311899D+02 -.356265038861333D+03
 0.101187300697066D+03 0.440986947139208D+02 -.832132379049714D+02 0.370098903572752D+02
 0.556032720581339D+02 0.471136339965934D+01 0.991827337105670D+01 0.545083000269151D+02
 0.347787823267068D+03 0.197529989080038D+02 0.205329111244378D+03 0.264746848477143D+03
 0.191176486438367D+03 0.180080568991218D+02 -.189959392641654D+03 -.118147365967700D+02
0.354239217019D-03 0.000000000000D+00 0.000000000000D+00 0.805265769768D-08 0.000000000000D+00  7 -2 1 -24 -11 11 23 21 0 0.10610547D-01 0.41585394D+00 0.40496244D+05 0.40496244D+05 0.40496244D+05 0.11554367D+01  1  2  2  2  7  2        1 0.241739854847D-02 0.100000000000D+01
-.573482261257D-05 0.000000000000D+00 -.136037186668D-05 0.805265769768D-08 0.000000000000D+00  7 -2 1 -24 -11 11 23 21 2 0.10610547D-01 0.41585394D+00 0.40496244D+05 0.40496244D+05 0.40496244D+05 0.11554367D+01  1  2  3  2  7  2        1 -.522473072601D-04 0.100000000000D+01
0.224631769537D-04 0.000000000000D+00 0.000000000000D+00 0.805265769768D-08 0.000000000000D+00  7 -2 1 -24 -11 11 23 21 2 0.10610547D-01 0.41585394D+00 0.40496244D+05 0.40496244D+05 0.40496244D+05 0.11554367D+01  1  2 15  2  7  2        1 0.204651579941D-03 0.100000000000D+01
-.124424367469D-03 0.000000000000D+00 0.000000000000D+00 0.805265769768D-08 0.000000000000D+00  7 -2 1 -24 -11 11 23 21 2 0.10610547D-01 0.41585394D+00 0.40496244D+05 0.40496244D+05 0.40496244D+05 0.11554367D+01  1  2  4  2  7  2        1 -.113357266597D-02 0.100000000000D+01
-.148295752292D-03 0.000000000000D+00 -.120339674409D-03 0.805265769768D-08 0.000000000000D+00  7 -2 1 -24 -11 11 23 21 2 0.10610547D-01 0.55804358D+00 0.40496244D+05 0.40496244D+05 0.40496244D+05 0.11554367D+01  1  2  5  2  7  2        1 -.272208935125D-03 0.100000000000D+01
0.180834000367D-03 0.000000000000D+00 0.115316387302D-03 0.805265769768D-08 0.000000000000D+00  7 -2 1 -24 -11 11 23 21 2 0.10610547D-01 0.41585394D+00 0.40496244D+05 0.40496244D+05 0.40496244D+05 0.11554367D+01  1  2  6  2  7  2        1 0.164749465128D-02 0.100000000000D+01
-.303460679575D-05 0.000000000000D+00 -.458546405841D-05 0.805265769768D-08 0.000000000000D+00  7 -2 21 -24 -11 11 23 -1 2 0.10610547D-01 0.55804358D+00 0.40496244D+05 0.40496244D+05 0.40496244D+05 0.11554367D+01  1  2  5  4  7  2        1 -.702697272497D-06 0.100000000000D+01
  </mgrwgt>
  </event>
  <event>
  9     66 0.26562228E-05 0.23242916E+03 0.75467711E-02 0.10093901E+00
       21 -1    0    0  502  501 0.00000000E+00 0.00000000E+00 0.37140456E+03 0.37140532E+03 0.75000000E+00 0.0000E+00 0.9000E+01
        1 -1    0    0  501    0 0.00000000E+00 0.00000000E+00 -.44904307E+03 0.44904319E+03 0.32000000E+00 0.0000E+00 0.9000E+01
       25  2    1    2    0    0 -.32828872E+02 -.14106947E+03 -.25556222E+03 0.42020742E+03 0.30047279E+03 0.0000E+00 0.0000E+00
       23  2    3    3    0    0 -.10594557E+03 0.80072223E+01 -.14122053E+03 0.19894019E+03 0.91353066E+02 0.0000E+00 0.0000E+00
      -24  1    1    2    0    0 0.11274996E+03 0.55798267E+02 0.22845113E+03 0.27291599E+03 0.80419002E+02 0.0000E+00 0.9000E+01
      -13  1    4    4    0    0 -.39624516E+02 -.39983885E+02 -.74227933E+02 0.93159061E+02 0.10565837E+00 0.0000E+00 0.9000E+01
       13  1    4    4    0    0 -.66321057E+02 0.47991108E+02 -.66992598E+02 0.10578113E+03 0.10565837E+00 0.0000E+00 0.9000E+01
       23  1    3    3    0    0 0.73116701E+02 -.14907669E+03 -.11434168E+03 0.22126722E+03 0.91188000E+02 0.0000E+00 0.9000E+01
        2  1    1    2  502    0 -.79921089E+02 0.85271201E+02 -.50527430E+02 0.12732510E+03 0.32000000E+00 0.0000E+00 0.9000E+01
#aMCatNLO 2  0  0  1  2 0.11686983D+03 0.00000000D+00  -5  7  0 0.00000000D+00 0.00000000D+00 0.00000000D+00 0.00000000D+00 0.00000000D+00
  <mgrwgt>
 0.1969837298D-03    1    2    0
 0.341330663532417D+03 0.000000000000000D+00 0.000000000000000D+00 0.341330663532417D+03
 0.341330663532417D+03 0.000000000000000D+00 0.000000000000000D+00 -.341330663532417D+03
 0.279941012174340D+03 0.800895742250290D+02 0.906450197213711D+02 0.239309203423080D+03
 0.912834212921790D+02 -.501784018577650D+02 -.287235764843202D+02 -.706381422728224D+02
 0.118500741310067D+03 -.792072501689892D+02 0.617400137571819D+02 -.629031629806136D+02
 0.192936152288249D+03 0.492960778017251D+02 -.123661456994233D+03 -.105767898169644D+03
 0.000000000000000D+00 -.000000000000000D+00 0.000000000000000D+00 -.000000000000000D+00
 0.386227637319156D+03 0.000000000000000D+00 0.000000000000000D+00 0.386227637319156D+03
 0.431809685221864D+03 0.000000000000000D+00 0.000000000000000D+00 -.431809685221864D+03
 0.282067564715003D+03 0.112749960665848D+03 0.557982673274254D+02 0.239309203423080D+03
 0.903247867464951D+02 -.396244806201259D+02 -.399840029590534D+02 -.706381422728224D+02
 0.103239783441675D+03 -.663210923312098D+02 0.479912250741064D+02 -.629031629806136D+02
 0.216960852131459D+03 0.731167010373695D+02 -.149076690866804D+03 -.105767898169644D+03
 0.125444335506386D+03 -.799210887518817D+02 0.852712014243258D+02 -.455820479027076D+02
0.876188957298D-06 0.000000000000D+00 0.000000000000D+00 0.406701077058D-05 0.472731011600D-10  7 21 1 -24 -13 13 23 2 2 0.57139201D-01 0.69083582D-01 0.88140290D+05 0.88140290D+05 0.88140290D+05 0.11262491D+01  1  2  1  3  7  1       -2 0.196983729795D-03 0.100000000000D+01
  </mgrwgt>
  </event>
  <event>
  8     66 0.26562228E-05 0.12417414E+03 0.75467711E-02 0.96710050E-01
       -4 -1    0    0    0  501 0.00000000E+00 0.00000000E+00 0.15892739E+03 0.15893494E+03 0.15500000E+01 0.0000E+00 0.9000E+01
        3 -1    0    0  501    0 0.00000000E+00 0.00000000E+00 -.10526327E+04 0.10526329E+04 0.50000000E+00 0.0000E+00 0.9000E+01
       25  2    1    2    0    0 -.33215403E+03 -.51949635E+02 -.36770762E+03 0.58215069E+03 0.30110707E+03 0.0000E+00 0.0000E+00
       23  2    3    3    0    0 -.17841390E+03 0.66251857E+02 -.87045378E+02 0.22903008E+03 0.93043271E+02 0.0000E+00 0.0000E+00
      -24  1    1    2    0    0 0.33215403E+03 0.51949635E+02 -.52599773E+03 0.62941711E+03 0.80419002E+02 0.0000E+00 0.9000E+01
      -13  1    4    4    0    0 -.15106252E+03 0.89559354E+02 -.76708294E+02 0.19163752E+03 0.10565837E+00 0.0000E+00 0.9000E+01
       13  1    4    4    0    0 -.27351381E+02 -.23307497E+02 -.10337084E+02 0.37392566E+02 0.10565837E+00 0.0000E+00 0.9000E+01
       23  1    3    3    0    0 -.15374013E+03 -.11820149E+03 -.28066224E+03 0.35312061E+03 0.91188000E+02 0.0000E+00 0.9000E+01
#aMCatNLO 1  0  0  1  2 0.62158267D+02 0.00000000D+00  -5  7  0 0.00000000D+00 0.00000000D+00 0.00000000D+00 0.00000000D+00 0.00000000D+00
  <mgrwgt>
 0.6007924461D-04    9    2    0
 0.409019338592462D+03 0.000000000000000D+00 0.000000000000000D+00 0.409019338592462D+03
 0.409019338592462D+03 0.000000000000000D+00 0.000000000000000D+00 -.409019338592462D+03
 0.357555849106393D+03 0.332154034461669D+03 0.519496355461109D+02 -.913996828948860D+02
 0.200024030594219D+03 -.151062682237393D+03 0.895594988116561D+02 0.957537206744805D+02
 0.440873487037206D+02 -.273512219655142D+02 -.233076423143677D+02 0.255413152061935D+02
 0.216371448780590D+03 -.153740130258762D+03 -.118201492043399D+03 -.298953529857880D+02
 0.000000000000000D+00 -.000000000000000D+00 -.000000000000000D+00 0.000000000000000D+00
 0.456848243331558D+03 0.000000000000000D+00 0.000000000000000D+00 0.456848243331558D+03
 0.430903998171609D+03 0.000000000000000D+00 0.000000000000000D+00 -.430903998171609D+03
 0.380243125799657D+03 0.353304384095778D+03 0.702832050275237D+02 -.913996828948860D+02
 0.196384520883240D+03 -.139698910062505D+03 0.994098563869883D+02 0.957537206744805D+02
 0.414840196702074D+02 -.248981630411532D+02 -.211812790622328D+02 0.255413152061935D+02
 0.202285144665389D+03 -.141738577492800D+03 -.107798292790146D+03 -.298953529857880D+02
 0.673554304846728D+02 -.469687334993198D+02 -.407134895621329D+02 0.259442451599492D+02
0.421797999786D-04 0.000000000000D+00 0.000000000000D+00 0.530620836320D-06 0.000000000000D+00  7 -4 3 -24 -13 13 23 21 0 0.24450958D-01 0.16194409D+00 0.14881214D+06 0.14881214D+06 0.14881214D+06 0.11078245D+01  1  2  2  1  7  1       -4 0.558408839149D-04 0.100000000000D+01
-.233355760584D-05 0.000000000000D+00 -.161981538114D-06 0.530620836320D-06 0.000000000000D+00  7 -4 3 -24 -13 13 23 21 2 0.24450958D-01 0.16194409D+00 0.14881214D+06 0.14881214D+06 0.14881214D+06 0.11078245D+01  1  2  3  1  7  1       -4 -.379147513228D-05 0.100000000000D+01
0.270774264431D-05 0.000000000000D+00 0.000000000000D+00 0.530620836320D-06 0.000000000000D+00  7 -4 3 -24 -13 13 23 21 2 0.24450958D-01 0.16194409D+00 0.14881214D+06 0.14881214D+06 0.14881214D+06 0.11078245D+01  1  2 15  1  7  1       -4 0.439943666905D-05 0.100000000000D+01
0.647389406828D-04 0.000000000000D+00 0.000000000000D+00 0.530620836320D-06 0.000000000000D+00  7 -4 3 -24 -13 13 23 21 2 0.27906190D-01 0.16194409D+00 0.17450025D+06 0.17450025D+06 0.17450025D+06 0.11024039D+01  1  2 12  1  7  1       -4 0.804588724591D-04 0.100000000000D+01
-.620703757561D-04 0.000000000000D+00 0.000000000000D+00 0.530620836320D-06 0.000000000000D+00  7 -4 3 -24 -13 13 23 21 2 0.24450958D-01 0.16194409D+00 0.14881214D+06 0.14881214D+06 0.14881214D+06 0.11078245D+01  1  2  4  1  7  1       -4 -.100849572147D-03 0.100000000000D+01
-.159080318264D-03 0.000000000000D+00 -.361944375104D-04 0.530620836320D-06 0.000000000000D+00  7 -4 3 -24 -13 13 23 21 2 0.28710475D-01 0.16194409D+00 0.14881214D+06 0.14881214D+06 0.14881214D+06 0.11078245D+01  1  2  5  1  7  1       -4 -.189095738890D-03 0.100000000000D+01
0.163245069956D-03 0.000000000000D+00 0.357326734907D-04 0.530620836320D-06 0.000000000000D+00  7 -4 3 -24 -13 13 23 21 2 0.24450958D-01 0.16194409D+00 0.14881214D+06 0.14881214D+06 0.14881214D+06 0.11078245D+01  1  2  6  1  7  1       -4 0.265234345043D-03 0.100000000000D+01
0.133150592026D-05 0.000000000000D+00 0.000000000000D+00 0.530620836320D-06 0.000000000000D+00  7 21 3 -24 -13 13 23 4 2 0.27906190D-01 0.16194409D+00 0.17450025D+06 0.17450025D+06 0.17450025D+06 0.11024039D+01  1  2 12  3  7  1       -4 0.332181595870D-04 0.100000000000D+01
-.354973286999D-05 0.000000000000D+00 -.872220343773D-06 0.530620836320D-06 0.000000000000D+00  7 21 3 -24 -13 13 23 4 2 0.28710475D-01 0.16194409D+00 0.14881214D+06 0.14881214D+06 0.14881214D+06 0.11078245D+01  1  2  5  3  7  1       -4 -.853356668921D-04 0.100000000000D+01
  </mgrwgt>
  </event>
  <event>
  8     66 0.26562228E-05 0.21001607E+03 0.75467711E-02 0.97262560E-01
       -2 -1    0    0    0  501 0.00000000E+00 0.00000000E+00 0.56934660E+02 0.56935560E+02 0.32000000E+00 0.0000E+00 0.9000E+01
        1 -1    0    0  501    0 0.00000000E+00 0.00000000E+00 -.11544745E+04 0.11544745E+04 0.32000000E+00 0.0000E+00 0.9000E+01
       25  2    1    2    0    0 0.23110959E+02 0.10610511E+03 -.45962534E+03 0.55934067E+03 0.29969005E+03 0.0000E+00 0.0000E+00
       23  2    3    3    0    0 0.17259232E+02 -.72274797E+02 -.18857538E+03 0.22223985E+03 0.91150150E+02 0.0000E+00 0.0000E+00
      -24  1    1    2    0    0 -.23110959E+02 -.10610511E+03 -.63791451E+03 0.65206943E+03 0.80419002E+02 0.0000E+00 0.9000E+01
      -13  1    4    4    0    0 0.27793842E+02 -.29922683E+02 -.16995133E+03 0.17478939E+03 0.10565837E+00 0.0000E+00 0.9000E+01
       13  1    4    4    0    0 -.10534610E+02 -.42352113E+02 -.18624041E+02 0.47450454E+02 0.10565837E+00 0.0000E+00 0.9000E+01
       23  1    3    3    0    0 0.58517269E+01 0.17837991E+03 -.27104996E+03 0.33710083E+03 0.91188000E+02 0.0000E+00 0.9000E+01
#aMCatNLO 1  0  0  1  2 0.28750385D+03 0.00000000D+00  -5  7  0 0.00000000D+00 0.00000000D+00 0.00000000D+00 0.00000000D+00 0.00000000D+00
  <mgrwgt>
 0.1047450238D-02    3    2    0
 0.256378987377826D+03 0.000000000000000D+00 0.000000000000000D+00 0.256378987377826D+03
 0.256378987377826D+03 0.000000000000000D+00 0.000000000000000D+00 -.256378987377826D+03
 0.175105837416346D+03 -.231109590613342D+02 -.106105114761830D+03 -.111366182189898D+03
 0.491718533800996D+02 0.277938927510392D+02 -.299226665800702D+02 -.273862139646154D+02
 0.722394378680410D+02 -.105346607643046D+02 -.423521298434283D+02 0.575660872719083D+02
 0.216240846091165D+03 0.585172707459970D+01 0.178379911185328D+03 0.811863088826047D+02
 0.000000000000000D+00 -.000000000000000D+00 0.000000000000000D+00 -.000000000000000D+00
 0.365333277302951D+03 0.000000000000000D+00 0.000000000000000D+00 0.365333277302951D+03
 0.583336730081828D+03 0.000000000000000D+00 0.000000000000000D+00 -.583336730081828D+03
 0.199073526159970D+03 0.729305624322141D+02 -.124264875935082D+03 -.111366182189898D+03
 0.748037446708348D+02 0.596150091030527D+02 -.359394795608771D+02 -.273862139646154D+02
 0.814280848987318D+02 0.289075536582320D+02 -.498099583213493D+02 0.575660872719083D+02
 0.232554495156974D+03 0.121045111874658D+03 0.156598869775566D+03 0.811863088826047D+02
 0.360810156498268D+03 -.282498237068157D+03 0.534154440417417D+02 -.218003452778877D+03
0.107063236157D-04 0.000000000000D+00 0.000000000000D+00 0.161534805459D-05 0.000000000000D+00  7 -2 1 -24 -13 13 23 21 0 0.87592511D-02 0.17761153D+00 0.44106751D+05 0.44106751D+05 0.44106751D+05 0.11521171D+01  1  2  2  1  7  1       -2 0.103163945391D-02 0.100000000000D+01
-.566020691289D-06 0.000000000000D+00 -.411151017240D-07 0.161534805459D-05 0.000000000000D+00  7 -2 1 -24 -13 13 23 21 2 0.87592511D-02 0.17761153D+00 0.44106751D+05 0.44106751D+05 0.44106751D+05 0.11521171D+01  1  2  3  1  7  1       -2 -.723957638434D-04 0.100000000000D+01
0.689636086902D-06 0.000000000000D+00 0.000000000000D+00 0.161534805459D-05 0.000000000000D+00  7 -2 1 -24 -13 13 23 21 2 0.87592511D-02 0.17761153D+00 0.44106751D+05 0.44106751D+05 0.44106751D+05 0.11521171D+01  1  2 15  1  7  1       -2 0.882065480178D-04 0.100000000000D+01
  </mgrwgt>
  </event>
  <event>
  8     66 0.26562228E-05 0.51644726E+03 0.75467711E-02 0.88191619E-01
       -2 -1    0    0    0  501 0.00000000E+00 0.00000000E+00 0.19024684E+03 0.19024711E+03 0.32000000E+00 0.0000E+00 0.9000E+01
        1 -1    0    0  501    0 0.00000000E+00 0.00000000E+00 -.18197540E+04 0.18197540E+04 0.32000000E+00 0.0000E+00 0.9000E+01
       25  2    1    2    0    0 0.34057111E+03 -.33252346E+03 -.40474151E+03 0.69353669E+03 0.30102644E+03 0.0000E+00 0.0000E+00
       23  2    3    3    0    0 0.34410263E+03 -.28721300E+03 -.36106584E+03 0.58268397E+03 0.90852305E+02 0.0000E+00 0.0000E+00
      -24  1    1    2    0    0 -.34057111E+03 0.33252346E+03 -.12247656E+04 0.13164644E+04 0.80419002E+02 0.0000E+00 0.9000E+01
      -11  1    4    4    0    0 0.31518611E+03 -.26031124E+03 -.35744986E+03 0.54302360E+03 0.51099893E-03 0.0000E+00 0.9000E+01
       11  1    4    4    0    0 0.28916521E+02 -.26901753E+02 -.36159776E+01 0.39660368E+02 0.51099893E-03 0.0000E+00 0.9000E+01
       23  1    3    3    0    0 -.35315270E+01 -.45310462E+02 -.43675671E+02 0.11085272E+03 0.91188000E+02 0.0000E+00 0.9000E+01
#aMCatNLO 1  0  0  2  2 0.63765458D+03 0.00000000D+00  -5  7  0 0.00000000D+00 0.00000000D+00 0.00000000D+00 0.00000000D+00 0.00000000D+00
  <mgrwgt>
 0.1479263906D-02    5    2    0
 0.588389957452537D+03 0.000000000000000D+00 0.000000000000000D+00 0.588389957452537D+03
 0.588389957452537D+03 0.000000000000000D+00 0.000000000000000D+00 -.588389957452537D+03
 0.552635734095386D+03 -.340571106145120D+03 0.332523458351813D+03 -.269032544406091D+03
 0.432545573821933D+03 0.315186111862685D+03 -.260311243913140D+03 0.141391105145346D+03
 0.627348591676928D+02 0.289165212354330D+02 -.269017525084607D+02 0.487421077345300D+02
 0.128863747820062D+03 -.353152695299802D+01 -.453104619302124D+02 0.788993315262150D+02
 0.000000000000000D+00 0.000000000000000D+00 -.000000000000000D+00 -.000000000000000D+00
 0.862630398152041D+03 0.000000000000000D+00 0.000000000000000D+00 0.862630398152041D+03
 0.119478563462244D+04 0.000000000000000D+00 0.000000000000000D+00 -.119478563462244D+04
 0.841495715309227D+03 -.410047042280439D+03 0.679066076384961D+03 -.269032544406091D+03
 0.320092189408120D+03 0.277678735357024D+03 -.732262591997231D+02 0.141391105145346D+03
 0.539801851481077D+02 0.231000776221865D+02 0.211038765832624D+01 0.487421077345300D+02
 0.122869180767610D+03 -.160765282706164D+02 0.172633994909464D+02 0.788993315262150D+02
 0.718978762141415D+03 0.125344757571845D+03 -.625213604334511D+03 -.332155236470397D+03
0.314053084281D-03 0.000000000000D+00 0.000000000000D+00 0.488646276472D-05 0.000000000000D+00  7 -2 1 -24 -11 11 23 21 0 0.29268767D-01 0.27996217D+00 0.26671777D+06 0.26671777D+06 0.26671777D+06 0.10883505D+01  1  2  2  2  7  2        1 0.146737122318D-02 0.100000000000D+01
-.170865833694D-04 0.000000000000D+00 -.120604653572D-05 0.488646276472D-05 0.000000000000D+00  7 -2 1 -24 -11 11 23 21 2 0.29268767D-01 0.27996217D+00 0.26671777D+06 0.26671777D+06 0.26671777D+06 0.10883505D+01  1  2  3  2  7  2        1 -.945648543088D-04 0.100000000000D+01
0.203252830225D-04 0.000000000000D+00 0.000000000000D+00 0.488646276472D-05 0.000000000000D+00  7 -2 1 -24 -11 11 23 21 2 0.29268767D-01 0.27996217D+00 0.26671777D+06 0.26671777D+06 0.26671777D+06 0.10883505D+01  1  2 15  2  7  2        1 0.112489278064D-03 0.100000000000D+01
-.524744091596D-04 0.000000000000D+00 -.780034747883D-04 0.488646276472D-05 0.000000000000D+00  7 -2 1 -24 -11 11 23 21 2 0.29268767D-01 0.62211126D+00 0.26671777D+06 0.26671777D+06 0.26671777D+06 0.10883505D+01  1  2  5  2  7  2        1 -.603517411480D-05 0.100000000000D+01
0.378042558432D-06 0.000000000000D+00 -.675599250631D-05 0.488646276472D-05 0.000000000000D+00  7 -2 21 -24 -11 11 23 -1 2 0.29268767D-01 0.62211126D+00 0.26671777D+06 0.26671777D+06 0.26671777D+06 0.10883505D+01  1  2  5  4  7  2        1 0.343276883652D-08 0.100000000000D+01
  </mgrwgt>
  </event>
  <event>
  8     66 0.26562228E-05 0.18287634E+03 0.75467711E-02 0.97349868E-01
       -2 -1    0    0    0  501 0.00000000E+00 0.00000000E+00 0.94579785E+02 0.94580327E+02 0.32000000E+00 0.0000E+00 0.9000E+01
        1 -1    0    0  501    0 0.00000000E+00 0.00000000E+00 -.55098806E+03 0.55098815E+03 0.32000000E+00 0.0000E+00 0.9000E+01
       25  2    1    2    0    0 0.35992497E+02 -.74007703E+02 -.42329666E+03 0.52583463E+03 0.30091426E+03 0.0000E+00 0.0000E+00
       23  2    3    3    0    0 0.20542907E+02 -.12555328E+03 -.38097986E+03 0.41181007E+03 0.90863900E+02 0.0000E+00 0.0000E+00
      -24  1    1    2    0    0 -.35992497E+02 0.74007703E+02 -.33111616E+02 0.11973385E+03 0.80419002E+02 0.0000E+00 0.9000E+01
      -11  1    4    4    0    0 0.35493986E+02 -.25652748E+02 -.19814367E+03 0.20292560E+03 0.51099893E-03 0.0000E+00 0.9000E+01
       11  1    4    4    0    0 -.14951079E+02 -.99900528E+02 -.18283619E+03 0.20888447E+03 0.51099893E-03 0.0000E+00 0.9000E+01
       23  1    3    3    0    0 0.15449590E+02 0.51545572E+02 -.42316799E+02 0.11402455E+03 0.91188000E+02 0.0000E+00 0.9000E+01
#aMCatNLO 1  0  0  2  1 0.32102351D+03 0.00000000D+00  -5  7  0 0.00000000D+00 0.00000000D+00 0.00000000D+00 0.00000000D+00 0.00000000D+00
  <mgrwgt>
 0.1037808379D-02    3    2    0
 0.228281704870141D+03 0.000000000000000D+00 0.000000000000000D+00 0.228281704870141D+03
 0.228281704870141D+03 0.000000000000000D+00 0.000000000000000D+00 -.228281704870141D+03
 0.136200105059495D+03 -.359924972360512D+02 0.740077035008797D+02 0.728742247237366D+02
 0.888550460339645D+02 0.354939859015473D+02 -.256527479840909D+02 -.773132116224868D+02
 0.112583003980626D+03 -.149510786021064D+02 -.999005276476296D+02 -.497119966372353D+02
 0.118925254666196D+03 0.154495899366102D+02 0.515455721308408D+02 0.541509835359854D+02
 0.000000000000000D+00 0.000000000000000D+00 -.000000000000000D+00 0.000000000000000D+00
 0.841688744303599D+03 0.000000000000000D+00 0.000000000000000D+00 0.841688744303599D+03
 0.324856250279854D+03 0.000000000000000D+00 0.000000000000000D+00 -.324856250279854D+03
 0.194222899635313D+03 -.140414827696831D+03 0.789198474539941D+02 0.728742247237366D+02
 0.828442641288830D+02 -.187674966555555D+02 -.231002267728352D+02 -.773132116224868D+02
 0.144827742132341D+03 -.962996215692983D+02 -.960738006279617D+02 -.497119966372353D+02
 0.136232534823206D+03 -.651869596835175D+02 0.553388061821082D+02 0.541509835359854D+02
 0.608417553863711D+03 0.320668905605203D+03 -.150846262353054D+02 0.516832494023746D+03
0.725905967290D-05 0.000000000000D+00 0.000000000000D+00 0.320564561131D-06 0.000000000000D+00  7 -2 1 -24 -11 11 23 21 0 0.14550785D-01 0.84767442D-01 0.33443755D+05 0.33443755D+05 0.33443755D+05 0.11629824D+01  1  2  2  2  7  2        1 0.102172903076D-02 0.100000000000D+01
-.379165614435D-06 0.000000000000D+00 -.278767004983D-07 0.320564561131D-06 0.000000000000D+00  7 -2 1 -24 -11 11 23 21 2 0.14550785D-01 0.84767442D-01 0.33443755D+05 0.33443755D+05 0.33443755D+05 0.11629824D+01  1  2  3  2  7  2        1 -.721822759329D-04 0.100000000000D+01
0.463628673611D-06 0.000000000000D+00 0.000000000000D+00 0.320564561131D-06 0.000000000000D+00  7 -2 1 -24 -11 11 23 21 2 0.14550785D-01 0.84767442D-01 0.33443755D+05 0.33443755D+05 0.33443755D+05 0.11629824D+01  1  2 15  2  7  2        1 0.882616238786D-04 0.100000000000D+01
  </mgrwgt>
  </event>
  <event>
  8     66 0.26562228E-05 0.19002892E+03 0.75467711E-02 0.10196698E+00
       -2 -1    0    0    0  501 0.00000000E+00 0.00000000E+00 0.55181287E+02 0.55182215E+02 0.32000000E+00 0.0000E+00 0.9000E+01
        1 -1    0    0  501    0 0.00000000E+00 0.00000000E+00 -.71642099E+03 0.71642106E+03 0.32000000E+00 0.0000E+00 0.9000E+01
       25  2    1    2    0    0 0.31457523E+02 0.27068719E+02 -.45509800E+03 0.54647241E+03 0.29965915E+03 0.0000E+00 0.0000E+00
       23  2    3    3    0    0 -.92756058E+02 0.40827708E+02 -.13935885E+03 0.19486924E+03 0.91008481E+02 0.0000E+00 0.0000E+00
      -24  1    1    2    0    0 -.31457523E+02 -.27068719E+02 -.20614170E+03 0.22513086E+03 0.80419002E+02 0.0000E+00 0.9000E+01
      -13  1    4    4    0    0 -.10671440E+03 0.50313246E+02 -.11170751E+03 0.16247451E+03 0.10565837E+00 0.0000E+00 0.9000E+01
       13  1    4    4    0    0 0.13958346E+02 -.94855384E+01 -.27651344E+02 0.32394735E+02 0.10565837E+00 0.0000E+00 0.9000E+01
       23  1    3    3    0    0 0.12421358E+03 -.13758988E+02 -.31573915E+03 0.35160317E+03 0.91188000E+02 0.0000E+00 0.9000E+01
#aMCatNLO 1  0  0  1  2 0.14132410D+03 0.00000000D+00  -5  7  0 0.00000000D+00 0.00000000D+00 0.00000000D+00 0.00000000D+00 0.00000000D+00
  <mgrwgt>
 0.2211611783D-02    5    2    0
 0.198830122236509D+03 0.000000000000000D+00 0.000000000000000D+00 0.198830122236509D+03
 0.198830122236509D+03 0.000000000000000D+00 0.000000000000000D+00 -.198830122236509D+03
 0.940568382159458D+02 -.314576061641835D+02 -.270687911528064D+02 -.256353744024727D+02
 0.129508698637429D+03 -.106714491840483D+03 0.503133385822725D+02 0.534143072097110D+02
 0.168778730033915D+02 0.139585226940309D+02 -.948560884639206D+01 0.213227887682431D+00
 0.157216834616252D+03 0.124213575310636D+03 -.137589385830741D+02 -.279921606949208D+02
 0.000000000000000D+00 0.000000000000000D+00 -.000000000000000D+00 0.000000000000000D+00
 0.284043182145133D+03 0.000000000000000D+00 0.000000000000000D+00 0.284043182145133D+03
 0.279383963785499D+03 0.000000000000000D+00 0.000000000000000D+00 -.279383963785499D+03
 0.108697454325394D+03 -.656148689372970D+02 -.196325539866078D+02 -.256353744024727D+02
 0.178304958122964D+03 -.158570715584668D+03 0.616027437335761D+02 0.534143072097110D+02
 0.123477637564857D+02 0.903498819320080D+01 -.841372640407432D+01 0.213227887682431D+00
 0.122676091010817D+03 0.770610534619060D+02 -.349355702189360D+01 -.279921606949208D+02
 0.141400878714971D+03 0.138089542866859D+03 -.300629063210003D+02 0.465921835963344D+01
0.108277087675D-04 0.000000000000D+00 0.000000000000D+00 0.785903146021D-06 0.000000000000D+00  7 -2 1 -24 -13 13 23 21 0 0.84895056D-02 0.11021869D+00 0.36110989D+05 0.36110989D+05 0.36110989D+05 0.11599382D+01  1  2  2  1  7  1       -2 0.239700520485D-02 0.100000000000D+01
-.600040195620D-06 0.000000000000D+00 -.415812526686D-07 0.785903146021D-06 0.000000000000D+00  7 -2 1 -24 -13 13 23 21 2 0.84895056D-02 0.11021869D+00 0.36110989D+05 0.36110989D+05 0.36110989D+05 0.11599382D+01  1  2  3  1  7  1       -2 -.178723834538D-03 0.100000000000D+01
0.704518766048D-06 0.000000000000D+00 0.000000000000D+00 0.785903146021D-06 0.000000000000D+00  7 -2 1 -24 -13 13 23 21 2 0.84895056D-02 0.11021869D+00 0.36110989D+05 0.36110989D+05 0.36110989D+05 0.11599382D+01  1  2 15  1  7  1       -2 0.209843100997D-03 0.100000000000D+01
-.245245058020D-05 0.000000000000D+00 -.344864432900D-05 0.785903146021D-06 0.000000000000D+00  7 -2 1 -24 -13 13 23 21 2 0.17095117D-01 0.11021869D+00 0.36110989D+05 0.36110989D+05 0.36110989D+05 0.11599382D+01  1  2  5  1  7  1       -2 -.246970252556D-03 0.100000000000D+01
0.223252586804D-07 0.000000000000D+00 -.261124004283D-06 0.785903146021D-06 0.000000000000D+00  7 21 1 -24 -13 13 23 2 2 0.17095117D-01 0.11021869D+00 0.36110989D+05 0.36110989D+05 0.36110989D+05 0.11599382D+01  1  2  5  3  7  1       -2 0.304575637651D-04 0.100000000000D+01
  </mgrwgt>
  </event>
  <event>
  8     66 0.26562228E-05 0.12182149E+03 0.75467711E-02 0.10195545E+00
       -2 -1    0    0    0  501 0.00000000E+00 0.00000000E+00 0.11222465E+03 0.11222511E+03 0.32000000E+00 0.0000E+00 0.9000E+01
        1 -1    0    0  501    0 0.00000000E+00 0.00000000E+00 -.45177053E+04 0.45177053E+04 0.32000000E+00 0.0000E+00 0.9000E+01
       25  2    1    2    0    0 -.13289831E+03 0.11413824E+03 -.44228103E+04 0.44363922E+04 0.29939189E+03 0.0000E+00 0.0000E+00
       23  2    3    3    0    0 0.53550985E+02 -.14668062E+02 -.12985978E+04 0.13026447E+04 0.86279565E+02 0.0000E+00 0.0000E+00
      -24  1    1    2    0    0 0.13289831E+03 -.11413824E+03 0.17329655E+02 0.19353819E+03 0.80419002E+02 0.0000E+00 0.9000E+01
      -11  1    4    4    0    0 0.69253622E+02 0.73258762E+01 -.11020029E+04 0.11042011E+04 0.51099893E-03 0.0000E+00 0.9000E+01
       11  1    4    4    0    0 -.15702636E+02 -.21993938E+02 -.19659486E+03 0.19844356E+03 0.51099893E-03 0.0000E+00 0.9000E+01
       23  1    3    3    0    0 -.18644930E+03 0.12880630E+03 -.31242125E+04 0.31337475E+04 0.91188000E+02 0.0000E+00 0.9000E+01
#aMCatNLO 1  0  0  2  1 0.15569400D+02 0.00000000D+00  -5  7  0 0.00000000D+00 0.00000000D+00 0.00000000D+00 0.00000000D+00 0.00000000D+00
  <mgrwgt>
 0.1336926197D-02    9    2    0
 0.712038610956204D+03 0.000000000000000D+00 0.000000000000000D+00 0.712038610956204D+03
 0.712038610956204D+03 0.000000000000000D+00 0.000000000000000D+00 -.712038610956204D+03
 0.682837847250953D+03 0.132898314957067D+03 -.114138235099766D+03 0.655065501193452D+03
 0.180834244567661D+03 0.692536217131452D+02 0.732587615988891D+01 -.166887061890547D+03
 0.369958923349462D+02 -.157026362454058D+02 -.219939383517649D+02 -.252663796453344D+02
 0.523409237758847D+03 -.186449300424807D+03 0.128806297291642D+03 -.462912059657571D+03
 0.000000000000000D+00 -.000000000000000D+00 -.000000000000000D+00 -.000000000000000D+00
 0.715008748109428D+03 0.000000000000000D+00 0.000000000000000D+00 0.715008748109428D+03
 0.732781362554177D+03 0.000000000000000D+00 0.000000000000000D+00 -.732781362554177D+03
 0.682463849925722D+03 0.136419216546085D+03 -.107557784489046D+03 0.655065501193452D+03
 0.181272871495446D+03 0.701874398743455D+02 0.907115194616462D+01 -.166887061890547D+03
 0.367050934537080D+02 -.155125728194890D+02 -.216387159873992D+02 -.252663796453344D+02
 0.523720514425305D+03 -.183748914996446D+03 0.133853229871827D+03 -.462912059657571D+03
 0.236277813634240D+02 -.734516860449559D+01 -.137278813415470D+02 -.177726144447491D+02
0.280443327859D-02 0.000000000000D+00 0.000000000000D+00 0.117167983177D-05 0.000000000000D+00  7 -2 1 -24 -11 11 23 21 0 0.17265367D-01 0.69503162D+00 0.71208575D+05 0.71208575D+05 0.71208575D+05 0.11340282D+01  1  2  2  2  7  2        1 0.249152178744D-03 0.100000000000D+01
0.266669381794D-04 0.000000000000D+00 -.107697622140D-04 0.117167983177D-05 0.000000000000D+00  7 -2 1 -24 -11 11 23 21 2 0.17265367D-01 0.69503162D+00 0.71208575D+05 0.71208575D+05 0.71208575D+05 0.11340282D+01  1  2  3  2  7  2        1 0.304677526952D-05 0.100000000000D+01
0.175739616367D-03 0.000000000000D+00 0.000000000000D+00 0.117167983177D-05 0.000000000000D+00  7 -2 1 -24 -11 11 23 21 2 0.17265367D-01 0.69503162D+00 0.71208575D+05 0.71208575D+05 0.71208575D+05 0.11340282D+01  1  2 15  2  7  2        1 0.200787624518D-04 0.100000000000D+01
0.329148867462D-02 0.000000000000D+00 0.000000000000D+00 0.117167983177D-05 0.000000000000D+00  7 -2 1 -24 -11 11 23 21 2 0.17265367D-01 0.71670363D+00 0.75442780D+05 0.75442780D+05 0.75442780D+05 0.11319055D+01  1  2 12  2  7  2        1 0.258508922574D-03 0.100000000000D+01
-.400222963321D-02 0.000000000000D+00 0.000000000000D+00 0.117167983177D-05 0.000000000000D+00  7 -2 1 -24 -11 11 23 21 2 0.17265367D-01 0.69503162D+00 0.71208575D+05 0.71208575D+05 0.71208575D+05 0.11340282D+01  1  2  4  2  7  2        1 -.457266379339D-03 0.100000000000D+01
-.351254261034D-01 0.000000000000D+00 -.420544855565D-02 0.117167983177D-05 0.000000000000D+00  7 -2 1 -24 -11 11 23 21 2 0.17265367D-01 0.71570841D+00 0.71208575D+05 0.71208575D+05 0.71208575D+05 0.11340282D+01  1  2  5  2  7  2        1 -.283337587820D-02 0.100000000000D+01
0.358603200553D-01 0.000000000000D+00 0.440051974688D-02 0.117167983177D-05 0.000000000000D+00  7 -2 1 -24 -11 11 23 21 2 0.17265367D-01 0.69503162D+00 0.71208575D+05 0.71208575D+05 0.71208575D+05 0.11340282D+01  1  2  6  2  7  2        1 0.409714589527D-02 0.100000000000D+01
0.973364967397D-04 0.000000000000D+00 0.000000000000D+00 0.117167983177D-05 0.000000000000D+00  7 -2 21 -24 -11 11 23 -1 2 0.17265367D-01 0.71670363D+00 0.75442780D+05 0.75442780D+05 0.75442780D+05 0.11319055D+01  1  2 12  4  7  2        1 0.382908693474D-06 0.100000000000D+01
-.183550817509D-03 0.000000000000D+00 -.221323029804D-04 0.117167983177D-05 0.000000000000D+00  7 -2 21 -24 -11 11 23 -1 2 0.17265367D-01 0.71570841D+00 0.71208575D+05 0.71208575D+05 0.71208575D+05 0.11340282D+01  1  2  5  4  7  2        1 -.746988543390D-06 0.100000000000D+01
  </mgrwgt>
  </event>
  <event>
  9     66 0.26562228E-05 0.41005401E+03 0.75467711E-02 0.91555104E-01
       -2 -1    0    0    0  502 0.00000000E+00 0.00000000E+00 0.13523819E+04 0.13523819E+04 0.32000000E+00 0.0000E+00 0.9000E+01
        1 -1    0    0  501    0 0.00000000E+00 0.00000000E+00 -.40106271E+03 0.40106283E+03 0.32000000E+00 0.0000E+00 0.9000E+01
       25  2    1    2    0    0 -.49943485E+03 -.30284304E+03 0.15461716E+03 0.67480304E+03 0.30050556E+03 0.0000E+00 0.0000E+00
       23  2    3    3    0    0 -.16943838E+03 -.21969144E+03 0.57421996E+01 0.29232315E+03 0.91902965E+02 0.0000E+00 0.0000E+00
      -24  1    1    2    0    0 0.26511966E+03 -.27166916E+02 0.15131304E+03 0.31684275E+03 0.80419002E+02 0.0000E+00 0.9000E+01
      -11  1    4    4    0    0 -.11051310E+03 -.19434096E+03 0.25954609E+02 0.22506709E+03 0.51099893E-03 0.0000E+00 0.9000E+01
       11  1    4    4    0    0 -.58925281E+02 -.25350485E+02 -.20212410E+02 0.67256059E+02 0.51099893E-03 0.0000E+00 0.9000E+01
       23  1    3    3    0    0 -.32999647E+03 -.83151595E+02 0.14887496E+03 0.38247989E+03 0.91188000E+02 0.0000E+00 0.9000E+01
       21  1    1    2  501  502 0.23431519E+03 0.33000996E+03 0.64538895E+03 0.76179895E+03 0.75000000E+00 0.0000E+00 0.9000E+01
#aMCatNLO 2  0  0  1  2 0.40473470D+03 0.00000000D+00  -5  7  0 0.00000000D+00 0.00000000D+00 0.00000000D+00 0.00000000D+00 0.00000000D+00
  <mgrwgt>
 0.5947085102D-04    2    2    0
 0.426015814642240D+03 0.000000000000000D+00 0.000000000000000D+00 0.426015814642240D+03
 0.426015814642240D+03 0.000000000000000D+00 0.000000000000000D+00 -.426015814642240D+03
 0.376817888735490D+03 0.351368564822598D+03 0.943062027607933D+02 0.563114294974814D+02
 0.146963070276921D+03 -.615497672299080D+02 -.125380909509399D+03 -.457099301001362D+02
 0.595104347659822D+02 -.410745870864492D+02 -.209533977081172D+00 -.430618884540189D+02
 0.268740235506085D+03 -.248744210506241D+03 0.312842407256870D+02 0.324603890566737D+02
 0.000000000000000D+00 0.000000000000000D+00 0.000000000000000D+00 0.000000000000000D+00
 0.983116085935585D+03 0.000000000000000D+00 0.000000000000000D+00 0.983116085935585D+03
 0.551704585864084D+03 0.000000000000000D+00 0.000000000000000D+00 -.551704585864084D+03
 0.284015261612571D+03 0.265119660604754D+03 -.271669163369165D+02 0.563114294974814D+02
 0.228190603015107D+03 -.110513099680307D+03 -.194340959125166D+03 -.457099301001362D+02
 0.772603529756507D+02 -.589252814190716D+02 -.253504854860610D+02 -.430618884540189D+02
 0.353808968446792D+03 -.329996470073343D+03 -.831515946377806D+02 0.324603890566737D+02
 0.591545485749548D+03 0.234315190567967D+03 0.330009955585924D+03 0.431411500071501D+03
-.114315359005D-07 0.000000000000D+00 0.000000000000D+00 0.329588774006D-05 0.000000000000D+00  7 -2 1 -24 -11 11 23 21 2 0.20578830D+00 0.47645070D-01 0.43767546D+06 0.43767546D+06 0.43767546D+06 0.10726208D+01  1  2 13  1  7  1       -2 -.139148355537D-07 0.100000000000D+01
0.717812968906D-04 0.000000000000D+00 0.000000000000D+00 0.329588774006D-05 0.201297396309D-09  7 -2 1 -24 -11 11 23 21 2 0.20805868D+00 0.61701944D-01 0.43767546D+06 0.43767546D+06 0.43767546D+06 0.10726208D+01  1  2  1  1  7  1       -2 0.594847658577D-04 0.100000000000D+01
  </mgrwgt>
  </event>
  <event>
  8     66 0.26562228E-05 0.23678388E+03 0.75467711E-02 0.10075968E+00
       -2 -1    0    0    0  501 0.00000000E+00 0.00000000E+00 0.20446159E+03 0.20446184E+03 0.32000000E+00 0.0000E+00 0.9000E+01
        1 -1    0    0  501    0 0.00000000E+00 0.00000000E+00 -.86876512E+03 0.86876518E+03 0.32000000E+00 0.0000E+00 0.9000E+01
       25  2    1    2    0    0 -.10840205E+03 0.83731248E+02 -.79922304E+03 0.86482257E+03 0.30066374E+03 0.0000E+00 0.0000E+00
       23  2    3    3    0    0 -.16904252E+03 0.27801770E+02 -.60564137E+03 0.63548770E+03 0.87720159E+02 0.0000E+00 0.0000E+00
      -24  1    1    2    0    0 0.10840205E+03 -.83731248E+02 0.13491951E+03 0.20840445E+03 0.80419002E+02 0.0000E+00 0.9000E+01
      -11  1    4    4    0    0 -.17010184E+02 0.35681389E+02 -.10417280E+03 0.11142028E+03 0.51099893E-03 0.0000E+00 0.9000E+01
       11  1    4    4    0    0 -.15203233E+03 -.78796191E+01 -.50146858E+03 0.52406741E+03 0.51099893E-03 0.0000E+00 0.9000E+01
       23  1    3    3    0    0 0.60640465E+02 0.55929478E+02 -.19358166E+03 0.22933487E+03 0.91188000E+02 0.0000E+00 0.9000E+01
#aMCatNLO 1  0  0  1  1 0.13000442D+03 0.00000000D+00  -5  7  0 0.00000000D+00 0.00000000D+00 0.00000000D+00 0.00000000D+00 0.00000000D+00
  <mgrwgt>
 0.1509660687D-02    4    2    0
 0.421460869824252D+03 0.000000000000000D+00 0.000000000000000D+00 0.421460869824252D+03
 0.421460869824252D+03 0.000000000000000D+00 0.000000000000000D+00 -.421460869824252D+03
 0.371674830266584D+03 0.108402052172339D+03 -.837312478756659D+02 0.336025351295602D+03
 0.597646245925110D+02 -.170101836778115D+02 0.356813892870048D+02 -.448252435852846D+02
 0.272048936540000D+03 -.152032333645285D+03 -.787961911684033D+01 -.225465529519453D+03
 0.139433348249410D+03 0.606404651507569D+02 0.559294777055015D+02 -.657345781908646D+02
 0.000000000000000D+00 0.000000000000000D+00 -.000000000000000D+00 -.000000000000000D+00
 0.459378233295953D+03 0.000000000000000D+00 0.000000000000000D+00 0.459378233295953D+03
 0.554739086422798D+03 0.000000000000000D+00 0.000000000000000D+00 -.554739086422798D+03
 0.354968921560174D+03 0.660300113492720D+02 -.475680586854742D+02 0.336025351295602D+03
 0.660393220328117D+02 -.243460617455858D+02 0.419423278985969D+02 -.448252435852846D+02
 0.292312051878655D+03 -.184941344119957D+03 0.202071746448065D+02 -.225465529519453D+03
 0.139567862230012D+03 0.443713502641297D+02 0.698146498183765D+02 -.657345781908646D+02
 0.161229162017099D+03 0.988860442521414D+02 -.843960936763057D+02 -.953608531268449D+02
0.921090295007D-04 0.000000000000D+00 0.000000000000D+00 0.666737022611D-06 0.000000000000D+00  7 -2 1 -24 -11 11 23 21 0 0.31455653D-01 0.13365620D+00 0.56066604D+05 0.56066604D+05 0.56066604D+05 0.11429463D+01  1  2  2  1  7  1       -2 0.183485651402D-02 0.100000000000D+01
-.304879445049D-05 0.000000000000D+00 -.353722926147D-06 0.666737022611D-06 0.000000000000D+00  7 -2 1 -24 -11 11 23 21 2 0.31455653D-01 0.13365620D+00 0.56066604D+05 0.56066604D+05 0.56066604D+05 0.11429463D+01  1  2  3  1  7  1       -2 -.793377189703D-04 0.100000000000D+01
0.570680259518D-05 0.000000000000D+00 0.000000000000D+00 0.666737022611D-06 0.000000000000D+00  7 -2 1 -24 -11 11 23 21 2 0.31455653D-01 0.13365620D+00 0.56066604D+05 0.56066604D+05 0.56066604D+05 0.11429463D+01  1  2 15  1  7  1       -2 0.148506141647D-03 0.100000000000D+01
-.151546521780D-04 0.000000000000D+00 0.000000000000D+00 0.666737022611D-06 0.000000000000D+00  7 -2 1 -24 -11 11 23 21 2 0.31455653D-01 0.13365620D+00 0.56066604D+05 0.56066604D+05 0.56066604D+05 0.11429463D+01  1  2  4  1  7  1       -2 -.394364249582D-03 0.100000000000D+01
  </mgrwgt>
  </event>
  <event>
  8     66 0.26562228E-05 0.29396281E+03 0.75467711E-02 0.97194924E-01
       -2 -1    0    0    0  501 0.00000000E+00 0.00000000E+00 0.13082467E+04 0.13082467E+04 0.32000000E+00 0.0000E+00 0.9000E+01
        1 -1    0    0  501    0 0.00000000E+00 0.00000000E+00 -.13247033E+03 0.13247071E+03 0.32000000E+00 0.0000E+00 0.9000E+01
       25  2    1    2    0    0 -.11282122E+03 -.18940500E+03 0.18804079E+03 0.42548759E+03 0.31157257E+03 0.0000E+00 0.0000E+00
       23  2    3    3    0    0 -.99272050E+02 -.23148100E+03 0.86456001E+02 0.28199999E+03 0.92795260E+02 0.0000E+00 0.0000E+00
      -24  1    1    2    0    0 0.11282122E+03 0.18940500E+03 0.98773556E+03 0.10152298E+04 0.80419002E+02 0.0000E+00 0.9000E+01
      -13  1    4    4    0    0 -.44861107E+02 -.11086898E+03 -.73149387E+01 0.11982474E+03 0.10565837E+00 0.0000E+00 0.9000E+01
       13  1    4    4    0    0 -.54410943E+02 -.12061202E+03 0.93770939E+02 0.16217525E+03 0.10565837E+00 0.0000E+00 0.9000E+01
       23  1    3    3    0    0 -.13549168E+02 0.42076005E+02 0.10158478E+03 0.14348760E+03 0.91188000E+02 0.0000E+00 0.9000E+01
#aMCatNLO 1  0  0  2  1 0.18754174D+03 0.00000000D+00  -5  7  0 0.00000000D+00 0.00000000D+00 0.00000000D+00 0.00000000D+00 0.00000000D+00
  <mgrwgt>
 0.7543237819D-03    4    2    0
 0.416298178955155D+03 0.000000000000000D+00 0.000000000000000D+00 0.416298178955155D+03
 0.416298178955155D+03 0.000000000000000D+00 0.000000000000000D+00 -.416298178955155D+03
 0.361883946873344D+03 0.112821232040418D+03 0.189405020426251D+03 0.275481184273032D+03
 0.217673778519041D+03 -.448610957432500D+02 -.110868949023740D+03 -.181872021173799D+03
 0.148205022193276D+03 -.544109529200011D+02 -.120612015076175D+03 -.667601574661955D+02
 0.104833610324649D+03 -.135491833771674D+02 0.420759436736641D+02 -.268490056330369D+02
 0.000000000000000D+00 0.000000000000000D+00 -.000000000000000D+00 0.000000000000000D+00
 0.581020464247713D+03 0.000000000000000D+00 0.000000000000000D+00 0.581020464247713D+03
 0.483717603354412D+03 0.000000000000000D+00 0.000000000000000D+00 -.483717603354412D+03
 0.362774747320601D+03 0.377245777958128D+02 0.218689905301573D+03 0.275481184273032D+03
 0.223468843233877D+03 -.905768722926325D+02 -.930415069532330D+02 -.181872021173799D+03
 0.153466332694724D+03 -.856732693940000D+02 -.108420881555168D+03 -.667601574661955D+02
 0.113746929834657D+03 -.362007673303565D+02 0.509092137438881D+02 -.268490056330369D+02
 0.211281214518266D+03 0.174726331221176D+03 -.681367305370608D+02 0.973028608933011D+02
0.260359753792D-03 0.000000000000D+00 0.000000000000D+00 0.828461066784D-08 0.000000000000D+00  7 -2 1 -24 -13 13 23 21 0 0.20126875D+00 0.20380083D-01 0.86414132D+05 0.86414132D+05 0.86414132D+05 0.11269634D+01  1  2  2  2  7  2        1 0.960497222114D-03 0.100000000000D+01
-.123352484486D-04 0.000000000000D+00 -.999850008857D-06 0.828461066784D-08 0.000000000000D+00  7 -2 1 -24 -13 13 23 21 2 0.20126875D+00 0.20380083D-01 0.86414132D+05 0.86414132D+05 0.86414132D+05 0.11269634D+01  1  2  3  2  7  2        1 -.577949401309D-04 0.100000000000D+01
0.158601308404D-04 0.000000000000D+00 0.000000000000D+00 0.828461066784D-08 0.000000000000D+00  7 -2 1 -24 -13 13 23 21 2 0.20126875D+00 0.20380083D-01 0.86414132D+05 0.86414132D+05 0.86414132D+05 0.11269634D+01  1  2 15  2  7  2        1 0.743102432199D-04 0.100000000000D+01
-.475287450674D-04 0.000000000000D+00 0.000000000000D+00 0.828461066784D-08 0.000000000000D+00  7 -2 1 -24 -13 13 23 21 2 0.20126875D+00 0.20380083D-01 0.86414132D+05 0.86414132D+05 0.86414132D+05 0.11269634D+01  1  2  4  2  7  2        1 -.222688743330D-03 0.100000000000D+01
  </mgrwgt>
  </event>
  <event>
  8     66 0.26562228E-05 0.42182190E+03 0.75467711E-02 0.94165568E-01
       -2 -1    0    0    0  501 0.00000000E+00 0.00000000E+00 0.23090649E+03 0.23090671E+03 0.32000000E+00 0.0000E+00 0.9000E+01
        1 -1    0    0  501    0 0.00000000E+00 0.00000000E+00 -.12638449E+04 0.12638449E+04 0.32000000E+00 0.0000E+00 0.9000E+01
       25  2    1    2    0    0 0.47086851E+02 0.49028635E+03 -.62323256E+03 0.84905514E+03 0.29979649E+03 0.0000E+00 0.0000E+00
       23  2    3    3    0    0 -.69960215E+02 0.12687834E+03 -.11011474E+03 0.20301292E+03 0.89980259E+02 0.0000E+00 0.0000E+00
      -24  1    1    2    0    0 -.47086851E+02 -.49028635E+03 -.40970582E+03 0.64569648E+03 0.80419002E+02 0.0000E+00 0.9000E+01
      -13  1    4    4    0    0 -.20708695E+02 0.15410855E+02 0.13752954E+02 0.29248921E+02 0.10565837E+00 0.0000E+00 0.9000E+01
       13  1    4    4    0    0 -.49251520E+02 0.11146749E+03 -.12386769E+03 0.17376400E+03 0.10565837E+00 0.0000E+00 0.9000E+01
       23  1    3    3    0    0 0.11704707E+03 0.36340801E+03 -.51311783E+03 0.64604222E+03 0.91188000E+02 0.0000E+00 0.9000E+01
#aMCatNLO 1  0  0  1  1 0.22750970D+01 0.00000000D+00  -5  7  0 0.00000000D+00 0.00000000D+00 0.00000000D+00 0.00000000D+00 0.00000000D+00
  <mgrwgt>
 0.5681682711D-03    7    2    0
 0.540213088644791D+03 0.000000000000000D+00 0.000000000000000D+00 0.540213088644791D+03
 0.540213088644791D+03 0.000000000000000D+00 0.000000000000000D+00 -.540213088644791D+03
 0.501612246896986D+03 -.470868506084645D+02 -.490286347401540D+03 0.504951119822997D+02
 0.536137743172009D+02 -.207086553158197D+02 0.154107228536447D+02 0.469904034104250D+02
 0.121976344268458D+03 -.492515595460333D+02 0.111467618267371D+03 -.524237743592456D+01
 0.403223811806937D+03 0.117047065470317D+03 0.363408006280525D+03 -.922431379568002D+02
 0.000000000000000D+00 0.000000000000000D+00 -.000000000000000D+00 -.000000000000000D+00
 0.541134393500786D+03 0.000000000000000D+00 0.000000000000000D+00 0.541134393500786D+03
 0.541620662333230D+03 0.000000000000000D+00 0.000000000000000D+00 -.541620662333230D+03
 0.500935479971977D+03 -.478161327604481D+02 -.489523237705949D+03 0.504951119822997D+02
 0.536674817625984D+02 -.207866947978359D+02 0.154923821746681D+02 0.469904034104250D+02
 0.122217960690121D+03 -.494291935313784D+02 0.111653491754216D+03 -.524237743592456D+01
 0.403607650244094D+03 0.116460152978111D+03 0.364022142540473D+03 -.922431379568002D+02
 0.232648316522585D+01 0.157186811155146D+01 -.164477876340894D+01 -.486268832443430D+00
0.697170506905D-04 0.000000000000D+00 0.000000000000D+00 0.509786444338D-05 0.000000000000D+00  7 -2 1 -24 -13 13 23 21 0 0.35524096D-01 0.19443769D+00 0.27002181D+06 0.27002181D+06 0.27002181D+06 0.10879509D+01  1  2  2  1  7  1       -2 0.544042845875D-03 0.100000000000D+01
-.386606738079D-05 0.000000000000D+00 -.267731831572D-06 0.509786444338D-05 0.000000000000D+00  7 -2 1 -24 -13 13 23 21 2 0.35524096D-01 0.19443769D+00 0.27002181D+06 0.27002181D+06 0.27002181D+06 0.10879509D+01  1  2  3  1  7  1       -2 -.357093636803D-04 0.100000000000D+01
0.444076010491D-05 0.000000000000D+00 0.000000000000D+00 0.509786444338D-05 0.000000000000D+00  7 -2 1 -24 -13 13 23 21 2 0.35524096D-01 0.19443769D+00 0.27002181D+06 0.27002181D+06 0.27002181D+06 0.10879509D+01  1  2 15  1  7  1       -2 0.410175772909D-04 0.100000000000D+01
-.142637210552D-02 0.000000000000D+00 0.000000000000D+00 0.509786444338D-05 0.000000000000D+00  7 -2 1 -24 -13 13 23 21 2 0.35524096D-01 0.19443769D+00 0.27002181D+06 0.27002181D+06 0.27002181D+06 0.10879509D+01  1  2  4  1  7  1       -2 -.131748454547D-01 0.100000000000D+01
0.142638114024D-02 0.000000000000D+00 0.000000000000D+00 0.509786444338D-05 0.621572659471D-05  7 -2 1 -24 -13 13 23 21 2 0.35584680D-01 0.19494432D+00 0.27124036D+06 0.27124036D+06 0.27124036D+06 0.10878049D+01  1  2 11  1  7  1       -2 0.130588626816D-01 0.100000000000D+01
0.364022222049D-08 0.000000000000D+00 0.000000000000D+00 0.509786444338D-05 0.000000000000D+00  7 21 1 -24 -13 13 23 2 2 0.35630861D-01 0.19443769D+00 0.27124036D+06 0.27124036D+06 0.27124036D+06 0.10878049D+01  1  2 12  3  7  1       -2 0.373456907474D-06 0.100000000000D+01
0.131379390491D-05 0.000000000000D+00 0.000000000000D+00 0.509786444338D-05 0.198295222136D-08  7 21 1 -24 -13 13 23 2 2 0.35584680D-01 0.19494432D+00 0.27124036D+06 0.27124036D+06 0.27124036D+06 0.10878049D+01  1  2 11  3  7  1       -2 0.134426527913D-03 0.100000000000D+01
  </mgrwgt>
  </event>
  <event>
  8     66 0.26562228E-05 0.28468096E+03 0.75467711E-02 0.95228024E-01
       -2 -1    0    0    0  501 0.00000000E+00 0.00000000E+00 0.23684219E+03 0.23684241E+03 0.32000000E+00 0.0000E+00 0.9000E+01
        1 -1    0    0  501    0 0.00000000E+00 0.00000000E+00 -.40429611E+03 0.40429624E+03 0.32000000E+00 0.0000E+00 0.9000E+01
       25  2    1    2    0    0 0.11724257E+02 0.22791773E+03 -.10644089E+03 0.39159155E+03 0.29988385E+03 0.0000E+00 0.0000E+00
       23  2    3    3    0    0 0.67333641E+02 0.15317858E+03 0.33962752E+02 0.20000141E+03 0.10416141E+03 0.0000E+00 0.0000E+00
      -24  1    1    2    0    0 -.11724257E+02 -.22791773E+03 -.61013025E+02 0.24954710E+03 0.80419002E+02 0.0000E+00 0.9000E+01
      -11  1    4    4    0    0 0.12933024E+01 -.15670824E+02 0.12984473E+01 0.15777621E+02 0.51099893E-03 0.0000E+00 0.9000E+01
       11  1    4    4    0    0 0.66040339E+02 0.16884941E+03 0.32664305E+02 0.18422379E+03 0.51099893E-03 0.0000E+00 0.9000E+01
       23  1    3    3    0    0 -.55609384E+02 0.74739149E+02 -.14040365E+03 0.19159013E+03 0.91188000E+02 0.0000E+00 0.9000E+01
#aMCatNLO 1  0  0  2  2 0.30741073D+03 0.00000000D+00  -5  7  0 0.00000000D+00 0.00000000D+00 0.00000000D+00 0.00000000D+00 0.00000000D+00
  <mgrwgt>
 0.1363462882D-02    3    2    0
 0.309442221273805D+03 0.000000000000000D+00 0.000000000000000D+00 0.309442221273805D+03
 0.309442221273805D+03 0.000000000000000D+00 0.000000000000000D+00 -.309442221273805D+03
 0.242011936368224D+03 -.117242567745680D+02 -.227917733164832D+03 0.431394279233379D+01
 0.166962872717661D+02 0.129330241952061D+01 -.156708236426486D+02 0.561414854399180D+01
 0.199686324479276D+03 0.660403390179395D+02 0.168849408050074D+03 0.836849998959059D+02
 0.160489894428345D+03 -.556093846628921D+02 0.747391487574059D+02 -.936130912322315D+02
 0.000000000000000D+00 0.000000000000000D+00 0.000000000000000D+00 0.000000000000000D+00
 0.560166053113990D+03 0.000000000000000D+00 0.000000000000000D+00 0.560166053113990D+03
 0.455577204767828D+03 0.000000000000000D+00 0.000000000000000D+00 -.455577204767828D+03
 0.324259610750355D+03 -.131647506250250D+03 -.285179598157505D+03 0.431394279233379D+01
 0.214168768679360D+02 -.677818645307149D+01 -.195248595208705D+02 0.561414854399180D+01
 0.157223035691376D+03 -.954482936592855D+01 0.132758427140462D+03 0.836849998959059D+02
 0.188128195096707D+03 -.129438653208313D+03 0.394865882535900D+02 -.936130912322315D+02
 0.324715539475443D+03 0.277409175277563D+03 0.132459442284323D+03 0.104588848346162D+03
0.294028158458D-04 0.000000000000D+00 0.000000000000D+00 0.353729493626D-07 0.000000000000D+00  7 -2 1 -24 -11 11 23 21 0 0.36437287D-01 0.62199428D-01 0.81043249D+05 0.81043249D+05 0.81043249D+05 0.11292907D+01  1  2  2  2  7  2        1 0.134771899671D-02 0.100000000000D+01
-.161967467986D-05 0.000000000000D+00 -.112914554787D-06 0.353729493626D-07 0.000000000000D+00  7 -2 1 -24 -11 11 23 21 2 0.36437287D-01 0.62199428D-01 0.81043249D+05 0.81043249D+05 0.81043249D+05 0.11292907D+01  1  2  3  2  7  2        1 -.946781493117D-04 0.100000000000D+01
0.188900791876D-05 0.000000000000D+00 0.000000000000D+00 0.353729493626D-07 0.000000000000D+00  7 -2 1 -24 -11 11 23 21 2 0.36437287D-01 0.62199428D-01 0.81043249D+05 0.81043249D+05 0.81043249D+05 0.11292907D+01  1  2 15  2  7  2        1 0.110422034750D-03 0.100000000000D+01
  </mgrwgt>
  </event>
  <event>
  8     66 0.26562228E-05 0.16992135E+03 0.75467711E-02 0.95191661E-01
       -2 -1    0    0    0  501 0.00000000E+00 0.00000000E+00 0.11781783E+03 0.11781826E+03 0.32000000E+00 0.0000E+00 0.9000E+01
        1 -1    0    0  501    0 0.00000000E+00 0.00000000E+00 -.23657714E+04 0.23657714E+04 0.32000000E+00 0.0000E+00 0.9000E+01
       25  2    1    2    0    0 -.28470560E+03 -.16899940E+03 -.38150603E+03 0.58629906E+03 0.29762672E+03 0.0000E+00 0.0000E+00
       23  2    3    3    0    0 -.28000621E+02 0.11671051E+02 -.17995833E+02 0.97428759E+02 0.90819959E+02 0.0000E+00 0.0000E+00
      -24  1    1    2    0    0 0.28470560E+03 0.16899940E+03 -.18664476E+04 0.18972907E+04 0.80419002E+02 0.0000E+00 0.9000E+01
      -13  1    4    4    0    0 -.45978894E+02 -.16027855E+02 -.35305286E+02 0.60145035E+02 0.10565837E+00 0.0000E+00 0.9000E+01
       13  1    4    4    0    0 0.17978274E+02 0.27698907E+02 0.17309453E+02 0.37283724E+02 0.10565837E+00 0.0000E+00 0.9000E+01
       23  1    3    3    0    0 -.25670498E+03 -.18067045E+03 -.36351019E+03 0.48887030E+03 0.91188000E+02 0.0000E+00 0.9000E+01
#aMCatNLO 1  0  0  2  1 0.16614122D+03 0.00000000D+00  -5  7  0 0.00000000D+00 0.00000000D+00 0.00000000D+00 0.00000000D+00 0.00000000D+00
  <mgrwgt>
 0.1481416784D-02    9    2    0
 0.527949445786972D+03 0.000000000000000D+00 0.000000000000000D+00 0.527949445786972D+03
 0.527949445786972D+03 0.000000000000000D+00 0.000000000000000D+00 -.527949445786972D+03
 0.489065776275852D+03 0.284705596219456D+03 0.168999396090440D+03 -.350856160231400D+03
 0.663045139482338D+02 -.459789810110242D+02 -.160279144927604D+02 0.450036424316096D+02
 0.124546398669803D+03 0.179783603504240D+02 0.276989659181296D+02 0.120088930663047D+03
 0.375982202680055D+03 -.256704975558856D+03 -.180670447515810D+03 0.185763587136743D+03
 0.000000000000000D+00 -.000000000000000D+00 -.000000000000000D+00 -.000000000000000D+00
 0.553069455507534D+03 0.000000000000000D+00 0.000000000000000D+00 0.553069455507534D+03
 0.904962404908509D+03 0.000000000000000D+00 0.000000000000000D+00 -.904962404908509D+03
 0.539474726466394D+03 0.322153653348383D+03 0.240172319395031D+03 -.350856160231400D+03
 0.615197382447554D+02 -.413250370138523D+02 -.718273467383974D+01 0.450036424316096D+02
 0.131252918616556D+03 0.272917392808020D+02 0.453997615037664D+02 0.120088930663047D+03
 0.336642402965382D+03 -.230759077587372D+03 -.131358265577091D+03 0.185763587136743D+03
 0.389142074122956D+03 -.773612780279606D+02 -.147031080647866D+03 -.351892949400975D+03
0.318333625339D-03 0.000000000000D+00 0.000000000000D+00 0.105615056848D-05 0.000000000000D+00  7 -2 1 -24 -13 13 23 21 0 0.18125855D-01 0.36396487D+00 0.14036769D+06 0.14036769D+06 0.14036769D+06 0.11098337D+01  1  2  2  2  7  2        1 0.149607160127D-02 0.100000000000D+01
-.151555830816D-04 0.000000000000D+00 -.122248494047D-05 0.105615056848D-05 0.000000000000D+00  7 -2 1 -24 -13 13 23 21 2 0.18125855D-01 0.36396487D+00 0.14036769D+06 0.14036769D+06 0.14036769D+06 0.11098337D+01  1  2  3  2  7  2        1 -.877320660771D-04 0.100000000000D+01
0.201595285591D-04 0.000000000000D+00 0.000000000000D+00 0.105615056848D-05 0.000000000000D+00  7 -2 1 -24 -13 13 23 21 2 0.18125855D-01 0.36396487D+00 0.14036769D+06 0.14036769D+06 0.14036769D+06 0.11098337D+01  1  2 15  2  7  2        1 0.116698716381D-03 0.100000000000D+01
0.382602024045D-03 0.000000000000D+00 0.000000000000D+00 0.105615056848D-05 0.000000000000D+00  7 -2 1 -24 -13 13 23 21 2 0.18125855D-01 0.62710727D+00 0.22638684D+06 0.22638684D+06 0.22638684D+06 0.10937155D+01  1  2 12  2  7  2        1 0.950316032684D-04 0.100000000000D+01
-.475416542915D-03 0.000000000000D+00 0.000000000000D+00 0.105615056848D-05 0.000000000000D+00  7 -2 1 -24 -13 13 23 21 2 0.18125855D-01 0.36396487D+00 0.14036769D+06 0.14036769D+06 0.14036769D+06 0.11098337D+01  1  2  4  2  7  2        1 -.275207330082D-02 0.100000000000D+01
-.492665246358D-03 0.000000000000D+00 -.787822625158D-04 0.105615056848D-05 0.000000000000D+00  7 -2 1 -24 -13 13 23 21 2 0.18125855D-01 0.62824210D+00 0.14036769D+06 0.14036769D+06 0.14036769D+06 0.11098337D+01  1  2  5  2  7  2        1 -.128945291467D-03 0.100000000000D+01
0.473754725230D-03 0.000000000000D+00 0.683445174690D-04 0.105615056848D-05 0.000000000000D+00  7 -2 1 -24 -13 13 23 21 2 0.18125855D-01 0.36396487D+00 0.14036769D+06 0.14036769D+06 0.14036769D+06 0.11098337D+01  1  2  6  2  7  2        1 0.274245343346D-02 0.100000000000D+01
0.230992723518D-04 0.000000000000D+00 0.000000000000D+00 0.105615056848D-05 0.000000000000D+00  7 -2 21 -24 -13 13 23 -1 2 0.18125855D-01 0.62710727D+00 0.22638684D+06 0.22638684D+06 0.22638684D+06 0.10937155D+01  1  2 12  4  7  2        1 0.443649148847D-06 0.100000000000D+01
-.259228829327D-04 0.000000000000D+00 -.476952028052D-05 0.105615056848D-05 0.000000000000D+00  7 -2 21 -24 -13 13 23 -1 2 0.18125855D-01 0.62824210D+00 0.14036769D+06 0.14036769D+06 0.14036769D+06 0.11098337D+01  1  2  5  4  7  2        1 -.531561181314D-06 0.100000000000D+01
  </mgrwgt>
  </event>
  <event>
  8     66 0.26562228E-05 0.30967934E+03 0.75467711E-02 0.92231390E-01
       -2 -1    0    0    0  501 0.00000000E+00 0.00000000E+00 0.14667034E+03 0.14667069E+03 0.32000000E+00 0.0000E+00 0.9000E+01
        1 -1    0    0  501    0 0.00000000E+00 0.00000000E+00 -.21713477E+04 0.21713477E+04 0.32000000E+00 0.0000E+00 0.9000E+01
       25  2    1    2    0    0 0.43332746E+02 -.51611984E+03 -.11964710E+04 0.13378907E+04 0.30025180E+03 0.0000E+00 0.0000E+00
       23  2    3    3    0    0 -.86997737E+02 -.30564974E+03 -.67898690E+03 0.75703892E+03 0.10532970E+03 0.0000E+00 0.0000E+00
      -24  1    1    2    0    0 -.43332746E+02 0.51611984E+03 -.82820633E+03 0.98012773E+03 0.80419002E+02 0.0000E+00 0.9000E+01
      -11  1    4    4    0    0 -.62348864E+02 -.11953384E+03 -.38789529E+03 0.41065615E+03 0.51099893E-03 0.0000E+00 0.9000E+01
       11  1    4    4    0    0 -.24648873E+02 -.18611591E+03 -.29109161E+03 0.34638277E+03 0.51099893E-03 0.0000E+00 0.9000E+01
       23  1    3    3    0    0 0.13033048E+03 -.21047009E+03 -.51748412E+03 0.58085175E+03 0.91188000E+02 0.0000E+00 0.9000E+01
#aMCatNLO 1  0  0  2  1 0.12387074D+03 0.00000000D+00  -5  7  0 0.00000000D+00 0.00000000D+00 0.00000000D+00 0.00000000D+00 0.00000000D+00
  <mgrwgt>
 0.1126629597D-02    9    2    0
 0.564333882569058D+03 0.000000000000000D+00 0.000000000000000D+00 0.564333882569058D+03
 0.564333882569058D+03 0.000000000000000D+00 0.000000000000000D+00 -.564333882569058D+03
 0.527261888495571D+03 -.433327464820767D+02 0.516119836659287D+03 0.572753908293663D+02
 0.147559549924046D+03 -.623488644252553D+02 -.119533837487321D+03 -.599841776989796D+02
 0.189209835407132D+03 -.246488727039254D+02 -.186115905896361D+03 0.235300756819185D+02
 0.264636491311368D+03 0.130330483611257D+03 -.210470093275605D+03 -.208212888123053D+02
 0.000000000000000D+00 -.000000000000000D+00 0.000000000000000D+00 -.000000000000000D+00
 0.584792423600592D+03 0.000000000000000D+00 0.000000000000000D+00 0.584792423600592D+03
 0.792443211111154D+03 0.000000000000000D+00 0.000000000000000D+00 -.792443211111154D+03
 0.475706145763992D+03 -.241138367823716D+02 0.464722684667145D+03 0.572753908293663D+02
 0.158336744476272D+03 -.564872685829768D+02 -.135209509891709D+03 -.599841776989796D+02
 0.208530762646755D+03 -.170273529976193D+02 -.206498144684970D+03 0.235300756819185D+02
 0.292871142905885D+03 0.141013465035314D+03 -.239039602605777D+03 -.208212888123053D+02
 0.241790838918841D+03 -.433850066723464D+02 0.116024572515312D+03 -.207650787510562D+03
0.190667458424D-03 0.000000000000D+00 0.000000000000D+00 0.833202512360D-07 0.000000000000D+00  7 -2 1 -24 -11 11 23 21 0 0.22564696D-01 0.33405352D+00 0.30831162D+06 0.30831162D+06 0.30831162D+06 0.10836749D+01  1  2  2  2  7  2        1 0.810136011396D-03 0.100000000000D+01
-.105892511983D-04 0.000000000000D+00 -.732213244243D-06 0.833202512360D-07 0.000000000000D+00  7 -2 1 -24 -11 11 23 21 2 0.22564696D-01 0.33405352D+00 0.30831162D+06 0.30831162D+06 0.30831162D+06 0.10836749D+01  1  2  3  2  7  2        1 -.528377857725D-04 0.100000000000D+01
0.120852715100D-04 0.000000000000D+00 0.000000000000D+00 0.833202512360D-07 0.000000000000D+00  7 -2 1 -24 -11 11 23 21 2 0.22564696D-01 0.33405352D+00 0.30831162D+06 0.30831162D+06 0.30831162D+06 0.10836749D+01  1  2 15  2  7  2        1 0.603025629567D-04 0.100000000000D+01
0.351190184990D-03 0.000000000000D+00 0.000000000000D+00 0.833202512360D-07 0.000000000000D+00  7 -2 1 -24 -11 11 23 21 2 0.22564696D-01 0.47327112D+00 0.38562862D+06 0.38562862D+06 0.38562862D+06 0.10765750D+01  1  2 12  2  7  2        1 0.390653166989D-03 0.100000000000D+01
-.350832214066D-03 0.000000000000D+00 0.000000000000D+00 0.833202512360D-07 0.000000000000D+00  7 -2 1 -24 -11 11 23 21 2 0.22564696D-01 0.33405352D+00 0.30831162D+06 0.30831162D+06 0.30831162D+06 0.10836749D+01  1  2  4  2  7  2        1 -.175056734624D-02 0.100000000000D+01
-.434441838461D-03 0.000000000000D+00 -.650869805964D-04 0.833202512360D-07 0.000000000000D+00  7 -2 1 -24 -11 11 23 21 2 0.22564696D-01 0.47313765D+00 0.30831162D+06 0.30831162D+06 0.30831162D+06 0.10836749D+01  1  2  5  2  7  2        1 -.497431172459D-03 0.100000000000D+01
0.434275191723D-03 0.000000000000D+00 0.613336205541D-04 0.833202512360D-07 0.000000000000D+00  7 -2 1 -24 -11 11 23 21 2 0.22564696D-01 0.33405352D+00 0.30831162D+06 0.30831162D+06 0.30831162D+06 0.10836749D+01  1  2  6  2  7  2        1 0.216692749250D-02 0.100000000000D+01
0.151198659697D-04 0.000000000000D+00 0.000000000000D+00 0.833202512360D-07 0.000000000000D+00  7 -2 21 -24 -11 11 23 -1 2 0.22564696D-01 0.47327112D+00 0.38562862D+06 0.38562862D+06 0.38562862D+06 0.10765750D+01  1  2 12  4  7  2        1 0.341618005490D-05 0.100000000000D+01
-.168671789952D-04 0.000000000000D+00 -.280056694264D-05 0.833202512360D-07 0.000000000000D+00  7 -2 21 -24 -11 11 23 -1 2 0.22564696D-01 0.47313765D+00 0.30831162D+06 0.30831162D+06 0.30831162D+06 0.10836749D+01  1  2  5  4  7  2        1 -.396951266214D-05 0.100000000000D+01
  </mgrwgt>
  </event>
  <event>
  8     66 0.26562228E-05 0.33155487E+03 0.75467711E-02 0.90970915E-01
       -2 -1    0    0    0  501 0.00000000E+00 0.00000000E+00 0.27198127E+03 0.27198146E+03 0.32000000E+00 0.0000E+00 0.9000E+01
        1 -1    0    0  501    0 0.00000000E+00 0.00000000E+00 -.91975705E+03 0.91975711E+03 0.32000000E+00 0.0000E+00 0.9000E+01
       25  2    1    2    0    0 0.18046614E+03 -.22565933E+03 0.63742095E+02 0.41958892E+03 0.29749227E+03 0.0000E+00 0.0000E+00
       23  2    3    3    0    0 0.49074272E+02 -.16039040E+03 -.67982607E+02 0.20235517E+03 0.90513070E+02 0.0000E+00 0.0000E+00
      -24  1    1    2    0    0 -.18046614E+03 0.22565933E+03 -.71151788E+03 0.77214964E+03 0.80419002E+02 0.0000E+00 0.9000E+01
      -11  1    4    4    0    0 0.73530551E+02 -.14176426E+03 -.53987415E+02 0.16857784E+03 0.51099893E-03 0.0000E+00 0.9000E+01
       11  1    4    4    0    0 -.24456279E+02 -.18626139E+02 -.13995192E+02 0.33777330E+02 0.51099893E-03 0.0000E+00 0.9000E+01
       23  1    3    3    0    0 0.13139186E+03 -.65268937E+02 0.13172470E+03 0.21723376E+03 0.91188000E+02 0.0000E+00 0.9000E+01
#aMCatNLO 1  0  0  2  1 0.53367037D+03 0.00000000D+00  -5  7  0 0.00000000D+00 0.00000000D+00 0.00000000D+00 0.00000000D+00 0.00000000D+00
  <mgrwgt>
 0.1820252037D-02    3    2    0
 0.500156811226347D+03 0.000000000000000D+00 0.000000000000000D+00 0.500156811226347D+03
 0.500156811226347D+03 0.000000000000000D+00 0.000000000000000D+00 -.500156811226347D+03
 0.459152454598337D+03 -.180466136210144D+03 0.225659333193536D+03 -.347654425591475D+03
 0.165876948172685D+03 0.735305505236307D+02 -.141764257183294D+03 0.448476918028598D+02
 0.311782224262559D+02 -.244562787654685D+02 -.186261392512228D+02 0.519989607596592D+01
 0.344105997255415D+03 0.131391864451982D+03 -.652689367590190D+02 0.297606837712649D+03
 0.000000000000000D+00 -.000000000000000D+00 -.000000000000000D+00 0.000000000000000D+00
 0.103613080654337D+04 0.000000000000000D+00 0.000000000000000D+00 0.103613080654337D+04
 0.718619131240234D+03 0.000000000000000D+00 0.000000000000000D+00 -.718619131240234D+03
 0.486907265532051D+03 0.319939113942963D+02 0.329733618658887D+03 -.347654425591475D+03
 0.189965164084949D+03 0.153443298631649D+03 -.102618722516000D+03 0.448476918028598D+02
 0.192491810650859D+02 -.131316146682990D+02 -.130787135712551D+02 0.519989607596592D+01
 0.437647064211828D+03 0.306952972403346D+03 0.207302761356391D+02 0.297606837712649D+03
 0.620981262889688D+03 -.479258567760992D+03 -.234766458707271D+03 0.317511675303132D+03
0.168023427053D-03 0.000000000000D+00 0.000000000000D+00 0.511679203250D-06 0.000000000000D+00  7 -2 1 -24 -11 11 23 21 0 0.41843291D-01 0.14150110D+00 0.10992863D+06 0.10992863D+06 0.10992863D+06 0.11183640D+01  1  2  2  2  7  2        1 0.178392685952D-02 0.100000000000D+01
-.741625894303D-05 0.000000000000D+00 -.645254201467D-06 0.511679203250D-06 0.000000000000D+00  7 -2 1 -24 -11 11 23 21 2 0.41843291D-01 0.14150110D+00 0.10992863D+06 0.10992863D+06 0.10992863D+06 0.11183640D+01  1  2  3  2  7  2        1 -.984823529376D-04 0.100000000000D+01
0.101517431534D-04 0.000000000000D+00 0.000000000000D+00 0.511679203250D-06 0.000000000000D+00  7 -2 1 -24 -11 11 23 21 2 0.41843291D-01 0.14150110D+00 0.10992863D+06 0.10992863D+06 0.10992863D+06 0.11183640D+01  1  2 15  2  7  2        1 0.134807530298D-03 0.100000000000D+01
  </mgrwgt>
  </event>
  <event>
  8     66 0.26562228E-05 0.41619653E+03 0.75467711E-02 0.95701228E-01
       -2 -1    0    0    0  501 0.00000000E+00 0.00000000E+00 0.21183997E+03 0.21184021E+03 0.32000000E+00 0.0000E+00 0.9000E+01
        1 -1    0    0  501    0 0.00000000E+00 0.00000000E+00 -.95800860E+03 0.95800866E+03 0.32000000E+00 0.0000E+00 0.9000E+01
       25  2    1    2    0    0 -.24704549E+03 -.26412662E+03 -.20124574E+03 0.51090841E+03 0.29955503E+03 0.0000E+00 0.0000E+00
       23  2    3    3    0    0 0.25180673E+02 -.50665898E+02 -.75765022E+02 0.13178677E+03 0.91794958E+02 0.0000E+00 0.0000E+00
      -24  1    1    2    0    0 0.24704549E+03 0.26412662E+03 -.54492289E+03 0.65894045E+03 0.80419002E+02 0.0000E+00 0.9000E+01
      -13  1    4    4    0    0 0.55205434E+02 -.14368582E+02 -.24261085E+02 0.61989576E+02 0.10565837E+00 0.0000E+00 0.9000E+01
       13  1    4    4    0    0 -.30024761E+02 -.36297316E+02 -.51503936E+02 0.69797192E+02 0.10565837E+00 0.0000E+00 0.9000E+01
       23  1    3    3    0    0 -.27222616E+03 -.21346072E+03 -.12548072E+03 0.37912165E+03 0.91188000E+02 0.0000E+00 0.9000E+01
#aMCatNLO 1  0  0  1  2 0.74646376D+02 0.00000000D+00  -5  7  0 0.00000000D+00 0.00000000D+00 0.00000000D+00 0.00000000D+00 0.00000000D+00
  <mgrwgt>
 0.2068601973D-02    4    2    0
 0.450493821592449D+03 0.000000000000000D+00 0.000000000000000D+00 0.450493821592449D+03
 0.450493821592449D+03 0.000000000000000D+00 0.000000000000000D+00 -.450493821592449D+03
 0.404285639958102D+03 0.247045485421019D+03 0.264126617021474D+03 -.161818790737807D+03
 0.603954883903316D+02 0.552055469817919D+02 -.143685525019115D+02 0.198370184087140D+02
 0.479712788532127D+02 -.300248740736110D+02 -.362973451544430D+02 -.906935865514951D+01
 0.388335235983252D+03 -.272226158329200D+03 -.213460719365120D+03 0.151051130984242D+03
 0.000000000000000D+00 0.000000000000000D+00 -.000000000000000D+00 -.000000000000000D+00
 0.458268724314702D+03 0.000000000000000D+00 0.000000000000000D+00 0.458268724314702D+03
 0.675584277566276D+03 0.000000000000000D+00 0.000000000000000D+00 -.675584277566276D+03
 0.407122094960361D+03 0.223678428976045D+03 0.288207952051128D+03 -.161818790737807D+03
 0.565629940505995D+02 0.518373569297333D+02 -.108974044230693D+02 0.198370184087140D+02
 0.477097311867994D+02 -.327803118961772D+02 -.334576797684818D+02 -.906935865514951D+01
 0.392679742360286D+03 -.294717959057669D+03 -.190281394659079D+03 0.151051130984242D+03
 0.229778439322931D+03 0.519824850480673D+02 -.535714732004981D+02 -.217315553251574D+03
0.137936047424D-03 0.000000000000D+00 0.000000000000D+00 0.572944555189D-05 0.000000000000D+00  7 -2 1 -24 -13 13 23 21 0 0.32590787D-01 0.14738596D+00 0.17321955D+06 0.17321955D+06 0.17321955D+06 0.11026528D+01  1  2  2  1  7  1       -2 0.213515762666D-02 0.100000000000D+01
-.760468961943D-05 0.000000000000D+00 -.529710741505D-06 0.572944555189D-05 0.000000000000D+00  7 -2 1 -24 -13 13 23 21 2 0.32590787D-01 0.14738596D+00 0.17321955D+06 0.17321955D+06 0.17321955D+06 0.11026528D+01  1  2  3  1  7  1       -2 -.143123602882D-03 0.100000000000D+01
0.896567557178D-05 0.000000000000D+00 0.000000000000D+00 0.572944555189D-05 0.000000000000D+00  7 -2 1 -24 -13 13 23 21 2 0.32590787D-01 0.14738596D+00 0.17321955D+06 0.17321955D+06 0.17321955D+06 0.11026528D+01  1  2 15  1  7  1       -2 0.168737957014D-03 0.100000000000D+01
-.489733551042D-05 0.000000000000D+00 0.000000000000D+00 0.572944555189D-05 0.000000000000D+00  7 -2 1 -24 -13 13 23 21 2 0.32590787D-01 0.14738596D+00 0.17321955D+06 0.17321955D+06 0.17321955D+06 0.11026528D+01  1  2  4  1  7  1       -2 -.921700079624D-04 0.100000000000D+01
  </mgrwgt>
  </event>
  <event>
  8     66 0.26562228E-05 0.76501895E+02 0.75467711E-02 0.10418981E+00
       -2 -1    0    0    0  501 0.00000000E+00 0.00000000E+00 0.29853331E+02 0.29855046E+02 0.32000000E+00 0.0000E+00 0.9000E+01
        1 -1    0    0  501    0 0.00000000E+00 0.00000000E+00 -.21179126E+04 0.21179126E+04 0.32000000E+00 0.0000E+00 0.9000E+01
       25  2    1    2    0    0 0.38863543E+01 0.92323162E+02 -.89415329E+03 0.94759378E+03 0.29980859E+03 0.0000E+00 0.0000E+00
       23  2    3    3    0    0 -.11456491E+03 0.28278286E+02 -.41748300E+03 0.44394483E+03 0.94181606E+02 0.0000E+00 0.0000E+00
      -24  1    1    2    0    0 -.38863543E+01 -.92323162E+02 -.11939060E+04 0.12001739E+04 0.80419002E+02 0.0000E+00 0.9000E+01
      -11  1    4    4    0    0 -.13008224E+03 0.30750976E+02 -.34998111E+03 0.37463821E+03 0.51099893E-03 0.0000E+00 0.9000E+01
       11  1    4    4    0    0 0.15517333E+02 -.24726903E+01 -.67501892E+02 0.69306618E+02 0.51099893E-03 0.0000E+00 0.9000E+01
       23  1    3    3    0    0 0.11845126E+03 0.64044876E+02 -.47667030E+03 0.50364896E+03 0.91188000E+02 0.0000E+00 0.9000E+01
#aMCatNLO 1  0  0  1  2 0.30797843D+02 0.00000000D+00  -5  7  0 0.00000000D+00 0.00000000D+00 0.00000000D+00 0.00000000D+00 0.00000000D+00
  <mgrwgt>
 0.1235364158D-02    9    2    0
 0.251453003813903D+03 0.000000000000000D+00 0.000000000000000D+00 0.251453003813903D+03
 0.251453003813903D+03 0.000000000000000D+00 0.000000000000000D+00 -.251453003813903D+03
 0.168517052999051D+03 -.388635426758182D+01 -.923231616126770D+02 -.115724289919882D+03
 0.146855551057484D+03 -.130082243153925D+03 0.307509760399065D+02 0.608238470094888D+02
 0.157217479820069D+02 0.155173333517189D+02 -.247269033752684D+01 -.521083252532014D+00
 0.171811655589264D+03 0.118451264069788D+03 0.640448759102974D+02 0.554215261629251D+02
 0.000000000000000D+00 0.000000000000000D+00 -.000000000000000D+00 0.000000000000000D+00
 0.363630161913871D+03 0.000000000000000D+00 0.000000000000000D+00 0.363630161913871D+03
 0.254046849672761D+03 0.000000000000000D+00 0.000000000000000D+00 -.254046849672761D+03
 0.165244459975322D+03 -.115020821744666D+02 -.855225492274187D+02 -.115724289919882D+03
 0.154326947951415D+03 -.136954587248744D+03 0.368877693889355D+02 0.608238470094888D+02
 0.149415328799552D+02 0.148176624948367D+02 -.184790563498828D+01 -.521083252532014D+00
 0.169335210535508D+03 0.110667018110631D+03 0.709959697685587D+02 0.554215261629251D+02
 0.113828860244431D+03 0.229719888177426D+02 -.205132842950873D+02 0.109583312241110D+03
0.187740927825D-04 0.000000000000D+00 0.000000000000D+00 0.444052923593D-06 0.000000000000D+00  7 -2 1 -24 -11 11 23 21 0 0.45929539D-02 0.32583284D+00 0.47199008D+05 0.47199008D+05 0.47199008D+05 0.11495042D+01  1  2  2  1  7  1       -2 0.110194170258D-02 0.100000000000D+01
-.101590228147D-05 0.000000000000D+00 -.720974596170D-07 0.444052923593D-06 0.000000000000D+00  7 -2 1 -24 -11 11 23 21 2 0.45929539D-02 0.32583284D+00 0.47199008D+05 0.47199008D+05 0.47199008D+05 0.11495042D+01  1  2  3  1  7  1       -2 -.787902902021D-04 0.100000000000D+01
0.118543371171D-05 0.000000000000D+00 0.000000000000D+00 0.444052923593D-06 0.000000000000D+00  7 -2 1 -24 -11 11 23 21 2 0.45929539D-02 0.32583284D+00 0.47199008D+05 0.47199008D+05 0.47199008D+05 0.11495042D+01  1  2 15  1  7  1       -2 0.919386321544D-04 0.100000000000D+01
0.155354155825D-03 0.000000000000D+00 0.000000000000D+00 0.444052923593D-06 0.000000000000D+00  7 -2 1 -24 -11 11 23 21 2 0.66574417D-02 0.32583284D+00 0.54179687D+05 0.54179687D+05 0.54179687D+05 0.11442411D+01  1  2 12  1  7  1       -2 0.686604868461D-02 0.100000000000D+01
-.147528840817D-03 0.000000000000D+00 0.000000000000D+00 0.444052923593D-06 0.000000000000D+00  7 -2 1 -24 -11 11 23 21 2 0.45929539D-02 0.32583284D+00 0.47199008D+05 0.47199008D+05 0.47199008D+05 0.11495042D+01  1  2  4  1  7  1       -2 -.114418880567D-01 0.100000000000D+01
-.161919450628D-03 0.000000000000D+00 -.819424906691D-05 0.444052923593D-06 0.000000000000D+00  7 -2 1 -24 -11 11 23 21 2 0.67062316D-02 0.32583284D+00 0.47199008D+05 0.47199008D+05 0.47199008D+05 0.11495042D+01  1  2  5  1  7  1       -2 -.716558839293D-02 0.100000000000D+01
0.154382879519D-03 0.000000000000D+00 0.764035583723D-05 0.444052923593D-06 0.000000000000D+00  7 -2 1 -24 -11 11 23 21 2 0.45929539D-02 0.32583284D+00 0.47199008D+05 0.47199008D+05 0.47199008D+05 0.11495042D+01  1  2  6  1  7  1       -2 0.119734664459D-01 0.100000000000D+01
0.700283185464D-05 0.000000000000D+00 0.000000000000D+00 0.444052923593D-06 0.000000000000D+00  7 21 1 -24 -11 11 23 2 2 0.66574417D-02 0.32583284D+00 0.54179687D+05 0.54179687D+05 0.54179687D+05 0.11442411D+01  1  2 12  3  7  1       -2 0.488924733782D-02 0.100000000000D+01
-.714355606281D-05 0.000000000000D+00 -.374630322966D-06 0.444052923593D-06 0.000000000000D+00  7 21 1 -24 -11 11 23 2 2 0.67062316D-02 0.32583284D+00 0.47199008D+05 0.47199008D+05 0.47199008D+05 0.11495042D+01  1  2  5  3  7  1       -2 -.500101190568D-02 0.100000000000D+01
  </mgrwgt>
  </event>
  <event>
  8     66 0.26562228E-05 0.12531282E+03 0.75467711E-02 0.10533933E+00
       -2 -1    0    0    0  501 0.00000000E+00 0.00000000E+00 0.13680621E+03 0.13680659E+03 0.32000000E+00 0.0000E+00 0.9000E+01
        1 -1    0    0  501    0 0.00000000E+00 0.00000000E+00 -.59669035E+03 0.59669044E+03 0.32000000E+00 0.0000E+00 0.9000E+01
       25  2    1    2    0    0 -.10448361E+03 0.75306349E+02 -.98748992E+02 0.34173986E+03 0.30074390E+03 0.0000E+00 0.0000E+00
       23  2    3    3    0    0 -.82873600E+02 0.19384713E+02 -.17081050E+03 0.21096396E+03 0.89920891E+02 0.0000E+00 0.0000E+00
      -24  1    1    2    0    0 0.10448361E+03 -.75306349E+02 -.36113514E+03 0.39175717E+03 0.80419002E+02 0.0000E+00 0.9000E+01
      -13  1    4    4    0    0 -.32759368E+02 0.22882454E+02 -.15225317E+03 0.15740973E+03 0.10565837E+00 0.0000E+00 0.9000E+01
       13  1    4    4    0    0 -.50114231E+02 -.34977415E+01 -.18557324E+02 0.53554233E+02 0.10565837E+00 0.0000E+00 0.9000E+01
       23  1    3    3    0    0 -.21610013E+02 0.55921636E+02 0.72061506E+02 0.13077589E+03 0.91188000E+02 0.0000E+00 0.9000E+01
#aMCatNLO 1  0  0  2  1 0.69452656D+02 0.00000000D+00  -5  7  0 0.00000000D+00 0.00000000D+00 0.00000000D+00 0.00000000D+00 0.00000000D+00
  <mgrwgt>
 0.4670432615D-03    7    2    0
 0.285711597437329D+03 0.000000000000000D+00 0.000000000000000D+00 0.285711597437329D+03
 0.285711597437329D+03 0.000000000000000D+00 0.000000000000000D+00 -.285711597437329D+03
 0.212228689493254D+03 0.104483613895668D+03 -.753063501227807D+02 -.148276527974388D+03
 0.795220936653702D+02 -.327593441358222D+02 0.228824908840133D+02 -.687530389412550D+02
 0.538088607816129D+02 -.501142553856050D+02 -.349777758814850D+01 0.192800533636502D+02
 0.225863550934422D+03 -.216100143742405D+02 0.559216368269159D+02 0.197749513551993D+03
 0.000000000000000D+00 0.000000000000000D+00 -.000000000000000D+00 -.000000000000000D+00
 0.291107465753735D+03 0.000000000000000D+00 0.000000000000000D+00 0.291107465753735D+03
 0.653995204097688D+03 0.000000000000000D+00 0.000000000000000D+00 -.653995204097688D+03
 0.200796815906033D+03 0.794889518062769D+02 -.744830391178457D+02 -.148276527974388D+03
 0.841784033304347D+02 -.426658476151169D+02 0.232088058910240D+02 -.687530389412550D+02
 0.602786104621244D+02 -.570183757246470D+02 -.327035950047044D+01 0.192800533636502D+02
 0.230374643413071D+03 -.492197366575296D+02 0.568310865373274D+02 0.197749513551993D+03
 0.369474196739761D+03 0.694150081910167D+02 -.228649381003525D+01 -.362887738343953D+03
0.111198818833D-04 0.000000000000D+00 0.000000000000D+00 0.650961870790D-06 0.000000000000D+00  7 -2 1 -24 -13 13 23 21 0 0.21047145D-01 0.91798551D-01 0.30829301D+05 0.30829301D+05 0.30829301D+05 0.11662388D+01  1  2  2  2  7  2        1 0.774582340789D-03 0.100000000000D+01
-.439722183473D-06 0.000000000000D+00 -.427032743639D-07 0.650961870790D-06 0.000000000000D+00  7 -2 1 -24 -13 13 23 21 2 0.21047145D-01 0.91798551D-01 0.30829301D+05 0.30829301D+05 0.30829301D+05 0.11662388D+01  1  2  3  2  7  2        1 -.416601404077D-04 0.100000000000D+01
0.694249536361D-06 0.000000000000D+00 0.000000000000D+00 0.650961870790D-06 0.000000000000D+00  7 -2 1 -24 -13 13 23 21 2 0.21047145D-01 0.91798551D-01 0.30829301D+05 0.30829301D+05 0.30829301D+05 0.11662388D+01  1  2 15  2  7  2        1 0.657745600515D-04 0.100000000000D+01
0.706509418396D-04 0.000000000000D+00 0.000000000000D+00 0.650961870790D-06 0.000000000000D+00  7 -2 1 -24 -13 13 23 21 2 0.21047145D-01 0.20979628D+00 0.45950242D+05 0.45950242D+05 0.45950242D+05 0.11505360D+01  1  2 12  2  7  2        1 0.163505751128D-02 0.100000000000D+01
-.819371443350D-04 0.000000000000D+00 -.346914633296D-05 0.650961870790D-06 0.000000000000D+00  7 -2 1 -24 -13 13 23 21 2 0.21047145D-01 0.21119157D+00 0.30829301D+05 0.30829301D+05 0.30829301D+05 0.11662388D+01  1  2  5  2  7  2        1 -.194205449134D-02 0.100000000000D+01
0.635091670337D-05 0.000000000000D+00 0.000000000000D+00 0.650961870790D-06 0.000000000000D+00  7 -2 21 -24 -13 13 23 -1 2 0.21047145D-01 0.20979628D+00 0.45950242D+05 0.45950242D+05 0.45950242D+05 0.11505360D+01  1  2 12  4  7  2        1 0.141305040214D-03 0.100000000000D+01
-.721035048641D-05 0.000000000000D+00 -.314571220870D-06 0.650961870790D-06 0.000000000000D+00  7 -2 21 -24 -13 13 23 -1 2 0.21047145D-01 0.21119157D+00 0.30829301D+05 0.30829301D+05 0.30829301D+05 0.11662388D+01  1  2  5  4  7  2        1 -.165961559103D-03 0.100000000000D+01
  </mgrwgt>
  </event>
  <event>
  8     66 0.26562228E-05 0.22984307E+03 0.75467711E-02 0.91290315E-01
       -2 -1    0    0    0  501 0.00000000E+00 0.00000000E+00 0.75477934E+03 0.75477940E+03 0.32000000E+00 0.0000E+00 0.9000E+01
        1 -1    0    0  501    0 0.00000000E+00 0.00000000E+00 -.50311257E+03 0.50311267E+03 0.32000000E+00 0.0000E+00 0.9000E+01
       25  2    1    2    0    0 -.27176955E+03 0.39913019E+03 -.18928968E+03 0.59904959E+03 0.29977697E+03 0.0000E+00 0.0000E+00
       23  2    3    3    0    0 -.10339152E+03 0.27707930E+03 -.20522945E+03 0.37141631E+03 0.91477883E+02 0.0000E+00 0.0000E+00
      -24  1    1    2    0    0 0.27176955E+03 -.39913019E+03 0.44095645E+03 0.65884248E+03 0.80419002E+02 0.0000E+00 0.9000E+01
      -11  1    4    4    0    0 0.11881144E+02 0.62350963E+02 -.62013752E+02 0.88738433E+02 0.51099893E-03 0.0000E+00 0.9000E+01
       11  1    4    4    0    0 -.11527266E+03 0.21472834E+03 -.14321570E+03 0.28267788E+03 0.51099893E-03 0.0000E+00 0.9000E+01
       23  1    3    3    0    0 -.16837804E+03 0.12205089E+03 0.15939771E+02 0.22763328E+03 0.91188000E+02 0.0000E+00 0.9000E+01
#aMCatNLO 1  0  0  1  2 0.30532069D+03 0.00000000D+00  -5  7  0 0.00000000D+00 0.00000000D+00 0.00000000D+00 0.00000000D+00 0.00000000D+00
  <mgrwgt>
 0.9669407904D-03    9    2    0
 0.616229726262719D+03 0.000000000000000D+00 0.000000000000000D+00 0.616229726262719D+03
 0.616229726262719D+03 0.000000000000000D+00 0.000000000000000D+00 -.616229726262719D+03
 0.582395341612459D+03 0.271769553059774D+03 -.399130193514696D+03 0.315521024073095D+03
 0.103232745119409D+03 0.118811440689488D+02 0.623509626185951D+02 -.814137306664936D+02
 0.317755601737644D+03 -.115272660544806D+03 0.214728338101415D+03 -.203893543259169D+03
 0.229075764055926D+03 -.168378036583917D+03 0.122050892794686D+03 -.302137501474325D+02
 0.000000000000000D+00 0.000000000000000D+00 0.000000000000000D+00 0.000000000000000D+00
 0.872310906155553D+03 0.000000000000000D+00 0.000000000000000D+00 0.872310906155553D+03
 0.733004067915926D+03 0.000000000000000D+00 0.000000000000000D+00 -.733004067915926D+03
 0.690186184795879D+03 0.253334885129915D+03 -.553315166133008D+03 0.315521024073095D+03
 0.906667844506929D+02 0.907230756990809D+01 0.388582487632811D+02 -.814137306664936D+02
 0.277932091064378D+03 -.123901816774743D+03 0.142555287732716D+03 -.203893543259169D+03
 0.210930272430841D+03 -.174751981986582D+03 0.687401089433133D+02 -.302137501474325D+02
 0.335599641329687D+03 0.362466060615013D+02 0.303161520693698D+03 0.139306838239626D+03
0.303699699259D-03 0.000000000000D+00 0.000000000000D+00 0.158391394883D-04 0.000000000000D+00  7 -2 1 -24 -11 11 23 21 0 0.11611991D+00 0.77401946D-01 0.26203210D+06 0.26203210D+06 0.26203210D+06 0.10889266D+01  1  2  2  1  7  1       -2 0.850400801327D-03 0.100000000000D+01
-.161662427086D-04 0.000000000000D+00 -.116628681112D-05 0.158391394883D-04 0.000000000000D+00  7 -2 1 -24 -11 11 23 21 2 0.11611991D+00 0.77401946D-01 0.26203210D+06 0.26203210D+06 0.26203210D+06 0.10889266D+01  1  2  3  1  7  1       -2 -.536766800245D-04 0.100000000000D+01
0.192776081817D-04 0.000000000000D+00 0.000000000000D+00 0.158391394883D-04 0.000000000000D+00  7 -2 1 -24 -11 11 23 21 2 0.11611991D+00 0.77401946D-01 0.26203210D+06 0.26203210D+06 0.26203210D+06 0.10889266D+01  1  2 15  1  7  1       -2 0.640073283974D-04 0.100000000000D+01
0.663754388880D-04 0.000000000000D+00 0.000000000000D+00 0.158391394883D-04 0.000000000000D+00  7 -2 1 -24 -11 11 23 21 2 0.17171452D+00 0.77401946D-01 0.46015670D+06 0.46015670D+06 0.46015670D+06 0.10710686D+01  1  2 12  1  7  1       -2 0.719803054060D-04 0.100000000000D+01
-.157796659326D-03 0.000000000000D+00 0.000000000000D+00 0.158391394883D-04 0.000000000000D+00  7 -2 1 -24 -11 11 23 21 2 0.11611991D+00 0.77401946D-01 0.26203210D+06 0.26203210D+06 0.26203210D+06 0.10889266D+01  1  2  4  1  7  1       -2 -.523931314419D-03 0.100000000000D+01
-.196479058805D-03 0.000000000000D+00 -.103904524363D-03 0.158391394883D-04 0.000000000000D+00  7 -2 1 -24 -11 11 23 21 2 0.18392820D+00 0.77401946D-01 0.26203210D+06 0.26203210D+06 0.26203210D+06 0.10889266D+01  1  2  5  1  7  1       -2 -.184796257520D-03 0.100000000000D+01
0.229645189402D-03 0.000000000000D+00 0.938069804800D-04 0.158391394883D-04 0.000000000000D+00  7 -2 1 -24 -11 11 23 21 2 0.11611991D+00 0.77401946D-01 0.26203210D+06 0.26203210D+06 0.26203210D+06 0.10889266D+01  1  2  6  1  7  1       -2 0.762489563767D-03 0.100000000000D+01
0.310845660757D-05 0.000000000000D+00 0.000000000000D+00 0.158391394883D-04 0.000000000000D+00  7 21 1 -24 -11 11 23 2 2 0.17171452D+00 0.77401946D-01 0.46015670D+06 0.46015670D+06 0.46015670D+06 0.10710686D+01  1  2 12  3  7  1       -2 0.273676257100D-04 0.100000000000D+01
-.613332513086D-05 0.000000000000D+00 -.548981237772D-05 0.158391394883D-04 0.000000000000D+00  7 21 1 -24 -11 11 23 2 2 0.18392820D+00 0.77401946D-01 0.26203210D+06 0.26203210D+06 0.26203210D+06 0.10889266D+01  1  2  5  3  7  1       -2 -.469005822438D-04 0.100000000000D+01
  </mgrwgt>
  </event>
  <event>
  9     66 -.26562228E-05 0.81919726E+03 0.75467711E-02 0.89207137E-01
       -2 -1    0    0    0  501 0.00000000E+00 0.00000000E+00 0.68089486E+03 0.68089494E+03 0.32000000E+00 0.0000E+00 0.9000E+01
        1 -1    0    0  502    0 0.00000000E+00 0.00000000E+00 -.36405011E+04 0.36405011E+04 0.32000000E+00 0.0000E+00 0.9000E+01
       25  2    1    2    0    0 -.60474825E+03 0.53174309E+03 0.33646411E+03 0.92381911E+03 0.30292324E+03 0.0000E+00 0.0000E+00
       23  2    3    3    0    0 -.41489293E+03 0.42436105E+03 0.14019601E+03 0.61655316E+03 0.90908929E+02 0.0000E+00 0.0000E+00
      -24  1    1    2    0    0 0.61254316E+03 -.51036593E+03 -.31927351E+04 0.32917635E+04 0.80419002E+02 0.0000E+00 0.9000E+01
      -13  1    4    4    0    0 -.17793637E+03 0.11975254E+03 0.49617249E+02 0.22014519E+03 0.10565837E+00 0.0000E+00 0.9000E+01
       13  1    4    4    0    0 -.23695656E+03 0.30460851E+03 0.90578760E+02 0.39640797E+03 0.10565837E+00 0.0000E+00 0.9000E+01
       23  1    3    3    0    0 -.18985532E+03 0.10738204E+03 0.19626810E+03 0.30726595E+03 0.91188000E+02 0.0000E+00 0.9000E+01
       21  1    1    2  502  501 -.77949113E+01 -.21377155E+02 -.10333528E+03 0.10581345E+03 0.75000000E+00 0.0000E+00 0.9000E+01
#aMCatNLO 2  0  0  2  1 0.22753976D+02 0.00000000D+00  -5  7  0 0.00000000D+00 0.00000000D+00 0.00000000D+00 0.00000000D+00 0.00000000D+00
  <mgrwgt>
 -.7279413805D-03    3    2    0
 0.155018831388040D+04 0.000000000000000D+00 0.000000000000000D+00 0.155018831388040D+04
 0.155018831388040D+04 0.000000000000000D+00 0.000000000000000D+00 -.155018831388040D+04
 0.153643268257478D+04 0.608682878034530D+03 -.520952558764724D+03 -.130853802299881D+04
 0.344663421500538D+03 -.178803284510369D+03 0.117374593118391D+03 0.270269244382438D+03
 0.620938941588677D+03 -.238519645893823D+03 0.300322300509675D+03 0.488344205986442D+03
 0.598341582096811D+03 -.191359947630339D+03 0.103255665136658D+03 0.549924572629934D+03
 0.000000000000000D+00 -.000000000000000D+00 -.000000000000000D+00 -.000000000000000D+00
 0.155305341071993D+04 0.000000000000000D+00 0.000000000000000D+00 0.155305341071993D+04
 0.159607485576230D+04 0.000000000000000D+00 0.000000000000000D+00 -.159607485576230D+04
 0.153441242184973D+04 0.612543157873699D+03 -.510365933895326D+03 -.130853802299881D+04
 0.345032459596812D+03 -.177936285682873D+03 0.119752294148191D+03 0.270269244382438D+03
 0.622426710100601D+03 -.236956643138973D+03 0.304608757586577D+03 0.488344205986442D+03
 0.598588531946449D+03 -.189855317787083D+03 0.107382037415743D+03 0.549924572629934D+03
 0.486681429886474D+02 -.779491126477000D+01 -.213771552551854D+02 -.430214450423680D+02
-.362989153254D-01 0.000000000000D+00 0.000000000000D+00 0.612652742631D-05 0.000000000000D+00  7 -2 1 -24 -13 13 23 21 2 0.10455962D+00 0.56057055D+00 0.68965645D+06 0.68965645D+06 0.68965645D+06 0.10587776D+01  1  2 13  2  7  2        1 -.593626777460D-03 0.100000000000D+01
-.190743275681D+00 0.000000000000D+00 0.000000000000D+00 0.612652742631D-05 0.000000000000D+00  7 -2 1 -24 -13 13 23 21 2 0.10455962D+00 0.54397409D+00 0.67108415D+06 0.67108415D+06 0.67108415D+06 0.10595932D+01  1  2  8  2  7  2        1 -.386505357665D-02 0.100000000000D+01
0.227722476737D+00 0.000000000000D+00 0.000000000000D+00 0.612652742631D-05 0.707782507306D-07  7 -2 1 -24 -13 13 23 21 2 0.10475287D+00 0.56007606D+00 0.68965645D+06 0.68965645D+06 0.68965645D+06 0.10587776D+01  1  2  1  2  7  2        1 0.373073897365D-02 0.100000000000D+01
  </mgrwgt>
  </event>
  <event>
  8     66 0.26562228E-05 0.30941749E+03 0.75467711E-02 0.96162629E-01
       -2 -1    0    0    0  501 0.00000000E+00 0.00000000E+00 0.44965432E+03 0.44965443E+03 0.32000000E+00 0.0000E+00 0.9000E+01
        1 -1    0    0  501    0 0.00000000E+00 0.00000000E+00 -.13756003E+04 0.13756004E+04 0.32000000E+00 0.0000E+00 0.9000E+01
       25  2    1    2    0    0 -.25379330E+03 -.51739830E+02 0.34476580E+03 0.52592274E+03 0.30107014E+03 0.0000E+00 0.0000E+00
       23  2    3    3    0    0 -.15796317E+03 -.11918277E+03 0.96625595E+02 0.23675017E+03 0.86932407E+02 0.0000E+00 0.0000E+00
      -24  1    1    2    0    0 0.25379330E+03 0.51739830E+02 -.12707118E+04 0.12993321E+04 0.80419002E+02 0.0000E+00 0.9000E+01
      -11  1    4    4    0    0 -.15306606E+03 -.10921340E+03 0.11117823E+03 0.21844310E+03 0.51099893E-03 0.0000E+00 0.9000E+01
       11  1    4    4    0    0 -.48971129E+01 -.99693634E+01 -.14552637E+02 0.18307080E+02 0.51099893E-03 0.0000E+00 0.9000E+01
       23  1    3    3    0    0 -.95830122E+02 0.67442937E+02 0.24814021E+03 0.28917257E+03 0.91188000E+02 0.0000E+00 0.9000E+01
#aMCatNLO 1  0  0  1  1 0.22864175D+03 0.00000000D+00  -5  7  0 0.00000000D+00 0.00000000D+00 0.00000000D+00 0.00000000D+00 0.00000000D+00
  <mgrwgt>
 0.2067946506D-02    4    2    0
 0.786476172548539D+03 0.000000000000000D+00 0.000000000000000D+00 0.786476172548539D+03
 0.786476172548539D+03 0.000000000000000D+00 0.000000000000000D+00 -.786476172548539D+03
 0.759718841687543D+03 0.253793295951525D+03 0.517398301023361D+02 -.709660098477951D+03
 0.318928513772172D+03 -.153066061342097D+03 -.109213403331484D+03 0.257601650411829D+03
 0.126768803689114D+02 -.489711289827797D+01 -.996936340840373D+01 -.611010428555772D+01
 0.481628109268452D+03 -.958301217111492D+02 0.674429366375516D+02 0.458168552351679D+03
 0.000000000000000D+00 -.000000000000000D+00 0.000000000000000D+00 -.000000000000000D+00
 0.818822630403482D+03 0.000000000000000D+00 0.000000000000000D+00 0.818822630403482D+03
 0.133745916732561D+04 0.000000000000000D+00 0.000000000000000D+00 -.133745916732561D+04
 0.790159778533288D+03 0.337249384797444D+03 -.230359879192308D+02 -.709660098477951D+03
 0.316303006046786D+03 -.118860842001640D+03 -.139860936569137D+03 0.257601650411829D+03
 0.132469694643355D+02 -.350119512337282D+01 -.112200917249690D+02 -.611010428555772D+01
 0.469773220989921D+03 -.446001525314625D+02 0.215413984082286D+02 0.458168552351679D+03
 0.566798822694765D+03 -.170287195140969D+03 0.152575617805108D+03 -.518636536922133D+03
0.108607743607D-02 0.000000000000D+00 0.000000000000D+00 0.821037346982D-06 0.000000000000D+00  7 -2 1 -24 -11 11 23 21 0 0.69177599D-01 0.21163083D+00 0.95739183D+05 0.95739183D+05 0.95739183D+05 0.11232772D+01  1  2  2  1  7  1       -2 0.199903490233D-02 0.100000000000D+01
0.350531282657D-05 0.000000000000D+00 -.417082332528D-05 0.821037346982D-06 0.000000000000D+00  7 -2 1 -24 -11 11 23 21 2 0.69177599D-01 0.21163083D+00 0.95739183D+05 0.95739183D+05 0.95739183D+05 0.11232772D+01  1  2  3  1  7  1       -2 0.814067141724D-05 0.100000000000D+01
0.662141939775D-04 0.000000000000D+00 0.000000000000D+00 0.821037346982D-06 0.000000000000D+00  7 -2 1 -24 -11 11 23 21 2 0.69177599D-01 0.21163083D+00 0.95739183D+05 0.95739183D+05 0.95739183D+05 0.11232772D+01  1  2 15  1  7  1       -2 0.153774576763D-03 0.100000000000D+01
-.400466805436D-04 0.000000000000D+00 0.000000000000D+00 0.821037346982D-06 0.000000000000D+00  7 -2 1 -24 -11 11 23 21 2 0.69177599D-01 0.21163083D+00 0.95739183D+05 0.95739183D+05 0.95739183D+05 0.11232772D+01  1  2  4  1  7  1       -2 -.930036444068D-04 0.100000000000D+01
  </mgrwgt>
  </event>
  <event>
  8     66 0.26562228E-05 0.22027828E+03 0.75467711E-02 0.94410881E-01
       -2 -1    0    0    0  501 0.00000000E+00 0.00000000E+00 0.49591348E+03 0.49591358E+03 0.32000000E+00 0.0000E+00 0.9000E+01
        1 -1    0    0  501    0 0.00000000E+00 0.00000000E+00 -.46375383E+03 0.46375394E+03 0.32000000E+00 0.0000E+00 0.9000E+01
       25  2    1    2    0    0 0.85706534E+02 0.39026741E+03 -.13851757E+03 0.51779402E+03 0.29877965E+03 0.0000E+00 0.0000E+00
       23  2    3    3    0    0 -.76897741E+02 0.19833047E+03 -.71817184E+02 0.24203302E+03 0.90410390E+02 0.0000E+00 0.0000E+00
      -24  1    1    2    0    0 -.85706534E+02 -.39026741E+03 0.17067722E+03 0.44187350E+03 0.80419002E+02 0.0000E+00 0.9000E+01
      -13  1    4    4    0    0 -.12434786E+02 0.11373112E+03 -.72911801E+02 0.13566699E+03 0.10565837E+00 0.0000E+00 0.9000E+01
       13  1    4    4    0    0 -.64462956E+02 0.84599346E+02 0.10946172E+01 0.10636603E+03 0.10565837E+00 0.0000E+00 0.9000E+01
       23  1    3    3    0    0 0.16260428E+03 0.19193694E+03 -.66700382E+02 0.27576100E+03 0.91188000E+02 0.0000E+00 0.9000E+01
#aMCatNLO 1  0  0  1  2 0.11550588D+03 0.00000000D+00  -5  7  0 0.00000000D+00 0.00000000D+00 0.00000000D+00 0.00000000D+00 0.00000000D+00
  <mgrwgt>
 0.1353344094D-02    9    2    0
 0.479564257137942D+03 0.000000000000000D+00 0.000000000000000D+00 0.479564257137942D+03
 0.479564257137942D+03 0.000000000000000D+00 0.000000000000000D+00 -.479564257137942D+03
 0.436398997853561D+03 -.857065343178901D+02 -.390267405656680D+03 0.155957082014387D+03
 0.138188017267890D+03 -.124347145232104D+02 0.113731159106151D+03 -.775018028146986D+02
 0.106389054598005D+03 -.644630269302972D+02 0.845993063451233D+02 -.247112589018570D+01
 0.278152444556427D+03 0.162604275771398D+03 0.191936940205406D+03 -.759841533095023D+02
 0.000000000000000D+00 0.000000000000000D+00 -.000000000000000D+00 0.000000000000000D+00
 0.542505972578729D+03 0.000000000000000D+00 0.000000000000000D+00 0.542505972578729D+03
 0.539108409361977D+03 0.000000000000000D+00 0.000000000000000D+00 -.539108409361977D+03
 0.433471797826113D+03 -.134858468830375D+03 -.372721297366433D+03 0.155957082014387D+03
 0.145201496793052D+03 -.284476016161319D+02 0.119447390903712D+03 -.775018028146986D+02
 0.117894243810350D+03 -.771361251080536D+02 0.891233104398831D+02 -.247112589018570D+01
 0.269491007746875D+03 0.131659754771850D+03 0.202983421322237D+03 -.759841533095023D+02
 0.115555835764316D+03 0.108782440782711D+03 -.388328252993997D+02 0.339756321675169D+01
0.939529408485D-04 0.000000000000D+00 0.000000000000D+00 0.112674979501D-05 0.000000000000D+00  7 -2 1 -24 -13 13 23 21 0 0.76294398D-01 0.71346759D-01 0.20066908D+06 0.20066908D+06 0.20066908D+06 0.10977140D+01  1  2  2  1  7  1       -2 0.802659021201D-03 0.100000000000D+01
-.519011427774D-05 0.000000000000D+00 -.360804031236D-06 0.112674979501D-05 0.000000000000D+00  7 -2 1 -24 -13 13 23 21 2 0.76294398D-01 0.71346759D-01 0.20066908D+06 0.20066908D+06 0.20066908D+06 0.10977140D+01  1  2  3  1  7  1       -2 -.534288761991D-04 0.100000000000D+01
0.602872533306D-05 0.000000000000D+00 0.000000000000D+00 0.112674979501D-05 0.000000000000D+00  7 -2 1 -24 -13 13 23 21 2 0.76294398D-01 0.71346759D-01 0.20066908D+06 0.20066908D+06 0.20066908D+06 0.10977140D+01  1  2 15  1  7  1       -2 0.620618356786D-04 0.100000000000D+01
0.688589808459D-04 0.000000000000D+00 0.000000000000D+00 0.112674979501D-05 0.000000000000D+00  7 -2 1 -24 -13 13 23 21 2 0.90468442D-01 0.71346759D-01 0.25967376D+06 0.25967376D+06 0.25967376D+06 0.10892209D+01  1  2 12  1  7  1       -2 0.470232178513D-03 0.100000000000D+01
-.585643498457D-04 0.000000000000D+00 0.000000000000D+00 0.112674979501D-05 0.000000000000D+00  7 -2 1 -24 -13 13 23 21 2 0.76294398D-01 0.71346759D-01 0.20066908D+06 0.20066908D+06 0.20066908D+06 0.10977140D+01  1  2  4  1  7  1       -2 -.602882177567D-03 0.100000000000D+01
-.183766030711D-03 0.000000000000D+00 -.576915748319D-04 0.112674979501D-05 0.000000000000D+00  7 -2 1 -24 -13 13 23 21 2 0.95198067D-01 0.71346759D-01 0.20066908D+06 0.20066908D+06 0.20066908D+06 0.10977140D+01  1  2  5  1  7  1       -2 -.114017717424D-02 0.100000000000D+01
0.193169757744D-03 0.000000000000D+00 0.563064167102D-04 0.112674979501D-05 0.000000000000D+00  7 -2 1 -24 -13 13 23 21 2 0.76294398D-01 0.71346759D-01 0.20066908D+06 0.20066908D+06 0.20066908D+06 0.10977140D+01  1  2  6  1  7  1       -2 0.198855796224D-02 0.100000000000D+01
0.173946514047D-05 0.000000000000D+00 0.000000000000D+00 0.112674979501D-05 0.000000000000D+00  7 21 1 -24 -13 13 23 2 2 0.90468442D-01 0.71346759D-01 0.25967376D+06 0.25967376D+06 0.25967376D+06 0.10892209D+01  1  2 12  3  7  1       -2 0.111868483929D-03 0.100000000000D+01
-.489052125903D-05 0.000000000000D+00 -.178327038372D-05 0.112674979501D-05 0.000000000000D+00  7 21 1 -24 -13 13 23 2 2 0.95198067D-01 0.71346759D-01 0.20066908D+06 0.20066908D+06 0.20066908D+06 0.10977140D+01  1  2  5  3  7  1       -2 -.285547159492D-03 0.100000000000D+01
  </mgrwgt>
  </event>
  <event>
  8     66 0.26562228E-05 0.44562662E+03 0.75467711E-02 0.88432441E-01
       -2 -1    0    0    0  501 0.00000000E+00 0.00000000E+00 0.90905486E+03 0.90905491E+03 0.32000000E+00 0.0000E+00 0.9000E+01
        1 -1    0    0  501    0 0.00000000E+00 0.00000000E+00 -.36199067E+03 0.36199081E+03 0.32000000E+00 0.0000E+00 0.9000E+01
       25  2    1    2    0    0 -.22264650E+03 0.34575158E+03 -.81807390E+02 0.51535909E+03 0.29964466E+03 0.0000E+00 0.0000E+00
       23  2    3    3    0    0 -.36216215E+02 0.59232282E+02 0.56743104E+02 0.13541034E+03 0.10146972E+03 0.0000E+00 0.0000E+00
      -24  1    1    2    0    0 0.22264650E+03 -.34575158E+03 0.62887158E+03 0.75568664E+03 0.80419002E+02 0.0000E+00 0.9000E+01
      -13  1    4    4    0    0 -.25691729E+02 0.85959014E+02 0.26158979E+02 0.93452236E+02 0.10565837E+00 0.0000E+00 0.9000E+01
       13  1    4    4    0    0 -.10524486E+02 -.26726732E+02 0.30584124E+02 0.41958108E+02 0.10565837E+00 0.0000E+00 0.9000E+01
       23  1    3    3    0    0 -.18643029E+03 0.28651930E+03 -.13855049E+03 0.37994875E+03 0.91188000E+02 0.0000E+00 0.9000E+01
#aMCatNLO 1  0  0  1  2 0.71764607D+03 0.00000000D+00  -5  7  0 0.00000000D+00 0.00000000D+00 0.00000000D+00 0.00000000D+00 0.00000000D+00
  <mgrwgt>
 0.1137789711D-02    3    2    0
 0.573645799935579D+03 0.000000000000000D+00 0.000000000000000D+00 0.573645799935579D+03
 0.573645799935579D+03 0.000000000000000D+00 0.000000000000000D+00 -.573645799935579D+03
 0.537334321708686D+03 0.222646501829006D+03 -.345751577523727D+03 0.336370835826955D+03
 0.910592260832653D+02 -.256917421751624D+02 0.859591266836078D+02 -.155802945633155D+02
 0.319004512599177D+02 -.105244679658549D+02 -.267268522686598D+02 0.138762290421899D+02
 0.486997600819289D+03 -.186430291687988D+03 0.286519303108779D+03 -.334666770305830D+03
 0.000000000000000D+00 0.000000000000000D+00 -.000000000000000D+00 -.000000000000000D+00
 0.939995289689222D+03 0.000000000000000D+00 0.000000000000000D+00 0.939995289689222D+03
 0.116549991052694D+04 0.000000000000000D+00 0.000000000000000D+00 -.116549991052694D+04
 0.386280604815985D+03 0.238762121938657D+02 -.170382149883672D+03 0.336370835826955D+03
 0.155029537028015D+03 -.786522707621545D+02 0.132684709278793D+03 -.155802945633155D+02
 0.315033197715871D+02 -.241695332089139D+02 -.146881955550288D+02 0.138762290421899D+02
 0.780439616012898D+03 -.459194249316990D+03 0.527171259787207D+03 -.334666770305830D+03
 0.752242122587674D+03 0.538139841094193D+03 -.474785623627300D+03 -.225504620837716D+03
0.410302930884D-03 0.000000000000D+00 0.000000000000D+00 0.205882504522D-06 0.000000000000D+00  7 -2 1 -24 -13 13 23 21 0 0.13985461D+00 0.55690888D-01 0.19858309D+06 0.19858309D+06 0.19858309D+06 0.10980626D+01  1  2  2  1  7  1       -2 0.112119646770D-02 0.100000000000D+01
-.210271782122D-04 0.000000000000D+00 -.157567128984D-05 0.205882504522D-06 0.000000000000D+00  7 -2 1 -24 -13 13 23 21 2 0.13985461D+00 0.55690888D-01 0.19858309D+06 0.19858309D+06 0.19858309D+06 0.10980626D+01  1  2  3  1  7  1       -2 -.692807057623D-04 0.100000000000D+01
0.260633434270D-04 0.000000000000D+00 0.000000000000D+00 0.205882504522D-06 0.000000000000D+00  7 -2 1 -24 -13 13 23 21 2 0.13985461D+00 0.55690888D-01 0.19858309D+06 0.19858309D+06 0.19858309D+06 0.10980626D+01  1  2 15  1  7  1       -2 0.858739488923D-04 0.100000000000D+01
  </mgrwgt>
  </event>
  <event>
  8     66 0.26562228E-05 0.20957602E+03 0.75467711E-02 0.96136334E-01
       -2 -1    0    0    0  501 0.00000000E+00 0.00000000E+00 0.87775860E+03 0.87775866E+03 0.32000000E+00 0.0000E+00 0.9000E+01
        1 -1    0    0  501    0 0.00000000E+00 0.00000000E+00 -.20144039E+03 0.20144065E+03 0.32000000E+00 0.0000E+00 0.9000E+01
       25  2    1    2    0    0 -.29595883E+03 -.51407487E+02 0.11870807E+03 0.44073972E+03 0.29987586E+03 0.0000E+00 0.0000E+00
       23  2    3    3    0    0 -.14173472E+02 -.61670985E+02 -.20180500E+02 0.11345755E+03 0.91984598E+02 0.0000E+00 0.0000E+00
      -24  1    1    2    0    0 0.29595883E+03 0.51407487E+02 0.55761014E+03 0.63845959E+03 0.80419002E+02 0.0000E+00 0.9000E+01
      -11  1    4    4    0    0 -.48412267E+02 -.53322463E+02 -.28148005E+02 0.77326211E+02 0.51099893E-03 0.0000E+00 0.9000E+01
       11  1    4    4    0    0 0.34238795E+02 -.83485218E+01 0.79675044E+01 0.36131344E+02 0.51099893E-03 0.0000E+00 0.9000E+01
       23  1    3    3    0    0 -.28178536E+03 0.10263498E+02 0.13888857E+03 0.32728216E+03 0.91188000E+02 0.0000E+00 0.9000E+01
#aMCatNLO 1  0  0  1  2 0.14332700D+03 0.00000000D+00  -5  7  0 0.00000000D+00 0.00000000D+00 0.00000000D+00 0.00000000D+00 0.00000000D+00
  <mgrwgt>
 0.1096219619D-02    9    2    0
 0.420495190292516D+03 0.000000000000000D+00 0.000000000000000D+00 0.420495190292516D+03
 0.420495190292516D+03 0.000000000000000D+00 0.000000000000000D+00 -.420495190292516D+03
 0.370876122934276D+03 0.295958831408650D+03 0.514074869620384D+02 0.202107701495673D+03
 0.121865128690761D+03 -.484122669329464D+02 -.533224632408906D+02 -.983060370229248D+02
 0.399580703206567D+02 0.342387946597233D+02 -.834852176006879D+01 -.188322730550909D+02
 0.308291058639338D+03 -.281785359135427D+03 0.102634980389211D+02 -.849693914176568D+02
 0.000000000000000D+00 -.000000000000000D+00 0.000000000000000D+00 0.000000000000000D+00
 0.580225029939760D+03 0.000000000000000D+00 0.000000000000000D+00 0.580225029939760D+03
 0.459978875350785D+03 0.000000000000000D+00 0.000000000000000D+00 -.459978875350785D+03
 0.386320230878308D+03 0.319154471363566D+03 -.830693904383260D+01 0.202107701495673D+03
 0.129105713631531D+03 -.407241299412956D+02 -.731146607574610D+02 -.983060370229248D+02
 0.439733127394133D+02 0.368099139375392D+02 -.149675636216352D+02 -.188322730550909D+02
 0.293717058743181D+03 -.263343691435325D+03 -.372123898194478D+02 -.849693914176568D+02
 0.187087589298113D+03 -.518965639244847D+02 0.133601553242377D+03 0.120246154588975D+03
0.132999221693D-03 0.000000000000D+00 0.000000000000D+00 0.546608668984D-05 0.000000000000D+00  7 -2 1 -24 -11 11 23 21 0 0.13503981D+00 0.30990854D-01 0.12765692D+06 0.12765692D+06 0.12765692D+06 0.11131224D+01  1  2  2  1  7  1       -2 0.875197321090D-03 0.100000000000D+01
-.715050098960D-05 0.000000000000D+00 -.510752030800D-06 0.546608668984D-05 0.000000000000D+00  7 -2 1 -24 -11 11 23 21 2 0.13503981D+00 0.30990854D-01 0.12765692D+06 0.12765692D+06 0.12765692D+06 0.11131224D+01  1  2  3  1  7  1       -2 -.583014261388D-04 0.100000000000D+01
0.857368425092D-05 0.000000000000D+00 0.000000000000D+00 0.546608668984D-05 0.000000000000D+00  7 -2 1 -24 -11 11 23 21 2 0.13503981D+00 0.30990854D-01 0.12765692D+06 0.12765692D+06 0.12765692D+06 0.11131224D+01  1  2 15  1  7  1       -2 0.699053143017D-04 0.100000000000D+01
0.100935067635D-03 0.000000000000D+00 0.000000000000D+00 0.546608668984D-05 0.000000000000D+00  7 -2 1 -24 -11 11 23 21 2 0.19081600D+00 0.30990854D-01 0.19234719D+06 0.19234719D+06 0.19234719D+06 0.10991291D+01  1  2 12  1  7  1       -2 0.298499229227D-03 0.100000000000D+01
-.124022712575D-03 0.000000000000D+00 0.000000000000D+00 0.546608668984D-05 0.000000000000D+00  7 -2 1 -24 -11 11 23 21 2 0.13503981D+00 0.30990854D-01 0.12765692D+06 0.12765692D+06 0.12765692D+06 0.11131224D+01  1  2  4  1  7  1       -2 -.101121600112D-02 0.100000000000D+01
-.164801203198D-03 0.000000000000D+00 -.512428077184D-04 0.546608668984D-05 0.000000000000D+00  7 -2 1 -24 -11 11 23 21 2 0.19549832D+00 0.30990854D-01 0.12765692D+06 0.12765692D+06 0.12765692D+06 0.11131224D+01  1  2  5  1  7  1       -2 -.471284448341D-03 0.100000000000D+01
0.174965414156D-03 0.000000000000D+00 0.479250642188D-04 0.546608668984D-05 0.000000000000D+00  7 -2 1 -24 -11 11 23 21 2 0.13503981D+00 0.30990854D-01 0.12765692D+06 0.12765692D+06 0.12765692D+06 0.11131224D+01  1  2  6  1  7  1       -2 0.142657600987D-02 0.100000000000D+01
0.432191787099D-05 0.000000000000D+00 0.000000000000D+00 0.546608668984D-05 0.000000000000D+00  7 21 1 -24 -11 11 23 2 2 0.19081600D+00 0.30990854D-01 0.19234719D+06 0.19234719D+06 0.19234719D+06 0.10991291D+01  1  2 12  3  7  1       -2 0.104042070451D-03 0.100000000000D+01
-.584122297269D-05 0.000000000000D+00 -.230429885778D-05 0.546608668984D-05 0.000000000000D+00  7 21 1 -24 -11 11 23 2 2 0.19549832D+00 0.30990854D-01 0.12765692D+06 0.12765692D+06 0.12765692D+06 0.11131224D+01  1  2  5  3  7  1       -2 -.137198449904D-03 0.100000000000D+01
  </mgrwgt>
  </event>
  <event>
  8     66 0.26562228E-05 0.13155903E+03 0.75467711E-02 0.92862943E-01
       -2 -1    0    0    0  501 0.00000000E+00 0.00000000E+00 0.21051955E+04 0.21051955E+04 0.32000000E+00 0.0000E+00 0.9000E+01
        1 -1    0    0  501    0 0.00000000E+00 0.00000000E+00 -.11211832E+03 0.11211878E+03 0.32000000E+00 0.0000E+00 0.9000E+01
       25  2    1    2    0    0 0.44185482E+02 0.41709087E+03 0.13538151E+04 0.14485228E+04 0.29914186E+03 0.0000E+00 0.0000E+00
       23  2    3    3    0    0 -.51946384E+02 0.30708567E+03 0.10548307E+04 0.11034874E+04 0.89536047E+02 0.0000E+00 0.0000E+00
      -24  1    1    2    0    0 -.44185482E+02 -.41709087E+03 0.63926209E+03 0.76879151E+03 0.80419002E+02 0.0000E+00 0.9000E+01
      -13  1    4    4    0    0 -.46661956E+02 0.21785128E+03 0.60167265E+03 0.64159684E+03 0.10565837E+00 0.0000E+00 0.9000E+01
       13  1    4    4    0    0 -.52844275E+01 0.89234382E+02 0.45315801E+03 0.46189056E+03 0.10565837E+00 0.0000E+00 0.9000E+01
       23  1    3    3    0    0 0.96131866E+02 0.11000520E+03 0.29898441E+03 0.34503537E+03 0.91188000E+02 0.0000E+00 0.9000E+01
#aMCatNLO 1  0  0  1  2 0.22846907D+03 0.00000000D+00  -5  7  0 0.00000000D+00 0.00000000D+00 0.00000000D+00 0.00000000D+00 0.00000000D+00
  <mgrwgt>
 0.8415242083D-03    7    2    0
 0.485830754382000D+03 0.000000000000000D+00 0.000000000000000D+00 0.485830754382000D+03
 0.485830754382000D+03 0.000000000000000D+00 0.000000000000000D+00 -.485830754382000D+03
 0.443110817103534D+03 -.441854821376969D+02 -.417090866265979D+03 -.118164430881487D+03
 0.229958654579486D+03 -.466620138618035D+02 0.217851462713950D+03 0.569594546301200D+02
 0.124505833100472D+03 -.528436986298945D+01 0.892342030257314D+02 0.866662271104287D+02
 0.174086203980507D+03 0.961318658624898D+02 0.110005200526297D+03 -.254612508590616D+02
 0.000000000000000D+00 0.000000000000000D+00 -.000000000000000D+00 0.000000000000000D+00
 0.976692086860385D+03 0.000000000000000D+00 0.000000000000000D+00 0.976692086860385D+03
 0.526402661148145D+03 0.000000000000000D+00 0.000000000000000D+00 -.526402661148145D+03
 0.365926128013721D+03 -.748985361886698D+02 -.328423646773481D+03 -.118164430881487D+03
 0.288223581026670D+03 -.663334999496474D+02 0.274642167142096D+03 0.569594546301200D+02
 0.148134145272984D+03 -.156344613424663D+02 0.119114456270984D+03 0.866662271104287D+02
 0.195876556456376D+03 0.820871595895293D+02 0.150551642171126D+03 -.254612508590616D+02
 0.504934337238779D+03 0.747793378912542D+02 -.215884618810725D+03 0.450289425712239D+03
0.115804702761D-02 0.000000000000D+00 0.000000000000D+00 0.920663306205D-06 0.000000000000D+00  7 -2 1 -24 -13 13 23 21 0 0.32387626D+00 0.17249010D-01 0.20769088D+06 0.20769088D+06 0.20769088D+06 0.10965690D+01  1  2  2  1  7  1       -2 0.833541235884D-03 0.100000000000D+01
-.640159716863D-04 0.000000000000D+00 -.444720550680D-05 0.920663306205D-06 0.000000000000D+00  7 -2 1 -24 -13 13 23 21 2 0.32387626D+00 0.17249010D-01 0.20769088D+06 0.20769088D+06 0.20769088D+06 0.10965690D+01  1  2  3  1  7  1       -2 -.554065570078D-04 0.100000000000D+01
0.751939990324D-04 0.000000000000D+00 0.000000000000D+00 0.920663306205D-06 0.000000000000D+00  7 -2 1 -24 -13 13 23 21 2 0.32387626D+00 0.17249010D-01 0.20769088D+06 0.20769088D+06 0.20769088D+06 0.10965690D+01  1  2 15  1  7  1       -2 0.650812677569D-04 0.100000000000D+01
0.802407042418D-03 0.000000000000D+00 0.000000000000D+00 0.920663306205D-06 0.000000000000D+00  7 -2 1 -24 -13 13 23 21 2 0.65162904D+00 0.17249010D-01 0.34320935D+06 0.34320935D+06 0.34320935D+06 0.10802547D+01  1  2 12  1  7  1       -2 0.260349965561D-05 0.100000000000D+01
-.121035757224D-02 0.000000000000D+00 -.250680898534D-03 0.920663306205D-06 0.000000000000D+00  7 -2 1 -24 -13 13 23 21 2 0.65806633D+00 0.17249010D-01 0.20769088D+06 0.20769088D+06 0.20769088D+06 0.10965690D+01  1  2  5  1  7  1       -2 -.405314457077D-05 0.100000000000D+01
0.606846566394D-04 0.000000000000D+00 0.000000000000D+00 0.920663306205D-06 0.000000000000D+00  7 21 1 -24 -13 13 23 2 2 0.65162904D+00 0.17249010D-01 0.34320935D+06 0.34320935D+06 0.34320935D+06 0.10802547D+01  1  2 12  3  7  1       -2 0.106734060472D-05 0.100000000000D+01
-.775791327690D-04 0.000000000000D+00 -.192199737333D-04 0.920663306205D-06 0.000000000000D+00  7 21 1 -24 -13 13 23 2 2 0.65806633D+00 0.17249010D-01 0.20769088D+06 0.20769088D+06 0.20769088D+06 0.10965690D+01  1  2  5  3  7  1       -2 -.130943401629D-05 0.100000000000D+01
  </mgrwgt>
  </event>
  <event>
  7     66 0.26562228E-05 0.10558712E+03 0.75467711E-02 0.10001199E+00
       -4 -1    0    0    0  501 0.00000000E+00 0.00000000E+00 0.19715920E+03 0.19716529E+03 0.15500000E+01 0.0000E+00 0.9000E+01
        3 -1    0    0  501    0 0.00000000E+00 0.00000000E+00 -.13606239E+04 0.13606240E+04 0.50000000E+00 0.0000E+00 0.9000E+01
       23  2    1    2    0    0 0.64787653E+02 0.51325471E+02 -.36905173E+03 0.38883026E+03 0.90321930E+02 0.0000E+00 0.0000E+00
      -24  1    1    2    0    0 0.11104129E+03 0.12650988E+03 0.11650524E+03 0.21994455E+03 0.80419002E+02 0.0000E+00 0.9000E+01
      -11  1    3    3    0    0 0.83684933E+02 0.58473107E+02 -.31469593E+03 0.33084105E+03 0.51099893E-03 0.0000E+00 0.9000E+01
       11  1    3    3    0    0 -.18897281E+02 -.71476363E+01 -.54355800E+02 0.57989213E+02 0.51099893E-03 0.0000E+00 0.9000E+01
       23  1    1    2    0    0 -.17582895E+03 -.17783535E+03 -.91091825E+03 0.94901451E+03 0.91188000E+02 0.0000E+00 0.9000E+01
#aMCatNLO 1  0  0  2  1 0.69963773D+02 0.00000000D+00  -5  7  0 0.00000000D+00 0.00000000D+00 0.00000000D+00 0.00000000D+00 0.00000000D+00
  <mgrwgt>
 0.1852699234D-03    9    2    0
 0.517942414311567D+03 0.000000000000000D+00 0.000000000000000D+00 0.517942414311567D+03
 0.517942414311567D+03 0.000000000000000D+00 0.000000000000000D+00 -.517942414311567D+03
 0.461612140726391D+03 0.111041293091192D+03 0.126509879181284D+03 0.422236467171896D+03
 0.144073001615320D+03 0.836849318781060D+02 0.584731054012439D+02 -.101660011389630D+03
 0.261553421339678D+02 -.188972809964003D+02 -.714763658958537D+01 -.166104179439056D+02
 0.404044344147455D+03 -.175828943972898D+03 -.177835347992943D+03 -.303966037838361D+03
 0.000000000000000D+00 0.000000000000000D+00 0.000000000000000D+00 -.000000000000000D+00
 0.553956474585197D+03 0.000000000000000D+00 0.000000000000000D+00 0.553956474585197D+03
 0.554252746926951D+03 0.000000000000000D+00 0.000000000000000D+00 -.554252746926951D+03
 0.452570528361956D+03 0.103648589147395D+03 0.965722679934585D+02 0.422236467171896D+03
 0.139212114107717D+03 0.813940954150685D+02 0.491960977127565D+02 -.101660011389630D+03
 0.269895851621354D+02 -.193270470889980D+02 -.888802417709305D+01 -.166104179439056D+02
 0.419472593097475D+03 -.182488463033596D+03 -.204803842045027D+03 -.303966037838361D+03
 0.699644007828639D+02 0.167728255601299D+02 0.679235005159052D+02 -.296272341754106D+00
0.230767983016D-03 0.000000000000D+00 0.000000000000D+00 0.348525122483D-08 0.000000000000D+00  7 -4 3 -24 -11 11 23 21 0 0.30332660D-01 0.20932724D+00 0.82666455D+05 0.82666455D+05 0.82666455D+05 0.11285699D+01  1  2  2  2  7  2        3 0.840884876735D-04 0.100000000000D+01
-.742043079203D-05 0.000000000000D+00 -.886209817387D-06 0.348525122483D-08 0.000000000000D+00  7 -4 3 -24 -11 11 23 21 2 0.30332660D-01 0.20932724D+00 0.82666455D+05 0.82666455D+05 0.82666455D+05 0.11285699D+01  1  2  3  2  7  2        3 -.344387240197D-05 0.100000000000D+01
0.143284404409D-04 0.000000000000D+00 0.000000000000D+00 0.348525122483D-08 0.000000000000D+00  7 -4 3 -24 -11 11 23 21 2 0.30332660D-01 0.20932724D+00 0.82666455D+05 0.82666455D+05 0.82666455D+05 0.11285699D+01  1  2 15  2  7  2        3 0.664992666609D-05 0.100000000000D+01
0.307920858142D-03 0.000000000000D+00 0.000000000000D+00 0.348525122483D-08 0.000000000000D+00  7 -4 3 -24 -11 11 23 21 2 0.30332660D-01 0.23078746D+00 0.10186119D+06 0.10186119D+06 0.10186119D+06 0.11210654D+01  1  2 12  2  7  2        3 0.939759336567D-04 0.100000000000D+01
-.249541363719D-03 0.000000000000D+00 0.000000000000D+00 0.348525122483D-08 0.000000000000D+00  7 -4 3 -24 -11 11 23 21 2 0.30332660D-01 0.20932724D+00 0.82666455D+05 0.82666455D+05 0.82666455D+05 0.11285699D+01  1  2  4  2  7  2        3 -.115813844202D-03 0.100000000000D+01
-.882364079745D-03 0.000000000000D+00 -.249572060855D-03 0.348525122483D-08 0.000000000000D+00  7 -4 3 -24 -11 11 23 21 2 0.30332660D-01 0.23374014D+00 0.82666455D+05 0.82666455D+05 0.82666455D+05 0.11285699D+01  1  2  5  2  7  2        3 -.259556700150D-03 0.100000000000D+01
0.905888217011D-03 0.000000000000D+00 0.248061254329D-03 0.348525122483D-08 0.000000000000D+00  7 -4 3 -24 -11 11 23 21 2 0.30332660D-01 0.20932724D+00 0.82666455D+05 0.82666455D+05 0.82666455D+05 0.11285699D+01  1  2  6  2  7  2        3 0.420428883076D-03 0.100000000000D+01
0.489724170453D-05 0.000000000000D+00 0.000000000000D+00 0.348525122483D-08 0.000000000000D+00  7 -4 21 -24 -11 11 23 -3 2 0.30332660D-01 0.23078746D+00 0.10186119D+06 0.10186119D+06 0.10186119D+06 0.11210654D+01  1  2 12  4  7  2        3 0.213440068154D-04 0.100000000000D+01
-.146023601334D-04 0.000000000000D+00 -.440966980404D-05 0.348525122483D-08 0.000000000000D+00  7 -4 21 -24 -11 11 23 -3 2 0.30332660D-01 0.23374014D+00 0.82666455D+05 0.82666455D+05 0.82666455D+05 0.11285699D+01  1  2  5  4  7  2        3 -.624028977398D-04 0.100000000000D+01
  </mgrwgt>
  </event>
  <event>
  8     66 0.26562228E-05 0.25978126E+03 0.75467711E-02 0.96034734E-01
       -2 -1    0    0    0  501 0.00000000E+00 0.00000000E+00 0.31911716E+03 0.31911732E+03 0.32000000E+00 0.0000E+00 0.9000E+01
        1 -1    0    0  501    0 0.00000000E+00 0.00000000E+00 -.53103440E+03 0.53103450E+03 0.32000000E+00 0.0000E+00 0.9000E+01
       25  2    1    2    0    0 -.34038979E+03 0.71746055E+02 -.63089535E+02 0.46333195E+03 0.29947203E+03 0.0000E+00 0.0000E+00
       23  2    3    3    0    0 -.22754499E+03 -.26835539E+02 0.53786038E+02 0.25255379E+03 0.91616647E+02 0.0000E+00 0.0000E+00
      -24  1    1    2    0    0 0.34038979E+03 -.71746055E+02 -.14882771E+03 0.38681987E+03 0.80419002E+02 0.0000E+00 0.9000E+01
      -13  1    4    4    0    0 -.21996109E+03 -.94971509E+01 0.66220897E+02 0.22990932E+03 0.10565837E+00 0.0000E+00 0.9000E+01
       13  1    4    4    0    0 -.75839047E+01 -.17338388E+02 -.12434859E+02 0.22644474E+02 0.10565837E+00 0.0000E+00 0.9000E+01
       23  1    3    3    0    0 -.11284480E+03 0.98581594E+02 -.11687557E+03 0.21077816E+03 0.91188000E+02 0.0000E+00 0.9000E+01
#aMCatNLO 1  0  0  1  2 0.11014073D+03 0.00000000D+00  -5  7  0 0.00000000D+00 0.00000000D+00 0.00000000D+00 0.00000000D+00 0.00000000D+00
  <mgrwgt>
 0.1311622192D-02    9    2    0
 0.411657985506571D+03 0.000000000000000D+00 0.000000000000000D+00 0.411657985506571D+03
 0.411657985506571D+03 0.000000000000000D+00 0.000000000000000D+00 -.411657985506571D+03
 0.361120717588169D+03 0.340389792275229D+03 -.717460549671951D+02 -.541133036183693D+02
 0.254448396763093D+03 -.219961368475828D+03 -.949714049529561D+01 0.127556996342662D+03
 0.201815872205624D+02 -.758362221940398D+01 -.173383988101713D+02 -.701178033554810D+01
 0.187565269441319D+03 -.112844801579997D+03 0.985815942726620D+02 -.664319123887448D+02
 0.000000000000000D+00 -.000000000000000D+00 -.000000000000000D+00 0.000000000000000D+00
 0.484004208745361D+03 0.000000000000000D+00 0.000000000000000D+00 0.484004208745361D+03
 0.459483497502034D+03 0.000000000000000D+00 0.000000000000000D+00 -.459483497502034D+03
 0.398281755716823D+03 0.383617473128829D+03 -.455030291767777D+02 -.541133036183693D+02
 0.230902434508257D+03 -.192333606421119D+03 0.727535476274798D+01 0.127556996342662D+03
 0.182904791614164D+02 -.539366595010067D+01 -.160089016518608D+02 -.701178033554810D+01
 0.183175780167114D+03 -.917410044037064D+02 0.111393465801204D+03 -.664319123887448D+02
 0.112837256693785D+03 -.941491963539031D+02 -.571568897353133D+02 0.245207112433273D+02
0.485863957092D-04 0.000000000000D+00 0.000000000000D+00 0.384884675364D-05 0.000000000000D+00  7 -2 1 -24 -13 13 23 21 0 0.49094967D-01 0.81697620D-01 0.14881877D+06 0.14881877D+06 0.14881877D+06 0.11078230D+01  1  2  2  1  7  1       -2 0.866075965073D-03 0.100000000000D+01
-.268539930223D-05 0.000000000000D+00 -.186584552615D-06 0.384884675364D-05 0.000000000000D+00  7 -2 1 -24 -13 13 23 21 2 0.49094967D-01 0.81697620D-01 0.14881877D+06 0.14881877D+06 0.14881877D+06 0.11078230D+01  1  2  3  1  7  1       -2 -.587477035041D-04 0.100000000000D+01
0.310796903652D-05 0.000000000000D+00 0.000000000000D+00 0.384884675364D-05 0.000000000000D+00  7 -2 1 -24 -13 13 23 21 2 0.49094967D-01 0.81697620D-01 0.14881877D+06 0.14881877D+06 0.14881877D+06 0.11078230D+01  1  2 15  1  7  1       -2 0.679921393090D-04 0.100000000000D+01
0.363773900194D-04 0.000000000000D+00 0.000000000000D+00 0.384884675364D-05 0.000000000000D+00  7 -2 1 -24 -13 13 23 21 2 0.60157832D-01 0.81697620D-01 0.19571706D+06 0.19571706D+06 0.19571706D+06 0.10985482D+01  1  2 12  1  7  1       -2 0.516502704922D-03 0.100000000000D+01
-.349148652437D-04 0.000000000000D+00 0.000000000000D+00 0.384884675364D-05 0.000000000000D+00  7 -2 1 -24 -13 13 23 21 2 0.49094967D-01 0.81697620D-01 0.14881877D+06 0.14881877D+06 0.14881877D+06 0.11078230D+01  1  2  4  1  7  1       -2 -.763822404183D-03 0.100000000000D+01
-.835373154130D-04 0.000000000000D+00 -.270570511875D-04 0.384884675364D-05 0.000000000000D+00  7 -2 1 -24 -13 13 23 21 2 0.63540886D-01 0.81697620D-01 0.14881877D+06 0.14881877D+06 0.14881877D+06 0.11078230D+01  1  2  5  1  7  1       -2 -.108418605031D-02 0.100000000000D+01
0.884338393225D-04 0.000000000000D+00 0.261813378453D-04 0.384884675364D-05 0.000000000000D+00  7 -2 1 -24 -13 13 23 21 2 0.49094967D-01 0.81697620D-01 0.14881877D+06 0.14881877D+06 0.14881877D+06 0.11078230D+01  1  2  6  1  7  1       -2 0.193464151418D-02 0.100000000000D+01
0.105379706637D-05 0.000000000000D+00 0.000000000000D+00 0.384884675364D-05 0.000000000000D+00  7 21 1 -24 -13 13 23 2 2 0.60157832D-01 0.81697620D-01 0.19571706D+06 0.19571706D+06 0.19571706D+06 0.10985482D+01  1  2 12  3  7  1       -2 0.152767959051D-03 0.100000000000D+01
-.241573961542D-05 0.000000000000D+00 -.936980044843D-06 0.384884675364D-05 0.000000000000D+00  7 21 1 -24 -13 13 23 2 2 0.63540886D-01 0.81697620D-01 0.14881877D+06 0.14881877D+06 0.14881877D+06 0.11078230D+01  1  2  5  3  7  1       -2 -.319601932584D-03 0.100000000000D+01
  </mgrwgt>
  </event>
  <event>
  8     66 0.26562228E-05 0.40659618E+03 0.75467711E-02 0.95729999E-01
       -4 -1    0    0    0  501 0.00000000E+00 0.00000000E+00 0.41289582E+03 0.41289873E+03 0.15500000E+01 0.0000E+00 0.9000E+01
        3 -1    0    0  501    0 0.00000000E+00 0.00000000E+00 -.41935820E+03 0.41935850E+03 0.50000000E+00 0.0000E+00 0.9000E+01
       25  2    1    2    0    0 -.32471494E+03 -.13480724E+03 0.58083590E+02 0.46586102E+03 0.30006666E+03 0.0000E+00 0.0000E+00
       23  2    3    3    0    0 -.82620529E+02 -.15915982E+03 0.15372802E+02 0.20253192E+03 0.92870099E+02 0.0000E+00 0.0000E+00
      -24  1    1    2    0    0 0.32471494E+03 0.13480724E+03 -.64545971E+02 0.36639621E+03 0.80419002E+02 0.0000E+00 0.9000E+01
      -11  1    4    4    0    0 -.92798801E+02 -.15685180E+03 -.20079305E+01 0.18225844E+03 0.51099893E-03 0.0000E+00 0.9000E+01
       11  1    4    4    0    0 0.10178271E+02 -.23080124E+01 0.17380733E+02 0.20273480E+02 0.51099893E-03 0.0000E+00 0.9000E+01
       23  1    3    3    0    0 -.24209441E+03 0.24352573E+02 0.42710788E+02 0.26332910E+03 0.91188000E+02 0.0000E+00 0.9000E+01
#aMCatNLO 1  0  0  1  2 0.90846698D+02 0.00000000D+00  -5  7  0 0.00000000D+00 0.00000000D+00 0.00000000D+00 0.00000000D+00 0.00000000D+00
  <mgrwgt>
 0.1447677906D-03    4    2    0
 0.416116069589408D+03 0.000000000000000D+00 0.000000000000000D+00 0.416116069589408D+03
 0.416116069589408D+03 0.000000000000000D+00 0.000000000000000D+00 -.416116069589408D+03
 0.365906051455356D+03 0.324714940978650D+03 0.134807244646411D+03 -.617028073376977D+02
 0.182248339923979D+03 -.927988006153745D+02 -.156851804826565D+03 -.592732691400057D+00
 0.204090549713549D+02 0.101782713399339D+02 -.230801239925720D+01 0.175386828501840D+02
 0.263668692828126D+03 -.242094411703210D+03 0.243525725794108D+02 0.447568571789137D+02
 0.000000000000000D+00 0.000000000000000D+00 0.000000000000000D+00 -.000000000000000D+00
 0.433420746539857D+03 0.000000000000000D+00 0.000000000000000D+00 0.433420746539857D+03
 0.557690458446168D+03 0.000000000000000D+00 0.000000000000000D+00 -.557690458446168D+03
 0.333282908182618D+03 0.299008976660789D+03 0.106755217086604D+03 -.617028073376977D+02
 0.202798220631474D+03 -.106955192832264D+03 -.172300184809714D+03 -.592732691400057D+00
 0.199654009950307D+02 0.869388816980726D+01 -.392786828495038D+01 0.175386828501840D+02
 0.281129351406507D+03 -.262124131698771D+03 0.249483363669077D+01 0.447568571789137D+02
 0.153935323770396D+03 0.613764597004390D+02 0.669780023713697D+02 -.124269711906312D+03
0.962839883114D-04 0.000000000000D+00 0.000000000000D+00 0.273386650843D-05 0.000000000000D+00  7 -4 3 -24 -11 11 23 21 0 0.63522681D-01 0.64516893D-01 0.16532046D+06 0.16532046D+06 0.16532046D+06 0.11042343D+01  1  2  2  1  7  1       -4 0.162882119634D-03 0.100000000000D+01
-.534562685312D-05 0.000000000000D+00 -.369755867272D-06 0.273386650843D-05 0.000000000000D+00  7 -4 3 -24 -11 11 23 21 2 0.63522681D-01 0.64516893D-01 0.16532046D+06 0.16532046D+06 0.16532046D+06 0.11042343D+01  1  2  3  1  7  1       -4 -.110265697478D-04 0.100000000000D+01
0.627625581574D-05 0.000000000000D+00 0.000000000000D+00 0.273386650843D-05 0.000000000000D+00  7 -4 3 -24 -11 11 23 21 2 0.63522681D-01 0.64516893D-01 0.16532046D+06 0.16532046D+06 0.16532046D+06 0.11042343D+01  1  2 15  1  7  1       -4 0.129462033937D-04 0.100000000000D+01
-.971236670984D-05 0.000000000000D+00 0.000000000000D+00 0.273386650843D-05 0.000000000000D+00  7 -4 3 -24 -11 11 23 21 2 0.63522681D-01 0.64516893D-01 0.16532046D+06 0.16532046D+06 0.16532046D+06 0.11042343D+01  1  2  4  1  7  1       -4 -.200339626923D-04 0.100000000000D+01
  </mgrwgt>
  </event>
  <event>
  8     66 0.26562228E-05 0.43508256E+03 0.75467711E-02 0.84239516E-01
       -2 -1    0    0    0  501 0.00000000E+00 0.00000000E+00 0.17182673E+03 0.17182702E+03 0.32000000E+00 0.0000E+00 0.9000E+01
        1 -1    0    0  501    0 0.00000000E+00 0.00000000E+00 -.20944178E+04 0.20944178E+04 0.32000000E+00 0.0000E+00 0.9000E+01
       25  2    1    2    0    0 -.34476599E+03 0.17012824E+03 -.17846873E+04 0.18499614E+04 0.29906735E+03 0.0000E+00 0.0000E+00
       23  2    3    3    0    0 -.34805301E+03 0.14736711E+03 -.13279375E+04 0.13836305E+04 0.90318599E+02 0.0000E+00 0.0000E+00
      -24  1    1    2    0    0 0.34476599E+03 -.17012824E+03 -.13790373E+03 0.41628339E+03 0.80419002E+02 0.0000E+00 0.9000E+01
      -11  1    4    4    0    0 -.30047565E+03 0.10122862E+03 -.99999110E+03 0.10490544E+04 0.51099893E-03 0.0000E+00 0.9000E+01
       11  1    4    4    0    0 -.47577353E+02 0.46138488E+02 -.32794638E+03 0.33457614E+03 0.51099893E-03 0.0000E+00 0.9000E+01
       23  1    3    3    0    0 0.32870193E+01 0.22761133E+02 -.45674984E+03 0.46633094E+03 0.91188000E+02 0.0000E+00 0.9000E+01
#aMCatNLO 1  0  0  2  2 0.12901615D+04 0.00000000D+00  -5  7  0 0.00000000D+00 0.00000000D+00 0.00000000D+00 0.00000000D+00 0.00000000D+00
  <mgrwgt>
 0.1586751797D-02    3    2    0
 0.599897753247072D+03 0.000000000000000D+00 0.000000000000000D+00 0.599897753247072D+03
 0.599897753247072D+03 0.000000000000000D+00 0.000000000000000D+00 -.599897753247072D+03
 0.565319334957748D+03 0.344765988909440D+03 -.170128240423704D+03 0.406585205368236D+03
 0.379098000290206D+03 -.300475654895615D+03 0.101228619954035D+03 -.207803852566033D+03
 0.106455365061478D+03 -.475773532750687D+02 0.461384878693977D+02 -.833089439546396D+02
 0.148922806184713D+03 0.328701926124316D+01 0.227611326002708D+02 -.115472408847563D+03
 0.000000000000000D+00 -.000000000000000D+00 0.000000000000000D+00 0.000000000000000D+00
 0.202740972926698D+04 0.000000000000000D+00 0.000000000000000D+00 0.202740972926698D+04
 0.124386926391493D+04 0.000000000000000D+00 0.000000000000000D+00 -.124386926391493D+04
 0.116381195427164D+04 0.693179828888064D+03 -.837962555577269D+03 0.406585205368236D+03
 0.310722047993291D+03 -.161479354606696D+03 -.165197360764826D+03 -.207803852566033D+03
 0.886717597030021D+02 -.825992767144142D+01 -.292245516792339D+02 -.833089439546396D+02
 0.198618874789927D+03 0.733154389510891D+02 -.111468270306698D+03 -.115472408847563D+03
 0.150945435642405D+04 -.596755985561016D+03 0.114385273832803D+04 0.783540465352056D+03
0.417983996850D-03 0.000000000000D+00 0.000000000000D+00 0.456780245132D-05 0.000000000000D+00  7 -2 1 -24 -11 11 23 21 0 0.26434906D-01 0.32221815D+00 0.18929683D+06 0.18929683D+06 0.18929683D+06 0.10996647D+01  1  2  2  2  7  2        1 0.155935747425D-02 0.100000000000D+01
-.203080474042D-04 0.000000000000D+00 -.160516860562D-05 0.456780245132D-05 0.000000000000D+00  7 -2 1 -24 -11 11 23 21 2 0.26434906D-01 0.32221815D+00 0.18929683D+06 0.18929683D+06 0.18929683D+06 0.10996647D+01  1  2  3  2  7  2        1 -.916167203585D-04 0.100000000000D+01
0.263803582893D-04 0.000000000000D+00 0.000000000000D+00 0.456780245132D-05 0.000000000000D+00  7 -2 1 -24 -11 11 23 21 2 0.26434906D-01 0.32221815D+00 0.18929683D+06 0.18929683D+06 0.18929683D+06 0.10996647D+01  1  2 15  2  7  2        1 0.119011043270D-03 0.100000000000D+01
  </mgrwgt>
  </event>
  <event>
  8     66 0.26562228E-05 0.21619604E+03 0.75467711E-02 0.96616284E-01
       -2 -1    0    0    0  501 0.00000000E+00 0.00000000E+00 0.32947843E+03 0.32947859E+03 0.32000000E+00 0.0000E+00 0.9000E+01
        1 -1    0    0  501    0 0.00000000E+00 0.00000000E+00 -.22694508E+03 0.22694531E+03 0.32000000E+00 0.0000E+00 0.9000E+01
       25  2    1    2    0    0 0.24699031E+02 0.87151916E+02 0.22488881E+03 0.38425080E+03 0.29810770E+03 0.0000E+00 0.0000E+00
       23  2    3    3    0    0 0.12503584E+03 0.84106246E+02 0.12674832E+03 0.21684841E+03 0.90831037E+02 0.0000E+00 0.0000E+00
      -24  1    1    2    0    0 -.24699031E+02 -.87151916E+02 -.12235547E+03 0.17217309E+03 0.80419002E+02 0.0000E+00 0.9000E+01
      -13  1    4    4    0    0 0.15528938E+02 0.62016545E+02 0.52336783E+02 0.82621727E+02 0.10565837E+00 0.0000E+00 0.9000E+01
       13  1    4    4    0    0 0.10950690E+03 0.22089701E+02 0.74411536E+02 0.13422669E+03 0.10565837E+00 0.0000E+00 0.9000E+01
       23  1    3    3    0    0 -.10033681E+03 0.30456702E+01 0.98140494E+02 0.16740238E+03 0.91188000E+02 0.0000E+00 0.9000E+01
#aMCatNLO 1  0  0  2  1 0.32740807D+03 0.00000000D+00  -5  7  0 0.00000000D+00 0.00000000D+00 0.00000000D+00 0.00000000D+00 0.00000000D+00
  <mgrwgt>
 0.1327094108D-02    3    2    0
 0.273447646589484D+03 0.000000000000000D+00 0.000000000000000D+00 0.273447646589484D+03
 0.273447646589484D+03 0.000000000000000D+00 0.000000000000000D+00 -.273447646589484D+03
 0.198112401271164D+03 -.246990312958532D+02 -.871519170605954D+02 -.156766733680223D+03
 0.742489506952393D+02 0.155288111173366D+02 0.620165988093753D+02 0.377584980731907D+02
 0.122614526108014D+03 0.109507024074899D+03 0.220896473369169D+02 0.505428646940695D+02
 0.151919415104551D+03 -.100336803896382D+03 0.304567091430322D+01 0.684653709129624D+02
 0.000000000000000D+00 -.000000000000000D+00 -.000000000000000D+00 0.000000000000000D+00
 0.987954659182377D+03 0.000000000000000D+00 0.000000000000000D+00 0.987954659182377D+03
 0.358747950716199D+03 0.000000000000000D+00 0.000000000000000D+00 -.358747950716199D+03
 0.177205219266112D+03 -.106608427950325D+02 0.156528407298516D+02 -.156766733680223D+03
 0.124581220318035D+03 0.229657532367582D+02 0.116478970022300D+03 0.377584980731907D+02
 0.164880378728038D+03 0.120260336592805D+03 0.100838532122417D+03 0.505428646940695D+02
 0.170742393866962D+03 -.882681264655873D+02 0.914272637424217D+02 0.684653709129624D+02
 0.709293397719430D+03 -.442971205689429D+02 -.324397606616990D+03 0.629206708466178D+03
0.249461026395D-04 0.000000000000D+00 0.000000000000D+00 0.230071641702D-06 0.000000000000D+00  7 -2 1 -24 -13 13 23 21 0 0.50689018D-01 0.34914657D-01 0.46740730D+05 0.46740730D+05 0.46740730D+05 0.11498793D+01  1  2  2  2  7  2        1 0.131081687231D-02 0.100000000000D+01
-.129289766454D-05 0.000000000000D+00 -.957996025952D-07 0.230071641702D-06 0.000000000000D+00  7 -2 1 -24 -13 13 23 21 2 0.50689018D-01 0.34914657D-01 0.46740730D+05 0.46740730D+05 0.46740730D+05 0.11498793D+01  1  2  3  2  7  2        1 -.898272238128D-04 0.100000000000D+01
0.152717853988D-05 0.000000000000D+00 0.000000000000D+00 0.230071641702D-06 0.000000000000D+00  7 -2 1 -24 -13 13 23 21 2 0.50689018D-01 0.34914657D-01 0.46740730D+05 0.46740730D+05 0.46740730D+05 0.11498793D+01  1  2 15  2  7  2        1 0.106104459979D-03 0.100000000000D+01
  </mgrwgt>
  </event>
  <event>
  8     66 0.26562228E-05 0.12048496E+03 0.75467711E-02 0.10236972E+00
       -4 -1    0    0    0  501 0.00000000E+00 0.00000000E+00 0.80128243E+02 0.80143234E+02 0.15500000E+01 0.0000E+00 0.9000E+01
        3 -1    0    0  501    0 0.00000000E+00 0.00000000E+00 -.13502458E+04 0.13502459E+04 0.50000000E+00 0.0000E+00 0.9000E+01
       25  2    1    2    0    0 0.92661695E+02 0.16126282E+03 -.38440631E+03 0.52179487E+03 0.29984961E+03 0.0000E+00 0.0000E+00
       23  2    3    3    0    0 0.13222558E+03 0.59133484E+02 -.88301729E+02 0.19317826E+03 0.92413593E+02 0.0000E+00 0.0000E+00
      -24  1    1    2    0    0 -.92661695E+02 -.16126282E+03 -.88571122E+03 0.90859423E+03 0.80419002E+02 0.0000E+00 0.9000E+01
      -11  1    4    4    0    0 0.40145060E+02 -.11564680E+02 0.77656108E+01 0.42493204E+02 0.51099893E-03 0.0000E+00 0.9000E+01
       11  1    4    4    0    0 0.92080521E+02 0.70698164E+02 -.96067340E+02 0.15068506E+03 0.51099893E-03 0.0000E+00 0.9000E+01
       23  1    3    3    0    0 -.39563886E+02 0.10212934E+03 -.29610458E+03 0.32861661E+03 0.91188000E+02 0.0000E+00 0.9000E+01
#aMCatNLO 1  0  0  2  1 0.28527410D+02 0.00000000D+00  -5  7  0 0.00000000D+00 0.00000000D+00 0.00000000D+00 0.00000000D+00 0.00000000D+00
  <mgrwgt>
 0.5509179336D-04    9    2    0
 0.328943169839414D+03 0.000000000000000D+00 0.000000000000000D+00 0.328943169839414D+03
 0.328943169839414D+03 0.000000000000000D+00 0.000000000000000D+00 -.328943169839414D+03
 0.265526004622488D+03 -.926616953757484D+02 -.161262822738566D+03 -.171595324496016D+03
 0.107381853461512D+03 0.401450604038170D+02 -.115646799069916D+02 0.989216596941857D+02
 0.142154419683806D+03 0.920805206000374D+02 0.706981640310711D+02 0.820416136134671D+02
 0.142824061911023D+03 -.395638856281060D+02 0.102129338614486D+03 -.936794881163638D+01
 0.000000000000000D+00 -.000000000000000D+00 -.000000000000000D+00 -.000000000000000D+00
 0.332444555800658D+03 0.000000000000000D+00 0.000000000000000D+00 0.332444555800658D+03
 0.392985218309412D+03 0.000000000000000D+00 0.000000000000000D+00 -.392985218309412D+03
 0.258095413581874D+03 -.842752576160700D+02 -.153618853408298D+03 -.171595324496016D+03
 0.108431501466704D+03 0.436015753703352D+02 -.841417725606742D+01 0.989216596941857D+02
 0.147304064671988D+03 0.967165524327026D+02 0.749237585157069D+02 0.820416136134671D+02
 0.144673575359519D+03 -.349592591609684D+02 0.106326308114620D+03 -.936794881163638D+01
 0.669252190299854D+02 -.210836110259994D+02 -.192170359659616D+02 -.605406625087537D+02
0.172604263968D-04 0.000000000000D+00 0.000000000000D+00 0.217909016200D-05 0.000000000000D+00  7 -4 3 -24 -11 11 23 21 0 0.12328582D-01 0.20773128D+00 0.63256091D+05 0.63256091D+05 0.63256091D+05 0.11384188D+01  1  2  2  2  7  2        3 0.339780786264D-04 0.100000000000D+01
-.874915683020D-06 0.000000000000D+00 -.662845821384D-07 0.217909016200D-05 0.000000000000D+00  7 -4 3 -24 -11 11 23 21 2 0.12328582D-01 0.20773128D+00 0.63256091D+05 0.63256091D+05 0.63256091D+05 0.11384188D+01  1  2  3  2  7  2        3 -.223212031757D-05 0.100000000000D+01
0.112889109578D-05 0.000000000000D+00 0.000000000000D+00 0.217909016200D-05 0.000000000000D+00  7 -4 3 -24 -11 11 23 21 2 0.12328582D-01 0.20773128D+00 0.63256091D+05 0.63256091D+05 0.63256091D+05 0.11384188D+01  1  2 15  2  7  2        3 0.288007267457D-05 0.100000000000D+01
0.108693286007D-03 0.000000000000D+00 0.000000000000D+00 0.217909016200D-05 0.000000000000D+00  7 -4 3 -24 -11 11 23 21 2 0.12328582D-01 0.24913999D+00 0.70872178D+05 0.70872178D+05 0.70872178D+05 0.11342027D+01  1  2 12  2  7  2        3 0.126020471675D-03 0.100000000000D+01
-.109092042982D-03 0.000000000000D+00 0.000000000000D+00 0.217909016200D-05 0.000000000000D+00  7 -4 3 -24 -11 11 23 21 2 0.12328582D-01 0.20773128D+00 0.63256091D+05 0.63256091D+05 0.63256091D+05 0.11384188D+01  1  2  4  2  7  2        3 -.278320037407D-03 0.100000000000D+01
-.131864319238D-03 0.000000000000D+00 -.118741827855D-04 0.217909016200D-05 0.000000000000D+00  7 -4 3 -24 -11 11 23 21 2 0.12328582D-01 0.24914951D+00 0.63256091D+05 0.63256091D+05 0.63256091D+05 0.11384188D+01  1  2  5  2  7  2        3 -.154276667613D-03 0.100000000000D+01
0.132028656404D-03 0.000000000000D+00 0.116806045925D-04 0.217909016200D-05 0.000000000000D+00  7 -4 3 -24 -11 11 23 21 2 0.12328582D-01 0.20773128D+00 0.63256091D+05 0.63256091D+05 0.63256091D+05 0.11384188D+01  1  2  6  2  7  2        3 0.336836854317D-03 0.100000000000D+01
0.288867161243D-05 0.000000000000D+00 0.000000000000D+00 0.217909016200D-05 0.000000000000D+00  7 -4 21 -24 -11 11 23 -3 2 0.12328582D-01 0.24913999D+00 0.70872178D+05 0.70872178D+05 0.70872178D+05 0.11342027D+01  1  2 12  4  7  2        3 0.517556118759D-04 0.100000000000D+01
-.338914553056D-05 0.000000000000D+00 -.315624334661D-06 0.217909016200D-05 0.000000000000D+00  7 -4 21 -24 -11 11 23 -3 2 0.12328582D-01 0.24914951D+00 0.63256091D+05 0.63256091D+05 0.63256091D+05 0.11384188D+01  1  2  5  4  7  2        3 -.615504704677D-04 0.100000000000D+01
  </mgrwgt>
  </event>
  <event>
  8     66 0.26562228E-05 0.20432586E+03 0.75467711E-02 0.96678688E-01
       -2 -1    0    0    0  501 0.00000000E+00 0.00000000E+00 0.51150038E+03 0.51150048E+03 0.32000000E+00 0.0000E+00 0.9000E+01
        1 -1    0    0  501    0 0.00000000E+00 0.00000000E+00 -.32654692E+03 0.32654708E+03 0.32000000E+00 0.0000E+00 0.9000E+01
       25  2    1    2    0    0 -.25772365E+03 -.70415790E+02 -.12103061E+03 0.42395417E+03 0.30611905E+03 0.0000E+00 0.0000E+00
       23  2    3    3    0    0 -.25101469E+03 0.23905997E+02 -.44228293E+02 0.27178500E+03 0.91274717E+02 0.0000E+00 0.0000E+00
      -24  1    1    2    0    0 0.25772365E+03 0.70415790E+02 0.30598407E+03 0.41409338E+03 0.80419002E+02 0.0000E+00 0.9000E+01
      -11  1    4    4    0    0 -.48830449E+02 -.31955815E+02 -.11693418E+02 0.59517416E+02 0.51099893E-03 0.0000E+00 0.9000E+01
       11  1    4    4    0    0 -.20218424E+03 0.55861813E+02 -.32534875E+02 0.21226759E+03 0.51099893E-03 0.0000E+00 0.9000E+01
       23  1    3    3    0    0 -.67089545E+01 -.94321787E+02 -.76802315E+02 0.15216917E+03 0.91188000E+02 0.0000E+00 0.9000E+01
#aMCatNLO 1  0  0  1  2 0.14098853D+03 0.00000000D+00  -5  7  0 0.00000000D+00 0.00000000D+00 0.00000000D+00 0.00000000D+00 0.00000000D+00
  <mgrwgt>
 0.1051431573D-02    7    2    0
 0.408691790511753D+03 0.000000000000000D+00 0.000000000000000D+00 0.408691790511753D+03
 0.408691790511753D+03 0.000000000000000D+00 0.000000000000000D+00 -.408691790511753D+03
 0.355325379358379D+03 0.257723646763487D+03 0.704157896118064D+02 0.220020562071096D+03
 0.636679821542286D+02 -.488304486397447D+02 -.319558153949217D+02 -.254563371221806D+02
 0.224995673722010D+03 -.202184243548099D+03 0.558618128194615D+02 -.813882222623630D+02
 0.173394545788887D+03 -.670895457564339D+01 -.943217870363462D+02 -.113176002686553D+03
 0.000000000000000D+00 -.000000000000000D+00 0.000000000000000D+00 0.000000000000000D+00
 0.911599661404606D+03 0.000000000000000D+00 0.000000000000000D+00 0.911599661404606D+03
 0.424728360575925D+03 0.000000000000000D+00 0.000000000000000D+00 -.424728360575925D+03
 0.364493894310799D+03 0.278965220437830D+03 0.125674614569804D+02 0.220020562071096D+03
 0.668791386561296D+02 -.449780562600136D+02 -.424472442306771D+02 -.254563371221806D+02
 0.207252348815016D+03 -.189428780403152D+03 0.211241691265691D+02 -.813882222623630D+02
 0.190828465186361D+03 0.403911817612597D+01 -.123592595739530D+03 -.113176002686553D+03
 0.506874175012225D+03 -.485975019507914D+02 0.132348209386657D+03 0.486871300828681D+03
0.914117378902D-04 0.000000000000D+00 0.000000000000D+00 0.877605497230D-07 0.000000000000D+00  7 -2 1 -24 -11 11 23 21 0 0.78692385D-01 0.50238007D-01 0.11508821D+06 0.11508821D+06 0.11508821D+06 0.11167479D+01  1  2  2  1  7  1       -2 0.118524778680D-02 0.100000000000D+01
-.486427407697D-05 0.000000000000D+00 -.351045142762D-06 0.877605497230D-07 0.000000000000D+00  7 -2 1 -24 -11 11 23 21 2 0.78692385D-01 0.50238007D-01 0.11508821D+06 0.11508821D+06 0.11508821D+06 0.11167479D+01  1  2  3  1  7  1       -2 -.786566623735D-04 0.100000000000D+01
0.583292419797D-05 0.000000000000D+00 0.000000000000D+00 0.877605497230D-07 0.000000000000D+00  7 -2 1 -24 -11 11 23 21 2 0.78692385D-01 0.50238007D-01 0.11508821D+06 0.11508821D+06 0.11508821D+06 0.11167479D+01  1  2 15  1  7  1       -2 0.943200037725D-04 0.100000000000D+01
0.245288570031D-03 0.000000000000D+00 0.000000000000D+00 0.877605497230D-07 0.000000000000D+00  7 -2 1 -24 -11 11 23 21 2 0.17509323D+00 0.50238007D-01 0.17542626D+06 0.17542626D+06 0.17542626D+06 0.11022251D+01  1  2 12  1  7  1       -2 0.500996790693D-03 0.100000000000D+01
-.291967191021D-03 0.000000000000D+00 -.262983414288D-04 0.877605497230D-07 0.000000000000D+00  7 -2 1 -24 -11 11 23 21 2 0.17777817D+00 0.50238007D-01 0.11508821D+06 0.11508821D+06 0.11508821D+06 0.11167479D+01  1  2  5  1  7  1       -2 -.596100908337D-03 0.100000000000D+01
0.212818541187D-04 0.000000000000D+00 0.000000000000D+00 0.877605497230D-07 0.000000000000D+00  7 21 1 -24 -11 11 23 2 2 0.17509323D+00 0.50238007D-01 0.17542626D+06 0.17542626D+06 0.17542626D+06 0.11022251D+01  1  2 12  3  7  1       -2 0.363428125296D-03 0.100000000000D+01
-.241856914810D-04 0.000000000000D+00 -.232826900955D-05 0.877605497230D-07 0.000000000000D+00  7 21 1 -24 -11 11 23 2 2 0.17777817D+00 0.50238007D-01 0.11508821D+06 0.11508821D+06 0.11508821D+06 0.11167479D+01  1  2  5  3  7  1       -2 -.417803562670D-03 0.100000000000D+01
  </mgrwgt>
  </event>
  <event>
  8     66 0.26562228E-05 0.56316903E+02 0.75467711E-02 0.10230589E+00
       -2 -1    0    0    0  501 0.00000000E+00 0.00000000E+00 0.57860172E+03 0.57860181E+03 0.32000000E+00 0.0000E+00 0.9000E+01
        1 -1    0    0  501    0 0.00000000E+00 0.00000000E+00 -.90466341E+02 0.90466907E+02 0.32000000E+00 0.0000E+00 0.9000E+01
       25  2    1    2    0    0 0.95673668E+02 -.34509367E+02 0.40970855E+03 0.51753545E+03 0.29939522E+03 0.0000E+00 0.0000E+00
       23  2    3    3    0    0 -.24024988E+01 -.10286587E+03 0.11071683E+03 0.18286718E+03 0.10293216E+03 0.0000E+00 0.0000E+00
      -24  1    1    2    0    0 -.95673668E+02 0.34509367E+02 0.78426826E+02 0.15153326E+03 0.80419002E+02 0.0000E+00 0.9000E+01
      -11  1    4    4    0    0 0.29383836E+02 0.61623527E+01 0.36224070E+02 0.47048566E+02 0.51099893E-03 0.0000E+00 0.9000E+01
       11  1    4    4    0    0 -.31786334E+02 -.10902823E+03 0.74492757E+02 0.13581862E+03 0.51099893E-03 0.0000E+00 0.9000E+01
       23  1    3    3    0    0 0.98076167E+02 0.68356507E+02 0.29899173E+03 0.33466827E+03 0.91188000E+02 0.0000E+00 0.9000E+01
#aMCatNLO 1  0  0  2  1 0.99910837D+02 0.00000000D+00  -5  7  0 0.00000000D+00 0.00000000D+00 0.00000000D+00 0.00000000D+00 0.00000000D+00
  <mgrwgt>
 0.1063761143D-02    9    2    0
 0.228788547680400D+03 0.000000000000000D+00 0.000000000000000D+00 0.228788547680400D+03
 0.228788547680400D+03 0.000000000000000D+00 0.000000000000000D+00 -.228788547680400D+03
 0.137907380075001D+03 -.956736685016128D+02 0.345093674714126D+02 -.469774652035072D+02
 0.301511451401505D+02 0.293838345356835D+02 0.616235192411647D+01 0.277619163699652D+01
 0.119126234426333D+03 -.317863341479777D+02 -.109028227333415D+03 -.359657383430942D+02
 0.170392335719317D+03 0.980761681139069D+02 0.683565079378857D+02 0.801670119096048D+02
 0.000000000000000D+00 0.000000000000000D+00 -.000000000000000D+00 -.000000000000000D+00
 0.269787057153614D+03 0.000000000000000D+00 0.000000000000000D+00 0.269787057153614D+03
 0.304262300686897D+03 0.000000000000000D+00 0.000000000000000D+00 -.304262300686897D+03
 0.161128296635528D+03 -.118183140927746D+03 0.576279011052985D+02 -.469774652035072D+02
 0.273498040407091D+02 0.250555348347889D+02 0.106077667396366D+02 0.277619163699652D+01
 0.109717997086634D+03 -.490122483792989D+02 -.913362143891712D+02 -.359657383430942D+02
 0.170161643322388D+03 0.724414663111867D+02 0.946848333913420D+02 0.801670119096048D+02
 0.105691616755252D+03 0.696983881610690D+02 -.715842868471059D+02 -.344752435332836D+02
0.165702807778D-04 0.000000000000D+00 0.000000000000D+00 0.939542338720D-08 0.000000000000D+00  7 -2 1 -24 -11 11 23 21 0 0.89015700D-01 0.13917949D-01 0.44860367D+05 0.44860367D+05 0.44860367D+05 0.11514621D+01  1  2  2  2  7  2        1 0.872772776903D-03 0.100000000000D+01
-.913910233381D-06 0.000000000000D+00 -.636342412419D-07 0.939542338720D-08 0.000000000000D+00  7 -2 1 -24 -11 11 23 21 2 0.89015700D-01 0.13917949D-01 0.44860367D+05 0.44860367D+05 0.44860367D+05 0.11514621D+01  1  2  3  2  7  2        1 -.638225519449D-04 0.100000000000D+01
0.108852159148D-05 0.000000000000D+00 0.000000000000D+00 0.939542338720D-08 0.000000000000D+00  7 -2 1 -24 -11 11 23 21 2 0.89015700D-01 0.13917949D-01 0.44860367D+05 0.44860367D+05 0.44860367D+05 0.11514621D+01  1  2 15  2  7  2        1 0.760164655976D-04 0.100000000000D+01
0.697608698970D-05 0.000000000000D+00 0.000000000000D+00 0.939542338720D-08 0.000000000000D+00  7 -2 1 -24 -11 11 23 21 2 0.89015700D-01 0.19424153D-01 0.71555496D+05 0.71555496D+05 0.71555496D+05 0.11338491D+01  1  2 12  2  7  2        1 0.305388110959D-03 0.100000000000D+01
-.973450616152D-05 0.000000000000D+00 0.000000000000D+00 0.939542338720D-08 0.000000000000D+00  7 -2 1 -24 -11 11 23 21 2 0.89015700D-01 0.13917949D-01 0.44860367D+05 0.44860367D+05 0.44860367D+05 0.11514621D+01  1  2  4  2  7  2        1 -.679805305225D-03 0.100000000000D+01
-.145017431625D-04 0.000000000000D+00 -.711372666371D-05 0.939542338720D-08 0.000000000000D+00  7 -2 1 -24 -11 11 23 21 2 0.89015700D-01 0.21710181D-01 0.44860367D+05 0.44860367D+05 0.44860367D+05 0.11514621D+01  1  2  5  2  7  2        1 -.568939540528D-03 0.100000000000D+01
0.166419242193D-04 0.000000000000D+00 0.646423684840D-05 0.939542338720D-08 0.000000000000D+00  7 -2 1 -24 -11 11 23 21 2 0.89015700D-01 0.13917949D-01 0.44860367D+05 0.44860367D+05 0.44860367D+05 0.11514621D+01  1  2  6  2  7  2        1 0.116218205482D-02 0.100000000000D+01
0.290946686098D-06 0.000000000000D+00 0.000000000000D+00 0.939542338720D-08 0.000000000000D+00  7 -2 21 -24 -11 11 23 -1 2 0.89015700D-01 0.19424153D-01 0.71555496D+05 0.71555496D+05 0.71555496D+05 0.11338491D+01  1  2 12  4  7  2        1 0.107616940276D-03 0.100000000000D+01
-.467898203922D-06 0.000000000000D+00 -.366305553873D-06 0.939542338720D-08 0.000000000000D+00  7 -2 21 -24 -11 11 23 -1 2 0.89015700D-01 0.21710181D-01 0.44860367D+05 0.44860367D+05 0.44860367D+05 0.11514621D+01  1  2  5  4  7  2        1 -.147647807720D-03 0.100000000000D+01
  </mgrwgt>
  </event>
  <event>
  8     66 0.26562228E-05 0.31122135E+03 0.75467711E-02 0.92213213E-01
       -2 -1    0    0    0  501 0.00000000E+00 0.00000000E+00 0.11654888E+03 0.11654932E+03 0.32000000E+00 0.0000E+00 0.9000E+01
        1 -1    0    0  501    0 0.00000000E+00 0.00000000E+00 -.20834707E+04 0.20834707E+04 0.32000000E+00 0.0000E+00 0.9000E+01
       25  2    1    2    0    0 0.36761431E+03 0.24246441E+03 -.11809297E+04 0.12954869E+04 0.29960347E+03 0.0000E+00 0.0000E+00
       23  2    3    3    0    0 0.55951948E+02 -.18330912E+02 -.17075355E+03 0.20282107E+03 0.92265765E+02 0.0000E+00 0.0000E+00
      -24  1    1    2    0    0 -.36761431E+03 -.24246441E+03 -.78599209E+03 0.90453306E+03 0.80419002E+02 0.0000E+00 0.9000E+01
      -13  1    4    4    0    0 -.95691855E+01 0.14509470E+02 -.41687377E+00 0.17386172E+02 0.10565837E+00 0.0000E+00 0.9000E+01
       13  1    4    4    0    0 0.65521133E+02 -.32840381E+02 -.17033667E+03 0.18543490E+03 0.10565837E+00 0.0000E+00 0.9000E+01
       23  1    3    3    0    0 0.31166236E+03 0.26079532E+03 -.10101761E+04 0.10926659E+04 0.91188000E+02 0.0000E+00 0.9000E+01
#aMCatNLO 1  0  0  2  1 0.25639855D+03 0.00000000D+00  -5  7  0 0.00000000D+00 0.00000000D+00 0.00000000D+00 0.00000000D+00 0.00000000D+00
  <mgrwgt>
 0.9372194568D-03    9    2    0
 0.492774476894024D+03 0.000000000000000D+00 0.000000000000000D+00 0.492774476894024D+03
 0.492774476894024D+03 0.000000000000000D+00 0.000000000000000D+00 -.492774476894024D+03
 0.450516291611164D+03 -.367614306281293D+03 -.242464410848496D+03 0.506798218418393D+02
 0.379787534690941D+02 -.956928392347138D+01 0.145095315136084D+02 0.337681509045702D+02
 0.739908739635642D+02 0.655212312217343D+02 -.328404435111552D+02 -.101549475168858D+02
 0.423063034744225D+03 0.311662358983030D+03 0.260795322846042D+03 -.742930252295237D+02
 0.000000000000000D+00 -.000000000000000D+00 -.000000000000000D+00 -.000000000000000D+00
 0.608662607571044D+03 0.000000000000000D+00 0.000000000000000D+00 0.608662607571044D+03
 0.674378682545356D+03 0.000000000000000D+00 0.000000000000000D+00 -.674378682545356D+03
 0.360563509338155D+03 -.265339929615220D+03 -.224866862213498D+03 0.506798218418393D+02
 0.374295720093052D+02 -.605531244688304D-01 0.161456241317905D+02 0.337681509045702D+02
 0.918040788741348D+02 0.864274052332311D+02 -.292432823655026D+02 -.101549475168858D+02
 0.528557864700935D+03 0.431658485380515D+03 0.281442113754243D+03 -.742930252295237D+02
 0.264686265193870D+03 -.252685407874058D+03 -.434775933070329D+02 -.657160749743117D+02
0.928628492746D-04 0.000000000000D+00 0.000000000000D+00 0.334946025111D-05 0.000000000000D+00  7 -2 1 -24 -13 13 23 21 0 0.17930633D-01 0.32053398D+00 0.22791891D+06 0.22791891D+06 0.22791891D+06 0.10934932D+01  1  2  2  2  7  2        1 0.672591355665D-03 0.100000000000D+01
-.515275219502D-05 0.000000000000D+00 -.356617792564D-06 0.334946025111D-05 0.000000000000D+00  7 -2 1 -24 -13 13 23 21 2 0.17930633D-01 0.32053398D+00 0.22791891D+06 0.22791891D+06 0.22791891D+06 0.10934932D+01  1  2  3  2  7  2        1 -.446252567340D-04 0.100000000000D+01
0.597538046705D-05 0.000000000000D+00 0.000000000000D+00 0.334946025111D-05 0.000000000000D+00  7 -2 1 -24 -13 13 23 21 2 0.17930633D-01 0.32053398D+00 0.22791891D+06 0.22791891D+06 0.22791891D+06 0.10934932D+01  1  2 15  2  7  2        1 0.517496043539D-04 0.100000000000D+01
0.216944501388D-04 0.000000000000D+00 0.000000000000D+00 0.334946025111D-05 0.000000000000D+00  7 -2 1 -24 -13 13 23 21 2 0.17930633D-01 0.46496019D+00 0.38693352D+06 0.38693352D+06 0.38693352D+06 0.10764690D+01  1  2 12  2  7  2        1 0.389803766762D-04 0.100000000000D+01
-.374670788082D-04 0.000000000000D+00 0.000000000000D+00 0.334946025111D-05 0.000000000000D+00  7 -2 1 -24 -13 13 23 21 2 0.17930633D-01 0.32053398D+00 0.22791891D+06 0.22791891D+06 0.22791891D+06 0.10934932D+01  1  2  4  2  7  2        1 -.324482518780D-03 0.100000000000D+01
-.687129672715D-04 0.000000000000D+00 -.299218758147D-04 0.334946025111D-05 0.000000000000D+00  7 -2 1 -24 -13 13 23 21 2 0.17930633D-01 0.47303852D+00 0.22791891D+06 0.22791891D+06 0.22791891D+06 0.10934932D+01  1  2  5  2  7  2        1 -.120070189820D-03 0.100000000000D+01
0.766137373195D-04 0.000000000000D+00 0.277904942799D-04 0.334946025111D-05 0.000000000000D+00  7 -2 1 -24 -13 13 23 21 2 0.17930633D-01 0.32053398D+00 0.22791891D+06 0.22791891D+06 0.22791891D+06 0.10934932D+01  1  2  6  2  7  2        1 0.663510987495D-03 0.100000000000D+01
0.979347029757D-06 0.000000000000D+00 0.000000000000D+00 0.334946025111D-05 0.000000000000D+00  7 -2 21 -24 -13 13 23 -1 2 0.17930633D-01 0.46496019D+00 0.38693352D+06 0.38693352D+06 0.38693352D+06 0.10764690D+01  1  2 12  4  7  2        1 0.376294749535D-06 0.100000000000D+01
-.222203106038D-05 0.000000000000D+00 -.139599096097D-05 0.334946025111D-05 0.000000000000D+00  7 -2 21 -24 -13 13 23 -1 2 0.17930633D-01 0.47303852D+00 0.22791891D+06 0.22791891D+06 0.22791891D+06 0.10934932D+01  1  2  5  4  7  2        1 -.811196793533D-06 0.100000000000D+01
  </mgrwgt>
  </event>
  <event>
  9     66 0.26562228E-05 0.19081394E+03 0.75467711E-02 0.10600956E+00
       21 -1    0    0  502  501 0.00000000E+00 0.00000000E+00 0.50159705E+02 0.50165311E+02 0.75000000E+00 0.0000E+00 0.9000E+01
        1 -1    0    0  501    0 0.00000000E+00 0.00000000E+00 -.13489404E+04 0.13489405E+04 0.32000000E+00 0.0000E+00 0.9000E+01
       25  2    1    2    0    0 -.39823714E+02 -.96996008E+01 -.11621274E+04 0.12009542E+04 0.30011778E+03 0.0000E+00 0.0000E+00
       23  2    3    3    0    0 -.11891146E+03 -.72362785E+02 -.64961731E+03 0.67070569E+03 0.92017212E+02 0.0000E+00 0.0000E+00
      -24  1    1    2    0    0 0.14093061E+02 0.15555308E+01 -.28201963E+02 0.86392133E+02 0.80419002E+02 0.0000E+00 0.9000E+01
      -11  1    4    4    0    0 -.41751368E+02 -.76377764E+02 -.28519789E+03 0.29818547E+03 0.51099893E-03 0.0000E+00 0.9000E+01
       11  1    4    4    0    0 -.77160094E+02 0.40149795E+01 -.36441941E+03 0.37252021E+03 0.51099893E-03 0.0000E+00 0.9000E+01
       23  1    3    3    0    0 0.79087747E+02 0.62663184E+02 -.51251014E+03 0.53024847E+03 0.91188000E+02 0.0000E+00 0.9000E+01
        2  1    1    2  502    0 0.25730654E+02 0.81440700E+01 -.10845132E+03 0.11175949E+03 0.32000000E+00 0.0000E+00 0.9000E+01
#aMCatNLO 2  0  0  1  1 0.26988746D+02 0.00000000D+00  -5  7  0 0.00000000D+00 0.00000000D+00 0.00000000D+00 0.00000000D+00 0.00000000D+00
  <mgrwgt>
 0.1845568586D-03    1    2    0
 0.244769270894513D+03 0.000000000000000D+00 0.000000000000000D+00 0.244769270894513D+03
 0.244769270894513D+03 0.000000000000000D+00 0.000000000000000D+00 -.244769270894513D+03
 0.159379195927121D+03 0.224373933841509D+02 0.419661518799090D+01 0.135696219324983D+03
 0.872090906071630D+02 -.370836590760493D+02 -.749003766969667D+02 -.249030376603375D+02
 0.895347048600033D+02 -.723566030565807D+02 0.553534386716231D+01 -.524437349618865D+02
 0.153415550394740D+03 0.870028687484790D+02 0.651684176418135D+02 -.583494467027586D+02
 0.000000000000000D+00 0.000000000000000D+00 0.000000000000000D+00 -.000000000000000D+00
 0.253499171075808D+03 0.000000000000000D+00 0.000000000000000D+00 0.253499171075808D+03
 0.266927719720692D+03 0.000000000000000D+00 0.000000000000000D+00 -.266927719720692D+03
 0.158372074351827D+03 0.140930608838785D+02 0.155553076462749D+01 0.135696219324983D+03
 0.905367374647028D+02 -.417513675282164D+02 -.763777641435262D+02 -.249030376603375D+02
 0.933817196221339D+02 -.771600943669380D+02 0.401497946687840D+01 -.524437349618865D+02
 0.147991404090563D+03 0.790877474527816D+02 0.626631838723759D+02 -.583494467027586D+02
 0.301449552672730D+02 0.257306535584943D+02 0.814407003964443D+01 -.134285486448835D+02
0.103962082153D-06 0.000000000000D+00 0.000000000000D+00 0.148098382625D-05 0.944232922791D-10  7 21 1 -24 -11 11 23 2 2 0.77172864D-02 0.20752905D+00 0.41812067D+05 0.41812067D+05 0.41812067D+05 0.11541904D+01  1  2  1  3  7  1       -2 0.184556858608D-03 0.100000000000D+01
  </mgrwgt>
  </event>
  <event>
  8     66 0.26562228E-05 0.96822574E+02 0.75467711E-02 0.11066232E+00
       -2 -1    0    0    0  501 0.00000000E+00 0.00000000E+00 0.37288802E+02 0.37290175E+02 0.32000000E+00 0.0000E+00 0.9000E+01
        1 -1    0    0  501    0 0.00000000E+00 0.00000000E+00 -.12614947E+04 0.12614948E+04 0.32000000E+00 0.0000E+00 0.9000E+01
       25  2    1    2    0    0 -.30846758E+02 -.53709801E+02 -.10794108E+04 0.11219542E+04 0.29969533E+03 0.0000E+00 0.0000E+00
       23  2    3    3    0    0 0.90232834E+01 -.68202804E+02 -.13407602E+03 0.17128456E+03 0.81418541E+02 0.0000E+00 0.0000E+00
      -24  1    1    2    0    0 0.30846758E+02 0.53709801E+02 -.14479508E+03 0.17683070E+03 0.80419002E+02 0.0000E+00 0.9000E+01
      -11  1    4    4    0    0 -.24866389E+01 0.98946483E+01 -.66771639E+02 0.67546571E+02 0.51099893E-03 0.0000E+00 0.9000E+01
       11  1    4    4    0    0 0.11509922E+02 -.78097452E+02 -.67304378E+02 0.10373799E+03 0.51099893E-03 0.0000E+00 0.9000E+01
       23  1    3    3    0    0 -.39870041E+02 0.14493003E+02 -.94533483E+03 0.95066969E+03 0.91188000E+02 0.0000E+00 0.9000E+01
#aMCatNLO 1  0  0  2  1 0.86574842D+01 0.00000000D+00  -5  7  0 0.00000000D+00 0.00000000D+00 0.00000000D+00 0.00000000D+00 0.00000000D+00
  <mgrwgt>
 0.4029509193D-02   11    2    0
 0.216888325543028D+03 0.000000000000000D+00 0.000000000000000D+00 0.216888325543028D+03
 0.216888325543028D+03 0.000000000000000D+00 0.000000000000000D+00 -.216888325543028D+03
 0.120813453298261D+03 0.308467579567603D+02 0.537098008417111D+02 0.655164815949489D+02
 0.138002653991574D+02 -.248663889023785D+01 0.989464831172759D+01 -.929300203938224D+01
 0.120658673601421D+03 0.115099222632585D+02 -.780974519652396D+02 0.912514394477429D+02
 0.178504258787218D+03 -.398700413297809D+02 0.144930028118009D+02 -.147474919003310D+03
 0.000000000000000D+00 -.000000000000000D+00 -.000000000000000D+00 -.000000000000000D+00
 0.220049955330861D+03 0.000000000000000D+00 0.000000000000000D+00 0.220049955330861D+03
 0.222940301186475D+03 0.000000000000000D+00 0.000000000000000D+00 -.222940301186475D+03
 0.122065820629937D+03 0.322827710994588D+02 0.556620332115894D+02 0.655164815949489D+02
 0.139326861499517D+02 -.232266902049048D+01 0.101175622098581D+02 -.929300203938224D+01
 0.119563220456800D+03 0.129302237630626D+02 -.761665792730206D+02 0.912514394477429D+02
 0.178301309977226D+03 -.377604439242599D+02 0.173609600888006D+02 -.147474919003310D+03
 0.912721930342149D+01 -.512988191777109D+01 -.697397623722744D+01 -.289034585561348D+01
0.850153506355D-05 0.000000000000D+00 0.000000000000D+00 0.193786368757D-07 0.000000000000D+00  7 -2 1 -24 -11 11 23 21 0 0.57368476D-02 0.19407622D+00 0.21202621D+05 0.21202621D+05 0.21202621D+05 0.11815848D+01  1  2  2  2  7  2        1 0.129840050941D-02 0.100000000000D+01
-.381140484205D-06 0.000000000000D+00 -.326481331496D-07 0.193786368757D-07 0.000000000000D+00  7 -2 1 -24 -11 11 23 21 2 0.57368476D-02 0.19407622D+00 0.21202621D+05 0.21202621D+05 0.21202621D+05 0.11815848D+01  1  2  3  2  7  2        1 -.812692463812D-04 0.100000000000D+01
0.547764562765D-06 0.000000000000D+00 0.000000000000D+00 0.193786368757D-07 0.000000000000D+00  7 -2 1 -24 -11 11 23 21 2 0.57368476D-02 0.19407622D+00 0.21202621D+05 0.21202621D+05 0.21202621D+05 0.11815848D+01  1  2 15  2  7  2        1 0.116797913250D-03 0.100000000000D+01
0.156239969301D-04 0.000000000000D+00 0.000000000000D+00 0.193786368757D-07 0.000000000000D+00  7 -2 1 -24 -11 11 23 21 2 0.57368476D-02 0.20087592D+00 0.22425110D+05 0.22425110D+05 0.22425110D+05 0.11792471D+01  1  2 12  2  7  2        1 0.310116328073D-02 0.100000000000D+01
-.144327712045D-04 0.000000000000D+00 0.000000000000D+00 0.193786368757D-07 0.000000000000D+00  7 -2 1 -24 -11 11 23 21 2 0.57368476D-02 0.19407622D+00 0.21202621D+05 0.21202621D+05 0.21202621D+05 0.11815848D+01  1  2  4  2  7  2        1 -.307744909708D-02 0.100000000000D+01
-.181144716649D-03 0.000000000000D+00 -.274390067676D-04 0.193786368757D-07 0.000000000000D+00  7 -2 1 -24 -11 11 23 21 2 0.57368476D-02 0.20121526D+00 0.21202621D+05 0.21202621D+05 0.21202621D+05 0.11815848D+01  1  2  5  2  7  2        1 -.359697906920D-01 0.100000000000D+01
0.182035038179D-03 0.000000000000D+00 0.274211130033D-04 0.193786368757D-07 0.000000000000D+00  7 -2 1 -24 -11 11 23 21 2 0.57368476D-02 0.19407622D+00 0.21202621D+05 0.21202621D+05 0.21202621D+05 0.11815848D+01  1  2  6  2  7  2        1 0.388146916447D-01 0.100000000000D+01
0.322353285337D-07 0.000000000000D+00 0.000000000000D+00 0.193786368757D-07 0.191863533815D-08  7 -2 1 -24 -11 11 23 21 2 0.58204749D-02 0.19949166D+00 0.22425110D+05 0.22425110D+05 0.22425110D+05 0.11792471D+01  1  2 11  2  7  2        1 0.635053434026D-05 0.100000000000D+01
0.292368853851D-06 0.000000000000D+00 0.000000000000D+00 0.193786368757D-07 0.000000000000D+00  7 -2 21 -24 -11 11 23 -1 2 0.57368476D-02 0.20087592D+00 0.22425110D+05 0.22425110D+05 0.22425110D+05 0.11792471D+01  1  2 12  4  7  2        1 0.610912774479D-04 0.100000000000D+01
-.115028212109D-05 0.000000000000D+00 -.176183011176D-06 0.193786368757D-07 0.000000000000D+00  7 -2 21 -24 -11 11 23 -1 2 0.57368476D-02 0.20121526D+00 0.21202621D+05 0.21202621D+05 0.21202621D+05 0.11815848D+01  1  2  5  4  7  2        1 -.240523183771D-03 0.100000000000D+01
0.220998489614D-09 0.000000000000D+00 0.000000000000D+00 0.193786368757D-07 0.952297677956D-11  7 -2 21 -24 -11 11 23 -1 2 0.58204749D-02 0.19949166D+00 0.22425110D+05 0.22425110D+05 0.22425110D+05 0.11792471D+01  1  2 11  4  7  2        1 0.462519778810D-07 0.100000000000D+01
  </mgrwgt>
  </event>
  <event>
  9     66 0.26562228E-05 0.38466575E+03 0.75467711E-02 0.94489433E-01
       -2 -1    0    0    0  501 0.00000000E+00 0.00000000E+00 0.17357680E+04 0.17357680E+04 0.32000000E+00 0.0000E+00 0.9000E+01
        1 -1    0    0  502    0 0.00000000E+00 0.00000000E+00 -.46530284E+03 0.46530295E+03 0.32000000E+00 0.0000E+00 0.9000E+01
       25  2    1    2    0    0 -.39374765E+03 -.24913892E+03 0.14984346E+04 0.15977850E+04 0.30083720E+03 0.0000E+00 0.0000E+00
       23  2    3    3    0    0 -.26702153E+03 -.21064231E+03 0.70429843E+03 0.78753250E+03 0.92198000E+02 0.0000E+00 0.0000E+00
      -24  1    1    2    0    0 0.24122486E+03 0.64806909E+02 -.25075205E+03 0.36295065E+03 0.80419002E+02 0.0000E+00 0.9000E+01
      -13  1    4    4    0    0 -.21008669E+03 -.11814282E+03 0.43807295E+03 0.50000207E+03 0.10565837E+00 0.0000E+00 0.9000E+01
       13  1    4    4    0    0 -.56934845E+02 -.92499492E+02 0.26622548E+03 0.28753043E+03 0.10565837E+00 0.0000E+00 0.9000E+01
       23  1    3    3    0    0 -.12672612E+03 -.38496607E+02 0.79413619E+03 0.81025246E+03 0.91188000E+02 0.0000E+00 0.9000E+01
       21  1    1    2  502  501 0.15252280E+03 0.18433201E+03 0.22782599E+02 0.24033540E+03 0.75000000E+00 0.0000E+00 0.9000E+01
#aMCatNLO 2  0  0  2  1 0.23925195D+03 0.00000000D+00  -5  7  0 0.00000000D+00 0.00000000D+00 0.00000000D+00 0.00000000D+00 0.00000000D+00
  <mgrwgt>
 0.2513002478D-03    2    2    0
 0.746748080794922D+03 0.000000000000000D+00 0.000000000000000D+00 0.746748080794922D+03
 0.746748080794922D+03 0.000000000000000D+00 0.000000000000000D+00 -.746748080794922D+03
 0.718614160474055D+03 0.312054210028327D+03 0.150407998510523D+03 -.624450718365441D+03
 0.254420189088496D+03 -.182625984378499D+03 -.849548732293122D+02 0.155435040966321D+03
 0.137845385490903D+03 -.421711832263982D+02 -.746570210933569D+02 0.107931787754522D+03
 0.382616426536390D+03 -.872570424234301D+02 0.920389581214651D+01 0.361083889644597D+03
 0.000000000000000D+00 0.000000000000000D+00 0.000000000000000D+00 -.000000000000000D+00
 0.818289320646437D+03 0.000000000000000D+00 0.000000000000000D+00 0.818289320646437D+03
 0.987006689474989D+03 0.000000000000000D+00 0.000000000000000D+00 -.987006689474989D+03
 0.677344286244677D+03 0.241224855646860D+03 0.648069093922639D+02 -.624450718365441D+03
 0.286800082794725D+03 -.210086889483344D+03 -.118142855890961D+03 0.155435040966321D+03
 0.153124048286912D+03 -.569346435483486D+02 -.924994579438590D+02 0.107931787754522D+03
 0.395269938622355D+03 -.126726117707045D+03 -.384966071823016D+02 0.361083889644597D+03
 0.292757654172757D+03 0.152522795091877D+03 0.184332011624858D+03 -.168717368828553D+03
-.519383210124D-03 0.000000000000D+00 0.000000000000D+00 0.773425883689D-05 0.000000000000D+00  7 -2 1 -24 -13 13 23 21 2 0.24369428D+00 0.73541002D-01 0.25608779D+06 0.25608779D+06 0.25608779D+06 0.10896739D+01  1  2 13  2  7  2        1 -.209457961872D-03 0.100000000000D+01
0.155469970990D-02 0.000000000000D+00 0.000000000000D+00 0.773425883689D-05 0.897104347891D-09  7 -2 1 -24 -13 13 23 21 2 0.26704109D+00 0.71585023D-01 0.25608779D+06 0.25608779D+06 0.25608779D+06 0.10896739D+01  1  2  1  2  7  2        1 0.460758209687D-03 0.100000000000D+01
  </mgrwgt>
  </event>
  <event>
  8     66 0.26562228E-05 0.26154793E+03 0.75467711E-02 0.10140669E+00
       -2 -1    0    0    0  501 0.00000000E+00 0.00000000E+00 0.77752755E+03 0.77752762E+03 0.32000000E+00 0.0000E+00 0.9000E+01
        1 -1    0    0  501    0 0.00000000E+00 0.00000000E+00 -.10814121E+03 0.10814169E+03 0.32000000E+00 0.0000E+00 0.9000E+01
       25  2    1    2    0    0 -.18585349E+03 0.53231400E+02 0.50817832E+03 0.62141499E+03 0.30089249E+03 0.0000E+00 0.0000E+00
       23  2    3    3    0    0 -.43283070E+02 0.12286748E+03 0.14549220E+03 0.21517371E+03 0.90343260E+02 0.0000E+00 0.0000E+00
      -24  1    1    2    0    0 0.18585349E+03 -.53231400E+02 0.16120802E+03 0.26425431E+03 0.80419002E+02 0.0000E+00 0.9000E+01
      -13  1    4    4    0    0 -.37507400E+01 0.42227869E+01 0.67614070E+02 0.67849640E+02 0.10565837E+00 0.0000E+00 0.9000E+01
       13  1    4    4    0    0 -.39532330E+02 0.11864469E+03 0.77878126E+02 0.14732407E+03 0.10565837E+00 0.0000E+00 0.9000E+01
       23  1    3    3    0    0 -.14257042E+03 -.69636075E+02 0.36268612E+03 0.40624128E+03 0.91188000E+02 0.0000E+00 0.9000E+01
#aMCatNLO 1  0  0  2  2 0.49179324D+02 0.00000000D+00  -5  7  0 0.00000000D+00 0.00000000D+00 0.00000000D+00 0.00000000D+00 0.00000000D+00
  <mgrwgt>
 0.8477687820D-03    4    2    0
 0.289970710078797D+03 0.000000000000000D+00 0.000000000000000D+00 0.289970710078797D+03
 0.289970710078797D+03 0.000000000000000D+00 0.000000000000000D+00 -.289970710078797D+03
 0.217490053451154D+03 0.185853489952469D+03 -.532314007013859D+02 -.588184124885332D+02
 0.255755518712806D+02 -.375069164677951D+01 0.422263038569076D+01 0.249441487791662D+02
 0.135099743359480D+03 -.395323804593297D+02 0.118644843090821D+03 -.511129412083747D+02
 0.201776071475679D+03 -.142570417846359D+03 -.696360727751257D+02 0.849872049177417D+02
 0.000000000000000D+00 -.000000000000000D+00 0.000000000000000D+00 0.000000000000000D+00
 0.349471826153683D+03 0.000000000000000D+00 0.000000000000000D+00 0.349471826153683D+03
 0.301354378581462D+03 0.000000000000000D+00 0.000000000000000D+00 -.301354378581462D+03
 0.226024171825070D+03 0.189834120949648D+03 -.715759119427876D+02 -.588184124885332D+02
 0.252499609967546D+02 -.329452226045596D+01 0.212039974905900D+01 0.249441487791662D+02
 0.125041414230465D+03 -.371975602967980D+02 0.107884957346935D+03 -.511129412083747D+02
 0.205707353463676D+03 -.138913170660793D+03 -.864902881384082D+02 0.849872049177417D+02
 0.688033042191788D+02 -.104288677316010D+02 0.480608429852013D+02 0.481174475722213D+02
0.548957819766D-04 0.000000000000D+00 0.000000000000D+00 0.661257758460D-06 0.000000000000D+00  7 -2 1 -24 -13 13 23 21 0 0.11961966D+00 0.16637151D-01 0.68407317D+05 0.68407317D+05 0.68407317D+05 0.11355103D+01  1  2  2  2  7  2        1 0.112395143638D-02 0.100000000000D+01
-.301030261276D-05 0.000000000000D+00 -.210814257182D-06 0.661257758460D-06 0.000000000000D+00  7 -2 1 -24 -13 13 23 21 2 0.11961966D+00 0.16637151D-01 0.68407317D+05 0.68407317D+05 0.68407317D+05 0.11355103D+01  1  2  3  2  7  2        1 -.794695758138D-04 0.100000000000D+01
0.353960968283D-05 0.000000000000D+00 0.000000000000D+00 0.661257758460D-06 0.000000000000D+00  7 -2 1 -24 -13 13 23 21 2 0.11961966D+00 0.16637151D-01 0.68407317D+05 0.68407317D+05 0.68407317D+05 0.11355103D+01  1  2 15  2  7  2        1 0.934428581527D-04 0.100000000000D+01
-.109910889229D-04 0.000000000000D+00 0.000000000000D+00 0.661257758460D-06 0.000000000000D+00  7 -2 1 -24 -13 13 23 21 2 0.11961966D+00 0.16637151D-01 0.68407317D+05 0.68407317D+05 0.68407317D+05 0.11355103D+01  1  2  4  2  7  2        1 -.290155936726D-03 0.100000000000D+01
  </mgrwgt>
  </event>
  <event>
  8     66 0.26562228E-05 0.15959229E+03 0.75467711E-02 0.94425388E-01
       -2 -1    0    0    0  501 0.00000000E+00 0.00000000E+00 0.17771083E+03 0.17771112E+03 0.32000000E+00 0.0000E+00 0.9000E+01
        1 -1    0    0  501    0 0.00000000E+00 0.00000000E+00 -.63102870E+03 0.63102878E+03 0.32000000E+00 0.0000E+00 0.9000E+01
       25  2    1    2    0    0 -.46563127E+02 -.24930487E+03 -.21673847E+03 0.45270890E+03 0.30602082E+03 0.0000E+00 0.0000E+00
       23  2    3    3    0    0 -.51830315E+02 -.25537673E+03 -.23126792E+03 0.36002143E+03 0.90702394E+02 0.0000E+00 0.0000E+00
      -24  1    1    2    0    0 0.46563127E+02 0.24930487E+03 -.23657940E+03 0.35603100E+03 0.80419002E+02 0.0000E+00 0.9000E+01
      -13  1    4    4    0    0 -.46869060E+02 -.43695721E+02 -.49676108E+02 0.81078676E+02 0.10565837E+00 0.0000E+00 0.9000E+01
       13  1    4    4    0    0 -.49612559E+01 -.21168101E+03 -.18159181E+03 0.27894275E+03 0.10565837E+00 0.0000E+00 0.9000E+01
       23  1    3    3    0    0 0.52671889E+01 0.60718621E+01 0.14529453E+02 0.92687470E+02 0.91188000E+02 0.0000E+00 0.9000E+01
#aMCatNLO 1  0  0  2  1 0.31255818D+03 0.00000000D+00  -5  7  0 0.00000000D+00 0.00000000D+00 0.00000000D+00 0.00000000D+00 0.00000000D+00
  <mgrwgt>
 0.9996760231D-03    7    2    0
 0.334874279031237D+03 0.000000000000000D+00 0.000000000000000D+00 0.334874279031237D+03
 0.334874279031237D+03 0.000000000000000D+00 0.000000000000000D+00 -.334874279031237D+03
 0.269789048193335D+03 0.465631334852172D+02 0.249304904021825D+03 -.446973601166930D+02
 0.642813687786000D+02 -.468691152080144D+02 -.436954901591329D+02 -.510730373302401D+01
 0.213921248931250D+03 -.496119593850430D+01 -.211681224453443D+03 -.304753423780047D+02
 0.121756892159289D+03 0.526717766130153D+01 0.607181059075106D+01 0.802800062277217D+02
 0.000000000000000D+00 0.000000000000000D+00 0.000000000000000D+00 -.000000000000000D+00
 0.448793524915156D+03 0.000000000000000D+00 0.000000000000000D+00 0.448793524915156D+03
 0.677732187791024D+03 0.000000000000000D+00 0.000000000000000D+00 -.677732187791024D+03
 0.223813409094518D+03 -.500707346061381D+02 0.197788507428363D+03 -.446973601166930D+02
 0.998311523897874D+02 -.789978606965673D+02 -.608236174640849D+02 -.510730373302401D+01
 0.284585696086526D+03 -.102555228659009D+03 -.263709493569523D+03 -.304753423780047D+02
 0.130860906649163D+03 -.441884818216668D+02 -.202934526242863D+02 0.802800062277217D+02
 0.387434548486186D+03 0.275812305783381D+03 0.147038056229531D+03 -.228938662875869D+03
0.260642512190D-04 0.000000000000D+00 0.000000000000D+00 0.301470783802D-07 0.000000000000D+00  7 -2 1 -24 -13 13 23 21 0 0.27340156D-01 0.97081366D-01 0.10030515D+06 0.10030515D+06 0.10030515D+06 0.11216135D+01  1  2  2  2  7  2        1 0.106968860633D-02 0.100000000000D+01
-.144253824601D-05 0.000000000000D+00 -.100093587556D-06 0.301470783802D-07 0.000000000000D+00  7 -2 1 -24 -13 13 23 21 2 0.27340156D-01 0.97081366D-01 0.10030515D+06 0.10030515D+06 0.10030515D+06 0.11216135D+01  1  2  3  2  7  2        1 -.744776371890D-04 0.100000000000D+01
0.164745962165D-05 0.000000000000D+00 0.000000000000D+00 0.301470783802D-07 0.000000000000D+00  7 -2 1 -24 -13 13 23 21 2 0.27340156D-01 0.97081366D-01 0.10030515D+06 0.10030515D+06 0.10030515D+06 0.11216135D+01  1  2 15  2  7  2        1 0.850576408109D-04 0.100000000000D+01
0.283521621105D-08 0.000000000000D+00 0.000000000000D+00 0.301470783802D-07 0.000000000000D+00  7 -2 1 -24 -13 13 23 21 2 0.27340156D-01 0.19885818D+00 0.25900733D+06 0.25900733D+06 0.25900733D+06 0.10893046D+01  1  2 12  2  7  2        1 0.401095792887D-07 0.100000000000D+01
-.721472535413D-05 0.000000000000D+00 -.806776996983D-05 0.301470783802D-07 0.000000000000D+00  7 -2 1 -24 -13 13 23 21 2 0.27340156D-01 0.23309419D+00 0.10030515D+06 0.10030515D+06 0.10030515D+06 0.11216135D+01  1  2  5  2  7  2        1 -.790138300908D-04 0.100000000000D+01
0.219835248519D-09 0.000000000000D+00 0.000000000000D+00 0.301470783802D-07 0.000000000000D+00  7 -2 21 -24 -13 13 23 -1 2 0.27340156D-01 0.19885818D+00 0.25900733D+06 0.25900733D+06 0.25900733D+06 0.10893046D+01  1  2 12  4  7  2        1 0.297472893292D-08 0.100000000000D+01
-.184555501747D-06 0.000000000000D+00 -.773183490381D-06 0.301470783802D-07 0.000000000000D+00  7 -2 21 -24 -13 13 23 -1 2 0.27340156D-01 0.23309419D+00 0.10030515D+06 0.10030515D+06 0.10030515D+06 0.11216135D+01  1  2  5  4  7  2        1 -.162184102928D-05 0.100000000000D+01
  </mgrwgt>
  </event>
  <event>
  8     66 0.26562228E-05 0.10022647E+03 0.75467711E-02 0.97335764E-01
       -4 -1    0    0    0  501 0.00000000E+00 0.00000000E+00 0.25259638E+03 0.25260113E+03 0.15500000E+01 0.0000E+00 0.9000E+01
        3 -1    0    0  501    0 0.00000000E+00 0.00000000E+00 -.33744449E+03 0.33744486E+03 0.50000000E+00 0.0000E+00 0.9000E+01
       25  2    1    2    0    0 -.12281205E+03 0.14814937E+03 0.18842771E+02 0.35712959E+03 0.30025898E+03 0.0000E+00 0.0000E+00
       23  2    3    3    0    0 -.16369122E+02 0.17494452E+03 -.41109205E+02 0.20234726E+03 0.91547326E+02 0.0000E+00 0.0000E+00
      -24  1    1    2    0    0 0.12281205E+03 -.14814937E+03 -.10369088E+03 0.23291640E+03 0.80419002E+02 0.0000E+00 0.9000E+01
      -13  1    4    4    0    0 -.31701390E+01 -.70436928E+01 0.10208528E+02 0.12801898E+02 0.10565837E+00 0.0000E+00 0.9000E+01
       13  1    4    4    0    0 -.13198983E+02 0.18198821E+03 -.51317733E+02 0.18954536E+03 0.10565837E+00 0.0000E+00 0.9000E+01
       23  1    3    3    0    0 -.10644293E+03 -.26795150E+02 0.59951976E+02 0.15478233E+03 0.91188000E+02 0.0000E+00 0.9000E+01
#aMCatNLO 1  0  0  2  1 0.20772474D+03 0.00000000D+00  -5  7  0 0.00000000D+00 0.00000000D+00 0.00000000D+00 0.00000000D+00 0.00000000D+00
  <mgrwgt>
 0.1511628917D-03    7    2    0
 0.291956789521481D+03 0.000000000000000D+00 0.000000000000000D+00 0.291956789521481D+03
 0.291956789521481D+03 0.000000000000000D+00 0.000000000000000D+00 -.291956789521481D+03
 0.220295296736705D+03 0.122812054332431D+03 -.148149370818962D+03 -.709349353036721D+02
 0.144195150187316D+02 -.317012564727615D+01 -.704394431777513D+01 0.121760241952779D+02
 0.184079293666401D+03 -.131989968391348D+02 0.181988465030089D+03 -.243140172565897D+02
 0.165119473621125D+03 -.106442931846020D+03 -.267951498933521D+02 0.830729283649838D+02
 0.000000000000000D+00 0.000000000000000D+00 0.000000000000000D+00 -.000000000000000D+00
 0.372559715535410D+03 0.000000000000000D+00 0.000000000000000D+00 0.372559715535410D+03
 0.481986675300590D+03 0.000000000000000D+00 0.000000000000000D+00 -.481986675300590D+03
 0.263487986729666D+03 0.879777093324666D+02 -.224024241568983D+03 -.709349353036721D+02
 0.180526275287500D+02 -.550825070253267D+01 -.121367610871203D+02 0.121760241952779D+02
 0.138502405648679D+03 -.364261784897741D+02 0.131395884471123D+03 -.243140172565897D+02
 0.199718735403757D+03 -.132712752397240D+03 -.840150929969797D+02 0.830729283649838D+02
 0.234784635525148D+03 0.866694722570801D+02 0.188780211181960D+03 -.109426959765180D+03
0.213745512031D-04 0.000000000000D+00 0.000000000000D+00 0.321624367396D-05 0.000000000000D+00  7 -4 3 -24 -13 13 23 21 0 0.38861375D-01 0.51914931D-01 0.73292944D+05 0.73292944D+05 0.73292944D+05 0.11329664D+01  1  2  2  2  7  2        3 0.168464664589D-03 0.100000000000D+01
-.117924593777D-05 0.000000000000D+00 -.820839046685D-07 0.321624367396D-05 0.000000000000D+00  7 -4 3 -24 -13 13 23 21 2 0.38861375D-01 0.51914931D-01 0.73292944D+05 0.73292944D+05 0.73292944D+05 0.11329664D+01  1  2  3  2  7  2        3 -.119302691833D-04 0.100000000000D+01
0.138219081785D-05 0.000000000000D+00 0.000000000000D+00 0.321624367396D-05 0.000000000000D+00  7 -4 3 -24 -13 13 23 21 2 0.38861375D-01 0.51914931D-01 0.73292944D+05 0.73292944D+05 0.73292944D+05 0.11329664D+01  1  2 15  2  7  2        3 0.139834346607D-04 0.100000000000D+01
0.116643898923D-05 0.000000000000D+00 0.000000000000D+00 0.321624367396D-05 0.000000000000D+00  7 -4 3 -24 -13 13 23 21 2 0.38861375D-01 0.89086871D-01 0.15712753D+06 0.15712753D+06 0.15712753D+06 0.11059644D+01  1  2 12  2  7  2        3 0.355932924465D-05 0.100000000000D+01
-.865591814175D-05 0.000000000000D+00 -.718873420703D-05 0.321624367396D-05 0.000000000000D+00  7 -4 3 -24 -13 13 23 21 2 0.38861375D-01 0.10401319D+00 0.73292944D+05 0.73292944D+05 0.73292944D+05 0.11329664D+01  1  2  5  2  7  2        3 -.191617021862D-04 0.100000000000D+01
0.699884550148D-07 0.000000000000D+00 0.000000000000D+00 0.321624367396D-05 0.000000000000D+00  7 -4 21 -24 -13 13 23 -3 2 0.38861375D-01 0.89086871D-01 0.15712753D+06 0.15712753D+06 0.15712753D+06 0.11059644D+01  1  2 12  4  7  2        3 0.293185222708D-05 0.100000000000D+01
-.218869537598D-06 0.000000000000D+00 -.540487728109D-06 0.321624367396D-05 0.000000000000D+00  7 -4 21 -24 -13 13 23 -3 2 0.38861375D-01 0.10401319D+00 0.73292944D+05 0.73292944D+05 0.73292944D+05 0.11329664D+01  1  2  5  4  7  2        3 -.668441767362D-05 0.100000000000D+01
  </mgrwgt>
  </event>
  <event>
  8     66 -.26562228E-05 0.18857477E+03 0.75467711E-02 0.10649602E+00
       -2 -1    0    0    0  501 0.00000000E+00 0.00000000E+00 0.95063112E+02 0.95063650E+02 0.32000000E+00 0.0000E+00 0.9000E+01
        1 -1    0    0  501    0 0.00000000E+00 0.00000000E+00 -.77538381E+03 0.77538387E+03 0.32000000E+00 0.0000E+00 0.9000E+01
       25  2    1    2    0    0 -.15191287E+02 -.48341049E+02 -.70818366E+03 0.77139606E+03 0.30159600E+03 0.0000E+00 0.0000E+00
       23  2    3    3    0    0 0.89000343E+02 0.34575973E+02 -.42643341E+03 0.44669684E+03 0.92606982E+02 0.0000E+00 0.0000E+00
      -24  1    1    2    0    0 0.15191287E+02 0.48341049E+02 0.27862964E+02 0.99051466E+02 0.80419002E+02 0.0000E+00 0.9000E+01
      -13  1    4    4    0    0 0.10227502E+03 0.32189703E+02 -.41613653E+03 0.42972780E+03 0.10565837E+00 0.0000E+00 0.9000E+01
       13  1    4    4    0    0 -.13274681E+02 0.23862706E+01 -.10296881E+02 0.16969041E+02 0.10565837E+00 0.0000E+00 0.9000E+01
       23  1    3    3    0    0 -.10419163E+03 -.82917023E+02 -.28175025E+03 0.32469922E+03 0.91188000E+02 0.0000E+00 0.9000E+01
#aMCatNLO 1  0  0  2  1 0.19924826D+02 0.00000000D+00  -5  7  0 0.00000000D+00 0.00000000D+00 0.00000000D+00 0.00000000D+00 0.00000000D+00
  <mgrwgt>
 -.1492018028D-03    4    2    0
 0.271497072919975D+03 0.000000000000000D+00 0.000000000000000D+00 0.271497072919975D+03
 0.271497072919975D+03 0.000000000000000D+00 0.000000000000000D+00 -.271497072919975D+03
 0.193694280678707D+03 0.151912881135875D+02 0.483410523827837D+02 0.168767964475626D+03
 0.167495927938570D+03 0.102275165852736D+03 0.321897362215886D+02 -.128679824400651D+03
 0.143010202289655D+02 -.132748318285682D+02 0.238623058056244D+01 0.475435832988034D+01
 0.167502916993708D+03 -.104191622137756D+03 -.829170191849348D+02 -.448424984048557D+02
 0.000000000000000D+00 -.000000000000000D+00 0.000000000000000D+00 0.000000000000000D+00
 0.287255501557880D+03 0.000000000000000D+00 0.000000000000000D+00 0.287255501557880D+03
 0.278051874788800D+03 0.000000000000000D+00 0.000000000000000D+00 -.278051874788800D+03
 0.192084625526205D+03 0.155856960919183D+02 0.412764782080060D+02 0.168767964475626D+03
 0.166638505271693D+03 0.102616774178577D+03 0.260709011847466D+02 -.128679824400651D+03
 0.141960672469625D+02 -.132456973204887D+02 0.186437781722891D+01 0.475435832988034D+01
 0.170440389258646D+03 -.103846119742302D+03 -.891056041891684D+02 -.448424984048557D+02
 0.219477890431729D+02 -.111065320770463D+01 0.198938469791869D+02 0.920362676908031D+01
0.119086715010D-04 0.000000000000D+00 0.000000000000D+00 0.223809730083D-06 0.000000000000D+00  7 -2 1 -24 -13 13 23 21 0 0.14625141D-01 0.11928986D+00 0.35560442D+05 0.35560442D+05 0.35560442D+05 0.11605458D+01  1  2  2  2  7  2        1 0.101348896244D-02 0.100000000000D+01
-.554745349831D-06 0.000000000000D+00 -.457324341890D-07 0.223809730083D-06 0.000000000000D+00  7 -2 1 -24 -13 13 23 21 2 0.14625141D-01 0.11928986D+00 0.35560442D+05 0.35560442D+05 0.35560442D+05 0.11605458D+01  1  2  3  2  7  2        1 -.635878167431D-04 0.100000000000D+01
0.747756980541D-06 0.000000000000D+00 0.000000000000D+00 0.223809730083D-06 0.000000000000D+00  7 -2 1 -24 -13 13 23 21 2 0.14625141D-01 0.11928986D+00 0.35560442D+05 0.35560442D+05 0.35560442D+05 0.11605458D+01  1  2 15  2  7  2        1 0.857118204982D-04 0.100000000000D+01
-.103364216162D-04 0.000000000000D+00 0.000000000000D+00 0.223809730083D-06 0.000000000000D+00  7 -2 1 -24 -13 13 23 21 2 0.14625141D-01 0.11928986D+00 0.35560442D+05 0.35560442D+05 0.35560442D+05 0.11605458D+01  1  2  4  2  7  2        1 -.118481476900D-02 0.100000000000D+01
  </mgrwgt>
  </event>
  <event>
  7     66 0.26562228E-05 0.31876941E+03 0.75467711E-02 0.86903234E-01
       -2 -1    0    0    0  501 0.00000000E+00 0.00000000E+00 0.74428256E+03 0.74428263E+03 0.32000000E+00 0.0000E+00 0.9000E+01
        1 -1    0    0  501    0 0.00000000E+00 0.00000000E+00 -.63647418E+03 0.63647426E+03 0.32000000E+00 0.0000E+00 0.9000E+01
       23  2    1    2    0    0 -.73698232E+02 -.74330349E+02 -.29672372E+03 0.32763327E+03 0.91335458E+02 0.0000E+00 0.0000E+00
      -24  1    1    2    0    0 0.28351947E+03 0.88593693E+01 0.64846495E+03 0.71234527E+03 0.80419002E+02 0.0000E+00 0.9000E+01
      -13  1    3    3    0    0 -.50484103E+02 -.53316765E+02 -.79718901E+02 0.10838098E+03 0.10565837E+00 0.0000E+00 0.9000E+01
       13  1    3    3    0    0 -.23214129E+02 -.21013584E+02 -.21700482E+03 0.21925229E+03 0.10565837E+00 0.0000E+00 0.9000E+01
       23  1    1    2    0    0 -.20982124E+03 0.65470980E+02 -.24393285E+03 0.34077835E+03 0.91188000E+02 0.0000E+00 0.9000E+01
#aMCatNLO 1  0  0  1  1 0.97211117D+03 0.00000000D+00  -5  7  0 0.00000000D+00 0.00000000D+00 0.00000000D+00 0.00000000D+00 0.00000000D+00
  <mgrwgt>
 0.9003781310D-02    3    2    0
 0.688270833292573D+03 0.000000000000000D+00 0.000000000000000D+00 0.688270833292573D+03
 0.688270833292573D+03 0.000000000000000D+00 0.000000000000000D+00 -.688270833292573D+03
 0.663739942489307D+03 0.283519473201946D+03 0.885936925543615D+01 0.594661008636875D+03
 0.114956145930496D+03 -.504841399956687D+02 -.533168080345768D+02 -.884510320860949D+02
 0.236919294443606D+03 -.232140921937350D+02 -.210135409156665D+02 -.234840986843146D+03
 0.360926283721736D+03 -.209821241012542D+03 0.654709796948072D+02 -.271368989707634D+03
 0.000000000000000D+00 -.000000000000000D+00 0.000000000000000D+00 -.000000000000000D+00
 0.123156190495867D+04 0.000000000000000D+00 0.000000000000000D+00 0.123156190495867D+04
 0.144997389219825D+04 0.000000000000000D+00 0.000000000000000D+00 -.144997389219825D+04
 0.996438302871832D+03 0.773657220780716D+03 -.185080698660229D+03 0.594661008636875D+03
 0.121434050157545D+03 0.193058109231812D+02 -.809316324138345D+02 -.884510320860949D+02
 0.280257630338288D+03 0.129473086861048D+03 -.814295403403528D+02 -.234840986843146D+03
 0.287060534075983D+03 -.185147953200073D+02 -.102260774153515D+02 -.271368989707634D+03
 0.996345279713270D+03 -.903921323244938D+03 0.357667948829768D+03 -.218411987239573D+03
0.394849884859D-02 0.000000000000D+00 0.000000000000D+00 0.936686117915D-08 0.000000000000D+00  7 -2 1 -24 -13 13 23 21 0 0.11450502D+00 0.97919117D-01 0.10161394D+06 0.10161394D+06 0.10161394D+06 0.11211519D+01  1  2  2  1  7  1       -2 0.851295599286D-02 0.100000000000D+01
-.613453368488D-04 0.000000000000D+00 -.151632752422D-04 0.936686117915D-08 0.000000000000D+00  7 -2 1 -24 -13 13 23 21 2 0.11450502D+00 0.97919117D-01 0.10161394D+06 0.10161394D+06 0.10161394D+06 0.11211519D+01  1  2  3  1  7  1       -2 -.166248922101D-03 0.100000000000D+01
0.242458357392D-03 0.000000000000D+00 0.000000000000D+00 0.936686117915D-08 0.000000000000D+00  7 -2 1 -24 -13 13 23 21 2 0.11450502D+00 0.97919117D-01 0.10161394D+06 0.10161394D+06 0.10161394D+06 0.11211519D+01  1  2 15  1  7  1       -2 0.657074239730D-03 0.100000000000D+01
  </mgrwgt>
  </event>
  <event>
  9     66 0.26562228E-05 0.22094162E+03 0.75467711E-02 0.10432817E+00
       -2 -1    0    0    0  501 0.00000000E+00 0.00000000E+00 0.13523595E+04 0.13523595E+04 0.32000000E+00 0.0000E+00 0.9000E+01
        1 -1    0    0  502    0 0.00000000E+00 0.00000000E+00 -.52420607E+02 0.52421584E+02 0.32000000E+00 0.0000E+00 0.9000E+01
       25  2    1    2    0    0 0.11870156E+03 0.75775544E+02 0.98651235E+03 0.10411503E+04 0.30158799E+03 0.0000E+00 0.0000E+00
       23  2    3    3    0    0 0.10293327E+03 0.14070667E+03 0.41733754E+03 0.46085734E+03 0.88460403E+02 0.0000E+00 0.0000E+00
      -24  1    1    2    0    0 -.11859754E+03 -.56867003E+02 0.22207651E+03 0.27034131E+03 0.80419002E+02 0.0000E+00 0.9000E+01
      -13  1    4    4    0    0 0.29291806E+02 0.31090379E+02 0.21525781E+03 0.21945513E+03 0.10565837E+00 0.0000E+00 0.9000E+01
       13  1    4    4    0    0 0.73641465E+02 0.10961629E+03 0.20207973E+03 0.24140221E+03 0.10565837E+00 0.0000E+00 0.9000E+01
       23  1    3    3    0    0 0.15768287E+02 -.64931123E+02 0.56917481E+03 0.58029295E+03 0.91188000E+02 0.0000E+00 0.9000E+01
       21  1    1    2  502  501 -.10402266E+00 -.18908541E+02 0.91349998E+02 0.93289487E+02 0.75000000E+00 0.0000E+00 0.9000E+01
#aMCatNLO 2  0  0  2  2 0.18908827D+02 0.00000000D+00  -5  7  0 0.00000000D+00 0.00000000D+00 0.00000000D+00 0.00000000D+00 0.00000000D+00
  <mgrwgt>
 0.3723402571D-03    2    2    0
 0.254443333823003D+03 0.000000000000000D+00 0.000000000000000D+00 0.254443333823003D+03
 0.254443333823003D+03 0.000000000000000D+00 0.000000000000000D+00 -.254443333823003D+03
 0.171430663675583D+03 -.118632352797184D+03 -.631927481966781D+02 -.696727919566609D+02
 0.531835467908237D+02 0.292807642869745D+02 0.290939547649648D+02 0.335360744297325D+02
 0.138115947435039D+03 0.736128976947110D+02 0.104412127755739D+03 -.524906068395658D+02
 0.146156509744560D+03 0.157386908154984D+02 -.703133343240254D+02 0.886273243664942D+02
 0.000000000000000D+00 -.000000000000000D+00 -.000000000000000D+00 0.000000000000000D+00
 0.273267914289562D+03 0.000000000000000D+00 0.000000000000000D+00 0.273267914289562D+03
 0.259411993991219D+03 0.000000000000000D+00 0.000000000000000D+00 -.259411993991219D+03
 0.169176683819333D+03 -.118597552649630D+03 -.568670111771156D+02 -.696727919566609D+02
 0.543072685623225D+02 0.292917467166328D+02 0.310902670434382D+02 0.335360744297325D+02
 0.142105915945946D+03 0.736415282050778D+02 0.109616389577796D+03 -.524906068395658D+02
 0.143647978109621D+03 0.157683003909031D+02 -.649311046371514D+02 0.886273243664942D+02
 0.234420618435577D+02 -.104022662983587D+00 -.189085408069669D+02 0.138559202983431D+02
-.586028122016D-06 0.000000000000D+00 0.000000000000D+00 0.386202670752D-07 0.000000000000D+00  7 -2 1 -24 -13 13 23 21 2 0.19371866D+00 0.79101366D-02 0.48815200D+05 0.48815200D+05 0.48815200D+05 0.11482126D+01  1  2  8  2  7  2        1 -.112898180168D-04 0.100000000000D+01
0.256381970874D-04 0.000000000000D+00 0.000000000000D+00 0.386202670752D-07 0.756973250395D-09  7 -2 1 -24 -13 13 23 21 2 0.20805062D+00 0.80646024D-02 0.53105488D+05 0.53105488D+05 0.53105488D+05 0.11450006D+01  1  2  1  2  7  2        1 0.383630075099D-03 0.100000000000D+01
  </mgrwgt>
  </event>
  <event>
  9     66 -.26562228E-05 0.27334234E+03 0.75467711E-02 0.10176113E+00
       -2 -1    0    0    0  502 0.00000000E+00 0.00000000E+00 0.10072353E+03 0.10072404E+03 0.32000000E+00 0.0000E+00 0.9000E+01
        1 -1    0    0  501    0 0.00000000E+00 0.00000000E+00 -.14538946E+04 0.14538946E+04 0.32000000E+00 0.0000E+00 0.9000E+01
       25  2    1    2    0    0 0.55333580E+02 0.25110838E+03 -.11521131E+04 0.12178688E+04 0.29953707E+03 0.0000E+00 0.0000E+00
       23  2    3    3    0    0 0.21228092E+02 0.13102619E+03 -.94898068E+03 0.96260232E+03 0.91762759E+02 0.0000E+00 0.0000E+00
      -24  1    1    2    0    0 -.53371783E+02 -.24172195E+03 -.19106052E+03 0.32287674E+03 0.80419002E+02 0.0000E+00 0.9000E+01
      -13  1    4    4    0    0 0.15224288E+02 0.65844813E+02 -.20728582E+03 0.21802463E+03 0.10565837E+00 0.0000E+00 0.9000E+01
       13  1    4    4    0    0 0.60038042E+01 0.65181377E+02 -.74169486E+03 0.74457769E+03 0.10565837E+00 0.0000E+00 0.9000E+01
       23  1    3    3    0    0 0.34105488E+02 0.12008219E+03 -.20313244E+03 0.25526644E+03 0.91188000E+02 0.0000E+00 0.9000E+01
       21  1    1    2  501  502 -.19617972E+01 -.93864302E+01 -.99973697E+01 0.13873126E+02 0.75000000E+00 0.0000E+00 0.9000E+01
#aMCatNLO 2  0  0  1  2 0.95892502D+01 0.00000000D+00  -5  7  0 0.00000000D+00 0.00000000D+00 0.00000000D+00 0.00000000D+00 0.00000000D+00
  <mgrwgt>
 -.3712776622D-03    3    2    0
 0.377388825038819D+03 0.000000000000000D+00 0.000000000000000D+00 0.377388825038819D+03
 0.377388825038819D+03 0.000000000000000D+00 0.000000000000000D+00 -.377388825038819D+03
 0.322236661448034D+03 -.542051778327483D+02 -.245709414519737D+03 0.184547913397287D+03
 0.753222926259118D+02 0.150274248130307D+02 0.649028422499526D+02 -.351460572154256D+02
 0.199206029939256D+03 0.548498935808049D+01 0.626991094425352D+02 -.189002060652826D+03
 0.158012666064437D+03 0.336927636616371D+02 0.118107462827250D+03 0.396002044709642D+02
 0.000000000000000D+00 -.000000000000000D+00 -.000000000000000D+00 0.000000000000000D+00
 0.384809614158370D+03 0.000000000000000D+00 0.000000000000000D+00 0.384809614158370D+03
 0.380529889108302D+03 0.000000000000000D+00 0.000000000000000D+00 -.380529889108302D+03
 0.319066130691408D+03 -.533717832295502D+02 -.241721948146257D+03 0.184547913397287D+03
 0.761745632079162D+02 0.152243000856803D+02 0.658448132279834D+02 -.351460572154256D+02
 0.200016090073317D+03 0.600379196485820D+01 0.651813764755371D+02 -.189002060652826D+03
 0.159581778089733D+03 0.341054883511410D+02 0.120082188622913D+03 0.396002044709642D+02
 0.105009412042968D+02 -.196179717212932D+01 -.938643018017728D+01 0.427972505006810D+01
-.279819899426D-04 0.000000000000D+00 0.000000000000D+00 0.400031322743D-05 0.000000000000D+00  7 -2 1 -24 -13 13 23 21 2 0.15557776D-01 0.22182203D+00 0.77701008D+05 0.77701008D+05 0.77701008D+05 0.11308263D+01  1  2 13  1  7  1       -2 -.894703501676D-03 0.100000000000D+01
-.187711748437D-03 0.000000000000D+00 0.000000000000D+00 0.400031322743D-05 0.000000000000D+00  7 -2 1 -24 -13 13 23 21 2 0.15196609D-01 0.22182203D+00 0.74716037D+05 0.74716037D+05 0.74716037D+05 0.11322603D+01  1  2  8  1  7  1       -2 -.625285660490D-02 0.100000000000D+01
0.214469313966D-03 0.000000000000D+00 0.000000000000D+00 0.400031322743D-05 0.296802196915D-06  7 -2 1 -24 -13 13 23 21 2 0.15495427D-01 0.22366829D+00 0.77701008D+05 0.77701008D+05 0.77701008D+05 0.11308263D+01  1  2  1  1  7  1       -2 0.677628244440D-02 0.100000000000D+01
  </mgrwgt>
  </event>
  <event>
  8     66 0.26562228E-05 0.18895920E+03 0.75467711E-02 0.94426207E-01
       -2 -1    0    0    0  501 0.00000000E+00 0.00000000E+00 0.34043395E+03 0.34043410E+03 0.32000000E+00 0.0000E+00 0.9000E+01
        1 -1    0    0  501    0 0.00000000E+00 0.00000000E+00 -.12244571E+03 0.12244613E+03 0.32000000E+00 0.0000E+00 0.9000E+01
       25  2    1    2    0    0 0.36331554E+02 -.48849543E+02 0.15417149E+03 0.34352340E+03 0.30088738E+03 0.0000E+00 0.0000E+00
       23  2    3    3    0    0 -.58695542E+02 -.11367222E+03 0.10216992E+03 0.18779433E+03 0.91986291E+02 0.0000E+00 0.0000E+00
      -24  1    1    2    0    0 -.36331554E+02 0.48849543E+02 0.63816746E+02 0.11935683E+03 0.80419002E+02 0.0000E+00 0.9000E+01
      -11  1    4    4    0    0 -.57143453E+02 -.90438190E+02 0.11827741E+03 0.15948037E+03 0.51099893E-03 0.0000E+00 0.9000E+01
       11  1    4    4    0    0 -.15520887E+01 -.23234029E+02 -.16107496E+02 0.28313963E+02 0.51099893E-03 0.0000E+00 0.9000E+01
       23  1    3    3    0    0 0.95027096E+02 0.64822676E+02 0.52001572E+02 0.15572907E+03 0.91188000E+02 0.0000E+00 0.9000E+01
#aMCatNLO 1  0  0  1  2 0.43858969D+03 0.00000000D+00  -5  7  0 0.00000000D+00 0.00000000D+00 0.00000000D+00 0.00000000D+00 0.00000000D+00
  <mgrwgt>
 0.3341082088D-02    5    2    0
 0.204168578242441D+03 0.000000000000000D+00 0.000000000000000D+00 0.204168578242441D+03
 0.204168578242441D+03 0.000000000000000D+00 0.000000000000000D+00 -.204168578242441D+03
 0.101231582490631D+03 -.363315543624438D+02 0.488495437758730D+02 0.862308353692653D+01
 0.117641077119829D+03 -.571434527549442D+02 -.904381898590692D+02 0.489385599315290D+02
 0.406948469588849D+02 -.155208848784294D+01 -.232340287215295D+02 -.333742640323364D+02
 0.148769649915538D+03 0.950270956052309D+02 0.648226748047258D+02 -.241873794361191D+02
 0.000000000000000D+00 0.000000000000000D+00 -.000000000000000D+00 0.000000000000000D+00
 0.542934480788050D+03 0.000000000000000D+00 0.000000000000000D+00 0.542934480788050D+03
 0.497275135838106D+03 0.000000000000000D+00 0.000000000000000D+00 -.497275135838106D+03
 0.202321445500364D+03 -.161517449590048D+03 0.911290692546991D+02 0.862308353692653D+01
 0.199710577970547D+03 -.188019930276457D+03 -.462367616079922D+02 0.489385599315290D+02
 0.533154421335384D+02 -.403221257315170D+02 -.101400713353663D+02 -.333742640323364D+02
 0.143902187628898D+03 -.256713742252040D+02 0.105586644429044D+03 -.241873794361191D+02
 0.440959963392808D+03 0.415530879823226D+03 -.140338880740385D+03 0.456593449499443D+02
0.294440583268D-04 0.000000000000D+00 0.000000000000D+00 0.175324573167D-06 0.000000000000D+00  7 -2 1 -24 -11 11 23 21 0 0.52374497D-01 0.18837845D-01 0.35705581D+05 0.35705581D+05 0.35705581D+05 0.11603846D+01  1  2  2  1  7  1       -2 0.320448238250D-02 0.100000000000D+01
-.162386158861D-05 0.000000000000D+00 -.113072936774D-06 0.175324573167D-06 0.000000000000D+00  7 -2 1 -24 -11 11 23 21 2 0.52374497D-01 0.18837845D-01 0.35705581D+05 0.35705581D+05 0.35705581D+05 0.11603846D+01  1  2  3  1  7  1       -2 -.237965026312D-03 0.100000000000D+01
0.187815278015D-05 0.000000000000D+00 0.000000000000D+00 0.175324573167D-06 0.000000000000D+00  7 -2 1 -24 -11 11 23 21 2 0.52374497D-01 0.18837845D-01 0.35705581D+05 0.35705581D+05 0.35705581D+05 0.11603846D+01  1  2 15  1  7  1       -2 0.275229538577D-03 0.100000000000D+01
0.189158367134D-04 0.000000000000D+00 -.118357238856D-04 0.175324573167D-06 0.000000000000D+00  7 -2 1 -24 -11 11 23 21 2 0.26694562D+00 0.18837845D-01 0.35705581D+05 0.35705581D+05 0.35705581D+05 0.11603846D+01  1  2  5  1  7  1       -2 0.408020418905D-04 0.100000000000D+01
0.337902465684D-05 0.000000000000D+00 -.235180358777D-05 0.175324573167D-06 0.000000000000D+00  7 21 1 -24 -11 11 23 2 2 0.26694562D+00 0.18837845D-01 0.35705581D+05 0.35705581D+05 0.35705581D+05 0.11603846D+01  1  2  5  3  7  1       -2 0.585331517361D-04 0.100000000000D+01
  </mgrwgt>
  </event>
  <event>
  9     66 0.26562228E-05 0.32740235E+03 0.75467711E-02 0.94262956E-01
       21 -1    0    0  502  501 0.00000000E+00 0.00000000E+00 0.42126184E+03 0.42126251E+03 0.75000000E+00 0.0000E+00 0.9000E+01
        1 -1    0    0  501    0 0.00000000E+00 0.00000000E+00 -.10430384E+04 0.10430384E+04 0.32000000E+00 0.0000E+00 0.9000E+01
       25  2    1    2    0    0 0.17300259E+03 0.43876829E+03 -.26171849E+03 0.61769395E+03 0.30100123E+03 0.0000E+00 0.0000E+00
       23  2    3    3    0    0 0.51868314E+02 0.16998525E+03 -.23471967E+03 0.30791658E+03 0.90188620E+02 0.0000E+00 0.0000E+00
      -24  1    1    2    0    0 -.15228630E+03 -.13123563E+03 -.47150890E+03 0.51884657E+03 0.80419002E+02 0.0000E+00 0.9000E+01
      -11  1    4    4    0    0 0.62534028E+02 0.17617809E+03 -.22113529E+03 0.28956872E+03 0.51099893E-03 0.0000E+00 0.9000E+01
       11  1    4    4    0    0 -.10665714E+02 -.61928370E+01 -.13584375E+02 0.18347859E+02 0.51099893E-03 0.0000E+00 0.9000E+01
       23  1    3    3    0    0 0.12113427E+03 0.26878304E+03 -.26998824E+02 0.30977737E+03 0.91188000E+02 0.0000E+00 0.9000E+01
        2  1    1    2  502    0 -.20716290E+02 -.30753267E+03 0.11145084E+03 0.32776043E+03 0.32000000E+00 0.0000E+00 0.9000E+01
#aMCatNLO 2  0  0  1  2 0.30822963D+03 0.00000000D+00  -5  7  0 0.00000000D+00 0.00000000D+00 0.00000000D+00 0.00000000D+00 0.00000000D+00
  <mgrwgt>
 0.2207916163D-03    2    2    0
 0.405923774513249D+03 0.000000000000000D+00 0.000000000000000D+00 0.405923774513249D+03
 0.405923774513249D+03 0.000000000000000D+00 0.000000000000000D+00 -.405923774513249D+03
 0.354107073827287D+03 -.160116049325240D+03 -.247468079165640D+03 -.179016771065448D+03
 0.137326443600657D+03 0.584703276437046D+02 0.115852582250779D+03 -.449216215543084D+02
 0.160351572192413D+02 -.110180710051370D+02 -.114235654445517D+02 -.228703539666370D+01
 0.304378874379313D+03 0.112663792686673D+03 0.143039062359412D+03 0.226225428016420D+03
 0.000000000000000D+00 -.000000000000000D+00 -.000000000000000D+00 0.000000000000000D+00
 0.907037249322259D+03 0.000000000000000D+00 0.000000000000000D+00 0.907037249322259D+03
 0.484426320624296D+03 0.000000000000000D+00 0.000000000000000D+00 -.484426320624296D+03
 0.280941498659714D+03 -.152286295075814D+03 -.131235626733670D+03 -.179016771065448D+03
 0.192268502108488D+03 0.625340284983484D+02 0.176178091997107D+03 -.449216215543084D+02
 0.125434930091344D+02 -.106657140079514D+02 -.619283704494159D+01 -.228703539666370D+01
 0.382636942195992D+03 0.121134270760795D+03 0.268783039560045D+03 0.226225428016420D+03
 0.523073133973226D+03 -.207162901753784D+02 -.307532667778541D+03 0.422610928697964D+03
-.159821982400D-07 0.000000000000D+00 0.000000000000D+00 0.113713629092D-05 0.000000000000D+00  7 21 1 -24 -11 11 23 2 2 0.64364430D-01 0.13446331D+00 0.26658069D+06 0.26658069D+06 0.26658069D+06 0.10883672D+01  1  2 13  3  7  1       -2 -.899983310429D-06 0.100000000000D+01
0.542416106966D-05 0.000000000000D+00 0.000000000000D+00 0.113713629092D-05 0.120457735954D-10  7 21 1 -24 -11 11 23 2 2 0.64809564D-01 0.16046748D+00 0.26658069D+06 0.26658069D+06 0.26658069D+06 0.10883672D+01  1  2  1  3  7  1       -2 0.221691599620D-03 0.100000000000D+01
  </mgrwgt>
  </event>
  <event>
  8     66 0.26562228E-05 0.67237250E+02 0.75467711E-02 0.10288802E+00
       -4 -1    0    0    0  501 0.00000000E+00 0.00000000E+00 0.34469087E+03 0.34469436E+03 0.15500000E+01 0.0000E+00 0.9000E+01
        3 -1    0    0  501    0 0.00000000E+00 0.00000000E+00 -.10510141E+03 0.10510260E+03 0.50000000E+00 0.0000E+00 0.9000E+01
       25  2    1    2    0    0 -.39230993E+00 -.78012169E+01 0.18116313E+03 0.35008805E+03 0.29946711E+03 0.0000E+00 0.0000E+00
       23  2    3    3    0    0 -.29811727E+02 -.10215592E+03 0.15900831E+03 0.21380012E+03 0.95405851E+02 0.0000E+00 0.0000E+00
      -24  1    1    2    0    0 0.39230993E+00 0.78012169E+01 0.58426338E+02 0.99708905E+02 0.80419002E+02 0.0000E+00 0.9000E+01
      -11  1    4    4    0    0 -.13472342E+02 -.18545604E+01 -.98003789E+01 0.16762781E+02 0.51099893E-03 0.0000E+00 0.9000E+01
       11  1    4    4    0    0 -.16339385E+02 -.10030136E+03 0.16880869E+03 0.19703734E+03 0.51099893E-03 0.0000E+00 0.9000E+01
       23  1    3    3    0    0 0.29419417E+02 0.94354703E+02 0.22154814E+02 0.13628793E+03 0.91188000E+02 0.0000E+00 0.9000E+01
#aMCatNLO 1  0  0  2  1 0.15358429D+03 0.00000000D+00  -5  7  0 0.00000000D+00 0.00000000D+00 0.00000000D+00 0.00000000D+00 0.00000000D+00
  <mgrwgt>
 0.6535915413D-04    7    2    0
 0.190337979877608D+03 0.000000000000000D+00 0.000000000000000D+00 0.190337979877608D+03
 0.190337979877608D+03 0.000000000000000D+00 0.000000000000000D+00 -.190337979877608D+03
 0.810416787581386D+02 0.392469661281798D+00 0.780439313369532D+01 0.628292582691317D+01
 0.259750022554684D+02 -.134723692813015D+02 -.185505483794312D+01 -.221304039653156D+02
 0.126569562345538D+03 -.163393355972496D+02 -.100302138148136D+03 0.754477389157136D+02
 0.147089716396071D+03 0.294192352172693D+02 0.943527998523843D+02 -.596002607773111D+02
 0.000000000000000D+00 0.000000000000000D+00 -.000000000000000D+00 -.000000000000000D+00
 0.242717050142968D+03 0.000000000000000D+00 0.000000000000000D+00 0.242717050142968D+03
 0.362617401834496D+03 0.000000000000000D+00 0.000000000000000D+00 -.362617401834496D+03
 0.900392857810600D+02 -.161662002122789D+02 0.365928386893239D+02 0.628292582691317D+01
 0.300706584220277D+02 -.188969446892313D+02 0.757596196389195D+01 -.221304039653156D+02
 0.104690875000103D+03 -.387226863524667D+02 -.613870634779184D+02 0.754477389157136D+02
 0.185689521407029D+03 -.278996791879395D+01 0.150350829763790D+03 -.596002607773111D+02
 0.194844111367245D+03 0.765757991727709D+02 -.133132566939087D+03 -.119900351691528D+03
0.219495928356D-05 0.000000000000D+00 0.000000000000D+00 0.332514315652D-07 0.000000000000D+00  7 -4 3 -24 -11 11 23 21 0 0.53029724D-01 0.16169807D-01 0.27306783D+05 0.27306783D+05 0.27306783D+05 0.11711452D+01  1  2  2  2  7  2        3 0.725674498101D-04 0.100000000000D+01
-.118979639181D-06 0.000000000000D+00 -.842922159491D-08 0.332514315652D-07 0.000000000000D+00  7 -4 3 -24 -11 11 23 21 2 0.53029724D-01 0.16169807D-01 0.27306783D+05 0.27306783D+05 0.27306783D+05 0.11711452D+01  1  2  3  2  7  2        3 -.539522445828D-05 0.100000000000D+01
0.141598889141D-06 0.000000000000D+00 0.000000000000D+00 0.332514315652D-07 0.000000000000D+00  7 -4 3 -24 -11 11 23 21 2 0.53029724D-01 0.16169807D-01 0.27306783D+05 0.27306783D+05 0.27306783D+05 0.11711452D+01  1  2 15  2  7  2        3 0.642091197466D-05 0.100000000000D+01
0.906061647455D-08 0.000000000000D+00 0.000000000000D+00 0.332514315652D-07 0.000000000000D+00  7 -4 3 -24 -11 11 23 21 2 0.53029724D-01 0.31332816D-01 0.65589154D+05 0.65589154D+05 0.65589154D+05 0.11370704D+01  1  2 12  2  7  2        3 0.124409981447D-06 0.100000000000D+01
-.643872538761D-06 0.000000000000D+00 -.740426001975D-06 0.332514315652D-07 0.000000000000D+00  7 -4 3 -24 -11 11 23 21 2 0.53029724D-01 0.38448454D-01 0.27306783D+05 0.27306783D+05 0.27306783D+05 0.11711452D+01  1  2  5  2  7  2        3 -.621212112480D-05 0.100000000000D+01
0.649902523591D-09 0.000000000000D+00 0.000000000000D+00 0.332514315652D-07 0.000000000000D+00  7 -4 21 -24 -11 11 23 -3 2 0.53029724D-01 0.31332816D-01 0.65589154D+05 0.65589154D+05 0.65589154D+05 0.11370704D+01  1  2 12  4  7  2        3 0.145898999293D-06 0.100000000000D+01
-.143057722354D-07 0.000000000000D+00 -.700796619966D-07 0.332514315652D-07 0.000000000000D+00  7 -4 21 -24 -11 11 23 -3 2 0.53029724D-01 0.38448454D-01 0.27306783D+05 0.27306783D+05 0.27306783D+05 0.11711452D+01  1  2  5  4  7  2        3 -.229217104855D-05 0.100000000000D+01
  </mgrwgt>
  </event>
  <event>
  8     66 0.26562228E-05 0.17323588E+03 0.75467711E-02 0.95175107E-01
       -2 -1    0    0    0  501 0.00000000E+00 0.00000000E+00 0.38308248E+02 0.38309585E+02 0.32000000E+00 0.0000E+00 0.9000E+01
        1 -1    0    0  501    0 0.00000000E+00 0.00000000E+00 -.20009300E+04 0.20009300E+04 0.32000000E+00 0.0000E+00 0.9000E+01
       25  2    1    2    0    0 0.84301484E+02 -.48198904E+02 -.67515268E+03 0.74561149E+03 0.30112370E+03 0.0000E+00 0.0000E+00
       23  2    3    3    0    0 0.89112941E+02 -.22483637E+02 -.10019962E+03 0.16288455E+03 0.89692707E+02 0.0000E+00 0.0000E+00
      -24  1    1    2    0    0 -.84301484E+02 0.48198904E+02 -.12874691E+04 0.12936281E+04 0.80419002E+02 0.0000E+00 0.9000E+01
      -13  1    4    4    0    0 0.83356657E+02 0.17459479E+02 -.51065619E+02 0.99301935E+02 0.10565837E+00 0.0000E+00 0.9000E+01
       13  1    4    4    0    0 0.57562839E+01 -.39943115E+02 -.49134006E+02 0.63582615E+02 0.10565837E+00 0.0000E+00 0.9000E+01
       23  1    3    3    0    0 -.48114569E+01 -.25715267E+02 -.57495305E+03 0.58272694E+03 0.91188000E+02 0.0000E+00 0.9000E+01
#aMCatNLO 1  0  0  2  1 0.42231549D+03 0.00000000D+00  -5  7  0 0.00000000D+00 0.00000000D+00 0.00000000D+00 0.00000000D+00 0.00000000D+00
  <mgrwgt>
 0.1496912670D-02    3    2    0
 0.276863704839963D+03 0.000000000000000D+00 0.000000000000000D+00 0.276863704839963D+03
 0.276863704839963D+03 0.000000000000000D+00 0.000000000000000D+00 -.276863704839963D+03
 0.200826053449542D+03 -.843014861717924D+02 0.481989051475053D+02 -.156313827800219D+03
 0.184708280953297D+03 0.833567641612556D+02 0.174595571833542D+02 0.163902296458129D+03
 0.600089900659675D+02 0.575617656551244D+01 -.399431949285735D+02 0.444126839875954D+02
 0.108184085211119D+03 -.481145455497565D+01 -.257152674022860D+02 -.520011526455048D+02
 0.000000000000000D+00 -.000000000000000D+00 0.000000000000000D+00 0.000000000000000D+00
 0.635583855525423D+03 0.000000000000000D+00 0.000000000000000D+00 0.635583855525423D+03
 0.503345234426152D+03 0.000000000000000D+00 0.000000000000000D+00 -.503345234426152D+03
 0.178570127989817D+03 0.295022744858368D+02 -.107553565508064D+02 -.156313827800219D+03
 0.282622390124593D+03 0.223537373353334D+03 -.551588191478193D+02 0.163902296458129D+03
 0.933809406394543D+02 0.517670533620684D+02 -.637784114096301D+02 0.444126839875954D+02
 0.141820406875633D+03 0.701799469737203D+02 -.645633923262626D+02 -.520011526455048D+02
 0.442535224322077D+03 -.374986648174959D+03 0.194255979434518D+03 0.132238621099271D+03
0.298968129407D-04 0.000000000000D+00 0.000000000000D+00 0.281545320421D-06 0.000000000000D+00  7 -2 1 -24 -13 13 23 21 0 0.58936814D-02 0.30783549D+00 0.30010669D+05 0.30010669D+05 0.30010669D+05 0.11673216D+01  1  2  2  2  7  2        1 0.145670279838D-02 0.100000000000D+01
-.121697689711D-05 0.000000000000D+00 -.114811633704D-06 0.281545320421D-06 0.000000000000D+00  7 -2 1 -24 -13 13 23 21 2 0.58936814D-02 0.30783549D+00 0.30010669D+05 0.30010669D+05 0.30010669D+05 0.11673216D+01  1  2  3  2  7  2        1 -.807996408991D-04 0.100000000000D+01
0.182260440227D-05 0.000000000000D+00 0.000000000000D+00 0.281545320421D-06 0.000000000000D+00  7 -2 1 -24 -13 13 23 21 2 0.58936814D-02 0.30783549D+00 0.30010669D+05 0.30010669D+05 0.30010669D+05 0.11673216D+01  1  2 15  2  7  2        1 0.121009512633D-03 0.100000000000D+01
  </mgrwgt>
  </event>
  <event>
  8     66 0.26562228E-05 0.17029636E+03 0.75467711E-02 0.88880937E-01
       -2 -1    0    0    0  501 0.00000000E+00 0.00000000E+00 0.51123498E+03 0.51123508E+03 0.32000000E+00 0.0000E+00 0.9000E+01
        1 -1    0    0  501    0 0.00000000E+00 0.00000000E+00 -.13050226E+04 0.13050226E+04 0.32000000E+00 0.0000E+00 0.9000E+01
       25  2    1    2    0    0 -.75516758E+03 -.10247279E+03 -.62090794E+03 0.10306794E+04 0.30982984E+03 0.0000E+00 0.0000E+00
       23  2    3    3    0    0 -.55052706E+03 -.15172226E+03 -.35103209E+03 0.67648806E+03 0.91175002E+02 0.0000E+00 0.0000E+00
      -24  1    1    2    0    0 0.75516758E+03 0.10247279E+03 -.17287968E+03 0.78557835E+03 0.80419002E+02 0.0000E+00 0.9000E+01
      -13  1    4    4    0    0 -.50833602E+03 -.15091765E+03 -.29648598E+03 0.60752415E+03 0.10565837E+00 0.0000E+00 0.9000E+01
       13  1    4    4    0    0 -.42191038E+02 -.80460541E+00 -.54546116E+02 0.68963910E+02 0.10565837E+00 0.0000E+00 0.9000E+01
       23  1    3    3    0    0 -.20464052E+03 0.49249467E+02 -.26987584E+03 0.35419130E+03 0.91188000E+02 0.0000E+00 0.9000E+01
#aMCatNLO 1  0  0  2  1 0.14033498D+03 0.00000000D+00  -5  7  0 0.00000000D+00 0.00000000D+00 0.00000000D+00 0.00000000D+00 0.00000000D+00
  <mgrwgt>
 0.2482909774D-02    9    2    0
 0.816806783186303D+03 0.000000000000000D+00 0.000000000000000D+00 0.816806783186303D+03
 0.816806783186303D+03 0.000000000000000D+00 0.000000000000000D+00 -.816806783186303D+03
 0.789405166196508D+03 0.755167580142448D+03 0.102472790474914D+03 0.189511354745431D+03
 0.531383057310574D+03 -.508336641754839D+03 -.150917850322874D+03 -.344327562078304D+02
 0.501692383468539D+02 -.421904122568264D+02 -.804403635083933D+00 -.271343790180342D+02
 0.262656104518669D+03 -.204640526130783D+03 0.492494634830439D+02 -.127944219519566D+03
 0.000000000000000D+00 0.000000000000000D+00 -.000000000000000D+00 -.000000000000000D+00
 0.837245190853764D+03 0.000000000000000D+00 0.000000000000000D+00 0.837245190853764D+03
 0.110228505398433D+04 0.000000000000000D+00 0.000000000000000D+00 -.110228505398433D+04
 0.785458650868468D+03 0.739133931893021D+03 0.168061159750425D+03 0.189511354745431D+03
 0.531116234786202D+03 -.519153919877651D+03 -.106667931587115D+03 -.344327562078304D+02
 0.511475483392357D+02 -.432219158712243D+02 0.341513760204976D+01 -.271343790180342D+02
 0.271907765833424D+03 -.210082907225074D+03 0.715124503839316D+02 -.127944219519566D+03
 0.299900045010761D+03 0.333248110809279D+02 -.136320816149292D+03 -.265039863130564D+03
0.129405789258D-02 0.000000000000D+00 0.000000000000D+00 0.152211165762D-06 0.000000000000D+00  7 -2 1 -24 -13 13 23 21 0 0.78651546D-01 0.20077272D+00 0.61479036D+06 0.61479036D+06 0.61479036D+06 0.10622241D+01  1  2  2  2  7  2        1 0.182299846559D-02 0.100000000000D+01
-.717459967435D-04 0.000000000000D+00 -.496952304077D-05 0.152211165762D-06 0.000000000000D+00  7 -2 1 -24 -13 13 23 21 2 0.78651546D-01 0.20077272D+00 0.61479036D+06 0.61479036D+06 0.61479036D+06 0.10622241D+01  1  2  3  2  7  2        1 -.114041404973D-03 0.100000000000D+01
0.829994113673D-04 0.000000000000D+00 0.000000000000D+00 0.152211165762D-06 0.000000000000D+00  7 -2 1 -24 -13 13 23 21 2 0.78651546D-01 0.20077272D+00 0.61479036D+06 0.61479036D+06 0.61479036D+06 0.10622241D+01  1  2 15  2  7  2        1 0.131928886821D-03 0.100000000000D+01
0.392690466394D-02 0.000000000000D+00 0.000000000000D+00 0.152211165762D-06 0.000000000000D+00  7 -2 1 -24 -13 13 23 21 2 0.78651546D-01 0.27281017D+00 0.73605200D+06 0.73605200D+06 0.73605200D+06 0.10568400D+01  1  2 12  2  7  2        1 0.293390978227D-02 0.100000000000D+01
-.389166621635D-02 0.000000000000D+00 0.000000000000D+00 0.152211165762D-06 0.000000000000D+00  7 -2 1 -24 -13 13 23 21 2 0.78651546D-01 0.20077272D+00 0.61479036D+06 0.61479036D+06 0.61479036D+06 0.10622241D+01  1  2  4  2  7  2        1 -.618586545788D-02 0.100000000000D+01
-.474300067269D-02 0.000000000000D+00 -.579916424797D-03 0.152211165762D-06 0.000000000000D+00  7 -2 1 -24 -13 13 23 21 2 0.78651546D-01 0.27330072D+00 0.61479036D+06 0.61479036D+06 0.61479036D+06 0.10622241D+01  1  2  5  2  7  2        1 -.360173232884D-02 0.100000000000D+01
0.472203040554D-02 0.000000000000D+00 0.553390665544D-03 0.152211165762D-06 0.000000000000D+00  7 -2 1 -24 -13 13 23 21 2 0.78651546D-01 0.20077272D+00 0.61479036D+06 0.61479036D+06 0.61479036D+06 0.10622241D+01  1  2  6  2  7  2        1 0.750574256703D-02 0.100000000000D+01
0.154200518912D-03 0.000000000000D+00 0.000000000000D+00 0.152211165762D-06 0.000000000000D+00  7 -2 21 -24 -13 13 23 -1 2 0.78651546D-01 0.27281017D+00 0.73605200D+06 0.73605200D+06 0.73605200D+06 0.10568400D+01  1  2 12  4  7  2        1 0.673456847964D-04 0.100000000000D+01
-.173464675513D-03 0.000000000000D+00 -.228681780174D-04 0.152211165762D-06 0.000000000000D+00  7 -2 21 -24 -13 13 23 -1 2 0.78651546D-01 0.27330072D+00 0.61479036D+06 0.61479036D+06 0.61479036D+06 0.10622241D+01  1  2  5  4  7  2        1 -.773764209686D-04 0.100000000000D+01
  </mgrwgt>
  </event>
  <event>
  8     66 0.26562228E-05 0.44972002E+03 0.75467711E-02 0.90324771E-01
       -2 -1    0    0    0  501 0.00000000E+00 0.00000000E+00 0.11042939E+03 0.11042985E+03 0.32000000E+00 0.0000E+00 0.9000E+01
        1 -1    0    0  501    0 0.00000000E+00 0.00000000E+00 -.21614504E+04 0.21614504E+04 0.32000000E+00 0.0000E+00 0.9000E+01
       25  2    1    2    0    0 -.42281508E+03 0.15138568E+02 -.13827369E+04 0.14768503E+04 0.30020618E+03 0.0000E+00 0.0000E+00
       23  2    3    3    0    0 -.34541247E+03 0.27273176E+02 -.73148281E+03 0.81459239E+03 0.91869832E+02 0.0000E+00 0.0000E+00
      -24  1    1    2    0    0 0.42281508E+03 -.15138568E+02 -.66828409E+03 0.79502994E+03 0.80419002E+02 0.0000E+00 0.9000E+01
      -11  1    4    4    0    0 -.21893202E+03 -.10862218E+01 -.54643570E+03 0.58866322E+03 0.51099893E-03 0.0000E+00 0.9000E+01
       11  1    4    4    0    0 -.12648045E+03 0.28359398E+02 -.18504711E+03 0.22592917E+03 0.51099893E-03 0.0000E+00 0.9000E+01
       23  1    3    3    0    0 -.77402612E+02 -.12134608E+02 -.65125411E+03 0.66225794E+03 0.91188000E+02 0.0000E+00 0.9000E+01
#aMCatNLO 1  0  0  2  1 0.48481830D+03 0.00000000D+00  -5  7  0 0.00000000D+00 0.00000000D+00 0.00000000D+00 0.00000000D+00 0.00000000D+00
  <mgrwgt>
 0.8240631440D-03    5    2    0
 0.488557263957977D+03 0.000000000000000D+00 0.000000000000000D+00 0.488557263957977D+03
 0.488557263957977D+03 0.000000000000000D+00 0.000000000000000D+00 -.488557263957977D+03
 0.445749316937479D+03 0.422815079085228D+03 -.151385678487914D+02 0.114993348753302D+03
 0.221694840055948D+03 -.218932017596919D+03 -.108622180661326D+01 -.348739716774802D+02
 0.136881116767831D+03 -.126480449158957D+03 0.283593981408602D+02 0.439872782204716D+02
 0.172789254154696D+03 -.774026123293520D+02 -.121346084854555D+02 -.124106655296294D+03
 0.000000000000000D+00 -.000000000000000D+00 -.000000000000000D+00 -.000000000000000D+00
 0.701263005985988D+03 0.000000000000000D+00 0.000000000000000D+00 0.701263005985988D+03
 0.922378076436989D+03 0.000000000000000D+00 0.000000000000000D+00 -.922378076436989D+03
 0.698893530457860D+03 0.682701267237225D+03 0.517731630931431D+02 0.114993348753302D+03
 0.142152260462610D+03 -.136322113346789D+03 0.201829796297124D+02 -.348739716774802D+02
 0.955383980334701D+02 -.737106075517741D+02 0.419458125193081D+02 0.439872782204716D+02
 0.154196073125180D+03 -.316201362926657D+01 0.697978539792746D+01 -.124106655296294D+03
 0.532860820343857D+03 -.469506532709396D+03 -.120881740640091D+03 -.221115070451001D+03
0.116078236529D-03 0.000000000000D+00 0.000000000000D+00 0.639226823095D-05 0.000000000000D+00  7 -2 1 -24 -11 11 23 21 0 0.16989174D-01 0.33253087D+00 0.20224809D+06 0.20224809D+06 0.20224809D+06 0.10974527D+01  1  2  2  2  7  2        1 0.818787881986D-03 0.100000000000D+01
-.639499483507D-05 0.000000000000D+00 -.445770992374D-06 0.639226823095D-05 0.000000000000D+00  7 -2 1 -24 -11 11 23 21 2 0.16989174D-01 0.33253087D+00 0.20224809D+06 0.20224809D+06 0.20224809D+06 0.10974527D+01  1  2  3  2  7  2        1 -.543290936939D-04 0.100000000000D+01
0.746495626588D-05 0.000000000000D+00 0.000000000000D+00 0.639226823095D-05 0.000000000000D+00  7 -2 1 -24 -11 11 23 21 2 0.16989174D-01 0.33253087D+00 0.20224809D+06 0.20224809D+06 0.20224809D+06 0.10974527D+01  1  2 15  2  7  2        1 0.634190204760D-04 0.100000000000D+01
-.274904117716D-04 0.000000000000D+00 -.273560066328D-04 0.639226823095D-05 0.000000000000D+00  7 -2 1 -24 -11 11 23 21 2 0.16989174D-01 0.67452804D+00 0.20224809D+06 0.20224809D+06 0.20224809D+06 0.10974527D+01  1  2  5  2  7  2        1 -.381095274657D-05 0.100000000000D+01
-.443860425506D-06 0.000000000000D+00 -.209256815553D-05 0.639226823095D-05 0.000000000000D+00  7 -2 21 -24 -11 11 23 -1 2 0.16989174D-01 0.67452804D+00 0.20224809D+06 0.20224809D+06 0.20224809D+06 0.10974527D+01  1  2  5  4  7  2        1 -.371200861847D-08 0.100000000000D+01
  </mgrwgt>
  </event>
  <event>
  8     66 0.26562228E-05 0.21081148E+03 0.75467711E-02 0.10429179E+00
       -2 -1    0    0    0  501 0.00000000E+00 0.00000000E+00 0.14686769E+03 0.14686804E+03 0.32000000E+00 0.0000E+00 0.9000E+01
        1 -1    0    0  501    0 0.00000000E+00 0.00000000E+00 -.37852088E+03 0.37852101E+03 0.32000000E+00 0.0000E+00 0.9000E+01
       25  2    1    2    0    0 -.53695468E+02 -.10589908E+03 -.12435313E+03 0.34628479E+03 0.30058549E+03 0.0000E+00 0.0000E+00
       23  2    3    3    0    0 0.58743740E+02 -.11347623E+03 -.19503168E+01 0.15655422E+03 0.90430847E+02 0.0000E+00 0.0000E+00
      -24  1    1    2    0    0 0.53695468E+02 0.10589908E+03 -.10730006E+03 0.17910427E+03 0.80419002E+02 0.0000E+00 0.9000E+01
      -13  1    4    4    0    0 0.55807800E+02 -.69298939E+02 0.38157886E+02 0.96813682E+02 0.10565837E+00 0.0000E+00 0.9000E+01
       13  1    4    4    0    0 0.29359401E+01 -.44177290E+02 -.40108203E+02 0.59740537E+02 0.10565837E+00 0.0000E+00 0.9000E+01
       23  1    3    3    0    0 -.11243921E+03 0.75771492E+01 -.12240281E+03 0.18973057E+03 0.91188000E+02 0.0000E+00 0.9000E+01
#aMCatNLO 1  0  0  1  1 0.39105334D+02 0.00000000D+00  -5  7  0 0.00000000D+00 0.00000000D+00 0.00000000D+00 0.00000000D+00 0.00000000D+00
  <mgrwgt>
 0.4313873059D-03    4    2    0
 0.235780859640006D+03 0.000000000000000D+00 0.000000000000000D+00 0.235780859640006D+03
 0.235780859640006D+03 0.000000000000000D+00 0.000000000000000D+00 -.235780859640006D+03
 0.146837665142925D+03 0.536954721181930D+02 0.105899087814283D+03 -.315636408603702D+02
 0.126609712734757D+03 0.558078672411441D+02 -.692989735264946D+02 0.900730458069818D+02
 0.468566021144037D+02 0.293586628799756D+01 -.441772563587412D+02 -.153392265600520D+02
 0.151257739287927D+03 -.112439205647335D+03 0.757714207095250D+01 -.431701783865596D+02
 0.000000000000000D+00 -.000000000000000D+00 -.000000000000000D+00 -.000000000000000D+00
 0.248515842017326D+03 0.000000000000000D+00 0.000000000000000D+00 0.248515842017326D+03
 0.268647726567530D+03 0.000000000000000D+00 0.000000000000000D+00 -.268647726567530D+03
 0.156608360097133D+03 0.628282831124206D+02 0.114522076102059D+03 -.315636408603702D+02
 0.126464092609939D+03 0.634246262017355D+02 -.621074064011591D+02 0.900730458069818D+02
 0.446793972519864D+02 0.569082404603585D+01 -.415760891501024D+02 -.153392265600520D+02
 0.145428540845961D+03 -.103509842611850D+03 0.160080395154464D+02 -.431701783865596D+02
 0.439831777798357D+02 -.284338907483419D+02 -.268466200662440D+02 -.201318845502039D+02
0.737565630987D-05 0.000000000000D+00 0.000000000000D+00 0.518612339358D-06 0.000000000000D+00  7 -2 1 -24 -13 13 23 21 0 0.22595066D-01 0.58234019D-01 0.44441480D+05 0.44441480D+05 0.44441480D+05 0.11518247D+01  1  2  2  1  7  1       -2 0.846359402503D-03 0.100000000000D+01
-.403516034801D-06 0.000000000000D+00 -.283244622848D-07 0.518612339358D-06 0.000000000000D+00  7 -2 1 -24 -13 13 23 21 2 0.22595066D-01 0.58234019D-01 0.44441480D+05 0.44441480D+05 0.44441480D+05 0.11518247D+01  1  2  3  1  7  1       -2 -.614310177449D-04 0.100000000000D+01
0.475248671700D-06 0.000000000000D+00 0.000000000000D+00 0.518612339358D-06 0.000000000000D+00  7 -2 1 -24 -13 13 23 21 2 0.22595066D-01 0.58234019D-01 0.44441480D+05 0.44441480D+05 0.44441480D+05 0.11518247D+01  1  2 15  1  7  1       -2 0.723515475633D-04 0.100000000000D+01
-.279752005054D-05 0.000000000000D+00 0.000000000000D+00 0.518612339358D-06 0.000000000000D+00  7 -2 1 -24 -13 13 23 21 2 0.22595066D-01 0.58234019D-01 0.44441480D+05 0.44441480D+05 0.44441480D+05 0.11518247D+01  1  2  4  1  7  1       -2 -.425892626427D-03 0.100000000000D+01
  </mgrwgt>
  </event>
  <event>
  8     66 0.26562228E-05 0.21150697E+03 0.75467711E-02 0.10217455E+00
       -2 -1    0    0    0  501 0.00000000E+00 0.00000000E+00 0.29448869E+03 0.29448886E+03 0.32000000E+00 0.0000E+00 0.9000E+01
        1 -1    0    0  501    0 0.00000000E+00 0.00000000E+00 -.45183542E+03 0.45183554E+03 0.32000000E+00 0.0000E+00 0.9000E+01
       25  2    1    2    0    0 0.78011758E+02 -.71649598E+02 -.37455452E+03 0.49163647E+03 0.30032621E+03 0.0000E+00 0.0000E+00
       23  2    3    3    0    0 0.12909838E+03 0.39057913E+02 -.21761136E+03 0.27297599E+03 0.94706262E+02 0.0000E+00 0.0000E+00
      -24  1    1    2    0    0 -.78011758E+02 0.71649598E+02 0.21720779E+03 0.25468793E+03 0.80419002E+02 0.0000E+00 0.9000E+01
      -13  1    4    4    0    0 0.11608642E+03 0.25259721E+02 -.10430671E+03 0.15809495E+03 0.10565837E+00 0.0000E+00 0.9000E+01
       13  1    4    4    0    0 0.13011965E+02 0.13798192E+02 -.11330465E+03 0.11488105E+03 0.10565837E+00 0.0000E+00 0.9000E+01
       23  1    3    3    0    0 -.51086626E+02 -.11070751E+03 -.15694316E+03 0.21866048E+03 0.91188000E+02 0.0000E+00 0.9000E+01
#aMCatNLO 1  0  0  2  1 0.92504684D+02 0.00000000D+00  -5  7  0 0.00000000D+00 0.00000000D+00 0.00000000D+00 0.00000000D+00 0.00000000D+00
  <mgrwgt>
 0.1097095530D-02    4    2    0
 0.364774627598523D+03 0.000000000000000D+00 0.000000000000000D+00 0.364774627598523D+03
 0.364774627598523D+03 0.000000000000000D+00 0.000000000000000D+00 -.364774627598523D+03
 0.307390830176104D+03 -.780117579301115D+02 0.716495976150584D+02 0.277132472489670D+03
 0.139233693113512D+03 0.116086545974042D+03 0.252597364529951D+02 -.726077189847568D+02
 0.930853805696924D+02 0.130118391515201D+02 0.137981783328916D+02 -.911328173184236D+02
 0.189839351337738D+03 -.510866271954508D+02 -.110707512400945D+03 -.113391936186489D+03
 0.000000000000000D+00 0.000000000000000D+00 -.000000000000000D+00 0.000000000000000D+00
 0.525074438896474D+03 0.000000000000000D+00 0.000000000000000D+00 0.525074438896474D+03
 0.381288417971357D+03 0.000000000000000D+00 0.000000000000000D+00 -.381288417971357D+03
 0.320913761124404D+03 -.868578261324616D+02 0.110325594745489D+03 0.277132472489670D+03
 0.140188813625095D+03 0.112152481849562D+03 0.424599037260548D+02 -.726077189847568D+02
 0.951683507192294D+02 0.103613645737652D+02 0.253863488984651D+02 -.911328173184236D+02
 0.179119605020042D+03 -.562812989151865D+02 -.879958280763031D+02 -.113391936186489D+03
 0.170972326379061D+03 0.206252786243205D+02 -.901760192937063D+02 0.143786020925118D+03
0.448840525513D-04 0.000000000000D+00 0.000000000000D+00 0.726681197530D-06 0.000000000000D+00  7 -2 1 -24 -13 13 23 21 0 0.45305975D-01 0.69513164D-01 0.44735200D+05 0.44735200D+05 0.44735200D+05 0.11515701D+01  1  2  2  2  7  2        1 0.119151284326D-02 0.100000000000D+01
-.159296521476D-05 0.000000000000D+00 -.172366580040D-06 0.726681197530D-06 0.000000000000D+00  7 -2 1 -24 -13 13 23 21 2 0.45305975D-01 0.69513164D-01 0.44735200D+05 0.44735200D+05 0.44735200D+05 0.11515701D+01  1  2  3  2  7  2        1 -.560781507876D-04 0.100000000000D+01
0.279175350019D-05 0.000000000000D+00 0.000000000000D+00 0.726681197530D-06 0.000000000000D+00  7 -2 1 -24 -13 13 23 21 2 0.45305975D-01 0.69513164D-01 0.44735200D+05 0.44735200D+05 0.44735200D+05 0.11515701D+01  1  2 15  2  7  2        1 0.982798445910D-04 0.100000000000D+01
-.388082207651D-05 0.000000000000D+00 0.000000000000D+00 0.726681197530D-06 0.000000000000D+00  7 -2 1 -24 -13 13 23 21 2 0.45305975D-01 0.69513164D-01 0.44735200D+05 0.44735200D+05 0.44735200D+05 0.11515701D+01  1  2  4  2  7  2        1 -.136619006850D-03 0.100000000000D+01
  </mgrwgt>
  </event>
  <event>
  9     66 0.26562228E-05 0.20156032E+03 0.75467711E-02 0.10575426E+00
       -4 -1    0    0    0  501 0.00000000E+00 0.00000000E+00 0.13889163E+03 0.13890028E+03 0.15500000E+01 0.0000E+00 0.9000E+01
       21 -1    0    0  501  502 0.00000000E+00 0.00000000E+00 -.37743664E+03 0.37743738E+03 0.75000000E+00 0.0000E+00 0.9000E+01
       25  2    1    2    0    0 0.69109100E+02 -.65195918E+02 -.21521564E+03 0.38185463E+03 0.30078000E+03 0.0000E+00 0.0000E+00
       23  2    3    3    0    0 0.81599112E+02 -.13598599E+03 -.18916165E+03 0.26285338E+03 0.90328105E+02 0.0000E+00 0.0000E+00
      -24  1    1    2    0    0 -.58056871E+02 0.57842006E+02 -.31276095E+02 0.11900297E+03 0.80419002E+02 0.0000E+00 0.9000E+01
      -13  1    4    4    0    0 -.11276914E+02 -.72864373E+01 -.50000927E+02 0.51772240E+02 0.10565837E+00 0.0000E+00 0.9000E+01
       13  1    4    4    0    0 0.92876025E+02 -.12869955E+03 -.13916072E+03 0.21108114E+03 0.10565837E+00 0.0000E+00 0.9000E+01
       23  1    3    3    0    0 -.12490012E+02 0.70790072E+02 -.26053992E+02 0.11900125E+03 0.91188000E+02 0.0000E+00 0.9000E+01
       -3  1    1    2    0  502 -.11052229E+02 0.73539119E+01 0.79467267E+01 0.15480060E+02 0.50000000E+00 0.0000E+00 0.9000E+01
#aMCatNLO 2  0  0  2  2 0.13275232D+02 0.00000000D+00  -5  7  0 0.00000000D+00 0.00000000D+00 0.00000000D+00 0.00000000D+00 0.00000000D+00
  <mgrwgt>
 0.5341898927D-04    1    2    0
 0.217901313539309D+03 0.000000000000000D+00 0.000000000000000D+00 0.217901313539309D+03
 0.217901313539309D+03 0.000000000000000D+00 0.000000000000000D+00 -.217901313539309D+03
 0.121525846568257D+03 -.611064183603979D+02 0.598711177738548D+02 0.313491677949223D+02
 0.313827342583473D+02 -.120705045729142D+02 -.675832429540311D+01 -.281692027150836D+02
 0.159353721129513D+03 0.887793705472528D+02 -.125973790642404D+03 -.405269771169768D+02
 0.123540325122501D+03 -.156024476139408D+02 0.728609971639521D+02 0.373470120371381D+02
 0.000000000000000D+00 -.000000000000000D+00 0.000000000000000D+00 0.000000000000000D+00
 0.238077130508439D+03 0.000000000000000D+00 0.000000000000000D+00 0.238077130508439D+03
 0.220197081426118D+03 0.000000000000000D+00 0.000000000000000D+00 -.220197081426118D+03
 0.119022228886015D+03 -.580569003409435D+02 0.578420350263712D+02 0.313491677949223D+02
 0.312052181543820D+02 -.112770536657601D+02 -.728626921535793D+01 -.281692027150836D+02
 0.163804870718302D+03 0.928761730143703D+02 -.128699713608868D+03 -.405269771169768D+02
 0.121972454635896D+03 -.124899901791196D+02 0.707900359028665D+02 0.373470120371381D+02
 0.222694395399614D+02 -.110522288285472D+02 0.735391189498790D+01 0.178800490823203D+02
0.129459688670D-06 0.000000000000D+00 0.000000000000D+00 0.277441028392D-06 0.229983383925D-10  7 -4 21 -24 -13 13 23 -3 2 0.21368395D-01 0.58067164D-01 0.43336269D+05 0.43336269D+05 0.43336269D+05 0.11527997D+01  1  2  1  4  7  2        3 0.534189892726D-04 0.100000000000D+01
  </mgrwgt>
  </event>
  <event>
  8     66 0.26562228E-05 0.80885023E+02 0.75467711E-02 0.10548345E+00
       -2 -1    0    0    0  501 0.00000000E+00 0.00000000E+00 0.43773693E+02 0.43774862E+02 0.32000000E+00 0.0000E+00 0.9000E+01
        1 -1    0    0  501    0 0.00000000E+00 0.00000000E+00 -.96304560E+03 0.96304566E+03 0.32000000E+00 0.0000E+00 0.9000E+01
       25  2    1    2    0    0 0.34218550E+02 0.25848932E+02 -.80757891E+03 0.86266221E+03 0.30027206E+03 0.0000E+00 0.0000E+00
       23  2    3    3    0    0 0.18578118E+02 0.28849796E+02 -.76545006E+02 0.12579082E+03 0.93737582E+02 0.0000E+00 0.0000E+00
      -24  1    1    2    0    0 -.34218550E+02 -.25848932E+02 -.11169300E+03 0.14415831E+03 0.80419002E+02 0.0000E+00 0.9000E+01
      -13  1    4    4    0    0 0.51279904E+02 0.30140109E+01 -.64406709E+02 0.82382936E+02 0.10565837E+00 0.0000E+00 0.9000E+01
       13  1    4    4    0    0 -.32701786E+02 0.25835785E+02 -.12138297E+02 0.43407879E+02 0.10565837E+00 0.0000E+00 0.9000E+01
       23  1    3    3    0    0 0.15640432E+02 -.30008638E+01 -.73103390E+03 0.73687139E+03 0.91188000E+02 0.0000E+00 0.9000E+01
#aMCatNLO 1  0  0  1  2 0.11904680D+03 0.00000000D+00  -5  7  0 0.00000000D+00 0.00000000D+00 0.00000000D+00 0.00000000D+00 0.00000000D+00
  <mgrwgt>
 0.4499746714D-03    9    2    0
 0.205320914142848D+03 0.000000000000000D+00 0.000000000000000D+00 0.205320914142848D+03
 0.205320914142848D+03 0.000000000000000D+00 0.000000000000000D+00 -.205320914142848D+03
 0.103412074528316D+03 -.342185823149709D+02 -.258489562882492D+02 0.488647243626848D+02
 0.578059327398954D+02 0.512799927230497D+02 0.301399161973739D+01 0.265104519156018D+02
 0.792553078324117D+02 -.327018624207805D+02 0.258358115103033D+02 0.674129279695428D+02
 0.170168513185073D+03 0.156404520127017D+02 -.300084684179151D+01 -.142788104247829D+03
 0.000000000000000D+00 -.000000000000000D+00 -.000000000000000D+00 0.000000000000000D+00
 0.331807314772042D+03 0.000000000000000D+00 0.000000000000000D+00 0.331807314772042D+03
 0.243792390487725D+03 0.000000000000000D+00 0.000000000000000D+00 -.243792390487725D+03
 0.991530500392223D+02 -.311249830806291D+02 0.275418207447804D+01 0.488647243626848D+02
 0.626533237739914D+02 0.531196611482849D+02 0.200233992781084D+02 0.265104519156018D+02
 0.889456767727344D+02 -.301330765140213D+02 0.495865733735769D+02 0.674129279695428D+02
 0.176797773048907D+03 0.209393633614713D+02 0.459924076166938D+02 -.142788104247829D+03
 0.148049881624912D+03 -.128009649151058D+02 -.118356562342857D+03 0.880149242843163D+02
0.320771667998D-05 0.000000000000D+00 0.000000000000D+00 0.137917026644D-06 0.000000000000D+00  7 -2 1 -24 -13 13 23 21 0 0.67345083D-02 0.14816096D+00 0.19147885D+05 0.19147885D+05 0.19147885D+05 0.11858727D+01  1  2  2  1  7  1       -2 0.626522408162D-03 0.100000000000D+01
-.144468422112D-06 0.000000000000D+00 -.123184766623D-07 0.137917026644D-06 0.000000000000D+00  7 -2 1 -24 -13 13 23 21 2 0.67345083D-02 0.14816096D+00 0.19147885D+05 0.19147885D+05 0.19147885D+05 0.11858727D+01  1  2  3  1  7  1       -2 -.396816438124D-04 0.100000000000D+01
0.200403726350D-06 0.000000000000D+00 0.000000000000D+00 0.137917026644D-06 0.000000000000D+00  7 -2 1 -24 -13 13 23 21 2 0.67345083D-02 0.14816096D+00 0.19147885D+05 0.19147885D+05 0.19147885D+05 0.11858727D+01  1  2 15  1  7  1       -2 0.550455883123D-04 0.100000000000D+01
0.647586356279D-07 0.000000000000D+00 0.000000000000D+00 0.137917026644D-06 0.000000000000D+00  7 -2 1 -24 -13 13 23 21 2 0.11195633D-01 0.14816096D+00 0.45022495D+05 0.45022495D+05 0.45022495D+05 0.11513228D+01  1  2 12  1  7  1       -2 0.782824327363D-05 0.100000000000D+01
-.186233243134D-05 0.000000000000D+00 0.000000000000D+00 0.137917026644D-06 0.000000000000D+00  7 -2 1 -24 -13 13 23 21 2 0.67345083D-02 0.14816096D+00 0.19147885D+05 0.19147885D+05 0.19147885D+05 0.11858727D+01  1  2  4  1  7  1       -2 -.511533324174D-03 0.100000000000D+01
-.114925547405D-05 0.000000000000D+00 -.104529735124D-05 0.137917026644D-06 0.000000000000D+00  7 -2 1 -24 -13 13 23 21 2 0.12934605D-01 0.14816096D+00 0.19147885D+05 0.19147885D+05 0.19147885D+05 0.11858727D+01  1  2  5  1  7  1       -2 -.118231796511D-03 0.100000000000D+01
0.165520941049D-05 0.000000000000D+00 0.856343464415D-06 0.137917026644D-06 0.000000000000D+00  7 -2 1 -24 -13 13 23 21 2 0.67345083D-02 0.14816096D+00 0.19147885D+05 0.19147885D+05 0.19147885D+05 0.11858727D+01  1  2  6  1  7  1       -2 0.454642123876D-03 0.100000000000D+01
0.369927968656D-08 0.000000000000D+00 0.000000000000D+00 0.137917026644D-06 0.000000000000D+00  7 21 1 -24 -13 13 23 2 2 0.11195633D-01 0.14816096D+00 0.45022495D+05 0.45022495D+05 0.45022495D+05 0.11513228D+01  1  2 12  3  7  1       -2 0.649961196622D-05 0.100000000000D+01
-.209990814543D-07 0.000000000000D+00 -.740376367346D-07 0.137917026644D-06 0.000000000000D+00  7 21 1 -24 -13 13 23 2 2 0.12934605D-01 0.14816096D+00 0.19147885D+05 0.19147885D+05 0.19147885D+05 0.11858727D+01  1  2  5  3  7  1       -2 -.311165397226D-04 0.100000000000D+01
  </mgrwgt>
  </event>
  <event>
  8     66 0.26562228E-05 0.83663642E+02 0.75467711E-02 0.10485814E+00
       -2 -1    0    0    0  501 0.00000000E+00 0.00000000E+00 0.12564608E+03 0.12564649E+03 0.32000000E+00 0.0000E+00 0.9000E+01
        1 -1    0    0  501    0 0.00000000E+00 0.00000000E+00 -.86516367E+03 0.86516373E+03 0.32000000E+00 0.0000E+00 0.9000E+01
       25  2    1    2    0    0 -.61279723E+02 -.49855787E+02 -.80380301E+03 0.86103874E+03 0.29840852E+03 0.0000E+00 0.0000E+00
       23  2    3    3    0    0 0.44948134E+02 -.11082741E+03 -.31916425E+03 0.35291290E+03 0.91534951E+02 0.0000E+00 0.0000E+00
      -24  1    1    2    0    0 0.61279723E+02 0.49855787E+02 0.64285419E+02 0.12977147E+03 0.80419002E+02 0.0000E+00 0.9000E+01
      -11  1    4    4    0    0 -.30332451E+01 -.31106620E+02 -.19640247E+03 0.19887371E+03 0.51099893E-03 0.0000E+00 0.9000E+01
       11  1    4    4    0    0 0.47981379E+02 -.79720795E+02 -.12276178E+03 0.15403919E+03 0.51099893E-03 0.0000E+00 0.9000E+01
       23  1    3    3    0    0 -.10622786E+03 0.60971627E+02 -.48463875E+03 0.50812584E+03 0.91188000E+02 0.0000E+00 0.9000E+01
#aMCatNLO 1  0  0  1  2 0.49747483D+02 0.00000000D+00  -5  7  0 0.00000000D+00 0.00000000D+00 0.00000000D+00 0.00000000D+00 0.00000000D+00
  <mgrwgt>
 0.1109484372D-02    9    2    0
 0.329703890888508D+03 0.000000000000000D+00 0.000000000000000D+00 0.329703890888508D+03
 0.329703890888508D+03 0.000000000000000D+00 0.000000000000000D+00 -.329703890888508D+03
 0.267086774816640D+03 0.612797229270021D+02 0.498557869637454D+02 0.242130802236724D+03
 0.785599219050212D+02 -.303324511691282D+01 -.311066196962019D+02 -.720752312855090D+02
 0.937797686654410D+02 0.479813793756230D+02 -.797207946866632D+02 -.117058591603973D+02
 0.219981316389913D+03 -.106227857185712D+03 0.609716274191198D+02 -.158349711790818D+03
 0.000000000000000D+00 0.000000000000000D+00 -.000000000000000D+00 0.000000000000000D+00
 0.450695929628928D+03 0.000000000000000D+00 0.000000000000000D+00 0.450695929628928D+03
 0.335794322505527D+03 0.000000000000000D+00 0.000000000000000D+00 -.335794322505527D+03
 0.267755071541688D+03 0.483291079272925D+02 0.652880870992267D+02 0.242130802236724D+03
 0.771326242267383D+02 -.680317119320205D+01 -.266142746840788D+02 -.720752312855090D+02
 0.871122760977388D+02 0.436012747817340D+02 -.745013445895666D+02 -.117058591603973D+02
 0.229281688795306D+03 -.117106273400490D+03 0.739346399114924D+02 -.158349711790818D+03
 0.125208591472984D+03 0.319790618846660D+02 -.381071077370737D+02 0.114901607123401D+03
0.254507532070D-04 0.000000000000D+00 0.000000000000D+00 0.680402980593D-06 0.000000000000D+00  7 -2 1 -24 -11 11 23 21 0 0.19330202D-01 0.13310214D+00 0.37972343D+05 0.37972343D+05 0.37972343D+05 0.11579575D+01  1  2  2  1  7  1       -2 0.116815843972D-02 0.100000000000D+01
-.938489749729D-06 0.000000000000D+00 -.977375936520D-07 0.680402980593D-06 0.000000000000D+00  7 -2 1 -24 -11 11 23 21 2 0.19330202D-01 0.13310214D+00 0.37972343D+05 0.37972343D+05 0.37972343D+05 0.11579575D+01  1  2  3  1  7  1       -2 -.577584989694D-04 0.100000000000D+01
0.160826053731D-05 0.000000000000D+00 0.000000000000D+00 0.680402980593D-06 0.000000000000D+00  7 -2 1 -24 -11 11 23 21 2 0.19330202D-01 0.13310214D+00 0.37972343D+05 0.37972343D+05 0.37972343D+05 0.11579575D+01  1  2 15  1  7  1       -2 0.989789335614D-04 0.100000000000D+01
0.109055622733D-03 0.000000000000D+00 0.000000000000D+00 0.680402980593D-06 0.000000000000D+00  7 -2 1 -24 -11 11 23 21 2 0.26553882D-01 0.13310214D+00 0.49208877D+05 0.49208877D+05 0.49208877D+05 0.11479051D+01  1  2 12  1  7  1       -2 0.387436979985D-02 0.100000000000D+01
-.110782952018D-03 0.000000000000D+00 0.000000000000D+00 0.680402980593D-06 0.000000000000D+00  7 -2 1 -24 -11 11 23 21 2 0.19330202D-01 0.13310214D+00 0.37972343D+05 0.37972343D+05 0.37972343D+05 0.11579575D+01  1  2  4  1  7  1       -2 -.681803612860D-02 0.100000000000D+01
-.117234194380D-03 0.000000000000D+00 -.121890873814D-04 0.680402980593D-06 0.000000000000D+00  7 -2 1 -24 -11 11 23 21 2 0.26769960D-01 0.13310214D+00 0.37972343D+05 0.37972343D+05 0.37972343D+05 0.11579575D+01  1  2  5  1  7  1       -2 -.419899166119D-02 0.100000000000D+01
0.115637436858D-03 0.000000000000D+00 0.115702909887D-04 0.680402980593D-06 0.000000000000D+00  7 -2 1 -24 -11 11 23 21 2 0.19330202D-01 0.13310214D+00 0.37972343D+05 0.37972343D+05 0.37972343D+05 0.11579575D+01  1  2  6  1  7  1       -2 0.711680098746D-02 0.100000000000D+01
0.439164757022D-05 0.000000000000D+00 0.000000000000D+00 0.680402980593D-06 0.000000000000D+00  7 21 1 -24 -11 11 23 2 2 0.26553882D-01 0.13310214D+00 0.49208877D+05 0.49208877D+05 0.49208877D+05 0.11479051D+01  1  2 12  3  7  1       -2 0.193166464861D-02 0.100000000000D+01
-.449776212959D-05 0.000000000000D+00 -.499846439057D-06 0.680402980593D-06 0.000000000000D+00  7 21 1 -24 -11 11 23 2 2 0.26769960D-01 0.13310214D+00 0.37972343D+05 0.37972343D+05 0.37972343D+05 0.11579575D+01  1  2  5  3  7  1       -2 -.200570214808D-02 0.100000000000D+01
  </mgrwgt>
  </event>
  <event>
  8     66 -.26562228E-05 0.22295248E+03 0.75467711E-02 0.10478767E+00
       -2 -1    0    0    0  501 0.00000000E+00 0.00000000E+00 0.41682334E+03 0.41682347E+03 0.32000000E+00 0.0000E+00 0.9000E+01
        1 -1    0    0  501    0 0.00000000E+00 0.00000000E+00 -.40448881E+03 0.40448893E+03 0.32000000E+00 0.0000E+00 0.9000E+01
       25  2    1    2    0    0 -.77157726E+02 0.10516112E+03 0.33240679E+03 0.46645237E+03 0.30011893E+03 0.0000E+00 0.0000E+00
       23  2    3    3    0    0 -.12453913E+03 -.23902542E+02 0.16116521E+03 0.22866811E+03 0.10116104E+03 0.0000E+00 0.0000E+00
      -24  1    1    2    0    0 0.77157726E+02 -.10516112E+03 -.32007225E+03 0.35486002E+03 0.80419002E+02 0.0000E+00 0.9000E+01
      -13  1    4    4    0    0 -.27304285E+02 0.10056829E+01 0.11497265E+03 0.11817468E+03 0.10565837E+00 0.0000E+00 0.9000E+01
       13  1    4    4    0    0 -.97234841E+02 -.24908225E+02 0.46192564E+02 0.11049343E+03 0.10565837E+00 0.0000E+00 0.9000E+01
       23  1    3    3    0    0 0.47381400E+02 0.12906366E+03 0.17124158E+03 0.23778426E+03 0.91188000E+02 0.0000E+00 0.9000E+01
#aMCatNLO 1  0  0  1  2 0.49747483D+02 0.00000000D+00  -5  7  0 0.00000000D+00 0.00000000D+00 0.00000000D+00 0.00000000D+00 0.00000000D+00
  <mgrwgt>
 -.2098385758D-04    1    2    0
 0.410609886821612D+03 0.000000000000000D+00 0.000000000000000D+00 0.410609886821612D+03
 0.410609886821612D+03 0.000000000000000D+00 0.000000000000000D+00 -.410609886821612D+03
 0.359707462354402D+03 0.771577258069801D+02 -.105161121601770D+03 -.325438268141326D+03
 0.116461140481807D+03 -.273042193826341D+02 0.100570207861590D+01 0.113210712432867D+03
 0.109812083079290D+03 -.972349129276481D+02 -.249082559673576D+02 0.445381194352689D+02
 0.235239087727723D+03 0.473814065033021D+02 0.129063675490511D+03 0.167689436273190D+03
 0.000000000000000D+00 0.000000000000000D+00 0.000000000000000D+00 -.000000000000000D+00
 0.732392626751724D+03 0.000000000000000D+00 0.000000000000000D+00 0.732392626751724D+03
 0.149478232018728D+04 0.000000000000000D+00 0.000000000000000D+00 -.149478232018728D+04
 0.474483946019472D+03 -.223266618441951D+03 -.250818160814780D+03 -.325438268141326D+03
 0.183888959379986D+03 -.135471818437597D+03 -.514380246656823D+02 0.113210712432867D+03
 0.245456180102056D+03 -.225180650473386D+03 -.869411693034190D+02 0.445381194352689D+02
 0.230673644781088D+03 -.120411651224348D+03 0.477112802636581D+02 0.167689436273190D+03
 0.109267221665640D+04 0.704330738577283D+03 0.341486074520223D+03 -.762389693435555D+03
-.103266605438D-05 0.000000000000D+00 0.000000000000D+00 0.181667343663D-06 0.000000000000D+00  7 -2 1 -24 -13 13 23 21 2 0.64126687D-01 0.62229066D-01 0.49707810D+05 0.49707810D+05 0.49707810D+05 0.11475193D+01  1  2 14  1  7  1       -2 -.209838575779D-04 0.100000000000D+01
  </mgrwgt>
  </event>
  <event>
  8     66 0.26562228E-05 0.91504555E+02 0.75467711E-02 0.96561211E-01
       -2 -1    0    0    0  501 0.00000000E+00 0.00000000E+00 0.31213032E+03 0.31213049E+03 0.32000000E+00 0.0000E+00 0.9000E+01
        1 -1    0    0  501    0 0.00000000E+00 0.00000000E+00 -.44929422E+03 0.44929434E+03 0.32000000E+00 0.0000E+00 0.9000E+01
       25  2    1    2    0    0 -.21318116E+03 0.45467186E+01 -.30539983E+03 0.47816271E+03 0.29983936E+03 0.0000E+00 0.0000E+00
       23  2    3    3    0    0 0.34112750E+02 -.17420736E+02 -.11347451E+03 0.15137926E+03 0.92585386E+02 0.0000E+00 0.0000E+00
      -24  1    1    2    0    0 0.21318116E+03 -.45467186E+01 0.16823593E+03 0.28326211E+03 0.80419002E+02 0.0000E+00 0.9000E+01
      -11  1    4    4    0    0 0.54913303E+02 -.39186835E+02 -.93313078E+02 0.11514517E+03 0.51099893E-03 0.0000E+00 0.9000E+01
       11  1    4    4    0    0 -.20800552E+02 0.21766099E+02 -.20161430E+02 0.36234091E+02 0.51099893E-03 0.0000E+00 0.9000E+01
       23  1    3    3    0    0 -.24729391E+03 0.21967455E+02 -.19192532E+03 0.32678346E+03 0.91188000E+02 0.0000E+00 0.9000E+01
#aMCatNLO 1  0  0  1  2 0.22405856D+03 0.00000000D+00  -5  7  0 0.00000000D+00 0.00000000D+00 0.00000000D+00 0.00000000D+00 0.00000000D+00
  <mgrwgt>
 0.1011040919D-02    7    2    0
 0.374484254720578D+03 0.000000000000000D+00 0.000000000000000D+00 0.374484254720578D+03
 0.374484254720578D+03 0.000000000000000D+00 0.000000000000000D+00 -.374484254720578D+03
 0.318783362490344D+03 0.213181157668305D+03 -.454671861991527D+01 0.222909707306057D+03
 0.999710959875472D+02 0.549133027094617D+02 -.391868353148740D+02 -.737776467264669D+02
 0.331444051275346D+02 -.208005524672750D+02 0.217660989511431D+02 -.138609359266730D+02
 0.297069645835730D+03 -.247293907910491D+03 0.219674549836463D+02 -.135271124652917D+03
 0.000000000000000D+00 0.000000000000000D+00 0.000000000000000D+00 0.000000000000000D+00
 0.141659485723411D+04 0.000000000000000D+00 0.000000000000000D+00 0.141659485723411D+04
 0.403118300583967D+03 0.000000000000000D+00 0.000000000000000D+00 -.403118300583967D+03
 0.300676511480133D+03 0.165940277973095D+03 -.819404365159965D+02 0.222909707306057D+03
 0.105795961210851D+03 0.392212180356928D+02 -.648948403791030D+02 -.737776467264669D+02
 0.322798893478219D+02 -.257899010180442D+02 0.135921564522990D+02 -.138609359266730D+02
 0.343012352297494D+03 -.296107459747301D+03 -.580027378818947D+02 -.135271124652917D+03
 0.103794844348178D+04 0.116735864756558D+03 0.191245858324695D+03 0.101347655665015D+04
0.638659726332D-04 0.000000000000D+00 0.000000000000D+00 0.424669261113D-05 0.000000000000D+00  7 -2 1 -24 -11 11 23 21 0 0.48020071D-01 0.69122209D-01 0.87008397D+05 0.87008397D+05 0.87008397D+05 0.11267157D+01  1  2  2  1  7  1       -2 0.151210009627D-02 0.100000000000D+01
-.330237093174D-05 0.000000000000D+00 -.245262151208D-06 0.424669261113D-05 0.000000000000D+00  7 -2 1 -24 -11 11 23 21 2 0.48020071D-01 0.69122209D-01 0.87008397D+05 0.87008397D+05 0.87008397D+05 0.11267157D+01  1  2  3  1  7  1       -2 -.992580166387D-04 0.100000000000D+01
0.416350288763D-05 0.000000000000D+00 0.000000000000D+00 0.424669261113D-05 0.000000000000D+00  7 -2 1 -24 -11 11 23 21 2 0.48020071D-01 0.69122209D-01 0.87008397D+05 0.87008397D+05 0.87008397D+05 0.11267157D+01  1  2 15  1  7  1       -2 0.125140708733D-03 0.100000000000D+01
0.305065695211D-04 0.000000000000D+00 0.000000000000D+00 0.424669261113D-05 0.000000000000D+00  7 -2 1 -24 -11 11 23 21 2 0.17694798D+00 0.69122209D-01 0.17894442D+06 0.17894442D+06 0.17894442D+06 0.11015552D+01  1  2 12  1  7  1       -2 0.392489393682D-04 0.100000000000D+01
-.217700923076D-03 0.000000000000D+00 -.217993148516D-04 0.424669261113D-05 0.000000000000D+00  7 -2 1 -24 -11 11 23 21 2 0.18578319D+00 0.69122209D-01 0.87008397D+05 0.87008397D+05 0.87008397D+05 0.11267157D+01  1  2  5  1  7  1       -2 -.262949376952D-03 0.100000000000D+01
0.469337929159D-05 0.000000000000D+00 0.000000000000D+00 0.424669261113D-05 0.000000000000D+00  7 21 1 -24 -11 11 23 2 2 0.17694798D+00 0.69122209D-01 0.17894442D+06 0.17894442D+06 0.17894442D+06 0.11015552D+01  1  2 12  3  7  1       -2 0.503090151823D-04 0.100000000000D+01
-.346211702826D-04 0.000000000000D+00 -.350402237354D-05 0.424669261113D-05 0.000000000000D+00  7 21 1 -24 -11 11 23 2 2 0.18578319D+00 0.69122209D-01 0.87008397D+05 0.87008397D+05 0.87008397D+05 0.11267157D+01  1  2  5  3  7  1       -2 -.353550447368D-03 0.100000000000D+01
  </mgrwgt>
  </event>
  <event>
  8     66 0.26562228E-05 0.35296790E+03 0.75467711E-02 0.96116928E-01
       -2 -1    0    0    0  501 0.00000000E+00 0.00000000E+00 0.17721196E+03 0.17721225E+03 0.32000000E+00 0.0000E+00 0.9000E+01
        1 -1    0    0  501    0 0.00000000E+00 0.00000000E+00 -.95724690E+03 0.95724695E+03 0.32000000E+00 0.0000E+00 0.9000E+01
       25  2    1    2    0    0 -.31649018E+03 0.51708141E+02 -.63743194E+03 0.77440004E+03 0.30089232E+03 0.0000E+00 0.0000E+00
       23  2    3    3    0    0 -.31923769E+02 -.38513922E+02 -.65485278E+02 0.12282020E+03 0.91071567E+02 0.0000E+00 0.0000E+00
      -24  1    1    2    0    0 0.31649018E+03 -.51708141E+02 -.14260300E+03 0.36005916E+03 0.80419002E+02 0.0000E+00 0.9000E+01
      -11  1    4    4    0    0 -.24154553E+02 -.27468154E+00 -.78148182E+02 0.81796432E+02 0.51099893E-03 0.0000E+00 0.9000E+01
       11  1    4    4    0    0 -.77692155E+01 -.38239241E+02 0.12662905E+02 0.41023766E+02 0.51099893E-03 0.0000E+00 0.9000E+01
       23  1    3    3    0    0 -.28456642E+03 0.90222063E+02 -.57194666E+03 0.65157985E+03 0.91188000E+02 0.0000E+00 0.9000E+01
#aMCatNLO 1  0  0  2  2 0.15202643D+03 0.00000000D+00  -5  7  0 0.00000000D+00 0.00000000D+00 0.00000000D+00 0.00000000D+00 0.00000000D+00
  <mgrwgt>
 0.1535556400D-02    4    2    0
 0.411868665758762D+03 0.000000000000000D+00 0.000000000000000D+00 0.411868665758762D+03
 0.411868665758762D+03 0.000000000000000D+00 0.000000000000000D+00 -.411868665758762D+03
 0.360839673223314D+03 0.316490184746964D+03 -.517081411535649D+02 0.144562391080160D+03
 0.386487315212580D+02 -.241545531021077D+02 -.274681541339206D+00 -.301696298069862D+02
 0.684894264107378D+02 -.776921554999646D+01 -.382392407126033D+02 0.562867772175059D+02
 0.355759500362214D+03 -.284566416094859D+03 0.902220634075075D+02 -.170679538490680D+03
 0.000000000000000D+00 0.000000000000000D+00 0.000000000000000D+00 0.000000000000000D+00
 0.589471963563461D+03 0.000000000000000D+00 0.000000000000000D+00 0.589471963563461D+03
 0.452683608522305D+03 0.000000000000000D+00 0.000000000000000D+00 -.452683608522305D+03
 0.316789684707418D+03 0.259331641698252D+03 -.757449871736134D+02 0.144562391080160D+03
 0.434304016930062D+02 -.310779893646022D+02 -.318618982155157D+01 -.301696298069862D+02
 0.737035727692945D+02 -.197633013577252D+02 -.432831060446138D+02 0.562867772175059D+02
 0.403724970485391D+03 -.348629499126466D+03 0.632816555477760D+02 -.170679538490680D+03
 0.204506942430657D+03 0.140139148150542D+03 0.589326274920028D+02 0.136788355041156D+03
0.851685752317D-04 0.000000000000D+00 0.000000000000D+00 0.281812841327D-05 0.000000000000D+00  7 -2 1 -24 -11 11 23 21 0 0.27263405D-01 0.14726878D+00 0.12458634D+06 0.12458634D+06 0.12458634D+06 0.11139708D+01  1  2  2  2  7  2        1 0.182276865631D-02 0.100000000000D+01
-.459457049218D-05 0.000000000000D+00 -.327069754291D-06 0.281812841327D-05 0.000000000000D+00  7 -2 1 -24 -11 11 23 21 2 0.27263405D-01 0.14726878D+00 0.12458634D+06 0.12458634D+06 0.12458634D+06 0.11139708D+01  1  2  3  2  7  2        1 -.122023840071D-03 0.100000000000D+01
0.552199562955D-05 0.000000000000D+00 0.000000000000D+00 0.281812841327D-05 0.000000000000D+00  7 -2 1 -24 -11 11 23 21 2 0.27263405D-01 0.14726878D+00 0.12458634D+06 0.12458634D+06 0.12458634D+06 0.11139708D+01  1  2 15  2  7  2        1 0.146654646549D-03 0.100000000000D+01
-.117418443411D-04 0.000000000000D+00 0.000000000000D+00 0.281812841327D-05 0.000000000000D+00  7 -2 1 -24 -11 11 23 21 2 0.27263405D-01 0.14726878D+00 0.12458634D+06 0.12458634D+06 0.12458634D+06 0.11139708D+01  1  2  4  2  7  2        1 -.311843063123D-03 0.100000000000D+01
  </mgrwgt>
  </event>
  <event>
  8     66 0.26562228E-05 0.17853748E+03 0.75467711E-02 0.83066098E-01
       -2 -1    0    0    0  501 0.00000000E+00 0.00000000E+00 0.86031546E+02 0.86032141E+02 0.32000000E+00 0.0000E+00 0.9000E+01
        1 -1    0    0  501    0 0.00000000E+00 0.00000000E+00 -.42822778E+03 0.42822790E+03 0.32000000E+00 0.0000E+00 0.9000E+01
       25  2    1    2    0    0 -.36003802E+01 0.72883695E+01 -.27119098E+03 0.40667266E+03 0.30293897E+03 0.0000E+00 0.0000E+00
       23  2    3    3    0    0 0.11179623E+03 -.31694127E+02 -.14116419E+03 0.20652713E+03 0.96037554E+02 0.0000E+00 0.0000E+00
      -24  1    1    2    0    0 0.36003802E+01 -.72883695E+01 -.71005252E+02 0.10758738E+03 0.80419002E+02 0.0000E+00 0.9000E+01
      -11  1    4    4    0    0 0.54420997E+02 0.70262461E+01 -.12342304E+03 0.13507132E+03 0.51099893E-03 0.0000E+00 0.9000E+01
       11  1    4    4    0    0 0.57375238E+02 -.38720373E+02 -.17741147E+02 0.71455815E+02 0.51099893E-03 0.0000E+00 0.9000E+01
       23  1    3    3    0    0 -.11539661E+03 0.38982496E+02 -.13002679E+03 0.20014553E+03 0.91188000E+02 0.0000E+00 0.9000E+01
#aMCatNLO 1  0  0  1  2 0.15820214D+04 0.00000000D+00  -5  7  0 0.00000000D+00 0.00000000D+00 0.00000000D+00 0.00000000D+00 0.00000000D+00
  <mgrwgt>
 0.2308587048D-03    5    2    0
 0.191940828325026D+03 0.000000000000000D+00 0.000000000000000D+00 0.191940828325026D+03
 0.191940828325026D+03 0.000000000000000D+00 0.000000000000000D+00 -.191940828325026D+03
 0.808332048855354D+02 0.360291275978733D+01 -.729349624679354D+01 0.784212879123592D+00
 0.709250093211738D+02 0.544204892596550D+02 0.702745291055794D+01 -.449375366652230D+02
 0.799081866752259D+02 0.573740384867933D+02 -.387188892198806D+02 0.399297586145637D+02
 0.152215255768117D+03 -.115397440506236D+03 0.389849325561162D+02 0.422356517153574D+01
 0.000000000000000D+00 0.000000000000000D+00 -.000000000000000D+00 0.000000000000000D+00
 0.373397683367373D+04 0.000000000000000D+00 0.000000000000000D+00 0.373397683367373D+04
 0.102824433445028D+04 0.000000000000000D+00 0.000000000000000D+00 -.102824433445028D+04
 0.312687940716561D+03 0.266716501648984D+01 0.302156918762633D+03 0.784212879123592D+00
 0.329054935856289D+03 0.534693832384235D+02 0.321556828050581D+03 -.449375366652230D+02
 0.178587982927609D+03 0.567593645104132D+02 0.164552898982390D+03 0.399297586145637D+02
 0.807599330603959D+03 -.117679768516354D+03 0.793747479383174D+03 0.422356517153574D+01
 0.313429097801959D+04 0.478385575102786D+01 -.158201412517878D+04 0.270573249922345D+04
0.993184459462D-06 0.000000000000D+00 0.000000000000D+00 0.114351289199D-08 0.000000000000D+00  7 -2 1 -24 -11 11 23 21 0 0.13235677D-01 0.65881252D-01 0.31875632D+05 0.31875632D+05 0.31875632D+05 0.11649001D+01  1  2  2  1  7  1       -2 0.227878682365D-03 0.100000000000D+01
-.548253709346D-07 0.000000000000D+00 -.381408983581D-08 0.114351289199D-08 0.000000000000D+00  7 -2 1 -24 -11 11 23 21 2 0.13235677D-01 0.65881252D-01 0.31875632D+05 0.31875632D+05 0.31875632D+05 0.11649001D+01  1  2  3  1  7  1       -2 -.170699699370D-04 0.100000000000D+01
0.642884043617D-07 0.000000000000D+00 0.000000000000D+00 0.114351289199D-08 0.000000000000D+00  7 -2 1 -24 -11 11 23 21 2 0.13235677D-01 0.65881252D-01 0.31875632D+05 0.31875632D+05 0.31875632D+05 0.11649001D+01  1  2 15  1  7  1       -2 0.200163010490D-04 0.100000000000D+01
0.961195795872D-05 0.000000000000D+00 -.299301471961D-05 0.114351289199D-08 0.000000000000D+00  7 -2 1 -24 -11 11 23 21 2 0.61367505D+00 0.65881252D-01 0.31875632D+05 0.31875632D+05 0.31875632D+05 0.11649001D+01  1  2  5  1  7  1       -2 0.850812684122D-08 0.100000000000D+01
0.241664599795D-05 0.000000000000D+00 -.105133520696D-05 0.114351289199D-08 0.000000000000D+00  7 21 1 -24 -11 11 23 2 2 0.61367505D+00 0.65881252D-01 0.31875632D+05 0.31875632D+05 0.31875632D+05 0.11649001D+01  1  2  5  3  7  1       -2 0.251832118578D-07 0.100000000000D+01
  </mgrwgt>
  </event>
  <event>
  8     66 0.26562228E-05 0.54983014E+03 0.75467711E-02 0.92490035E-01
       -4 -1    0    0    0  501 0.00000000E+00 0.00000000E+00 0.79263577E+03 0.79263729E+03 0.15500000E+01 0.0000E+00 0.9000E+01
        3 -1    0    0  501    0 0.00000000E+00 0.00000000E+00 -.58399857E+03 0.58399878E+03 0.50000000E+00 0.0000E+00 0.9000E+01
       25  2    1    2    0    0 -.29647858E+03 0.44853969E+03 -.24891486E+03 0.66606692E+03 0.30430105E+03 0.0000E+00 0.0000E+00
       23  2    3    3    0    0 -.65174923E+02 0.16011670E+03 -.20026973E+03 0.28217787E+03 0.98138951E+02 0.0000E+00 0.0000E+00
      -24  1    1    2    0    0 0.29647858E+03 -.44853969E+03 0.45755206E+03 0.71056915E+03 0.80419002E+02 0.0000E+00 0.9000E+01
      -11  1    4    4    0    0 -.45181517E+02 0.13890011E+03 -.98147353E+02 0.17597589E+03 0.51099893E-03 0.0000E+00 0.9000E+01
       11  1    4    4    0    0 -.19993406E+02 0.21216592E+02 -.10212238E+03 0.10620198E+03 0.51099893E-03 0.0000E+00 0.9000E+01
       23  1    3    3    0    0 -.23130366E+03 0.28842299E+03 -.48645124E+02 0.38388905E+03 0.91188000E+02 0.0000E+00 0.9000E+01
#aMCatNLO 1  0  0  2  2 0.10878892D+03 0.00000000D+00  -5  7  0 0.00000000D+00 0.00000000D+00 0.00000000D+00 0.00000000D+00 0.00000000D+00
  <mgrwgt>
 0.9431323498D-04    4    2    0
 0.680367066233666D+03 0.000000000000000D+00 0.000000000000000D+00 0.680367066233666D+03
 0.680367066233666D+03 0.000000000000000D+00 0.000000000000000D+00 -.680367066233666D+03
 0.648718006557736D+03 0.296478583853203D+03 -.448539693893789D+03 0.353949754055483D+03
 0.193081026170404D+03 -.451815174200240D+02 0.138900109169318D+03 -.126276176784823D+03
 0.123101198669754D+03 -.199934059697037D+02 0.212165924233432D+02 -.119599435774599D+03
 0.395833901069438D+03 -.231303660463476D+03 0.288422992301128D+03 -.108074141496060D+03
 0.000000000000000D+00 0.000000000000000D+00 0.000000000000000D+00 0.000000000000000D+00
 0.938091919595673D+03 0.000000000000000D+00 0.000000000000000D+00 0.938091919595673D+03
 0.694115804497034D+03 0.000000000000000D+00 0.000000000000000D+00 -.694115804497034D+03
 0.672942447129685D+03 0.273759605124271D+03 -.496144708125347D+03 0.353949754055483D+03
 0.185230827724177D+03 -.516845938626567D+02 0.125273658337433D+03 -.126276176784823D+03
 0.122651606270077D+03 -.242178289161770D+02 0.123647986483494D+02 -.119599435774599D+03
 0.384251090314666D+03 -.244713106343897D+03 0.260325036420663D+03 -.108074141496060D+03
 0.267131752654102D+03 0.468559239984599D+02 0.981812147189014D+02 0.243976115098638D+03
0.710194388858D-03 0.000000000000D+00 0.000000000000D+00 0.127499719763D-07 0.000000000000D+00  7 -4 3 -24 -11 11 23 21 0 0.12194410D+00 0.89846066D-01 0.30231319D+06 0.30231319D+06 0.30231319D+06 0.10843052D+01  1  2  2  2  7  2        3 0.100215010473D-03 0.100000000000D+01
-.372783389417D-04 0.000000000000D+00 -.272733345169D-05 0.127499719763D-07 0.000000000000D+00  7 -4 3 -24 -11 11 23 21 2 0.12194410D+00 0.89846066D-01 0.30231319D+06 0.30231319D+06 0.30231319D+06 0.10843052D+01  1  2  3  2  7  2        3 -.618465011577D-05 0.100000000000D+01
0.450130798063D-04 0.000000000000D+00 0.000000000000D+00 0.127499719763D-07 0.000000000000D+00  7 -4 3 -24 -11 11 23 21 2 0.12194410D+00 0.89846066D-01 0.30231319D+06 0.30231319D+06 0.30231319D+06 0.10843052D+01  1  2 15  2  7  2        3 0.746787966251D-05 0.100000000000D+01
-.433080365587D-04 0.000000000000D+00 0.000000000000D+00 0.127499719763D-07 0.000000000000D+00  7 -4 3 -24 -11 11 23 21 2 0.12194410D+00 0.89846066D-01 0.30231319D+06 0.30231319D+06 0.30231319D+06 0.10843052D+01  1  2  4  2  7  2        3 -.718500504369D-05 0.100000000000D+01
  </mgrwgt>
  </event>
  <event>
  8     66 0.26562228E-05 0.49007710E+03 0.75467711E-02 0.89086216E-01
       -2 -1    0    0    0  501 0.00000000E+00 0.00000000E+00 0.28349296E+03 0.28349314E+03 0.32000000E+00 0.0000E+00 0.9000E+01
        1 -1    0    0  501    0 0.00000000E+00 0.00000000E+00 -.15801711E+04 0.15801711E+04 0.32000000E+00 0.0000E+00 0.9000E+01
       25  2    1    2    0    0 0.41991922E+03 0.23369275E+03 -.10501042E+03 0.57623130E+03 0.30011811E+03 0.0000E+00 0.0000E+00
       23  2    3    3    0    0 0.12666661E+03 0.61240068E+02 0.71401738E+02 0.18231060E+03 0.91346437E+02 0.0000E+00 0.0000E+00
      -24  1    1    2    0    0 -.41991922E+03 -.23369275E+03 -.11916677E+04 0.12874329E+04 0.80419002E+02 0.0000E+00 0.9000E+01
      -11  1    4    4    0    0 0.31409527E+02 0.14977017E+02 -.21949463E+02 0.41141808E+02 0.51099893E-03 0.0000E+00 0.9000E+01
       11  1    4    4    0    0 0.95257083E+02 0.46263052E+02 0.93351202E+02 0.14116880E+03 0.51099893E-03 0.0000E+00 0.9000E+01
       23  1    3    3    0    0 0.29325261E+03 0.17245268E+03 -.17641216E+03 0.39392070E+03 0.91188000E+02 0.0000E+00 0.9000E+01
#aMCatNLO 1  0  0  2  1 0.55819900D+03 0.00000000D+00  -5  7  0 0.00000000D+00 0.00000000D+00 0.00000000D+00 0.00000000D+00 0.00000000D+00
  <mgrwgt>
 0.1568171571D-02    5    2    0
 0.669303792302584D+03 0.000000000000000D+00 0.000000000000000D+00 0.669303792302584D+03
 0.669303792302584D+03 0.000000000000000D+00 0.000000000000000D+00 -.669303792302584D+03
 0.638075946629579D+03 -.419919218283644D+03 -.233692745180972D+03 -.411982097522085D+03
 0.360173724481298D+02 0.314095273388501D+02 0.149770167526759D+02 0.929417449843688D+01
 0.286968115450736D+03 0.952570831258460D+02 0.462630515662715D+02 0.266714299315727D+03
 0.377546150076723D+03 0.293252607818948D+03 0.172452676862025D+03 0.135973623707922D+03
 0.000000000000000D+00 0.000000000000000D+00 0.000000000000000D+00 -.000000000000000D+00
 0.870656947129389D+03 0.000000000000000D+00 0.000000000000000D+00 0.870656947129389D+03
 0.126056539919798D+04 0.000000000000000D+00 0.000000000000000D+00 -.126056539919798D+04
 0.816314009744858D+03 -.467906709530590D+03 -.520802658450316D+03 -.411982097522085D+03
 0.307042665831338D+02 0.292080516926786D+02 0.180555341061007D+01 0.929417449843688D+01
 0.285342843876615D+03 0.763737244840444D+02 -.667163795521780D+02 0.266714299315727D+03
 0.317968631805112D+03 0.270304147977492D+03 0.351516814663792D+02 0.135973623707922D+03
 0.680892594317646D+03 0.920207853763753D+02 0.550561803125505D+03 -.389908452068588D+03
0.482665358558D-03 0.000000000000D+00 0.000000000000D+00 0.395865322769D-04 0.000000000000D+00  7 -2 1 -24 -11 11 23 21 0 0.43614317D-01 0.24310326D+00 0.24017557D+06 0.24017557D+06 0.24017557D+06 0.10917714D+01  1  2  2  2  7  2        1 0.157087312051D-02 0.100000000000D+01
-.236476554046D-04 0.000000000000D+00 -.185356206557D-05 0.395865322769D-04 0.000000000000D+00  7 -2 1 -24 -11 11 23 21 2 0.43614317D-01 0.24310326D+00 0.24017557D+06 0.24017557D+06 0.24017557D+06 0.10917714D+01  1  2  3  2  7  2        1 -.917374082737D-04 0.100000000000D+01
0.311894885777D-04 0.000000000000D+00 0.000000000000D+00 0.395865322769D-04 0.000000000000D+00  7 -2 1 -24 -11 11 23 21 2 0.43614317D-01 0.24310326D+00 0.24017557D+06 0.24017557D+06 0.24017557D+06 0.10917714D+01  1  2 15  2  7  2        1 0.120994779336D-03 0.100000000000D+01
-.113677284489D-03 0.000000000000D+00 -.128774775092D-03 0.395865322769D-04 0.000000000000D+00  7 -2 1 -24 -11 11 23 21 2 0.43614317D-01 0.49542806D+00 0.24017557D+06 0.24017557D+06 0.24017557D+06 0.10917714D+01  1  2  5  2  7  2        1 -.319124648149D-04 0.100000000000D+01
-.917180330403D-06 0.000000000000D+00 -.991441467133D-05 0.395865322769D-04 0.000000000000D+00  7 -2 21 -24 -11 11 23 -1 2 0.43614317D-01 0.49542806D+00 0.24017557D+06 0.24017557D+06 0.24017557D+06 0.10917714D+01  1  2  5  4  7  2        1 -.464558353311D-07 0.100000000000D+01
  </mgrwgt>
  </event>
  <event>
  8     66 0.26562228E-05 0.53694127E+03 0.75467711E-02 0.84992526E-01
       -2 -1    0    0    0  501 0.00000000E+00 0.00000000E+00 0.93475781E+03 0.93475786E+03 0.32000000E+00 0.0000E+00 0.9000E+01
        1 -1    0    0  501    0 0.00000000E+00 0.00000000E+00 -.16880915E+04 0.16880916E+04 0.32000000E+00 0.0000E+00 0.9000E+01
       25  2    1    2    0    0 -.49524676E+02 -.12343666E+04 -.31709337E+03 0.13102617E+04 0.30020615E+03 0.0000E+00 0.0000E+00
       23  2    3    3    0    0 -.36812303E+02 -.90911755E+03 -.12958094E+03 0.92370670E+03 0.92698398E+02 0.0000E+00 0.0000E+00
      -24  1    1    2    0    0 0.49524676E+02 0.12343666E+04 -.43624034E+03 0.13125877E+04 0.80419002E+02 0.0000E+00 0.9000E+01
      -13  1    4    4    0    0 0.55763105E+01 -.56427552E+03 -.11538759E+03 0.57597940E+03 0.10565837E+00 0.0000E+00 0.9000E+01
       13  1    4    4    0    0 -.42388614E+02 -.34484202E+03 -.14193357E+02 0.34772731E+03 0.10565837E+00 0.0000E+00 0.9000E+01
       23  1    3    3    0    0 -.12712372E+02 -.32524910E+03 -.18751243E+03 0.38655497E+03 0.91188000E+02 0.0000E+00 0.9000E+01
#aMCatNLO 1  0  0  2  1 0.90544054D+02 0.00000000D+00  -5  7  0 0.00000000D+00 0.00000000D+00 0.00000000D+00 0.00000000D+00 0.00000000D+00
  <mgrwgt>
 0.1273018506D-02    9    2    0
 0.125616751995176D+04 0.000000000000000D+00 0.000000000000000D+00 0.125616751995176D+04
 0.125616751995176D+04 0.000000000000000D+00 0.000000000000000D+00 -.125616751995176D+04
 0.123951836421493D+04 0.495246755675277D+02 0.123436664894080D+04 -.618453051110105D+02
 0.566716825957960D+03 0.557637282226558D+01 -.564275805430763D+03 0.522463424124174D+02
 0.358767175882235D+03 -.423886760287234D+02 -.344841739895737D+03 0.894497683659807D+02
 0.347332673848405D+03 -.127123723610699D+02 -.325249103614299D+03 -.798508056673876D+02
 0.000000000000000D+00 -.000000000000000D+00 -.000000000000000D+00 -.000000000000000D+00
 0.128734982086296D+04 0.000000000000000D+00 0.000000000000000D+00 0.128734982086296D+04
 0.132447645189833D+04 0.000000000000000D+00 0.000000000000000D+00 -.132447645189833D+04
 0.127058903108385D+04 0.838926695044790D+02 0.126375094389494D+04 -.618453051110105D+02
 0.554021949380547D+03 0.209213510920720D+02 -.551156000755165D+03 0.522463424124174D+02
 0.349762636539083D+03 -.326875977628883D+02 -.336547413911524D+03 0.894497683659807D+02
 0.339592488253129D+03 -.330710155454539D+01 -.317207690082584D+03 -.798508056673876D+02
 0.978601675046750D+02 -.688193212791173D+02 -.588398391456695D+02 -.371266310353689D+02
0.307528603528D-02 0.000000000000D+00 0.000000000000D+00 0.234860268942D-04 0.000000000000D+00  7 -2 1 -24 -13 13 23 21 0 0.14380890D+00 0.25970639D+00 0.15472181D+07 0.15472181D+07 0.15472181D+07 0.10354745D+01  1  2  2  2  7  2        1 0.496225646993D-03 0.100000000000D+01
-.170829126523D-03 0.000000000000D+00 -.118099081169D-04 0.234860268942D-04 0.000000000000D+00  7 -2 1 -24 -13 13 23 21 2 0.14380890D+00 0.25970639D+00 0.15472181D+07 0.15472181D+07 0.15472181D+07 0.10354745D+01  1  2  3  2  7  2        1 -.295552337817D-04 0.100000000000D+01
0.196459999591D-03 0.000000000000D+00 0.000000000000D+00 0.234860268942D-04 0.000000000000D+00  7 -2 1 -24 -13 13 23 21 2 0.14380890D+00 0.25970639D+00 0.15472181D+07 0.15472181D+07 0.15472181D+07 0.10354745D+01  1  2 15  2  7  2        1 0.339896441246D-04 0.100000000000D+01
0.854295250430D-02 0.000000000000D+00 0.000000000000D+00 0.234860268942D-04 0.000000000000D+00  7 -2 1 -24 -13 13 23 21 2 0.14380890D+00 0.27692196D+00 0.16633031D+07 0.16633031D+07 0.16633031D+07 0.10334639D+01  1  2 12  2  7  2        1 0.122951345513D-02 0.100000000000D+01
-.809868362418D-02 0.000000000000D+00 0.000000000000D+00 0.234860268942D-04 0.000000000000D+00  7 -2 1 -24 -13 13 23 21 2 0.14380890D+00 0.25970639D+00 0.15472181D+07 0.15472181D+07 0.15472181D+07 0.10354745D+01  1  2  4  2  7  2        1 -.140115735945D-02 0.100000000000D+01
-.326530046893D-01 0.000000000000D+00 -.515477834258D-02 0.234860268942D-04 0.000000000000D+00  7 -2 1 -24 -13 13 23 21 2 0.14380890D+00 0.27712195D+00 0.15472181D+07 0.15472181D+07 0.15472181D+07 0.10354745D+01  1  2  5  2  7  2        1 -.473298204362D-02 0.100000000000D+01
0.329290335725D-01 0.000000000000D+00 0.514393939720D-02 0.234860268942D-04 0.000000000000D+00  7 -2 1 -24 -13 13 23 21 2 0.14380890D+00 0.25970639D+00 0.15472181D+07 0.15472181D+07 0.15472181D+07 0.10354745D+01  1  2  6  2  7  2        1 0.569706879176D-02 0.100000000000D+01
0.104519478530D-03 0.000000000000D+00 0.000000000000D+00 0.234860268942D-04 0.000000000000D+00  7 -2 21 -24 -13 13 23 -1 2 0.14380890D+00 0.27692196D+00 0.16633031D+07 0.16633031D+07 0.16633031D+07 0.10334639D+01  1  2 12  4  7  2        1 0.831057871061D-05 0.100000000000D+01
-.353942311368D-03 0.000000000000D+00 -.570589611175D-04 0.234860268942D-04 0.000000000000D+00  7 -2 21 -24 -13 13 23 -1 2 0.14380890D+00 0.27712195D+00 0.15472181D+07 0.15472181D+07 0.15472181D+07 0.10354745D+01  1  2  5  4  7  2        1 -.283949734924D-04 0.100000000000D+01
  </mgrwgt>
  </event>
  <event>
  9     66 -.26562228E-05 0.32701499E+03 0.75467711E-02 0.99520652E-01
       -2 -1    0    0    0  502 0.00000000E+00 0.00000000E+00 0.68661903E+02 0.68662649E+02 0.32000000E+00 0.0000E+00 0.9000E+01
        1 -1    0    0  501    0 0.00000000E+00 0.00000000E+00 -.17678408E+04 0.17678408E+04 0.32000000E+00 0.0000E+00 0.9000E+01
       25  2    1    2    0    0 -.18436993E+03 0.18765904E+03 -.11473154E+04 0.12149102E+04 0.30077534E+03 0.0000E+00 0.0000E+00
       23  2    3    3    0    0 -.18529504E+03 0.23844527E+02 -.69808172E+03 0.72812249E+03 0.89114900E+02 0.0000E+00 0.0000E+00
      -24  1    1    2    0    0 0.18908205E+03 -.17939515E+03 -.54613565E+03 0.61046376E+03 0.80419002E+02 0.0000E+00 0.9000E+01
      -11  1    4    4    0    0 -.18805785E+03 0.19981064E+02 -.69821245E+03 0.72337102E+03 0.51099893E-03 0.0000E+00 0.9000E+01
       11  1    4    4    0    0 0.27628094E+01 0.38634629E+01 0.13073188E+00 0.47514790E+01 0.51099893E-03 0.0000E+00 0.9000E+01
       23  1    3    3    0    0 0.92511165E+00 0.16381451E+03 -.44923373E+03 0.48678768E+03 0.91188000E+02 0.0000E+00 0.9000E+01
       21  1    1    2  501  502 -.47121212E+01 -.82638902E+01 -.57277493E+01 0.11129491E+02 0.75000000E+00 0.0000E+00 0.9000E+01
#aMCatNLO 2  0  0  1  2 0.95129368D+01 0.00000000D+00  -5  7  0 0.00000000D+00 0.00000000D+00 0.00000000D+00 0.00000000D+00 0.00000000D+00
  <mgrwgt>
 -.4246971308D-03    3    2    0
 0.340632826674177D+03 0.000000000000000D+00 0.000000000000000D+00 0.340632826674177D+03
 0.340632826674177D+03 0.000000000000000D+00 0.000000000000000D+00 -.340632826674177D+03
 0.278983902457084D+03 0.187155590893809D+03 -.182773684227371D+03 0.541421003190311D+02
 0.203672363513548D+03 -.189462799734437D+03 0.175171363917967D+02 -.726596800750904D+02
 0.129900399623841D+02 0.267274162786623D+01 0.370550639545538D+01 0.121600498670132D+02
 0.185619347415337D+03 -.365532787237640D+00 0.161551041440119D+03 0.635752988904618D+01
 0.000000000000000D+00 -.000000000000000D+00 -.000000000000000D+00 0.000000000000000D+00
 0.354605700950641D+03 0.000000000000000D+00 0.000000000000000D+00 0.354605700950641D+03
 0.342289027507763D+03 0.000000000000000D+00 0.000000000000000D+00 -.342289027507763D+03
 0.278088520009180D+03 0.189082052920210D+03 -.179395148326393D+03 0.541421003190311D+02
 0.202594244835250D+03 -.188057852797531D+03 0.199810643593638D+02 -.726596800750904D+02
 0.130547414550944D+02 0.276280941862954D+01 0.386346292947750D+01 0.121600498670132D+02
 0.187594561343784D+03 0.925111649559793D+00 0.163814511212873D+03 0.635752988904618D+01
 0.155626608150949D+02 -.471212119086860D+01 -.826389017532112D+01 0.123166734428777D+02
-.101038671618D-03 0.000000000000D+00 0.000000000000D+00 0.485367727883D-06 0.000000000000D+00  7 -2 1 -24 -11 11 23 21 2 0.10587227D-01 0.27065246D+00 0.11010213D+06 0.11010213D+06 0.11010213D+06 0.11183083D+01  1  2 13  1  7  1       -2 -.355400220902D-02 0.100000000000D+01
-.166126604008D-03 0.000000000000D+00 0.000000000000D+00 0.485367727883D-06 0.000000000000D+00  7 -2 1 -24 -11 11 23 21 2 0.10146921D-01 0.27065246D+00 0.10693880D+06 0.10693880D+06 0.10693880D+06 0.11193390D+01  1  2  8  1  7  1       -2 -.625677618682D-02 0.100000000000D+01
0.269350118184D-03 0.000000000000D+00 0.000000000000D+00 0.485367727883D-06 0.358046026417D-07  7 -2 1 -24 -11 11 23 21 2 0.10563152D-01 0.27196841D+00 0.11010213D+06 0.11010213D+06 0.11010213D+06 0.11183083D+01  1  2  1  1  7  1       -2 0.938608126504D-02 0.100000000000D+01
  </mgrwgt>
  </event>
  <event>
  9     66 0.26562228E-05 0.43064059E+03 0.75467711E-02 0.89860918E-01
       21 -1    0    0  502  501 0.00000000E+00 0.00000000E+00 0.10319047E+04 0.10319050E+04 0.75000000E+00 0.0000E+00 0.9000E+01
        3 -1    0    0  501    0 0.00000000E+00 0.00000000E+00 -.11093705E+04 0.11093706E+04 0.50000000E+00 0.0000E+00 0.9000E+01
       25  2    1    2    0    0 0.18169644E+03 -.10268342E+02 -.29054863E+03 0.45553428E+03 0.29995657E+03 0.0000E+00 0.0000E+00
       23  2    3    3    0    0 0.32591820E+02 0.38673490E+02 -.24854282E+03 0.26923552E+03 0.90312597E+02 0.0000E+00 0.0000E+00
      -24  1    1    2    0    0 -.62706213E+03 -.33132321E+03 -.42912386E+03 0.83282441E+03 0.80419002E+02 0.0000E+00 0.9000E+01
      -11  1    4    4    0    0 -.43052958E+01 -.25881356E+02 -.40032851E+02 0.47864489E+02 0.51099893E-03 0.0000E+00 0.9000E+01
       11  1    4    4    0    0 0.36897116E+02 0.64554846E+02 -.20850997E+03 0.22137103E+03 0.51099893E-03 0.0000E+00 0.9000E+01
       23  1    3    3    0    0 0.14910462E+03 -.48941832E+02 -.42005806E+02 0.18629876E+03 0.91188000E+02 0.0000E+00 0.9000E+01
        4  1    1    2  502    0 0.44536569E+03 0.34159156E+03 0.64220673E+03 0.85291692E+03 0.15500000E+01 0.0000E+00 0.9000E+01
#aMCatNLO 2  0  0  1  2 0.56128014D+03 0.00000000D+00  -5  7  0 0.00000000D+00 0.00000000D+00 0.00000000D+00 0.00000000D+00 0.00000000D+00
  <mgrwgt>
 0.1581420810D-04    1    2    0
 0.454671372577941D+03 0.000000000000000D+00 0.000000000000000D+00 0.454671372577941D+03
 0.454671372577941D+03 0.000000000000000D+00 0.000000000000000D+00 -.454671372577941D+03
 0.408755392259137D+03 -.374014032964597D+03 -.137237556990985D+03 0.435098936249450D+02
 0.243008536536959D+02 0.808938226360649D+01 -.163747469354703D+02 -.160300045443193D+02
 0.190940656354471D+03 0.108366370382126D+03 0.119371133393460D+03 -.102301498188642D+03
 0.285345842888578D+03 0.257558280318865D+03 0.342411705329958D+02 0.748216091080165D+02
 0.000000000000000D+00 0.000000000000000D+00 0.000000000000000D+00 0.000000000000000D+00
 0.193904679430058D+04 0.000000000000000D+00 0.000000000000000D+00 0.193904679430058D+04
 0.590374412518510D+03 0.000000000000000D+00 0.000000000000000D+00 -.590374412518510D+03
 0.715082033393272D+03 -.627062130190301D+03 -.331323214649131D+03 0.435098936249450D+02
 0.307464012208699D+02 -.430529581487166D+01 -.258813556501636D+02 -.160300045443193D+02
 0.126468659198938D+03 0.368971155689788D+02 0.645548456014401D+02 -.102301498188642D+03
 0.196318655457560D+03 0.149104617871285D+03 -.489418315616549D+02 0.748216091080165D+02
 0.146080545754845D+04 0.445365692564909D+03 0.341591556259510D+03 0.134867238178207D+04
0.554330740603D-04 0.000000000000D+00 0.000000000000D+00 0.635398614776D-05 0.935954152699D-10  7 21 3 -24 -11 11 23 4 2 0.15875450D+00 0.17067230D+00 0.60616423D+06 0.60616423D+06 0.60616423D+06 0.10626503D+01  1  2  1  3  7  1       -4 0.158142080975D-04 0.100000000000D+01
  </mgrwgt>
  </event>
  <event>
  9     66 0.26562228E-05 0.36160790E+03 0.75467711E-02 0.95537985E-01
       -2 -1    0    0    0  501 0.00000000E+00 0.00000000E+00 0.35967470E+03 0.35967485E+03 0.32000000E+00 0.0000E+00 0.9000E+01
        1 -1    0    0  502    0 0.00000000E+00 0.00000000E+00 -.90235083E+03 0.90235089E+03 0.32000000E+00 0.0000E+00 0.9000E+01
       25  2    1    2    0    0 0.26499639E+03 -.25915522E+03 -.56055982E+03 0.73552090E+03 0.29896350E+03 0.0000E+00 0.0000E+00
       23  2    3    3    0    0 0.18409532E+03 -.55427554E+02 -.13600716E+03 0.24909500E+03 0.81160778E+02 0.0000E+00 0.0000E+00
      -24  1    1    2    0    0 -.84689795E+02 0.28765526E+03 0.10023917E+03 0.32624074E+03 0.80419002E+02 0.0000E+00 0.9000E+01
      -13  1    4    4    0    0 0.34224338E+02 -.35389313E+01 0.74910955E+01 0.35213023E+02 0.10565837E+00 0.0000E+00 0.9000E+01
       13  1    4    4    0    0 0.14987099E+03 -.51888622E+02 -.14349825E+03 0.21388198E+03 0.10565837E+00 0.0000E+00 0.9000E+01
       23  1    3    3    0    0 0.80901065E+02 -.20372766E+03 -.42455266E+03 0.48642590E+03 0.91188000E+02 0.0000E+00 0.9000E+01
       21  1    1    2  502  501 -.18030659E+03 -.28500045E+02 -.82355477E+02 0.20026409E+03 0.75000000E+00 0.0000E+00 0.9000E+01
#aMCatNLO 2  0  0  2  2 0.18254512D+03 0.00000000D+00  -5  7  0 0.00000000D+00 0.00000000D+00 0.00000000D+00 0.00000000D+00 0.00000000D+00
  <mgrwgt>
 0.4352024879D-03    1    2    0
 0.469606208568898D+03 0.000000000000000D+00 0.000000000000000D+00 0.469606208568898D+03
 0.469606208568898D+03 0.000000000000000D+00 0.000000000000000D+00 -.469606208568898D+03
 0.425467120006335D+03 -.164166148252209D+03 0.275092882789825D+03 0.268194772243106D+03
 0.370160761677175D+02 0.266451477423767D+02 -.473681815398073D+01 0.252544758491897D+02
 0.144262088693202D+03 0.120146098745637D+03 -.565871801456314D+02 -.563414255543356D+02
 0.332467132270542D+03 0.173749017641955D+02 -.213768884490213D+03 -.237107822537960D+03
 0.000000000000000D+00 -.000000000000000D+00 -.000000000000000D+00 0.000000000000000D+00
 0.572179089970662D+03 0.000000000000000D+00 0.000000000000000D+00 0.572179089970662D+03
 0.567221036784282D+03 0.000000000000000D+00 0.000000000000000D+00 -.567221036784282D+03
 0.410260359582462D+03 -.846897953584042D+02 0.287655261370239D+03 0.268194772243106D+03
 0.426802515966977D+02 0.342241416422320D+02 -.353884935996916D+01 0.252544758491897D+02
 0.168309728595330D+03 0.149871180979027D+03 -.518887041492713D+02 -.563414255543356D+02
 0.335537350460926D+03 0.809010646592241D+02 -.203727662428668D+03 -.237107822537960D+03
 0.182612436519529D+03 -.180306591922079D+03 -.285000454323300D+02 0.495805318637954D+01
0.583068256731D-04 0.000000000000D+00 0.000000000000D+00 0.315722619268D-07 0.624720485288D-11  7 -2 1 -24 -13 13 23 21 2 0.55334510D-01 0.13882303D+00 0.21317813D+06 0.21317813D+06 0.21317813D+06 0.10957033D+01  1  2  1  2  7  2        1 0.435202487875D-03 0.100000000000D+01
  </mgrwgt>
  </event>
  <event>
  8     66 0.26562228E-05 0.25992155E+03 0.75467711E-02 0.95223108E-01
       -2 -1    0    0    0  501 0.00000000E+00 0.00000000E+00 0.22909352E+03 0.22909374E+03 0.32000000E+00 0.0000E+00 0.9000E+01
        1 -1    0    0  501    0 0.00000000E+00 0.00000000E+00 -.59372766E+03 0.59372775E+03 0.32000000E+00 0.0000E+00 0.9000E+01
       25  2    1    2    0    0 -.11706950E+03 0.15364862E+03 -.46898203E+03 0.58900775E+03 0.29945420E+03 0.0000E+00 0.0000E+00
       23  2    3    3    0    0 -.40340238E+02 -.55777503E+02 -.16960557E+03 0.20470553E+03 0.91650641E+02 0.0000E+00 0.0000E+00
      -24  1    1    2    0    0 0.11706950E+03 -.15364862E+03 0.10434789E+03 0.23381374E+03 0.80419002E+02 0.0000E+00 0.9000E+01
      -11  1    4    4    0    0 -.10363837E+02 -.22999991E+02 0.39692914E+01 0.25537501E+02 0.51099893E-03 0.0000E+00 0.9000E+01
       11  1    4    4    0    0 -.29976401E+02 -.32777512E+02 -.17357486E+03 0.17916803E+03 0.51099893E-03 0.0000E+00 0.9000E+01
       23  1    3    3    0    0 -.76729262E+02 0.20942612E+03 -.29937646E+03 0.38430222E+03 0.91188000E+02 0.0000E+00 0.9000E+01
#aMCatNLO 1  0  0  2  2 0.32506494D+03 0.00000000D+00  -5  7  0 0.00000000D+00 0.00000000D+00 0.00000000D+00 0.00000000D+00 0.00000000D+00
  <mgrwgt>
 0.1248104378D-02    3    2    0
 0.368807929326153D+03 0.000000000000000D+00 0.000000000000000D+00 0.368807929326153D+03
 0.368807929326153D+03 0.000000000000000D+00 0.000000000000000D+00 -.368807929326153D+03
 0.312406210642062D+03 0.117069500355337D+03 -.153648622425251D+03 0.231985468093880D+03
 0.304496493026041D+02 -.103638371286358D+02 -.229999908749158D+02 0.170520509727270D+02
 0.114059349806669D+03 -.299764008578797D+02 -.327775116669319D+02 -.105055154080378D+03
 0.280700648900971D+03 -.767292623688210D+02 0.209426124967099D+03 -.143982364986229D+03
 0.000000000000000D+00 -.000000000000000D+00 0.000000000000000D+00 0.000000000000000D+00
 0.832889440327014D+03 0.000000000000000D+00 0.000000000000000D+00 0.832889440327014D+03
 0.464488645421707D+03 0.000000000000000D+00 0.000000000000000D+00 -.464488645421707D+03
 0.424022449155229D+03 0.178598580396408D+03 -.295995120072745D+03 0.231985468093880D+03
 0.407672772410231D+02 -.441361789791206D+01 -.367657235522597D+02 0.170520509727270D+02
 0.132661915263207D+03 -.936268320259802D+01 -.804670027135228D+02 -.105055154080378D+03
 0.208615583309311D+03 -.358465818586011D+02 0.114844727338747D+03 -.143982364986229D+03
 0.491310860779951D+03 -.128975697437297D+03 0.298383118999781D+03 0.368400794905307D+03
0.425592681003D-04 0.000000000000D+00 0.000000000000D+00 0.300118349436D-05 0.000000000000D+00  7 -2 1 -24 -11 11 23 21 0 0.35245181D-01 0.91342741D-01 0.67559213D+05 0.67559213D+05 0.67559213D+05 0.11359723D+01  1  2  2  2  7  2        1 0.122481575209D-02 0.100000000000D+01
-.201245341738D-05 0.000000000000D+00 -.163438795618D-06 0.300118349436D-05 0.000000000000D+00  7 -2 1 -24 -11 11 23 21 2 0.35245181D-01 0.91342741D-01 0.67559213D+05 0.67559213D+05 0.67559213D+05 0.11359723D+01  1  2  3  2  7  2        1 -.747373844067D-04 0.100000000000D+01
0.263954620347D-05 0.000000000000D+00 0.000000000000D+00 0.300118349436D-05 0.000000000000D+00  7 -2 1 -24 -11 11 23 21 2 0.35245181D-01 0.91342741D-01 0.67559213D+05 0.67559213D+05 0.67559213D+05 0.11359723D+01  1  2 15  2  7  2        1 0.980260102240D-04 0.100000000000D+01
  </mgrwgt>
  </event>
  <event>
  8     66 0.26562228E-05 0.24546215E+03 0.75467711E-02 0.96296507E-01
       -2 -1    0    0    0  501 0.00000000E+00 0.00000000E+00 0.13005117E+03 0.13005156E+03 0.32000000E+00 0.0000E+00 0.9000E+01
        1 -1    0    0  501    0 0.00000000E+00 0.00000000E+00 -.67142944E+03 0.67142952E+03 0.32000000E+00 0.0000E+00 0.9000E+01
       25  2    1    2    0    0 -.18228386E+03 0.42700171E+01 -.47648008E+03 0.59189904E+03 0.30010926E+03 0.0000E+00 0.0000E+00
       23  2    3    3    0    0 -.45645822E+02 -.86050996E+02 -.32544676E+03 0.35116235E+03 0.88944304E+02 0.0000E+00 0.0000E+00
      -24  1    1    2    0    0 0.18228386E+03 -.42700171E+01 -.64898189E+02 0.20958204E+03 0.80419002E+02 0.0000E+00 0.9000E+01
      -11  1    4    4    0    0 -.18561910E+02 -.70595606E+02 -.30560462E+03 0.31420132E+03 0.51099893E-03 0.0000E+00 0.9000E+01
       11  1    4    4    0    0 -.27083912E+02 -.15455389E+02 -.19842132E+02 0.36961027E+02 0.51099893E-03 0.0000E+00 0.9000E+01
       23  1    3    3    0    0 -.13663804E+03 0.90321013E+02 -.15103333E+03 0.24073670E+03 0.91188000E+02 0.0000E+00 0.9000E+01
#aMCatNLO 1  0  0  2  2 0.28396037D+03 0.00000000D+00  -5  7  0 0.00000000D+00 0.00000000D+00 0.00000000D+00 0.00000000D+00 0.00000000D+00
  <mgrwgt>
 0.9881479789D-03    5    2    0
 0.295500205816174D+03 0.000000000000000D+00 0.000000000000000D+00 0.295500205816174D+03
 0.295500205816174D+03 0.000000000000000D+00 0.000000000000000D+00 -.295500205816174D+03
 0.224774068482342D+03 0.182283860696835D+03 -.427001710665332D+01 0.103973684127763D+03
 0.146156768892551D+03 -.185619104694306D+02 -.705956062985100D+02 -.126623524450164D+03
 0.319483109145823D+02 -.270839117771629D+02 -.154553893647998D+02 0.694890154802209D+01
 0.188121263342872D+03 -.136638038450241D+03 0.903210127699632D+02 0.157009387743785D+02
 0.000000000000000D+00 -.000000000000000D+00 0.000000000000000D+00 -.000000000000000D+00
 0.422678178489621D+03 0.000000000000000D+00 0.000000000000000D+00 0.422678178489621D+03
 0.540393866191454D+03 0.000000000000000D+00 0.000000000000000D+00 -.540393866191454D+03
 0.325206711358345D+03 0.289221456493934D+03 -.695169854824512D+02 0.103973684127763D+03
 0.172205538102532D+03 0.433400703822164D+02 -.108364517754964D+03 -.126623524450164D+03
 0.282038200900526D+02 -.153880043791424D+02 -.225915372689741D+02 0.694890154802209D+01
 0.130062949292827D+03 -.747706860498338D+02 0.525732295373686D+02 0.157009387743785D+02
 0.307393025837319D+03 -.242402836447174D+03 0.147899810969020D+03 -.117715687701833D+03
0.157690249144D-04 0.000000000000D+00 0.000000000000D+00 0.925800124907D-06 0.000000000000D+00  7 -2 1 -24 -11 11 23 21 0 0.20007908D-01 0.10329687D+00 0.60251665D+05 0.60251665D+05 0.60251665D+05 0.11402382D+01  1  2  2  2  7  2        1 0.100445711158D-02 0.100000000000D+01
-.839394015756D-06 0.000000000000D+00 -.605572077509D-07 0.925800124907D-06 0.000000000000D+00  7 -2 1 -24 -11 11 23 21 2 0.20007908D-01 0.10329687D+00 0.60251665D+05 0.60251665D+05 0.60251665D+05 0.11402382D+01  1  2  3  2  7  2        1 -.695158093689D-04 0.100000000000D+01
0.100945063380D-05 0.000000000000D+00 0.000000000000D+00 0.925800124907D-06 0.000000000000D+00  7 -2 1 -24 -11 11 23 21 2 0.20007908D-01 0.10329687D+00 0.60251665D+05 0.60251665D+05 0.60251665D+05 0.11402382D+01  1  2 15  2  7  2        1 0.835993305997D-04 0.100000000000D+01
-.174259457037D-05 0.000000000000D+00 -.485837836572D-05 0.925800124907D-06 0.000000000000D+00  7 -2 1 -24 -11 11 23 21 2 0.20007908D-01 0.23704619D+00 0.60251665D+05 0.60251665D+05 0.60251665D+05 0.11402382D+01  1  2  5  2  7  2        1 -.326476504350D-04 0.100000000000D+01
0.149860004240D-06 0.000000000000D+00 -.439088737302D-06 0.925800124907D-06 0.000000000000D+00  7 -2 21 -24 -11 11 23 -1 2 0.20007908D-01 0.23704619D+00 0.60251665D+05 0.60251665D+05 0.60251665D+05 0.11402382D+01  1  2  5  4  7  2        1 0.225499648281D-05 0.100000000000D+01
  </mgrwgt>
  </event>
  <event>
  8     66 0.26562228E-05 0.18054412E+03 0.75467711E-02 0.97264598E-01
       -2 -1    0    0    0  501 0.00000000E+00 0.00000000E+00 0.11223143E+03 0.11223188E+03 0.32000000E+00 0.0000E+00 0.9000E+01
        1 -1    0    0  501    0 0.00000000E+00 0.00000000E+00 -.28404561E+04 0.28404562E+04 0.32000000E+00 0.0000E+00 0.9000E+01
       25  2    1    2    0    0 -.24904702E+03 -.12037477E+03 -.26093758E+04 0.26410684E+04 0.29980990E+03 0.0000E+00 0.0000E+00
       23  2    3    3    0    0 -.18830377E+03 0.25398513E+02 -.10406179E+04 0.10617471E+04 0.91201505E+02 0.0000E+00 0.0000E+00
      -24  1    1    2    0    0 0.24904702E+03 0.12037477E+03 -.11884896E+03 0.31161963E+03 0.80419002E+02 0.0000E+00 0.9000E+01
      -11  1    4    4    0    0 -.14019143E+03 0.55106981E+02 -.66139688E+03 0.67833344E+03 0.51099893E-03 0.0000E+00 0.9000E+01
       11  1    4    4    0    0 -.48112339E+02 -.29708468E+02 -.37922107E+03 0.38341363E+03 0.51099893E-03 0.0000E+00 0.9000E+01
       23  1    3    3    0    0 -.60743253E+02 -.14577328E+03 -.15687578E+04 0.15793213E+04 0.91188000E+02 0.0000E+00 0.9000E+01
#aMCatNLO 1  0  0  2  1 0.10579558D+03 0.00000000D+00  -5  7  0 0.00000000D+00 0.00000000D+00 0.00000000D+00 0.00000000D+00 0.00000000D+00
  <mgrwgt>
 0.1799361355D-02    9    2    0
 0.564614152363996D+03 0.000000000000000D+00 0.000000000000000D+00 0.564614152363996D+03
 0.564614152363996D+03 0.000000000000000D+00 0.000000000000000D+00 -.564614152363996D+03
 0.527677972163090D+03 0.249047023265787D+03 0.120374768452155D+03 0.442111209623010D+03
 0.175755165426651D+03 -.140191431727079D+03 0.551069811624921D+02 -.905508767026456D+02
 0.863426262083148D+02 -.481123387706157D+02 -.297084676903817D+02 -.652507387395715D+02
 0.339452540929936D+03 -.607432527680922D+02 -.145773281924265D+03 -.286309594180793D+03
 0.000000000000000D+00 -.000000000000000D+00 -.000000000000000D+00 -.000000000000000D+00
 0.589305746539426D+03 0.000000000000000D+00 0.000000000000000D+00 0.589305746539426D+03
 0.693022581389919D+03 0.000000000000000D+00 0.000000000000000D+00 -.693022581389919D+03
 0.555191690155724D+03 0.298494777035776D+03 0.131183624251047D+03 0.442111209623010D+03
 0.164796024243636D+03 -.124640630038875D+03 0.585062533273480D+02 -.905508767026456D+02
 0.817227673198890D+02 -.404378637293229D+02 -.280308931247221D+02 -.652507387395715D+02
 0.332462904153963D+03 -.300611581089667D+02 -.139066438609984D+03 -.286309594180793D+03
 0.148154942056132D+03 -.103355125158612D+03 -.225925458436883D+02 -.103716834850493D+03
0.523979365103D-03 0.000000000000D+00 0.000000000000D+00 0.271000020695D-04 0.000000000000D+00  7 -2 1 -24 -11 11 23 21 0 0.17266410D-01 0.43699329D+00 0.11478661D+06 0.11478661D+06 0.11478661D+06 0.11168402D+01  1  2  2  2  7  2        1 0.125975678270D-02 0.100000000000D+01
-.198778385513D-04 0.000000000000D+00 -.201221872893D-05 0.271000020695D-04 0.000000000000D+00  7 -2 1 -24 -11 11 23 21 2 0.17266410D-01 0.43699329D+00 0.11478661D+06 0.11478661D+06 0.11478661D+06 0.11168402D+01  1  2  3  2  7  2        1 -.596106320197D-04 0.100000000000D+01
0.321823466054D-04 0.000000000000D+00 0.000000000000D+00 0.271000020695D-04 0.000000000000D+00  7 -2 1 -24 -11 11 23 21 2 0.17266410D-01 0.43699329D+00 0.11478661D+06 0.11478661D+06 0.11478661D+06 0.11168402D+01  1  2 15  2  7  2        1 0.965099910676D-04 0.100000000000D+01
0.631248688927D-03 0.000000000000D+00 0.000000000000D+00 0.271000020695D-04 0.000000000000D+00  7 -2 1 -24 -11 11 23 21 2 0.17266410D-01 0.54439187D+00 0.15900184D+06 0.15900184D+06 0.15900184D+06 0.11055600D+01  1  2 12  2  7  2        1 0.530667421377D-03 0.100000000000D+01
-.695505994219D-03 0.000000000000D+00 0.000000000000D+00 0.271000020695D-04 0.000000000000D+00  7 -2 1 -24 -11 11 23 21 2 0.17266410D-01 0.43699329D+00 0.11478661D+06 0.11478661D+06 0.11478661D+06 0.11168402D+01  1  2  4  2  7  2        1 -.208571730684D-02 0.100000000000D+01
-.940860817257D-03 0.000000000000D+00 -.221676188538D-03 0.271000020695D-04 0.000000000000D+00  7 -2 1 -24 -11 11 23 21 2 0.17266410D-01 0.54173406D+00 0.11478661D+06 0.11478661D+06 0.11478661D+06 0.11168402D+01  1  2  5  2  7  2        1 -.853154539708D-03 0.100000000000D+01
0.971010600538D-03 0.000000000000D+00 0.216656098323D-03 0.271000020695D-04 0.000000000000D+00  7 -2 1 -24 -11 11 23 21 2 0.17266410D-01 0.43699329D+00 0.11478661D+06 0.11478661D+06 0.11478661D+06 0.11168402D+01  1  2  6  2  7  2        1 0.291191396120D-02 0.100000000000D+01
0.194052515518D-04 0.000000000000D+00 0.000000000000D+00 0.271000020695D-04 0.000000000000D+00  7 -2 21 -24 -11 11 23 -1 2 0.17266410D-01 0.54439187D+00 0.15900184D+06 0.15900184D+06 0.15900184D+06 0.11055600D+01  1  2 12  4  7  2        1 0.213071163740D-05 0.100000000000D+01
-.255497960974D-04 0.000000000000D+00 -.669961484438D-05 0.271000020695D-04 0.000000000000D+00  7 -2 21 -24 -11 11 23 -1 2 0.17266410D-01 0.54173406D+00 0.11478661D+06 0.11478661D+06 0.11478661D+06 0.11168402D+01  1  2  5  4  7  2        1 -.313503432910D-05 0.100000000000D+01
  </mgrwgt>
  </event>
  <event>
  8     66 0.26562228E-05 0.19617461E+03 0.75467711E-02 0.98386929E-01
       -2 -1    0    0    0  501 0.00000000E+00 0.00000000E+00 0.12910268E+03 0.12910308E+03 0.32000000E+00 0.0000E+00 0.9000E+01
        1 -1    0    0  501    0 0.00000000E+00 0.00000000E+00 -.55132980E+03 0.55132990E+03 0.32000000E+00 0.0000E+00 0.9000E+01
       25  2    1    2    0    0 0.62468007E+02 0.48929495E+01 -.47542884E+03 0.56543806E+03 0.29960211E+03 0.0000E+00 0.0000E+00
       23  2    3    3    0    0 0.10145773E+03 -.88487640E+02 -.20361550E+03 0.26140208E+03 0.93530967E+02 0.0000E+00 0.0000E+00
      -24  1    1    2    0    0 -.62468007E+02 -.48929495E+01 0.53201720E+02 0.11499492E+03 0.80419002E+02 0.0000E+00 0.9000E+01
      -11  1    4    4    0    0 0.10110753E+03 -.10026929E+03 -.15127875E+03 0.20775448E+03 0.51099893E-03 0.0000E+00 0.9000E+01
       11  1    4    4    0    0 0.35019813E+00 0.11781646E+02 -.52336748E+02 0.53647600E+02 0.51099893E-03 0.0000E+00 0.9000E+01
       23  1    3    3    0    0 -.38989723E+02 0.93380589E+02 -.27181334E+03 0.30403598E+03 0.91188000E+02 0.0000E+00 0.9000E+01
#aMCatNLO 1  0  0  1  2 0.27522377D+03 0.00000000D+00  -5  7  0 0.00000000D+00 0.00000000D+00 0.00000000D+00 0.00000000D+00 0.00000000D+00
  <mgrwgt>
 0.1304061031D-02    3    2    0
 0.266792661207186D+03 0.000000000000000D+00 0.000000000000000D+00 0.266792661207186D+03
 0.266792661207186D+03 0.000000000000000D+00 0.000000000000000D+00 -.266792661207186D+03
 0.188741220592662D+03 -.624680072208331D+02 -.489294952819366D+01 0.158839036496731D+03
 0.145223272379059D+03 0.101107531758428D+03 -.100269285607054D+03 -.285155435868254D+02
 0.269977478991172D+02 0.350198137510336D+00 0.117816459251385D+02 -.242888569550615D+02
 0.172623081543532D+03 -.389897226751050D+02 0.933805892101088D+02 -.106034635954844D+03
 0.000000000000000D+00 -.000000000000000D+00 0.000000000000000D+00 -.000000000000000D+00
 0.431912720881306D+03 0.000000000000000D+00 0.000000000000000D+00 0.431912720881306D+03
 0.443958938061047D+03 0.000000000000000D+00 0.000000000000000D+00 -.443958938061047D+03
 0.189672847292203D+03 0.693903173298904D+01 -.650429348120117D+02 0.158839036496731D+03
 0.236686080498335D+03 0.171155660466093D+03 -.160974856316219D+03 -.285155435868254D+02
 0.265341798724991D+02 0.101687881727207D+02 0.327259475356096D+01 -.242888569550615D+02
 0.147491284929438D+03 0.197242422354901D+02 0.424975061891406D+02 -.106034635954844D+03
 0.275487266349877D+03 -.207987722607293D+03 0.180247690185529D+03 -.120462171797407D+02
0.149879097418D-04 0.000000000000D+00 0.000000000000D+00 0.670121062551D-06 0.000000000000D+00  7 -2 1 -24 -11 11 23 21 0 0.19861989D-01 0.84820007D-01 0.38484477D+05 0.38484477D+05 0.38484477D+05 0.11574313D+01  1  2  2  1  7  1       -2 0.128156267482D-02 0.100000000000D+01
-.736954100189D-06 0.000000000000D+00 -.575575198158D-07 0.670121062551D-06 0.000000000000D+00  7 -2 1 -24 -11 11 23 21 2 0.19861989D-01 0.84820007D-01 0.38484477D+05 0.38484477D+05 0.38484477D+05 0.11574313D+01  1  2  3  1  7  1       -2 -.844169552328D-04 0.100000000000D+01
0.933363173613D-06 0.000000000000D+00 0.000000000000D+00 0.670121062551D-06 0.000000000000D+00  7 -2 1 -24 -11 11 23 21 2 0.19861989D-01 0.84820007D-01 0.38484477D+05 0.38484477D+05 0.38484477D+05 0.11574313D+01  1  2 15  1  7  1       -2 0.106915311581D-03 0.100000000000D+01
  </mgrwgt>
  </event>
  <event>
  8     66 0.26562228E-05 0.23419973E+03 0.75467711E-02 0.93784685E-01
       -2 -1    0    0    0  501 0.00000000E+00 0.00000000E+00 0.98477327E+02 0.98477847E+02 0.32000000E+00 0.0000E+00 0.9000E+01
        1 -1    0    0  501    0 0.00000000E+00 0.00000000E+00 -.35140100E+04 0.35140100E+04 0.32000000E+00 0.0000E+00 0.9000E+01
       25  2    1    2    0    0 -.20184589E+03 0.42447018E+03 -.26697285E+04 0.27272717E+04 0.29940536E+03 0.0000E+00 0.0000E+00
       23  2    3    3    0    0 -.33801230E+02 0.18519450E+03 -.61128362E+03 0.64616557E+03 0.91775539E+02 0.0000E+00 0.0000E+00
      -24  1    1    2    0    0 0.20184589E+03 -.42447018E+03 -.74580414E+03 0.88521620E+03 0.80419002E+02 0.0000E+00 0.9000E+01
      -13  1    4    4    0    0 0.19613814E+02 0.98456993E+02 -.21971802E+03 0.24156676E+03 0.10565837E+00 0.0000E+00 0.9000E+01
       13  1    4    4    0    0 -.53415044E+02 0.86737505E+02 -.39156561E+03 0.40459881E+03 0.10565837E+00 0.0000E+00 0.9000E+01
       23  1    3    3    0    0 -.16804466E+03 0.23927568E+03 -.20584449E+04 0.20811061E+04 0.91188000E+02 0.0000E+00 0.9000E+01
#aMCatNLO 1  0  0  1  2 0.89116677D+02 0.00000000D+00  -5  7  0 0.00000000D+00 0.00000000D+00 0.00000000D+00 0.00000000D+00 0.00000000D+00
  <mgrwgt>
 0.7481297152D-03    9    2    0
 0.588261233697304D+03 0.000000000000000D+00 0.000000000000000D+00 0.588261233697304D+03
 0.588261233697304D+03 0.000000000000000D+00 0.000000000000000D+00 -.588261233697304D+03
 0.552912843169224D+03 0.201845892518388D+03 -.424470175858485D+03 0.279872652589043D+03
 0.103867899941885D+03 0.196139106170650D+02 0.984570082858589D+02 0.266468134688102D+02
 0.105568039072531D+03 -.534151406935460D+02 0.867374891024631D+02 -.277135635115422D+02
 0.414173685210968D+03 -.168044662441907D+03 0.239275678470163D+03 -.278805902546311D+03
 0.000000000000000D+00 0.000000000000000D+00 0.000000000000000D+00 0.000000000000000D+00
 0.655969505681846D+03 0.000000000000000D+00 0.000000000000000D+00 0.655969505681846D+03
 0.620018342743595D+03 0.000000000000000D+00 0.000000000000000D+00 -.620018342743595D+03
 0.575743520547738D+03 0.181854470897784D+03 -.462183551465858D+03 0.279872652589043D+03
 0.968804319132103D+02 0.160581387534913D+02 0.917491231534244D+02 0.266468134688102D+02
 0.101960536489699D+03 -.570910081991567D+02 0.798030461922523D+02 -.277135635115422D+02
 0.405308259719606D+03 -.182559805933082D+03 0.211893180673538D+03 -.278805902546311D+03
 0.960950997551879D+02 0.417382044809636D+02 0.787382014466431D+02 0.359511629382505D+02
0.652970169125D-03 0.000000000000D+00 0.000000000000D+00 0.795632243660D-05 0.000000000000D+00  7 -2 1 -24 -13 13 23 21 0 0.15150399D-01 0.54061697D+00 0.24274564D+06 0.24274564D+06 0.24274564D+06 0.10914225D+01  1  2  2  1  7  1       -2 0.565382126289D-03 0.100000000000D+01
-.348898332505D-04 0.000000000000D+00 -.250757738043D-05 0.795632243660D-05 0.000000000000D+00  7 -2 1 -24 -13 13 23 21 2 0.15150399D-01 0.54061697D+00 0.24274564D+06 0.24274564D+06 0.24274564D+06 0.10914225D+01  1  2  3  1  7  1       -2 -.359859876936D-04 0.100000000000D+01
0.416865075715D-04 0.000000000000D+00 0.000000000000D+00 0.795632243660D-05 0.000000000000D+00  7 -2 1 -24 -13 13 23 21 2 0.15150399D-01 0.54061697D+00 0.24274564D+06 0.24274564D+06 0.24274564D+06 0.10914225D+01  1  2 15  1  7  1       -2 0.429961971354D-04 0.100000000000D+01
0.825493498219D-03 0.000000000000D+00 0.000000000000D+00 0.795632243660D-05 0.000000000000D+00  7 -2 1 -24 -13 13 23 21 2 0.17267219D-01 0.54061697D+00 0.29036186D+06 0.29036186D+06 0.29036186D+06 0.10856027D+01  1  2 12  1  7  1       -2 0.672464608117D-03 0.100000000000D+01
-.792034923198D-03 0.000000000000D+00 0.000000000000D+00 0.795632243660D-05 0.000000000000D+00  7 -2 1 -24 -13 13 23 21 2 0.15150399D-01 0.54061697D+00 0.24274564D+06 0.24274564D+06 0.24274564D+06 0.10914225D+01  1  2  4  1  7  1       -2 -.816918750929D-03 0.100000000000D+01
-.175883287132D-02 0.000000000000D+00 -.472895235829D-03 0.795632243660D-05 0.000000000000D+00  7 -2 1 -24 -13 13 23 21 2 0.18444611D-01 0.54061697D+00 0.24274564D+06 0.24274564D+06 0.24274564D+06 0.10914225D+01  1  2  5  1  7  1       -2 -.131520378115D-02 0.100000000000D+01
0.182543580686D-02 0.000000000000D+00 0.463887976369D-03 0.795632243660D-05 0.000000000000D+00  7 -2 1 -24 -13 13 23 21 2 0.15150399D-01 0.54061697D+00 0.24274564D+06 0.24274564D+06 0.24274564D+06 0.10914225D+01  1  2  6  1  7  1       -2 0.188278659888D-02 0.100000000000D+01
0.168294912566D-04 0.000000000000D+00 0.000000000000D+00 0.795632243660D-05 0.000000000000D+00  7 21 1 -24 -13 13 23 2 2 0.17267219D-01 0.54061697D+00 0.29036186D+06 0.29036186D+06 0.29036186D+06 0.10856027D+01  1  2 12  3  7  1       -2 0.176622850900D-03 0.100000000000D+01
-.444074478608D-04 0.000000000000D+00 -.133632720460D-04 0.795632243660D-05 0.000000000000D+00  7 21 1 -24 -13 13 23 2 2 0.18444611D-01 0.54061697D+00 0.24274564D+06 0.24274564D+06 0.24274564D+06 0.10914225D+01  1  2  5  3  7  1       -2 -.424014146306D-03 0.100000000000D+01
  </mgrwgt>
  </event>
  <event>
  8     66 0.26562228E-05 0.20098421E+03 0.75467711E-02 0.83671525E-01
       -2 -1    0    0    0  501 0.00000000E+00 0.00000000E+00 0.18541547E+03 0.18541575E+03 0.32000000E+00 0.0000E+00 0.9000E+01
        1 -1    0    0  501    0 0.00000000E+00 0.00000000E+00 -.31563765E+03 0.31563781E+03 0.32000000E+00 0.0000E+00 0.9000E+01
       25  2    1    2    0    0 0.29679160E+02 0.83298227E+02 0.14959795E+02 0.31299913E+03 0.29987533E+03 0.0000E+00 0.0000E+00
       23  2    3    3    0    0 0.81792333E+02 -.46100885E+02 0.55868989E+02 0.14139282E+03 0.89751364E+02 0.0000E+00 0.0000E+00
      -24  1    1    2    0    0 -.29679160E+02 -.83298227E+02 -.14518197E+03 0.18805443E+03 0.80419002E+02 0.0000E+00 0.9000E+01
      -11  1    4    4    0    0 -.73813639E+01 -.22296441E+02 0.41916397E+02 0.48047894E+02 0.51099893E-03 0.0000E+00 0.9000E+01
       11  1    4    4    0    0 0.89173697E+02 -.23804444E+02 0.13952593E+02 0.93344923E+02 0.51099893E-03 0.0000E+00 0.9000E+01
       23  1    3    3    0    0 -.52113173E+02 0.12939911E+03 -.40909195E+02 0.17160631E+03 0.91188000E+02 0.0000E+00 0.9000E+01
#aMCatNLO 1  0  0  1  2 0.14657612D+04 0.00000000D+00  -5  7  0 0.00000000D+00 0.00000000D+00 0.00000000D+00 0.00000000D+00 0.00000000D+00
  <mgrwgt>
 0.8149452148D-03    5    2    0
 0.241917782382904D+03 0.000000000000000D+00 0.000000000000000D+00 0.241917782382904D+03
 0.241917782382904D+03 0.000000000000000D+00 0.000000000000000D+00 -.241917782382904D+03
 0.155671541843642D+03 -.296791600655234D+02 -.832982269777610D+02 -.997344766155244D+02
 0.610393592216530D+02 -.738136386823896D+01 -.222964409688929D+02 0.563399286630301D+02
 0.100422016386645D+03 0.891736971770245D+02 -.238044444274979D+02 0.395724845370892D+02
 0.166702647313869D+03 -.521131732432621D+02 0.129399112374152D+03 0.382206341540507D+01
 0.000000000000000D+00 -.000000000000000D+00 0.000000000000000D+00 0.000000000000000D+00
 0.306766673258017D+04 0.000000000000000D+00 0.000000000000000D+00 0.306766673258017D+04
 0.100572177396460D+04 0.000000000000000D+00 0.000000000000000D+00 -.100572177396460D+04
 0.467093304658283D+03 0.408525946301755D+03 -.186731156143554D+03 -.997344766155244D+02
 0.188483799974287D+03 0.168194253687461D+03 -.637389074075612D+02 0.563399286630301D+02
 0.599860272808694D+03 0.581923531641255D+03 -.140111986224780D+03 0.395724845370892D+02
 0.288114599790806D+03 0.267916515755185D+03 0.538600379267101D+02 0.382206341540507D+01
 0.252983652931270D+04 -.142656024738565D+04 0.336722011849185D+03 0.206194495861557D+04
0.819504322674D-05 0.000000000000D+00 0.000000000000D+00 0.749407668433D-06 0.000000000000D+00  7 -2 1 -24 -11 11 23 21 0 0.28525491D-01 0.48559672D-01 0.40394653D+05 0.40394653D+05 0.40394653D+05 0.11555348D+01  1  2  2  1  7  1       -2 0.803630033528D-03 0.100000000000D+01
-.436258601688D-06 0.000000000000D+00 -.314711237951D-07 0.749407668433D-06 0.000000000000D+00  7 -2 1 -24 -11 11 23 21 2 0.28525491D-01 0.48559672D-01 0.40394653D+05 0.40394653D+05 0.40394653D+05 0.11555348D+01  1  2  3  1  7  1       -2 -.571235179531D-04 0.100000000000D+01
0.521857423020D-06 0.000000000000D+00 0.000000000000D+00 0.749407668433D-06 0.000000000000D+00  7 -2 1 -24 -11 11 23 21 2 0.28525491D-01 0.48559672D-01 0.40394653D+05 0.40394653D+05 0.40394653D+05 0.11555348D+01  1  2 15  1  7  1       -2 0.683317916426D-04 0.100000000000D+01
0.349282084672D-04 0.000000000000D+00 -.120927234706D-04 0.749407668433D-06 0.000000000000D+00  7 -2 1 -24 -11 11 23 21 2 0.64144380D+00 0.48559672D-01 0.40394653D+05 0.40394653D+05 0.40394653D+05 0.11555348D+01  1  2  5  1  7  1       -2 0.369075120345D-07 0.100000000000D+01
0.819109044127D-05 0.000000000000D+00 -.395702665513D-05 0.749407668433D-06 0.000000000000D+00  7 21 1 -24 -11 11 23 2 2 0.64144380D+00 0.48559672D-01 0.40394653D+05 0.40394653D+05 0.40394653D+05 0.11555348D+01  1  2  5  3  7  1       -2 0.700000738593D-07 0.100000000000D+01
  </mgrwgt>
  </event>
  <event>
  8     66 0.26562228E-05 0.15091670E+03 0.75467711E-02 0.99087386E-01
       -2 -1    0    0    0  501 0.00000000E+00 0.00000000E+00 0.42350195E+02 0.42351404E+02 0.32000000E+00 0.0000E+00 0.9000E+01
        1 -1    0    0  501    0 0.00000000E+00 0.00000000E+00 -.28182003E+04 0.28182003E+04 0.32000000E+00 0.0000E+00 0.9000E+01
       25  2    1    2    0    0 0.40524295E+02 0.27085401E+03 -.15981673E+04 0.16487729E+04 0.29884606E+03 0.0000E+00 0.0000E+00
       23  2    3    3    0    0 0.13096222E+03 0.20575743E+03 -.10621111E+04 0.10937160E+04 0.92991658E+02 0.0000E+00 0.0000E+00
      -24  1    1    2    0    0 -.40524295E+02 -.27085401E+03 -.11776827E+04 0.12117789E+04 0.80419002E+02 0.0000E+00 0.9000E+01
      -13  1    4    4    0    0 0.13445786E+03 0.20195713E+03 -.91825669E+03 0.94976890E+03 0.10565837E+00 0.0000E+00 0.9000E+01
       13  1    4    4    0    0 -.34956466E+01 0.38002985E+01 -.14385442E+03 0.14394710E+03 0.10565837E+00 0.0000E+00 0.9000E+01
       23  1    3    3    0    0 -.90437922E+02 0.65096580E+02 -.53605623E+03 0.55505686E+03 0.91188000E+02 0.0000E+00 0.9000E+01
#aMCatNLO 1  0  0  1  2 0.99314991D+01 0.00000000D+00  -5  7  0 0.00000000D+00 0.00000000D+00 0.00000000D+00 0.00000000D+00 0.00000000D+00
  <mgrwgt>
 0.3650520924D-03   11    2    0
 0.345475159290119D+03 0.000000000000000D+00 0.000000000000000D+00 0.345475159290119D+03
 0.345475159290119D+03 0.000000000000000D+00 0.000000000000000D+00 -.345475159290119D+03
 0.285527470894356D+03 -.405242946091966D+02 -.270854007798132D+03 -.738976908119342D+01
 0.243028074678131D+03 0.134458041504267D+03 0.201957384423905D+03 0.140319290637893D+02
 0.180181000479540D+02 -.349582429593113D+01 0.380004292447526D+01 -.172624104806427D+02
 0.144376672959797D+03 -.904379225991390D+02 0.650965804497521D+02 0.106202504980468D+02
 0.000000000000000D+00 -.000000000000000D+00 0.000000000000000D+00 0.000000000000000D+00
 0.356240557718005D+03 0.000000000000000D+00 0.000000000000000D+00 0.356240557718005D+03
 0.347809012301523D+03 0.000000000000000D+00 0.000000000000000D+00 -.347809012301523D+03
 0.288062610935935D+03 -.377683149230943D+02 -.273919326747227D+03 -.738976908119342D+01
 0.242186660732872D+03 0.136789396240951D+03 0.199364351577017D+03 0.140319290637893D+02
 0.179457484439430D+02 -.332302556907474D+01 0.360784876046042D+01 -.172624104806427D+02
 0.142826670878209D+03 -.890579709464318D+02 0.635617389662649D+02 0.106202504980468D+02
 0.130278790285677D+02 -.664008480235031D+01 0.738538744348479D+01 0.843154541648254D+01
0.589486654717D-04 0.000000000000D+00 0.000000000000D+00 0.323887147729D-06 0.000000000000D+00  7 -2 1 -24 -13 13 23 21 0 0.65155090D-02 0.43356937D+00 0.11465113D+06 0.11465113D+06 0.11465113D+06 0.11168817D+01  1  2  2  1  7  1       -2 0.670543157769D-03 0.100000000000D+01
-.327331777123D-05 0.000000000000D+00 -.226378396951D-06 0.323887147729D-06 0.000000000000D+00  7 -2 1 -24 -13 13 23 21 2 0.65155090D-02 0.43356937D+00 0.11465113D+06 0.11465113D+06 0.11465113D+06 0.11168817D+01  1  2  3  1  7  1       -2 -.464467435172D-04 0.100000000000D+01
0.379514880414D-05 0.000000000000D+00 0.000000000000D+00 0.323887147729D-06 0.000000000000D+00  7 -2 1 -24 -13 13 23 21 2 0.65155090D-02 0.43356937D+00 0.11465113D+06 0.11465113D+06 0.11465113D+06 0.11168817D+01  1  2 15  1  7  1       -2 0.538512651184D-04 0.100000000000D+01
0.150707236647D-03 0.000000000000D+00 0.000000000000D+00 0.323887147729D-06 0.000000000000D+00  7 -2 1 -24 -13 13 23 21 2 0.67401184D-02 0.43356937D+00 0.11799754D+06 0.11799754D+06 0.11799754D+06 0.11158713D+01  1  2 12  1  7  1       -2 0.202610644877D-02 0.100000000000D+01
-.152122153555D-03 0.000000000000D+00 0.000000000000D+00 0.323887147729D-06 0.000000000000D+00  7 -2 1 -24 -13 13 23 21 2 0.65155090D-02 0.43356937D+00 0.11465113D+06 0.11465113D+06 0.11465113D+06 0.11168817D+01  1  2  4  1  7  1       -2 -.215853734444D-02 0.100000000000D+01
-.167573491584D-02 0.000000000000D+00 -.196575578713D-03 0.323887147729D-06 0.000000000000D+00  7 -2 1 -24 -13 13 23 21 2 0.67757825D-02 0.43356937D+00 0.11465113D+06 0.11465113D+06 0.11465113D+06 0.11168817D+01  1  2  5  1  7  1       -2 -.224148070395D-01 0.100000000000D+01
0.168229469285D-02 0.000000000000D+00 0.196424876856D-03 0.323887147729D-06 0.000000000000D+00  7 -2 1 -24 -13 13 23 21 2 0.65155090D-02 0.43356937D+00 0.11465113D+06 0.11465113D+06 0.11465113D+06 0.11168817D+01  1  2  6  1  7  1       -2 0.238709210593D-01 0.100000000000D+01
0.168067321724D-11 0.000000000000D+00 0.000000000000D+00 0.323887147729D-06 0.218193315991D-07  7 -2 1 -24 -13 13 23 21 2 0.67185396D-02 0.43649834D+00 0.11799754D+06 0.11799754D+06 0.11799754D+06 0.11158713D+01  1  2 11  1  7  1       -2 0.220027739573D-10 0.100000000000D+01
0.361427015273D-05 0.000000000000D+00 0.000000000000D+00 0.323887147729D-06 0.000000000000D+00  7 21 1 -24 -13 13 23 2 2 0.67401184D-02 0.43356937D+00 0.11799754D+06 0.11799754D+06 0.11799754D+06 0.11158713D+01  1  2 12  3  7  1       -2 0.755320095199D-03 0.100000000000D+01
-.115075247270D-04 0.000000000000D+00 -.136254114460D-05 0.323887147729D-06 0.000000000000D+00  7 21 1 -24 -13 13 23 2 2 0.67757825D-02 0.43356937D+00 0.11465113D+06 0.11465113D+06 0.11465113D+06 0.11168817D+01  1  2  5  3  7  1       -2 -.239189883027D-02 0.100000000000D+01
0.102293987962D-13 0.000000000000D+00 0.000000000000D+00 0.323887147729D-06 0.120428720517D-09  7 21 1 -24 -13 13 23 2 2 0.67185396D-02 0.43649834D+00 0.11799754D+06 0.11799754D+06 0.11799754D+06 0.11158713D+01  1  2 11  3  7  1       -2 0.208283152530D-11 0.100000000000D+01
  </mgrwgt>
  </event>
  <event>
  8     66 0.26562228E-05 0.25758980E+03 0.75467711E-02 0.89620002E-01
       -2 -1    0    0    0  501 0.00000000E+00 0.00000000E+00 0.61652015E+03 0.61652023E+03 0.32000000E+00 0.0000E+00 0.9000E+01
        1 -1    0    0  501    0 0.00000000E+00 0.00000000E+00 -.23281184E+03 0.23281206E+03 0.32000000E+00 0.0000E+00 0.9000E+01
       25  2    1    2    0    0 -.18789907E+03 -.89564838E+02 0.48288313E+03 0.60513814E+03 0.29947976E+03 0.0000E+00 0.0000E+00
       23  2    3    3    0    0 -.14245008E+03 -.91365473E+02 0.46276325E+03 0.50126844E+03 0.92089892E+02 0.0000E+00 0.0000E+00
      -24  1    1    2    0    0 0.18789907E+03 0.89564838E+02 -.99174829E+02 0.24419415E+03 0.80419002E+02 0.0000E+00 0.9000E+01
      -13  1    4    4    0    0 -.42294333E+02 0.14197293E+02 0.77263750E+02 0.89219236E+02 0.10565837E+00 0.0000E+00 0.9000E+01
       13  1    4    4    0    0 -.10015575E+03 -.10556277E+03 0.38549950E+03 0.41204921E+03 0.10565837E+00 0.0000E+00 0.9000E+01
       23  1    3    3    0    0 -.45448990E+02 0.18006352E+01 0.20119882E+02 0.10386970E+03 0.91188000E+02 0.0000E+00 0.9000E+01
#aMCatNLO 1  0  0  2  2 0.73274403D+03 0.00000000D+00  -5  7  0 0.00000000D+00 0.00000000D+00 0.00000000D+00 0.00000000D+00 0.00000000D+00
  <mgrwgt>
 0.1327332858D-02    5    2    0
 0.378857913672102D+03 0.000000000000000D+00 0.000000000000000D+00 0.378857913672102D+03
 0.378857913672102D+03 0.000000000000000D+00 0.000000000000000D+00 -.378857913672102D+03
 0.323942267142343D+03 0.187899070505514D+03 0.895648375594625D+02 -.234826437317142D+03
 0.608801188415355D+02 -.422942563320452D+02 0.141974508275589D+02 0.414248372534859D+02
 0.266653451596964D+03 -.100155824506334D+03 -.105562923598860D+03 0.223448748547161D+03
 0.106239989763362D+03 -.454489896671349D+02 0.180063521183852D+01 -.300471484835051D+02
 0.000000000000000D+00 -.000000000000000D+00 -.000000000000000D+00 -.000000000000000D+00
 0.806076845314649D+03 0.000000000000000D+00 0.000000000000000D+00 0.806076845314649D+03
 0.100805776894904D+04 0.000000000000000D+00 0.000000000000000D+00 -.100805776894904D+04
 0.555359150562097D+03 0.224225880168610D+03 0.443323661852414D+03 -.234826437317142D+03
 0.941703493975875D+02 -.358886157468167D+02 0.765770515491635D+02 0.414248372534859D+02
 0.259499179448052D+03 -.784187431177834D+02 0.106117772473545D+03 0.223448748547161D+03
 0.145033502664021D+03 -.350680620932651D+02 0.102892494575784D+03 -.300471484835051D+02
 0.760072432191936D+03 -.748504592107446D+02 -.728910980450907D+03 -.201980923634396D+03
0.857009296875D-04 0.000000000000D+00 0.000000000000D+00 0.320492433480D-05 0.000000000000D+00  7 -2 1 -24 -13 13 23 21 0 0.94849276D-01 0.35817230D-01 0.66352507D+05 0.66352507D+05 0.66352507D+05 0.11366406D+01  1  2  2  2  7  2        1 0.114250135830D-02 0.100000000000D+01
-.389956844927D-05 0.000000000000D+00 -.329114135573D-06 0.320492433480D-05 0.000000000000D+00  7 -2 1 -24 -13 13 23 21 2 0.94849276D-01 0.35817230D-01 0.66352507D+05 0.66352507D+05 0.66352507D+05 0.11366406D+01  1  2  3  2  7  2        1 -.671636186264D-04 0.100000000000D+01
0.538172379873D-05 0.000000000000D+00 0.000000000000D+00 0.320492433480D-05 0.000000000000D+00  7 -2 1 -24 -13 13 23 21 2 0.94849276D-01 0.35817230D-01 0.66352507D+05 0.66352507D+05 0.66352507D+05 0.11366406D+01  1  2 15  2  7  2        1 0.926912937862D-04 0.100000000000D+01
0.777781764207D-04 0.000000000000D+00 -.380189338754D-04 0.320492433480D-05 0.000000000000D+00  7 -2 1 -24 -13 13 23 21 2 0.94849276D-01 0.17828958D+00 0.66352507D+05 0.66352507D+05 0.66352507D+05 0.11366406D+01  1  2  5  2  7  2        1 0.131310386450D-03 0.100000000000D+01
0.141626908926D-04 0.000000000000D+00 -.743494040659D-05 0.320492433480D-05 0.000000000000D+00  7 -2 21 -24 -13 13 23 -1 2 0.94849276D-01 0.17828958D+00 0.66352507D+05 0.66352507D+05 0.66352507D+05 0.11366406D+01  1  2  5  4  7  2        1 0.279934384613D-04 0.100000000000D+01
  </mgrwgt>
  </event>
  <event>
  8     66 0.26562228E-05 0.31524717E+03 0.75467711E-02 0.90996032E-01
       -2 -1    0    0    0  501 0.00000000E+00 0.00000000E+00 0.82114553E+02 0.82115176E+02 0.32000000E+00 0.0000E+00 0.9000E+01
        1 -1    0    0  501    0 0.00000000E+00 0.00000000E+00 -.15358558E+04 0.15358559E+04 0.32000000E+00 0.0000E+00 0.9000E+01
       25  2    1    2    0    0 -.19112081E+03 -.18479976E+03 -.61408647E+03 0.73356981E+03 0.30057339E+03 0.0000E+00 0.0000E+00
       23  2    3    3    0    0 0.42033446E+02 -.35893779E+02 -.21832379E+03 0.24216647E+03 0.89017678E+02 0.0000E+00 0.0000E+00
      -24  1    1    2    0    0 0.19112081E+03 0.18479976E+03 -.83965483E+03 0.88440124E+03 0.80419002E+02 0.0000E+00 0.9000E+01
      -11  1    4    4    0    0 0.31253343E+02 -.90648770E+01 -.20939074E+03 0.21190428E+03 0.51099893E-03 0.0000E+00 0.9000E+01
       11  1    4    4    0    0 0.10780104E+02 -.26828902E+02 -.89330546E+01 0.30262189E+02 0.51099893E-03 0.0000E+00 0.9000E+01
       23  1    3    3    0    0 -.23315426E+03 -.14890598E+03 -.39576268E+03 0.49140334E+03 0.91188000E+02 0.0000E+00 0.9000E+01
#aMCatNLO 1  0  0  2  2 0.55866194D+03 0.00000000D+00  -5  7  0 0.00000000D+00 0.00000000D+00 0.00000000D+00 0.00000000D+00 0.00000000D+00
  <mgrwgt>
 0.1121219521D-02    5    2    0
 0.355129057649449D+03 0.000000000000000D+00 0.000000000000000D+00 0.355129057649449D+03
 0.355129057649449D+03 0.000000000000000D+00 0.000000000000000D+00 -.355129057649449D+03
 0.296082108400986D+03 0.191120811613661D+03 0.184799759391873D+03 -.102563557161617D+03
 0.541423340669907D+02 0.312533426778174D+02 -.906487698829228D+01 -.432718027689125D+02
 0.506534096418384D+02 0.107801037282279D+02 -.268289017870847D+02 0.415904712746983D+02
 0.309380263189083D+03 -.233154258019706D+03 -.148905980616496D+03 0.104244888655831D+03
 0.000000000000000D+00 0.000000000000000D+00 0.000000000000000D+00 -.000000000000000D+00
 0.561408825782356D+03 0.000000000000000D+00 0.000000000000000D+00 0.561408825782356D+03
 0.116381608505355D+04 0.000000000000000D+00 0.000000000000000D+00 -.116381608505355D+04
 0.189187181174103D+03 0.134519071367642D+03 0.266441315672959D+02 -.102563557161617D+03
 0.673136570090256D+02 0.170867333211302D+02 -.486489778872039D+02 -.432718027689125D+02
 0.814563623045049D+02 -.462916109917399D+01 -.698852096408758D+02 0.415904712746983D+02
 0.565685292068120D+03 -.335221778715845D+03 -.434101325247818D+03 0.104244888655831D+03
 0.821582418280155D+03 0.188245135126248D+03 0.525991381208602D+03 -.602407259271198D+03
0.369938804350D-04 0.000000000000D+00 0.000000000000D+00 0.575243394815D-06 0.000000000000D+00  7 -2 1 -24 -11 11 23 21 0 0.12633059D-01 0.23628557D+00 0.99380780D+05 0.99380780D+05 0.99380780D+05 0.11219435D+01  1  2  2  2  7  2        1 0.110919008129D-02 0.100000000000D+01
-.201975553228D-05 0.000000000000D+00 -.142066241583D-06 0.575243394815D-06 0.000000000000D+00  7 -2 1 -24 -11 11 23 21 2 0.12633059D-01 0.23628557D+00 0.99380780D+05 0.99380780D+05 0.99380780D+05 0.11219435D+01  1  2  3  2  7  2        1 -.762284086783D-04 0.100000000000D+01
0.233915249859D-05 0.000000000000D+00 0.000000000000D+00 0.575243394815D-06 0.000000000000D+00  7 -2 1 -24 -11 11 23 21 2 0.12633059D-01 0.23628557D+00 0.99380780D+05 0.99380780D+05 0.99380780D+05 0.11219435D+01  1  2 15  2  7  2        1 0.882828984860D-04 0.100000000000D+01
-.140026242663D-05 0.000000000000D+00 -.105306937126D-04 0.575243394815D-06 0.000000000000D+00  7 -2 1 -24 -11 11 23 21 2 0.12633059D-01 0.80934442D+00 0.99380780D+05 0.99380780D+05 0.99380780D+05 0.11219435D+01  1  2  5  2  7  2        1 -.251414006992D-07 0.100000000000D+01
0.166070962642D-06 0.000000000000D+00 -.151130668823D-05 0.575243394815D-06 0.000000000000D+00  7 -2 21 -24 -11 11 23 -1 2 0.12633059D-01 0.80934442D+00 0.99380780D+05 0.99380780D+05 0.99380780D+05 0.11219435D+01  1  2  5  4  7  2        1 0.908341300279D-10 0.100000000000D+01
  </mgrwgt>
  </event>
  <event>
  8     66 0.26562228E-05 0.13372451E+03 0.75467711E-02 0.10700186E+00
       -2 -1    0    0    0  501 0.00000000E+00 0.00000000E+00 0.64380081E+02 0.64380876E+02 0.32000000E+00 0.0000E+00 0.9000E+01
        1 -1    0    0  501    0 0.00000000E+00 0.00000000E+00 -.62257000E+03 0.62257009E+03 0.32000000E+00 0.0000E+00 0.9000E+01
       25  2    1    2    0    0 -.31174782E+02 -.37588639E+02 -.43397846E+03 0.53112903E+03 0.30228457E+03 0.0000E+00 0.0000E+00
       23  2    3    3    0    0 -.13098323E+03 0.17649606E+02 -.25073839E+03 0.29681051E+03 0.88083058E+02 0.0000E+00 0.0000E+00
      -24  1    1    2    0    0 0.31174782E+02 0.37588639E+02 -.12421146E+03 0.15582194E+03 0.80419002E+02 0.0000E+00 0.9000E+01
      -11  1    4    4    0    0 -.37112658E+02 0.90335333E+01 -.16507520E+03 0.16943664E+03 0.51099893E-03 0.0000E+00 0.9000E+01
       11  1    4    4    0    0 -.93870572E+02 0.86160724E+01 -.85663194E+02 0.12737387E+03 0.51099893E-03 0.0000E+00 0.9000E+01
       23  1    3    3    0    0 0.99808448E+02 -.55238245E+02 -.18324007E+03 0.23431851E+03 0.91188000E+02 0.0000E+00 0.9000E+01
#aMCatNLO 1  0  0  2  1 0.85988507D+01 0.00000000D+00  -5  7  0 0.00000000D+00 0.00000000D+00 0.00000000D+00 0.00000000D+00 0.00000000D+00
  <mgrwgt>
 0.2727059371D-02   11    2    0
 0.200203417528393D+03 0.000000000000000D+00 0.000000000000000D+00 0.200203417528393D+03
 0.200203417528393D+03 0.000000000000000D+00 0.000000000000000D+00 -.200203417528393D+03
 0.941753331534932D+02 0.311747938501742D+02 0.375886539493188D+02 0.412343823506450D+01
 0.605667737828048D+02 -.371126570744664D+02 0.903352908210787D+01 -.470040436946995D+02
 0.991073825670931D+02 -.938705716545564D+02 0.861606657455780D+01 0.305998766881457D+02
 0.146557345553395D+03 0.998084348788486D+02 -.552382496059844D+02 0.122807287714894D+02
 0.000000000000000D+00 0.000000000000000D+00 -.000000000000000D+00 -.000000000000000D+00
 0.203515312107105D+03 0.000000000000000D+00 0.000000000000000D+00 0.203515312107105D+03
 0.205909884905881D+03 0.000000000000000D+00 0.000000000000000D+00 -.205909884905881D+03
 0.941907653117007D+02 0.296104253877769D+02 0.388703522123204D+02 0.412343823506450D+01
 0.613201938218510D+02 -.381249205850003D+02 0.986288381172388D+01 -.470040436946995D+02
 0.100806857502935D+03 -.955308466981969D+02 0.997634178509092D+01 0.305998766881457D+02
 0.144181339159272D+03 0.973938686014279D+02 -.532599781961083D+02 0.122807287714894D+02
 0.892604121722690D+01 0.665147329399239D+01 -.544959961302684D+01 -.239457279877585D+01
0.485269704048D-05 0.000000000000D+00 0.000000000000D+00 0.481208476948D-08 0.000000000000D+00  7 -2 1 -24 -11 11 23 21 0 0.99046953D-02 0.95780068D-01 0.34705519D+05 0.34705519D+05 0.34705519D+05 0.11615101D+01  1  2  2  2  7  2        1 0.104326655451D-02 0.100000000000D+01
-.267894702911D-06 0.000000000000D+00 -.186356343799D-07 0.481208476948D-08 0.000000000000D+00  7 -2 1 -24 -11 11 23 21 2 0.99046953D-02 0.95780068D-01 0.34705519D+05 0.34705519D+05 0.34705519D+05 0.11615101D+01  1  2  3  2  7  2        1 -.777002115888D-04 0.100000000000D+01
0.311939187366D-06 0.000000000000D+00 0.000000000000D+00 0.481208476948D-08 0.000000000000D+00  7 -2 1 -24 -11 11 23 21 2 0.99046953D-02 0.95780068D-01 0.34705519D+05 0.34705519D+05 0.34705519D+05 0.11615101D+01  1  2 15  2  7  2        1 0.904748791140D-04 0.100000000000D+01
0.956414665171D-05 0.000000000000D+00 0.000000000000D+00 0.481208476948D-08 0.000000000000D+00  7 -2 1 -24 -11 11 23 21 2 0.99046953D-02 0.99284415D-01 0.36440341D+05 0.36440341D+05 0.36440341D+05 0.11595797D+01  1  2 12  2  7  2        1 0.262737681657D-02 0.100000000000D+01
-.864523733340D-05 0.000000000000D+00 0.000000000000D+00 0.481208476948D-08 0.000000000000D+00  7 -2 1 -24 -11 11 23 21 2 0.99046953D-02 0.95780068D-01 0.34705519D+05 0.34705519D+05 0.34705519D+05 0.11615101D+01  1  2  4  2  7  2        1 -.250746566745D-02 0.100000000000D+01
-.107865670247D-03 0.000000000000D+00 -.155958358367D-04 0.481208476948D-08 0.000000000000D+00  7 -2 1 -24 -11 11 23 21 2 0.99046953D-02 0.99769209D-01 0.34705519D+05 0.34705519D+05 0.34705519D+05 0.11615101D+01  1  2  5  2  7  2        1 -.295069541227D-01 0.100000000000D+01
0.108424754517D-03 0.000000000000D+00 0.155828609296D-04 0.481208476948D-08 0.000000000000D+00  7 -2 1 -24 -11 11 23 21 2 0.99046953D-02 0.95780068D-01 0.34705519D+05 0.34705519D+05 0.34705519D+05 0.11615101D+01  1  2  6  2  7  2        1 0.314475287337D-01 0.100000000000D+01
0.207339865342D-07 0.000000000000D+00 0.000000000000D+00 0.481208476948D-08 0.466962551877D-09  7 -2 1 -24 -11 11 23 21 2 0.10068545D-01 0.98510121D-01 0.36440341D+05 0.36440341D+05 0.36440341D+05 0.11595797D+01  1  2 11  2  7  2        1 0.561813212632D-05 0.100000000000D+01
0.163886281301D-06 0.000000000000D+00 0.000000000000D+00 0.481208476948D-08 0.000000000000D+00  7 -2 21 -24 -11 11 23 -1 2 0.99046953D-02 0.99284415D-01 0.36440341D+05 0.36440341D+05 0.36440341D+05 0.11595797D+01  1  2 12  4  7  2        1 0.108285453976D-03 0.100000000000D+01
-.767780320901D-06 0.000000000000D+00 -.112347291325D-06 0.481208476948D-08 0.000000000000D+00  7 -2 21 -24 -11 11 23 -1 2 0.99046953D-02 0.99769209D-01 0.34705519D+05 0.34705519D+05 0.34705519D+05 0.11615101D+01  1  2  5  4  7  2        1 -.503471776064D-03 0.100000000000D+01
0.153029219583D-09 0.000000000000D+00 0.000000000000D+00 0.481208476948D-08 0.238345177608D-11  7 -2 21 -24 -11 11 23 -1 2 0.10068545D-01 0.98510121D-01 0.36440341D+05 0.36440341D+05 0.36440341D+05 0.11595797D+01  1  2 11  4  7  2        1 0.100578325635D-06 0.100000000000D+01
  </mgrwgt>
  </event>
  <event>
  8     66 0.26562228E-05 0.25856375E+03 0.75467711E-02 0.89609563E-01
       -2 -1    0    0    0  501 0.00000000E+00 0.00000000E+00 0.39831689E+03 0.39831702E+03 0.32000000E+00 0.0000E+00 0.9000E+01
        1 -1    0    0  501    0 0.00000000E+00 0.00000000E+00 -.11555222E+04 0.11555222E+04 0.32000000E+00 0.0000E+00 0.9000E+01
       25  2    1    2    0    0 -.14027682E+03 0.48250846E+03 0.63002622E+02 0.58859303E+03 0.29996737E+03 0.0000E+00 0.0000E+00
       23  2    3    3    0    0 -.13256245E+02 0.18521770E+03 0.13587694E+03 0.24487521E+03 0.83785434E+02 0.0000E+00 0.0000E+00
      -24  1    1    2    0    0 0.14027682E+03 -.48250846E+03 -.82020792E+03 0.96524621E+03 0.80419002E+02 0.0000E+00 0.9000E+01
      -13  1    4    4    0    0 0.34134502E+02 0.98162967E+02 0.79471066E+02 0.13083117E+03 0.10565837E+00 0.0000E+00 0.9000E+01
       13  1    4    4    0    0 -.47390746E+02 0.87054732E+02 0.56405877E+02 0.11404404E+03 0.10565837E+00 0.0000E+00 0.9000E+01
       23  1    3    3    0    0 -.12702057E+03 0.29729077E+03 -.72874322E+02 0.34371782E+03 0.91188000E+02 0.0000E+00 0.9000E+01
#aMCatNLO 1  0  0  2  1 0.47300427D+03 0.00000000D+00  -5  7  0 0.00000000D+00 0.00000000D+00 0.00000000D+00 0.00000000D+00 0.00000000D+00
  <mgrwgt>
 0.1837551060D-02    7    2    0
 0.678427691368393D+03 0.000000000000000D+00 0.000000000000000D+00 0.678427691368393D+03
 0.678427691368393D+03 0.000000000000000D+00 0.000000000000000D+00 -.678427691368393D+03
 0.647653149010015D+03 0.140276816669009D+03 -.482508463901564D+03 -.400618749482323D+03
 0.194174400303909D+03 0.341346311743573D+02 0.981629845086180D+02 0.164019977930538D+03
 0.162078338459835D+03 -.473908757256730D+02 0.870547138097078D+02 0.128237940951049D+03
 0.352949494963027D+03 -.127020572117694D+03 0.297290765583238D+03 0.108360830600737D+03
 0.000000000000000D+00 0.000000000000000D+00 -.000000000000000D+00 -.000000000000000D+00
 0.817362667688715D+03 0.000000000000000D+00 0.000000000000000D+00 0.817362667688715D+03
 0.128405745898232D+04 0.000000000000000D+00 0.000000000000000D+00 -.128405745898232D+04
 0.516180240218905D+03 0.133903736746017D+03 -.285568260292961D+03 -.400618749482323D+03
 0.239451823643918D+03 0.317601206924437D+02 0.171539842076602D+03 0.164019977930538D+03
 0.202510290306616D+03 -.493873405905300D+02 0.148749247964822D+03 0.128237940951049D+03
 0.478795213328392D+03 -.131575154887466D+03 0.438035973374377D+03 0.108360830600737D+03
 0.664482559173208D+03 0.152986380395355D+02 -.472756803122839D+03 -.466694791293608D+03
0.614366047322D-03 0.000000000000D+00 0.000000000000D+00 0.702249263238D-06 0.000000000000D+00  7 -2 1 -24 -13 13 23 21 0 0.61279534D-01 0.17777266D+00 0.27448734D+06 0.27448734D+06 0.27448734D+06 0.10874192D+01  1  2  2  2  7  2        1 0.197260110725D-02 0.100000000000D+01
-.313595217870D-04 0.000000000000D+00 -.235932738801D-05 0.702249263238D-06 0.000000000000D+00  7 -2 1 -24 -13 13 23 21 2 0.61279534D-01 0.17777266D+00 0.27448734D+06 0.27448734D+06 0.27448734D+06 0.10874192D+01  1  2  3  2  7  2        1 -.119062632551D-03 0.100000000000D+01
0.392393574017D-04 0.000000000000D+00 0.000000000000D+00 0.702249263238D-06 0.000000000000D+00  7 -2 1 -24 -13 13 23 21 2 0.61279534D-01 0.17777266D+00 0.27448734D+06 0.27448734D+06 0.27448734D+06 0.10874192D+01  1  2 15  2  7  2        1 0.148979988394D-03 0.100000000000D+01
0.593421870570D-05 0.000000000000D+00 0.000000000000D+00 0.702249263238D-06 0.000000000000D+00  7 -2 1 -24 -13 13 23 21 2 0.61279534D-01 0.34059410D+00 0.63685156D+06 0.63685156D+06 0.63685156D+06 0.10611630D+01  1  2 12  2  7  2        1 0.392001652108D-05 0.100000000000D+01
-.277636501074D-03 0.000000000000D+00 -.178390829081D-03 0.702249263238D-06 0.000000000000D+00  7 -2 1 -24 -13 13 23 21 2 0.61279534D-01 0.36041748D+00 0.27448734D+06 0.27448734D+06 0.27448734D+06 0.10874192D+01  1  2  5  2  7  2        1 -.166590025256D-03 0.100000000000D+01
0.418833399197D-06 0.000000000000D+00 0.000000000000D+00 0.702249263238D-06 0.000000000000D+00  7 -2 21 -24 -13 13 23 -1 2 0.61279534D-01 0.34059410D+00 0.63685156D+06 0.63685156D+06 0.63685156D+06 0.10611630D+01  1  2 12  4  7  2        1 0.113559250283D-06 0.100000000000D+01
-.104076862985D-04 0.000000000000D+00 -.136358877112D-04 0.702249263238D-06 0.000000000000D+00  7 -2 21 -24 -13 13 23 -1 2 0.61279534D-01 0.36041748D+00 0.27448734D+06 0.27448734D+06 0.27448734D+06 0.10874192D+01  1  2  5  4  7  2        1 -.241095330416D-05 0.100000000000D+01
  </mgrwgt>
  </event>
  <event>
  8     66 0.26562228E-05 0.43693860E+03 0.75467711E-02 0.91288118E-01
       -2 -1    0    0    0  501 0.00000000E+00 0.00000000E+00 0.14479473E+03 0.14479508E+03 0.32000000E+00 0.0000E+00 0.9000E+01
        1 -1    0    0  501    0 0.00000000E+00 0.00000000E+00 -.32987672E+04 0.32987672E+04 0.32000000E+00 0.0000E+00 0.9000E+01
       25  2    1    2    0    0 -.29174789E+03 -.55861040E+03 -.21002895E+04 0.22131651E+04 0.29953463E+03 0.0000E+00 0.0000E+00
       23  2    3    3    0    0 -.70389573E+01 -.11066908E+03 -.65905073E+03 0.67459586E+03 0.91839638E+02 0.0000E+00 0.0000E+00
      -24  1    1    2    0    0 0.29174789E+03 0.55861040E+03 -.10536829E+04 0.12303972E+04 0.80419002E+02 0.0000E+00 0.9000E+01
      -11  1    4    4    0    0 0.40443895E+02 -.67474314E+02 -.40431629E+03 0.41189823E+03 0.51099893E-03 0.0000E+00 0.9000E+01
       11  1    4    4    0    0 -.47482853E+02 -.43194762E+02 -.25473444E+03 0.26269763E+03 0.51099893E-03 0.0000E+00 0.9000E+01
       23  1    3    3    0    0 -.28470894E+03 -.44794132E+03 -.14412388E+04 0.15385692E+04 0.91188000E+02 0.0000E+00 0.9000E+01
#aMCatNLO 1  0  0  2  1 0.39363035D+02 0.00000000D+00  -5  7  0 0.00000000D+00 0.00000000D+00 0.00000000D+00 0.00000000D+00 0.00000000D+00
  <mgrwgt>
 0.2094167479D-02    9    2    0
 0.691118458014939D+03 0.000000000000000D+00 0.000000000000000D+00 0.691118458014939D+03
 0.691118458014939D+03 0.000000000000000D+00 0.000000000000000D+00 -.691118458014939D+03
 0.661002860522436D+03 0.291747894189073D+03 0.558610400894307D+03 0.182469591750008D+03
 0.103596403364149D+03 0.404438954372575D+02 -.674743138222222D+02 -.674071441767704D+02
 0.732075903451655D+02 -.474828527134000D+02 -.431947624677914D+02 -.351986147127159D+02
 0.544430061798128D+03 -.284708936912930D+03 -.447941324604294D+03 -.798638328605217D+02
 0.000000000000000D+00 -.000000000000000D+00 0.000000000000000D+00 -.000000000000000D+00
 0.696314336198264D+03 0.000000000000000D+00 0.000000000000000D+00 0.696314336198264D+03
 0.770199781038769D+03 0.000000000000000D+00 0.000000000000000D+00 -.770199781038769D+03
 0.647059855508603D+03 0.295002586058405D+03 0.540275451007985D+03 0.182469591750008D+03
 0.105731647606813D+03 0.409647407279065D+02 -.704084386751951D+02 -.674071441767704D+02
 0.742120865274293D+02 -.471160464297130D+02 -.452611254598642D+02 -.351986147127159D+02
 0.555793698655092D+03 -.281971385200993D+03 -.463363022099700D+03 -.798638328605217D+02
 0.837168289390963D+02 -.687989515560568D+01 0.387571352267741D+02 -.738854448405052D+02
0.139828082470D-02 0.000000000000D+00 0.000000000000D+00 0.129255908732D-04 0.000000000000D+00  7 -2 1 -24 -11 11 23 21 0 0.22276140D-01 0.50750267D+00 0.43343552D+06 0.43343552D+06 0.43343552D+06 0.10729233D+01  1  2  2  2  7  2        1 0.916032968799D-03 0.100000000000D+01
-.774595281452D-04 0.000000000000D+00 -.536976654265D-05 0.129255908732D-04 0.000000000000D+00  7 -2 1 -24 -11 11 23 21 2 0.22276140D-01 0.50750267D+00 0.43343552D+06 0.43343552D+06 0.43343552D+06 0.10729233D+01  1  2  3  2  7  2        1 -.584156038476D-04 0.100000000000D+01
0.901519578877D-04 0.000000000000D+00 0.000000000000D+00 0.129255908732D-04 0.000000000000D+00  7 -2 1 -24 -11 11 23 21 2 0.22276140D-01 0.50750267D+00 0.43343552D+06 0.43343552D+06 0.43343552D+06 0.10729233D+01  1  2 15  2  7  2        1 0.679875179226D-04 0.100000000000D+01
0.753849372461D-02 0.000000000000D+00 0.000000000000D+00 0.129255908732D-04 0.000000000000D+00  7 -2 1 -24 -11 11 23 21 2 0.22276140D-01 0.56734880D+00 0.46034854D+06 0.46034854D+06 0.46034854D+06 0.10710557D+01  1  2 12  2  7  2        1 0.269520444935D-02 0.100000000000D+01
-.764039983632D-02 0.000000000000D+00 0.000000000000D+00 0.129255908732D-04 0.000000000000D+00  7 -2 1 -24 -11 11 23 21 2 0.22276140D-01 0.50750267D+00 0.43343552D+06 0.43343552D+06 0.43343552D+06 0.10729233D+01  1  2  4  2  7  2        1 -.576195828664D-02 0.100000000000D+01
-.107406851035D-01 0.000000000000D+00 -.945061881129D-03 0.129255908732D-04 0.000000000000D+00  7 -2 1 -24 -11 11 23 21 2 0.22276140D-01 0.56646920D+00 0.43343552D+06 0.43343552D+06 0.43343552D+06 0.10729233D+01  1  2  5  2  7  2        1 -.391492654919D-02 0.100000000000D+01
0.108101148804D-01 0.000000000000D+00 0.942382968079D-03 0.129255908732D-04 0.000000000000D+00  7 -2 1 -24 -11 11 23 21 2 0.22276140D-01 0.50750267D+00 0.43343552D+06 0.43343552D+06 0.43343552D+06 0.10729233D+01  1  2  6  2  7  2        1 0.815237845519D-02 0.100000000000D+01
0.134389345383D-03 0.000000000000D+00 0.000000000000D+00 0.129255908732D-04 0.000000000000D+00  7 -2 21 -24 -11 11 23 -1 2 0.22276140D-01 0.56734880D+00 0.46034854D+06 0.46034854D+06 0.46034854D+06 0.10710557D+01  1  2 12  4  7  2        1 0.510651070563D-05 0.100000000000D+01
-.185486791230D-03 0.000000000000D+00 -.166478488679D-04 0.129255908732D-04 0.000000000000D+00  7 -2 21 -24 -11 11 23 -1 2 0.22276140D-01 0.56646920D+00 0.43343552D+06 0.43343552D+06 0.43343552D+06 0.10729233D+01  1  2  5  4  7  2        1 -.724198332642D-05 0.100000000000D+01
  </mgrwgt>
  </event>
  <event>
  8     66 0.26562228E-05 0.29119630E+03 0.75467711E-02 0.99803065E-01
       -2 -1    0    0    0  501 0.00000000E+00 0.00000000E+00 0.13732718E+03 0.13732756E+03 0.32000000E+00 0.0000E+00 0.9000E+01
        1 -1    0    0  501    0 0.00000000E+00 0.00000000E+00 -.11117641E+04 0.11117642E+04 0.32000000E+00 0.0000E+00 0.9000E+01
       25  2    1    2    0    0 0.19264118E+03 -.10078379E+03 -.16233244E+03 0.40455106E+03 0.30006957E+03 0.0000E+00 0.0000E+00
       23  2    3    3    0    0 0.14234788E+03 0.55112791E+02 -.11121197E+03 0.21022733E+03 0.92342238E+02 0.0000E+00 0.0000E+00
      -24  1    1    2    0    0 -.19264118E+03 0.10078379E+03 -.81210450E+03 0.84454066E+03 0.80419002E+02 0.0000E+00 0.9000E+01
      -11  1    4    4    0    0 0.83339205E+02 0.61751488E+02 -.26992384E+02 0.10717863E+03 0.51099893E-03 0.0000E+00 0.9000E+01
       11  1    4    4    0    0 0.59008674E+02 -.66386965E+01 -.84219590E+02 0.10304870E+03 0.51099893E-03 0.0000E+00 0.9000E+01
       23  1    3    3    0    0 0.50293297E+02 -.15589658E+03 -.51120463E+02 0.19432373E+03 0.91188000E+02 0.0000E+00 0.9000E+01
#aMCatNLO 1  0  0  1  1 0.62331883D+02 0.00000000D+00  -5  7  0 0.00000000D+00 0.00000000D+00 0.00000000D+00 0.00000000D+00 0.00000000D+00
  <mgrwgt>
 0.1260084562D-02    4    2    0
 0.390737377900943D+03 0.000000000000000D+00 0.000000000000000D+00 0.390737377900943D+03
 0.390737377900943D+03 0.000000000000000D+00 0.000000000000000D+00 -.390737377900943D+03
 0.337265061016582D+03 -.192641175725740D+03 0.100783790405591D+03 -.244974509765066D+03
 0.137654556240178D+03 0.833392050771737D+02 0.617514879585393D+02 0.904992126247042D+02
 0.596955982688869D+02 0.590086738503439D+02 -.663869645975690D+01 -.612115776788045D+01
 0.246859540276239D+03 0.502932967982221D+02 -.155896581904374D+03 0.160596454908242D+03
 0.000000000000000D+00 0.000000000000000D+00 -.000000000000000D+00 -.000000000000000D+00
 0.401785023663960D+03 0.000000000000000D+00 0.000000000000000D+00 0.401785023663960D+03
 0.491024593104029D+03 0.000000000000000D+00 0.000000000000000D+00 -.491024593104029D+03
 0.346863702587069D+03 -.193515088190994D+03 0.128010204381671D+03 -.244974509765066D+03
 0.142801361856166D+03 0.829809480708642D+02 0.729128501674763D+02 0.904992126247042D+02
 0.592049494628352D+02 0.588567891813803D+02 -.190678675686070D+01 -.612115776788045D+01
 0.235086654293072D+03 0.496776542329283D+02 -.136716469467028D+03 0.160596454908242D+03
 0.108852948568847D+03 0.199969670582162D+01 -.622997983252587D+02 -.892395694400684D+02
0.557660168829D-04 0.000000000000D+00 0.000000000000D+00 0.453019364412D-05 0.000000000000D+00  7 -2 1 -24 -11 11 23 21 0 0.21127291D-01 0.17104067D+00 0.84795287D+05 0.84795287D+05 0.84795287D+05 0.11276478D+01  1  2  2  1  7  1       -2 0.142359456427D-02 0.100000000000D+01
-.277243610492D-05 0.000000000000D+00 -.214156188360D-06 0.453019364412D-05 0.000000000000D+00  7 -2 1 -24 -11 11 23 21 2 0.21127291D-01 0.17104067D+00 0.84795287D+05 0.84795287D+05 0.84795287D+05 0.11276478D+01  1  2  3  1  7  1       -2 -.899964113877D-04 0.100000000000D+01
0.358557357864D-05 0.000000000000D+00 0.000000000000D+00 0.453019364412D-05 0.000000000000D+00  7 -2 1 -24 -11 11 23 21 2 0.21127291D-01 0.17104067D+00 0.84795287D+05 0.84795287D+05 0.84795287D+05 0.11276478D+01  1  2 15  1  7  1       -2 0.116391773384D-03 0.100000000000D+01
-.585023869730D-05 0.000000000000D+00 0.000000000000D+00 0.453019364412D-05 0.000000000000D+00  7 -2 1 -24 -11 11 23 21 2 0.21127291D-01 0.17104067D+00 0.84795287D+05 0.84795287D+05 0.84795287D+05 0.11276478D+01  1  2  4  1  7  1       -2 -.189905364305D-03 0.100000000000D+01
  </mgrwgt>
  </event>
  <event>
  9     66 -.26562228E-05 0.22542615E+03 0.75467711E-02 0.10432669E+00
       -2 -1    0    0    0  502 0.00000000E+00 0.00000000E+00 0.40589537E+03 0.40589549E+03 0.32000000E+00 0.0000E+00 0.9000E+01
        1 -1    0    0  501    0 0.00000000E+00 0.00000000E+00 -.90495842E+03 0.90495848E+03 0.32000000E+00 0.0000E+00 0.9000E+01
       25  2    1    2    0    0 -.49834235E+02 -.13649446E+03 -.85081645E+03 0.91364200E+03 0.29956449E+03 0.0000E+00 0.0000E+00
       23  2    3    3    0    0 0.54652807E+02 -.10803172E+03 -.65396021E+03 0.67116457E+03 0.90222797E+02 0.0000E+00 0.0000E+00
      -24  1    1    2    0    0 0.41735232E+02 0.12727955E+03 0.35178817E+03 0.38492083E+03 0.80419002E+02 0.0000E+00 0.9000E+01
      -13  1    4    4    0    0 0.57201070E+02 -.16825324E+02 -.27183137E+03 0.27829366E+03 0.10565837E+00 0.0000E+00 0.9000E+01
       13  1    4    4    0    0 -.25482628E+01 -.91206395E+02 -.38212884E+03 0.39287092E+03 0.10565837E+00 0.0000E+00 0.9000E+01
       23  1    3    3    0    0 -.10448704E+03 -.28462743E+02 -.19685624E+03 0.24247743E+03 0.91188000E+02 0.0000E+00 0.9000E+01
       21  1    1    2  501  502 0.80990025E+01 0.92149140E+01 -.34771532E-01 0.12291143E+02 0.75000000E+00 0.0000E+00 0.9000E+01
#aMCatNLO 2  0  0  1  2 0.12268190D+02 0.00000000D+00  -5  7  0 0.00000000D+00 0.00000000D+00 0.00000000D+00 0.00000000D+00 0.00000000D+00
  <mgrwgt>
 -.4099493401D-03    3    2    0
 0.599392542755317D+03 0.000000000000000D+00 0.000000000000000D+00 0.599392542755317D+03
 0.599392542755317D+03 0.000000000000000D+00 0.000000000000000D+00 -.599392542755317D+03
 0.564660851748898D+03 0.455456288542751D+02 0.131614955392279D+03 0.541274201078139D+03
 0.188556195483020D+03 0.584741038286680D+02 -.153768774626748D+02 -.178599467177153D+03
 0.265780336761504D+03 -.750398243064055D+00 -.891608227612135D+02 -.250377658739910D+03
 0.179787701517212D+03 -.103269334439879D+03 -.270772551683911D+02 -.112297075161076D+03
 0.000000000000000D+00 0.000000000000000D+00 0.000000000000000D+00 0.000000000000000D+00
 0.608602084733010D+03 0.000000000000000D+00 0.000000000000000D+00 0.608602084733010D+03
 0.603523568429487D+03 0.000000000000000D+00 0.000000000000000D+00 -.603523568429487D+03
 0.563371005235272D+03 0.417352320617364D+02 0.127279547600570D+03 0.541274201078139D+03
 0.188289217747624D+03 0.572011516997308D+02 -.168252217897208D+02 -.178599467177153D+03
 0.266484692227420D+03 -.254834476973596D+01 -.912064972159249D+02 -.250377658739910D+03
 0.180702944080014D+03 -.104487041538503D+03 -.284627425941976D+02 -.112297075161076D+03
 0.132777938721677D+02 0.809900254677209D+01 0.921491399927363D+01 0.507851630352246D+01
-.959502620283D-04 0.000000000000D+00 0.000000000000D+00 0.974268156128D-05 0.000000000000D+00  7 -2 1 -24 -13 13 23 21 2 0.62653917D-01 0.13826900D+00 0.53116845D+05 0.53116845D+05 0.53116845D+05 0.11449925D+01  1  2 13  1  7  1       -2 -.642731350771D-03 0.100000000000D+01
-.115606609557D-02 0.000000000000D+00 0.000000000000D+00 0.974268156128D-05 0.000000000000D+00  7 -2 1 -24 -13 13 23 21 2 0.61499437D-01 0.13826900D+00 0.50816948D+05 0.50816948D+05 0.50816948D+05 0.11466768D+01  1  2  8  1  7  1       -2 -.808316203424D-02 0.100000000000D+01
0.124682634435D-02 0.000000000000D+00 0.000000000000D+00 0.974268156128D-05 0.452658121267D-06  7 -2 1 -24 -13 13 23 21 2 0.62444363D-01 0.13922195D+00 0.53116845D+05 0.53116845D+05 0.53116845D+05 0.11449925D+01  1  2  1  1  7  1       -2 0.831594404486D-02 0.100000000000D+01
  </mgrwgt>
  </event>
  <event>
  8     66 0.26562228E-05 0.21608816E+03 0.75467711E-02 0.97780615E-01
       -2 -1    0    0    0  501 0.00000000E+00 0.00000000E+00 0.90389235E+02 0.90389801E+02 0.32000000E+00 0.0000E+00 0.9000E+01
        1 -1    0    0  501    0 0.00000000E+00 0.00000000E+00 -.74413900E+03 0.74413907E+03 0.32000000E+00 0.0000E+00 0.9000E+01
       25  2    1    2    0    0 0.39064760E+02 0.14059686E+03 -.53293794E+03 0.62872254E+03 0.29995941E+03 0.0000E+00 0.0000E+00
       23  2    3    3    0    0 0.84438197E+02 0.10818365E+03 -.12675309E+03 0.20870975E+03 0.93058587E+02 0.0000E+00 0.0000E+00
      -24  1    1    2    0    0 -.39064760E+02 -.14059686E+03 -.12081182E+03 0.20580633E+03 0.80419002E+02 0.0000E+00 0.9000E+01
      -13  1    4    4    0    0 0.86234023E+02 0.48447326E+02 -.48265919E+02 0.11005935E+03 0.10565837E+00 0.0000E+00 0.9000E+01
       13  1    4    4    0    0 -.17958263E+01 0.59736322E+02 -.78487175E+02 0.98650398E+02 0.10565837E+00 0.0000E+00 0.9000E+01
       23  1    3    3    0    0 -.45373436E+02 0.32413214E+02 -.40618484E+03 0.42001279E+03 0.91188000E+02 0.0000E+00 0.9000E+01
#aMCatNLO 1  0  0  1  2 0.26518365D+03 0.00000000D+00  -5  7  0 0.00000000D+00 0.00000000D+00 0.00000000D+00 0.00000000D+00 0.00000000D+00
  <mgrwgt>
 0.8657054881D-03    5    2    0
 0.259349994959738D+03 0.000000000000000D+00 0.000000000000000D+00 0.259349994959738D+03
 0.259349994959738D+03 0.000000000000000D+00 0.000000000000000D+00 -.259349994959738D+03
 0.178852179158897D+03 -.390647604477050D+02 -.140596862761795D+03 0.650180952367884D+02
 0.116240426196125D+03 0.862341345643629D+02 0.484473140469652D+02 0.610603675048457D+02
 0.597948607775028D+02 -.179593685367323D+01 0.597363343216347D+02 -.194173840474254D+01
 0.163812523786952D+03 -.453734372629847D+02 0.324132143931949D+02 -.124136724336892D+03
 0.000000000000000D+00 -.000000000000000D+00 0.000000000000000D+00 0.000000000000000D+00
 0.932929011737587D+03 0.000000000000000D+00 0.000000000000000D+00 0.932929011737587D+03
 0.318677243966623D+03 0.000000000000000D+00 0.000000000000000D+00 -.318677243966623D+03
 0.257156774143452D+03 0.612195648171374D+01 -.235366861461234D+03 0.650180952367884D+02
 0.127167782170173D+03 0.111460262895993D+03 -.445938755994113D+01 0.610603675048457D+02
 0.391941694483506D+02 0.846300222098272D+01 0.382202847205671D+02 -.194173840474254D+01
 0.159037752365461D+03 -.119141609600797D+02 -.377608497386046D+02 -.124136724336892D+03
 0.669049777576774D+03 -.114131060638610D+03 0.239366814039213D+03 0.614251767770964D+03
0.111245362217D-04 0.000000000000D+00 0.000000000000D+00 0.699291020701D-06 0.000000000000D+00  7 -2 1 -24 -13 13 23 21 0 0.13906085D-01 0.11448297D+00 0.46694091D+05 0.46694091D+05 0.46694091D+05 0.11499177D+01  1  2  2  1  7  1       -2 0.109089923722D-02 0.100000000000D+01
-.593004524540D-06 0.000000000000D+00 -.427211482490D-07 0.699291020701D-06 0.000000000000D+00  7 -2 1 -24 -13 13 23 21 2 0.13906085D-01 0.11448297D+00 0.46694091D+05 0.46694091D+05 0.46694091D+05 0.11499177D+01  1  2  3  1  7  1       -2 -.768943176586D-04 0.100000000000D+01
0.718031936114D-06 0.000000000000D+00 0.000000000000D+00 0.699291020701D-06 0.000000000000D+00  7 -2 1 -24 -13 13 23 21 2 0.13906085D-01 0.11448297D+00 0.46694091D+05 0.46694091D+05 0.46694091D+05 0.11499177D+01  1  2 15  1  7  1       -2 0.931065000344D-04 0.100000000000D+01
-.820144439680D-05 0.000000000000D+00 -.414022031069D-05 0.699291020701D-06 0.000000000000D+00  7 -2 1 -24 -13 13 23 21 2 0.58990774D-01 0.11448297D+00 0.46694091D+05 0.46694091D+05 0.46694091D+05 0.11499177D+01  1  2  5  1  7  1       -2 -.846687140565D-04 0.100000000000D+01
-.141727051091D-05 0.000000000000D+00 -.719070065889D-06 0.699291020701D-06 0.000000000000D+00  7 21 1 -24 -13 13 23 2 2 0.58990774D-01 0.11448297D+00 0.46694091D+05 0.46694091D+05 0.46694091D+05 0.11499177D+01  1  2  5  3  7  1       -2 -.156737217435D-03 0.100000000000D+01
  </mgrwgt>
  </event>
</LesHouchesEvents>
