<event>
12    6  0.1627636E-007  0.1092626E+04  0.7818608E-02  0.9212409E-01
         -1   -1    0    0    0  501 -0.00000000000E+00  0.00000000000E+00  0.24721826802E+03  0.24721826802E+03  0.00000000000E+00 0.  1.
          2   -1    0    0  501    0  0.00000000000E+00 -0.00000000000E+00 -0.12072646456E+04  0.12072646456E+04  0.00000000000E+00 0. -1.
         24    2    1    2    0    0  0.88583337927E+02 -0.72452220604E+02  0.17593427810E+00  0.14065914660E+03  0.81784060438E+02 0.  0.
        254    2    1    2    0    0 -0.88583337927E+02  0.72452220604E+02 -0.96022231186E+03  0.13138237670E+04  0.88938724444E+03 0.  0.
         23    2    4    4    0    0 -0.45746901975E+03  0.14822816600E+03 -0.67151604872E+03  0.83079275118E+03  0.89628670083E+02 0.  0.
         23    2    4    4    0    0  0.36888568183E+03 -0.75775945400E+02 -0.28870626314E+03  0.48303101583E+03  0.90271898870E+02 0.  0.
          4    1    3    3  502    0  0.62392244180E+02 -0.20873709018E+02 -0.33389340859E+02  0.73779075252E+02  0.00000000000E+00 0. -1.
         -3    1    3    3    0  502  0.26191093747E+02 -0.51578511586E+02  0.33565275137E+02  0.66880071353E+02  0.00000000000E+00 0.  1.
         11    1    5    5    0    0 -0.17047329437E+03  0.99309450444E+02 -0.29385727767E+03  0.35394294834E+03  0.00000000000E+00 0. -1.
        -11    1    5    5    0    0 -0.28699572538E+03  0.48918715560E+02 -0.37765877105E+03  0.47684980284E+03  0.00000000000E+00 0.  1.
          3    1    6    6  503    0  0.14187787740E+03 -0.63908434223E+02 -0.15332001956E+03  0.21845056296E+03  0.00000000000E+00 0. -1.
         -3    1    6    6    0  503  0.22700780443E+03 -0.11867511177E+02 -0.13538624358E+03  0.26458045287E+03  0.00000000000E+00 0.  1.
<mgrwt>
<rscale>  0 0.10926260E+04</rscale>
<asrwt>0</asrwt>
<pdfrwt beam="1">  1        2 0.18573303E+00 0.10926260E+04</pdfrwt>
<pdfrwt beam="2">  1       -1 0.38033578E-01 0.10926260E+04</pdfrwt>
<totfact> 0.14165352E+02</totfact>
</mgrwt>
</event>
<event>
12    6  0.2276501E-007  0.1286829E+04  0.7818608E-02  0.9040076E-01
          2   -1    0    0  501    0  0.00000000000E+00  0.00000000000E+00  0.94612356150E+03  0.94612356150E+03  0.00000000000E+00 0. -1.
         -1   -1    0    0    0  501 -0.00000000000E+00 -0.00000000000E+00 -0.43755607047E+03  0.43755607047E+03  0.00000000000E+00 0.  1.
         24    2    1    2    0    0  0.19696636380E+03  0.73406555963E+02  0.38614289169E+03  0.44662603039E+03  0.78639731005E+02 0.  0.
        254    2    1    2    0    0 -0.19696636380E+03 -0.73406555963E+02  0.12242459934E+03  0.93705360157E+03  0.90492949934E+03 0.  0.
         23    2    4    4    0    0  0.33820307630E+02 -0.63698059950E+02 -0.36773568208E+03  0.38612245647E+03  0.93057850091E+02 0.  0.
         23    2    4    4    0    0 -0.23078667143E+03 -0.97084960137E+01  0.49016028142E+03  0.55093114511E+03  0.99555424573E+02 0.  0.
          2    1    3    3  502    0  0.18246717813E+03  0.40517441935E+02  0.30249728119E+03  0.35558478500E+03  0.00000000000E+00 0. -1.
         -1    1    3    3    0  502  0.14499185675E+02  0.32889114028E+02  0.83645610502E+02  0.91041245395E+02  0.00000000000E+00 0.  1.
         11    1    5    5    0    0 -0.15537581688E+02 -0.59122348553E+01 -0.80037451730E+01  0.18450769699E+02  0.00000000000E+00 0. -1.
        -11    1    5    5    0    0  0.49357889318E+02 -0.57785825094E+02 -0.35973193691E+03  0.36767168677E+03  0.00000000000E+00 0.  1.
          2    1    6    6  503    0 -0.24822621833E+02  0.46367074654E+01  0.81019780957E+01  0.26519872923E+02  0.00000000000E+00 0. -1.
         -2    1    6    6    0  503 -0.20596404960E+03 -0.14345203479E+02  0.48205830332E+03  0.52441127218E+03  0.00000000000E+00 0.  1.
<mgrwt>
<rscale>  0 0.12868288E+04</rscale>
<asrwt>0</asrwt>
<pdfrwt beam="1">  1        2 0.14555747E+00 0.12868288E+04</pdfrwt>
<pdfrwt beam="2">  1       -1 0.67316319E-01 0.12868288E+04</pdfrwt>
<totfact> 0.68343535E+01</totfact>
</mgrwt>
</event>
<event>
12    6  0.1627636E-007  0.1629971E+04  0.7818608E-02  0.8802344E-01
          2   -1    0    0  501    0  0.00000000000E+00  0.00000000000E+00  0.10526125390E+04  0.10526125390E+04  0.00000000000E+00 0. -1.
         -1   -1    0    0    0  501 -0.00000000000E+00 -0.00000000000E+00 -0.63100283658E+03  0.63100283658E+03  0.00000000000E+00 0.  1.
         24    2    1    2    0    0  0.27737810545E+03 -0.56921546792E+02  0.65516432421E+03  0.71823508180E+03  0.80266214215E+02 0.  0.
        254    2    1    2    0    0 -0.27737810545E+03  0.56921546792E+02 -0.23355462181E+03  0.96538029376E+03  0.89287886880E+03 0.  0.
         23    2    4    4    0    0 -0.55972225954E+02  0.34738088511E+03 -0.41148171197E+03  0.54898982886E+03  0.90918994107E+02 0.  0.
         23    2    4    4    0    0 -0.22140587949E+03 -0.29045933832E+03  0.17792709016E+03  0.41639046490E+03  0.91300488230E+02 0.  0.
          4    1    3    3  502    0  0.13496512716E+03 -0.26104585688E+02  0.41658197288E+03  0.43867707379E+03  0.00000000000E+00 0. -1.
         -3    1    3    3    0  502  0.14241297829E+03 -0.30816961103E+02  0.23858235133E+03  0.27955800801E+03  0.00000000000E+00 0.  1.
         11    1    5    5    0    0  0.17977709137E+02  0.76537921080E+02 -0.12649790674E+03  0.14893949040E+03  0.00000000000E+00 0. -1.
        -11    1    5    5    0    0 -0.73949935092E+02  0.27084296403E+03 -0.28498380523E+03  0.40005033847E+03  0.00000000000E+00 0.  1.
          4    1    6    6  503    0 -0.16358214308E+03 -0.22413051403E+03  0.17558350712E+03  0.32836439032E+03  0.00000000000E+00 0. -1.
         -4    1    6    6    0  503 -0.57823736414E+02 -0.66328824290E+02  0.23435830393E+01  0.88026074580E+02  0.00000000000E+00 0.  1.
<mgrwt>
<rscale>  0 0.16299712E+04</rscale>
<asrwt>0</asrwt>
<pdfrwt beam="1">  1        2 0.16194039E+00 0.16299712E+04</pdfrwt>
<pdfrwt beam="2">  1       -1 0.97077360E-01 0.16299712E+04</pdfrwt>
<totfact> 0.25958197E+01</totfact>
</mgrwt>
</event>
<event>
12    6  0.1627636E-007  0.1322301E+04  0.7818608E-02  0.9012065E-01
         -1   -1    0    0    0  501 -0.00000000000E+00  0.00000000000E+00  0.71009567149E+03  0.71009567149E+03  0.00000000000E+00 0.  1.
          2   -1    0    0  501    0  0.00000000000E+00 -0.00000000000E+00 -0.61557922067E+03  0.61557922067E+03  0.00000000000E+00 0. -1.
         24    2    1    2    0    0 -0.40740809629E+02 -0.25417892033E+03 -0.20635850235E+03  0.34005362382E+03  0.82376565066E+02 0.  0.
        254    2    1    2    0    0  0.40740809629E+02  0.25417892033E+03  0.30087495317E+03  0.98562126834E+03  0.90258340892E+03 0.  0.
         23    2    4    4    0    0  0.23423246280E+03  0.46363211601E+03 -0.41950270561E+02  0.52920774374E+03  0.92094653534E+02 0.  0.
         23    2    4    4    0    0 -0.19349165318E+03 -0.20945319568E+03  0.34282522373E+03  0.45641352460E+03  0.97337096626E+02 0.  0.
          2    1    3    3  502    0 -0.18883964459E+02 -0.22281061807E+03 -0.20241742898E+03  0.30161895033E+03  0.00000000000E+00 0. -1.
         -1    1    3    3    0  502 -0.21856845170E+02 -0.31368302256E+02 -0.39410733653E+01  0.38434673492E+02  0.00000000000E+00 0.  1.
         11    1    5    5    0    0  0.20231179726E+03  0.31649560196E+03 -0.12785029914E+02  0.37584968586E+03  0.00000000000E+00 0.  1.
        -11    1    5    5    0    0  0.31920665543E+02  0.14713651405E+03 -0.29165240647E+02  0.15335805788E+03  0.00000000000E+00 0. -1.
          4    1    6    6  503    0 -0.13242151633E+03 -0.19943665822E+03  0.27461952592E+03  0.36431623989E+03  0.00000000000E+00 0. -1.
         -4    1    6    6    0  503 -0.61070136846E+02 -0.10016537462E+02  0.68205697810E+02  0.92097284710E+02  0.00000000000E+00 0.  1.
<mgrwt>
<rscale>  0 0.13223012E+04</rscale>
<asrwt>0</asrwt>
<pdfrwt beam="1">  1        2 0.94704495E-01 0.13223012E+04</pdfrwt>
<pdfrwt beam="2">  1       -1 0.10924549E+00 0.13223012E+04</pdfrwt>
<totfact> 0.41723917E+01</totfact>
</mgrwt>
</event>
<event>
12    6  0.1627636E-007  0.1738433E+04  0.7818608E-02  0.8739743E-01
         -1   -1    0    0    0  501 -0.00000000000E+00  0.00000000000E+00  0.38226599365E+03  0.38226599365E+03  0.00000000000E+00 0.  1.
          2   -1    0    0  501    0  0.00000000000E+00 -0.00000000000E+00 -0.19764692567E+04  0.19764692567E+04  0.00000000000E+00 0. -1.
         24    2    1    2    0    0  0.32229440152E+03 -0.67614118684E+02  0.14993633283E+03  0.36996113883E+03  0.77103761521E+02 0.  0.
        254    2    1    2    0    0 -0.32229440152E+03  0.67614118684E+02 -0.17441395959E+04  0.19887741115E+04  0.89708092526E+03 0.  0.
         23    2    4    4    0    0  0.11463926318E+03 -0.33657541282E+02 -0.14209026122E+04  0.14286451350E+04  0.88247933200E+02 0.  0.
         23    2    4    4    0    0 -0.43693366470E+03  0.10127165997E+03 -0.32323698371E+03  0.56012897653E+03  0.89974142119E+02 0.  0.
          4    1    3    3  502    0  0.21256066220E+01 -0.10104563105E+01 -0.68883609317E+01  0.72793366313E+01  0.00000000000E+00 0. -1.
         -3    1    3    3    0  502  0.32016879490E+03 -0.66603662373E+02  0.15682469376E+03  0.36268180220E+03  0.00000000000E+00 0.  1.
         11    1    5    5    0    0  0.28014686141E+02 -0.27362055325E+02 -0.15878330058E+03  0.16354094672E+03  0.00000000000E+00 0. -1.
        -11    1    5    5    0    0  0.86624577039E+02 -0.62954859572E+01 -0.12621193116E+04  0.12651041883E+04  0.00000000000E+00 0.  1.
          1    1    6    6  503    0 -0.15564423342E+03  0.16140366451E+02 -0.16065060117E+03  0.22426380555E+03  0.00000000000E+00 0. -1.
         -1    1    6    6    0  503 -0.28128943129E+03  0.85131293514E+02 -0.16258638254E+03  0.33586517098E+03  0.00000000000E+00 0.  1.
<mgrwt>
<rscale>  0 0.17384326E+04</rscale>
<asrwt>0</asrwt>
<pdfrwt beam="1">  1        2 0.30407219E+00 0.17384326E+04</pdfrwt>
<pdfrwt beam="2">  1       -1 0.58810153E-01 0.17384326E+04</pdfrwt>
<totfact> 0.21802535E+01</totfact>
</mgrwt>
</event>
<event>
12    6  0.1627636E-007  0.1127785E+04  0.7818608E-02  0.9178526E-01
         -1   -1    0    0    0  501 -0.00000000000E+00  0.00000000000E+00  0.27990054057E+03  0.27990054057E+03  0.00000000000E+00 0.  1.
          2   -1    0    0  501    0  0.00000000000E+00 -0.00000000000E+00 -0.11360280431E+04  0.11360280431E+04  0.00000000000E+00 0. -1.
         24    2    1    2    0    0  0.35649340641E+02  0.17437206171E+03 -0.11379926313E+03  0.23333207284E+03  0.99081242094E+02 0.  0.
        254    2    1    2    0    0 -0.35649340641E+02 -0.17437206171E+03 -0.74232823945E+03  0.11825965109E+04  0.90322023951E+03 0.  0.
         23    2    4    4    0    0 -0.21750565178E+03 -0.46267039084E+03 -0.24871139378E+03  0.57578266633E+03  0.91080856013E+02 0.  0.
         23    2    4    4    0    0  0.18185631114E+03  0.28829832913E+03 -0.49361684567E+03  0.60681384455E+03  0.91530361798E+02 0.  0.
          2    1    3    3  502    0 -0.77365224957E+01  0.89950393919E+02 -0.10428958524E+03  0.13793927916E+03  0.00000000000E+00 0. -1.
         -1    1    3    3    0  502  0.43385863137E+02  0.84421667791E+02 -0.95096778935E+01  0.95392793682E+02  0.00000000000E+00 0.  1.
         11    1    5    5    0    0 -0.59237962720E+02 -0.62100165868E+02 -0.64408968753E+02  0.10730369091E+03  0.00000000000E+00 0. -1.
        -11    1    5    5    0    0 -0.15826768906E+03 -0.40057022497E+03 -0.18430242503E+03  0.46847897541E+03  0.00000000000E+00 0.  1.
          2    1    6    6  503    0  0.48969360024E+02  0.35346093313E+02 -0.46614348801E+02  0.76290510864E+02  0.00000000000E+00 0. -1.
         -2    1    6    6    0  503  0.13288695112E+03  0.25295223581E+03 -0.44700249687E+03  0.53052333368E+03  0.00000000000E+00 0.  1.
<mgrwt>
<rscale>  0 0.11277852E+04</rscale>
<asrwt>0</asrwt>
<pdfrwt beam="1">  1        2 0.17477355E+00 0.11277852E+04</pdfrwt>
<pdfrwt beam="2">  1       -1 0.43061621E-01 0.11277852E+04</pdfrwt>
<totfact> 0.12430258E+02</totfact>
</mgrwt>
</event>
<event>
12    6  0.1627636E-007  0.1346267E+04  0.7818608E-02  0.8993659E-01
         -1   -1    0    0    0  501 -0.00000000000E+00  0.00000000000E+00  0.23760475042E+03  0.23760475042E+03  0.00000000000E+00 0.  1.
          2   -1    0    0  501    0  0.00000000000E+00 -0.00000000000E+00 -0.19069842369E+04  0.19069842369E+04  0.00000000000E+00 0. -1.
         24    2    1    2    0    0  0.26218979402E+03 -0.16429741346E+02 -0.34358059017E+02  0.27747447966E+03  0.82451113732E+02 0.  0.
        254    2    1    2    0    0 -0.26218979402E+03  0.16429741346E+02 -0.16350214275E+04  0.18671145077E+04  0.86244309493E+03 0.  0.
         23    2    4    4    0    0 -0.39857009067E+03 -0.32543675733E+03 -0.95031217051E+03  0.10843876233E+04  0.89644274422E+02 0.  0.
         23    2    4    4    0    0  0.13638029665E+03  0.34186649868E+03 -0.68470925700E+03  0.78272688441E+03  0.91445725599E+02 0.  0.
          2    1    3    3  502    0 -0.19409982381E+01 -0.97963539141E+01  0.34566228932E+01  0.10568077687E+02  0.00000000000E+00 0. -1.
         -1    1    3    3    0  502  0.26413079226E+03 -0.66333874321E+01 -0.37814681910E+02  0.26690640197E+03  0.00000000000E+00 0.  1.
         11    1    5    5    0    0 -0.12094680850E+03 -0.12208120060E+03 -0.24091665363E+03  0.29592699103E+03  0.00000000000E+00 0. -1.
        -11    1    5    5    0    0 -0.27762328217E+03 -0.20335555674E+03 -0.70939551688E+03  0.78846063226E+03  0.00000000000E+00 0.  1.
          4    1    6    6  503    0  0.12301574184E+03  0.28464411853E+03 -0.49482424422E+03  0.58395734401E+03  0.00000000000E+00 0.  1.
         -4    1    6    6    0  503  0.13364554812E+02  0.57222380153E+02 -0.18988501277E+03  0.19876954040E+03  0.00000000000E+00 0. -1.
<mgrwt>
<rscale>  0 0.13462667E+04</rscale>
<asrwt>0</asrwt>
<pdfrwt beam="1">  1        2 0.29338218E+00 0.13462667E+04</pdfrwt>
<pdfrwt beam="2">  1       -1 0.36554579E-01 0.13462667E+04</pdfrwt>
<totfact> 0.60129946E+01</totfact>
</mgrwt>
</event>
<event>
12    6  0.1627636E-007  0.1171290E+04  0.7818608E-02  0.9138365E-01
         -1   -1    0    0    0  501 -0.00000000000E+00  0.00000000000E+00  0.53908104760E+03  0.53908104760E+03  0.00000000000E+00 0.  1.
          2   -1    0    0  501    0  0.00000000000E+00 -0.00000000000E+00 -0.63623056930E+03  0.63623056930E+03  0.00000000000E+00 0. -1.
         24    2    1    2    0    0  0.23961893104E+03  0.44296501719E+02  0.23058184511E+02  0.25730406079E+03  0.79336546760E+02 0.  0.
        254    2    1    2    0    0 -0.23961893104E+03 -0.44296501719E+02 -0.12020770621E+03  0.91800755611E+03  0.87687431726E+03 0.  0.
         23    2    4    4    0    0  0.83705322903E+02 -0.35920140819E+03  0.12050603549E+03  0.39857947673E+03  0.91168316585E+02 0.  0.
         23    2    4    4    0    0 -0.32332425394E+03  0.31490490647E+03 -0.24071374170E+03  0.51942807938E+03  0.90325804175E+02 0.  0.
          2    1    3    3  502    0 -0.22408686855E+01 -0.18307199339E+01  0.10361256550E+02  0.10757725840E+02  0.00000000000E+00 0. -1.
         -1    1    3    3    0  502  0.24185979972E+03  0.46127221653E+02  0.12696927960E+02  0.24654633495E+03  0.00000000000E+00 0.  1.
         11    1    5    5    0    0  0.50365429595E+02 -0.99311145617E+02  0.70604760398E+02  0.13184996144E+03  0.00000000000E+00 0. -1.
        -11    1    5    5    0    0  0.33339893307E+02 -0.25989026258E+03  0.49901275094E+02  0.26672951528E+03  0.00000000000E+00 0.  1.
          1    1    6    6  503    0 -0.39714691102E+02  0.12337200300E+02 -0.43623415464E+02  0.60269939251E+02  0.00000000000E+00 0. -1.
         -1    1    6    6    0  503 -0.28360956284E+03  0.30256770617E+03 -0.19709032623E+03  0.45915814013E+03  0.00000000000E+00 0.  1.
<mgrwt>
<rscale>  0 0.11712896E+04</rscale>
<asrwt>0</asrwt>
<pdfrwt beam="1">  1        2 0.97881626E-01 0.11712896E+04</pdfrwt>
<pdfrwt beam="2">  1       -1 0.82935546E-01 0.11712896E+04</pdfrwt>
<totfact> 0.75335350E+01</totfact>
</mgrwt>
</event>
<event>
12    6  0.1627636E-007  0.1954285E+04  0.7818608E-02  0.8628297E-01
          2   -1    0    0  501    0  0.00000000000E+00  0.00000000000E+00  0.13258225326E+04  0.13258225326E+04  0.00000000000E+00 0. -1.
         -1   -1    0    0    0  501 -0.00000000000E+00 -0.00000000000E+00 -0.72016202937E+03  0.72016202937E+03  0.00000000000E+00 0.  1.
         24    2    1    2    0    0  0.51628786147E+03 -0.38585221710E+03 -0.19539408720E+03  0.67819697291E+03  0.79606503541E+02 0.  0.
        254    2    1    2    0    0 -0.51628786147E+03  0.38585221710E+03  0.80105459041E+03  0.13677875890E+04  0.90206393484E+03 0.  0.
         23    2    4    4    0    0 -0.14596345869E+03 -0.28027180831E+03  0.15180250482E+03  0.36252116647E+03  0.92303726186E+02 0.  0.
         23    2    4    4    0    0 -0.37032440278E+03  0.66612402541E+03  0.64925208559E+03  0.10052664226E+04  0.90393191980E+02 0.  0.
          4    1    3    3  502    0  0.14525315373E+03 -0.11601230394E+03 -0.94144582790E+02  0.20837594824E+03  0.00000000000E+00 0. -1.
         -3    1    3    3    0  502  0.37103470774E+03 -0.26983991316E+03 -0.10124950441E+03  0.46982102467E+03  0.00000000000E+00 0.  1.
         11    1    5    5    0    0 -0.97678506201E+02 -0.20320943204E+03  0.60026566224E+02  0.23332027879E+03  0.00000000000E+00 0.  1.
        -11    1    5    5    0    0 -0.48284952492E+02 -0.77062376267E+02  0.91775938591E+02  0.12920088768E+03  0.00000000000E+00 0. -1.
          1    1    6    6  503    0 -0.78547720003E+02  0.76911577392E+02  0.97174020925E+02  0.14672397690E+03  0.00000000000E+00 0. -1.
         -1    1    6    6    0  503 -0.29177668277E+03  0.58921244802E+03  0.55207806467E+03  0.85854244566E+03  0.00000000000E+00 0.  1.
<mgrwt>
<rscale>  0 0.19542846E+04</rscale>
<asrwt>0</asrwt>
<pdfrwt beam="1">  1        2 0.20397270E+00 0.19542846E+04</pdfrwt>
<pdfrwt beam="2">  1       -1 0.11079416E+00 0.19542846E+04</pdfrwt>
<totfact> 0.12735365E+01</totfact>
</mgrwt>
</event>
<event>
12    6  0.1627636E-007  0.1517701E+04  0.7818608E-02  0.8872766E-01
          2   -1    0    0  501    0  0.00000000000E+00  0.00000000000E+00  0.17082736687E+04  0.17082736687E+04  0.00000000000E+00 0. -1.
         -1   -1    0    0    0  501 -0.00000000000E+00 -0.00000000000E+00 -0.33709729806E+03  0.33709729806E+03  0.00000000000E+00 0.  1.
         24    2    1    2    0    0  0.44794650653E+03  0.12679482484E+02  0.65916470614E+03  0.80121629297E+03  0.81440753400E+02 0.  0.
        254    2    1    2    0    0 -0.44794650653E+03 -0.12679482484E+02  0.71201166449E+03  0.12441546738E+04  0.91659336674E+03 0.  0.
         23    2    4    4    0    0  0.27197966663E+03 -0.58569378079E+02  0.22174319178E+03  0.36713186439E+03  0.90622577985E+02 0.  0.
         23    2    4    4    0    0 -0.71992617316E+03  0.45889895595E+02  0.49026847271E+03  0.87702280939E+03  0.91685634317E+02 0.  0.
          4    1    3    3  502    0  0.26523120011E+03 -0.31839261848E+02  0.40035392595E+03  0.48129470611E+03  0.00000000000E+00 0. -1.
         -3    1    3    3    0  502  0.18271530642E+03  0.44518744332E+02  0.25881078019E+03  0.31992158686E+03  0.00000000000E+00 0.  1.
         11    1    5    5    0    0  0.16952283130E+02  0.95001984355E+01 -0.39645883955E+01  0.19833094433E+02  0.00000000000E+00 0. -1.
        -11    1    5    5    0    0  0.25502738350E+03 -0.68069576514E+02  0.22570778018E+03  0.34729876996E+03  0.00000000000E+00 0.  1.
          3    1    6    6  503    0 -0.12854099447E+03  0.39419351950E+02  0.70824223501E+02  0.15196296655E+03  0.00000000000E+00 0. -1.
         -3    1    6    6    0  503 -0.59138517869E+03  0.64705436449E+01  0.41944424921E+03  0.72505984285E+03  0.00000000000E+00 0.  1.
<mgrwt>
<rscale>  0 0.15177015E+04</rscale>
<asrwt>0</asrwt>
<pdfrwt beam="1">  1        2 0.26281133E+00 0.15177015E+04</pdfrwt>
<pdfrwt beam="2">  1       -1 0.51861124E-01 0.15177015E+04</pdfrwt>
<totfact> 0.39920889E+01</totfact>
</mgrwt>
</event>
<event>
12    6  0.1627636E-007  0.1604775E+04  0.7818608E-02  0.8817620E-01
          2   -1    0    0  501    0  0.00000000000E+00  0.00000000000E+00  0.40949173437E+03  0.40949173437E+03  0.00000000000E+00 0. -1.
         -1   -1    0    0    0  501 -0.00000000000E+00 -0.00000000000E+00 -0.15722549450E+04  0.15722549450E+04  0.00000000000E+00 0.  1.
         24    2    1    2    0    0  0.35424542597E+03  0.26610073010E+03 -0.80108200778E+03  0.91886397420E+03  0.79241400203E+02 0.  0.
        254    2    1    2    0    0 -0.35424542597E+03 -0.26610073010E+03 -0.36168120289E+03  0.10628827052E+04  0.89588332507E+03 0.  0.
         23    2    4    4    0    0 -0.55142373044E+03  0.96806308847E+02 -0.27856473977E+03  0.63210131359E+03  0.92272230240E+02 0.  0.
         23    2    4    4    0    0  0.19717830447E+03 -0.36290703895E+03 -0.83116463117E+02  0.43078139163E+03  0.89908054466E+02 0.  0.
          4    1    3    3  502    0  0.19615533991E+03  0.10688836075E+03 -0.44637643530E+03  0.49915324404E+03  0.00000000000E+00 0. -1.
         -3    1    3    3    0  502  0.15809008606E+03  0.15921236935E+03 -0.35470557248E+03  0.41971073016E+03  0.00000000000E+00 0.  1.
         11    1    5    5    0    0 -0.24556958942E+03  0.45647330451E+02 -0.73641321790E+02  0.26040573400E+03  0.00000000000E+00 0.  1.
        -11    1    5    5    0    0 -0.30585414102E+03  0.51158978397E+02 -0.20492341798E+03  0.37169557959E+03  0.00000000000E+00 0. -1.
          4    1    6    6  503    0  0.83848147564E+02 -0.17729310298E+03 -0.83873909124E+02  0.21330304462E+03  0.00000000000E+00 0.  1.
         -4    1    6    6    0  503  0.11333015690E+03 -0.18561393597E+03  0.75744600726E+00  0.21747834700E+03  0.00000000000E+00 0. -1.
<mgrwt>
<rscale>  0 0.16047746E+04</rscale>
<asrwt>0</asrwt>
<pdfrwt beam="1">  1        2 0.62998728E-01 0.16047746E+04</pdfrwt>
<pdfrwt beam="2">  1       -1 0.24188538E+00 0.16047746E+04</pdfrwt>
<totfact> 0.66911355E+00</totfact>
</mgrwt>
</event>
<event>
12    6  0.1627636E-007  0.2749902E+04  0.7818608E-02  0.8318993E-01
          2   -1    0    0  501    0  0.00000000000E+00  0.00000000000E+00  0.81897517608E+03  0.81897517608E+03  0.00000000000E+00 0. -1.
         -1   -1    0    0    0  501 -0.00000000000E+00 -0.00000000000E+00 -0.23083603219E+04  0.23083603219E+04  0.00000000000E+00 0.  1.
         24    2    1    2    0    0 -0.61577503592E+03  0.89041824624E+03  0.12366615688E+02  0.10844314322E+04  0.61766090209E+02 0.  0.
        254    2    1    2    0    0  0.61577503592E+03 -0.89041824624E+03 -0.15017517616E+04  0.20429040658E+04  0.86381428598E+03 0.  0.
         23    2    4    4    0    0  0.63588590430E+03 -0.71503877580E+03 -0.15627970563E+04  0.18347793225E+04  0.91919470247E+02 0.  0.
         23    2    4    4    0    0 -0.20110868383E+02 -0.17537947044E+03  0.61045294713E+02  0.20812474331E+03  0.91798557133E+02 0.  0.
          2    1    3    3  502    0 -0.57097805859E+03  0.82996087123E+03 -0.40949810807E+01  0.10074064522E+04  0.00000000000E+00 0. -1.
         -1    1    3    3    0  502 -0.44796977324E+02  0.60457375013E+02  0.16461596769E+02  0.77024979967E+02  0.00000000000E+00 0.  1.
         11    1    5    5    0    0  0.56133965727E+02 -0.82245014005E+02 -0.21497726122E+03  0.23691873560E+03  0.00000000000E+00 0.  1.
        -11    1    5    5    0    0  0.57975193857E+03 -0.63279376180E+03 -0.13478197950E+04  0.15978605869E+04  0.00000000000E+00 0. -1.
          2    1    6    6  503    0  0.32456148765E+02 -0.85751751798E+02  0.47734068803E+02  0.10336975309E+03  0.00000000000E+00 0.  1.
         -2    1    6    6    0  503 -0.52567017148E+02 -0.89627718639E+02  0.13311225910E+02  0.10475499022E+03  0.00000000000E+00 0. -1.
<mgrwt>
<rscale>  0 0.27499017E+04</rscale>
<asrwt>0</asrwt>
<pdfrwt beam="1">  1        2 0.12599618E+00 0.27499017E+04</pdfrwt>
<pdfrwt beam="2">  1       -1 0.35513235E+00 0.27499017E+04</pdfrwt>
<totfact> 0.47766261E-01</totfact>
</mgrwt>
</event>
<event>
12    6  0.1627636E-007  0.1806922E+04  0.7818608E-02  0.8702627E-01
          2   -1    0    0  501    0  0.00000000000E+00  0.00000000000E+00  0.13031627863E+04  0.13031627863E+04  0.00000000000E+00 0. -1.
         -1   -1    0    0    0  501 -0.00000000000E+00 -0.00000000000E+00 -0.62635456020E+03  0.62635456020E+03  0.00000000000E+00 0.  1.
         24    2    1    2    0    0  0.34571555233E+03 -0.38371631450E+03  0.72365884489E+03  0.89269597279E+03  0.80414693336E+02 0.  0.
        254    2    1    2    0    0 -0.34571555233E+03  0.38371631450E+03 -0.46850618812E+02  0.10368213737E+04  0.89780071694E+03 0.  0.
         23    2    4    4    0    0 -0.38010858278E+01 -0.26924947355E+03  0.52201308807E+02  0.28753271789E+03  0.86257521146E+02 0.  0.
         23    2    4    4    0    0 -0.34191446650E+03  0.65296578805E+03 -0.99051927619E+02  0.74928865581E+03  0.91391370442E+02 0.  0.
          4    1    3    3  502    0  0.31161764472E+03 -0.37031564326E+03  0.64963315854E+03  0.81010028565E+03  0.00000000000E+00 0. -1.
         -3    1    3    3    0  502  0.34097907608E+02 -0.13400671243E+02  0.74025686356E+02  0.82595687137E+02  0.00000000000E+00 0.  1.
         11    1    5    5    0    0  0.83896333697E+01 -0.27033688938E+03  0.51015742920E+02  0.27523630889E+03  0.00000000000E+00 0. -1.
        -11    1    5    5    0    0 -0.12190719198E+02  0.10874158273E+01  0.11855658869E+01  0.12296408996E+02  0.00000000000E+00 0.  1.
          4    1    6    6  503    0 -0.31714894064E+03  0.57410706385E+03 -0.62315684419E+02  0.65883656231E+03  0.00000000000E+00 0. -1.
         -4    1    6    6    0  503 -0.24765525857E+02  0.78858724197E+02 -0.36736243200E+02  0.90452093494E+02  0.00000000000E+00 0.  1.
<mgrwt>
<rscale>  0 0.18069222E+04</rscale>
<asrwt>0</asrwt>
<pdfrwt beam="1">  1        2 0.20048658E+00 0.18069222E+04</pdfrwt>
<pdfrwt beam="2">  1       -1 0.96362241E-01 0.18069222E+04</pdfrwt>
<totfact> 0.18361127E+01</totfact>
</mgrwt>
</event>
<event>
12    6  0.1627636E-007  0.1565328E+04  0.7818608E-02  0.8842136E-01
         -1   -1    0    0    0  501 -0.00000000000E+00  0.00000000000E+00  0.58277527446E+03  0.58277527446E+03  0.00000000000E+00 0.  1.
          2   -1    0    0  501    0  0.00000000000E+00 -0.00000000000E+00 -0.10511137428E+04  0.10511137428E+04  0.00000000000E+00 0. -1.
         24    2    1    2    0    0  0.21641274142E+03 -0.43308276531E+03 -0.34818388775E+03  0.60157443369E+03  0.79149373476E+02 0.  0.
        254    2    1    2    0    0 -0.21641274142E+03  0.43308276531E+03 -0.12015458054E+03  0.10323145835E+04  0.90379263100E+03 0.  0.
         23    2    4    4    0    0  0.27947665331E+03 -0.68889090274E+02 -0.10825075957E+03  0.32079150717E+03  0.91302013223E+02 0.  0.
         23    2    4    4    0    0 -0.49588939473E+03  0.50197185559E+03 -0.11903820968E+02  0.71152307635E+03  0.90781890320E+02 0.  0.
          4    1    3    3  502    0  0.19956511193E+03 -0.41565995726E+03 -0.30749239355E+03  0.55421205875E+03  0.00000000000E+00 0. -1.
         -3    1    3    3    0  502  0.16847629492E+02 -0.17422808052E+02 -0.40691494208E+02  0.47362374948E+02  0.00000000000E+00 0.  1.
         11    1    5    5    0    0  0.26183083932E+03 -0.84604426809E+02 -0.11159077389E+03  0.29692726091E+03  0.00000000000E+00 0. -1.
        -11    1    5    5    0    0  0.17645813993E+02  0.15715336535E+02  0.33400143174E+01  0.23864246259E+02  0.00000000000E+00 0.  1.
          1    1    6    6  503    0 -0.44809249454E+03  0.40853982591E+03 -0.59231451822E+01  0.60640477956E+03  0.00000000000E+00 0. -1.
         -1    1    6    6    0  503 -0.47796900192E+02  0.93432029677E+02 -0.59806757862E+01  0.10511829679E+03  0.00000000000E+00 0.  1.
<mgrwt>
<rscale>  0 0.15653282E+04</rscale>
<asrwt>0</asrwt>
<pdfrwt beam="1">  1        2 0.16170980E+00 0.15653282E+04</pdfrwt>
<pdfrwt beam="2">  1       -1 0.89657736E-01 0.15653282E+04</pdfrwt>
<totfact> 0.31230796E+01</totfact>
</mgrwt>
</event>
<event>
12    6  0.1627636E-007  0.3143642E+04  0.7818608E-02  0.8203862E-01
         -1   -1    0    0    0  501 -0.00000000000E+00  0.00000000000E+00  0.13378477673E+04  0.13378477673E+04  0.00000000000E+00 0.  1.
          2   -1    0    0  501    0  0.00000000000E+00 -0.00000000000E+00 -0.18467132877E+04  0.18467132877E+04  0.00000000000E+00 0. -1.
         24    2    1    2    0    0  0.12646154473E+03  0.13921083057E+04 -0.62426590622E+03  0.15329958220E+04  0.80063795778E+02 0.  0.
        254    2    1    2    0    0 -0.12646154473E+03 -0.13921083057E+04  0.11540038585E+03  0.16515652331E+04  0.87200482392E+03 0.  0.
         23    2    4    4    0    0  0.58897628742E+01 -0.13933032497E+04  0.27917850881E+03  0.14237623532E+04  0.88487080859E+02 0.  0.
         23    2    4    4    0    0 -0.13235130761E+03  0.11949440337E+01 -0.16377812296E+03  0.22780287991E+03  0.86905592564E+02 0.  0.
          2    1    3    3  502    0  0.81910757775E+02  0.11950665485E+04 -0.52400698405E+03  0.13074695970E+04  0.00000000000E+00 0. -1.
         -1    1    3    3    0  502  0.44550786956E+02  0.19704175715E+03 -0.10025892217E+03  0.22552622498E+03  0.00000000000E+00 0.  1.
         11    1    5    5    0    0  0.34288318085E+02 -0.11579186111E+04  0.24741155774E+03  0.11845521000E+04  0.00000000000E+00 0. -1.
        -11    1    5    5    0    0 -0.28398555211E+02 -0.23538463867E+03  0.31766951074E+02  0.23921025321E+03  0.00000000000E+00 0.  1.
          1    1    6    6  503    0 -0.91778448475E+02 -0.68656879319E+01 -0.45836280292E+02  0.10281724499E+03  0.00000000000E+00 0. -1.
         -1    1    6    6    0  503 -0.40572859130E+02  0.80606319656E+01 -0.11794184267E+03  0.12498563492E+03  0.00000000000E+00 0.  1.
<mgrwt>
<rscale>  0 0.31436420E+04</rscale>
<asrwt>0</asrwt>
<pdfrwt beam="1">  1        2 0.28410974E+00 0.31436420E+04</pdfrwt>
<pdfrwt beam="2">  1       -1 0.20582273E+00 0.31436420E+04</pdfrwt>
<totfact> 0.10740340E+00</totfact>
</mgrwt>
</event>
<event>
12    6  0.1627636E-007  0.1746966E+04  0.7818608E-02  0.8735022E-01
         -1   -1    0    0    0  501 -0.00000000000E+00  0.00000000000E+00  0.53489980526E+03  0.53489980526E+03  0.00000000000E+00 0.  1.
          2   -1    0    0  501    0  0.00000000000E+00 -0.00000000000E+00 -0.14263842139E+04  0.14263842139E+04  0.00000000000E+00 0. -1.
         24    2    1    2    0    0 -0.17368444636E+03 -0.15734243990E+03 -0.96864348825E+03  0.99976910046E+03  0.79656240131E+02 0.  0.
        254    2    1    2    0    0  0.17368444636E+03  0.15734243990E+03  0.77159079645E+02  0.96151491867E+03  0.92931936650E+03 0.  0.
         23    2    4    4    0    0 -0.23658686541E+03 -0.25056429757E+03 -0.56176139002E+02  0.36080986407E+03  0.90951565751E+02 0.  0.
         23    2    4    4    0    0  0.41027131177E+03  0.40790673746E+03  0.13333521865E+03  0.60070505460E+03  0.91421148328E+02 0.  0.
          2    1    3    3  502    0 -0.18050057305E+03 -0.15570542012E+03 -0.95640859657E+03  0.98566832065E+03  0.00000000000E+00 0. -1.
         -1    1    3    3    0  502  0.68161266920E+01 -0.16370197828E+01 -0.12234891679E+02  0.14100779810E+02  0.00000000000E+00 0.  1.
         11    1    5    5    0    0 -0.94067348884E+02 -0.54224822498E+02 -0.46183908674E+02  0.11799131714E+03  0.00000000000E+00 0.  1.
        -11    1    5    5    0    0 -0.14251951653E+03 -0.19633947507E+03 -0.99922303273E+01  0.24281854692E+03  0.00000000000E+00 0. -1.
          2    1    6    6  503    0  0.36249405089E+03  0.39321440815E+03  0.11228500436E+03  0.54646814172E+03  0.00000000000E+00 0. -1.
         -2    1    6    6    0  503  0.47777260880E+02  0.14692329318E+02  0.21050214285E+02  0.54236912887E+02  0.00000000000E+00 0.  1.
<mgrwt>
<rscale>  0 0.17469661E+04</rscale>
<asrwt>0</asrwt>
<pdfrwt beam="1">  1        2 0.21944372E+00 0.17469661E+04</pdfrwt>
<pdfrwt beam="2">  1       -1 0.82292280E-01 0.17469661E+04</pdfrwt>
<totfact> 0.22173292E+01</totfact>
</mgrwt>
</event>
<event>
12    6  0.1627636E-007  0.1229982E+04  0.7818608E-02  0.9087011E-01
         -3   -1    0    0    0  501 -0.00000000000E+00  0.00000000000E+00  0.73515809691E+03  0.73515809691E+03  0.00000000000E+00 0.  1.
          4   -1    0    0  501    0  0.00000000000E+00 -0.00000000000E+00 -0.51446570863E+03  0.51446570863E+03  0.00000000000E+00 0. -1.
         24    2    1    2    0    0  0.11079885351E+03  0.29057585261E+03  0.98110275926E+01  0.32118982815E+03  0.79724133017E+02 0.  0.
        254    2    1    2    0    0 -0.11079885351E+03 -0.29057585261E+03  0.21088136069E+03  0.92843397738E+03  0.84900411660E+03 0.  0.
         23    2    4    4    0    0  0.31885895797E+03  0.20439672453E+02 -0.39843296911E+02  0.33433214690E+03  0.90009337626E+02 0.  0.
         23    2    4    4    0    0 -0.42965781148E+03 -0.31101552507E+03  0.25072465760E+03  0.59410183048E+03  0.93582259278E+02 0.  0.
          2    1    3    3  502    0  0.25784246749E+02  0.51396223617E+02  0.32992788486E+02  0.66294217505E+02  0.00000000000E+00 0. -1.
         -1    1    3    3    0  502  0.85014606764E+02  0.23917962900E+03 -0.23181760893E+02  0.25489561065E+03  0.00000000000E+00 0.  1.
         11    1    5    5    0    0  0.63015649304E+02 -0.30917223946E+02 -0.18059238480E+02  0.72477464692E+02  0.00000000000E+00 0. -1.
        -11    1    5    5    0    0  0.25584330866E+03  0.51356896399E+02 -0.21784058431E+02  0.26185468221E+03  0.00000000000E+00 0.  1.
          1    1    6    6  503    0 -0.13242690042E+03 -0.10670565800E+03  0.34359069538E+02  0.17350368026E+03  0.00000000000E+00 0. -1.
         -1    1    6    6    0  503 -0.29723091105E+03 -0.20430986707E+03  0.21636558806E+03  0.42059815022E+03  0.00000000000E+00 0.  1.
<mgrwt>
<rscale>  0 0.12299815E+04</rscale>
<asrwt>0</asrwt>
<pdfrwt beam="1">  1        4 0.79148571E-01 0.12299815E+04</pdfrwt>
<pdfrwt beam="2">  1       -3 0.11310125E+00 0.12299815E+04</pdfrwt>
<totfact> 0.20884578E+00</totfact>
</mgrwt>
</event>
<event>
12    6  0.1627636E-007  0.1819769E+04  0.7818608E-02  0.8695857E-01
          2   -1    0    0  501    0  0.00000000000E+00  0.00000000000E+00  0.34020208646E+04  0.34020208646E+04  0.00000000000E+00 0. -1.
         -1   -1    0    0    0  501 -0.00000000000E+00 -0.00000000000E+00 -0.24335239981E+03  0.24335239981E+03  0.00000000000E+00 0.  1.
         24    2    1    2    0    0 -0.30368710257E+03  0.60883062198E+03  0.14759709452E+04  0.16266353852E+04  0.67467495072E+02 0.  0.
        254    2    1    2    0    0  0.30368710257E+03 -0.60883062198E+03  0.16826975197E+04  0.20187378792E+04  0.88370306095E+03 0.  0.
         23    2    4    4    0    0 -0.26290326480E+03 -0.12539884666E+03  0.22500729848E+03  0.37898013764E+03  0.90303172531E+02 0.  0.
         23    2    4    4    0    0  0.56659036736E+03 -0.48343177532E+03  0.14576902212E+04  0.16397577416E+04  0.95988251867E+02 0.  0.
          2    1    3    3  502    0 -0.15113465605E+03  0.24081962477E+03  0.65865549479E+03  0.71740005349E+03  0.00000000000E+00 0. -1.
         -1    1    3    3    0  502 -0.15255244651E+03  0.36801099721E+03  0.81731545039E+03  0.90923533172E+03  0.00000000000E+00 0.  1.
         11    1    5    5    0    0 -0.21230862509E+03 -0.10657539745E+03  0.13286261581E+03  0.27218696205E+03  0.00000000000E+00 0. -1.
        -11    1    5    5    0    0 -0.50594639706E+02 -0.18823449206E+02  0.92144682675E+02  0.10679317559E+03  0.00000000000E+00 0.  1.
          2    1    6    6  503    0  0.56951418153E+03 -0.48437610516E+03  0.14539949575E+04  0.16349519720E+04  0.00000000000E+00 0. -1.
         -2    1    6    6    0  503 -0.29238141710E+01  0.94432984475E+00  0.36952636290E+01  0.48057696002E+01  0.00000000000E+00 0.  1.
<mgrwt>
<rscale>  0 0.18197692E+04</rscale>
<asrwt>0</asrwt>
<pdfrwt beam="1">  1        2 0.52338779E+00 0.18197692E+04</pdfrwt>
<pdfrwt beam="2">  1       -1 0.37438833E-01 0.18197692E+04</pdfrwt>
<totfact> 0.70568034E+00</totfact>
</mgrwt>
</event>
<event>
12    6  0.1627636E-007  0.1460399E+04  0.7818608E-02  0.8911223E-01
          2   -1    0    0  501    0  0.00000000000E+00  0.00000000000E+00  0.25505495009E+04  0.25505495009E+04  0.00000000000E+00 0. -1.
         -1   -1    0    0    0  501 -0.00000000000E+00 -0.00000000000E+00 -0.20904958755E+03  0.20904958755E+03  0.00000000000E+00 0.  1.
         24    2    1    2    0    0 -0.31344647797E+02 -0.35850052259E+03  0.62423049309E+03  0.72498014431E+03  0.80171001533E+02 0.  0.
        254    2    1    2    0    0  0.31344647797E+02  0.35850052259E+03  0.17172694203E+04  0.20346189441E+04  0.10301237180E+04 0.  0.
         23    2    4    4    0    0  0.12730095627E+03 -0.25895318123E+03  0.11360102017E+04  0.11755570892E+04  0.90294009413E+02 0.  0.
         23    2    4    4    0    0 -0.95956308473E+02  0.61745370382E+03  0.58125921860E+03  0.85906185495E+03  0.98327523746E+02 0.  0.
          2    1    3    3  502    0 -0.30157047812E+01 -0.37403804317E+02  0.26720776671E+02  0.46066679484E+02  0.00000000000E+00 0. -1.
         -1    1    3    3    0  502 -0.28328943016E+02 -0.32109671828E+03  0.59750971642E+03  0.67891346482E+03  0.00000000000E+00 0.  1.
         11    1    5    5    0    0  0.38507991438E+02 -0.16059204505E+02  0.21042200271E+03  0.21451849030E+03  0.00000000000E+00 0. -1.
        -11    1    5    5    0    0  0.88792964832E+02 -0.24289397672E+03  0.92558819895E+03  0.96103859889E+03  0.00000000000E+00 0.  1.
          1    1    6    6  503    0 -0.19636943983E+01  0.16602866944E+03  0.20579265136E+03  0.26442388418E+03  0.00000000000E+00 0. -1.
         -1    1    6    6    0  503 -0.93992614075E+02  0.45142503438E+03  0.37546656724E+03  0.59463797077E+03  0.00000000000E+00 0.  1.
<mgrwt>
<rscale>  0 0.14603990E+04</rscale>
<asrwt>0</asrwt>
<pdfrwt beam="1">  1        2 0.39239221E+00 0.14603990E+04</pdfrwt>
<pdfrwt beam="2">  1       -1 0.32161477E-01 0.14603990E+04</pdfrwt>
<totfact> 0.32512075E+01</totfact>
</mgrwt>
</event>
<event>
12    6  0.1627636E-007  0.1413399E+04  0.7818608E-02  0.8944177E-01
         -1   -1    0    0    0  501 -0.00000000000E+00  0.00000000000E+00  0.47038914836E+03  0.47038914836E+03  0.00000000000E+00 0.  1.
          2   -1    0    0  501    0  0.00000000000E+00 -0.00000000000E+00 -0.10617248551E+04  0.10617248551E+04  0.00000000000E+00 0. -1.
         24    2    1    2    0    0  0.16302487842E+02 -0.29876796704E+03  0.11974563344E+03  0.33206091027E+03  0.79983511831E+02 0.  0.
        254    2    1    2    0    0 -0.16302487842E+02  0.29876796704E+03 -0.71108134020E+03  0.12000530932E+04  0.91921851858E+03 0.  0.
         23    2    4    4    0    0 -0.38072267375E+03  0.23967413449E+03 -0.85378369196E+02  0.46714626508E+03  0.92426846721E+02 0.  0.
         23    2    4    4    0    0  0.36442018591E+03  0.59093832544E+02 -0.62570297101E+03  0.73290682813E+03  0.96716378414E+02 0.  0.
          2    1    3    3  502    0  0.23384394479E+02 -0.20623441609E+02  0.77235812054E+01  0.32121798760E+02  0.00000000000E+00 0. -1.
         -1    1    3    3    0  502 -0.70819066376E+01 -0.27814452543E+03  0.11202205223E+03  0.29993911151E+03  0.00000000000E+00 0.  1.
         11    1    5    5    0    0 -0.25694663154E+03  0.11865277491E+03 -0.26321611652E+02  0.28424088322E+03  0.00000000000E+00 0. -1.
        -11    1    5    5    0    0 -0.12377604221E+03  0.12102135958E+03 -0.59056757544E+02  0.18290538185E+03  0.00000000000E+00 0.  1.
          1    1    6    6  503    0  0.35862034522E+03  0.61587467230E+02 -0.56601061941E+03  0.67288155675E+03  0.00000000000E+00 0. -1.
         -1    1    6    6    0  503  0.57998406939E+01 -0.24936346861E+01 -0.59692351596E+02  0.60025271387E+02  0.00000000000E+00 0.  1.
<mgrwt>
<rscale>  0 0.14133985E+04</rscale>
<asrwt>0</asrwt>
<pdfrwt beam="1">  1        2 0.16334228E+00 0.14133985E+04</pdfrwt>
<pdfrwt beam="2">  1       -1 0.72367562E-01 0.14133985E+04</pdfrwt>
<totfact> 0.49176965E+01</totfact>
</mgrwt>
</event>
<event>
12    6  0.1627636E-007  0.1173493E+04  0.7818608E-02  0.9136380E-01
         -1   -1    0    0    0  501 -0.00000000000E+00  0.00000000000E+00  0.40672047824E+03  0.40672047824E+03  0.00000000000E+00 0.  1.
          2   -1    0    0  501    0  0.00000000000E+00 -0.00000000000E+00 -0.84645700232E+03  0.84645700232E+03  0.00000000000E+00 0. -1.
         24    2    1    2    0    0 -0.85278602774E+02 -0.18508570170E+02 -0.32485176252E+03  0.34554021084E+03  0.79084527155E+02 0.  0.
        254    2    1    2    0    0  0.85278602774E+02  0.18508570170E+02 -0.11488476156E+03  0.90763726972E+03  0.89609815181E+03 0.  0.
         23    2    4    4    0    0 -0.36940006521E+03  0.15774131844E+03 -0.97179093975E+02  0.42297518049E+03  0.90141529195E+02 0.  0.
         23    2    4    4    0    0  0.45467866798E+03 -0.13923274827E+03 -0.17705667589E+02  0.48466208923E+03  0.92007612531E+02 0.  0.
          2    1    3    3  502    0 -0.67519975340E+02 -0.32826794267E+02 -0.30842046016E+03  0.31742672498E+03  0.00000000000E+00 0. -1.
         -1    1    3    3    0  502 -0.17758627434E+02  0.14318224097E+02 -0.16431302363E+02  0.28113485856E+02  0.00000000000E+00 0.  1.
         11    1    5    5    0    0 -0.84704151179E+02 -0.23967981879E+01 -0.26352487229E+02  0.88741148582E+02  0.00000000000E+00 0.  1.
        -11    1    5    5    0    0 -0.28469591403E+03  0.16013811663E+03 -0.70826606745E+02  0.33423403191E+03  0.00000000000E+00 0. -1.
          3    1    6    6  503    0  0.40635675612E+03 -0.11614320070E+03 -0.44160070742E+02  0.42492960377E+03  0.00000000000E+00 0. -1.
         -3    1    6    6    0  503  0.48321911866E+02 -0.23089547573E+02  0.26454403153E+02  0.59732485464E+02  0.00000000000E+00 0.  1.
<mgrwt>
<rscale>  0 0.11734929E+04</rscale>
<asrwt>0</asrwt>
<pdfrwt beam="1">  1        2 0.13022415E+00 0.11734929E+04</pdfrwt>
<pdfrwt beam="2">  1       -1 0.62572381E-01 0.11734929E+04</pdfrwt>
<totfact> 0.93299941E+01</totfact>
</mgrwt>
</event>
<event>
12    6  0.1627636E-007  0.2641656E+04  0.7818608E-02  0.8354188E-01
          2   -1    0    0  501    0  0.00000000000E+00  0.00000000000E+00  0.37388194326E+04  0.37388194326E+04  0.00000000000E+00 0. -1.
         -1   -1    0    0    0  501 -0.00000000000E+00 -0.00000000000E+00 -0.46661423091E+03  0.46661423091E+03  0.00000000000E+00 0.  1.
         24    2    1    2    0    0  0.89607395919E+03  0.51214844109E+03  0.58842396482E+03  0.11907364095E+04  0.79786392276E+02 0.  0.
        254    2    1    2    0    0 -0.89607395919E+03 -0.51214844109E+03  0.26837812369E+04  0.30146972541E+04  0.90579977928E+03 0.  0.
         23    2    4    4    0    0 -0.22277110755E+03 -0.20627902183E+02  0.42248805676E+02  0.24323553421E+03  0.85592562866E+02 0.  0.
         23    2    4    4    0    0 -0.67330285165E+03 -0.49152053891E+03  0.26415324312E+04  0.27714617199E+04  0.91527641956E+02 0.  0.
          4    1    3    3  502    0  0.89822020024E+02  0.41887569700E+02  0.83179118098E+02  0.12938828952E+03  0.00000000000E+00 0. -1.
         -3    1    3    3    0  502  0.80625193917E+03  0.47026087139E+03  0.50524484672E+03  0.10613481199E+04  0.00000000000E+00 0.  1.
         11    1    5    5    0    0 -0.97132700901E+02  0.33415435177E+02  0.15670178155E+02  0.10390816799E+03  0.00000000000E+00 0. -1.
        -11    1    5    5    0    0 -0.12563840664E+03 -0.54043337359E+02  0.26578627521E+02  0.13932736622E+03  0.00000000000E+00 0.  1.
          2    1    6    6  503    0 -0.17063540891E+03 -0.17035496530E+03  0.70018317710E+03  0.74053611557E+03  0.00000000000E+00 0. -1.
         -2    1    6    6    0  503 -0.50266744274E+03 -0.32116557361E+03  0.19413492541E+04  0.20309256043E+04  0.00000000000E+00 0.  1.
<mgrwt>
<rscale>  0 0.26416558E+04</rscale>
<asrwt>0</asrwt>
<pdfrwt beam="1">  1        2 0.57520297E+00 0.26416558E+04</pdfrwt>
<pdfrwt beam="2">  1       -1 0.71786807E-01 0.26416558E+04</pdfrwt>
<totfact> 0.10733144E+00</totfact>
</mgrwt>
</event>
<event>
12    6  0.1627636E-007  0.2573687E+04  0.7818608E-02  0.8377194E-01
         -1   -1    0    0    0  501 -0.00000000000E+00  0.00000000000E+00  0.78785319237E+03  0.78785319237E+03  0.00000000000E+00 0.  1.
          2   -1    0    0  501    0  0.00000000000E+00 -0.00000000000E+00 -0.21018723192E+04  0.21018723192E+04  0.00000000000E+00 0. -1.
         24    2    1    2    0    0  0.60205458960E+03  0.61663119042E+03  0.24032549272E+03  0.89797529287E+03  0.76808399942E+02 0.  0.
        254    2    1    2    0    0 -0.60205458960E+03 -0.61663119042E+03 -0.15543446195E+04  0.19917502187E+04  0.89909842811E+03 0.  0.
         23    2    4    4    0    0 -0.38586060159E+02 -0.32954197735E+03 -0.37827418989E+02  0.34593921584E+03  0.90311840599E+02 0.  0.
         23    2    4    4    0    0 -0.56346852944E+03 -0.28708921307E+03 -0.15165172005E+04  0.16458110028E+04  0.94617321712E+02 0.  0.
          4    1    3    3  502    0  0.30252578336E+03  0.31654546197E+03  0.82525244208E+02  0.44557075198E+03  0.00000000000E+00 0. -1.
         -3    1    3    3    0  502  0.29952880624E+03  0.30008572845E+03  0.15780024851E+03  0.45240454089E+03  0.00000000000E+00 0.  1.
         11    1    5    5    0    0  0.17414191279E+02 -0.21604656321E+03 -0.14358136142E+02  0.21722229997E+03  0.00000000000E+00 0.  1.
        -11    1    5    5    0    0 -0.56000251438E+02 -0.11349541414E+03 -0.23469282848E+02  0.12871691587E+03  0.00000000000E+00 0. -1.
          2    1    6    6  503    0 -0.15746138839E+03 -0.40538577110E+02 -0.44311689394E+03  0.47200640542E+03  0.00000000000E+00 0. -1.
         -2    1    6    6    0  503 -0.40600714105E+03 -0.24655063596E+03 -0.10734003066E+04  0.11738045974E+04  0.00000000000E+00 0.  1.
<mgrwt>
<rscale>  0 0.25736875E+04</rscale>
<asrwt>0</asrwt>
<pdfrwt beam="1">  1        2 0.32336497E+00 0.25736875E+04</pdfrwt>
<pdfrwt beam="2">  1       -1 0.12120818E+00 0.25736875E+04</pdfrwt>
<totfact> 0.35703677E+00</totfact>
</mgrwt>
</event>
<event>
12    6  0.1627636E-007  0.1222240E+04  0.7818608E-02  0.9093610E-01
         -1   -1    0    0    0  501 -0.00000000000E+00  0.00000000000E+00  0.98550340075E+03  0.98550340075E+03  0.00000000000E+00 0.  1.
          2   -1    0    0  501    0  0.00000000000E+00 -0.00000000000E+00 -0.37896102744E+03  0.37896102744E+03  0.00000000000E+00 0. -1.
         24    2    1    2    0    0 -0.16445160930E+03  0.16337943255E+03 -0.26429648500E+02  0.24680185390E+03  0.80470230453E+02 0.  0.
        254    2    1    2    0    0  0.16445160930E+03 -0.16337943255E+03  0.63297202181E+03  0.11176625743E+04  0.89150371777E+03 0.  0.
         23    2    4    4    0    0  0.95109080256E+02 -0.23184022691E+03  0.83361080109E+03  0.87535518590E+03  0.92434332476E+02 0.  0.
         23    2    4    4    0    0  0.69342529040E+02  0.68460794360E+02 -0.20063877928E+03  0.24230738839E+03  0.94666171466E+02 0.  0.
          2    1    3    3  502    0 -0.49434540843E+02  0.33428109526E+02  0.26605898376E+02  0.65338244262E+02  0.00000000000E+00 0. -1.
         -1    1    3    3    0  502 -0.11501706845E+03  0.12995132302E+03 -0.53035546876E+02  0.18146360964E+03  0.00000000000E+00 0.  1.
         11    1    5    5    0    0  0.44893742227E+02 -0.10751791261E+03  0.23996453581E+03  0.26675555865E+03  0.00000000000E+00 0. -1.
        -11    1    5    5    0    0  0.50215338029E+02 -0.12432231430E+03  0.59364626529E+03  0.60859962725E+03  0.00000000000E+00 0.  1.
          3    1    6    6  503    0 -0.12336216755E+02  0.46139345776E+02 -0.47742063589E+02  0.67530186644E+02  0.00000000000E+00 0. -1.
         -3    1    6    6    0  503  0.81678745795E+02  0.22321448585E+02 -0.15289671569E+03  0.17477720175E+03  0.00000000000E+00 0.  1.
<mgrwt>
<rscale>  0 0.12222396E+04</rscale>
<asrwt>0</asrwt>
<pdfrwt beam="1">  1        2 0.58301697E-01 0.12222396E+04</pdfrwt>
<pdfrwt beam="2">  1       -1 0.15161591E+00 0.12222396E+04</pdfrwt>
<totfact> 0.32310943E+01</totfact>
</mgrwt>
</event>
<event>
12    6  0.1627636E-007  0.1672911E+04  0.7818608E-02  0.8776967E-01
          2   -1    0    0  501    0  0.00000000000E+00  0.00000000000E+00  0.13187404543E+04  0.13187404543E+04  0.00000000000E+00 0. -1.
         -1   -1    0    0    0  501 -0.00000000000E+00 -0.00000000000E+00 -0.53055025983E+03  0.53055025983E+03  0.00000000000E+00 0.  1.
         24    2    1    2    0    0 -0.28652151988E+03  0.16873288623E+03 -0.25652644027E+03  0.42735366306E+03  0.79119975512E+02 0.  0.
        254    2    1    2    0    0  0.28652151988E+03 -0.16873288623E+03  0.10447166348E+04  0.14219370511E+04  0.90548703031E+03 0.  0.
         23    2    4    4    0    0  0.62765518690E+02 -0.48813577618E+03  0.82516335708E+03  0.96517164672E+03  0.91900464865E+02 0.  0.
         23    2    4    4    0    0  0.22375600119E+03  0.31940288995E+03  0.21955327770E+03  0.45676540438E+03  0.91356656656E+02 0.  0.
          2    1    3    3  502    0 -0.11569795507E+03  0.11267147525E+03 -0.13310533756E+03  0.20927949978E+03  0.00000000000E+00 0. -1.
         -1    1    3    3    0  502 -0.17082356481E+03  0.56061410976E+02 -0.12342110271E+03  0.21807416328E+03  0.00000000000E+00 0.  1.
         11    1    5    5    0    0  0.67989961601E+02 -0.18659492702E+03  0.30712986583E+03  0.36574452306E+03  0.00000000000E+00 0. -1.
        -11    1    5    5    0    0 -0.52244429111E+01 -0.30154084916E+03  0.51803349126E+03  0.59942712366E+03  0.00000000000E+00 0.  1.
          3    1    6    6  503    0  0.10821743736E+01  0.53738425655E+02  0.25322539777E+02  0.59415658828E+02  0.00000000000E+00 0. -1.
         -3    1    6    6    0  503  0.22267382682E+03  0.26566446429E+03  0.19423073792E+03  0.39734974555E+03  0.00000000000E+00 0.  1.
<mgrwt>
<rscale>  0 0.16729113E+04</rscale>
<asrwt>0</asrwt>
<pdfrwt beam="1">  1        2 0.20288315E+00 0.16729113E+04</pdfrwt>
<pdfrwt beam="2">  1       -1 0.81623118E-01 0.16729113E+04</pdfrwt>
<totfact> 0.26186724E+01</totfact>
</mgrwt>
</event>
<event>
12    6  0.1627636E-007  0.1235818E+04  0.7818608E-02  0.9082070E-01
         -1   -1    0    0    0  501 -0.00000000000E+00  0.00000000000E+00  0.53458302832E+03  0.53458302832E+03  0.00000000000E+00 0.  1.
          2   -1    0    0  501    0  0.00000000000E+00 -0.00000000000E+00 -0.71422343295E+03  0.71422343295E+03  0.00000000000E+00 0. -1.
         24    2    1    2    0    0 -0.22808190250E+03 -0.49314381971E+02 -0.19455268937E+03  0.31530224236E+03  0.84329666078E+02 0.  0.
        254    2    1    2    0    0  0.22808190250E+03  0.49314381971E+02  0.14912284734E+02  0.93350421891E+03  0.90374470287E+03 0.  0.
         23    2    4    4    0    0  0.53564509007E+03 -0.51453689370E+01 -0.15432947889E+03  0.56471134658E+03  0.90217401685E+02 0.  0.
         23    2    4    4    0    0 -0.30756318757E+03  0.54459750908E+02  0.16924176362E+03  0.36879287233E+03  0.99017318239E+02 0.  0.
          2    1    3    3  502    0 -0.11267978093E+03 -0.61585855107E+02 -0.75112596249E+02  0.14876643672E+03  0.00000000000E+00 0. -1.
         -3    1    3    3    0  502 -0.11540212157E+03  0.12271473136E+02 -0.11944009312E+03  0.16653580564E+03  0.00000000000E+00 0.  1.
         11    1    5    5    0    0  0.30326795856E+03 -0.30098623978E+01 -0.13358845856E+03  0.33140064909E+03  0.00000000000E+00 0.  1.
        -11    1    5    5    0    0  0.23237713151E+03 -0.21355065391E+01 -0.20741020327E+02  0.23331069749E+03  0.00000000000E+00 0. -1.
          2    1    6    6  503    0 -0.12807814455E+03 -0.25467778284E+02  0.56675554973E+02  0.14235426714E+03  0.00000000000E+00 0. -1.
         -2    1    6    6    0  503 -0.17948504302E+03  0.79927529191E+02  0.11256620865E+03  0.22643860519E+03  0.00000000000E+00 0.  1.
<mgrwt>
<rscale>  0 0.12358183E+04</rscale>
<asrwt>0</asrwt>
<pdfrwt beam="1">  1        2 0.10988053E+00 0.12358183E+04</pdfrwt>
<pdfrwt beam="2">  1       -1 0.82243543E-01 0.12358183E+04</pdfrwt>
<totfact> 0.66047930E+01</totfact>
</mgrwt>
</event>
<event>
12    6  0.1627636E-007  0.1632792E+04  0.7818608E-02  0.8800652E-01
         -1   -1    0    0    0  501 -0.00000000000E+00  0.00000000000E+00  0.22549727337E+04  0.22549727337E+04  0.00000000000E+00 0.  1.
          2   -1    0    0  501    0  0.00000000000E+00 -0.00000000000E+00 -0.29557010974E+03  0.29557010974E+03  0.00000000000E+00 0. -1.
         24    2    1    2    0    0  0.45059885919E+03 -0.21387329048E+03  0.26525936097E+03  0.57035080474E+03  0.78462701971E+02 0.  0.
        254    2    1    2    0    0 -0.45059885919E+03  0.21387329048E+03  0.16941432630E+04  0.19801920387E+04  0.89568856101E+03 0.  0.
         23    2    4    4    0    0 -0.35074751177E+03  0.32112186540E+03  0.17362282228E+04  0.18024890602E+04  0.91297869268E+02 0.  0.
         23    2    4    4    0    0 -0.99851347413E+02 -0.10724857492E+03 -0.42084959843E+02  0.17770297850E+03  0.91294338921E+02 0.  0.
          2    1    3    3  502    0  0.40926637920E+03 -0.16600841086E+03  0.23039056567E+03  0.49813409276E+03  0.00000000000E+00 0. -1.
         -1    1    3    3    0  502  0.41332479988E+02 -0.47864879626E+02  0.34868795303E+02  0.72216711981E+02  0.00000000000E+00 0.  1.
         11    1    5    5    0    0 -0.15146244755E+03  0.90216158635E+02  0.73407408704E+03  0.75494674882E+03  0.00000000000E+00 0. -1.
        -11    1    5    5    0    0 -0.19928506422E+03  0.23090570677E+03  0.10021541358E+04  0.10475423114E+04  0.00000000000E+00 0.  1.
          2    1    6    6  503    0  0.39021676210E+01  0.11891948303E+02 -0.11055988999E+02  0.16699707761E+02  0.00000000000E+00 0. -1.
         -2    1    6    6    0  503 -0.10375351503E+03 -0.11914052323E+03 -0.31028970844E+02  0.16100327074E+03  0.00000000000E+00 0.  1.
<mgrwt>
<rscale>  0 0.16327921E+04</rscale>
<asrwt>0</asrwt>
<pdfrwt beam="1">  1        2 0.45472326E-01 0.16327921E+04</pdfrwt>
<pdfrwt beam="2">  1       -1 0.34691887E+00 0.16327921E+04</pdfrwt>
<totfact> 0.19977897E+00</totfact>
</mgrwt>
</event>
<event>
12    6  0.1627636E-007  0.1583104E+04  0.7818608E-02  0.8830995E-01
         -1   -1    0    0    0  501 -0.00000000000E+00  0.00000000000E+00  0.60548288284E+03  0.60548288284E+03  0.00000000000E+00 0.  1.
          2   -1    0    0  501    0  0.00000000000E+00 -0.00000000000E+00 -0.10348018771E+04  0.10348018771E+04  0.00000000000E+00 0. -1.
         24    2    1    2    0    0 -0.53768126942E+03 -0.43289085140E+02 -0.17095843338E+03  0.57152288963E+03  0.80228019111E+02 0.  0.
        254    2    1    2    0    0  0.53768126942E+03  0.43289085140E+02 -0.25836056091E+03  0.10687618703E+04  0.88573509791E+03 0.  0.
         23    2    4    4    0    0  0.46639243241E+03  0.40245503970E+03 -0.19005085706E+02  0.62304611755E+03  0.91286972324E+02 0.  0.
         23    2    4    4    0    0  0.71288837013E+02 -0.35916595456E+03 -0.23935547520E+03  0.44571575279E+03  0.85376856189E+02 0.  0.
          2    1    3    3  502    0 -0.91140477588E+02 -0.10278197395E+02  0.14179752870E+01  0.91729159216E+02  0.00000000000E+00 0. -1.
         -1    1    3    3    0  502 -0.44654079183E+03 -0.33010887745E+02 -0.17237640867E+03  0.47979373042E+03  0.00000000000E+00 0.  1.
         11    1    5    5    0    0  0.29897064622E+03  0.20360601704E+03 -0.29273732037E+02  0.36289917176E+03  0.00000000000E+00 0.  1.
        -11    1    5    5    0    0  0.16742178619E+03  0.19884902266E+03  0.10268646331E+02  0.26014694578E+03  0.00000000000E+00 0. -1.
          2    1    6    6  503    0  0.86663962595E+02 -0.34187062856E+03 -0.22773434303E+03  0.41982031881E+03  0.00000000000E+00 0. -1.
         -2    1    6    6    0  503 -0.15375125582E+02 -0.17295326001E+02 -0.11621132173E+02  0.25895433982E+02  0.00000000000E+00 0.  1.
<mgrwt>
<rscale>  0 0.15831043E+04</rscale>
<asrwt>0</asrwt>
<pdfrwt beam="1">  1        2 0.15920029E+00 0.15831043E+04</pdfrwt>
<pdfrwt beam="2">  1       -1 0.93151213E-01 0.15831043E+04</pdfrwt>
<totfact> 0.29339554E+01</totfact>
</mgrwt>
</event>
<event>
12    6  0.1775181E-007  0.1461586E+04  0.7818608E-02  0.8910407E-01
         -1   -1    0    0    0  501 -0.00000000000E+00  0.00000000000E+00  0.52536326716E+03  0.52536326716E+03  0.00000000000E+00 0.  1.
          2   -1    0    0  501    0  0.00000000000E+00 -0.00000000000E+00 -0.10165509393E+04  0.10165509393E+04  0.00000000000E+00 0. -1.
         24    2    1    2    0    0  0.30332563217E+03 -0.20305035351E+03 -0.43573519157E+03  0.57442635036E+03  0.82852818984E+02 0.  0.
        254    2    1    2    0    0 -0.30332563217E+03  0.20305035351E+03 -0.55452480619E+02  0.96748785615E+03  0.89427170870E+03 0.  0.
         23    2    4    4    0    0 -0.20955819267E+03  0.49836225617E+03  0.16773551886E+03  0.57340328411E+03  0.91523480314E+02 0.  0.
         23    2    4    4    0    0 -0.93767439508E+02 -0.29531190266E+03 -0.22318799948E+03  0.39408457204E+03  0.97407978330E+02 0.  0.
          2    1    3    3  502    0  0.21646153781E+03 -0.17938472747E+03 -0.29625121950E+03  0.40841065467E+03  0.00000000000E+00 0. -1.
         -1    1    3    3    0  502  0.86864094369E+02 -0.23665626040E+02 -0.13948397208E+03  0.16601569568E+03  0.00000000000E+00 0.  1.
         11    1    5    5    0    0 -0.98427179264E+02  0.12891161659E+03  0.58721029607E+02  0.17249427187E+03  0.00000000000E+00 0. -1.
        -11    1    5    5    0    0 -0.11113101340E+03  0.36945063958E+03  0.10901448925E+03  0.40090901224E+03  0.00000000000E+00 0.  1.
          1    1    6    6  503    0 -0.33824686877E+02 -0.36033622516E+02 -0.44770229543E+01  0.49624340081E+02  0.00000000000E+00 0. -1.
         -1    1    6    6    0  503 -0.59942752631E+02 -0.25927828015E+03 -0.21871097652E+03  0.34446023196E+03  0.00000000000E+00 0.  1.
<mgrwt>
<rscale>  0 0.14615862E+04</rscale>
<asrwt>0</asrwt>
<pdfrwt beam="1">  1        2 0.15639245E+00 0.14615862E+04</pdfrwt>
<pdfrwt beam="2">  1       -1 0.80825119E-01 0.14615862E+04</pdfrwt>
<totfact> 0.41475854E+01</totfact>
</mgrwt>
</event>
<event>
12    6  0.1627636E-007  0.1605804E+04  0.7818608E-02  0.8816990E-01
          2   -1    0    0  501    0  0.00000000000E+00  0.00000000000E+00  0.69975672823E+03  0.69975672823E+03  0.00000000000E+00 0. -1.
         -1   -1    0    0    0  501 -0.00000000000E+00 -0.00000000000E+00 -0.92125077491E+03  0.92125077491E+03  0.00000000000E+00 0.  1.
         24    2    1    2    0    0  0.21435684336E+03  0.23562499878E+03 -0.51995385427E+03  0.61510994106E+03  0.80871705031E+02 0.  0.
        254    2    1    2    0    0 -0.21435684336E+03 -0.23562499878E+03  0.29845980759E+03  0.10058975621E+04  0.90624701507E+03 0.  0.
         23    2    4    4    0    0 -0.37849334933E+03  0.23435983663E+03  0.13525243382E+03  0.47419485990E+03  0.91573990790E+02 0.  0.
         23    2    4    4    0    0  0.16413650597E+03 -0.46998483541E+03  0.16320737377E+03  0.53170270218E+03  0.90799661603E+02 0.  0.
          2    1    3    3  502    0  0.38579176338E+02  0.96361318145E+02 -0.18199059704E+03  0.20950998518E+03  0.00000000000E+00 0. -1.
         -1    1    3    3    0  502  0.17577766702E+03  0.13926368063E+03 -0.33796325723E+03  0.40559995588E+03  0.00000000000E+00 0.  1.
         11    1    5    5    0    0 -0.33201209027E+02 -0.37497621342E+01  0.21062837604E+02  0.39497140717E+02  0.00000000000E+00 0.  1.
        -11    1    5    5    0    0 -0.34529214030E+03  0.23810959877E+03  0.11418959622E+03  0.43469771918E+03  0.00000000000E+00 0. -1.
          2    1    6    6  503    0  0.54449006979E+02 -0.29009632766E+03  0.10222112251E+03  0.31236153984E+03  0.00000000000E+00 0. -1.
         -2    1    6    6    0  503  0.10968749899E+03 -0.17988850775E+03  0.60986251258E+02  0.21934116234E+03  0.00000000000E+00 0.  1.
<mgrwt>
<rscale>  0 0.16058038E+04</rscale>
<asrwt>0</asrwt>
<pdfrwt beam="1">  1        2 0.10765488E+00 0.16058038E+04</pdfrwt>
<pdfrwt beam="2">  1       -1 0.14173089E+00 0.16058038E+04</pdfrwt>
<totfact> 0.18213835E+01</totfact>
</mgrwt>
</event>
<event>
12    6  0.1627636E-007  0.2146727E+04  0.7818608E-02  0.8540935E-01
          2   -1    0    0  501    0  0.00000000000E+00  0.00000000000E+00  0.78269173197E+03  0.78269173197E+03  0.00000000000E+00 0. -1.
         -1   -1    0    0    0  501 -0.00000000000E+00 -0.00000000000E+00 -0.14719827594E+04  0.14719827594E+04  0.00000000000E+00 0.  1.
         24    2    1    2    0    0  0.83133892620E+03  0.22737945052E+03 -0.92182471776E+02  0.87021491047E+03  0.77139857197E+02 0.  0.
        254    2    1    2    0    0 -0.83133892620E+03 -0.22737945052E+03 -0.59710855569E+03  0.13844595809E+04  0.90408178792E+03 0.  0.
         23    2    4    4    0    0 -0.24211505523E+03  0.32805807812E+03 -0.98371148792E+02  0.42925787893E+03  0.91343533507E+02 0.  0.
         23    2    4    4    0    0 -0.58922387097E+03 -0.55543752864E+03 -0.49873740689E+03  0.95520170201E+03  0.89306618766E+02 0.  0.
          2    1    3    3  502    0  0.45759515949E+03  0.12997787228E+03 -0.12542382078E+02  0.47586225803E+03  0.00000000000E+00 0. -1.
         -1    1    3    3    0  502  0.37374376671E+03  0.97401578238E+02 -0.79640089698E+02  0.39435265244E+03  0.00000000000E+00 0.  1.
         11    1    5    5    0    0 -0.70306232889E+01  0.50063714501E+01  0.11979590356E+02  0.14764958653E+02  0.00000000000E+00 0.  1.
        -11    1    5    5    0    0 -0.23508443194E+03  0.32305170667E+03 -0.11035073915E+03  0.41449292027E+03  0.00000000000E+00 0. -1.
          1    1    6    6  503    0 -0.44600106197E+03 -0.42930002871E+03 -0.33578273089E+03  0.70424818374E+03  0.00000000000E+00 0. -1.
         -1    1    6    6    0  503 -0.14322280899E+03 -0.12613749993E+03 -0.16295467600E+03  0.25095351828E+03  0.00000000000E+00 0.  1.
<mgrwt>
<rscale>  0 0.21467266E+04</rscale>
<asrwt>0</asrwt>
<pdfrwt beam="1">  1        2 0.12041411E+00 0.21467266E+04</pdfrwt>
<pdfrwt beam="2">  1       -1 0.22645889E+00 0.21467266E+04</pdfrwt>
<totfact> 0.37012896E+00</totfact>
</mgrwt>
</event>
<event>
12    6  0.1627636E-007  0.1184460E+04  0.7818608E-02  0.9126568E-01
         -1   -1    0    0    0  501 -0.00000000000E+00  0.00000000000E+00  0.13185293573E+03  0.13185293573E+03  0.00000000000E+00 0.  1.
          2   -1    0    0  501    0  0.00000000000E+00 -0.00000000000E+00 -0.26600591660E+04  0.26600591660E+04  0.00000000000E+00 0. -1.
         24    2    1    2    0    0  0.90506508295E+02 -0.32164095012E+02 -0.10479697758E+04  0.10555273241E+04  0.81678171975E+02 0.  0.
        254    2    1    2    0    0 -0.90506508295E+02  0.32164095012E+02 -0.14802364544E+04  0.17363847776E+04  0.90261075662E+03 0.  0.
         23    2    4    4    0    0 -0.24686723035E+03  0.40290019531E+03 -0.94679671314E+03  0.10621439898E+04  0.91944777881E+02 0.  0.
         23    2    4    4    0    0  0.15636072206E+03 -0.37073610030E+03 -0.53343974128E+03  0.67424078787E+03  0.90270432541E+02 0.  0.
          4    1    3    3  502    0  0.43565954137E+02  0.12645665393E+02 -0.70591007273E+03  0.70736619653E+03  0.00000000000E+00 0. -1.
         -3    1    3    3    0  502  0.46940554157E+02 -0.44809760404E+02 -0.34205970309E+03  0.34816112754E+03  0.00000000000E+00 0.  1.
         11    1    5    5    0    0 -0.24745115143E+03  0.39242337716E+03 -0.88265796532E+03  0.99715257761E+03  0.00000000000E+00 0. -1.
        -11    1    5    5    0    0  0.58392107586E+00  0.10476818147E+02 -0.64138747822E+02  0.64991412159E+02  0.00000000000E+00 0.  1.
          1    1    6    6  503    0  0.12130822824E+03 -0.18972368696E+03 -0.33194474065E+03  0.40112102223E+03  0.00000000000E+00 0. -1.
         -1    1    6    6    0  503  0.35052493819E+02 -0.18101241334E+03 -0.20149500063E+03  0.27311976564E+03  0.00000000000E+00 0.  1.
<mgrwt>
<rscale>  0 0.11844604E+04</rscale>
<asrwt>0</asrwt>
<pdfrwt beam="1">  1        2 0.40923983E+00 0.11844604E+04</pdfrwt>
<pdfrwt beam="2">  1       -1 0.20285069E-01 0.11844604E+04</pdfrwt>
<totfact> 0.63603292E+01</totfact>
</mgrwt>
</event>
<event>
12    6  0.1627636E-007  0.1351761E+04  0.7818608E-02  0.8989496E-01
         -1   -1    0    0    0  501 -0.00000000000E+00  0.00000000000E+00  0.25884199939E+03  0.25884199939E+03  0.00000000000E+00 0.  1.
          2   -1    0    0  501    0  0.00000000000E+00 -0.00000000000E+00 -0.17648379516E+04  0.17648379516E+04  0.00000000000E+00 0. -1.
         24    2    1    2    0    0 -0.27480473176E+03 -0.19349064766E+03 -0.19682963195E+03  0.39761085662E+03  0.79976358731E+02 0.  0.
        254    2    1    2    0    0  0.27480473176E+03  0.19349064766E+03 -0.13091663202E+04  0.16260690944E+04  0.90400662289E+03 0.  0.
         23    2    4    4    0    0  0.51353832903E+03  0.31456494250E+03 -0.11510882473E+04  0.13020805383E+04  0.87959404135E+02 0.  0.
         23    2    4    4    0    0 -0.23873359726E+03 -0.12107429484E+03 -0.15807807299E+03  0.32398855608E+03  0.91253449113E+02 0.  0.
          4    1    3    3  502    0 -0.82240645647E+02 -0.69688351247E+02 -0.10642096886E+03  0.15147743300E+03  0.00000000000E+00 0. -1.
         -3    1    3    3    0  502 -0.19256408612E+03 -0.12380229641E+03 -0.90408663092E+02  0.24613342362E+03  0.00000000000E+00 0.  1.
         11    1    5    5    0    0  0.11414489824E+03  0.40261119983E+02 -0.28581640306E+03  0.31038851757E+03  0.00000000000E+00 0.  1.
        -11    1    5    5    0    0  0.39939343079E+03  0.27430382251E+03 -0.86527184419E+03  0.99169202072E+03  0.00000000000E+00 0. -1.
          3    1    6    6  503    0 -0.23740219000E+03 -0.12895852592E+03 -0.14014343057E+03  0.30435223402E+03  0.00000000000E+00 0. -1.
         -3    1    6    6    0  503 -0.13314072687E+01  0.78842310807E+01 -0.17934642424E+02  0.19636322057E+02  0.00000000000E+00 0.  1.
<mgrwt>
<rscale>  0 0.13517606E+04</rscale>
<asrwt>0</asrwt>
<pdfrwt beam="1">  1        2 0.27151354E+00 0.13517606E+04</pdfrwt>
<pdfrwt beam="2">  1       -1 0.39821845E-01 0.13517606E+04</pdfrwt>
<totfact> 0.61671370E+01</totfact>
</mgrwt>
</event>
<event>
12    6  0.1627636E-007  0.1991655E+04  0.7818608E-02  0.8610532E-01
         -1   -1    0    0    0  501 -0.00000000000E+00  0.00000000000E+00  0.10835400449E+04  0.10835400449E+04  0.00000000000E+00 0.  1.
          2   -1    0    0  501    0  0.00000000000E+00 -0.00000000000E+00 -0.91521489279E+03  0.91521489279E+03  0.00000000000E+00 0. -1.
         24    2    1    2    0    0  0.51455567745E+03  0.30425070310E+03  0.58136692358E+03  0.83770284458E+03  0.80140629255E+02 0.  0.
        254    2    1    2    0    0 -0.51455567745E+03 -0.30425070310E+03 -0.41304177143E+03  0.11610520931E+04  0.90559506542E+03 0.  0.
         23    2    4    4    0    0 -0.69107677971E+03 -0.44945306371E+03 -0.38331993708E+03  0.91371182854E+03  0.91323378878E+02 0.  0.
         23    2    4    4    0    0  0.17652110226E+03  0.14520236062E+03 -0.29721834356E+02  0.24734026460E+03  0.89723987766E+02 0.  0.
          4    1    3    3  502    0  0.20426883722E+03  0.84938512968E+02  0.24673182268E+03  0.33138633220E+03  0.00000000000E+00 0. -1.
         -3    1    3    3    0  502  0.31028684023E+03  0.21931219013E+03  0.33463510090E+03  0.50631651238E+03  0.00000000000E+00 0.  1.
         11    1    5    5    0    0 -0.27589890887E+03 -0.22523781183E+03 -0.19126803023E+03  0.40427186296E+03  0.00000000000E+00 0. -1.
        -11    1    5    5    0    0 -0.41517787084E+03 -0.22421525188E+03 -0.19205190685E+03  0.50943996559E+03  0.00000000000E+00 0.  1.
          4    1    6    6  503    0 -0.65308064691E+01 -0.44661309619E+01  0.33436162245E+01  0.85893846324E+01  0.00000000000E+00 0. -1.
         -4    1    6    6    0  503  0.18305190873E+03  0.14966849158E+03 -0.33065450581E+02  0.23875087996E+03  0.00000000000E+00 0.  1.
<mgrwt>
<rscale>  0 0.19916546E+04</rscale>
<asrwt>0</asrwt>
<pdfrwt beam="1">  1        2 0.14080229E+00 0.19916546E+04</pdfrwt>
<pdfrwt beam="2">  1       -1 0.16669847E+00 0.19916546E+04</pdfrwt>
<totfact> 0.79064808E+00</totfact>
</mgrwt>
</event>
<event>
12    6  0.1627636E-007  0.1436117E+04  0.7818608E-02  0.8928082E-01
          2   -1    0    0  501    0  0.00000000000E+00  0.00000000000E+00  0.14030367630E+04  0.14030367630E+04  0.00000000000E+00 0. -1.
         -1   -1    0    0    0  501 -0.00000000000E+00 -0.00000000000E+00 -0.36749422168E+03  0.36749422168E+03  0.00000000000E+00 0.  1.
         24    2    1    2    0    0 -0.12013583273E+02  0.17250557218E+03 -0.17026752207E+03  0.25559796855E+03  0.80229631904E+02 0.  0.
        254    2    1    2    0    0  0.12013583273E+02 -0.17250557218E+03  0.12058100634E+04  0.15149330161E+04  0.90063401878E+03 0.  0.
         23    2    4    4    0    0  0.29340731003E+03 -0.42459718992E+03  0.76045439064E+03  0.92326092693E+03  0.88029743253E+02 0.  0.
         23    2    4    4    0    0 -0.28139372675E+03  0.25209161773E+03  0.44535567276E+03  0.59167208921E+03  0.94876618284E+02 0.  0.
          4    1    3    3  502    0  0.24518969966E+02  0.77133462125E+02 -0.40626529726E+02  0.90560840241E+02  0.00000000000E+00 0. -1.
         -3    1    3    3    0  502 -0.36532553238E+02  0.95372110059E+02 -0.12964099235E+03  0.16503712831E+03  0.00000000000E+00 0.  1.
         11    1    5    5    0    0  0.29455442779E+03 -0.40749345572E+03  0.75072766482E+03  0.90355146733E+03  0.00000000000E+00 0.  1.
        -11    1    5    5    0    0 -0.11471177640E+01 -0.17103734199E+02  0.97267258135E+01  0.19709459601E+02  0.00000000000E+00 0. -1.
          1    1    6    6  503    0 -0.16816404162E+03  0.13520362263E+03  0.32134880584E+03  0.38707133642E+03  0.00000000000E+00 0. -1.
         -1    1    6    6    0  503 -0.11322968514E+03  0.11688799511E+03  0.12400686692E+03  0.20460075278E+03  0.00000000000E+00 0.  1.
<mgrwt>
<rscale>  0 0.14361169E+04</rscale>
<asrwt>0</asrwt>
<pdfrwt beam="1">  1        2 0.21585181E+00 0.14361169E+04</pdfrwt>
<pdfrwt beam="2">  1       -1 0.56537573E-01 0.14361169E+04</pdfrwt>
<totfact> 0.50484520E+01</totfact>
</mgrwt>
</event>
<event>
12    6  0.1627636E-007  0.1871189E+04  0.7818608E-02  0.8669332E-01
          4   -1    0    0  501    0  0.00000000000E+00  0.00000000000E+00  0.87150290535E+03  0.87150290535E+03  0.00000000000E+00 0. -1.
         -3   -1    0    0    0  501 -0.00000000000E+00 -0.00000000000E+00 -0.10043994707E+04  0.10043994707E+04  0.00000000000E+00 0.  1.
         24    2    1    2    0    0 -0.44222814187E+03 -0.25921111318E+03 -0.55528130473E+03  0.76025041629E+03  0.82989381376E+02 0.  0.
        254    2    1    2    0    0  0.44222814187E+03  0.25921111318E+03  0.42238473938E+03  0.11156519598E+04  0.89638958975E+03 0.  0.
         23    2    4    4    0    0  0.30185876844E+03 -0.86637192122E+02 -0.19965155609E+03  0.38335904806E+03  0.92079838912E+02 0.  0.
         23    2    4    4    0    0  0.14036937342E+03  0.34584830530E+03  0.62203629548E+03  0.73229291171E+03  0.10004571144E+03 0.  0.
          4    1    3    3  502    0 -0.19867565292E+03 -0.13438817395E+03 -0.31598927995E+03  0.39671327354E+03  0.00000000000E+00 0. -1.
         -3    1    3    3    0  502 -0.24355248894E+03 -0.12482293923E+03 -0.23929202479E+03  0.36353714274E+03  0.00000000000E+00 0.  1.
         11    1    5    5    0    0  0.23668349197E+03 -0.32595717948E+02 -0.17163928824E+03  0.29417953952E+03  0.00000000000E+00 0.  1.
        -11    1    5    5    0    0  0.65175276469E+02 -0.54041474174E+02 -0.28012267847E+02  0.89179508541E+02  0.00000000000E+00 0. -1.
          1    1    6    6  503    0  0.71174109478E+02  0.18573095518E+03  0.23573109088E+03  0.30843295670E+03  0.00000000000E+00 0. -1.
         -1    1    6    6    0  503  0.69195263946E+02  0.16011735012E+03  0.38630520460E+03  0.42385995501E+03  0.00000000000E+00 0.  1.
<mgrwt>
<rscale>  0 0.18711890E+04</rscale>
<asrwt>0</asrwt>
<pdfrwt beam="1">  1        4 0.13407737E+00 0.18711890E+04</pdfrwt>
<pdfrwt beam="2">  1       -3 0.15452300E+00 0.18711890E+04</pdfrwt>
<totfact> 0.25613522E-01</totfact>
</mgrwt>
</event>
<event>
12    6  0.1627636E-007  0.1951065E+04  0.7818608E-02  0.8629847E-01
          2   -1    0    0  501    0  0.00000000000E+00  0.00000000000E+00  0.80000286000E+03  0.80000286000E+03  0.00000000000E+00 0. -1.
         -1   -1    0    0    0  501 -0.00000000000E+00 -0.00000000000E+00 -0.11895755508E+04  0.11895755508E+04  0.00000000000E+00 0.  1.
         24    2    1    2    0    0  0.64526149209E+03 -0.39728380835E+02  0.26860406751E+03  0.70475575359E+03  0.81189837511E+02 0.  0.
        254    2    1    2    0    0 -0.64526149209E+03  0.39728380835E+02 -0.65817675833E+03  0.12848226572E+04  0.89422138081E+03 0.  0.
         23    2    4    4    0    0 -0.43992393710E+03 -0.37529191804E+03 -0.18055966027E+03  0.61252348302E+03  0.90587704266E+02 0.  0.
         23    2    4    4    0    0 -0.20533755499E+03  0.41502029887E+03 -0.47761709805E+03  0.67229917420E+03  0.97276550667E+02 0.  0.
          2    1    3    3  502    0  0.48793975547E+03  0.10731334268E+01  0.18358083947E+03  0.52133317678E+03  0.00000000000E+00 0. -1.
         -1    1    3    3    0  502  0.15732173662E+03 -0.40801514262E+02  0.85023228043E+02  0.18342257681E+03  0.00000000000E+00 0.  1.
         11    1    5    5    0    0 -0.12906733284E+03 -0.12328077338E+03 -0.13882831346E+02  0.17902306695E+03  0.00000000000E+00 0. -1.
        -11    1    5    5    0    0 -0.31085660425E+03 -0.25201114465E+03 -0.16667682893E+03  0.43350041608E+03  0.00000000000E+00 0.  1.
          2    1    6    6  503    0 -0.21344828373E+03  0.36826623373E+03 -0.42698760666E+03  0.60290845489E+03  0.00000000000E+00 0. -1.
         -2    1    6    6    0  503  0.81107287372E+01  0.46754065137E+02 -0.50629491393E+02  0.69390719309E+02  0.00000000000E+00 0.  1.
<mgrwt>
<rscale>  0 0.19510652E+04</rscale>
<asrwt>0</asrwt>
<pdfrwt beam="1">  1        2 0.12307736E+00 0.19510652E+04</pdfrwt>
<pdfrwt beam="2">  1       -1 0.18301162E+00 0.19510652E+04</pdfrwt>
<totfact> 0.72609521E+00</totfact>
</mgrwt>
</event>
<event>
12    6  0.1627636E-007  0.3358062E+04  0.7818608E-02  0.8148277E-01
          2   -1    0    0  501    0  0.00000000000E+00  0.00000000000E+00  0.13325565675E+04  0.13325565675E+04  0.00000000000E+00 0. -1.
         -1   -1    0    0    0  501 -0.00000000000E+00 -0.00000000000E+00 -0.21155918788E+04  0.21155918788E+04  0.00000000000E+00 0.  1.
         24    2    1    2    0    0 -0.29266391218E+03 -0.13773512194E+04  0.31781924602E+03  0.14457600523E+04  0.80402166629E+02 0.  0.
        254    2    1    2    0    0  0.29266391218E+03  0.13773512194E+04 -0.11008545573E+04  0.20023883941E+04  0.90273472141E+03 0.  0.
         23    2    4    4    0    0 -0.59150234648E+02  0.83140691756E+03 -0.10510798883E+04  0.13445323142E+04  0.90895541861E+02 0.  0.
         23    2    4    4    0    0  0.35181414683E+03  0.54594430187E+03 -0.49774669025E+02  0.65785607989E+03  0.92025700295E+02 0.  0.
          4    1    3    3  502    0 -0.28875991946E+03 -0.13718467733E+04  0.32116839199E+03  0.14382263370E+04  0.00000000000E+00 0. -1.
         -3    1    3    3    0  502 -0.39039927194E+01 -0.55044461116E+01 -0.33491459721E+01  0.75337152117E+01  0.00000000000E+00 0.  1.
         11    1    5    5    0    0 -0.30589598191E+02  0.68889992893E+02 -0.91719047005E+02  0.11871789344E+03  0.00000000000E+00 0.  1.
        -11    1    5    5    0    0 -0.28560636457E+02  0.76251692467E+03 -0.95936084127E+03  0.12258144207E+04  0.00000000000E+00 0. -1.
          4    1    6    6  503    0  0.97324477861E+02  0.10586714519E+03  0.18263830497E+02  0.14496024946E+03  0.00000000000E+00 0. -1.
         -4    1    6    6    0  503  0.25448966897E+03  0.44007715669E+03 -0.68038499522E+02  0.51289583042E+03  0.00000000000E+00 0.  1.
<mgrwt>
<rscale>  0 0.33580624E+04</rscale>
<asrwt>0</asrwt>
<pdfrwt beam="1">  1        2 0.20500870E+00 0.33580624E+04</pdfrwt>
<pdfrwt beam="2">  1       -1 0.32547567E+00 0.33580624E+04</pdfrwt>
<totfact> 0.33759652E-01</totfact>
</mgrwt>
</event>
<event>
12    6  0.1627636E-007  0.2091061E+04  0.7818608E-02  0.8565191E-01
          2   -1    0    0  501    0  0.00000000000E+00  0.00000000000E+00  0.20518115936E+04  0.20518115936E+04  0.00000000000E+00 0. -1.
         -1   -1    0    0    0  501 -0.00000000000E+00 -0.00000000000E+00 -0.53276543997E+03  0.53276543997E+03  0.00000000000E+00 0.  1.
         24    2    1    2    0    0  0.64622882203E+03  0.50763547133E+03  0.81460460127E+03  0.11598864320E+04  0.80314484730E+02 0.  0.
        254    2    1    2    0    0 -0.64622882203E+03 -0.50763547133E+03  0.70444155235E+03  0.14246906016E+04  0.92639081785E+03 0.  0.
         23    2    4    4    0    0 -0.54120922181E+03 -0.19681713551E+03 -0.61331587921E+02  0.58673837026E+03  0.94106029819E+02 0.  0.
         23    2    4    4    0    0 -0.10501960022E+03 -0.31081833582E+03  0.76577314027E+03  0.83795223134E+03  0.90101527862E+02 0.  0.
          2    1    3    3  502    0  0.35798403905E+03  0.23967568336E+03  0.45836941302E+03  0.62904651990E+03  0.00000000000E+00 0. -1.
         -1    1    3    3    0  502  0.28824478298E+03  0.26795978798E+03  0.35623518825E+03  0.53083991206E+03  0.00000000000E+00 0.  1.
         11    1    5    5    0    0 -0.87144672408E+02 -0.57177678908E+02 -0.38591406462E+02  0.11114304993E+03  0.00000000000E+00 0.  1.
        -11    1    5    5    0    0 -0.45406454940E+03 -0.13963945661E+03 -0.22740181459E+02  0.47559532033E+03  0.00000000000E+00 0. -1.
          3    1    6    6  503    0 -0.13210431547E+02 -0.17720541549E+03  0.37970563976E+03  0.41922863410E+03  0.00000000000E+00 0. -1.
         -3    1    6    6    0  503 -0.91809168674E+02 -0.13361292033E+03  0.38606750051E+03  0.41872359724E+03  0.00000000000E+00 0.  1.
<mgrwt>
<rscale>  0 0.20910613E+04</rscale>
<asrwt>0</asrwt>
<pdfrwt beam="1">  1        2 0.31566332E+00 0.20910613E+04</pdfrwt>
<pdfrwt beam="2">  1       -1 0.81963915E-01 0.20910613E+04</pdfrwt>
<totfact> 0.97191897E+00</totfact>
</mgrwt>
</event>
<event>
12    6  0.1627636E-007  0.1840154E+04  0.7818608E-02  0.8685233E-01
          2   -1    0    0  501    0  0.00000000000E+00  0.00000000000E+00  0.12957408324E+04  0.12957408324E+04  0.00000000000E+00 0. -1.
         -1   -1    0    0    0  501 -0.00000000000E+00 -0.00000000000E+00 -0.65332611810E+03  0.65332611810E+03  0.00000000000E+00 0.  1.
         24    2    1    2    0    0 -0.22289471240E+03  0.53060262831E+03  0.70267586083E+03  0.91173066810E+03  0.79235369434E+02 0.  0.
        254    2    1    2    0    0  0.22289471240E+03 -0.53060262831E+03 -0.60261146515E+02  0.10373362824E+04  0.86093783460E+03 0.  0.
         23    2    4    4    0    0 -0.16066464702E+03 -0.43111012453E+03  0.24466331617E+03  0.52877969815E+03  0.89881937169E+02 0.  0.
         23    2    4    4    0    0  0.38355935941E+03 -0.99492503790E+02 -0.30492446269E+03  0.50855658426E+03  0.92921100672E+02 0.  0.
          4    1    3    3  502    0 -0.22007504473E+03  0.52566436958E+03  0.70414574709E+03  0.90585721165E+03  0.00000000000E+00 0. -1.
         -3    1    3    3    0  502 -0.28196676692E+01  0.49382587372E+01 -0.14698862520E+01  0.58734564538E+01  0.00000000000E+00 0.  1.
         11    1    5    5    0    0 -0.33546885320E+02 -0.50530937898E+02  0.37602588362E+01  0.60769307599E+02  0.00000000000E+00 0. -1.
        -11    1    5    5    0    0 -0.12711776170E+03 -0.38057918663E+03  0.24090305734E+03  0.46801039055E+03  0.00000000000E+00 0.  1.
          4    1    6    6  503    0  0.65803747133E+02 -0.77618135229E+01 -0.13224467789E+02  0.67566747992E+02  0.00000000000E+00 0. -1.
         -4    1    6    6    0  503  0.31775561228E+03 -0.91730690267E+02 -0.29169999490E+03  0.44098983627E+03  0.00000000000E+00 0.  1.
<mgrwt>
<rscale>  0 0.18401536E+04</rscale>
<asrwt>0</asrwt>
<pdfrwt beam="1">  1        2 0.19934474E+00 0.18401536E+04</pdfrwt>
<pdfrwt beam="2">  1       -1 0.10051171E+00 0.18401536E+04</pdfrwt>
<totfact> 0.16803194E+01</totfact>
</mgrwt>
</event>
<event>
12    6  0.1627636E-007  0.1990867E+04  0.7818608E-02  0.8610903E-01
          2   -1    0    0  501    0  0.00000000000E+00  0.00000000000E+00  0.74759715467E+03  0.74759715467E+03  0.00000000000E+00 0. -1.
         -1   -1    0    0    0  501 -0.00000000000E+00 -0.00000000000E+00 -0.13254298316E+04  0.13254298316E+04  0.00000000000E+00 0.  1.
         24    2    1    2    0    0  0.13274685602E+02 -0.48953585514E+03 -0.88634799796E+03  0.10158393035E+04  0.80592470929E+02 0.  0.
        254    2    1    2    0    0 -0.13274685602E+02  0.48953585514E+03  0.30851532105E+03  0.10571876827E+04  0.88467085540E+03 0.  0.
         23    2    4    4    0    0 -0.37978733479E+03  0.40652474966E+03  0.35691913434E+03  0.66733408149E+03  0.91884253874E+02 0.  0.
         23    2    4    4    0    0  0.36651264919E+03  0.83011105482E+02 -0.48403813282E+02  0.38985360122E+03  0.91763476347E+02 0.  0.
          4    1    3    3  502    0  0.20500228636E+02 -0.34871541933E+03 -0.55559563527E+03  0.65628439947E+03  0.00000000000E+00 0. -1.
         -3    1    3    3    0  502 -0.72255430336E+01 -0.14082043581E+03 -0.33075236268E+03  0.35955490406E+03  0.00000000000E+00 0.  1.
         11    1    5    5    0    0 -0.25532527214E+03  0.32810625395E+03  0.24575672455E+03  0.48295038683E+03  0.00000000000E+00 0.  1.
        -11    1    5    5    0    0 -0.12446206265E+03  0.78418495710E+02  0.11116240978E+03  0.18438369466E+03  0.00000000000E+00 0. -1.
          1    1    6    6  503    0  0.44424482028E+02  0.37659193075E+02  0.10834255917E+02  0.59237914614E+02  0.00000000000E+00 0. -1.
         -1    1    6    6    0  503  0.32208816716E+03  0.45351912407E+02 -0.59238069200E+02  0.33061568660E+03  0.00000000000E+00 0.  1.
<mgrwt>
<rscale>  0 0.19908667E+04</rscale>
<asrwt>0</asrwt>
<pdfrwt beam="1">  1        2 0.11501495E+00 0.19908667E+04</pdfrwt>
<pdfrwt beam="2">  1       -1 0.20391228E+00 0.19908667E+04</pdfrwt>
<totfact> 0.56524079E+00</totfact>
</mgrwt>
</event>
<event>
12    6  0.1627636E-007  0.2071241E+04  0.7818608E-02  0.8574019E-01
         -1   -1    0    0    0  501 -0.00000000000E+00  0.00000000000E+00  0.74810030958E+03  0.74810030958E+03  0.00000000000E+00 0.  1.
          2   -1    0    0  501    0  0.00000000000E+00 -0.00000000000E+00 -0.14336439337E+04  0.14336439337E+04  0.00000000000E+00 0. -1.
         24    2    1    2    0    0  0.31481366899E+03 -0.54979819001E+03 -0.85983991635E+03  0.10710086556E+04  0.79681633111E+02 0.  0.
        254    2    1    2    0    0 -0.31481366899E+03  0.54979819001E+03  0.17429629222E+03  0.11107355877E+04  0.89552702496E+03 0.  0.
         23    2    4    4    0    0 -0.42412934825E+03  0.73253888793E+03  0.53171331856E+02  0.85317186596E+03  0.92607321314E+02 0.  0.
         23    2    4    4    0    0  0.10931567926E+03 -0.18274069792E+03  0.12112496036E+03  0.25756372176E+03  0.79521911059E+02 0.  0.
          2    1    3    3  502    0  0.18258560373E+03 -0.31469165499E+03 -0.42676962765E+03  0.56080358014E+03  0.00000000000E+00 0. -1.
         -1    1    3    3    0  502  0.13222806526E+03 -0.23510653502E+03 -0.43307028870E+03  0.51020507544E+03  0.00000000000E+00 0.  1.
         11    1    5    5    0    0 -0.98225316708E+02  0.18795189115E+03 -0.25745345096E+02  0.21362806235E+03  0.00000000000E+00 0.  1.
        -11    1    5    5    0    0 -0.32590403154E+03  0.54458699677E+03  0.78916676953E+02  0.63954380361E+03  0.00000000000E+00 0. -1.
          2    1    6    6  503    0  0.88829501377E+02 -0.16675575366E+03  0.72386885447E+02  0.20233146784E+03  0.00000000000E+00 0. -1.
         -2    1    6    6    0  503  0.20486177882E+02 -0.15984944258E+02  0.48738074913E+02  0.55232253922E+02  0.00000000000E+00 0.  1.
<mgrwt>
<rscale>  0 0.20712407E+04</rscale>
<asrwt>0</asrwt>
<pdfrwt beam="1">  1        2 0.22056060E+00 0.20712407E+04</pdfrwt>
<pdfrwt beam="2">  1       -1 0.11509236E+00 0.20712407E+04</pdfrwt>
<totfact> 0.99830409E+00</totfact>
</mgrwt>
</event>
<event>
12    6  0.1627636E-007  0.1647288E+04  0.7818608E-02  0.8792012E-01
         -1   -1    0    0    0  501 -0.00000000000E+00  0.00000000000E+00  0.13124826238E+04  0.13124826238E+04  0.00000000000E+00 0.  1.
          2   -1    0    0  501    0  0.00000000000E+00 -0.00000000000E+00 -0.51687508495E+03  0.51687508495E+03  0.00000000000E+00 0. -1.
         24    2    1    2    0    0  0.32218351207E+03 -0.12981517146E+03 -0.22989327071E+03  0.42405883271E+03  0.79503355177E+02 0.  0.
        254    2    1    2    0    0 -0.32218351207E+03  0.12981517146E+03  0.10255008096E+04  0.14052988761E+04  0.89585647647E+03 0.  0.
         23    2    4    4    0    0  0.10728332057E+03 -0.30571114251E+03  0.43589622089E+03  0.55019144754E+03  0.87955102404E+02 0.  0.
         23    2    4    4    0    0 -0.42946683265E+03  0.43552631397E+03  0.58960458872E+03  0.85510742854E+03  0.97212205038E+02 0.  0.
          2    1    3    3  502    0  0.20651018903E+03 -0.67797241350E+02 -0.18474530751E+03  0.28526085037E+03  0.00000000000E+00 0. -1.
         -3    1    3    3    0  502  0.11567332304E+03 -0.62017930113E+02 -0.45147963207E+02  0.13879798234E+03  0.00000000000E+00 0.  1.
         11    1    5    5    0    0  0.10255796729E+03 -0.16195777846E+03  0.23994584597E+03  0.30711963086E+03  0.00000000000E+00 0. -1.
        -11    1    5    5    0    0  0.47253532899E+01 -0.14375336404E+03  0.19595037492E+03  0.24307181669E+03  0.00000000000E+00 0.  1.
          2    1    6    6  503    0 -0.42300326401E+03  0.39671292848E+03  0.54914716210E+03  0.79867109289E+03  0.00000000000E+00 0. -1.
         -2    1    6    6    0  503 -0.64635686378E+01  0.38813385488E+02  0.40457426625E+02  0.56436335651E+02  0.00000000000E+00 0.  1.
<mgrwt>
<rscale>  0 0.16472882E+04</rscale>
<asrwt>0</asrwt>
<pdfrwt beam="1">  1        2 0.79519244E-01 0.16472882E+04</pdfrwt>
<pdfrwt beam="2">  1       -1 0.20192040E+00 0.16472882E+04</pdfrwt>
<totfact> 0.94419543E+00</totfact>
</mgrwt>
</event>
<event>
12    6  0.1627636E-007  0.1927170E+04  0.7818608E-02  0.8641449E-01
          2   -1    0    0  501    0  0.00000000000E+00  0.00000000000E+00  0.86303673334E+03  0.86303673334E+03  0.00000000000E+00 0. -1.
         -1   -1    0    0    0  501 -0.00000000000E+00 -0.00000000000E+00 -0.10758473281E+04  0.10758473281E+04  0.00000000000E+00 0.  1.
         24    2    1    2    0    0 -0.30452616644E+03  0.37157655604E+03  0.49640663750E+03  0.69535474364E+03  0.79330616455E+02 0.  0.
        254    2    1    2    0    0  0.30452616644E+03 -0.37157655604E+03 -0.70921723225E+03  0.12435293178E+04  0.90142706783E+03 0.  0.
         23    2    4    4    0    0  0.35670925448E+03 -0.30052174102E+03  0.46713752103E+02  0.47734303707E+03  0.90107665332E+02 0.  0.
         23    2    4    4    0    0 -0.52183088039E+02 -0.71054815027E+02 -0.75593098436E+03  0.76618628071E+03  0.88531927744E+02 0.  0.
          4    1    3    3  502    0 -0.23305525563E+03  0.33055462971E+03  0.41673670101E+03  0.58073280721E+03  0.00000000000E+00 0. -1.
         -3    1    3    3    0  502 -0.71470910806E+02  0.41021926331E+02  0.79669936487E+02  0.11462193643E+03  0.00000000000E+00 0.  1.
         11    1    5    5    0    0  0.16878425157E+03 -0.89619536201E+02  0.47161366279E+00  0.19110208598E+03  0.00000000000E+00 0. -1.
        -11    1    5    5    0    0  0.18792500291E+03 -0.21090220482E+03  0.46242138440E+02  0.28624095109E+03  0.00000000000E+00 0.  1.
          3    1    6    6  503    0 -0.73931041581E+02 -0.69031890662E+02 -0.56208014010E+03  0.57110882040E+03  0.00000000000E+00 0. -1.
         -3    1    6    6    0  503  0.21747953541E+02 -0.20229243648E+01 -0.19385084425E+03  0.19507746032E+03  0.00000000000E+00 0.  1.
<mgrwt>
<rscale>  0 0.19271697E+04</rscale>
<asrwt>0</asrwt>
<pdfrwt beam="1">  1        2 0.13277488E+00 0.19271697E+04</pdfrwt>
<pdfrwt beam="2">  1       -1 0.16551497E+00 0.19271697E+04</pdfrwt>
<totfact> 0.88049120E+00</totfact>
</mgrwt>
</event>
<event>
12    6  0.1627636E-007  0.2551241E+04  0.7818608E-02  0.8384955E-01
         -1   -1    0    0    0  501 -0.00000000000E+00  0.00000000000E+00  0.81157224980E+03  0.81157224980E+03  0.00000000000E+00 0.  1.
          2   -1    0    0  501    0  0.00000000000E+00 -0.00000000000E+00 -0.20050064102E+04  0.20050064102E+04  0.00000000000E+00 0. -1.
         24    2    1    2    0    0 -0.63476933087E+02 -0.26667629098E+03  0.67163349895E+03  0.72966134393E+03  0.78540147090E+02 0.  0.
        254    2    1    2    0    0  0.63476933087E+02  0.26667629098E+03 -0.18650676593E+04  0.20869173160E+04  0.89532169913E+03 0.  0.
         23    2    4    4    0    0  0.44708965310E+03 -0.51446621203E+01 -0.86407048256E+03  0.97739520347E+03  0.93637382919E+02 0.  0.
         23    2    4    4    0    0 -0.38361272001E+03  0.27182095310E+03 -0.10009971768E+04  0.11095221126E+04  0.89435009367E+02 0.  0.
          2    1    3    3  502    0 -0.34532987503E+02 -0.80885440204E+02  0.13578171719E+03  0.16177656315E+03  0.00000000000E+00 0. -1.
         -1    1    3    3    0  502 -0.28943945584E+02 -0.18579085078E+03  0.53585178177E+03  0.56788478078E+03  0.00000000000E+00 0.  1.
         11    1    5    5    0    0  0.28905397662E+03 -0.22141045533E+02 -0.46664227160E+03  0.54936093503E+03  0.00000000000E+00 0. -1.
        -11    1    5    5    0    0  0.15803567648E+03  0.16996383413E+02 -0.39742821096E+03  0.42803426843E+03  0.00000000000E+00 0.  1.
          3    1    6    6  503    0 -0.28222049335E+03  0.17715206850E+03 -0.78530380483E+03  0.85307287386E+03  0.00000000000E+00 0. -1.
         -3    1    6    6    0  503 -0.10139222666E+03  0.94668884598E+02 -0.21569337193E+03  0.25644923870E+03  0.00000000000E+00 0.  1.
<mgrwt>
<rscale>  0 0.25512409E+04</rscale>
<asrwt>0</asrwt>
<pdfrwt beam="1">  1        2 0.30846253E+00 0.25512409E+04</pdfrwt>
<pdfrwt beam="2">  1       -1 0.12485727E+00 0.25512409E+04</pdfrwt>
<totfact> 0.37647140E+00</totfact>
</mgrwt>
</event>
<event>
12    6  0.1627636E-007  0.2580872E+04  0.7818608E-02  0.8374728E-01
          2   -1    0    0  501    0  0.00000000000E+00  0.00000000000E+00  0.22574625783E+04  0.22574625783E+04  0.00000000000E+00 0. -1.
         -1   -1    0    0    0  501 -0.00000000000E+00 -0.00000000000E+00 -0.73765342736E+03  0.73765342736E+03  0.00000000000E+00 0.  1.
         24    2    1    2    0    0  0.92506539653E+03 -0.46989413972E+03  0.14470841498E+03  0.10506211812E+04  0.79484908503E+02 0.  0.
        254    2    1    2    0    0 -0.92506539653E+03  0.46989413972E+03  0.13751007360E+04  0.19444948245E+04  0.90200421168E+03 0.  0.
         23    2    4    4    0    0 -0.34035323804E+03  0.20308262842E+03 -0.20793618301E+02  0.40509397032E+03  0.81153370967E+02 0.  0.
         23    2    4    4    0    0 -0.58471215848E+03  0.26681151130E+03  0.13958943543E+04  0.15394008541E+04  0.90317498776E+02 0.  0.
          4    1    3    3  502    0  0.69458109113E+01 -0.83970107339E+01  0.89683868359E+01  0.14113328485E+02  0.00000000000E+00 0. -1.
         -3    1    3    3    0  502  0.91811958562E+03 -0.46149712898E+03  0.13574002815E+03  0.10365078527E+04  0.00000000000E+00 0.  1.
         11    1    5    5    0    0 -0.26300749902E+03  0.13371689261E+03 -0.44887645562E+02  0.29844271249E+03  0.00000000000E+00 0. -1.
        -11    1    5    5    0    0 -0.77345739018E+02  0.69365735809E+02  0.24094027261E+02  0.10665125784E+03  0.00000000000E+00 0.  1.
          4    1    6    6  503    0 -0.32761168196E+03  0.18460547878E+03  0.73789207991E+03  0.82818676549E+03  0.00000000000E+00 0. -1.
         -4    1    6    6    0  503 -0.25710047653E+03  0.82206032521E+02  0.65800227437E+03  0.71121408865E+03  0.00000000000E+00 0.  1.
<mgrwt>
<rscale>  0 0.25808720E+04</rscale>
<asrwt>0</asrwt>
<pdfrwt beam="1">  1        2 0.34730193E+00 0.25808720E+04</pdfrwt>
<pdfrwt beam="2">  1       -1 0.11348514E+00 0.25808720E+04</pdfrwt>
<totfact> 0.34213804E+00</totfact>
</mgrwt>
</event>
<event>
12    6  0.1627636E-007  0.2268530E+04  0.7818608E-02  0.8490434E-01
         -1   -1    0    0    0  501 -0.00000000000E+00  0.00000000000E+00  0.70399650250E+03  0.70399650250E+03  0.00000000000E+00 0.  1.
          2   -1    0    0  501    0  0.00000000000E+00 -0.00000000000E+00 -0.18275051695E+04  0.18275051695E+04  0.00000000000E+00 0. -1.
         24    2    1    2    0    0  0.55700070618E+03  0.35774568714E+03  0.29333523690E+03  0.72853318250E+03  0.80518776930E+02 0.  0.
        254    2    1    2    0    0 -0.55700070618E+03 -0.35774568714E+03 -0.14168439039E+04  0.18029684895E+04  0.89722737518E+03 0.  0.
         23    2    4    4    0    0  0.12447788744E+03  0.18341229468E+03 -0.31157026604E+03  0.39335347858E+03  0.92282794323E+02 0.  0.
         23    2    4    4    0    0 -0.68147859362E+03 -0.54115798183E+03 -0.11052736378E+04  0.14096150109E+04  0.90108987488E+02 0.  0.
          2    1    3    3  502    0  0.12664101162E+03  0.46457983485E+02  0.44961400300E+02  0.14218937221E+03  0.00000000000E+00 0. -1.
         -1    1    3    3    0  502  0.43035969456E+03  0.31128770366E+03  0.24837383660E+03  0.58634381028E+03  0.00000000000E+00 0.  1.
         11    1    5    5    0    0  0.10934549351E+02  0.92451194568E+01 -0.83585262602E+02  0.84802905183E+02  0.00000000000E+00 0. -1.
        -11    1    5    5    0    0  0.11354333809E+03  0.17416717523E+03 -0.22798500344E+03  0.30855057340E+03  0.00000000000E+00 0.  1.
          3    1    6    6  503    0 -0.29788740481E+02 -0.26833065476E+02 -0.25248494493E+02  0.47380047873E+02  0.00000000000E+00 0. -1.
         -3    1    6    6    0  503 -0.65168985313E+03 -0.51432491635E+03 -0.10800251434E+04  0.13622349630E+04  0.00000000000E+00 0.  1.
<mgrwt>
<rscale>  0 0.22685301E+04</rscale>
<asrwt>0</asrwt>
<pdfrwt beam="1">  1        2 0.28115464E+00 0.22685301E+04</pdfrwt>
<pdfrwt beam="2">  1       -1 0.10830716E+00 0.22685301E+04</pdfrwt>
<totfact> 0.68241042E+00</totfact>
</mgrwt>
</event>
<event>
12    6  0.1627636E-007  0.1073010E+04  0.7818608E-02  0.9231905E-01
         -1   -1    0    0    0  501 -0.00000000000E+00  0.00000000000E+00  0.15256327020E+03  0.15256327020E+03  0.00000000000E+00 0.  1.
          2   -1    0    0  501    0  0.00000000000E+00 -0.00000000000E+00 -0.18866767830E+04  0.18866767830E+04  0.00000000000E+00 0. -1.
         24    2    1    2    0    0  0.13611286769E+02  0.80978854236E+02 -0.45502578575E+03  0.46913472434E+03  0.79347853928E+02 0.  0.
        254    2    1    2    0    0 -0.13611286769E+02 -0.80978854236E+02 -0.12790877271E+04  0.15701053289E+04  0.90687512275E+03 0.  0.
         23    2    4    4    0    0  0.16937372322E+03  0.12882404987E+03  0.25354278494E+02  0.23314398478E+03  0.91816034858E+02 0.  0.
         23    2    4    4    0    0 -0.18298500999E+03 -0.20980290411E+03 -0.13044420056E+04  0.13369613441E+04  0.91629238095E+02 0.  0.
          2    1    3    3  502    0 -0.13971411450E+01  0.87945006561E+02 -0.28394988023E+03  0.29726050977E+03  0.00000000000E+00 0. -1.
         -1    1    3    3    0  502  0.15008427914E+02 -0.69661523244E+01 -0.17107590552E+03  0.17187421458E+03  0.00000000000E+00 0.  1.
         11    1    5    5    0    0  0.15381977126E+03  0.10724954667E+03 -0.11298575739E+02  0.18785804509E+03  0.00000000000E+00 0.  1.
        -11    1    5    5    0    0  0.15553951962E+02  0.21574503200E+02  0.36652854233E+02  0.45285939687E+02  0.00000000000E+00 0. -1.
          1    1    6    6  503    0 -0.10280895890E+03 -0.76330294770E+02 -0.42603496844E+03  0.44486154055E+03  0.00000000000E+00 0. -1.
         -1    1    6    6    0  503 -0.80176051092E+02 -0.13347260934E+03 -0.87840703712E+03  0.89209980354E+03  0.00000000000E+00 0.  1.
<mgrwt>
<rscale>  0 0.10730099E+04</rscale>
<asrwt>0</asrwt>
<pdfrwt beam="1">  1        2 0.29025797E+00 0.10730099E+04</pdfrwt>
<pdfrwt beam="2">  1       -1 0.23471272E-01 0.10730099E+04</pdfrwt>
<totfact> 0.13673592E+02</totfact>
</mgrwt>
</event>
<event>
12    6  0.1627636E-007  0.1608151E+04  0.7818608E-02  0.8815556E-01
          2   -1    0    0  501    0  0.00000000000E+00  0.00000000000E+00  0.10492179391E+04  0.10492179391E+04  0.00000000000E+00 0. -1.
         -1   -1    0    0    0  501 -0.00000000000E+00 -0.00000000000E+00 -0.61620853177E+03  0.61620853177E+03  0.00000000000E+00 0.  1.
         24    2    1    2    0    0  0.35734412211E+03 -0.91952439155E+02 -0.14888360191E+03  0.40601777737E+03  0.80833383889E+02 0.  0.
        254    2    1    2    0    0 -0.35734412211E+03  0.91952439155E+02  0.58189300924E+03  0.12594086935E+04  0.10542109421E+04 0.  0.
         23    2    4    4    0    0  0.13346409294E+01 -0.28225346638E+03  0.66444814186E+03  0.72684518295E+03  0.84520921779E+02 0.  0.
         23    2    4    4    0    0 -0.35867876304E+03  0.37420590553E+03 -0.82555132612E+02  0.53256351054E+03  0.90155576901E+02 0.  0.
          4    1    3    3  502    0  0.13301097698E+00 -0.34759555260E+01 -0.13433785071E+02  0.13876834656E+02  0.00000000000E+00 0. -1.
         -3    1    3    3    0  502  0.35721111113E+03 -0.88476483629E+02 -0.13544981684E+03  0.39214094272E+03  0.00000000000E+00 0.  1.
         11    1    5    5    0    0  0.10694184318E+02 -0.35830216060E+02  0.17302298999E+03  0.17701730149E+03  0.00000000000E+00 0.  1.
        -11    1    5    5    0    0 -0.93595433887E+01 -0.24642325032E+03  0.49142515186E+03  0.54982788146E+03  0.00000000000E+00 0. -1.
          4    1    6    6  503    0 -0.25856804845E+03  0.21094003035E+03 -0.37299127292E+02  0.33577426492E+03  0.00000000000E+00 0. -1.
         -4    1    6    6    0  503 -0.10011071458E+03  0.16326587518E+03 -0.45256005321E+02  0.19678924562E+03  0.00000000000E+00 0.  1.
<mgrwt>
<rscale>  0 0.16081505E+04</rscale>
<asrwt>0</asrwt>
<pdfrwt beam="1">  1        2 0.16141814E+00 0.16081505E+04</pdfrwt>
<pdfrwt beam="2">  1       -1 0.94801312E-01 0.16081505E+04</pdfrwt>
<totfact> 0.27567533E+01</totfact>
</mgrwt>
</event>
<event>
12    6  0.1627636E-007  0.2204306E+04  0.7818608E-02  0.8516638E-01
          2   -1    0    0  501    0  0.00000000000E+00  0.00000000000E+00  0.11977740767E+04  0.11977740767E+04  0.00000000000E+00 0. -1.
         -1   -1    0    0    0  501 -0.00000000000E+00 -0.00000000000E+00 -0.10141659594E+04  0.10141659594E+04  0.00000000000E+00 0.  1.
         24    2    1    2    0    0  0.48478007772E+03 -0.26238729703E+03 -0.64678897735E+03  0.85350792233E+03  0.79252601661E+02 0.  0.
        254    2    1    2    0    0 -0.48478007772E+03  0.26238729703E+03  0.83039709466E+03  0.13584321137E+04  0.92299493784E+03 0.  0.
         23    2    4    4    0    0  0.53234270901E+02  0.15117318000E+03  0.77698605958E+03  0.79850687358E+03  0.90656893947E+02 0.  0.
         23    2    4    4    0    0 -0.53801434862E+03  0.11121411703E+03  0.53411035079E+02  0.55992524011E+03  0.93997429193E+02 0.  0.
          4    1    3    3  502    0  0.31827224895E+02 -0.15200858128E+02 -0.16517509787E+02  0.38946969868E+02  0.00000000000E+00 0. -1.
         -3    1    3    3    0  502  0.45295285282E+03 -0.24718643890E+03 -0.63027146756E+03  0.81456095247E+03  0.00000000000E+00 0.  1.
         11    1    5    5    0    0  0.29072133162E+02  0.11733919905E+03  0.36653269404E+03  0.38595322561E+03  0.00000000000E+00 0.  1.
        -11    1    5    5    0    0  0.24162137739E+02  0.33833980952E+02  0.41045336554E+03  0.41255364797E+03  0.00000000000E+00 0. -1.
          2    1    6    6  503    0 -0.53183057527E+02  0.22332327858E+02  0.33300614646E+02  0.66604064525E+02  0.00000000000E+00 0. -1.
         -2    1    6    6    0  503 -0.48483129109E+03  0.88881789173E+02  0.20110420433E+02  0.49332117558E+03  0.00000000000E+00 0.  1.
<mgrwt>
<rscale>  0 0.22043064E+04</rscale>
<asrwt>0</asrwt>
<pdfrwt beam="1">  1        2 0.18427293E+00 0.22043064E+04</pdfrwt>
<pdfrwt beam="2">  1       -1 0.15602553E+00 0.22043064E+04</pdfrwt>
<totfact> 0.62021560E+00</totfact>
</mgrwt>
</event>
<event>
12    6  0.1627636E-007  0.2039193E+04  0.7818608E-02  0.8588513E-01
         -3   -1    0    0    0  501 -0.00000000000E+00  0.00000000000E+00  0.82868833322E+03  0.82868833322E+03  0.00000000000E+00 0.  1.
          2   -1    0    0  501    0  0.00000000000E+00 -0.00000000000E+00 -0.12544854101E+04  0.12544854101E+04  0.00000000000E+00 0. -1.
         24    2    1    2    0    0 -0.67422163269E+03 -0.42718088048E+03  0.10849164520E+02  0.80254257227E+03  0.83057578290E+02 0.  0.
        254    2    1    2    0    0  0.67422163269E+03  0.42718088048E+03 -0.43664624137E+03  0.12806311710E+04  0.90127572998E+03 0.  0.
         23    2    4    4    0    0  0.36232018450E+03  0.44425311950E+03  0.15886605625E+03  0.60187962399E+03  0.91563680930E+02 0.  0.
         23    2    4    4    0    0  0.31190144819E+03 -0.17072239026E+02 -0.59551229762E+03  0.67875154703E+03  0.92167191821E+02 0.  0.
          2    1    3    3  502    0 -0.47818242144E+03 -0.29332035135E+03 -0.29518360640E+02  0.56175314001E+03  0.00000000000E+00 0. -1.
         -1    1    3    3    0  502 -0.19603921125E+03 -0.13386052912E+03  0.40367525161E+02  0.24078943227E+03  0.00000000000E+00 0.  1.
         11    1    5    5    0    0  0.59601501526E+02  0.48248721306E+02 -0.58696907041E+01  0.76907290687E+02  0.00000000000E+00 0. -1.
        -11    1    5    5    0    0  0.30271868297E+03  0.39600439819E+03  0.16473574695E+03  0.52497233330E+03  0.00000000000E+00 0.  1.
          4    1    6    6  503    0  0.15826704972E+03 -0.32940721418E+02 -0.22249921531E+03  0.27502627324E+03  0.00000000000E+00 0. -1.
         -4    1    6    6    0  503  0.15363439847E+03  0.15868482392E+02 -0.37301308231E+03  0.40372527379E+03  0.00000000000E+00 0.  1.
<mgrwt>
<rscale>  0 0.20391934E+04</rscale>
<asrwt>0</asrwt>
<pdfrwt beam="1">  1        2 0.19299775E+00 0.20391934E+04</pdfrwt>
<pdfrwt beam="2">  1       -3 0.12749051E+00 0.20391934E+04</pdfrwt>
<totfact> 0.50264016E+00</totfact>
</mgrwt>
</event>
<event>
12    6  0.2103241E-007  0.2028982E+04  0.7818608E-02  0.8593189E-01
         -1   -1    0    0    0  501 -0.00000000000E+00  0.00000000000E+00  0.13752350537E+04  0.13752350537E+04  0.00000000000E+00 0.  1.
          2   -1    0    0  501    0  0.00000000000E+00 -0.00000000000E+00 -0.74837530761E+03  0.74837530761E+03  0.00000000000E+00 0. -1.
         24    2    1    2    0    0  0.53295024911E+03  0.19851478197E+03 -0.35788658796E+03  0.68029829008E+03  0.10620201011E+03 0.  0.
        254    2    1    2    0    0 -0.53295024911E+03 -0.19851478197E+03  0.98474633405E+03  0.14433120712E+04  0.88880836285E+03 0.  0.
         23    2    4    4    0    0  0.81437514046E+02 -0.24215312883E+03  0.71283877140E+03  0.76341352327E+03  0.96906589055E+02 0.  0.
         23    2    4    4    0    0 -0.61438776316E+03  0.43638346862E+02  0.27190756265E+03  0.67989854797E+03  0.94613339837E+02 0.  0.
          2    1    3    3  502    0  0.48005109620E+03  0.19431321470E+03 -0.28810207118E+03  0.59262929710E+03  0.00000000000E+00 0. -1.
         -1    1    3    3    0  502  0.52899152914E+02  0.42015672679E+01 -0.69784516782E+02  0.87668992974E+02  0.00000000000E+00 0.  1.
         11    1    5    5    0    0  0.10066017921E+02 -0.52483221529E+01  0.12650650979E+03  0.12701482835E+03  0.00000000000E+00 0.  1.
        -11    1    5    5    0    0  0.71371496126E+02 -0.23690480668E+03  0.58633226161E+03  0.63639869491E+03  0.00000000000E+00 0. -1.
          2    1    6    6  503    0 -0.31395205599E+03  0.69494115686E+02  0.14512093716E+03  0.35278238615E+03  0.00000000000E+00 0. -1.
         -2    1    6    6    0  503 -0.30043570717E+03 -0.25855768824E+02  0.12678662549E+03  0.32711616182E+03  0.00000000000E+00 0.  1.
<mgrwt>
<rscale>  0 0.20289820E+04</rscale>
<asrwt>0</asrwt>
<pdfrwt beam="1">  1        2 0.11513466E+00 0.20289820E+04</pdfrwt>
<pdfrwt beam="2">  1       -1 0.21157462E+00 0.20289820E+04</pdfrwt>
<totfact> 0.49896249E+00</totfact>
</mgrwt>
</event>
<event>
12    6  0.1627636E-007  0.1481845E+04  0.7818608E-02  0.8896616E-01
          2   -1    0    0  501    0  0.00000000000E+00  0.00000000000E+00  0.15844395799E+04  0.15844395799E+04  0.00000000000E+00 0. -1.
         -1   -1    0    0    0  501 -0.00000000000E+00 -0.00000000000E+00 -0.34647356514E+03  0.34647356514E+03  0.00000000000E+00 0.  1.
         24    2    1    2    0    0  0.37004826806E+02 -0.44498858273E+03  0.54264927777E+03  0.70738838970E+03  0.80906731744E+02 0.  0.
        254    2    1    2    0    0 -0.37004826806E+02  0.44498858273E+03  0.69531673701E+03  0.12235247554E+04  0.90230996129E+03 0.  0.
         23    2    4    4    0    0 -0.44979659069E+03  0.14660190094E+03  0.41138340703E+03  0.63347720890E+03  0.90818369610E+02 0.  0.
         23    2    4    4    0    0  0.41279176388E+03  0.29838668179E+03  0.28393332998E+03  0.59004754646E+03  0.90035098802E+02 0.  0.
          2    1    3    3  502    0 -0.57155157749E+01 -0.34399916811E+03  0.41763822284E+03  0.54110052667E+03  0.00000000000E+00 0. -1.
         -1    1    3    3    0  502  0.42720342581E+02 -0.10098941462E+03  0.12501105493E+03  0.16628786302E+03  0.00000000000E+00 0.  1.
         11    1    5    5    0    0 -0.52852448600E+02  0.35744408133E+02  0.24939652513E+02  0.68505695408E+02  0.00000000000E+00 0.  1.
        -11    1    5    5    0    0 -0.39694414209E+03  0.11085749281E+03  0.38644375452E+03  0.56497151349E+03  0.00000000000E+00 0. -1.
          2    1    6    6  503    0  0.31611832689E+03  0.18452402449E+03  0.22380671781E+03  0.42903305135E+03  0.00000000000E+00 0. -1.
         -2    1    6    6    0  503  0.96673436987E+02  0.11386265730E+03  0.60126612170E+02  0.16101449511E+03  0.00000000000E+00 0.  1.
<mgrwt>
<rscale>  0 0.14818454E+04</rscale>
<asrwt>0</asrwt>
<pdfrwt beam="1">  1        2 0.24375993E+00 0.14818454E+04</pdfrwt>
<pdfrwt beam="2">  1       -1 0.53303626E-01 0.14818454E+04</pdfrwt>
<totfact> 0.44524406E+01</totfact>
</mgrwt>
</event>
<event>
12    6  0.1627636E-007  0.1130246E+04  0.7818608E-02  0.9176204E-01
          2   -1    0    0  501    0  0.00000000000E+00  0.00000000000E+00  0.48031345197E+03  0.48031345197E+03  0.00000000000E+00 0. -1.
         -3   -1    0    0    0  501 -0.00000000000E+00 -0.00000000000E+00 -0.66490699662E+03  0.66490699662E+03  0.00000000000E+00 0.  1.
         24    2    1    2    0    0 -0.28679886247E+02 -0.68028786886E+02  0.14492176399E+03  0.18039873567E+03  0.78044438835E+02 0.  0.
        254    2    1    2    0    0  0.28679886247E+02  0.68028786886E+02 -0.32951530863E+03  0.96482171292E+03  0.90379762524E+03 0.  0.
         23    2    4    4    0    0 -0.12736358698E+03 -0.28746071314E+03  0.13341550881E+03  0.35398907462E+03  0.93023771578E+02 0.  0.
         23    2    4    4    0    0  0.15604347322E+03  0.35548950002E+03 -0.46293081744E+03  0.61083263830E+03  0.89940091795E+02 0.  0.
          4    1    3    3  502    0 -0.32868189717E+02 -0.22344113612E+02  0.12355659415E+03  0.12979140675E+03  0.00000000000E+00 0. -1.
         -3    1    3    3    0  502  0.41883034704E+01 -0.45684673273E+02  0.21365169840E+02  0.50607328919E+02  0.00000000000E+00 0.  1.
         11    1    5    5    0    0 -0.12834221614E+03 -0.20958906240E+03  0.12480505306E+03  0.27563671888E+03  0.00000000000E+00 0. -1.
        -11    1    5    5    0    0  0.97862916628E+00 -0.77871650735E+02  0.86104557460E+01  0.78352355748E+02  0.00000000000E+00 0.  1.
          3    1    6    6  503    0  0.16431522461E+03  0.35291671284E+03 -0.45701075057E+03  0.60034034129E+03  0.00000000000E+00 0. -1.
         -3    1    6    6    0  503 -0.82717513811E+01  0.25727871780E+01 -0.59200668682E+01  0.10492297008E+02  0.00000000000E+00 0.  1.
<mgrwt>
<rscale>  0 0.11302456E+04</rscale>
<asrwt>0</asrwt>
<pdfrwt beam="1">  1        2 0.73894377E-01 0.11302456E+04</pdfrwt>
<pdfrwt beam="2">  1       -3 0.10229338E+00 0.11302456E+04</pdfrwt>
<totfact> 0.33333627E+01</totfact>
</mgrwt>
</event>
<event>
12    6  0.1627636E-007  0.1065997E+04  0.7818608E-02  0.9238982E-01
          2   -1    0    0  501    0  0.00000000000E+00  0.00000000000E+00  0.44262311786E+03  0.44262311786E+03  0.00000000000E+00 0. -1.
         -1   -1    0    0    0  501 -0.00000000000E+00 -0.00000000000E+00 -0.64182651949E+03  0.64182651949E+03  0.00000000000E+00 0.  1.
         24    2    1    2    0    0 -0.26878265349E+02 -0.12116798594E+03 -0.10234177582E+03  0.17960465943E+03  0.79874104976E+02 0.  0.
        254    2    1    2    0    0  0.26878265349E+02  0.12116798594E+03 -0.96861625818E+02  0.90484497792E+03  0.89104328601E+03 0.  0.
         23    2    4    4    0    0 -0.15557609351E+03  0.46557698700E+03 -0.76461880180E+02  0.50506368436E+03  0.90978318555E+02 0.  0.
         23    2    4    4    0    0  0.18245435886E+03 -0.34440900105E+03 -0.20399745638E+02  0.39978129356E+03  0.86612816519E+02 0.  0.
          4    1    3    3  502    0 -0.52801868603E+00 -0.43887480159E+02  0.56151937951E+01  0.44248391155E+02  0.00000000000E+00 0. -1.
         -3    1    3    3    0  502 -0.26350246663E+02 -0.77280505785E+02 -0.10795696961E+03  0.13535626827E+03  0.00000000000E+00 0.  1.
         11    1    5    5    0    0 -0.88416978761E+02  0.29730374728E+03 -0.47535477251E+01  0.31020908513E+03  0.00000000000E+00 0. -1.
        -11    1    5    5    0    0 -0.67159114752E+02  0.16827323971E+03 -0.71708332455E+02  0.19485459923E+03  0.00000000000E+00 0.  1.
          3    1    6    6  503    0  0.31591685979E-01 -0.11061120103E+02 -0.16375781876E+02  0.19761467760E+02  0.00000000000E+00 0. -1.
         -3    1    6    6    0  503  0.18242276718E+03 -0.33334788095E+03 -0.40239637620E+01  0.38001982580E+03  0.00000000000E+00 0.  1.
<mgrwt>
<rscale>  0 0.10659967E+04</rscale>
<asrwt>0</asrwt>
<pdfrwt beam="1">  1        2 0.68095865E-01 0.10659967E+04</pdfrwt>
<pdfrwt beam="2">  1       -1 0.98742541E-01 0.10659967E+04</pdfrwt>
<totfact> 0.79194202E+01</totfact>
</mgrwt>
</event>
<event>
12    6  0.1627636E-007  0.2128289E+04  0.7818608E-02  0.8548883E-01
         -1   -1    0    0    0  501 -0.00000000000E+00  0.00000000000E+00  0.77420675226E+03  0.77420675226E+03  0.00000000000E+00 0.  1.
          2   -1    0    0  501    0  0.00000000000E+00 -0.00000000000E+00 -0.14626625837E+04  0.14626625837E+04  0.00000000000E+00 0. -1.
         24    2    1    2    0    0 -0.42974256010E+02  0.86880685871E+03 -0.22758399338E+03  0.90254582159E+03  0.78245393582E+02 0.  0.
        254    2    1    2    0    0  0.42974256010E+02 -0.86880685871E+03 -0.46087183803E+03  0.13343235143E+04  0.90074649342E+03 0.  0.
         23    2    4    4    0    0 -0.21830121433E+03 -0.89936168256E+03 -0.49747270109E+03  0.10543644269E+04  0.87740527304E+02 0.  0.
         23    2    4    4    0    0  0.26127547034E+03  0.30554823858E+02  0.36600863068E+02  0.27995908744E+03  0.88538120596E+02 0.  0.
          4    1    3    3  502    0 -0.34238294108E+02  0.85821815512E+03 -0.21909107699E+03  0.88640372437E+03  0.00000000000E+00 0. -1.
         -3    1    3    3    0  502 -0.87359619017E+01  0.10588703586E+02 -0.84929163826E+01  0.16142097220E+02  0.00000000000E+00 0.  1.
         11    1    5    5    0    0 -0.10117543751E+02 -0.52896685474E+02 -0.74127735580E+01  0.54363344612E+02  0.00000000000E+00 0.  1.
        -11    1    5    5    0    0 -0.20818367058E+03 -0.84646499709E+03 -0.49005992754E+03  0.10000010823E+04  0.00000000000E+00 0. -1.
          3    1    6    6  503    0  0.16224749194E+03  0.31783767685E+02  0.63867363410E+02  0.17723853034E+03  0.00000000000E+00 0. -1.
         -3    1    6    6    0  503  0.99027978396E+02 -0.12289438267E+01 -0.27266500342E+02  0.10272055709E+03  0.00000000000E+00 0.  1.
<mgrwt>
<rscale>  0 0.21282887E+04</rscale>
<asrwt>0</asrwt>
<pdfrwt beam="1">  1        2 0.22502501E+00 0.21282887E+04</pdfrwt>
<pdfrwt beam="2">  1       -1 0.11910873E+00 0.21282887E+04</pdfrwt>
<totfact> 0.88029549E+00</totfact>
</mgrwt>
</event>
<event>
12    6  0.1627636E-007  0.2566848E+04  0.7818608E-02  0.8379550E-01
         -1   -1    0    0    0  501 -0.00000000000E+00  0.00000000000E+00  0.11447437942E+04  0.11447437942E+04  0.00000000000E+00 0.  1.
          2   -1    0    0  501    0  0.00000000000E+00 -0.00000000000E+00 -0.14389051733E+04  0.14389051733E+04  0.00000000000E+00 0. -1.
         24    2    1    2    0    0 -0.68404604093E+03  0.65498180611E+03  0.47880738915E+03  0.10643238255E+04  0.81292910132E+02 0.  0.
        254    2    1    2    0    0  0.68404604093E+03 -0.65498180611E+03 -0.77296876818E+03  0.15193251420E+04  0.90219067720E+03 0.  0.
         23    2    4    4    0    0  0.42023691251E+03 -0.79274056400E+03 -0.29483457428E+03  0.94882367815E+03  0.91116856768E+02 0.  0.
         23    2    4    4    0    0  0.26380912842E+03  0.13775875789E+03 -0.47813419390E+03  0.57050146383E+03  0.91032308799E+02 0.  0.
          4    1    3    3  502    0 -0.55792044672E+02  0.83545358132E+02  0.37366046735E+02  0.10718582258E+03  0.00000000000E+00 0. -1.
         -3    1    3    3    0  502 -0.62825399626E+03  0.57143644798E+03  0.44144134242E+03  0.95713800295E+03  0.00000000000E+00 0.  1.
         11    1    5    5    0    0  0.24415039270E+03 -0.52300782125E+03 -0.22314183865E+03  0.61882055193E+03  0.00000000000E+00 0. -1.
        -11    1    5    5    0    0  0.17608651981E+03 -0.26973274275E+03 -0.71692735630E+02  0.33000312622E+03  0.00000000000E+00 0.  1.
          2    1    6    6  503    0  0.26774833510E+02  0.23495730444E+02 -0.16769941583E+02  0.39372223702E+02  0.00000000000E+00 0.  1.
         -2    1    6    6    0  503  0.23703429491E+03  0.11426302744E+03 -0.46136425232E+03  0.53112924013E+03  0.00000000000E+00 0. -1.
<mgrwt>
<rscale>  0 0.25668485E+04</rscale>
<asrwt>0</asrwt>
<pdfrwt beam="1">  1        2 0.22137003E+00 0.25668485E+04</pdfrwt>
<pdfrwt beam="2">  1       -1 0.17611443E+00 0.25668485E+04</pdfrwt>
<totfact> 0.30840182E+00</totfact>
</mgrwt>
</event>
<event>
12    6  0.1627636E-007  0.1639199E+04  0.7818608E-02  0.8796822E-01
          2   -1    0    0  501    0  0.00000000000E+00  0.00000000000E+00  0.30238937127E+04  0.30238937127E+04  0.00000000000E+00 0. -1.
         -1   -1    0    0    0  501 -0.00000000000E+00 -0.00000000000E+00 -0.22214515953E+03  0.22214515953E+03  0.00000000000E+00 0.  1.
         24    2    1    2    0    0 -0.25529320915E+03  0.27670458255E+03  0.12068781815E+03  0.40334005670E+03  0.79859897598E+02 0.  0.
        254    2    1    2    0    0  0.25529320915E+03 -0.27670458255E+03  0.26810607351E+04  0.28426988156E+04  0.86666593469E+03 0.  0.
         23    2    4    4    0    0  0.38778404304E+03 -0.48390881361E+03  0.22692740864E+04  0.23542849062E+04  0.92240644533E+02 0.  0.
         23    2    4    4    0    0 -0.13249083389E+03  0.20720423106E+03  0.41178664862E+03  0.48841390932E+03  0.92154698213E+02 0.  0.
          4    1    3    3  502    0 -0.12332310293E+03  0.14547012044E+03  0.10204413581E+03  0.21629412685E+03  0.00000000000E+00 0. -1.
         -3    1    3    3    0  502 -0.13197010622E+03  0.13123446211E+03  0.18643682344E+02  0.18704592985E+03  0.00000000000E+00 0.  1.
         11    1    5    5    0    0  0.28126884281E+03 -0.29640766658E+03  0.15857683911E+04  0.16375686419E+04  0.00000000000E+00 0.  1.
        -11    1    5    5    0    0  0.10651520023E+03 -0.18750114703E+03  0.68350569529E+03  0.71671626430E+03  0.00000000000E+00 0. -1.
          4    1    6    6  503    0 -0.26974228568E+02  0.68908435759E+02  0.20638147623E+03  0.21924711003E+03  0.00000000000E+00 0. -1.
         -4    1    6    6    0  503 -0.10551660532E+03  0.13829579530E+03  0.20540517239E+03  0.26916679929E+03  0.00000000000E+00 0.  1.
<mgrwt>
<rscale>  0 0.16391990E+04</rscale>
<asrwt>0</asrwt>
<pdfrwt beam="1">  1        2 0.46521439E+00 0.16391990E+04</pdfrwt>
<pdfrwt beam="2">  1       -1 0.34176181E-01 0.16391990E+04</pdfrwt>
<totfact> 0.14912916E+01</totfact>
</mgrwt>
</event>
<event>
12    6  0.1627636E-007  0.1047856E+04  0.7818608E-02  0.9257560E-01
         -1   -1    0    0    0  501 -0.00000000000E+00  0.00000000000E+00  0.23427080363E+03  0.23427080363E+03  0.00000000000E+00 0.  1.
          2   -1    0    0  501    0  0.00000000000E+00 -0.00000000000E+00 -0.11717234854E+04  0.11717234854E+04  0.00000000000E+00 0. -1.
         24    2    1    2    0    0  0.11397318445E+02  0.14336908359E+02 -0.28479909934E+03  0.29594537023E+03  0.78343406687E+02 0.  0.
        254    2    1    2    0    0 -0.11397318445E+02 -0.14336908359E+02 -0.65265358243E+03  0.11100489188E+04  0.89772849884E+03 0.  0.
         23    2    4    4    0    0 -0.42689294938E+03 -0.99657619049E+02 -0.22595730804E+03  0.50154968361E+03  0.91247733189E+02 0.  0.
         23    2    4    4    0    0  0.41549563093E+03  0.85320710689E+02 -0.42669627438E+03  0.60849923517E+03  0.91023983815E+02 0.  0.
          2    1    3    3  502    0  0.27592762072E+00  0.75134707630E+01 -0.28261626741E+03  0.28271625879E+03  0.00000000000E+00 0. -1.
         -3    1    3    3    0  502  0.11121390824E+02  0.68234375964E+01 -0.21828319300E+01  0.13229111449E+02  0.00000000000E+00 0.  1.
         11    1    5    5    0    0 -0.44761026572E+02 -0.24772805534E+02  0.35690137500E+00  0.51160226470E+02  0.00000000000E+00 0. -1.
        -11    1    5    5    0    0 -0.38213192281E+03 -0.74884813515E+02 -0.22631420942E+03  0.45038945714E+03  0.00000000000E+00 0.  1.
          4    1    6    6  503    0  0.30053639995E+03  0.36409046125E+02 -0.34613602757E+03  0.45984551310E+03  0.00000000000E+00 0. -1.
         -4    1    6    6    0  503  0.11495923098E+03  0.48911664565E+02 -0.80560246817E+02  0.14865372207E+03  0.00000000000E+00 0.  1.
<mgrwt>
<rscale>  0 0.10478561E+04</rscale>
<asrwt>0</asrwt>
<pdfrwt beam="1">  1        2 0.18026515E+00 0.10478561E+04</pdfrwt>
<pdfrwt beam="2">  1       -1 0.36041663E-01 0.10478561E+04</pdfrwt>
<totfact> 0.16439109E+02</totfact>
</mgrwt>
</event>
<event>
12    6  0.1627636E-007  0.1254383E+04  0.7818608E-02  0.9066543E-01
          2   -1    0    0  501    0  0.00000000000E+00  0.00000000000E+00  0.11332473969E+04  0.11332473969E+04  0.00000000000E+00 0. -1.
         -1   -1    0    0    0  501 -0.00000000000E+00 -0.00000000000E+00 -0.34711688376E+03  0.34711688376E+03  0.00000000000E+00 0.  1.
         24    2    1    2    0    0 -0.21813501759E+03  0.10271486147E+03  0.33883202887E+03  0.42333066065E+03  0.79173706457E+02 0.  0.
        254    2    1    2    0    0  0.21813501759E+03 -0.10271486147E+03  0.44729848424E+03  0.10570336200E+04  0.92688236098E+03 0.  0.
         23    2    4    4    0    0  0.47692530454E+03 -0.23636395053E+03  0.30904309782E+02  0.54095224244E+03  0.91370613535E+02 0.  0.
         23    2    4    4    0    0 -0.25879028695E+03  0.13364908906E+03  0.41639417446E+03  0.51608137754E+03  0.90118744406E+02 0.  0.
          4    1    3    3  502    0 -0.12678330224E+03  0.31733687612E+02  0.22977431797E+03  0.26434309119E+03  0.00000000000E+00 0. -1.
         -3    1    3    3    0  502 -0.91351715347E+02  0.70981173855E+02  0.10905771089E+03  0.15898756946E+03  0.00000000000E+00 0.  1.
         11    1    5    5    0    0  0.36468843025E+03 -0.13659752757E+03  0.32401888649E+02  0.39077668570E+03  0.00000000000E+00 0.  1.
        -11    1    5    5    0    0  0.11223687429E+03 -0.99766422961E+02 -0.14975788670E+01  0.15017555674E+03  0.00000000000E+00 0. -1.
          2    1    6    6  503    0 -0.11167838164E+03  0.10700256857E+03  0.19405533691E+03  0.24815133364E+03  0.00000000000E+00 0. -1.
         -2    1    6    6    0  503 -0.14711190532E+03  0.26646520490E+02  0.22233883755E+03  0.26793004389E+03  0.00000000000E+00 0.  1.
<mgrwt>
<rscale>  0 0.12543832E+04</rscale>
<asrwt>0</asrwt>
<pdfrwt beam="1">  1        2 0.17434575E+00 0.12543832E+04</pdfrwt>
<pdfrwt beam="2">  1       -1 0.53402598E-01 0.12543832E+04</pdfrwt>
<totfact> 0.82417937E+01</totfact>
</mgrwt>
</event>
<event>
12    6  0.1627636E-007  0.2582556E+04  0.7818608E-02  0.8374151E-01
          2   -1    0    0  501    0  0.00000000000E+00  0.00000000000E+00  0.76063512976E+03  0.76063512976E+03  0.00000000000E+00 0. -1.
         -1   -1    0    0    0  501 -0.00000000000E+00 -0.00000000000E+00 -0.21921142054E+04  0.21921142054E+04  0.00000000000E+00 0.  1.
         24    2    1    2    0    0 -0.48073613983E+03  0.73018607734E+03 -0.14605599277E+04  0.17040730954E+04  0.79692335785E+02 0.  0.
        254    2    1    2    0    0  0.48073613983E+03 -0.73018607734E+03  0.29080852102E+02  0.12486762397E+04  0.89110477049E+03 0.  0.
         23    2    4    4    0    0 -0.65435637041E+02 -0.48077646294E+03  0.30618985113E+03  0.58106187376E+03  0.91939362009E+02 0.  0.
         23    2    4    4    0    0  0.54617177687E+03 -0.24940961440E+03 -0.27710899902E+03  0.66761436596E+03  0.91710297630E+02 0.  0.
          2    1    3    3  502    0 -0.30277115645E+03  0.48328121856E+03 -0.88135138228E+03  0.10497672925E+04  0.00000000000E+00 0. -1.
         -1    1    3    3    0  502 -0.17796498337E+03  0.24690485878E+03 -0.57920854543E+03  0.65430580289E+03  0.00000000000E+00 0.  1.
         11    1    5    5    0    0 -0.46041438373E+02 -0.35333285724E+03  0.27031654085E+03  0.44725267389E+03  0.00000000000E+00 0. -1.
        -11    1    5    5    0    0 -0.19394198668E+02 -0.12744360571E+03  0.35873310279E+02  0.13380919986E+03  0.00000000000E+00 0.  1.
          4    1    6    6  503    0  0.21663326953E+03 -0.51817102740E+02 -0.89979159641E+02  0.24023162734E+03  0.00000000000E+00 0.  1.
         -4    1    6    6    0  503  0.32953850733E+03 -0.19759251166E+03 -0.18712983938E+03  0.42738273862E+03  0.00000000000E+00 0. -1.
<mgrwt>
<rscale>  0 0.25825562E+04</rscale>
<asrwt>0</asrwt>
<pdfrwt beam="1">  1        2 0.11702079E+00 0.25825562E+04</pdfrwt>
<pdfrwt beam="2">  1       -1 0.33724833E+00 0.25825562E+04</pdfrwt>
<totfact> 0.70184777E-01</totfact>
</mgrwt>
</event>
<event>
12    6  0.1627636E-007  0.1946049E+04  0.7818608E-02  0.8632268E-01
         -1   -1    0    0    0  501 -0.00000000000E+00  0.00000000000E+00  0.43908578051E+04  0.43908578051E+04  0.00000000000E+00 0.  1.
          2   -1    0    0  501    0  0.00000000000E+00 -0.00000000000E+00 -0.21562457236E+03  0.21562457236E+03  0.00000000000E+00 0. -1.
         24    2    1    2    0    0 -0.12582030645E+03  0.34661487796E+03  0.32358466733E+04  0.32577706686E+04  0.79958817488E+02 0.  0.
        254    2    1    2    0    0  0.12582030645E+03 -0.34661487796E+03  0.93938655938E+03  0.13487117089E+04  0.89476451794E+03 0.  0.
         23    2    4    4    0    0  0.30439332612E+03 -0.52131267959E+03  0.88843865354E+03  0.10776622869E+04  0.87238504239E+02 0.  0.
         23    2    4    4    0    0 -0.17857301966E+03  0.17469780163E+03  0.50947905831E+02  0.27104942197E+03  0.92002471669E+02 0.  0.
          4    1    3    3  502    0 -0.34155556089E+02  0.25216262466E+02  0.42931975746E+03  0.43141385704E+03  0.00000000000E+00 0. -1.
         -3    1    3    3    0  502 -0.91664750363E+02  0.32139861550E+03  0.28065269159E+04  0.28263568115E+04  0.00000000000E+00 0.  1.
         11    1    5    5    0    0  0.20178247592E+03 -0.31467350584E+03  0.47784444679E+03  0.60668846881E+03  0.00000000000E+00 0.  1.
        -11    1    5    5    0    0  0.10261085020E+03 -0.20663917375E+03  0.41059420676E+03  0.47097381809E+03  0.00000000000E+00 0. -1.
          1    1    6    6  503    0 -0.60688669729E+02  0.11548463405E+03  0.24069960280E+01  0.13048221705E+03  0.00000000000E+00 0. -1.
         -1    1    6    6    0  503 -0.11788434994E+03  0.59213167577E+02  0.48540909803E+02  0.14056720492E+03  0.00000000000E+00 0.  1.
<mgrwt>
<rscale>  0 0.19460492E+04</rscale>
<asrwt>0</asrwt>
<pdfrwt beam="1">  1        2 0.33173015E-01 0.19460492E+04</pdfrwt>
<pdfrwt beam="2">  1       -1 0.67551652E+00 0.19460492E+04</pdfrwt>
<totfact> 0.40334514E-02</totfact>
</mgrwt>
</event>
<event>
12    6  0.1627636E-007  0.1506314E+04  0.7818608E-02  0.8880265E-01
          2   -1    0    0  501    0  0.00000000000E+00  0.00000000000E+00  0.74963202542E+03  0.74963202542E+03  0.00000000000E+00 0. -1.
         -1   -1    0    0    0  501 -0.00000000000E+00 -0.00000000000E+00 -0.75669874094E+03  0.75669874094E+03  0.00000000000E+00 0.  1.
         24    2    1    2    0    0  0.36892535871E+03  0.29021245972E+03  0.16257234761E+03  0.50299877012E+03  0.79049367191E+02 0.  0.
        254    2    1    2    0    0 -0.36892535871E+03 -0.29021245972E+03 -0.16963906313E+03  0.10033319962E+04  0.87038410536E+03 0.  0.
         23    2    4    4    0    0  0.37223591677E+02  0.25244372658E+03  0.69470685516E+02  0.27875305961E+03  0.88111640687E+02 0.  0.
         23    2    4    4    0    0 -0.40614895039E+03 -0.54265618631E+03 -0.23910974864E+03  0.72457893663E+03  0.91697639430E+02 0.  0.
          2    1    3    3  502    0  0.24647386247E+03  0.23882314117E+03  0.11618747011E+03  0.36233325247E+03  0.00000000000E+00 0. -1.
         -1    1    3    3    0  502  0.12245149624E+03  0.51389318560E+02  0.46384877498E+02  0.14066551765E+03  0.00000000000E+00 0.  1.
         11    1    5    5    0    0  0.49426234799E+02  0.24517720288E+03  0.78239826955E+02  0.26206160348E+03  0.00000000000E+00 0. -1.
        -11    1    5    5    0    0 -0.12202643122E+02  0.72665237057E+01 -0.87691414394E+01  0.16691456123E+02  0.00000000000E+00 0.  1.
          1    1    6    6  503    0 -0.38826992503E+03 -0.48316987783E+03 -0.20060512847E+03  0.65149756952E+03  0.00000000000E+00 0. -1.
         -1    1    6    6    0  503 -0.17879025358E+02 -0.59486308477E+02 -0.38504620176E+02  0.73081367112E+02  0.00000000000E+00 0.  1.
<mgrwt>
<rscale>  0 0.15063142E+04</rscale>
<asrwt>0</asrwt>
<pdfrwt beam="1">  1        2 0.11532800E+00 0.15063142E+04</pdfrwt>
<pdfrwt beam="2">  1       -1 0.11641519E+00 0.15063142E+04</pdfrwt>
<totfact> 0.27588736E+01</totfact>
</mgrwt>
</event>
<event>
12    6  0.1627636E-007  0.1410319E+04  0.7818608E-02  0.8946383E-01
          2   -1    0    0  501    0  0.00000000000E+00  0.00000000000E+00  0.82204918464E+03  0.82204918464E+03  0.00000000000E+00 0. -1.
         -1   -1    0    0    0  501 -0.00000000000E+00 -0.00000000000E+00 -0.60489074638E+03  0.60489074638E+03  0.00000000000E+00 0.  1.
         24    2    1    2    0    0  0.24288318778E+03  0.31642538794E+03  0.13022991260E+03  0.42724883806E+03  0.80401930608E+02 0.  0.
        254    2    1    2    0    0 -0.24288318778E+03 -0.31642538794E+03  0.86928525661E+02  0.99969109296E+03  0.91252859886E+03 0.  0.
         23    2    4    4    0    0  0.23451347365E+03 -0.37194607633E+03 -0.12242923791E+03  0.46787692851E+03  0.10285644808E+03 0.  0.
         23    2    4    4    0    0 -0.47739666143E+03  0.55520688392E+02  0.20935776357E+03  0.53181416446E+03  0.89473533356E+02 0.  0.
          4    1    3    3  502    0  0.15625532562E+03  0.17824641786E+03  0.11496608711E+03  0.26344774330E+03  0.00000000000E+00 0. -1.
         -3    1    3    3    0  502  0.86627862157E+02  0.13817897009E+03  0.15263825493E+02  0.16380109476E+03  0.00000000000E+00 0.  1.
         11    1    5    5    0    0  0.14363625442E+02 -0.61868037139E+02 -0.49828080659E+02  0.80726732730E+02  0.00000000000E+00 0. -1.
        -11    1    5    5    0    0  0.22014984820E+03 -0.31007803919E+03 -0.72601157250E+02  0.38715019578E+03  0.00000000000E+00 0.  1.
          2    1    6    6  503    0 -0.73829037051E+02  0.55483167488E+01 -0.85902787123E+00  0.74042207284E+02  0.00000000000E+00 0.  1.
         -2    1    6    6    0  503 -0.40356762437E+03  0.49972371644E+02  0.21021679144E+03  0.45777195717E+03  0.00000000000E+00 0. -1.
<mgrwt>
<rscale>  0 0.14103190E+04</rscale>
<asrwt>0</asrwt>
<pdfrwt beam="1">  1        2 0.12646910E+00 0.14103190E+04</pdfrwt>
<pdfrwt beam="2">  1       -1 0.93060115E-01 0.14103190E+04</pdfrwt>
<totfact> 0.41372287E+01</totfact>
</mgrwt>
</event>
<event>
12    6  0.1627636E-007  0.1814363E+04  0.7818608E-02  0.8698698E-01
          2   -1    0    0  501    0  0.00000000000E+00  0.00000000000E+00  0.56476100936E+03  0.56476100936E+03  0.00000000000E+00 0. -1.
         -1   -1    0    0    0  501 -0.00000000000E+00 -0.00000000000E+00 -0.14572155577E+04  0.14572155577E+04  0.00000000000E+00 0.  1.
         24    2    1    2    0    0 -0.26161536914E+03 -0.62539839292E+03 -0.24958198151E+03  0.72689470252E+03  0.80740273849E+02 0.  0.
        254    2    1    2    0    0  0.26161536914E+03  0.62539839292E+03 -0.64287256683E+03  0.12950818645E+04  0.89687577034E+03 0.  0.
         23    2    4    4    0    0  0.41811354170E+03  0.55209185058E+03 -0.83918272982E+02  0.70351542504E+03  0.90924867307E+02 0.  0.
         23    2    4    4    0    0 -0.15649817256E+03  0.73306542340E+02 -0.55895429385E+03  0.59156643950E+03  0.87495271664E+02 0.  0.
          4    1    3    3  502    0 -0.13347696799E+03 -0.35080706038E+03 -0.97222520542E+02  0.38772917494E+03  0.00000000000E+00 0. -1.
         -3    1    3    3    0  502 -0.12813840115E+03 -0.27459133254E+03 -0.15235946097E+03  0.33916552759E+03  0.00000000000E+00 0.  1.
         11    1    5    5    0    0  0.38250269833E+03  0.53103036563E+03 -0.93375728641E+02  0.66107532866E+03  0.00000000000E+00 0. -1.
        -11    1    5    5    0    0  0.35610843366E+02  0.21061484949E+02  0.94574556588E+01  0.42440096384E+02  0.00000000000E+00 0.  1.
          2    1    6    6  503    0 -0.63879371250E+02 -0.13882640251E+02 -0.16053624138E+03  0.17333547406E+03  0.00000000000E+00 0. -1.
         -2    1    6    6    0  503 -0.92618801309E+02  0.87189182590E+02 -0.39841805247E+03  0.41823096543E+03  0.00000000000E+00 0.  1.
<mgrwt>
<rscale>  0 0.18143633E+04</rscale>
<asrwt>0</asrwt>
<pdfrwt beam="1">  1        2 0.86886309E-01 0.18143633E+04</pdfrwt>
<pdfrwt beam="2">  1       -1 0.22418701E+00 0.18143633E+04</pdfrwt>
<totfact> 0.59283854E+00</totfact>
</mgrwt>
</event>
<event>
12    6  0.1627636E-007  0.1529043E+04  0.7818608E-02  0.8865366E-01
         -1   -1    0    0    0  501 -0.00000000000E+00  0.00000000000E+00  0.34860318446E+03  0.34860318446E+03  0.00000000000E+00 0.  1.
          2   -1    0    0  501    0  0.00000000000E+00 -0.00000000000E+00 -0.16766711711E+04  0.16766711711E+04  0.00000000000E+00 0. -1.
         24    2    1    2    0    0 -0.20255142185E+03 -0.71043949666E+02 -0.10417155115E+04  0.10665470676E+04  0.79228273013E+02 0.  0.
        254    2    1    2    0    0  0.20255142185E+03  0.71043949666E+02 -0.28635247513E+03  0.95872728793E+03  0.88943012729E+03 0.  0.
         23    2    4    4    0    0 -0.96416005886E+02 -0.31489922617E+03 -0.30991422744E+03  0.46063621517E+03  0.87643171578E+02 0.  0.
         23    2    4    4    0    0  0.29896742774E+03  0.38594317584E+03  0.23561752313E+02  0.49809107276E+03  0.95947395823E+02 0.  0.
          2    1    3    3  502    0 -0.11052598688E+03 -0.89489029760E+01 -0.39059104067E+03  0.40602640024E+03  0.00000000000E+00 0. -1.
         -1    1    3    3    0  502 -0.92025434965E+02 -0.62095046690E+02 -0.65112447084E+03  0.66052066738E+03  0.00000000000E+00 0.  1.
         11    1    5    5    0    0 -0.82462541098E+02 -0.13130365903E+03 -0.11947979481E+03  0.19574509681E+03  0.00000000000E+00 0. -1.
        -11    1    5    5    0    0 -0.13953464788E+02 -0.18359556715E+03 -0.19043443263E+03  0.26489111836E+03  0.00000000000E+00 0.  1.
          1    1    6    6  503    0  0.51615344227E+02  0.62657736396E+02 -0.31998406631E+02  0.87258430635E+02  0.00000000000E+00 0. -1.
         -1    1    6    6    0  503  0.24735208351E+03  0.32328543944E+03  0.55560158943E+02  0.41083264212E+03  0.00000000000E+00 0.  1.
<mgrwt>
<rscale>  0 0.15290427E+04</rscale>
<asrwt>0</asrwt>
<pdfrwt beam="1">  1        2 0.25794941E+00 0.15290427E+04</pdfrwt>
<pdfrwt beam="2">  1       -1 0.53631260E-01 0.15290427E+04</pdfrwt>
<totfact> 0.38935567E+01</totfact>
</mgrwt>
</event>
<event>
12    6  0.1627636E-007  0.2346959E+04  0.7818608E-02  0.8459633E-01
          2   -1    0    0  501    0  0.00000000000E+00  0.00000000000E+00  0.29008458751E+04  0.29008458751E+04  0.00000000000E+00 0. -1.
         -1   -1    0    0    0  501 -0.00000000000E+00 -0.00000000000E+00 -0.47470785703E+03  0.47470785703E+03  0.00000000000E+00 0.  1.
         24    2    1    2    0    0  0.35662643681E+03  0.32469926549E+03  0.22803027156E+04  0.23321585431E+04  0.81061500390E+02 0.  0.
        254    2    1    2    0    0 -0.35662643681E+03 -0.32469926549E+03  0.14583530253E+03  0.10433951891E+04  0.91367037641E+03 0.  0.
         23    2    4    4    0    0  0.25971346860E+03 -0.28615511761E+03  0.13262578854E+03  0.41889275187E+03  0.92442959054E+02 0.  0.
         23    2    4    4    0    0 -0.61633990541E+03 -0.38544147885E+02  0.13209513992E+02  0.62450243723E+03  0.92023217253E+02 0.  0.
          2    1    3    3  502    0  0.16460110251E+03  0.19632341646E+03  0.13007723838E+04  0.13257621209E+04  0.00000000000E+00 0. -1.
         -1    1    3    3    0  502  0.19202533431E+03  0.12837584903E+03  0.97953033175E+03  0.10063964221E+04  0.00000000000E+00 0.  1.
         11    1    5    5    0    0  0.20515738340E+03 -0.16875340547E+03  0.10977391288E+03  0.28743273260E+03  0.00000000000E+00 0. -1.
        -11    1    5    5    0    0  0.54556085195E+02 -0.11740171214E+03  0.22851875662E+02  0.13146001927E+03  0.00000000000E+00 0.  1.
          2    1    6    6  503    0 -0.81761019232E+01  0.52693262868E+01  0.11099920194E+02  0.14758816704E+02  0.00000000000E+00 0.  1.
         -2    1    6    6    0  503 -0.60816380349E+03 -0.43813474172E+02  0.21095937979E+01  0.60974362053E+03  0.00000000000E+00 0. -1.
<mgrwt>
<rscale>  0 0.23469592E+04</rscale>
<asrwt>0</asrwt>
<pdfrwt beam="1">  1        2 0.44628397E+00 0.23469592E+04</pdfrwt>
<pdfrwt beam="2">  1       -1 0.73031979E-01 0.23469592E+04</pdfrwt>
<totfact> 0.38980890E+00</totfact>
</mgrwt>
</event>
<event>
12    6  0.1627636E-007  0.2488217E+04  0.7818608E-02  0.8407195E-01
          2   -1    0    0  501    0  0.00000000000E+00  0.00000000000E+00  0.12132234715E+04  0.12132234715E+04  0.00000000000E+00 0. -1.
         -1   -1    0    0    0  501 -0.00000000000E+00 -0.00000000000E+00 -0.12757795746E+04  0.12757795746E+04  0.00000000000E+00 0.  1.
         24    2    1    2    0    0  0.11201497735E+03 -0.74160807870E+03  0.74311822140E+03  0.10587755428E+04  0.79063655195E+02 0.  0.
        254    2    1    2    0    0 -0.11201497735E+03  0.74160807870E+03 -0.80567432450E+03  0.14302275032E+04  0.91318656159E+03 0.  0.
         23    2    4    4    0    0 -0.23668340740E+03 -0.93528269860E+02 -0.16246091401E+02  0.27066655648E+03  0.90718667895E+02 0.  0.
         23    2    4    4    0    0  0.12466843006E+03  0.83513634856E+03 -0.78942823310E+03  0.11595609467E+04  0.91595392174E+02 0.  0.
          2    1    3    3  502    0  0.58892299906E+02 -0.46490411054E+03  0.51457149708E+03  0.69597985646E+03  0.00000000000E+00 0. -1.
         -1    1    3    3    0  502  0.53122677440E+02 -0.27670396815E+03  0.22854672432E+03  0.36279568637E+03  0.00000000000E+00 0.  1.
         11    1    5    5    0    0 -0.99065910502E+02 -0.87356878176E+02 -0.14760040332E+02  0.13290273729E+03  0.00000000000E+00 0.  1.
        -11    1    5    5    0    0 -0.13761749690E+03 -0.61713916844E+01 -0.14860510684E+01  0.13776381919E+03  0.00000000000E+00 0. -1.
          2    1    6    6  503    0  0.54834122038E+02  0.16967058145E+03 -0.13539899427E+03  0.22389232858E+03  0.00000000000E+00 0. -1.
         -2    1    6    6    0  503  0.69834308021E+02  0.66546576711E+03 -0.65402923884E+03  0.93566861817E+03  0.00000000000E+00 0.  1.
<mgrwt>
<rscale>  0 0.24882168E+04</rscale>
<asrwt>0</asrwt>
<pdfrwt beam="1">  1        2 0.18664976E+00 0.24882168E+04</pdfrwt>
<pdfrwt beam="2">  1       -1 0.19627378E+00 0.24882168E+04</pdfrwt>
<totfact> 0.30225745E+00</totfact>
</mgrwt>
</event>
<event>
12    6  0.1627636E-007  0.1412443E+04  0.7818608E-02  0.8944861E-01
          2   -1    0    0  501    0  0.00000000000E+00  0.00000000000E+00  0.14322747027E+04  0.14322747027E+04  0.00000000000E+00 0. -1.
         -1   -1    0    0    0  501 -0.00000000000E+00 -0.00000000000E+00 -0.34822147491E+03  0.34822147491E+03  0.00000000000E+00 0.  1.
         24    2    1    2    0    0  0.87811110124E+02  0.40305098238E+03  0.27342018188E+03  0.49933409087E+03  0.66445865063E+02 0.  0.
        254    2    1    2    0    0 -0.87811110124E+02 -0.40305098238E+03  0.81063304594E+03  0.12811620868E+04  0.90226906847E+03 0.  0.
         23    2    4    4    0    0 -0.28554207422E+03 -0.27886908669E+02 -0.61214980083E+02  0.30748314115E+03  0.92123029039E+02 0.  0.
         23    2    4    4    0    0  0.19773096409E+03 -0.37516407372E+03  0.87184802602E+03  0.97367894561E+03  0.89922701717E+02 0.  0.
          4    1    3    3  502    0 -0.22662895030E+00  0.90798715583E+01 -0.35658511671E+01  0.97575982057E+01  0.00000000000E+00 0. -1.
         -3    1    3    3    0  502  0.88037739074E+02  0.39397111083E+03  0.27698603305E+03  0.48957649266E+03  0.00000000000E+00 0.  1.
         11    1    5    5    0    0 -0.19663409287E+03  0.13555966313E+02 -0.11308425004E+02  0.19742495075E+03  0.00000000000E+00 0.  1.
        -11    1    5    5    0    0 -0.88907981345E+02 -0.41442874982E+02 -0.49906555078E+02  0.11005819040E+03  0.00000000000E+00 0. -1.
          2    1    6    6  503    0  0.46502026517E+02 -0.30403508105E+02  0.87293721006E+02  0.10347466116E+03  0.00000000000E+00 0. -1.
         -2    1    6    6    0  503  0.15122893758E+03 -0.34476056561E+03  0.78455430502E+03  0.87020428445E+03  0.00000000000E+00 0.  1.
<mgrwt>
<rscale>  0 0.14124430E+04</rscale>
<asrwt>0</asrwt>
<pdfrwt beam="1">  1        2 0.22034995E+00 0.14124430E+04</pdfrwt>
<pdfrwt beam="2">  1       -1 0.53572535E-01 0.14124430E+04</pdfrwt>
<totfact> 0.54029680E+01</totfact>
</mgrwt>
</event>
<event>
12    6  0.1627636E-007  0.2580391E+04  0.7818608E-02  0.8374893E-01
          2   -1    0    0  501    0  0.00000000000E+00  0.00000000000E+00  0.23282569420E+04  0.23282569420E+04  0.00000000000E+00 0. -1.
         -1   -1    0    0    0  501 -0.00000000000E+00 -0.00000000000E+00 -0.71495725513E+03  0.71495725513E+03  0.00000000000E+00 0.  1.
         24    2    1    2    0    0 -0.82331138137E+03 -0.78296806788E+03  0.77214543796E+03  0.13760219480E+04  0.79669303367E+02 0.  0.
        254    2    1    2    0    0  0.82331138137E+03  0.78296806788E+03  0.84115424890E+03  0.16671922491E+04  0.88380365419E+03 0.  0.
         23    2    4    4    0    0  0.85763931102E+03  0.65671234807E+03  0.33315833686E+03  0.11342028256E+04  0.92764628785E+02 0.  0.
         23    2    4    4    0    0 -0.34327929654E+02  0.12625571982E+03  0.50799591204E+03  0.53298942351E+03  0.94334327699E+02 0.  0.
          4    1    3    3  502    0 -0.75732985935E+03 -0.68929804955E+03  0.70427087444E+03  0.12428506674E+04  0.00000000000E+00 0. -1.
         -3    1    3    3    0  502 -0.65981522015E+02 -0.93670018336E+02  0.67874563516E+02  0.13317128052E+03  0.00000000000E+00 0.  1.
         11    1    5    5    0    0  0.98551077962E+02  0.96195201418E+02  0.15617547659E+02  0.13859920468E+03  0.00000000000E+00 0. -1.
        -11    1    5    5    0    0  0.75908823306E+03  0.56051714665E+03  0.31754078920E+03  0.99560362096E+03  0.00000000000E+00 0.  1.
          1    1    6    6  503    0  0.30741236994E+02  0.65121675245E+02  0.22468128274E+03  0.23593968520E+03  0.00000000000E+00 0. -1.
         -1    1    6    6    0  503 -0.65069166648E+02  0.61134044571E+02  0.28331462930E+03  0.29704973831E+03  0.00000000000E+00 0.  1.
<mgrwt>
<rscale>  0 0.25803908E+04</rscale>
<asrwt>0</asrwt>
<pdfrwt beam="1">  1        2 0.35819337E+00 0.25803908E+04</pdfrwt>
<pdfrwt beam="2">  1       -1 0.10999343E+00 0.25803908E+04</pdfrwt>
<totfact> 0.33597953E+00</totfact>
</mgrwt>
</event>
<event>
12    6  0.1627636E-007  0.1980819E+04  0.7818608E-02  0.8615641E-01
         -1   -1    0    0    0  501 -0.00000000000E+00  0.00000000000E+00  0.19861343778E+04  0.19861343778E+04  0.00000000000E+00 0.  1.
          2   -1    0    0  501    0  0.00000000000E+00 -0.00000000000E+00 -0.49387927843E+03  0.49387927843E+03  0.00000000000E+00 0. -1.
         24    2    1    2    0    0  0.33103162764E+03 -0.37368827304E+03  0.13518079340E+04  0.14432223864E+04  0.79254667565E+02 0.  0.
        254    2    1    2    0    0 -0.33103162764E+03  0.37368827304E+03  0.14044716540E+03  0.10367912698E+04  0.89776715637E+03 0.  0.
         23    2    4    4    0    0 -0.86106466354E+02  0.47578972970E+02  0.47995167756E+03  0.49846372691E+03  0.91838946164E+02 0.  0.
         23    2    4    4    0    0 -0.24492516128E+03  0.32610930007E+03 -0.33950451216E+03  0.53832754294E+03  0.90540706253E+02 0.  0.
          2    1    3    3  502    0  0.88169329285E+02 -0.53056919406E+02  0.29747371981E+03  0.31476893319E+03  0.00000000000E+00 0. -1.
         -1    1    3    3    0  502  0.24286229835E+03 -0.32063135363E+03  0.10543342142E+04  0.11284534532E+04  0.00000000000E+00 0.  1.
         11    1    5    5    0    0 -0.23235801100E+02  0.42699813763E+02  0.80305310420E+02  0.93872889749E+02  0.00000000000E+00 0.  1.
        -11    1    5    5    0    0 -0.62870665255E+02  0.48791592066E+01  0.39964636714E+03  0.40459083716E+03  0.00000000000E+00 0. -1.
          4    1    6    6  503    0 -0.24011465272E+03  0.29415341236E+03 -0.28426180026E+03  0.47432694161E+03  0.00000000000E+00 0. -1.
         -4    1    6    6    0  503 -0.48105085608E+01  0.31955887712E+02 -0.55242711897E+02  0.64000601324E+02  0.00000000000E+00 0.  1.
<mgrwt>
<rscale>  0 0.19808186E+04</rscale>
<asrwt>0</asrwt>
<pdfrwt beam="1">  1        2 0.75981428E-01 0.19808186E+04</pdfrwt>
<pdfrwt beam="2">  1       -1 0.30555913E+00 0.19808186E+04</pdfrwt>
<totfact> 0.20198979E+00</totfact>
</mgrwt>
</event>
<event>
12    6  0.1627636E-007  0.1044033E+04  0.7818608E-02  0.9261526E-01
          2   -1    0    0  501    0  0.00000000000E+00  0.00000000000E+00  0.13744944555E+04  0.13744944555E+04  0.00000000000E+00 0. -1.
         -1   -1    0    0    0  501 -0.00000000000E+00 -0.00000000000E+00 -0.19825572061E+03  0.19825572061E+03  0.00000000000E+00 0.  1.
         24    2    1    2    0    0 -0.86606967239E+02 -0.70264961818E+02  0.13973701608E+03  0.19600904878E+03  0.80344146683E+02 0.  0.
        254    2    1    2    0    0  0.86606967239E+02  0.70264961818E+02  0.10365017188E+04  0.13767411273E+04  0.89924545423E+03 0.  0.
         23    2    4    4    0    0  0.43355789360E+03 -0.59975777090E+01  0.24928965567E+03  0.50843509813E+03  0.91392004860E+02 0.  0.
         23    2    4    4    0    0 -0.34695092636E+03  0.76262539527E+02  0.78721206313E+03  0.86830602919E+03  0.89786456426E+02 0.  0.
          4    1    3    3  502    0 -0.28272163284E+02 -0.71121588789E+01  0.94432675949E+02  0.98830300554E+02  0.00000000000E+00 0. -1.
         -3    1    3    3    0  502 -0.58334803955E+02 -0.63152802939E+02  0.45304340128E+02  0.97178748222E+02  0.00000000000E+00 0.  1.
         11    1    5    5    0    0  0.30815124761E+03 -0.39241313156E+02  0.14940728297E+03  0.34470220229E+03  0.00000000000E+00 0. -1.
        -11    1    5    5    0    0  0.12540664599E+03  0.33243735447E+02  0.99882372702E+02  0.16373289584E+03  0.00000000000E+00 0.  1.
          2    1    6    6  503    0 -0.34549125398E+03  0.85099688770E+02  0.77774189244E+03  0.85527107683E+03  0.00000000000E+00 0. -1.
         -2    1    6    6    0  503 -0.14596723767E+01 -0.88371492424E+01  0.94701706922E+01  0.13034952364E+02  0.00000000000E+00 0.  1.
<mgrwt>
<rscale>  0 0.10440333E+04</rscale>
<asrwt>0</asrwt>
<pdfrwt beam="1">  1        2 0.21146068E+00 0.10440333E+04</pdfrwt>
<pdfrwt beam="2">  1       -1 0.30500881E-01 0.10440333E+04</pdfrwt>
<totfact> 0.16817149E+02</totfact>
</mgrwt>
</event>
<event>
12    6  0.1627636E-007  0.1704077E+04  0.7818608E-02  0.8759042E-01
          2   -1    0    0  501    0  0.00000000000E+00  0.00000000000E+00  0.11115015228E+04  0.11115015228E+04  0.00000000000E+00 0. -1.
         -1   -1    0    0    0  501 -0.00000000000E+00 -0.00000000000E+00 -0.65314341137E+03  0.65314341137E+03  0.00000000000E+00 0.  1.
         24    2    1    2    0    0  0.16898577657E+03 -0.39813373942E+03  0.49055346396E+03  0.65934132310E+03  0.83795060662E+02 0.  0.
        254    2    1    2    0    0 -0.16898577657E+03  0.39813373942E+03 -0.32195352508E+02  0.11053036111E+04  0.10166576930E+04 0.  0.
         23    2    4    4    0    0  0.94350013645E+01 -0.30949592514E+03 -0.15824868459E+03  0.35948642109E+03  0.91165200841E+02 0.  0.
         23    2    4    4    0    0 -0.17842077794E+03  0.70762966457E+03  0.12605333209E+03  0.74581718999E+03  0.88205000894E+02 0.  0.
          2    1    3    3  502    0  0.85150348883E+02 -0.27364702968E+03  0.27909134413E+03  0.40003157017E+03  0.00000000000E+00 0. -1.
         -1    1    3    3    0  502  0.83835427690E+02 -0.12448670974E+03  0.21146211983E+03  0.25930975293E+03  0.00000000000E+00 0.  1.
         11    1    5    5    0    0 -0.71611250677E+01 -0.30465574713E+03 -0.15500906855E+03  0.34189796329E+03  0.00000000000E+00 0.  1.
        -11    1    5    5    0    0  0.16596126432E+02 -0.48401780148E+01 -0.32396160464E+01  0.17588457803E+02  0.00000000000E+00 0. -1.
          2    1    6    6  503    0 -0.67346779953E+01  0.14809024181E+01  0.62138064913E+01  0.92822600041E+01  0.00000000000E+00 0. -1.
         -2    1    6    6    0  503 -0.17168609994E+03  0.70614876215E+03  0.11983952560E+03  0.73653492999E+03  0.00000000000E+00 0.  1.
<mgrwt>
<rscale>  0 0.17040773E+04</rscale>
<asrwt>0</asrwt>
<pdfrwt beam="1">  1        2 0.17100023E+00 0.17040773E+04</pdfrwt>
<pdfrwt beam="2">  1       -1 0.10048360E+00 0.17040773E+04</pdfrwt>
<totfact> 0.21922946E+01</totfact>
</mgrwt>
</event>
<event>
12    6  0.1627636E-007  0.1888929E+04  0.7818608E-02  0.8660387E-01
          2   -1    0    0  501    0  0.00000000000E+00  0.00000000000E+00  0.69681799581E+03  0.69681799581E+03  0.00000000000E+00 0. -1.
         -1   -1    0    0    0  501 -0.00000000000E+00 -0.00000000000E+00 -0.12801242228E+04  0.12801242228E+04  0.00000000000E+00 0.  1.
         24    2    1    2    0    0  0.45655911216E+03 -0.26606591934E+03  0.29728462447E+03  0.61148237052E+03  0.79342581164E+02 0.  0.
        254    2    1    2    0    0 -0.45655911216E+03  0.26606591934E+03 -0.88059085149E+03  0.13654598481E+04  0.89989057821E+03 0.  0.
         23    2    4    4    0    0 -0.50850456442E+03  0.31398727755E+03 -0.10191595638E+04  0.11850745070E+04  0.92468740791E+02 0.  0.
         23    2    4    4    0    0  0.51945452262E+02 -0.47921358211E+02  0.13856871234E+03  0.18038534114E+03  0.91338911058E+02 0.  0.
          4    1    3    3  502    0  0.20032812138E+03 -0.74857088746E+02  0.10301061071E+03  0.23737338914E+03  0.00000000000E+00 0. -1.
         -3    1    3    3    0  502  0.25623099078E+03 -0.19120883060E+03  0.19427401375E+03  0.37410898139E+03  0.00000000000E+00 0.  1.
         11    1    5    5    0    0 -0.16736121992E+03  0.11150441578E+03 -0.26200360624E+03  0.33028609168E+03  0.00000000000E+00 0. -1.
        -11    1    5    5    0    0 -0.34114334450E+03  0.20248286178E+03 -0.75715595759E+03  0.85478841530E+03  0.00000000000E+00 0.  1.
          2    1    6    6  503    0  0.60404071495E+02 -0.23194025964E+02  0.13998234719E+03  0.15421307408E+03  0.00000000000E+00 0.  1.
         -2    1    6    6    0  503 -0.84586192328E+01 -0.24727332247E+02 -0.14136348441E+01  0.26172267056E+02  0.00000000000E+00 0. -1.
<mgrwt>
<rscale>  0 0.18889294E+04</rscale>
<asrwt>0</asrwt>
<pdfrwt beam="1">  1        2 0.10720277E+00 0.18889294E+04</pdfrwt>
<pdfrwt beam="2">  1       -1 0.19694219E+00 0.18889294E+04</pdfrwt>
<totfact> 0.69687952E+00</totfact>
</mgrwt>
</event>
<event>
12    6  0.1627636E-007  0.1222078E+04  0.7818608E-02  0.9093749E-01
         -1   -1    0    0    0  501 -0.00000000000E+00  0.00000000000E+00  0.34835099034E+03  0.34835099034E+03  0.00000000000E+00 0.  1.
          2   -1    0    0  501    0  0.00000000000E+00 -0.00000000000E+00 -0.10718165774E+04  0.10718165774E+04  0.00000000000E+00 0. -1.
         24    2    1    2    0    0 -0.22372758237E+03 -0.98993150111E+02 -0.65573191538E+02  0.26558183999E+03  0.79876125375E+02 0.  0.
        254    2    1    2    0    0  0.22372758237E+03  0.98993150111E+02 -0.65789239549E+03  0.11545857277E+04  0.91672903506E+03 0.  0.
         23    2    4    4    0    0  0.27430038989E+03 -0.18496013038E+03  0.83863477651E+02  0.35320040721E+03  0.90920245518E+02 0.  0.
         23    2    4    4    0    0 -0.50572807518E+02  0.28395328049E+03 -0.74175587314E+03  0.80138532051E+03  0.93965856691E+02 0.  0.
          2    1    3    3  502    0 -0.80810358602E+02 -0.14106940791E+02 -0.55515756567E+02  0.99052102769E+02  0.00000000000E+00 0. -1.
         -1    1    3    3    0  502 -0.14291722377E+03 -0.84886209320E+02 -0.10057434970E+02  0.16652973723E+03  0.00000000000E+00 0.  1.
         11    1    5    5    0    0  0.10548068208E+03 -0.55946165115E+02  0.74057435814E+02  0.14050142875E+03  0.00000000000E+00 0.  1.
        -11    1    5    5    0    0  0.16881970781E+03 -0.12901396527E+03  0.98060418371E+01  0.21269897845E+03  0.00000000000E+00 0. -1.
          1    1    6    6  503    0 -0.70779401009E+02  0.26771910598E+03 -0.66426856631E+03  0.71967768584E+03  0.00000000000E+00 0. -1.
         -1    1    6    6    0  503  0.20206593491E+02  0.16234174517E+02 -0.77487306833E+02  0.81707634667E+02  0.00000000000E+00 0.  1.
<mgrwt>
<rscale>  0 0.12220775E+04</rscale>
<asrwt>0</asrwt>
<pdfrwt beam="1">  1        2 0.16489485E+00 0.12220775E+04</pdfrwt>
<pdfrwt beam="2">  1       -1 0.53592461E-01 0.12220775E+04</pdfrwt>
<totfact> 0.89531464E+01</totfact>
</mgrwt>
</event>
<event>
12    6  0.1627636E-007  0.1254122E+04  0.7818608E-02  0.9066759E-01
         -1   -1    0    0    0  501 -0.00000000000E+00  0.00000000000E+00  0.44303930411E+03  0.44303930411E+03  0.00000000000E+00 0.  1.
          2   -1    0    0  501    0  0.00000000000E+00 -0.00000000000E+00 -0.88751848293E+03  0.88751848293E+03  0.00000000000E+00 0. -1.
         24    2    1    2    0    0 -0.11997492386E+03  0.10821454217E+03 -0.37481969758E+03  0.41655108109E+03  0.83190311756E+02 0.  0.
        254    2    1    2    0    0  0.11997492386E+03 -0.10821454217E+03 -0.69659481237E+02  0.91400670595E+03  0.89691217280E+03 0.  0.
         23    2    4    4    0    0 -0.20264989220E+03 -0.20260294405E+03  0.28712291154E+03  0.41549952421E+03  0.89918610643E+02 0.  0.
         23    2    4    4    0    0  0.32262481607E+03  0.94388401881E+02 -0.35678239278E+03  0.49850718174E+03  0.90663069114E+02 0.  0.
          4    1    3    3  502    0 -0.12421578539E+03  0.11052852846E+03 -0.37638303785E+03  0.41147333830E+03  0.00000000000E+00 0. -1.
         -3    1    3    3    0  502  0.42408615277E+01 -0.23139862967E+01  0.15633402721E+01  0.50777427943E+01  0.00000000000E+00 0.  1.
         11    1    5    5    0    0 -0.61270883183E+02 -0.58018018120E+02  0.14693182213E+03  0.16943781133E+03  0.00000000000E+00 0. -1.
        -11    1    5    5    0    0 -0.14137900902E+03 -0.14458492593E+03  0.14019108941E+03  0.24606171288E+03  0.00000000000E+00 0.  1.
          2    1    6    6  503    0  0.54613670792E+02  0.11852778756E+02 -0.11651186168E+03  0.12922134233E+03  0.00000000000E+00 0. -1.
         -2    1    6    6    0  503  0.26801114527E+03  0.82535623124E+02 -0.24027053110E+03  0.36928583941E+03  0.00000000000E+00 0.  1.
<mgrwt>
<rscale>  0 0.12541221E+04</rscale>
<asrwt>0</asrwt>
<pdfrwt beam="1">  1        2 0.13654130E+00 0.12541221E+04</pdfrwt>
<pdfrwt beam="2">  1       -1 0.68159894E-01 0.12541221E+04</pdfrwt>
<totfact> 0.73127145E+01</totfact>
</mgrwt>
</event>
<event>
12    6  0.1627636E-007  0.2145221E+04  0.7818608E-02  0.8541581E-01
          2   -1    0    0  501    0  0.00000000000E+00  0.00000000000E+00  0.31227818750E+04  0.31227818750E+04  0.00000000000E+00 0. -1.
         -1   -1    0    0    0  501 -0.00000000000E+00 -0.00000000000E+00 -0.36841941042E+03  0.36841941042E+03  0.00000000000E+00 0.  1.
         24    2    1    2    0    0  0.54564694993E+03 -0.39159081656E+03  0.20839212983E+04  0.21909919488E+04  0.81509389669E+02 0.  0.
        254    2    1    2    0    0 -0.54564694993E+03  0.39159081656E+03  0.67044116626E+03  0.13002093366E+04  0.88880762822E+03 0.  0.
         23    2    4    4    0    0 -0.13670460463E+03  0.14473375731E+03 -0.20352557050E+03  0.29995576879E+03  0.94418197156E+02 0.  0.
         23    2    4    4    0    0 -0.40894234531E+03  0.24685705924E+03  0.87396673676E+03  0.10002535678E+04  0.92288100328E+02 0.  0.
          4    1    3    3  502    0  0.38173305830E+03 -0.29752366646E+03  0.15951253321E+04  0.16669328976E+04  0.00000000000E+00 0. -1.
         -3    1    3    3    0  502  0.16391389163E+03 -0.94067150098E+02  0.48879596621E+03  0.52405905123E+03  0.00000000000E+00 0.  1.
         11    1    5    5    0    0 -0.51782572082E+02  0.51678691269E+02 -0.17392905543E+02  0.75197307571E+02  0.00000000000E+00 0.  1.
        -11    1    5    5    0    0 -0.84922032546E+02  0.93055066042E+02 -0.18613266496E+03  0.22475846122E+03  0.00000000000E+00 0. -1.
          3    1    6    6  503    0 -0.21240266611E+03  0.96814484893E+02  0.50176092192E+03  0.55340036124E+03  0.00000000000E+00 0. -1.
         -3    1    6    6    0  503 -0.19653967920E+03  0.15004257435E+03  0.37220581484E+03  0.44685320657E+03  0.00000000000E+00 0.  1.
<mgrwt>
<rscale>  0 0.21452212E+04</rscale>
<asrwt>0</asrwt>
<pdfrwt beam="1">  1        2 0.48042796E+00 0.21452212E+04</pdfrwt>
<pdfrwt beam="2">  1       -1 0.56679911E-01 0.21452212E+04</pdfrwt>
<totfact> 0.47997892E+00</totfact>
</mgrwt>
</event>
<event>
12    6  0.1627636E-007  0.1558408E+04  0.7818608E-02  0.8846515E-01
         -1   -1    0    0    0  501 -0.00000000000E+00  0.00000000000E+00  0.28220426933E+03  0.28220426933E+03  0.00000000000E+00 0.  1.
          2   -1    0    0  501    0  0.00000000000E+00 -0.00000000000E+00 -0.21514861446E+04  0.21514861446E+04  0.00000000000E+00 0. -1.
         24    2    1    2    0    0 -0.49424758103E+03  0.94193988457E+02 -0.49094166645E+03  0.70761493130E+03  0.80882583592E+02 0.  0.
        254    2    1    2    0    0  0.49424758103E+03 -0.94193988457E+02 -0.13783402088E+04  0.17260754827E+04  0.90904436730E+03 0.  0.
         23    2    4    4    0    0 -0.13456752212E+03  0.13028387404E+03 -0.19585614110E+02  0.20932323340E+03  0.91380052075E+02 0.  0.
         23    2    4    4    0    0  0.62881510315E+03 -0.22447786250E+03 -0.13587545947E+04  0.15167522493E+04  0.92328718343E+02 0.  0.
          2    1    3    3  502    0 -0.28418528819E+02  0.93257530861E+01 -0.73205356789E+01  0.30792412921E+02  0.00000000000E+00 0. -1.
         -1    1    3    3    0  502 -0.46582905221E+03  0.84868235371E+02 -0.48362113077E+03  0.67682251838E+03  0.00000000000E+00 0.  1.
         11    1    5    5    0    0 -0.63214606092E+02  0.41436770679E+01 -0.93892358905E+01  0.64042284732E+02  0.00000000000E+00 0. -1.
        -11    1    5    5    0    0 -0.71352916030E+02  0.12614019697E+03 -0.10196378220E+02  0.14528094867E+03  0.00000000000E+00 0.  1.
          1    1    6    6  503    0  0.39542143857E+03 -0.11066072089E+03 -0.90857217838E+03  0.99704930297E+03  0.00000000000E+00 0. -1.
         -1    1    6    6    0  503  0.23339366458E+03 -0.11381714161E+03 -0.45018241635E+03  0.51970294629E+03  0.00000000000E+00 0.  1.
<mgrwt>
<rscale>  0 0.15584076E+04</rscale>
<asrwt>0</asrwt>
<pdfrwt beam="1">  1        2 0.33099787E+00 0.15584076E+04</pdfrwt>
<pdfrwt beam="2">  1       -1 0.43416041E-01 0.15584076E+04</pdfrwt>
<totfact> 0.31564431E+01</totfact>
</mgrwt>
</event>
<event>
12    6  0.1627636E-007  0.1726047E+04  0.7818608E-02  0.8746647E-01
          2   -1    0    0  501    0  0.00000000000E+00  0.00000000000E+00  0.20529810499E+04  0.20529810499E+04  0.00000000000E+00 0. -1.
         -1   -1    0    0    0  501 -0.00000000000E+00 -0.00000000000E+00 -0.36279401387E+03  0.36279401387E+03  0.00000000000E+00 0.  1.
         24    2    1    2    0    0  0.10765359956E+03 -0.31883235520E+02 -0.23371425396E+03  0.27157279131E+03  0.80768745644E+02 0.  0.
        254    2    1    2    0    0 -0.10765359956E+03  0.31883235520E+02  0.19239012900E+04  0.21442022724E+04  0.94000073053E+03 0.  0.
         23    2    4    4    0    0 -0.28207187246E+00  0.44106927889E+03  0.13672128496E+04  0.14394742228E+04  0.90955338251E+02 0.  0.
         23    2    4    4    0    0 -0.10737152768E+03 -0.40918604337E+03  0.55668844034E+03  0.70472804965E+03  0.88191503562E+02 0.  0.
          4    1    3    3  502    0  0.87786302398E+02  0.83192525992E+01 -0.11676380429E+03  0.14631961880E+03  0.00000000000E+00 0. -1.
         -3    1    3    3    0  502  0.19867297157E+02 -0.40202488119E+02 -0.11695044967E+03  0.12525317252E+03  0.00000000000E+00 0.  1.
         11    1    5    5    0    0 -0.35326327963E+01  0.14008398285E+03  0.30908492907E+03  0.33936631407E+03  0.00000000000E+00 0.  1.
        -11    1    5    5    0    0  0.32505609238E+01  0.30098529604E+03  0.10581279206E+04  0.11001079087E+04  0.00000000000E+00 0. -1.
          2    1    6    6  503    0 -0.11036403755E+03 -0.40485873291E+03  0.52254742073E+03  0.67018402048E+03  0.00000000000E+00 0. -1.
         -2    1    6    6    0  503  0.29925098632E+01 -0.43273104690E+01  0.34141019606E+02  0.34544029165E+02  0.00000000000E+00 0.  1.
<mgrwt>
<rscale>  0 0.17260466E+04</rscale>
<asrwt>0</asrwt>
<pdfrwt beam="1">  1        2 0.31584323E+00 0.17260466E+04</pdfrwt>
<pdfrwt beam="2">  1       -1 0.55814465E-01 0.17260466E+04</pdfrwt>
<totfact> 0.21922487E+01</totfact>
</mgrwt>
</event>
<event>
12    6  0.1627636E-007  0.1415193E+04  0.7818608E-02  0.8942894E-01
          2   -1    0    0  501    0  0.00000000000E+00  0.00000000000E+00  0.11249314438E+04  0.11249314438E+04  0.00000000000E+00 0. -1.
         -1   -1    0    0    0  501 -0.00000000000E+00 -0.00000000000E+00 -0.44508735031E+03  0.44508735031E+03  0.00000000000E+00 0.  1.
         24    2    1    2    0    0 -0.35428162323E+02 -0.18067364992E+03  0.61603078895E+03  0.64789170564E+03  0.79822345473E+02 0.  0.
        254    2    1    2    0    0  0.35428162323E+02  0.18067364992E+03  0.63813304516E+02  0.92212708846E+03  0.90130355983E+03 0.  0.
         23    2    4    4    0    0  0.64672640232E+02 -0.35727043089E+03  0.14022124954E+02  0.37318548703E+03  0.85123889458E+02 0.  0.
         23    2    4    4    0    0 -0.29244477910E+02  0.53794408081E+03  0.49791179562E+02  0.54894160143E+03  0.92836666502E+02 0.  0.
          2    1    3    3  502    0 -0.19746418692E+02 -0.18091160586E+03  0.52820403312E+03  0.55867560426E+03  0.00000000000E+00 0. -1.
         -1    1    3    3    0  502 -0.15681743631E+02  0.23795593310E+00  0.87826755827E+02  0.89216101379E+02  0.00000000000E+00 0.  1.
         11    1    5    5    0    0  0.56792159629E+02 -0.96543984083E+02  0.74591291243E+01  0.11225742232E+03  0.00000000000E+00 0. -1.
        -11    1    5    5    0    0  0.78804806030E+01 -0.26072644681E+03  0.65629958301E+01  0.26092806471E+03  0.00000000000E+00 0.  1.
          4    1    6    6  503    0  0.28664052352E+02  0.78348451524E+02  0.93745129873E+01  0.83952303406E+02  0.00000000000E+00 0. -1.
         -4    1    6    6    0  503 -0.57908530262E+02  0.45959562929E+03  0.40416666575E+02  0.46498929802E+03  0.00000000000E+00 0.  1.
<mgrwt>
<rscale>  0 0.14151929E+04</rscale>
<asrwt>0</asrwt>
<pdfrwt beam="1">  1        2 0.17306637E+00 0.14151929E+04</pdfrwt>
<pdfrwt beam="2">  1       -1 0.68474977E-01 0.14151929E+04</pdfrwt>
<totfact> 0.50339461E+01</totfact>
</mgrwt>
</event>
<event>
12    6  0.1627636E-007  0.1292081E+04  0.7818608E-02  0.9035869E-01
          2   -1    0    0  501    0  0.00000000000E+00  0.00000000000E+00  0.26993125877E+04  0.26993125877E+04  0.00000000000E+00 0. -1.
         -1   -1    0    0    0  501 -0.00000000000E+00 -0.00000000000E+00 -0.15462019611E+03  0.15462019611E+03  0.00000000000E+00 0.  1.
         24    2    1    2    0    0 -0.97797078125E+02  0.27019159164E+03  0.35742809487E+03  0.46646684486E+03  0.85256727995E+02 0.  0.
        254    2    1    2    0    0  0.97797078125E+02 -0.27019159164E+03  0.21872642967E+04  0.23874659389E+04  0.91285307760E+03 0.  0.
         23    2    4    4    0    0 -0.13636345183E+03  0.24410206936E+03  0.12900130008E+04  0.13231484199E+04  0.91691807624E+02 0.  0.
         23    2    4    4    0    0  0.23416052995E+03 -0.51429366100E+03  0.89725129593E+03  0.10643175191E+04  0.91557467284E+02 0.  0.
          4    1    3    3  502    0 -0.12080797569E+02  0.82728042907E+01  0.56709899924E+02  0.58569597148E+02  0.00000000000E+00 0. -1.
         -3    1    3    3    0  502 -0.85716280556E+02  0.26191878735E+03  0.30071819495E+03  0.40789724771E+03  0.00000000000E+00 0.  1.
         11    1    5    5    0    0 -0.10586219320E+03  0.17446146798E+03  0.10947365049E+04  0.11135940117E+04  0.00000000000E+00 0. -1.
        -11    1    5    5    0    0 -0.30501258629E+02  0.69640601381E+02  0.19527649585E+03  0.20955440814E+03  0.00000000000E+00 0.  1.
          1    1    6    6  503    0  0.17980576461E+03 -0.41402018992E+03  0.64258372453E+03  0.78527490325E+03  0.00000000000E+00 0. -1.
         -1    1    6    6    0  503  0.54354765343E+02 -0.10027347108E+03  0.25466757140E+03  0.27904261582E+03  0.00000000000E+00 0.  1.
<mgrwt>
<rscale>  0 0.12920809E+04</rscale>
<asrwt>0</asrwt>
<pdfrwt beam="1">  1        2 0.41527883E+00 0.12920809E+04</pdfrwt>
<pdfrwt beam="2">  1       -1 0.23787724E-01 0.12920809E+04</pdfrwt>
<totfact> 0.45611553E+01</totfact>
</mgrwt>
</event>
<event>
12    6  0.1627636E-007  0.1614017E+04  0.7818608E-02  0.8811983E-01
         -1   -1    0    0    0  501 -0.00000000000E+00  0.00000000000E+00  0.65239378421E+03  0.65239378421E+03  0.00000000000E+00 0.  1.
          2   -1    0    0  501    0  0.00000000000E+00 -0.00000000000E+00 -0.99826566815E+03  0.99826566815E+03  0.00000000000E+00 0. -1.
         24    2    1    2    0    0  0.12510545489E+03  0.36851599847E+03  0.27818328021E+03  0.48503207423E+03  0.80092194799E+02 0.  0.
        254    2    1    2    0    0 -0.12510545489E+03 -0.36851599847E+03 -0.62405516416E+03  0.11656273781E+04  0.90431571962E+03 0.  0.
         23    2    4    4    0    0  0.20369535301E+03 -0.48599182005E+03 -0.60017676355E+03  0.80380203001E+03  0.90585373763E+02 0.  0.
         23    2    4    4    0    0 -0.32880080790E+03  0.11747582158E+03 -0.23878400605E+02  0.36182534812E+03  0.91852406600E+02 0.  0.
          2    1    3    3  502    0  0.10285920861E+03  0.27383715015E+03  0.16515858713E+03  0.33592284903E+03  0.00000000000E+00 0. -1.
         -1    1    3    3    0  502  0.22246246283E+02  0.94678848326E+02  0.11302469308E+03  0.14910922520E+03  0.00000000000E+00 0.  1.
         11    1    5    5    0    0  0.11798227839E+03 -0.26204021524E+03 -0.39328909909E+03  0.48709466008E+03  0.00000000000E+00 0.  1.
        -11    1    5    5    0    0  0.85713074615E+02 -0.22395160481E+03 -0.20688766446E+03  0.31670736992E+03  0.00000000000E+00 0. -1.
          3    1    6    6  503    0 -0.85396585515E+02  0.35911076341E+02 -0.47365041692E+02  0.10404628487E+03  0.00000000000E+00 0. -1.
         -3    1    6    6    0  503 -0.24340422238E+03  0.81564745236E+02  0.23486641087E+02  0.25777906325E+03  0.00000000000E+00 0.  1.
<mgrwt>
<rscale>  0 0.16140165E+04</rscale>
<asrwt>0</asrwt>
<pdfrwt beam="1">  1        2 0.15357933E+00 0.16140165E+04</pdfrwt>
<pdfrwt beam="2">  1       -1 0.10036827E+00 0.16140165E+04</pdfrwt>
<totfact> 0.26090379E+01</totfact>
</mgrwt>
</event>
<event>
12    6  0.1627636E-007  0.1402856E+04  0.7818608E-02  0.8951754E-01
          2   -1    0    0  501    0  0.00000000000E+00  0.00000000000E+00  0.37687448562E+03  0.37687448562E+03  0.00000000000E+00 0. -1.
         -1   -1    0    0    0  501 -0.00000000000E+00 -0.00000000000E+00 -0.13054770140E+04  0.13054770140E+04  0.00000000000E+00 0.  1.
         24    2    1    2    0    0 -0.89006446841E+02  0.39310945301E+03 -0.22393081915E+03  0.46791123798E+03  0.79616111658E+02 0.  0.
        254    2    1    2    0    0  0.89006446841E+02 -0.39310945301E+03 -0.70467170923E+03  0.12144402616E+04  0.90324179579E+03 0.  0.
         23    2    4    4    0    0  0.26285399585E+03 -0.58452751463E+03 -0.67811478482E+03  0.93751783718E+03  0.91298385216E+02 0.  0.
         23    2    4    4    0    0 -0.17384754901E+03  0.19141806162E+03 -0.26556924408E+02  0.27692242445E+03  0.95482534108E+02 0.  0.
          4    1    3    3  502    0 -0.72668660908E+02  0.27204591887E+03 -0.11474059807E+03  0.30406433710E+03  0.00000000000E+00 0. -1.
         -3    1    3    3    0  502 -0.16337785933E+02  0.12106353415E+03 -0.10919022107E+03  0.16384690088E+03  0.00000000000E+00 0.  1.
         11    1    5    5    0    0  0.60689871464E+02 -0.21550661522E+03 -0.19547801300E+03  0.29721711806E+03  0.00000000000E+00 0. -1.
        -11    1    5    5    0    0  0.20216412439E+03 -0.36902089941E+03 -0.48263677182E+03  0.64030071912E+03  0.00000000000E+00 0.  1.
          4    1    6    6  503    0 -0.47779844252E+02  0.11723699415E+03 -0.31881714368E+02  0.13055217357E+03  0.00000000000E+00 0. -1.
         -4    1    6    6    0  503 -0.12606770476E+03  0.74181067469E+02  0.53247899605E+01  0.14637025088E+03  0.00000000000E+00 0.  1.
<mgrwt>
<rscale>  0 0.14028556E+04</rscale>
<asrwt>0</asrwt>
<pdfrwt beam="1">  1        2 0.57980689E-01 0.14028556E+04</pdfrwt>
<pdfrwt beam="2">  1       -1 0.20084262E+00 0.14028556E+04</pdfrwt>
<totfact> 0.14063652E+01</totfact>
</mgrwt>
</event>
<event>
12    6  0.1627636E-007  0.1071218E+04  0.7818608E-02  0.9233708E-01
         -1   -1    0    0    0  501 -0.00000000000E+00  0.00000000000E+00  0.13905650617E+04  0.13905650617E+04  0.00000000000E+00 0.  1.
          2   -1    0    0  501    0  0.00000000000E+00 -0.00000000000E+00 -0.20630239855E+03  0.20630239855E+03  0.00000000000E+00 0. -1.
         24    2    1    2    0    0 -0.18458787189E+02  0.11066934179E+03  0.16972627492E+03  0.21989897496E+03  0.83427338183E+02 0.  0.
        254    2    1    2    0    0  0.18458787189E+02 -0.11066934179E+03  0.10145363882E+04  0.13769684853E+04  0.92421301461E+03 0.  0.
         23    2    4    4    0    0 -0.87734311975E+02  0.35744634285E+03  0.69771673453E+03  0.79438430165E+03  0.93662049637E+02 0.  0.
         23    2    4    4    0    0  0.10619309916E+03 -0.46811568464E+03  0.31681965369E+03  0.58258418363E+03  0.92845945145E+02 0.  0.
          2    1    3    3  502    0  0.46391170989E+01  0.82202385587E+02  0.53893292432E+02  0.98403458134E+02  0.00000000000E+00 0. -1.
         -1    1    3    3    0  502 -0.23097904288E+02  0.28466956199E+02  0.11583298249E+03  0.12149551683E+03  0.00000000000E+00 0.  1.
         11    1    5    5    0    0 -0.22043583713E+02  0.53284165732E+02  0.52206630464E+02  0.77785950949E+02  0.00000000000E+00 0. -1.
        -11    1    5    5    0    0 -0.65690728262E+02  0.30416217712E+03  0.64551010406E+03  0.71659835070E+03  0.00000000000E+00 0.  1.
          1    1    6    6  503    0  0.60131727803E+02 -0.94407512466E+02  0.83132866565E+02  0.13942624072E+03  0.00000000000E+00 0. -1.
         -1    1    6    6    0  503  0.46061371361E+02 -0.37370817217E+03  0.23368678713E+03  0.44315794290E+03  0.00000000000E+00 0.  1.
<mgrwt>
<rscale>  0 0.10712178E+04</rscale>
<asrwt>0</asrwt>
<pdfrwt beam="1">  1        2 0.31738831E-01 0.10712178E+04</pdfrwt>
<pdfrwt beam="2">  1       -1 0.21393308E+00 0.10712178E+04</pdfrwt>
<totfact> 0.23096287E+01</totfact>
</mgrwt>
</event>
<event>
12    6  0.1627636E-007  0.2030747E+04  0.7818608E-02  0.8592379E-01
         -1   -1    0    0    0  501 -0.00000000000E+00  0.00000000000E+00  0.36115428897E+03  0.36115428897E+03  0.00000000000E+00 0.  1.
          2   -1    0    0  501    0  0.00000000000E+00 -0.00000000000E+00 -0.28546908194E+04  0.28546908194E+04  0.00000000000E+00 0. -1.
         24    2    1    2    0    0  0.62317695664E+03  0.30822652521E+03 -0.32971901321E+03  0.77292848683E+03  0.73148533489E+02 0.  0.
        254    2    1    2    0    0 -0.62317695664E+03 -0.30822652521E+03 -0.21638175172E+04  0.24429166216E+04  0.89575792592E+03 0.  0.
         23    2    4    4    0    0 -0.39798315604E+03 -0.59634722815E+03 -0.11184525640E+04  0.13316659110E+04  0.91527873384E+02 0.  0.
         23    2    4    4    0    0 -0.22519380061E+03  0.28812070294E+03 -0.10453649533E+04  0.11112507106E+04  0.91457470714E+02 0.  0.
          4    1    3    3  502    0  0.43593170355E+03  0.19171681096E+03 -0.25419282958E+03  0.53982013706E+03  0.00000000000E+00 0. -1.
         -3    1    3    3    0  502  0.18724525309E+03  0.11650971425E+03 -0.75526183624E+02  0.23310834977E+03  0.00000000000E+00 0.  1.
         11    1    5    5    0    0 -0.29195386499E+03 -0.40468107963E+03 -0.70431770311E+03  0.86317278827E+03  0.00000000000E+00 0. -1.
        -11    1    5    5    0    0 -0.10602929105E+03 -0.19166614852E+03 -0.41413486088E+03  0.46849312273E+03  0.00000000000E+00 0.  1.
          4    1    6    6  503    0 -0.35637343068E+02  0.87142482014E+02 -0.36470593168E+03  0.37666198241E+03  0.00000000000E+00 0. -1.
         -4    1    6    6    0  503 -0.18955645754E+03  0.20097822092E+03 -0.68065902158E+03  0.73458872816E+03  0.00000000000E+00 0.  1.
<mgrwt>
<rscale>  0 0.20307475E+04</rscale>
<asrwt>0</asrwt>
<pdfrwt beam="1">  1        2 0.43918321E+00 0.20307475E+04</pdfrwt>
<pdfrwt beam="2">  1       -1 0.55562197E-01 0.20307475E+04</pdfrwt>
<totfact> 0.74122102E+00</totfact>
</mgrwt>
</event>
<event>
12    6  0.1627636E-007  0.1122054E+04  0.7818608E-02  0.9183960E-01
         -1   -1    0    0    0  501 -0.00000000000E+00  0.00000000000E+00  0.28026436605E+03  0.28026436605E+03  0.00000000000E+00 0.  1.
          2   -1    0    0  501    0  0.00000000000E+00 -0.00000000000E+00 -0.11230504211E+04  0.11230504211E+04  0.00000000000E+00 0. -1.
         24    2    1    2    0    0  0.72167803847E+02 -0.16919268202E+03 -0.25365206363E+03  0.32301754592E+03  0.78527765964E+02 0.  0.
        254    2    1    2    0    0 -0.72167803847E+02  0.16919268202E+03 -0.58913399140E+03  0.10802972412E+04  0.88663911147E+03 0.  0.
         23    2    4    4    0    0 -0.28582293306E+03 -0.25111936595E+03 -0.11985955347E+03  0.40875781151E+03  0.89224160938E+02 0.  0.
         23    2    4    4    0    0  0.21365512922E+03  0.42031204797E+03 -0.46927443793E+03  0.67153942970E+03  0.91847567413E+02 0.  0.
          4    1    3    3  502    0  0.16693027205E+02 -0.72316324029E+02 -0.16339102016E+03  0.17945733016E+03  0.00000000000E+00 0. -1.
         -3    1    3    3    0  502  0.55474776643E+02 -0.96876357992E+02 -0.90261043465E+02  0.14356021576E+03  0.00000000000E+00 0.  1.
         11    1    5    5    0    0 -0.19578902870E+03 -0.18645433374E+03 -0.12483638093E+03  0.29779638066E+03  0.00000000000E+00 0. -1.
        -11    1    5    5    0    0 -0.90033904364E+02 -0.64665032213E+02  0.49768274608E+01  0.11096143086E+03  0.00000000000E+00 0.  1.
          4    1    6    6  503    0  0.18400297894E+03  0.29139545285E+03 -0.30158083357E+03  0.45795131333E+03  0.00000000000E+00 0. -1.
         -4    1    6    6    0  503  0.29652150275E+02  0.12891659512E+03 -0.16769360436E+03  0.21358811637E+03  0.00000000000E+00 0.  1.
<mgrwt>
<rscale>  0 0.11220535E+04</rscale>
<asrwt>0</asrwt>
<pdfrwt beam="1">  1        2 0.17277699E+00 0.11220535E+04</pdfrwt>
<pdfrwt beam="2">  1       -1 0.43117595E-01 0.11220535E+04</pdfrwt>
<totfact> 0.12633673E+02</totfact>
</mgrwt>
</event>
<event>
12    6  0.1627636E-007  0.1952600E+04  0.7818608E-02  0.8629108E-01
         -1   -1    0    0    0  501 -0.00000000000E+00  0.00000000000E+00  0.44827555664E+03  0.44827555664E+03  0.00000000000E+00 0.  1.
          2   -1    0    0  501    0  0.00000000000E+00 -0.00000000000E+00 -0.21262852167E+04  0.21262852167E+04  0.00000000000E+00 0. -1.
         24    2    1    2    0    0 -0.20294454692E+02  0.64568059922E+03 -0.12512079269E+04  0.14104747837E+04  0.81256003932E+02 0.  0.
        254    2    1    2    0    0  0.20294454692E+02 -0.64568059922E+03 -0.42680173317E+03  0.11640859896E+04  0.86926472988E+03 0.  0.
         23    2    4    4    0    0 -0.30618266351E+03 -0.65589425696E+03 -0.37718240734E+03  0.82126956488E+03  0.90950701182E+02 0.  0.
         23    2    4    4    0    0  0.32647711820E+03  0.10213657738E+02 -0.49619325830E+02  0.34281642470E+03  0.91484403248E+02 0.  0.
          4    1    3    3  502    0 -0.71370093472E+00  0.50430306976E+03 -0.10362485804E+04  0.11524466217E+04  0.00000000000E+00 0. -1.
         -3    1    3    3    0  502 -0.19580753757E+02  0.14137752946E+03 -0.21495934647E+03  0.25802816201E+03  0.00000000000E+00 0.  1.
         11    1    5    5    0    0 -0.46034847623E+02 -0.16432515794E+03 -0.11936765766E+03  0.20825609817E+03  0.00000000000E+00 0. -1.
        -11    1    5    5    0    0 -0.26014781589E+03 -0.49156909902E+03 -0.25781474968E+03  0.61301346671E+03  0.00000000000E+00 0.  1.
          3    1    6    6  503    0  0.10114343957E+03  0.31385699669E+02  0.16155279382E+02  0.10712632993E+03  0.00000000000E+00 0. -1.
         -3    1    6    6    0  503  0.22533367863E+03 -0.21172041932E+02 -0.65774605212E+02  0.23569009478E+03  0.00000000000E+00 0.  1.
<mgrwt>
<rscale>  0 0.19526000E+04</rscale>
<asrwt>0</asrwt>
<pdfrwt beam="1">  1        2 0.32712080E+00 0.19526000E+04</pdfrwt>
<pdfrwt beam="2">  1       -1 0.68965471E-01 0.19526000E+04</pdfrwt>
<totfact> 0.12830828E+01</totfact>
</mgrwt>
</event>
<event>
12    6  0.1627636E-007  0.1290821E+04  0.7818608E-02  0.9036876E-01
          2   -1    0    0  501    0  0.00000000000E+00  0.00000000000E+00  0.11110380514E+04  0.11110380514E+04  0.00000000000E+00 0. -1.
         -1   -1    0    0    0  501 -0.00000000000E+00 -0.00000000000E+00 -0.37492376323E+03  0.37492376323E+03  0.00000000000E+00 0.  1.
         24    2    1    2    0    0  0.25279633001E+02 -0.26545517731E+03  0.39783010187E+03  0.48553206475E+03  0.79794015691E+02 0.  0.
        254    2    1    2    0    0 -0.25279633001E+02  0.26545517731E+03  0.33828418629E+03  0.10004297499E+04  0.90294960143E+03 0.  0.
         23    2    4    4    0    0 -0.11921000750E+03  0.37638092226E+03 -0.18752477351E+03  0.44724076384E+03  0.94789955306E+02 0.  0.
         23    2    4    4    0    0  0.93930374501E+02 -0.11092574495E+03  0.52580895980E+03  0.55318898603E+03  0.91736339111E+02 0.  0.
          4    1    3    3  502    0 -0.12942877270E+02 -0.16972113769E+03  0.29066505675E+03  0.33683669317E+03  0.00000000000E+00 0. -1.
         -3    1    3    3    0  502  0.38222510271E+02 -0.95734039615E+02  0.10716504512E+03  0.14869537158E+03  0.00000000000E+00 0.  1.
         11    1    5    5    0    0 -0.13136173029E+03  0.34119740055E+03 -0.15253619065E+03  0.39615509561E+03  0.00000000000E+00 0.  1.
        -11    1    5    5    0    0  0.12151722788E+02  0.35183521714E+02 -0.34988582862E+02  0.51085668221E+02  0.00000000000E+00 0. -1.
          1    1    6    6  503    0 -0.25806211675E+01 -0.28489653129E+02  0.30250678456E+02  0.41634402699E+02  0.00000000000E+00 0. -1.
         -1    1    6    6    0  503  0.96510995668E+02 -0.82436091822E+02  0.49555828135E+03  0.51155458333E+03  0.00000000000E+00 0.  1.
<mgrwt>
<rscale>  0 0.12908208E+04</rscale>
<asrwt>0</asrwt>
<pdfrwt beam="1">  1        2 0.17092893E+00 0.12908208E+04</pdfrwt>
<pdfrwt beam="2">  1       -1 0.57680580E-01 0.12908208E+04</pdfrwt>
<totfact> 0.73027389E+01</totfact>
</mgrwt>
</event>
<event>
12    6  0.1627636E-007  0.1616436E+04  0.7818608E-02  0.8810514E-01
          2   -1    0    0  501    0  0.00000000000E+00  0.00000000000E+00  0.13327969977E+04  0.13327969977E+04  0.00000000000E+00 0. -1.
         -1   -1    0    0    0  501 -0.00000000000E+00 -0.00000000000E+00 -0.49010967887E+03  0.49010967887E+03  0.00000000000E+00 0.  1.
         24    2    1    2    0    0  0.16328521452E+03  0.42999280236E+03 -0.76931714226E+02  0.47314593938E+03  0.79954486673E+02 0.  0.
        254    2    1    2    0    0 -0.16328521452E+03 -0.42999280236E+03  0.91961903307E+03  0.13497607372E+04  0.87441352366E+03 0.  0.
         23    2    4    4    0    0  0.13173636004E+03 -0.28640541745E+03 -0.40892119816E+02  0.33055314015E+03  0.90612809791E+02 0.  0.
         23    2    4    4    0    0 -0.29502157455E+03 -0.14358738491E+03  0.96051115289E+03  0.10192075971E+04  0.92452066074E+02 0.  0.
          4    1    3    3  502    0  0.28008344216E+02  0.10584955106E+03  0.13850233548E+02  0.11036495719E+03  0.00000000000E+00 0. -1.
         -3    1    3    3    0  502  0.13527687030E+03  0.32414325130E+03 -0.90781947774E+02  0.36278098219E+03  0.00000000000E+00 0.  1.
         11    1    5    5    0    0  0.14561021797E+03 -0.25474225815E+03 -0.37797039502E+02  0.29584551688E+03  0.00000000000E+00 0.  1.
        -11    1    5    5    0    0 -0.13873857929E+02 -0.31663159306E+02 -0.30950803138E+01  0.34707623272E+02  0.00000000000E+00 0. -1.
          3    1    6    6  503    0 -0.66125891133E+01 -0.25757090776E+02  0.46619202746E+02  0.53670328160E+02  0.00000000000E+00 0. -1.
         -3    1    6    6    0  503 -0.28840898544E+03 -0.11783029413E+03  0.91389195014E+03  0.96553726890E+03  0.00000000000E+00 0.  1.
<mgrwt>
<rscale>  0 0.16164365E+04</rscale>
<asrwt>0</asrwt>
<pdfrwt beam="1">  1        2 0.20504569E+00 0.16164365E+04</pdfrwt>
<pdfrwt beam="2">  1       -1 0.75401489E-01 0.16164365E+04</pdfrwt>
<totfact> 0.30537608E+01</totfact>
</mgrwt>
</event>
<event>
12    6  0.1813460E-007  0.1855016E+04  0.7818608E-02  0.8677578E-01
         -1   -1    0    0    0  501 -0.00000000000E+00  0.00000000000E+00  0.56713096727E+03  0.56713096727E+03  0.00000000000E+00 0.  1.
          2   -1    0    0  501    0  0.00000000000E+00 -0.00000000000E+00 -0.15168824245E+04  0.15168824245E+04  0.00000000000E+00 0. -1.
         24    2    1    2    0    0  0.28101895706E+03 -0.38208387228E+03 -0.92566795633E+03  0.10432707512E+04  0.81197015544E+02 0.  0.
        254    2    1    2    0    0 -0.28101895706E+03  0.38208387228E+03 -0.24083500901E+02  0.10407426405E+04  0.92606991589E+03 0.  0.
         23    2    4    4    0    0  0.25844921741E+03  0.21726156235E+03  0.22738103554E+03  0.41648139982E+03  0.88068363349E+02 0.  0.
         23    2    4    4    0    0 -0.53946817447E+03  0.16482230994E+03 -0.25146453644E+03  0.62426124071E+03  0.90969107128E+02 0.  0.
          4    1    3    3  502    0  0.28077410541E+03 -0.36685295852E+03 -0.86401458975E+03  0.97976344223E+03  0.00000000000E+00 0. -1.
         -3    1    3    3    0  502  0.24485165170E+00 -0.15230913769E+02 -0.61653366585E+02  0.63507309011E+02  0.00000000000E+00 0.  1.
         11    1    5    5    0    0  0.23748030387E+03  0.21195239095E+03  0.23259061961E+03  0.39423230092E+03  0.00000000000E+00 0. -1.
        -11    1    5    5    0    0  0.20968913535E+02  0.53091713949E+01 -0.52095840722E+01  0.22249098901E+02  0.00000000000E+00 0.  1.
          4    1    6    6  503    0 -0.51459581219E+03  0.13953147931E+03 -0.21977829513E+03  0.57669782612E+03  0.00000000000E+00 0. -1.
         -4    1    6    6    0  503 -0.24872362278E+02  0.25290830627E+02 -0.31686241316E+02  0.47563414594E+02  0.00000000000E+00 0.  1.
<mgrwt>
<rscale>  0 0.18550159E+04</rscale>
<asrwt>0</asrwt>
<pdfrwt beam="1">  1        2 0.23336653E+00 0.18550159E+04</pdfrwt>
<pdfrwt beam="2">  1       -1 0.87250917E-01 0.18550159E+04</pdfrwt>
<totfact> 0.17199412E+01</totfact>
</mgrwt>
</event>
<event>
12    6  0.1627636E-007  0.2612400E+04  0.7818608E-02  0.8364001E-01
         -1   -1    0    0    0  501 -0.00000000000E+00  0.00000000000E+00  0.11008771991E+04  0.11008771991E+04  0.00000000000E+00 0.  1.
          2   -1    0    0  501    0  0.00000000000E+00 -0.00000000000E+00 -0.15498169391E+04  0.15498169391E+04  0.00000000000E+00 0. -1.
         24    2    1    2    0    0 -0.48362122259E+03 -0.80496842653E+03  0.48787960149E+03  0.10635655528E+04  0.10621452278E+03 0.  0.
        254    2    1    2    0    0  0.48362122259E+03  0.80496842653E+03 -0.93681934147E+03  0.15871285855E+04  0.87148322628E+03 0.  0.
         23    2    4    4    0    0 -0.11748244566E+02  0.70290478399E+03 -0.76862549714E+03  0.10456807834E+04  0.91923823458E+02 0.  0.
         23    2    4    4    0    0  0.49536946716E+03  0.10206364254E+03 -0.16819384432E+03  0.54144780208E+03  0.95229496419E+02 0.  0.
          4    1    3    3  502    0 -0.45069058000E+02 -0.31455377181E+02  0.17808750594E+02  0.57773803235E+02  0.00000000000E+00 0. -1.
         -3    1    3    3    0  502 -0.43855216459E+03 -0.77351304935E+03  0.47007085089E+03  0.10057917495E+04  0.00000000000E+00 0.  1.
         11    1    5    5    0    0 -0.30262623860E+02  0.52637101422E+03 -0.62245131210E+03  0.81573764591E+03  0.00000000000E+00 0. -1.
        -11    1    5    5    0    0  0.18514379294E+02  0.17653376977E+03 -0.14617418504E+03  0.22994313750E+03  0.00000000000E+00 0.  1.
          1    1    6    6  503    0  0.36630806210E+03  0.11726272324E+03 -0.13007333558E+03  0.40601873756E+03  0.00000000000E+00 0. -1.
         -1    1    6    6    0  503  0.12906140506E+03 -0.15199080703E+02 -0.38120508743E+02  0.13542906452E+03  0.00000000000E+00 0.  1.
<mgrwt>
<rscale>  0 0.26123998E+04</rscale>
<asrwt>0</asrwt>
<pdfrwt beam="1">  1        2 0.23843337E+00 0.26123998E+04</pdfrwt>
<pdfrwt beam="2">  1       -1 0.16936572E+00 0.26123998E+04</pdfrwt>
<totfact> 0.29783282E+00</totfact>
</mgrwt>
</event>
<event>
12    6  0.1627636E-007  0.1748820E+04  0.7818608E-02  0.8734000E-01
         -1   -1    0    0    0  501 -0.00000000000E+00  0.00000000000E+00  0.40249437868E+03  0.40249437868E+03  0.00000000000E+00 0.  1.
          2   -1    0    0  501    0  0.00000000000E+00 -0.00000000000E+00 -0.18996368134E+04  0.18996368134E+04  0.00000000000E+00 0. -1.
         24    2    1    2    0    0 -0.40351399846E+03 -0.33566181911E+03 -0.74920605119E+02  0.53620644526E+03  0.80074035143E+02 0.  0.
        254    2    1    2    0    0  0.40351399846E+03  0.33566181911E+03 -0.14222218296E+04  0.17659247469E+04  0.90569469201E+03 0.  0.
         23    2    4    4    0    0  0.60520465441E+03 -0.56086140433E+01 -0.10447886487E+04  0.12109653527E+04  0.92464234308E+02 0.  0.
         23    2    4    4    0    0 -0.20169065594E+03  0.34127043315E+03 -0.37743318094E+03  0.55495939421E+03  0.91539575641E+02 0.  0.
          2    1    3    3  502    0 -0.16430957558E+03 -0.11311014705E+03 -0.63284925296E+02  0.20927619014E+03  0.00000000000E+00 0. -1.
         -1    1    3    3    0  502 -0.23920442289E+03 -0.22255167206E+03 -0.11635679823E+02  0.32693025512E+03  0.00000000000E+00 0.  1.
         11    1    5    5    0    0  0.13505476115E+03  0.35626869861E+02 -0.21622690721E+03  0.25741627331E+03  0.00000000000E+00 0. -1.
        -11    1    5    5    0    0  0.47014989325E+03 -0.41235483904E+02 -0.82856174150E+03  0.95354907935E+03  0.00000000000E+00 0.  1.
          3    1    6    6  503    0 -0.55440289510E+02  0.44356251214E+02 -0.36653351828E+02  0.79903510079E+02  0.00000000000E+00 0. -1.
         -3    1    6    6    0  503 -0.14625036643E+03  0.29691418193E+03 -0.34077982911E+03  0.47505588413E+03  0.00000000000E+00 0.  1.
<mgrwt>
<rscale>  0 0.17488203E+04</rscale>
<asrwt>0</asrwt>
<pdfrwt beam="1">  1        2 0.29225181E+00 0.17488203E+04</pdfrwt>
<pdfrwt beam="2">  1       -1 0.61922213E-01 0.17488203E+04</pdfrwt>
<totfact> 0.21695637E+01</totfact>
</mgrwt>
</event>
<event>
12    6  0.1627636E-007  0.2165237E+04  0.7818608E-02  0.8533038E-01
         -1   -1    0    0    0  501 -0.00000000000E+00  0.00000000000E+00  0.38391804473E+03  0.38391804473E+03  0.00000000000E+00 0.  1.
          2   -1    0    0  501    0  0.00000000000E+00 -0.00000000000E+00 -0.30528976134E+04  0.30528976134E+04  0.00000000000E+00 0. -1.
         24    2    1    2    0    0 -0.56727907336E+03 -0.48006968367E+03 -0.17120691482E+04  0.18683320416E+04  0.84919970971E+02 0.  0.
        254    2    1    2    0    0  0.56727907336E+03  0.48006968367E+03 -0.95691042050E+03  0.15684836165E+04  0.99608777429E+03 0.  0.
         23    2    4    4    0    0  0.11273764608E+02 -0.11041868666E+03  0.14069003175E+03  0.20067896573E+03  0.90327061944E+02 0.  0.
         23    2    4    4    0    0  0.55600530875E+03  0.59048837033E+03 -0.10976004523E+04  0.13678046508E+04  0.91347638120E+02 0.  0.
          2    1    3    3  502    0 -0.18270190440E+03 -0.15828681975E+03 -0.65993412612E+03  0.70281416747E+03  0.00000000000E+00 0. -1.
         -1    1    3    3    0  502 -0.38457716896E+03 -0.32178286392E+03 -0.10521350220E+04  0.11655178742E+04  0.00000000000E+00 0.  1.
         11    1    5    5    0    0  0.28824534307E+02 -0.11978783175E+03  0.12132918858E+03  0.17291833452E+03  0.00000000000E+00 0. -1.
        -11    1    5    5    0    0 -0.17550769699E+02  0.93691450854E+01  0.19360843176E+02  0.27760631210E+02  0.00000000000E+00 0.  1.
          4    1    6    6  503    0  0.17717889045E+03  0.24886500293E+03 -0.43628874834E+03  0.53261057146E+03  0.00000000000E+00 0. -1.
         -4    1    6    6    0  503  0.37882641830E+03  0.34162336741E+03 -0.66131170392E+03  0.83519407930E+03  0.00000000000E+00 0.  1.
<mgrwt>
<rscale>  0 0.21652367E+04</rscale>
<asrwt>0</asrwt>
<pdfrwt beam="1">  1        2 0.46967656E+00 0.21652367E+04</pdfrwt>
<pdfrwt beam="2">  1       -1 0.59064314E-01 0.21652367E+04</pdfrwt>
<totfact> 0.48947278E+00</totfact>
</mgrwt>
</event>
<event>
12    6  0.1627636E-007  0.2702430E+04  0.7818608E-02  0.8334217E-01
         -1   -1    0    0    0  501 -0.00000000000E+00  0.00000000000E+00  0.17818705585E+04  0.17818705585E+04  0.00000000000E+00 0.  1.
          2   -1    0    0  501    0  0.00000000000E+00 -0.00000000000E+00 -0.10246434094E+04  0.10246434094E+04  0.00000000000E+00 0. -1.
         24    2    1    2    0    0 -0.50025339682E+03  0.10662783548E+04  0.58767353245E+03  0.13186752805E+04  0.79632428631E+02 0.  0.
        254    2    1    2    0    0  0.50025339682E+03 -0.10662783548E+04  0.16955361666E+03  0.14878386874E+04  0.89314754652E+03 0.  0.
         23    2    4    4    0    0  0.59241139621E+03 -0.55438532849E+03  0.40417173937E+03  0.90998740613E+03  0.80174370045E+02 0.  0.
         23    2    4    4    0    0 -0.92157999394E+02 -0.51189302636E+03 -0.23461812271E+03  0.57785128130E+03  0.91317427188E+02 0.  0.
          2    1    3    3  502    0 -0.34974497182E+02  0.12495994103E+03  0.79040886859E+02  0.15193967261E+03  0.00000000000E+00 0. -1.
         -1    1    3    3    0  502 -0.46527889964E+03  0.94131841381E+03  0.50863264559E+03  0.11667356079E+04  0.00000000000E+00 0.  1.
         11    1    5    5    0    0  0.58984949709E+03 -0.55087989020E+03  0.40786022843E+03  0.90429035635E+03  0.00000000000E+00 0.  1.
        -11    1    5    5    0    0  0.25618991206E+01 -0.35054382873E+01 -0.36884890634E+01  0.56970497857E+01  0.00000000000E+00 0. -1.
          1    1    6    6  503    0 -0.75147037987E+02 -0.29144655572E+03 -0.17777327483E+03  0.34955902134E+03  0.00000000000E+00 0. -1.
         -1    1    6    6    0  503 -0.17010961407E+02 -0.22044647064E+03 -0.56844847881E+02  0.22829225996E+03  0.00000000000E+00 0.  1.
<mgrwt>
<rscale>  0 0.27024300E+04</rscale>
<asrwt>0</asrwt>
<pdfrwt beam="1">  1        2 0.15763745E+00 0.27024300E+04</pdfrwt>
<pdfrwt beam="2">  1       -1 0.27413393E+00 0.27024300E+04</pdfrwt>
<totfact> 0.11796014E+00</totfact>
</mgrwt>
</event>
<event>
12    6  0.1627636E-007  0.2459170E+04  0.7818608E-02  0.8417677E-01
          2   -1    0    0  501    0  0.00000000000E+00  0.00000000000E+00  0.23770915575E+04  0.23770915575E+04  0.00000000000E+00 0. -1.
         -1   -1    0    0    0  501 -0.00000000000E+00 -0.00000000000E+00 -0.63602073978E+03  0.63602073978E+03  0.00000000000E+00 0.  1.
         24    2    1    2    0    0 -0.87223732798E+03 -0.53692982711E+03  0.40996383418E+03  0.11061383830E+04  0.79876037683E+02 0.  0.
        254    2    1    2    0    0  0.87223732798E+03  0.53692982711E+03  0.13311069836E+04  0.19069739143E+04  0.90311245848E+03 0.  0.
         23    2    4    4    0    0 -0.11798223746E+03 -0.10104168239E+03  0.12905157599E+03  0.22150514447E+03  0.90999944107E+02 0.  0.
         23    2    4    4    0    0  0.99021956544E+03  0.63797150950E+03  0.12020554076E+04  0.16854687699E+04  0.91243282359E+02 0.  0.
          4    1    3    3  502    0 -0.72547155780E+03 -0.43246362906E+03  0.30709409087E+03  0.89868823976E+03  0.00000000000E+00 0. -1.
         -3    1    3    3    0  502 -0.14676577018E+03 -0.10446619805E+03  0.10286974331E+03  0.20745014322E+03  0.00000000000E+00 0.  1.
         11    1    5    5    0    0  0.40675499159E+01 -0.30256706723E+02  0.34840505070E+00  0.30530880271E+02  0.00000000000E+00 0.  1.
        -11    1    5    5    0    0 -0.12204978737E+03 -0.70784975663E+02  0.12870317094E+03  0.19097426420E+03  0.00000000000E+00 0. -1.
          3    1    6    6  503    0  0.87699063524E+03  0.55428192573E+03  0.10155805206E+04  0.14518074326E+04  0.00000000000E+00 0. -1.
         -3    1    6    6    0  503  0.11322893019E+03  0.83689583770E+02  0.18647488693E+03  0.23366133724E+03  0.00000000000E+00 0.  1.
<mgrwt>
<rscale>  0 0.24591702E+04</rscale>
<asrwt>0</asrwt>
<pdfrwt beam="1">  1        2 0.36570639E+00 0.24591702E+04</pdfrwt>
<pdfrwt beam="2">  1       -1 0.97849346E-01 0.24591702E+04</pdfrwt>
<totfact> 0.41768095E+00</totfact>
</mgrwt>
</event>
<event>
12    6  0.1627636E-007  0.1126920E+04  0.7818608E-02  0.9179343E-01
          2   -1    0    0  501    0  0.00000000000E+00  0.00000000000E+00  0.86294773881E+03  0.86294773881E+03  0.00000000000E+00 0. -1.
         -1   -1    0    0    0  501 -0.00000000000E+00 -0.00000000000E+00 -0.36791039508E+03  0.36791039508E+03  0.00000000000E+00 0.  1.
         24    2    1    2    0    0  0.13132927951E+03  0.14005487933E+03  0.68829762083E+02  0.21863947660E+03  0.78758718240E+02 0.  0.
        254    2    1    2    0    0 -0.13132927951E+03 -0.14005487933E+03  0.42620758165E+03  0.10122186573E+04  0.89781454578E+03 0.  0.
         23    2    4    4    0    0 -0.26808410065E+03  0.61434576156E+02  0.62236914577E+03  0.68616880249E+03  0.88549306880E+02 0.  0.
         23    2    4    4    0    0  0.13675482113E+03 -0.20148945548E+03 -0.19616156412E+03  0.32604985479E+03  0.92354029666E+02 0.  0.
          4    1    3    3  502    0  0.45638601646E+02  0.10437546926E+03  0.47342155302E+02  0.12336288020E+03  0.00000000000E+00 0. -1.
         -3    1    3    3    0  502  0.85690677868E+02  0.35679410070E+02  0.21487606781E+02  0.95276596400E+02  0.00000000000E+00 0.  1.
         11    1    5    5    0    0 -0.12972636398E+03  0.12717577844E+02  0.19700769594E+03  0.23622594811E+03  0.00000000000E+00 0. -1.
        -11    1    5    5    0    0 -0.13835773666E+03  0.48716998312E+02  0.42536144982E+03  0.44994285439E+03  0.00000000000E+00 0.  1.
          4    1    6    6  503    0  0.13053285307E+03 -0.14875434395E+03 -0.18677796073E+03  0.27212623392E+03  0.00000000000E+00 0.  1.
         -4    1    6    6    0  503  0.62219680665E+01 -0.52735111530E+02 -0.93836033904E+01  0.53923620866E+02  0.00000000000E+00 0. -1.
<mgrwt>
<rscale>  0 0.11269205E+04</rscale>
<asrwt>0</asrwt>
<pdfrwt beam="1">  1        2 0.13276119E+00 0.11269205E+04</pdfrwt>
<pdfrwt beam="2">  1       -1 0.56601599E-01 0.11269205E+04</pdfrwt>
<totfact> 0.11109428E+02</totfact>
</mgrwt>
</event>
<event>
12    6  0.1627636E-007  0.1259261E+04  0.7818608E-02  0.9062510E-01
          2   -1    0    0  501    0  0.00000000000E+00  0.00000000000E+00  0.19613467650E+04  0.19613467650E+04  0.00000000000E+00 0. -1.
         -1   -1    0    0    0  501 -0.00000000000E+00 -0.00000000000E+00 -0.20212377884E+03  0.20212377884E+03  0.00000000000E+00 0.  1.
         24    2    1    2    0    0  0.25243687490E+03  0.16563433854E+03  0.38320852605E+03  0.49462294617E+03  0.81510579241E+02 0.  0.
        254    2    1    2    0    0 -0.25243687490E+03 -0.16563433854E+03  0.13760144601E+04  0.16688475977E+04  0.89469402587E+03 0.  0.
         23    2    4    4    0    0 -0.66095452274E+02 -0.45933863471E+03  0.11509392971E+04  0.12443856592E+04  0.92053317225E+02 0.  0.
         23    2    4    4    0    0 -0.18634142262E+03  0.29370429618E+03  0.22507516301E+03  0.42446193842E+03  0.92324258912E+02 0.  0.
          2    1    3    3  502    0  0.19033784152E+03  0.10360585980E+03  0.31994132144E+03  0.38642608253E+03  0.00000000000E+00 0. -1.
         -1    1    3    3    0  502  0.62099033379E+02  0.62028478737E+02  0.63267204614E+02  0.10819686364E+03  0.00000000000E+00 0.  1.
         11    1    5    5    0    0 -0.15672156754E+02 -0.16015836305E+02  0.10309789345E+03  0.10550497213E+03  0.00000000000E+00 0.  1.
        -11    1    5    5    0    0 -0.50423295520E+02 -0.44332279841E+03  0.10478414036E+04  0.11388806871E+04  0.00000000000E+00 0. -1.
          1    1    6    6  503    0 -0.18698053249E+03  0.29334691044E+03  0.23158801643E+03  0.41790805059E+03  0.00000000000E+00 0. -1.
         -1    1    6    6    0  503  0.63910986272E+00  0.35738573903E+00 -0.65128534219E+01  0.65538878292E+01  0.00000000000E+00 0.  1.
<mgrwt>
<rscale>  0 0.12592614E+04</rscale>
<asrwt>0</asrwt>
<pdfrwt beam="1">  1        2 0.30174564E+00 0.12592614E+04</pdfrwt>
<pdfrwt beam="2">  1       -1 0.31095967E-01 0.12592614E+04</pdfrwt>
<totfact> 0.75354680E+01</totfact>
</mgrwt>
</event>
<event>
12    6  0.1627636E-007  0.1421263E+04  0.7818608E-02  0.8938569E-01
         -1   -1    0    0    0  501 -0.00000000000E+00  0.00000000000E+00  0.11658835326E+04  0.11658835326E+04  0.00000000000E+00 0.  1.
          2   -1    0    0  501    0  0.00000000000E+00 -0.00000000000E+00 -0.43314572710E+03  0.43314572710E+03  0.00000000000E+00 0. -1.
         24    2    1    2    0    0  0.13637284857E+03 -0.34002139879E+03 -0.11954659683E+02  0.37518414071E+03  0.80050734474E+02 0.  0.
        254    2    1    2    0    0 -0.13637284857E+03  0.34002139879E+03  0.74469246514E+03  0.12238451189E+04  0.89945422454E+03 0.  0.
         23    2    4    4    0    0 -0.46953022888E+03  0.36884088554E+03  0.34917858764E+03  0.69793662935E+03  0.93207391554E+02 0.  0.
         23    2    4    4    0    0  0.33315738031E+03 -0.28819486745E+02  0.39551387751E+03  0.52590848959E+03  0.91236556570E+02 0.  0.
          4    1    3    3  502    0 -0.70494582415E+01 -0.12159765291E+02 -0.10121066501E+02  0.17320240776E+02  0.00000000000E+00 0. -1.
         -3    1    3    3    0  502  0.14342230681E+03 -0.32786163350E+03 -0.18335931826E+01  0.35786389994E+03  0.00000000000E+00 0.  1.
         11    1    5    5    0    0 -0.40279097795E+03  0.33176760094E+03  0.33549059894E+03  0.62037428616E+03  0.00000000000E+00 0.  1.
        -11    1    5    5    0    0 -0.66739250933E+02  0.37073284601E+02  0.13687988695E+02  0.77562343187E+02  0.00000000000E+00 0. -1.
          1    1    6    6  503    0 -0.45581368737E+01 -0.44432273730E+01  0.16465008446E+02  0.17652631089E+02  0.00000000000E+00 0. -1.
         -1    1    6    6    0  503  0.33771551718E+03 -0.24376259372E+02  0.37904886906E+03  0.50825585850E+03  0.00000000000E+00 0.  1.
<mgrwt>
<rscale>  0 0.14212635E+04</rscale>
<asrwt>0</asrwt>
<pdfrwt beam="1">  1        2 0.66637805E-01 0.14212635E+04</pdfrwt>
<pdfrwt beam="2">  1       -1 0.17936670E+00 0.14212635E+04</pdfrwt>
<totfact> 0.16982715E+01</totfact>
</mgrwt>
</event>
<event>
12    6  0.1627636E-007  0.2313938E+04  0.7818608E-02  0.8472446E-01
         -1   -1    0    0    0  501 -0.00000000000E+00  0.00000000000E+00  0.11641465059E+04  0.11641465059E+04  0.00000000000E+00 0.  1.
          2   -1    0    0  501    0  0.00000000000E+00 -0.00000000000E+00 -0.11498360466E+04  0.11498360466E+04  0.00000000000E+00 0. -1.
         24    2    1    2    0    0  0.44337231450E+03  0.50319558905E+03  0.71437387515E+03  0.98308607352E+03  0.79645366142E+02 0.  0.
        254    2    1    2    0    0 -0.44337231450E+03 -0.50319558905E+03 -0.70006341588E+03  0.13308964789E+04  0.91181787728E+03 0.  0.
         23    2    4    4    0    0 -0.67197205864E+02 -0.61227081836E+03 -0.68764726475E+03  0.92833384013E+03  0.97744250603E+02 0.  0.
         23    2    4    4    0    0 -0.37617510863E+03  0.10907522930E+03 -0.12416151134E+02  0.40256263882E+03  0.92181339571E+02 0.  0.
          2    1    3    3  502    0  0.14167543842E+03  0.13686802845E+03  0.25876057127E+03  0.32521042466E+03  0.00000000000E+00 0. -1.
         -1    1    3    3    0  502  0.30169687608E+03  0.36632756060E+03  0.45561330388E+03  0.65787564886E+03  0.00000000000E+00 0.  1.
         11    1    5    5    0    0 -0.17212539870E+02 -0.11512310206E+02 -0.26116565234E+02  0.33329863406E+02  0.00000000000E+00 0. -1.
        -11    1    5    5    0    0 -0.49984665994E+02 -0.60075850815E+03 -0.66153069951E+03  0.89500397672E+03  0.00000000000E+00 0.  1.
          1    1    6    6  503    0 -0.49376395568E+02 -0.98083498921E+01  0.18050986042E+02  0.53479624755E+02  0.00000000000E+00 0. -1.
         -1    1    6    6    0  503 -0.32679871306E+03  0.11888357920E+03 -0.30467137176E+02  0.34908301407E+03  0.00000000000E+00 0.  1.
<mgrwt>
<rscale>  0 0.23139383E+04</rscale>
<asrwt>0</asrwt>
<pdfrwt beam="1">  1        2 0.17689785E+00 0.23139383E+04</pdfrwt>
<pdfrwt beam="2">  1       -1 0.17909946E+00 0.23139383E+04</pdfrwt>
<totfact> 0.44285611E+00</totfact>
</mgrwt>
</event>
<event>
12    6  0.1627636E-007  0.3198105E+04  0.7818608E-02  0.8189318E-01
          2   -1    0    0  501    0  0.00000000000E+00  0.00000000000E+00  0.19748487848E+04  0.19748487848E+04  0.00000000000E+00 0. -1.
         -1   -1    0    0    0  501 -0.00000000000E+00 -0.00000000000E+00 -0.12947669666E+04  0.12947669666E+04  0.00000000000E+00 0.  1.
         24    2    1    2    0    0 -0.13797919981E+04  0.29151951630E+03  0.73903502209E+03  0.15941050155E+04  0.78666701997E+02 0.  0.
        254    2    1    2    0    0  0.13797919981E+04 -0.29151951630E+03 -0.58953203907E+02  0.16755107359E+04  0.90280183836E+03 0.  0.
         23    2    4    4    0    0  0.79352306983E+03 -0.56503914101E+03  0.14964480113E+03  0.98967389409E+03  0.90070843911E+02 0.  0.
         23    2    4    4    0    0  0.58626892831E+03  0.27351962471E+03 -0.20859800504E+03  0.68583684180E+03  0.91295150277E+02 0.  0.
          2    1    3    3  502    0 -0.12817156873E+04  0.25442230154E+03  0.69838521389E+03  0.14816435865E+04  0.00000000000E+00 0. -1.
         -1    1    3    3    0  502 -0.98076310848E+02  0.37097214759E+02  0.40649808204E+02  0.11246142894E+03  0.00000000000E+00 0.  1.
         11    1    5    5    0    0  0.53037052022E+03 -0.40400303904E+03  0.65726490160E+02  0.66994874116E+03  0.00000000000E+00 0.  1.
        -11    1    5    5    0    0  0.26315254961E+03 -0.16103610197E+03  0.83918310972E+02  0.31972515293E+03  0.00000000000E+00 0. -1.
          3    1    6    6  503    0  0.11994999000E+03  0.28823164031E+02 -0.67578727223E+02  0.14066150596E+03  0.00000000000E+00 0. -1.
         -3    1    6    6    0  503  0.46631893831E+03  0.24469646068E+03 -0.14101927781E+03  0.54517533585E+03  0.00000000000E+00 0.  1.
<mgrwt>
<rscale>  0 0.31981050E+04</rscale>
<asrwt>0</asrwt>
<pdfrwt beam="1">  1        2 0.30382289E+00 0.31981050E+04</pdfrwt>
<pdfrwt beam="2">  1       -1 0.19919492E+00 0.31981050E+04</pdfrwt>
<totfact> 0.10077177E+00</totfact>
</mgrwt>
</event>
<event>
12    6  0.1627636E-007  0.1352806E+04  0.7818608E-02  0.8988707E-01
         -1   -1    0    0    0  501 -0.00000000000E+00  0.00000000000E+00  0.81430729960E+03  0.81430729960E+03  0.00000000000E+00 0.  1.
          2   -1    0    0  501    0  0.00000000000E+00 -0.00000000000E+00 -0.56185267272E+03  0.56185267272E+03  0.00000000000E+00 0. -1.
         24    2    1    2    0    0  0.39642092301E+02 -0.41696770600E+02  0.44866039174E+03  0.46108695812E+03  0.89414314697E+02 0.  0.
        254    2    1    2    0    0 -0.39642092301E+02  0.41696770600E+02 -0.19620576486E+03  0.91507301420E+03  0.89193710709E+03 0.  0.
         23    2    4    4    0    0 -0.15184411724E+03  0.91102679524E+02  0.32009519425E+03  0.37660754289E+03  0.89531970956E+02 0.  0.
         23    2    4    4    0    0  0.11220202494E+03 -0.49405908924E+02 -0.51630095910E+03  0.53846547131E+03  0.91368184756E+02 0.  0.
          4    1    3    3  502    0  0.53435557701E+01 -0.48657003105E+02  0.10730811578E+03  0.11794528075E+03  0.00000000000E+00 0. -1.
         -3    1    3    3    0  502  0.34298536531E+02  0.69602325044E+01  0.34135227596E+03  0.34314167737E+03  0.00000000000E+00 0.  1.
         11    1    5    5    0    0 -0.19858794254E+02  0.51582877861E+02  0.55711353295E+02  0.78478786201E+02  0.00000000000E+00 0. -1.
        -11    1    5    5    0    0 -0.13198532299E+03  0.39519801663E+02  0.26438384095E+03  0.29812875669E+03  0.00000000000E+00 0.  1.
          3    1    6    6  503    0  0.90558437229E+02 -0.12024417351E+02 -0.20831917254E+03  0.22746932719E+03  0.00000000000E+00 0. -1.
         -3    1    6    6    0  503  0.21643587714E+02 -0.37381491573E+02 -0.30798178657E+03  0.31099614412E+03  0.00000000000E+00 0.  1.
<mgrwt>
<rscale>  0 0.13528056E+04</rscale>
<asrwt>0</asrwt>
<pdfrwt beam="1">  1        2 0.86438873E-01 0.13528056E+04</pdfrwt>
<pdfrwt beam="2">  1       -1 0.12527805E+00 0.13528056E+04</pdfrwt>
<totfact> 0.33354977E+01</totfact>
</mgrwt>
</event>
<event>
12    6  0.1627636E-007  0.1785552E+04  0.7818608E-02  0.8714020E-01
         -1   -1    0    0    0  501 -0.00000000000E+00  0.00000000000E+00  0.29423813260E+03  0.29423813260E+03  0.00000000000E+00 0.  1.
          2   -1    0    0  501    0  0.00000000000E+00 -0.00000000000E+00 -0.27088579809E+04  0.27088579809E+04  0.00000000000E+00 0. -1.
         24    2    1    2    0    0  0.22934431451E+03  0.39755818662E+03 -0.98790026839E+02  0.47622437809E+03  0.79867781606E+02 0.  0.
        254    2    1    2    0    0 -0.22934431451E+03 -0.39755818662E+03 -0.23158298215E+04  0.25268717354E+04  0.90075617061E+03 0.  0.
         23    2    4    4    0    0  0.14524371809E+03 -0.38971140044E+03 -0.44233520510E+03  0.61415234313E+03  0.92476773494E+02 0.  0.
         23    2    4    4    0    0 -0.37458803260E+03 -0.78467861822E+01 -0.18734946164E+04  0.19127193923E+04  0.90197726209E+02 0.  0.
          4    1    3    3  502    0  0.60970554994E+02  0.50125580365E+02 -0.27716512575E+02  0.83655169909E+02  0.00000000000E+00 0. -1.
         -3    1    3    3    0  502  0.16837375952E+03  0.34743260625E+03 -0.71073514263E+02  0.39256920818E+03  0.00000000000E+00 0.  1.
         11    1    5    5    0    0  0.11045674844E+03 -0.36950719986E+03 -0.39544887089E+03  0.55237312888E+03  0.00000000000E+00 0. -1.
        -11    1    5    5    0    0  0.34786969644E+02 -0.20204200574E+02 -0.46886334208E+02  0.61779214249E+02  0.00000000000E+00 0.  1.
          2    1    6    6  503    0 -0.34611363620E+03 -0.23489526850E+02 -0.17861823061E+04  0.18195586381E+04  0.00000000000E+00 0. -1.
         -2    1    6    6    0  503 -0.28474396399E+02  0.15642740667E+02 -0.87312310310E+02  0.93160754170E+02  0.00000000000E+00 0.  1.
<mgrwt>
<rscale>  0 0.17855524E+04</rscale>
<asrwt>0</asrwt>
<pdfrwt beam="1">  1        2 0.41674740E+00 0.17855524E+04</pdfrwt>
<pdfrwt beam="2">  1       -1 0.45267403E-01 0.17855524E+04</pdfrwt>
<totfact> 0.13703461E+01</totfact>
</mgrwt>
</event>
<event>
12    6  0.1627636E-007  0.1828806E+04  0.7818608E-02  0.8691129E-01
          2   -1    0    0  501    0  0.00000000000E+00  0.00000000000E+00  0.22595124538E+04  0.22595124538E+04  0.00000000000E+00 0. -1.
         -1   -1    0    0    0  501 -0.00000000000E+00 -0.00000000000E+00 -0.37005021224E+03  0.37005021224E+03  0.00000000000E+00 0.  1.
         24    2    1    2    0    0  0.36904488866E+03  0.11263201943E+03 -0.10663053773E+03  0.40835347647E+03  0.80637389112E+02 0.  0.
        254    2    1    2    0    0 -0.36904488866E+03 -0.11263201943E+03  0.19960927793E+04  0.22212091896E+04  0.89470876749E+03 0.  0.
         23    2    4    4    0    0 -0.11292615831E+03  0.84980191968E+02  0.18434003685E+04  0.18517085353E+04  0.10356462264E+03 0.  0.
         23    2    4    4    0    0 -0.25611873036E+03 -0.19761221140E+03  0.15269241082E+03  0.36950065424E+03  0.92565495893E+02 0.  0.
          4    1    3    3  502    0  0.52596029522E+02  0.47920690515E+02 -0.17150891738E+02  0.73190764365E+02  0.00000000000E+00 0. -1.
         -3    1    3    3    0  502  0.31644885914E+03  0.64711328914E+02 -0.89479645990E+02  0.33516271211E+03  0.00000000000E+00 0.  1.
         11    1    5    5    0    0 -0.69225806747E+02  0.67977542339E+02  0.63225817655E+03  0.63965894068E+03  0.00000000000E+00 0. -1.
        -11    1    5    5    0    0 -0.43700351560E+02  0.17002649629E+02  0.12111421919E+04  0.12120495947E+04  0.00000000000E+00 0.  1.
          3    1    6    6  503    0 -0.14320054777E+03 -0.13025825555E+03  0.43066133116E+02  0.19831364512E+03  0.00000000000E+00 0. -1.
         -3    1    6    6    0  503 -0.11291818259E+03 -0.67353955844E+02  0.10962627771E+03  0.17118700912E+03  0.00000000000E+00 0.  1.
<mgrwt>
<rscale>  0 0.18288062E+04</rscale>
<asrwt>0</asrwt>
<pdfrwt beam="1">  1        2 0.34761729E+00 0.18288062E+04</pdfrwt>
<pdfrwt beam="2">  1       -1 0.56930803E-01 0.18288062E+04</pdfrwt>
<totfact> 0.16017701E+01</totfact>
</mgrwt>
</event>
<event>
12    6  0.1627636E-007  0.1797198E+04  0.7818608E-02  0.8707791E-01
          2   -1    0    0  501    0  0.00000000000E+00  0.00000000000E+00  0.48526546747E+04  0.48526546747E+04  0.00000000000E+00 0. -1.
         -1   -1    0    0    0  501 -0.00000000000E+00 -0.00000000000E+00 -0.16639959155E+03  0.16639959155E+03  0.00000000000E+00 0.  1.
         24    2    1    2    0    0  0.63989979255E+03  0.19902303897E+03  0.16748094320E+04  0.18056849477E+04  0.80184675130E+02 0.  0.
        254    2    1    2    0    0 -0.63989979255E+03 -0.19902303897E+03  0.30114456511E+04  0.32133693186E+04  0.89880785116E+03 0.  0.
         23    2    4    4    0    0  0.79415415376E+02  0.17711628921E+03  0.23652655903E+03  0.32070428735E+03  0.96069967717E+02 0.  0.
         23    2    4    4    0    0 -0.71931520793E+03 -0.37613932818E+03  0.27749190921E+04  0.28926650312E+04  0.91868670368E+02 0.  0.
          4    1    3    3  502    0  0.62515011471E+03  0.20376915093E+03  0.16108850157E+04  0.17399094996E+04  0.00000000000E+00 0. -1.
         -3    1    3    3    0  502  0.14749677842E+02 -0.47461119638E+01  0.63924416283E+02  0.65775448097E+02  0.00000000000E+00 0.  1.
         11    1    5    5    0    0  0.91862384027E+02  0.17016042383E+03  0.18638660480E+03  0.26857630924E+03  0.00000000000E+00 0.  1.
        -11    1    5    5    0    0 -0.12446968651E+02  0.69558653813E+01  0.50139954232E+02  0.52127978114E+02  0.00000000000E+00 0. -1.
          4    1    6    6  503    0 -0.26167244482E+02 -0.78332720568E+01  0.50311841831E+02  0.57248286117E+02  0.00000000000E+00 0. -1.
         -4    1    6    6    0  503 -0.69314796344E+03 -0.36830605612E+03  0.27246072503E+04  0.28354167451E+04  0.00000000000E+00 0.  1.
<mgrwt>
<rscale>  0 0.17971975E+04</rscale>
<asrwt>0</asrwt>
<pdfrwt beam="1">  1        2 0.74656215E+00 0.17971975E+04</pdfrwt>
<pdfrwt beam="2">  1       -1 0.25599941E-01 0.17971975E+04</pdfrwt>
<totfact> 0.77173585E-01</totfact>
</mgrwt>
</event>
<event>
12    6  0.1627636E-007  0.1678039E+04  0.7818608E-02  0.8773989E-01
          2   -1    0    0  501    0  0.00000000000E+00  0.00000000000E+00  0.17800301552E+04  0.17800301552E+04  0.00000000000E+00 0. -1.
         -1   -1    0    0    0  501 -0.00000000000E+00 -0.00000000000E+00 -0.39547302933E+03  0.39547302933E+03  0.00000000000E+00 0.  1.
         24    2    1    2    0    0 -0.37156051112E+03  0.38505052866E+03  0.15563468769E+03  0.56275412696E+03  0.78415102840E+02 0.  0.
        254    2    1    2    0    0  0.37156051112E+03 -0.38505052866E+03  0.12289224382E+04  0.16127490576E+04  0.89687682578E+03 0.  0.
         23    2    4    4    0    0 -0.26514895540E+03  0.17620260634E+02  0.26303434456E+03  0.38500562226E+03  0.91803162355E+02 0.  0.
         23    2    4    4    0    0  0.63670946652E+03 -0.40267078929E+03  0.96588809365E+03  0.12277434353E+04  0.82894054498E+02 0.  0.
          2    1    3    3  502    0 -0.12041446125E+03  0.18006014324E+03  0.60881196710E+02  0.22500626163E+03  0.00000000000E+00 0. -1.
         -1    1    3    3    0  502 -0.25114604987E+03  0.20499038542E+03  0.94753490978E+02  0.33774786532E+03  0.00000000000E+00 0.  1.
         11    1    5    5    0    0 -0.84765948437E+02  0.48477148114E+02  0.80807405114E+02  0.12674832001E+03  0.00000000000E+00 0.  1.
        -11    1    5    5    0    0 -0.18038300696E+03 -0.30856887479E+02  0.18222693944E+03  0.25825730225E+03  0.00000000000E+00 0. -1.
          3    1    6    6  503    0  0.39291489891E+03 -0.20245466192E+03  0.54331464506E+03  0.70040046506E+03  0.00000000000E+00 0. -1.
         -3    1    6    6    0  503  0.24379456761E+03 -0.20021612737E+03  0.42257344859E+03  0.52734297028E+03  0.00000000000E+00 0.  1.
<mgrwt>
<rscale>  0 0.16780392E+04</rscale>
<asrwt>0</asrwt>
<pdfrwt beam="1">  1        2 0.27385079E+00 0.16780392E+04</pdfrwt>
<pdfrwt beam="2">  1       -1 0.60842005E-01 0.16780392E+04</pdfrwt>
<totfact> 0.26330578E+01</totfact>
</mgrwt>
</event>
<event>
12    6  0.1627636E-007  0.1695068E+04  0.7818608E-02  0.8764183E-01
          2   -1    0    0  501    0  0.00000000000E+00  0.00000000000E+00  0.83424512077E+03  0.83424512077E+03  0.00000000000E+00 0. -1.
         -1   -1    0    0    0  501 -0.00000000000E+00 -0.00000000000E+00 -0.86103407079E+03  0.86103407079E+03  0.00000000000E+00 0.  1.
         24    2    1    2    0    0 -0.49457699684E+03 -0.13938395149E+03  0.30356901789E+03  0.60220035267E+03  0.80354367622E+02 0.  0.
        254    2    1    2    0    0  0.49457699684E+03  0.13938395149E+03 -0.33035796791E+03  0.10930788389E+04  0.90644948527E+03 0.  0.
         23    2    4    4    0    0  0.33917922232E+03  0.48999128875E+03 -0.40579676469E+02  0.60412279713E+03  0.90463450978E+02 0.  0.
         23    2    4    4    0    0  0.15539777452E+03 -0.35060733726E+03 -0.28977829144E+03  0.48895604177E+03  0.89624658026E+02 0.  0.
          4    1    3    3  502    0 -0.38975783386E+03 -0.74517415408E+02  0.23253929943E+03  0.45993319083E+03  0.00000000000E+00 0. -1.
         -3    1    3    3    0  502 -0.10481916298E+03 -0.64866536085E+02  0.71029718458E+02  0.14226716183E+03  0.00000000000E+00 0.  1.
         11    1    5    5    0    0  0.20760557513E+02  0.15332489558E+02  0.15010896780E+02  0.29856540430E+02  0.00000000000E+00 0. -1.
        -11    1    5    5    0    0  0.31841866481E+03  0.47465879919E+03 -0.55590573249E+02  0.57426625670E+03  0.00000000000E+00 0.  1.
          1    1    6    6  503    0  0.38282613068E+02 -0.18532440005E+03 -0.16477996874E+03  0.25092455004E+03  0.00000000000E+00 0. -1.
         -1    1    6    6    0  503  0.11711516145E+03 -0.16528293721E+03 -0.12499832270E+03  0.23803149172E+03  0.00000000000E+00 0.  1.
<mgrwt>
<rscale>  0 0.16950675E+04</rscale>
<asrwt>0</asrwt>
<pdfrwt beam="1">  1        2 0.12834540E+00 0.16950675E+04</pdfrwt>
<pdfrwt beam="2">  1       -1 0.13246678E+00 0.16950675E+04</pdfrwt>
<totfact> 0.17107968E+01</totfact>
</mgrwt>
</event>
<event>
12    6  0.1627636E-007  0.1732604E+04  0.7818608E-02  0.8742985E-01
          2   -1    0    0  501    0  0.00000000000E+00  0.00000000000E+00  0.24977226219E+04  0.24977226219E+04  0.00000000000E+00 0. -1.
         -1   -1    0    0    0  501 -0.00000000000E+00 -0.00000000000E+00 -0.30046522700E+03  0.30046522700E+03  0.00000000000E+00 0.  1.
         24    2    1    2    0    0 -0.42696433002E+03 -0.43962184073E+03  0.65473436411E+03  0.90040205277E+03  0.80503832934E+02 0.  0.
        254    2    1    2    0    0  0.42696433002E+03  0.43962184073E+03  0.15425230308E+04  0.18977857961E+04  0.92013462360E+03 0.  0.
         23    2    4    4    0    0  0.43585450194E+03  0.33823657716E+03  0.16380439551E+04  0.17310160340E+04  0.94103039053E+02 0.  0.
         23    2    4    4    0    0 -0.88901719220E+01  0.10138526357E+03 -0.95520924325E+02  0.16676976218E+03  0.91268284558E+02 0.  0.
          2    1    3    3  502    0 -0.11142285688E+02 -0.23392881623E+00  0.38369420817E+01  0.11786745844E+02  0.00000000000E+00 0. -1.
         -1    1    3    3    0  502 -0.41582204433E+03 -0.43938791192E+03  0.65089742203E+03  0.88861530692E+03  0.00000000000E+00 0.  1.
         11    1    5    5    0    0  0.40243397325E+03  0.33786865395E+03  0.15599067170E+04  0.16460307700E+04  0.00000000000E+00 0.  1.
        -11    1    5    5    0    0  0.33420528692E+02  0.36792321012E+00  0.78137238129E+02  0.84985263946E+02  0.00000000000E+00 0. -1.
          1    1    6    6  503    0  0.34522858694E+02  0.25709187041E+02 -0.91542071828E+01  0.44006699261E+02  0.00000000000E+00 0. -1.
         -1    1    6    6    0  503 -0.43413030616E+02  0.75676076533E+02 -0.86366717142E+02  0.12276306292E+03  0.00000000000E+00 0.  1.
<mgrwt>
<rscale>  0 0.17326036E+04</rscale>
<asrwt>0</asrwt>
<pdfrwt beam="1">  1        2 0.38426500E+00 0.17326036E+04</pdfrwt>
<pdfrwt beam="2">  1       -1 0.46225421E-01 0.17326036E+04</pdfrwt>
<totfact> 0.17599174E+01</totfact>
</mgrwt>
</event>
<event>
12    6  0.1727529E-007  0.1857215E+04  0.7818608E-02  0.8676451E-01
         -1   -1    0    0    0  501 -0.00000000000E+00  0.00000000000E+00  0.73310618006E+03  0.73310618006E+03  0.00000000000E+00 0.  1.
          2   -1    0    0  501    0  0.00000000000E+00 -0.00000000000E+00 -0.11762446930E+04  0.11762446930E+04  0.00000000000E+00 0. -1.
         24    2    1    2    0    0  0.50944523076E+03  0.23133815333E+03  0.27365077876E+03  0.62797198218E+03  0.80076696713E+02 0.  0.
        254    2    1    2    0    0 -0.50944523076E+03 -0.23133815333E+03 -0.71678929166E+03  0.12813788908E+04  0.90282511535E+03 0.  0.
         23    2    4    4    0    0 -0.19197479740E+03 -0.33763365327E+03 -0.82635486448E+03  0.91773952017E+03  0.92372388606E+02 0.  0.
         23    2    4    4    0    0 -0.31747043336E+03  0.10629549994E+03  0.10956557282E+03  0.36363937066E+03  0.90237285993E+02 0.  0.
          2    1    3    3  502    0  0.82484282710E+02  0.27395562614E+02  0.74979945497E+02  0.11478748177E+03  0.00000000000E+00 0. -1.
         -1    1    3    3    0  502  0.42696094805E+03  0.20394259072E+03  0.19867083326E+03  0.51318450040E+03  0.00000000000E+00 0.  1.
         11    1    5    5    0    0 -0.16387935808E+03 -0.26452879720E+03 -0.73009746166E+03  0.79364616302E+03  0.00000000000E+00 0.  1.
        -11    1    5    5    0    0 -0.28095439312E+02 -0.73104856074E+02 -0.96257402827E+02  0.12409335716E+03  0.00000000000E+00 0. -1.
          4    1    6    6  503    0 -0.10541467984E+02 -0.12896428516E+02  0.10931207804E+02  0.19923145328E+02  0.00000000000E+00 0. -1.
         -4    1    6    6    0  503 -0.30692896538E+03  0.11919192846E+03  0.98634365017E+02  0.34371622533E+03  0.00000000000E+00 0.  1.
<mgrwt>
<rscale>  0 0.18572154E+04</rscale>
<asrwt>0</asrwt>
<pdfrwt beam="1">  1        2 0.18096072E+00 0.18572154E+04</pdfrwt>
<pdfrwt beam="2">  1       -1 0.11278557E+00 0.18572154E+04</pdfrwt>
<totfact> 0.15085409E+01</totfact>
</mgrwt>
</event>
<event>
12    6  0.1627636E-007  0.1999041E+04  0.7818608E-02  0.8607069E-01
          2   -1    0    0  501    0  0.00000000000E+00  0.00000000000E+00  0.34609786737E+04  0.34609786737E+04  0.00000000000E+00 0. -1.
         -1   -1    0    0    0  501 -0.00000000000E+00 -0.00000000000E+00 -0.28865857871E+03  0.28865857871E+03  0.00000000000E+00 0.  1.
         24    2    1    2    0    0 -0.28430827844E+03  0.25444889697E+03  0.25886994269E+04  0.26178306022E+04  0.78082651560E+02 0.  0.
        254    2    1    2    0    0  0.28430827844E+03 -0.25444889697E+03  0.58362066809E+03  0.11318066502E+04  0.89151431336E+03 0.  0.
         23    2    4    4    0    0 -0.28320284987E+03 -0.19851613963E+03  0.37558579958E+03  0.51794750198E+03  0.87134436881E+02 0.  0.
         23    2    4    4    0    0  0.56751112831E+03 -0.55932757339E+02  0.20803486851E+03  0.61385914825E+03  0.91362975421E+02 0.  0.
          4    1    3    3  502    0 -0.21814652018E+03  0.22324441973E+03  0.22309174996E+04  0.22526470796E+04  0.00000000000E+00 0. -1.
         -3    1    3    3    0  502 -0.66161758254E+02  0.31204477239E+02  0.35778192730E+03  0.36518352257E+03  0.00000000000E+00 0.  1.
         11    1    5    5    0    0 -0.92201607231E+02 -0.25636676583E+02  0.13482475447E+03  0.16533629360E+03  0.00000000000E+00 0.  1.
        -11    1    5    5    0    0 -0.19100124264E+03 -0.17287946305E+03  0.24076104510E+03  0.35261120838E+03  0.00000000000E+00 0. -1.
          2    1    6    6  503    0  0.18128307881E+03  0.91666072850E+01  0.31458208696E+02  0.18422052070E+03  0.00000000000E+00 0. -1.
         -2    1    6    6    0  503  0.38622804949E+03 -0.65099364624E+02  0.17657665982E+03  0.42963862755E+03  0.00000000000E+00 0.  1.
<mgrwt>
<rscale>  0 0.19990410E+04</rscale>
<asrwt>0</asrwt>
<pdfrwt beam="1">  1        2 0.53245823E+00 0.19990410E+04</pdfrwt>
<pdfrwt beam="2">  1       -1 0.44409014E-01 0.19990410E+04</pdfrwt>
<totfact> 0.46194602E+00</totfact>
</mgrwt>
</event>
<event>
12    6  0.1627636E-007  0.2287384E+04  0.7818608E-02  0.8482912E-01
         -1   -1    0    0    0  501 -0.00000000000E+00  0.00000000000E+00  0.60007269700E+03  0.60007269700E+03  0.00000000000E+00 0.  1.
          2   -1    0    0  501    0  0.00000000000E+00 -0.00000000000E+00 -0.21797882854E+04  0.21797882854E+04  0.00000000000E+00 0. -1.
         24    2    1    2    0    0  0.34591325250E+03 -0.62923295805E+03 -0.14413324959E+04  0.16123237015E+04  0.80983089493E+02 0.  0.
        254    2    1    2    0    0 -0.34591325250E+03  0.62923295805E+03 -0.13838309245E+03  0.11675372809E+04  0.91016664863E+03 0.  0.
         23    2    4    4    0    0  0.21196156603E+03  0.49326493264E+03 -0.20742303184E+03  0.58251761372E+03  0.89802321270E+02 0.  0.
         23    2    4    4    0    0 -0.55787481853E+03  0.13596802540E+03  0.69039939397E+02  0.58501966718E+03  0.88146926671E+02 0.  0.
          2    1    3    3  502    0  0.25426505702E+03 -0.52404614640E+03 -0.11358410245E+04  0.12764834177E+04  0.00000000000E+00 0. -1.
         -1    1    3    3    0  502  0.91648195472E+02 -0.10518681165E+03 -0.30549147147E+03  0.33584028380E+03  0.00000000000E+00 0.  1.
         11    1    5    5    0    0  0.12795534136E+03  0.37137211973E+03 -0.17950967580E+03  0.43187213895E+03  0.00000000000E+00 0. -1.
        -11    1    5    5    0    0  0.84006224673E+02  0.12189281291E+03 -0.27913356047E+02  0.15064547477E+03  0.00000000000E+00 0.  1.
          1    1    6    6  503    0 -0.43233778387E+03  0.13563753710E+03  0.75284605185E+02  0.45932697789E+03  0.00000000000E+00 0. -1.
         -1    1    6    6    0  503 -0.12553703465E+03  0.33048829973E+00 -0.62446657878E+01  0.12569268930E+03  0.00000000000E+00 0.  1.
<mgrwt>
<rscale>  0 0.22873840E+04</rscale>
<asrwt>0</asrwt>
<pdfrwt beam="1">  1        2 0.33535205E+00 0.22873840E+04</pdfrwt>
<pdfrwt beam="2">  1       -1 0.92318875E-01 0.22873840E+04</pdfrwt>
<totfact> 0.62489936E+00</totfact>
</mgrwt>
</event>
<event>
12    6  0.1627636E-007  0.1603707E+04  0.7818608E-02  0.8818274E-01
         -1   -1    0    0    0  501 -0.00000000000E+00  0.00000000000E+00  0.23529202594E+03  0.23529202594E+03  0.00000000000E+00 0.  1.
          2   -1    0    0  501    0  0.00000000000E+00 -0.00000000000E+00 -0.27326424442E+04  0.27326424442E+04  0.00000000000E+00 0. -1.
         24    2    1    2    0    0  0.10945472960E+03  0.48673830581E+03 -0.44670133013E+03  0.67444416618E+03  0.80239259598E+02 0.  0.
        254    2    1    2    0    0 -0.10945472960E+03 -0.48673830581E+03 -0.20506490881E+04  0.22934903039E+04  0.89779818195E+03 0.  0.
         23    2    4    4    0    0  0.47472011624E+01 -0.16605422873E+03 -0.19018486062E+04  0.19111286057E+04  0.88248987722E+02 0.  0.
         23    2    4    4    0    0 -0.11420193076E+03 -0.32068407708E+03 -0.14880048191E+03  0.38236169824E+03  0.90435206516E+02 0.  0.
          2    1    3    3  502    0  0.36405596208E+02  0.27177867087E+03 -0.20152741420E+03  0.34029738766E+03  0.00000000000E+00 0. -1.
         -1    1    3    3    0  502  0.73049133394E+02  0.21495963494E+03 -0.24517391593E+03  0.33414677852E+03  0.00000000000E+00 0.  1.
         11    1    5    5    0    0  0.14737554282E+02  0.58907083740E+01 -0.16247797780E+03  0.16325130695E+03  0.00000000000E+00 0. -1.
        -11    1    5    5    0    0 -0.99903531196E+01 -0.17194493710E+03 -0.17393706284E+04  0.17478772987E+04  0.00000000000E+00 0.  1.
          1    1    6    6  503    0  0.73896770701E+01 -0.83234740995E+02 -0.52786747617E+02  0.98838606626E+02  0.00000000000E+00 0. -1.
         -1    1    6    6    0  503 -0.12159160783E+03 -0.23744933609E+03 -0.96013734296E+02  0.28352309161E+03  0.00000000000E+00 0.  1.
<mgrwt>
<rscale>  0 0.16037069E+04</rscale>
<asrwt>0</asrwt>
<pdfrwt beam="1">  1        2 0.42040652E+00 0.16037069E+04</pdfrwt>
<pdfrwt beam="2">  1       -1 0.36198774E-01 0.16037069E+04</pdfrwt>
<totfact> 0.20316062E+01</totfact>
</mgrwt>
</event>
<event>
12    6  0.1627636E-007  0.2615852E+04  0.7818608E-02  0.8362837E-01
          2   -1    0    0  501    0  0.00000000000E+00  0.00000000000E+00  0.29221906857E+04  0.29221906857E+04  0.00000000000E+00 0. -1.
         -1   -1    0    0    0  501 -0.00000000000E+00 -0.00000000000E+00 -0.58540666134E+03  0.58540666134E+03  0.00000000000E+00 0.  1.
         24    2    1    2    0    0 -0.71723766126E+03 -0.88228112789E+03  0.79014858534E+03  0.13869149883E+04  0.79677766438E+02 0.  0.
        254    2    1    2    0    0  0.71723766126E+03  0.88228112789E+03  0.15466354391E+04  0.21206823588E+04  0.90131161878E+03 0.  0.
         23    2    4    4    0    0  0.21429920806E+03 -0.97555659208E+02  0.65034931704E+03  0.69788266668E+03  0.92977013622E+02 0.  0.
         23    2    4    4    0    0  0.50293845320E+03  0.97983678710E+03  0.89628612202E+03  0.14227996921E+04  0.89459120610E+02 0.  0.
          4    1    3    3  502    0 -0.19723154890E+03 -0.24980562293E+03  0.26520766566E+03  0.41429245594E+03  0.00000000000E+00 0. -1.
         -1    1    3    3    0  502 -0.52000611237E+03 -0.63247550496E+03  0.52494091968E+03  0.97262253235E+03  0.00000000000E+00 0.  1.
         11    1    5    5    0    0  0.14478897336E+03 -0.90569989251E+02  0.34905388566E+03  0.38859411325E+03  0.00000000000E+00 0.  1.
        -11    1    5    5    0    0  0.69510234702E+02 -0.69856699575E+01  0.30129543138E+03  0.30928855343E+03  0.00000000000E+00 0. -1.
          1    1    6    6  503    0  0.11822598941E+02  0.65895881754E+02  0.65101884787E+02  0.93382527705E+02  0.00000000000E+00 0. -1.
         -1    1    6    6    0  503  0.49111585426E+03  0.91394090535E+03  0.83118423724E+03  0.13294171644E+04  0.00000000000E+00 0.  1.
<mgrwt>
<rscale>  0 0.26158516E+04</rscale>
<asrwt>0</asrwt>
<pdfrwt beam="1">  1        2 0.44956779E+00 0.26158516E+04</pdfrwt>
<pdfrwt beam="2">  1       -1 0.90062565E-01 0.26158516E+04</pdfrwt>
<totfact> 0.23578380E+00</totfact>
</mgrwt>
</event>
<event>
12    6  0.1627636E-007  0.3210795E+04  0.7818608E-02  0.8185972E-01
          2   -1    0    0  501    0  0.00000000000E+00  0.00000000000E+00  0.99352107013E+03  0.99352107013E+03  0.00000000000E+00 0. -1.
         -1   -1    0    0    0  501 -0.00000000000E+00 -0.00000000000E+00 -0.25941075735E+04  0.25941075735E+04  0.00000000000E+00 0.  1.
         24    2    1    2    0    0  0.14707242249E+04 -0.18915517100E+03 -0.10288185581E+04  0.18065212398E+04  0.79005946816E+02 0.  0.
        254    2    1    2    0    0 -0.14707242249E+04  0.18915517100E+03 -0.57176794524E+03  0.17811074039E+04  0.80412410509E+03 0.  0.
         23    2    4    4    0    0 -0.24478054869E+03 -0.26921338434E+03 -0.13864844852E+03  0.39988174958E+03  0.91042067432E+02 0.  0.
         23    2    4    4    0    0 -0.12259436762E+04  0.45836855534E+03 -0.43311949672E+03  0.13812256543E+04  0.84570561026E+02 0.  0.
          2    1    3    3  502    0  0.17495505729E+03 -0.33078189693E+02 -0.15298746123E+03  0.23475221404E+03  0.00000000000E+00 0. -1.
         -1    1    3    3    0  502  0.12957691676E+04 -0.15607698131E+03 -0.87583109689E+03  0.15717690257E+04  0.00000000000E+00 0.  1.
         11    1    5    5    0    0 -0.15169682657E+02 -0.15250570481E+01 -0.25122900833E+02  0.29387160754E+02  0.00000000000E+00 0.  1.
        -11    1    5    5    0    0 -0.22961086604E+03 -0.26768832729E+03 -0.11352554769E+03  0.37049458883E+03  0.00000000000E+00 0. -1.
          3    1    6    6  503    0 -0.98981416716E+03  0.35632394241E+03 -0.31484013868E+03  0.10980997907E+04  0.00000000000E+00 0. -1.
         -3    1    6    6    0  503 -0.23612950907E+03  0.10204461294E+03 -0.11827935804E+03  0.28312586357E+03  0.00000000000E+00 0.  1.
<mgrwt>
<rscale>  0 0.32107946E+04</rscale>
<asrwt>0</asrwt>
<pdfrwt beam="1">  1        2 0.15284940E+00 0.32107946E+04</pdfrwt>
<pdfrwt beam="2">  1       -1 0.39909347E+00 0.32107946E+04</pdfrwt>
<totfact> 0.17677957E-01</totfact>
</mgrwt>
</event>
<event>
12    6  0.1627636E-007  0.2060945E+04  0.7818608E-02  0.8578645E-01
          2   -1    0    0  501    0  0.00000000000E+00  0.00000000000E+00  0.58258622881E+03  0.58258622881E+03  0.00000000000E+00 0. -1.
         -1   -1    0    0    0  501 -0.00000000000E+00 -0.00000000000E+00 -0.18226887671E+04  0.18226887671E+04  0.00000000000E+00 0.  1.
         24    2    1    2    0    0 -0.13348585066E+03 -0.20037467234E+03 -0.14281314489E+04  0.14504845445E+04  0.79859230466E+02 0.  0.
        254    2    1    2    0    0  0.13348585066E+03  0.20037467234E+03  0.18802891068E+03  0.95479045140E+03  0.90460016206E+03 0.  0.
         23    2    4    4    0    0 -0.24973560233E+03 -0.20743745905E+03  0.19112135812E+03  0.38760304625E+03  0.91162368574E+02 0.  0.
         23    2    4    4    0    0  0.38322145300E+03  0.40781213139E+03 -0.30924474435E+01  0.56718740515E+03  0.92317781526E+02 0.  0.
          4    1    3    3  502    0  0.10814429609E+02 -0.16313373885E+02 -0.12706665651E+03  0.12856521012E+03  0.00000000000E+00 0. -1.
         -3    1    3    3    0  502 -0.14430028027E+03 -0.18406129845E+03 -0.13010647924E+04  0.13219193344E+04  0.00000000000E+00 0.  1.
         11    1    5    5    0    0 -0.71512148739E+02 -0.10967069159E+03  0.10044598017E+03  0.16501831093E+03  0.00000000000E+00 0. -1.
        -11    1    5    5    0    0 -0.17822345359E+03 -0.97766767466E+02  0.90675377947E+02  0.22258473532E+03  0.00000000000E+00 0.  1.
          3    1    6    6  503    0  0.81138057831E+02  0.40093032001E+02  0.10448371374E+02  0.91104358337E+02  0.00000000000E+00 0. -1.
         -3    1    6    6    0  503  0.30208339516E+03  0.36771909939E+03 -0.13540818818E+02  0.47608304681E+03  0.00000000000E+00 0.  1.
<mgrwt>
<rscale>  0 0.20609448E+04</rscale>
<asrwt>0</asrwt>
<pdfrwt beam="1">  1        2 0.89628651E-01 0.20609448E+04</pdfrwt>
<pdfrwt beam="2">  1       -1 0.28041366E+00 0.20609448E+04</pdfrwt>
<totfact> 0.24005080E+00</totfact>
</mgrwt>
</event>
<event>
12    6  0.1627636E-007  0.1705828E+04  0.7818608E-02  0.8758047E-01
         -1   -1    0    0    0  501 -0.00000000000E+00  0.00000000000E+00  0.31914872016E+03  0.31914872016E+03  0.00000000000E+00 0.  1.
          2   -1    0    0  501    0  0.00000000000E+00 -0.00000000000E+00 -0.22793839767E+04  0.22793839767E+04  0.00000000000E+00 0. -1.
         24    2    1    2    0    0 -0.15820995653E+03  0.23348689901E+03  0.12446315512E+03  0.31840766559E+03  0.79660794466E+02 0.  0.
        254    2    1    2    0    0  0.15820995653E+03 -0.23348689901E+03 -0.20846984116E+04  0.22801250312E+04  0.87946356850E+03 0.  0.
         23    2    4    4    0    0 -0.23588073697E+03  0.14519780918E+03 -0.33481217247E+03  0.44442258534E+03  0.93220800570E+02 0.  0.
         23    2    4    4    0    0  0.39409069350E+03 -0.37868470819E+03 -0.17498862392E+04  0.18357024459E+04  0.94826351926E+02 0.  0.
          2    1    3    3  502    0 -0.29226411281E+02  0.90809642664E+02  0.70571968893E+02  0.11866329302E+03  0.00000000000E+00 0. -1.
         -1    1    3    3    0  502 -0.12898354525E+03  0.14267725634E+03  0.53891186224E+02  0.19974437257E+03  0.00000000000E+00 0.  1.
         11    1    5    5    0    0 -0.52379604796E+01 -0.97652918215E+01 -0.29925520141E+02  0.31911344535E+02  0.00000000000E+00 0. -1.
        -11    1    5    5    0    0 -0.23064277649E+03  0.15496310100E+03 -0.30488665233E+03  0.41251124080E+03  0.00000000000E+00 0.  1.
          3    1    6    6  503    0  0.21113628593E+03 -0.15081089681E+03 -0.91889871570E+03  0.95482841786E+03  0.00000000000E+00 0. -1.
         -3    1    6    6    0  503  0.18295440756E+03 -0.22787381137E+03 -0.83098752346E+03  0.88087402805E+03  0.00000000000E+00 0.  1.
<mgrwt>
<rscale>  0 0.17058282E+04</rscale>
<asrwt>0</asrwt>
<pdfrwt beam="1">  1        2 0.35067448E+00 0.17058282E+04</pdfrwt>
<pdfrwt beam="2">  1       -1 0.49099800E-01 0.17058282E+04</pdfrwt>
<totfact> 0.20975804E+01</totfact>
</mgrwt>
</event>
<event>
12    6  0.1627636E-007  0.2914622E+04  0.7818608E-02  0.8268540E-01
         -1   -1    0    0    0  501 -0.00000000000E+00  0.00000000000E+00  0.19980988176E+04  0.19980988176E+04  0.00000000000E+00 0.  1.
          2   -1    0    0  501    0  0.00000000000E+00 -0.00000000000E+00 -0.10628878811E+04  0.10628878811E+04  0.00000000000E+00 0. -1.
         24    2    1    2    0    0 -0.11596352721E+04  0.30966264133E+03 -0.15532689689E+03  0.12127569560E+04  0.77511765111E+02 0.  0.
        254    2    1    2    0    0  0.11596352721E+04 -0.30966264133E+03  0.10905378334E+04  0.18482297426E+04  0.88658643101E+03 0.  0.
         23    2    4    4    0    0  0.22344786097E+03  0.28526085953E+03  0.34208414737E+03  0.50700036325E+03  0.93408243237E+02 0.  0.
         23    2    4    4    0    0  0.93618741113E+03 -0.59492350086E+03  0.74845368605E+03  0.13412293794E+04  0.91282458753E+02 0.  0.
          2    1    3    3  502    0 -0.75103628591E+03  0.18946452728E+03 -0.13593881048E+03  0.78640426630E+03  0.00000000000E+00 0. -1.
         -1    1    3    3    0  502 -0.40859898619E+03  0.12019811405E+03 -0.19388086403E+02  0.42635268972E+03  0.00000000000E+00 0.  1.
         11    1    5    5    0    0  0.21234431746E+03  0.21253117195E+03  0.28124085248E+03  0.41152888758E+03  0.00000000000E+00 0.  1.
        -11    1    5    5    0    0  0.11103543505E+02  0.72729687579E+02  0.60843294887E+02  0.95471475669E+02  0.00000000000E+00 0. -1.
          3    1    6    6  503    0  0.14815019969E+03 -0.11183346263E+03  0.89545642000E+02  0.20609130751E+03  0.00000000000E+00 0. -1.
         -3    1    6    6    0  503  0.78803721145E+03 -0.48309003824E+03  0.65890804405E+03  0.11351380719E+04  0.00000000000E+00 0.  1.
<mgrwt>
<rscale>  0 0.29146218E+04</rscale>
<asrwt>0</asrwt>
<pdfrwt beam="1">  1        2 0.16352121E+00 0.29146218E+04</pdfrwt>
<pdfrwt beam="2">  1       -1 0.30739982E+00 0.29146218E+04</pdfrwt>
<totfact> 0.66725022E-01</totfact>
</mgrwt>
</event>
<event>
12    6  0.1627636E-007  0.2180952E+04  0.7818608E-02  0.8526398E-01
          2   -1    0    0  501    0  0.00000000000E+00  0.00000000000E+00  0.21208390443E+04  0.21208390443E+04  0.00000000000E+00 0. -1.
         -1   -1    0    0    0  501 -0.00000000000E+00 -0.00000000000E+00 -0.56069245363E+03  0.56069245363E+03  0.00000000000E+00 0.  1.
         24    2    1    2    0    0  0.22337772642E+03 -0.85072793905E+03  0.60787227552E+03  0.10720871635E+04  0.78908477848E+02 0.  0.
        254    2    1    2    0    0 -0.22337772642E+03  0.85072793905E+03  0.95227431518E+03  0.16094443345E+04  0.95386008377E+03 0.  0.
         23    2    4    4    0    0 -0.28487021654E+03  0.10342768575E+04  0.85316698119E+03  0.13737224696E+04  0.91322875548E+02 0.  0.
         23    2    4    4    0    0  0.61492490123E+02 -0.18354891843E+03  0.99107333988E+02  0.23572186482E+03  0.90945049925E+02 0.  0.
          4    1    3    3  502    0  0.83251638228E+02 -0.41455682372E+03  0.25457651411E+03  0.49355587008E+03  0.00000000000E+00 0. -1.
         -3    1    3    3    0  502  0.14012608819E+03 -0.43617111533E+03  0.35329576141E+03  0.57853129342E+03  0.00000000000E+00 0.  1.
         11    1    5    5    0    0 -0.19799288350E+03  0.67706664546E+03  0.61344489563E+03  0.93484494131E+03  0.00000000000E+00 0. -1.
        -11    1    5    5    0    0 -0.86877333043E+02  0.35721021202E+03  0.23972208556E+03  0.43887752833E+03  0.00000000000E+00 0.  1.
          2    1    6    6  503    0  0.69728863704E+02 -0.18904539643E+03  0.10138075321E+03  0.22556226073E+03  0.00000000000E+00 0.  1.
         -2    1    6    6    0  503 -0.82363735808E+01  0.54964780026E+01 -0.22734192262E+01  0.10159604085E+02  0.00000000000E+00 0. -1.
<mgrwt>
<rscale>  0 0.21809525E+04</rscale>
<asrwt>0</asrwt>
<pdfrwt beam="1">  1        2 0.32628293E+00 0.21809525E+04</pdfrwt>
<pdfrwt beam="2">  1       -1 0.86260378E-01 0.21809525E+04</pdfrwt>
<totfact> 0.79021001E+00</totfact>
</mgrwt>
</event>
<event>
12    6  0.1627636E-007  0.1243606E+04  0.7818608E-02  0.9075522E-01
          2   -1    0    0  501    0  0.00000000000E+00  0.00000000000E+00  0.17017112012E+04  0.17017112012E+04  0.00000000000E+00 0. -1.
         -1   -1    0    0    0  501 -0.00000000000E+00 -0.00000000000E+00 -0.22720586770E+03  0.22720586770E+03  0.00000000000E+00 0.  1.
         24    2    1    2    0    0 -0.43945077600E+02 -0.82704202644E+02 -0.69863777104E+02  0.14196908842E+03  0.80641922942E+02 0.  0.
        254    2    1    2    0    0  0.43945077600E+02  0.82704202644E+02  0.15443691106E+04  0.17869479804E+04  0.89405591554E+03 0.  0.
         23    2    4    4    0    0 -0.31757711931E+03 -0.17778817081E+03  0.36749112290E+03  0.52525896808E+03  0.91560896412E+02 0.  0.
         23    2    4    4    0    0  0.36152219691E+03  0.26049237346E+03  0.11768779877E+04  0.12616890123E+04  0.90899892997E+02 0.  0.
          2    1    3    3  502    0 -0.40335120790E+02 -0.14174364068E+02  0.17420012357E+01  0.42788656607E+02  0.00000000000E+00 0. -1.
         -1    1    3    3    0  502 -0.36099568098E+01 -0.68529838576E+02 -0.71605778340E+02  0.99180431816E+02  0.00000000000E+00 0.  1.
         11    1    5    5    0    0 -0.41667788909E+02 -0.54596515265E+01  0.12686956526E+02  0.43897281160E+02  0.00000000000E+00 0.  1.
        -11    1    5    5    0    0 -0.27590933040E+03 -0.17232851928E+03  0.35480416637E+03  0.48136168692E+03  0.00000000000E+00 0. -1.
          4    1    6    6  503    0  0.28360802711E+03  0.16882182765E+03  0.77942328237E+03  0.84642481984E+03  0.00000000000E+00 0. -1.
         -4    1    6    6    0  503  0.77914169799E+02  0.91670545810E+02  0.39745470529E+03  0.41526419251E+03  0.00000000000E+00 0.  1.
<mgrwt>
<rscale>  0 0.12436057E+04</rscale>
<asrwt>0</asrwt>
<pdfrwt beam="1">  1        2 0.26180171E+00 0.12436057E+04</pdfrwt>
<pdfrwt beam="2">  1       -1 0.34954750E-01 0.12436057E+04</pdfrwt>
<totfact> 0.85305503E+01</totfact>
</mgrwt>
</event>
<event>
12    6  0.1627636E-007  0.1834063E+04  0.7818608E-02  0.8688392E-01
          2   -1    0    0  501    0  0.00000000000E+00  0.00000000000E+00  0.23296341141E+04  0.23296341141E+04  0.00000000000E+00 0. -1.
         -1   -1    0    0    0  501 -0.00000000000E+00 -0.00000000000E+00 -0.36097785100E+03  0.36097785100E+03  0.00000000000E+00 0.  1.
         24    2    1    2    0    0 -0.17771242130E+03 -0.56670778856E+03  0.12797860493E+04  0.14131873700E+04  0.80664668012E+02 0.  0.
        254    2    1    2    0    0  0.17771242130E+03  0.56670778856E+03  0.68887021384E+03  0.12774245950E+04  0.89695707936E+03 0.  0.
         23    2    4    4    0    0  0.38849326295E+03  0.69699953638E+03  0.44826481310E+03  0.91991887206E+03  0.92596001165E+02 0.  0.
         23    2    4    4    0    0 -0.21078084165E+03 -0.13029174781E+03  0.24060540074E+03  0.35750572299E+03  0.92276109321E+02 0.  0.
          4    1    3    3  502    0 -0.38244723773E+02 -0.24423250619E+03  0.56526332673E+03  0.61695607989E+03  0.00000000000E+00 0. -1.
         -1    1    3    3    0  502 -0.13946769753E+03 -0.32247528237E+03  0.71452272253E+03  0.79623129015E+03  0.00000000000E+00 0.  1.
         11    1    5    5    0    0  0.21112970704E+02  0.10906407651E+02  0.22885917401E+02  0.32992006230E+02  0.00000000000E+00 0.  1.
        -11    1    5    5    0    0  0.36738029225E+03  0.68609312873E+03  0.42537889570E+03  0.88692686583E+03  0.00000000000E+00 0. -1.
          4    1    6    6  503    0 -0.90820491992E+01  0.26496694702E+01  0.46956212044E+02  0.47899793481E+02  0.00000000000E+00 0.  1.
         -4    1    6    6    0  503 -0.20169879245E+03 -0.13294141728E+03  0.19364918869E+03  0.30960592951E+03  0.00000000000E+00 0. -1.
<mgrwt>
<rscale>  0 0.18340625E+04</rscale>
<asrwt>0</asrwt>
<pdfrwt beam="1">  1        2 0.35840524E+00 0.18340625E+04</pdfrwt>
<pdfrwt beam="2">  1       -1 0.55535055E-01 0.18340625E+04</pdfrwt>
<totfact> 0.15336513E+01</totfact>
</mgrwt>
</event>
<event>
12    6  0.1627636E-007  0.2864506E+04  0.7818608E-02  0.8283517E-01
          2   -1    0    0  501    0  0.00000000000E+00  0.00000000000E+00  0.24713293066E+04  0.24713293066E+04  0.00000000000E+00 0. -1.
         -3   -1    0    0    0  501 -0.00000000000E+00 -0.00000000000E+00 -0.83005885550E+03  0.83005885550E+03  0.00000000000E+00 0.  1.
         24    2    1    2    0    0  0.69776323762E+03  0.40081480846E+03 -0.42195008197E+03  0.91213449164E+03  0.80133717705E+02 0.  0.
        254    2    1    2    0    0 -0.69776323762E+03 -0.40081480846E+03  0.20632205331E+04  0.23892536705E+04  0.89673189263E+03 0.  0.
         23    2    4    4    0    0 -0.44115660719E+03  0.19558827373E+03  0.12584510641E+04  0.13512490837E+04  0.96442109822E+02 0.  0.
         23    2    4    4    0    0 -0.25660663042E+03 -0.59640308219E+03  0.80476946894E+03  0.10380045867E+04  0.90862669620E+02 0.  0.
          4    1    3    3  502    0  0.55931282879E+02  0.43630545645E+02 -0.15344011386E+02  0.72576660182E+02  0.00000000000E+00 0. -1.
         -3    1    3    3    0  502  0.64183195474E+03  0.35718426282E+03 -0.40660607059E+03  0.83955783146E+03  0.00000000000E+00 0.  1.
         11    1    5    5    0    0 -0.43634816805E+03  0.20433419301E+03  0.12253345725E+04  0.13166613083E+04  0.00000000000E+00 0.  1.
        -11    1    5    5    0    0 -0.48084391450E+01 -0.87459192768E+01  0.33116491616E+02  0.34587775412E+02  0.00000000000E+00 0. -1.
          4    1    6    6  503    0 -0.22816538642E+02 -0.32277316921E+02  0.87412376123E+02  0.95934056115E+02  0.00000000000E+00 0. -1.
         -4    1    6    6    0  503 -0.23379009178E+03 -0.56412576527E+03  0.71735709282E+03  0.94207053063E+03  0.00000000000E+00 0.  1.
<mgrwt>
<rscale>  0 0.28645061E+04</rscale>
<asrwt>0</asrwt>
<pdfrwt beam="1">  1        2 0.38020451E+00 0.28645061E+04</pdfrwt>
<pdfrwt beam="2">  1       -3 0.12770136E+00 0.28645061E+04</pdfrwt>
<totfact> 0.96744421E-01</totfact>
</mgrwt>
</event>
<event>
12    6  0.1627636E-007  0.1859593E+04  0.7818608E-02  0.8675235E-01
          2   -1    0    0  501    0  0.00000000000E+00  0.00000000000E+00  0.27317257026E+04  0.27317257026E+04  0.00000000000E+00 0. -1.
         -1   -1    0    0    0  501 -0.00000000000E+00 -0.00000000000E+00 -0.31647452453E+03  0.31647452453E+03  0.00000000000E+00 0.  1.
         24    2    1    2    0    0  0.45689782949E+03 -0.79346250583E+02  0.17733115656E+04  0.18346413823E+04  0.78890043060E+02 0.  0.
        254    2    1    2    0    0 -0.45689782949E+03  0.79346250583E+02  0.64193961248E+03  0.12135588448E+04  0.91955812743E+03 0.  0.
         23    2    4    4    0    0 -0.49553759805E+03 -0.15585346291E+03  0.51641993021E+01  0.52753897385E+03  0.91776287739E+02 0.  0.
         23    2    4    4    0    0  0.38639768553E+02  0.23519971350E+03  0.63677541318E+03  0.68601987099E+03  0.91260065832E+02 0.  0.
          4    1    3    3  502    0  0.35265530458E+03 -0.27946128851E+02  0.13008612253E+04  0.13481048466E+04  0.00000000000E+00 0. -1.
         -3    1    3    3    0  502  0.10424252491E+03 -0.51400121733E+02  0.47245034032E+03  0.48653653571E+03  0.00000000000E+00 0.  1.
         11    1    5    5    0    0 -0.28558695744E+03 -0.88370685640E+02  0.48319440469E+02  0.30282677667E+03  0.00000000000E+00 0. -1.
        -11    1    5    5    0    0 -0.20995064061E+03 -0.67482777272E+02 -0.43155241167E+02  0.22471219718E+03  0.00000000000E+00 0.  1.
          3    1    6    6  503    0  0.61970743909E+02  0.21551442448E+03  0.57291552322E+03  0.61523900803E+03  0.00000000000E+00 0. -1.
         -3    1    6    6    0  503 -0.23330975356E+02  0.19685289013E+02  0.63859889962E+02  0.70780862954E+02  0.00000000000E+00 0.  1.
<mgrwt>
<rscale>  0 0.18595931E+04</rscale>
<asrwt>0</asrwt>
<pdfrwt beam="1">  1        2 0.42026548E+00 0.18595931E+04</pdfrwt>
<pdfrwt beam="2">  1       -1 0.48688390E-01 0.18595931E+04</pdfrwt>
<totfact> 0.11502300E+01</totfact>
</mgrwt>
</event>
<event>
12    6  0.1627636E-007  0.1153327E+04  0.7818608E-02  0.9154719E-01
         -3   -1    0    0    0  501 -0.00000000000E+00  0.00000000000E+00  0.39105444293E+03  0.39105444293E+03  0.00000000000E+00 0.  1.
          4   -1    0    0  501    0  0.00000000000E+00 -0.00000000000E+00 -0.85036999394E+03  0.85036999394E+03  0.00000000000E+00 0. -1.
         24    2    1    2    0    0 -0.15868207424E+02 -0.32565746269E+02  0.13237469182E+03  0.15825331985E+03  0.78795471788E+02 0.  0.
        254    2    1    2    0    0  0.15868207424E+02  0.32565746269E+02 -0.59169024283E+03  0.10831711170E+04  0.90655942852E+03 0.  0.
         23    2    4    4    0    0  0.15267209679E+02  0.19484196409E+03  0.18523669087E+03  0.28421876658E+03  0.90946121262E+02 0.  0.
         23    2    4    4    0    0  0.60099774479E+00 -0.16227621782E+03 -0.77692693370E+03  0.79895235043E+03  0.91517571454E+02 0.  0.
          4    1    3    3  502    0 -0.53758373454E+01  0.23464278964E+02  0.16706711566E+02  0.29301642033E+02  0.00000000000E+00 0. -1.
         -3    1    3    3    0  502 -0.10492370078E+02 -0.56030025233E+02  0.11566798025E+03  0.12895167782E+03  0.00000000000E+00 0.  1.
         11    1    5    5    0    0  0.40366669613E+02  0.13528396093E+03  0.84507623458E+02  0.16453800935E+03  0.00000000000E+00 0.  1.
        -11    1    5    5    0    0 -0.25099459934E+02  0.59558003164E+02  0.10072906741E+03  0.11968075723E+03  0.00000000000E+00 0. -1.
          3    1    6    6  503    0  0.35744528416E+02 -0.34027970736E+02 -0.14445693112E+03  0.15265444328E+03  0.00000000000E+00 0. -1.
         -3    1    6    6    0  503 -0.35143530671E+02 -0.12824824709E+03 -0.63247000258E+03  0.64629790715E+03  0.00000000000E+00 0.  1.
<mgrwt>
<rscale>  0 0.11533273E+04</rscale>
<asrwt>0</asrwt>
<pdfrwt beam="1">  1        4 0.13082615E+00 0.11533273E+04</pdfrwt>
<pdfrwt beam="2">  1       -3 0.60162222E-01 0.11533273E+04</pdfrwt>
<totfact> 0.25968594E+00</totfact>
</mgrwt>
</event>
<event>
12    6  0.1627636E-007  0.1415665E+04  0.7818608E-02  0.8942557E-01
          2   -1    0    0  501    0  0.00000000000E+00  0.00000000000E+00  0.78088659266E+03  0.78088659266E+03  0.00000000000E+00 0. -1.
         -1   -1    0    0    0  501 -0.00000000000E+00 -0.00000000000E+00 -0.64161252466E+03  0.64161252466E+03  0.00000000000E+00 0.  1.
         24    2    1    2    0    0 -0.10729083055E+03 -0.19452403140E+03 -0.29980616179E+03  0.38173146421E+03  0.80524871995E+02 0.  0.
        254    2    1    2    0    0  0.10729083055E+03  0.19452403140E+03  0.43908022979E+03  0.10407676531E+04  0.91709047454E+03 0.  0.
         23    2    4    4    0    0  0.11430201967E+03  0.47273418097E+03 -0.21610281846E+02  0.49480230347E+03  0.88429393742E+02 0.  0.
         23    2    4    4    0    0 -0.70111891158E+01 -0.27821014957E+03  0.46069051163E+03  0.54596534965E+03  0.91609887112E+02 0.  0.
          2    1    3    3  502    0 -0.29134326281E+02 -0.67776421546E+02 -0.44447667309E+02  0.86128087257E+02  0.00000000000E+00 0. -1.
         -1    1    3    3    0  502 -0.78156504269E+02 -0.12674760985E+03 -0.25535849448E+03  0.29560337695E+03  0.00000000000E+00 0.  1.
         11    1    5    5    0    0  0.70538603739E+02  0.21169415932E+03  0.29968582508E+02  0.22514046204E+03  0.00000000000E+00 0.  1.
        -11    1    5    5    0    0  0.43763415927E+02  0.26104002165E+03 -0.51578864354E+02  0.26966184143E+03  0.00000000000E+00 0. -1.
          4    1    6    6  503    0  0.43219850227E+01 -0.27936360523E+03  0.45295853357E+03  0.53219746017E+03  0.00000000000E+00 0. -1.
         -4    1    6    6    0  503 -0.11333174138E+02  0.11534556566E+01  0.77319780641E+01  0.13767889482E+02  0.00000000000E+00 0.  1.
<mgrwt>
<rscale>  0 0.14156647E+04</rscale>
<asrwt>0</asrwt>
<pdfrwt beam="1">  1        2 0.12013640E+00 0.14156647E+04</pdfrwt>
<pdfrwt beam="2">  1       -1 0.98709619E-01 0.14156647E+04</pdfrwt>
<totfact> 0.38782756E+01</totfact>
</mgrwt>
</event>
<event>
12    6  0.1627636E-007  0.1569206E+04  0.7818608E-02  0.8839693E-01
         -1   -1    0    0    0  501 -0.00000000000E+00  0.00000000000E+00  0.72414671392E+03  0.72414671392E+03  0.00000000000E+00 0.  1.
          2   -1    0    0  501    0  0.00000000000E+00 -0.00000000000E+00 -0.85010610867E+03  0.85010610867E+03  0.00000000000E+00 0. -1.
         24    2    1    2    0    0 -0.13734242761E+03  0.37076657880E+03 -0.37821241757E+03  0.55328057227E+03  0.82121619984E+02 0.  0.
        254    2    1    2    0    0  0.13734242761E+03 -0.37076657880E+03  0.25225302282E+03  0.10209722503E+04  0.90687482600E+03 0.  0.
         23    2    4    4    0    0 -0.16078419885E+03 -0.45461641811E+03 -0.14262881935E+03  0.51133041927E+03  0.92672387178E+02 0.  0.
         23    2    4    4    0    0  0.29812662646E+03  0.83849839312E+02  0.39488184218E+03  0.50964183105E+03  0.88841689110E+02 0.  0.
          2    1    3    3  502    0 -0.13883311212E+03  0.31440931682E+03 -0.34883827722E+03  0.48971011342E+03  0.00000000000E+00 0. -1.
         -1    1    3    3    0  502  0.14906845075E+01  0.56357261971E+02 -0.29374140347E+02  0.63570458849E+02  0.00000000000E+00 0.  1.
         11    1    5    5    0    0 -0.12543653716E+03 -0.35351529819E+03 -0.14996693688E+03  0.40397706997E+03  0.00000000000E+00 0.  1.
        -11    1    5    5    0    0 -0.35347661683E+02 -0.10110111992E+03  0.73381175238E+01  0.10735334929E+03  0.00000000000E+00 0. -1.
          3    1    6    6  503    0  0.59025137840E+02  0.26390773070E+02  0.14644094751E+03  0.16007932692E+03  0.00000000000E+00 0. -1.
         -3    1    6    6    0  503  0.23910148862E+03  0.57459066242E+02  0.24844089467E+03  0.34956250413E+03  0.00000000000E+00 0.  1.
<mgrwt>
<rscale>  0 0.15692056E+04</rscale>
<asrwt>0</asrwt>
<pdfrwt beam="1">  1        2 0.13078555E+00 0.15692056E+04</pdfrwt>
<pdfrwt beam="2">  1       -1 0.11140719E+00 0.15692056E+04</pdfrwt>
<totfact> 0.25789307E+01</totfact>
</mgrwt>
</event>
<event>
12    6  0.1627636E-007  0.3228068E+04  0.7818608E-02  0.8181444E-01
          2   -1    0    0  501    0  0.00000000000E+00  0.00000000000E+00  0.19806692498E+04  0.19806692498E+04  0.00000000000E+00 0. -1.
         -1   -1    0    0    0  501 -0.00000000000E+00 -0.00000000000E+00 -0.13152651092E+04  0.13152651092E+04  0.00000000000E+00 0.  1.
         24    2    1    2    0    0  0.83046817746E+03  0.75316439558E+03  0.13060149661E+04  0.17232156009E+04  0.82842713660E+02 0.  0.
        254    2    1    2    0    0 -0.83046817746E+03 -0.75316439558E+03 -0.64061082552E+03  0.15727187580E+04  0.89784634631E+03 0.  0.
         23    2    4    4    0    0  0.21176473749E+02 -0.17353860166E+03  0.16826082431E+03  0.25970927023E+03  0.92591094272E+02 0.  0.
         23    2    4    4    0    0 -0.85164465121E+03 -0.57962579392E+03 -0.80887164983E+03  0.13130094878E+04  0.91955947561E+02 0.  0.
          4    1    3    3  502    0  0.55303222072E+03  0.49487009970E+03  0.80372439405E+03  0.10939442190E+04  0.00000000000E+00 0. -1.
         -3    1    3    3    0  502  0.27743595674E+03  0.25829429588E+03  0.50229057200E+03  0.62927138192E+03  0.00000000000E+00 0.  1.
         11    1    5    5    0    0 -0.26169714588E+02 -0.30851445072E+02  0.10517591958E+02  0.41800542643E+02  0.00000000000E+00 0.  1.
        -11    1    5    5    0    0  0.47346188337E+02 -0.14268715659E+03  0.15774323235E+03  0.21790872758E+03  0.00000000000E+00 0. -1.
          3    1    6    6  503    0 -0.69871272362E+03 -0.48318257569E+03 -0.70871681457E+03  0.11063202045E+04  0.00000000000E+00 0. -1.
         -3    1    6    6    0  503 -0.15293192759E+03 -0.96443218226E+02 -0.10015483526E+03  0.20668928333E+03  0.00000000000E+00 0.  1.
<mgrwt>
<rscale>  0 0.32280676E+04</rscale>
<asrwt>0</asrwt>
<pdfrwt beam="1">  1        2 0.30471835E+00 0.32280676E+04</pdfrwt>
<pdfrwt beam="2">  1       -1 0.20234848E+00 0.32280676E+04</pdfrwt>
<totfact> 0.94902708E-01</totfact>
</mgrwt>
</event>
<event>
12    6  0.1627636E-007  0.1175678E+04  0.7818608E-02  0.9134416E-01
         -1   -1    0    0    0  501 -0.00000000000E+00  0.00000000000E+00  0.28677116057E+03  0.28677116057E+03  0.00000000000E+00 0.  1.
          2   -1    0    0  501    0  0.00000000000E+00 -0.00000000000E+00 -0.12049844203E+04  0.12049844203E+04  0.00000000000E+00 0. -1.
         24    2    1    2    0    0  0.22860073539E+03  0.35277601759E+02 -0.17066832383E+03  0.29850103849E+03  0.80451151739E+02 0.  0.
        254    2    1    2    0    0 -0.22860073539E+03 -0.35277601759E+02 -0.74754493585E+03  0.11932545423E+04  0.90084969129E+03 0.  0.
         23    2    4    4    0    0 -0.76179047481E+02  0.13698497461E+03  0.16629027063E+03  0.24652343668E+03  0.92483621157E+02 0.  0.
         23    2    4    4    0    0 -0.15242168791E+03 -0.17226257637E+03 -0.91383520649E+03  0.94673110566E+03  0.91094652146E+02 0.  0.
          4    1    3    3  502    0  0.54309023227E+02 -0.23352420450E+02 -0.58129635840E+02  0.82908745664E+02  0.00000000000E+00 0. -1.
         -3    1    3    3    0  502  0.17429171216E+03  0.58630022209E+02 -0.11253868799E+03  0.21559229283E+03  0.00000000000E+00 0.  1.
         11    1    5    5    0    0 -0.28981952563E+02  0.43500787953E+02  0.12217651326E+03  0.13288857182E+03  0.00000000000E+00 0.  1.
        -11    1    5    5    0    0 -0.47197094917E+02  0.93484186655E+02  0.44113757372E+02  0.11363486486E+03  0.00000000000E+00 0. -1.
          1    1    6    6  503    0 -0.13844999360E+03 -0.17567411884E+03 -0.89756742954E+03  0.92501734434E+03  0.00000000000E+00 0.  1.
         -1    1    6    6    0  503 -0.13971694309E+02  0.34115424768E+01 -0.16267776951E+02  0.21713761324E+02  0.00000000000E+00 0. -1.
<mgrwt>
<rscale>  0 0.11756782E+04</rscale>
<asrwt>0</asrwt>
<pdfrwt beam="1">  1        2 0.18538222E+00 0.11756782E+04</pdfrwt>
<pdfrwt beam="2">  1       -1 0.44118640E-01 0.11756782E+04</pdfrwt>
<totfact> 0.10763809E+02</totfact>
</mgrwt>
</event>
<event>
12    6  0.1627636E-007  0.2092613E+04  0.7818608E-02  0.8564504E-01
          2   -1    0    0  501    0  0.00000000000E+00  0.00000000000E+00  0.21927337019E+04  0.21927337019E+04  0.00000000000E+00 0. -1.
         -1   -1    0    0    0  501 -0.00000000000E+00 -0.00000000000E+00 -0.49926597414E+03  0.49926597414E+03  0.00000000000E+00 0.  1.
         24    2    1    2    0    0  0.78337847833E+03 -0.31910421578E+03  0.81130847033E+03  0.11749786505E+04  0.82728799397E+02 0.  0.
        254    2    1    2    0    0 -0.78337847833E+03  0.31910421578E+03  0.88215925746E+03  0.15170210256E+04  0.89868709554E+03 0.  0.
         23    2    4    4    0    0 -0.68301880690E+03  0.21690014221E+03  0.11584231605E+03  0.73203816379E+03  0.94340175916E+02 0.  0.
         23    2    4    4    0    0 -0.10035967143E+03  0.10220407357E+03  0.76631694141E+03  0.78498286178E+03  0.91862409650E+02 0.  0.
          4    1    3    3  502    0  0.49972717806E+03 -0.24584782826E+03  0.53615798739E+03  0.77306778137E+03  0.00000000000E+00 0. -1.
         -3    1    3    3    0  502  0.28365130027E+03 -0.73256387518E+02  0.27515048294E+03  0.40191086912E+03  0.00000000000E+00 0.  1.
         11    1    5    5    0    0 -0.28946856918E+03  0.61038005827E+02  0.84117801799E+02  0.30756055546E+03  0.00000000000E+00 0. -1.
        -11    1    5    5    0    0 -0.39355023772E+03  0.15586213639E+03  0.31724514253E+02  0.42447760833E+03  0.00000000000E+00 0.  1.
          4    1    6    6  503    0  0.15119537802E+02  0.39612632507E+01  0.12575111085E+03  0.12671871965E+03  0.00000000000E+00 0. -1.
         -4    1    6    6    0  503 -0.11547920923E+03  0.98242810316E+02  0.64056583055E+03  0.65826414213E+03  0.00000000000E+00 0.  1.
<mgrwt>
<rscale>  0 0.20926130E+04</rscale>
<asrwt>0</asrwt>
<pdfrwt beam="1">  1        2 0.33734364E+00 0.20926130E+04</pdfrwt>
<pdfrwt beam="2">  1       -1 0.76810151E-01 0.20926130E+04</pdfrwt>
<totfact> 0.93036153E+00</totfact>
</mgrwt>
</event>
<event>
12    6  0.1627636E-007  0.2317495E+04  0.7818608E-02  0.8471055E-01
         -1   -1    0    0    0  501 -0.00000000000E+00  0.00000000000E+00  0.11765442270E+04  0.11765442270E+04  0.00000000000E+00 0.  1.
          2   -1    0    0  501    0  0.00000000000E+00 -0.00000000000E+00 -0.11412200620E+04  0.11412200620E+04  0.00000000000E+00 0. -1.
         24    2    1    2    0    0  0.44452262981E+03 -0.35249463115E+03 -0.80108653597E+03  0.98483025217E+03  0.79360910212E+02 0.  0.
        254    2    1    2    0    0 -0.44452262981E+03  0.35249463115E+03  0.83641070093E+03  0.13329340369E+04  0.86906700121E+03 0.  0.
         23    2    4    4    0    0 -0.62212900932E+03  0.44809674431E+03  0.46659299137E+03  0.90219252227E+03  0.91690409262E+02 0.  0.
         23    2    4    4    0    0  0.17760637951E+03 -0.95602113162E+02  0.36981770956E+03  0.43074151458E+03  0.89940669324E+02 0.  0.
          4    1    3    3  502    0  0.27112383984E+03 -0.25243709567E+03 -0.47797419279E+03  0.60472469172E+03  0.00000000000E+00 0. -1.
         -3    1    3    3    0  502  0.17339878997E+03 -0.10005753548E+03 -0.32311234319E+03  0.38010556045E+03  0.00000000000E+00 0.  1.
         11    1    5    5    0    0 -0.39682101130E+03  0.33845318518E+03  0.31968345051E+03  0.61173113546E+03  0.00000000000E+00 0. -1.
        -11    1    5    5    0    0 -0.22530799802E+03  0.10964355913E+03  0.14690954086E+03  0.29046138681E+03  0.00000000000E+00 0.  1.
          1    1    6    6  503    0  0.15879140324E+03 -0.90936116085E+02  0.36835414999E+03  0.41130143055E+03  0.00000000000E+00 0. -1.
         -1    1    6    6    0  503  0.18814976270E+02 -0.46659970775E+01  0.14635595641E+01  0.19440084037E+02  0.00000000000E+00 0.  1.
<mgrwt>
<rscale>  0 0.23174951E+04</rscale>
<asrwt>0</asrwt>
<pdfrwt beam="1">  1        2 0.17557232E+00 0.23174951E+04</pdfrwt>
<pdfrwt beam="2">  1       -1 0.18100681E+00 0.23174951E+04</pdfrwt>
<totfact> 0.43418098E+00</totfact>
</mgrwt>
</event>
<event>
12    6  0.1627636E-007  0.1374874E+04  0.7818608E-02  0.8972209E-01
          2   -1    0    0  501    0  0.00000000000E+00  0.00000000000E+00  0.24050281562E+04  0.24050281562E+04  0.00000000000E+00 0. -1.
         -1   -1    0    0    0  501 -0.00000000000E+00 -0.00000000000E+00 -0.19649243370E+03  0.19649243370E+03  0.00000000000E+00 0.  1.
         24    2    1    2    0    0  0.63876918070E+02 -0.65680877253E+02 -0.72640371241E+02  0.14214253367E+03  0.80830922587E+02 0.  0.
        254    2    1    2    0    0 -0.63876918070E+02  0.65680877253E+02  0.22811760937E+04  0.24593780562E+04  0.91453912683E+03 0.  0.
         23    2    4    4    0    0 -0.26398726908E+03 -0.34895851493E+03  0.12168882952E+04  0.12963014178E+04  0.90105046590E+02 0.  0.
         23    2    4    4    0    0  0.20011035101E+03  0.41463939218E+03  0.10642877985E+04  0.11630766384E+04  0.89826335806E+02 0.  0.
          4    1    3    3  502    0  0.39434153247E+02 -0.27482167978E+02  0.88591127038E+01  0.48875411783E+02  0.00000000000E+00 0. -1.
         -3    1    3    3    0  502  0.24442764823E+02 -0.38198709276E+02 -0.81499483944E+02  0.93267121891E+02  0.00000000000E+00 0.  1.
         11    1    5    5    0    0 -0.39396049730E+01 -0.31633117716E+02  0.49090326826E+02  0.58532339879E+02  0.00000000000E+00 0. -1.
        -11    1    5    5    0    0 -0.26004766411E+03 -0.31732539721E+03  0.11677979683E+04  0.12377690779E+04  0.00000000000E+00 0.  1.
          4    1    6    6  503    0  0.49376499200E+01 -0.43545048600E+00  0.45868561426E+02  0.46135614563E+02  0.00000000000E+00 0. -1.
         -4    1    6    6    0  503  0.19517270109E+03  0.41507484267E+03  0.10184192371E+04  0.11169410239E+04  0.00000000000E+00 0.  1.
<mgrwt>
<rscale>  0 0.13748743E+04</rscale>
<asrwt>0</asrwt>
<pdfrwt beam="1">  1        2 0.37000431E+00 0.13748743E+04</pdfrwt>
<pdfrwt beam="2">  1       -1 0.30229607E-01 0.13748743E+04</pdfrwt>
<totfact> 0.44293158E+01</totfact>
</mgrwt>
</event>
<event>
12    6  0.1627636E-007  0.2952318E+04  0.7818608E-02  0.8257479E-01
         -1   -1    0    0    0  501 -0.00000000000E+00  0.00000000000E+00  0.14053098848E+04  0.14053098848E+04  0.00000000000E+00 0.  1.
          2   -1    0    0  501    0  0.00000000000E+00 -0.00000000000E+00 -0.15505803313E+04  0.15505803313E+04  0.00000000000E+00 0. -1.
         24    2    1    2    0    0  0.40365418798E+03 -0.11746156105E+04  0.31143734815E+03  0.12830107465E+04  0.80404091829E+02 0.  0.
        254    2    1    2    0    0 -0.40365418798E+03  0.11746156105E+04 -0.45670779471E+03  0.16728794696E+04  0.10233695199E+04 0.  0.
         23    2    4    4    0    0  0.19720095020E+03  0.15888477802E+03 -0.40726292042E+03  0.48822710109E+03  0.91487859515E+02 0.  0.
         23    2    4    4    0    0 -0.60085513818E+03  0.10157308324E+04 -0.49444874283E+02  0.11846523685E+04  0.90666518652E+02 0.  0.
          2    1    3    3  502    0  0.10408873993E+03 -0.21461916093E+03  0.46060332924E+02  0.24293497955E+03  0.00000000000E+00 0. -1.
         -1    1    3    3    0  502  0.29956544804E+03 -0.95999644953E+03  0.26537701522E+03  0.10400757669E+04  0.00000000000E+00 0.  1.
         11    1    5    5    0    0  0.20286672390E+03  0.13256463544E+03 -0.36617503957E+03  0.43910414464E+03  0.00000000000E+00 0. -1.
        -11    1    5    5    0    0 -0.56657737011E+01  0.26320142586E+02 -0.41087880850E+02  0.49122956447E+02  0.00000000000E+00 0.  1.
          1    1    6    6  503    0 -0.34703763444E+03  0.54822201548E+03  0.13523651473E+02  0.64897256269E+03  0.00000000000E+00 0. -1.
         -1    1    6    6    0  503 -0.25381750373E+03  0.46750881696E+03 -0.62968525756E+02  0.53567980583E+03  0.00000000000E+00 0.  1.
<mgrwt>
<rscale>  0 0.29523183E+04</rscale>
<asrwt>0</asrwt>
<pdfrwt beam="1">  1        2 0.23855082E+00 0.29523183E+04</pdfrwt>
<pdfrwt beam="2">  1       -1 0.21620152E+00 0.29523183E+04</pdfrwt>
<totfact> 0.13575425E+00</totfact>
</mgrwt>
</event>
<event>
12    6  0.1627636E-007  0.1486143E+04  0.7818608E-02  0.8893720E-01
          2   -1    0    0  501    0  0.00000000000E+00  0.00000000000E+00  0.68583730516E+03  0.68583730516E+03  0.00000000000E+00 0. -1.
         -1   -1    0    0    0  501 -0.00000000000E+00 -0.00000000000E+00 -0.80508191876E+03  0.80508191876E+03  0.00000000000E+00 0.  1.
         24    2    1    2    0    0  0.47505303092E+03  0.35352960802E+01 -0.23996638842E+03  0.53838002838E+03  0.81125254302E+02 0.  0.
        254    2    1    2    0    0 -0.47505303092E+03 -0.35352960802E+01  0.12072177482E+03  0.95253919553E+03  0.81674310012E+03 0.  0.
         23    2    4    4    0    0  0.10353519509E+03  0.20447047086E+03  0.21144356546E+03  0.32493826311E+03  0.91371677133E+02 0.  0.
         23    2    4    4    0    0 -0.57858822601E+03 -0.20800576694E+03 -0.90721790646E+02  0.62760093242E+03  0.87302650061E+02 0.  0.
          2    1    3    3  502    0  0.61686559810E+02  0.10017461157E+02 -0.46129347087E+01  0.62664665928E+02  0.00000000000E+00 0. -1.
         -1    1    3    3    0  502  0.41336647111E+03 -0.64821650766E+01 -0.23535345371E+03  0.47571536246E+03  0.00000000000E+00 0.  1.
         11    1    5    5    0    0  0.87559034722E+02  0.20706248072E+03  0.21162805755E+03  0.30875215016E+03  0.00000000000E+00 0.  1.
        -11    1    5    5    0    0  0.15976160370E+02 -0.25920098589E+01 -0.18449208922E+00  0.16186112955E+02  0.00000000000E+00 0. -1.
          4    1    6    6  503    0 -0.11033995525E+03 -0.41790040243E+02  0.16934122222E+02  0.11919764127E+03  0.00000000000E+00 0. -1.
         -4    1    6    6    0  503 -0.46824827076E+03 -0.16621572670E+03 -0.10765591287E+03  0.50840329115E+03  0.00000000000E+00 0.  1.
<mgrwt>
<rscale>  0 0.14861429E+04</rscale>
<asrwt>0</asrwt>
<pdfrwt beam="1">  1        2 0.10551343E+00 0.14861429E+04</pdfrwt>
<pdfrwt beam="2">  1       -1 0.12385876E+00 0.14861429E+04</pdfrwt>
<totfact> 0.26602910E+01</totfact>
</mgrwt>
</event>
<event>
12    6  0.1627636E-007  0.1765403E+04  0.7818608E-02  0.8724917E-01
         -1   -1    0    0    0  501 -0.00000000000E+00  0.00000000000E+00  0.63055561117E+03  0.63055561117E+03  0.00000000000E+00 0.  1.
          2   -1    0    0  501    0  0.00000000000E+00 -0.00000000000E+00 -0.12356749735E+04  0.12356749735E+04  0.00000000000E+00 0. -1.
         24    2    1    2    0    0  0.57341157824E+03 -0.14368812165E+02  0.10147118944E+03  0.59072369129E+03  0.98238364910E+02 0.  0.
        254    2    1    2    0    0 -0.57341157824E+03  0.14368812165E+02 -0.70659055176E+03  0.12755068934E+04  0.89366678710E+03 0.  0.
         23    2    4    4    0    0 -0.37590077885E+03  0.31591721507E+03 -0.26893000731E+02  0.50042033658E+03  0.92694106879E+02 0.  0.
         23    2    4    4    0    0 -0.19751079939E+03 -0.30154840291E+03 -0.67969755103E+03  0.77508655679E+03  0.93959855647E+02 0.  0.
          2    1    3    3  502    0  0.20851472460E+02 -0.18412464649E+02 -0.42087550715E+01  0.28133900858E+02  0.00000000000E+00 0. -1.
         -1    1    3    3    0  502  0.55256010578E+03  0.40436524837E+01  0.10567994452E+03  0.56258979043E+03  0.00000000000E+00 0.  1.
         11    1    5    5    0    0 -0.17631346812E+03  0.16874607301E+03  0.30309675868E+02  0.24592753535E+03  0.00000000000E+00 0.  1.
        -11    1    5    5    0    0 -0.19958731074E+03  0.14717114207E+03 -0.57202676599E+02  0.25449280122E+03  0.00000000000E+00 0. -1.
          1    1    6    6  503    0  0.95553169971E+01 -0.19719114565E+02 -0.28807960370E+02  0.36194559574E+02  0.00000000000E+00 0. -1.
         -1    1    6    6    0  503 -0.20706611639E+03 -0.28182928834E+03 -0.65088959066E+03  0.73889199722E+03  0.00000000000E+00 0.  1.
<mgrwt>
<rscale>  0 0.17654028E+04</rscale>
<asrwt>0</asrwt>
<pdfrwt beam="1">  1        2 0.19010384E+00 0.17654028E+04</pdfrwt>
<pdfrwt beam="2">  1       -1 0.97008557E-01 0.17654028E+04</pdfrwt>
<totfact> 0.19885547E+01</totfact>
</mgrwt>
</event>
<event>
12    6  0.1627636E-007  0.1362474E+04  0.7818608E-02  0.8981439E-01
          2   -1    0    0  501    0  0.00000000000E+00  0.00000000000E+00  0.18031847865E+04  0.18031847865E+04  0.00000000000E+00 0. -1.
         -1   -1    0    0    0  501 -0.00000000000E+00 -0.00000000000E+00 -0.25736887193E+03  0.25736887193E+03  0.00000000000E+00 0.  1.
         24    2    1    2    0    0 -0.20234901022E+03 -0.15388176236E+03  0.15572556458E+02  0.26689829412E+03  0.79796467116E+02 0.  0.
        254    2    1    2    0    0  0.20234901022E+03  0.15388176236E+03  0.15302433581E+04  0.17936553643E+04  0.90051658071E+03 0.  0.
         23    2    4    4    0    0  0.40553437624E+03  0.25022607542E+03  0.37868194487E+03  0.61684733020E+03  0.10014686347E+03 0.  0.
         23    2    4    4    0    0 -0.20318536603E+03 -0.96344313064E+02  0.11515614132E+04  0.11768080341E+04  0.90647344378E+02 0.  0.
          2    1    3    3  502    0 -0.18282299933E+03 -0.12424359973E+03  0.38879372006E+02  0.22443780146E+03  0.00000000000E+00 0. -1.
         -1    1    3    3    0  502 -0.19526010886E+02 -0.29638162635E+02 -0.23306815547E+02  0.42460492654E+02  0.00000000000E+00 0.  1.
         11    1    5    5    0    0  0.12676760382E+02  0.34498169294E+02  0.15128796636E+02  0.39745495670E+02  0.00000000000E+00 0. -1.
        -11    1    5    5    0    0  0.39285761586E+03  0.21572790613E+03  0.36355314823E+03  0.57710183453E+03  0.00000000000E+00 0.  1.
          2    1    6    6  503    0 -0.62566270566E+02 -0.34177079837E+02  0.18811807765E+03  0.20117410901E+03  0.00000000000E+00 0. -1.
         -2    1    6    6    0  503 -0.14061909546E+03 -0.62167233227E+02  0.96344333560E+03  0.97563392510E+03  0.00000000000E+00 0.  1.
<mgrwt>
<rscale>  0 0.13624737E+04</rscale>
<asrwt>0</asrwt>
<pdfrwt beam="1">  1        2 0.27741304E+00 0.13624737E+04</pdfrwt>
<pdfrwt beam="2">  1       -1 0.39595212E-01 0.13624737E+04</pdfrwt>
<totfact> 0.59295588E+01</totfact>
</mgrwt>
</event>
<event>
12    6  0.1627636E-007  0.1820027E+04  0.7818608E-02  0.8695721E-01
          2   -1    0    0  501    0  0.00000000000E+00  0.00000000000E+00  0.11481654954E+04  0.11481654954E+04  0.00000000000E+00 0. -1.
         -1   -1    0    0    0  501 -0.00000000000E+00 -0.00000000000E+00 -0.72125866831E+03  0.72125866831E+03  0.00000000000E+00 0.  1.
         24    2    1    2    0    0 -0.26991951038E+03  0.55242895569E+03 -0.52633081042E+02  0.62220827132E+03  0.79615315799E+02 0.  0.
        254    2    1    2    0    0  0.26991951038E+03 -0.55242895569E+03  0.47953990811E+03  0.12472158924E+04  0.97342419609E+03 0.  0.
         23    2    4    4    0    0 -0.13213717070E+03 -0.22289619822E+02  0.54836214732E+03  0.57209492834E+03  0.92922028579E+02 0.  0.
         23    2    4    4    0    0  0.40205668107E+03 -0.53013933587E+03 -0.68822239210E+02  0.67512096402E+03  0.91403091958E+02 0.  0.
          4    1    3    3  502    0 -0.32415750344E+02  0.27924259910E+02  0.70106862412E+01  0.43355448141E+02  0.00000000000E+00 0. -1.
         -3    1    3    3    0  502 -0.23750376003E+03  0.52450469578E+03 -0.59643767283E+02  0.57885282318E+03  0.00000000000E+00 0.  1.
         11    1    5    5    0    0 -0.42514079558E+02  0.36298045323E+02  0.17898610987E+03  0.18751272645E+03  0.00000000000E+00 0.  1.
        -11    1    5    5    0    0 -0.89623091139E+02 -0.58587665145E+02  0.36937603745E+03  0.38458220190E+03  0.00000000000E+00 0. -1.
          3    1    6    6  503    0  0.27025386219E+03 -0.28196643765E+03 -0.36576299757E+02  0.39227547425E+03  0.00000000000E+00 0. -1.
         -3    1    6    6    0  503  0.13180281888E+03 -0.24817289822E+03 -0.32245939453E+02  0.28284548977E+03  0.00000000000E+00 0.  1.
<mgrwt>
<rscale>  0 0.18200267E+04</rscale>
<asrwt>0</asrwt>
<pdfrwt beam="1">  1        2 0.17664084E+00 0.18200267E+04</pdfrwt>
<pdfrwt beam="2">  1       -1 0.11096287E+00 0.18200267E+04</pdfrwt>
<totfact> 0.16358075E+01</totfact>
</mgrwt>
</event>
<event>
12    6  0.1627636E-007  0.1752841E+04  0.7818608E-02  0.8731788E-01
         -3   -1    0    0    0  501 -0.00000000000E+00  0.00000000000E+00  0.22592829418E+04  0.22592829418E+04  0.00000000000E+00 0.  1.
          4   -1    0    0  501    0  0.00000000000E+00 -0.00000000000E+00 -0.33998077228E+03  0.33998077228E+03  0.00000000000E+00 0. -1.
         24    2    1    2    0    0 -0.25822216954E+02  0.63566219154E+03  0.57421883325E+03  0.86067336566E+03  0.79360980705E+02 0.  0.
        254    2    1    2    0    0  0.25822216954E+02 -0.63566219154E+03  0.13450833363E+04  0.17385903485E+04  0.89928527705E+03 0.  0.
         23    2    4    4    0    0  0.12700084659E+03 -0.72326127207E+03  0.53672173384E+03  0.91424087656E+03  0.92358421884E+02 0.  0.
         23    2    4    4    0    0 -0.10117862964E+03  0.87599080524E+02  0.80836160246E+03  0.82434947189E+03  0.90514404838E+02 0.  0.
          4    1    3    3  502    0 -0.39712317111E+02  0.52945348566E+03  0.44447671176E+03  0.69242877533E+03  0.00000000000E+00 0. -1.
         -3    1    3    3    0  502  0.13890100157E+02  0.10620870588E+03  0.12974212149E+03  0.16824459033E+03  0.00000000000E+00 0.  1.
         11    1    5    5    0    0  0.11515005749E+03 -0.42096702378E+03  0.29174320411E+03  0.52496368255E+03  0.00000000000E+00 0.  1.
        -11    1    5    5    0    0  0.11850789098E+02 -0.30229424829E+03  0.24497852973E+03  0.38927719401E+03  0.00000000000E+00 0. -1.
          2    1    6    6  503    0 -0.17549800523E+02  0.51630117618E+02  0.14769768818E+03  0.15744291549E+03  0.00000000000E+00 0. -1.
         -2    1    6    6    0  503 -0.83628829113E+02  0.35968962907E+02  0.66066391427E+03  0.66690655640E+03  0.00000000000E+00 0.  1.
<mgrwt>
<rscale>  0 0.17528408E+04</rscale>
<asrwt>0</asrwt>
<pdfrwt beam="1">  1        4 0.52304735E-01 0.17528408E+04</pdfrwt>
<pdfrwt beam="2">  1       -3 0.34758198E+00 0.17528408E+04</pdfrwt>
<totfact> 0.15810359E-01</totfact>
</mgrwt>
</event>
<event>
12    6  0.1627636E-007  0.1356254E+04  0.7818608E-02  0.8986107E-01
          2   -1    0    0  501    0  0.00000000000E+00  0.00000000000E+00  0.22825734554E+04  0.22825734554E+04  0.00000000000E+00 0. -1.
         -1   -1    0    0    0  501 -0.00000000000E+00 -0.00000000000E+00 -0.20146396196E+03  0.20146396196E+03  0.00000000000E+00 0.  1.
         24    2    1    2    0    0 -0.18099948581E+03  0.22908898362E+03  0.11729076563E+03  0.32438095644E+03  0.78887926317E+02 0.  0.
        254    2    1    2    0    0  0.18099948581E+03 -0.22908898362E+03  0.19638187278E+04  0.21596564609E+04  0.84987614227E+03 0.  0.
         23    2    4    4    0    0 -0.21320153409E+03 -0.99886127367E+02  0.15367091743E+04  0.15573178047E+04  0.91277193167E+02 0.  0.
         23    2    4    4    0    0  0.39420101990E+03 -0.12920285625E+03  0.42710955350E+03  0.60233865617E+03  0.91112369474E+02 0.  0.
          4    1    3    3  502    0 -0.24867789012E+01  0.44839002990E+02  0.27065823204E+02  0.52433567914E+02  0.00000000000E+00 0. -1.
         -3    1    3    3    0  502 -0.17851270690E+03  0.18424998063E+03  0.90224942424E+02  0.27194738852E+03  0.00000000000E+00 0.  1.
         11    1    5    5    0    0 -0.14820300388E+03 -0.36099108462E+02  0.74994352995E+03  0.76529900961E+03  0.00000000000E+00 0. -1.
        -11    1    5    5    0    0 -0.64998530215E+02 -0.63787018905E+02  0.78676564434E+03  0.79201879512E+03  0.00000000000E+00 0.  1.
          1    1    6    6  503    0  0.29635795241E+03 -0.95967211255E+02  0.37208461815E+03  0.48526766290E+03  0.00000000000E+00 0. -1.
         -1    1    6    6    0  503  0.97843067491E+02 -0.33235644998E+02  0.55024935343E+02  0.11707099326E+03  0.00000000000E+00 0.  1.
<mgrwt>
<rscale>  0 0.13562541E+04</rscale>
<asrwt>0</asrwt>
<pdfrwt beam="1">  1        2 0.35116513E+00 0.13562541E+04</pdfrwt>
<pdfrwt beam="2">  1       -1 0.30994457E-01 0.13562541E+04</pdfrwt>
<totfact> 0.49805949E+01</totfact>
</mgrwt>
</event>
<event>
12    6  0.1627636E-007  0.1592260E+04  0.7818608E-02  0.8825317E-01
          2   -1    0    0  501    0  0.00000000000E+00  0.00000000000E+00  0.12732547651E+04  0.12732547651E+04  0.00000000000E+00 0. -1.
         -1   -1    0    0    0  501 -0.00000000000E+00 -0.00000000000E+00 -0.49779721327E+03  0.49779721327E+03  0.00000000000E+00 0.  1.
         24    2    1    2    0    0  0.38851439102E+03 -0.19250768152E+03  0.61649828038E+03  0.75795716654E+03  0.80164188505E+02 0.  0.
        254    2    1    2    0    0 -0.38851439102E+03  0.19250768152E+03  0.15895927140E+03  0.10130948118E+04  0.90171525895E+03 0.  0.
         23    2    4    4    0    0 -0.15289917236E+03  0.50277245422E+03 -0.91543346132E+02  0.54092791899E+03  0.89802737634E+02 0.  0.
         23    2    4    4    0    0 -0.23561521866E+03 -0.31026477270E+03  0.25050261753E+03  0.47216689279E+03  0.91712882490E+02 0.  0.
          4    1    3    3  502    0  0.29268899969E+03 -0.12297941555E+03  0.49696924396E+03  0.58971960849E+03  0.00000000000E+00 0. -1.
         -3    1    3    3    0  502  0.95825391328E+02 -0.69528265966E+02  0.11952903642E+03  0.16823755805E+03  0.00000000000E+00 0.  1.
         11    1    5    5    0    0 -0.12815849844E+01  0.49954319901E+02 -0.32863933020E+02  0.59808984529E+02  0.00000000000E+00 0.  1.
        -11    1    5    5    0    0 -0.15161758737E+03  0.45281813432E+03 -0.58679413111E+02  0.48111893446E+03  0.00000000000E+00 0. -1.
          2    1    6    6  503    0 -0.20981279365E+03 -0.21088585996E+03  0.19041882091E+03  0.35320473053E+03  0.00000000000E+00 0. -1.
         -2    1    6    6    0  503 -0.25802425011E+02 -0.99378912742E+02  0.60083796620E+02  0.11896216226E+03  0.00000000000E+00 0.  1.
<mgrwt>
<rscale>  0 0.15922596E+04</rscale>
<asrwt>0</asrwt>
<pdfrwt beam="1">  1        2 0.19588535E+00 0.15922596E+04</pdfrwt>
<pdfrwt beam="2">  1       -1 0.76584187E-01 0.15922596E+04</pdfrwt>
<totfact> 0.32080923E+01</totfact>
</mgrwt>
</event>
<event>
12    6  0.1627636E-007  0.1920460E+04  0.7818608E-02  0.8644739E-01
          2   -1    0    0  501    0  0.00000000000E+00  0.00000000000E+00  0.11197983203E+04  0.11197983203E+04  0.00000000000E+00 0. -1.
         -1   -1    0    0    0  501 -0.00000000000E+00 -0.00000000000E+00 -0.82339960579E+03  0.82339960579E+03  0.00000000000E+00 0.  1.
         24    2    1    2    0    0 -0.55516585212E+03  0.48515257556E+03  0.24047045988E+03  0.77944498184E+03  0.78270637574E+02 0.  0.
        254    2    1    2    0    0  0.55516585212E+03 -0.48515257556E+03  0.55928254616E+02  0.11637529442E+04  0.89867168678E+03 0.  0.
         23    2    4    4    0    0 -0.13550202227E+03 -0.15202393936E+03 -0.24918102330E+03  0.33357700564E+03  0.87808656395E+02 0.  0.
         23    2    4    4    0    0  0.69066787440E+03 -0.33312863621E+03  0.30510927792E+03  0.83017593860E+03  0.90020089842E+02 0.  0.
          4    1    3    3  502    0 -0.44852914983E+03  0.36213594655E+03  0.21172924970E+03  0.61412548979E+03  0.00000000000E+00 0. -1.
         -3    1    3    3    0  502 -0.10663670229E+03  0.12301662901E+03  0.28741210176E+02  0.16531949205E+03  0.00000000000E+00 0.  1.
         11    1    5    5    0    0 -0.26549076825E+02 -0.59890893374E+02 -0.30023846098E+02  0.72063887794E+02  0.00000000000E+00 0.  1.
        -11    1    5    5    0    0 -0.10895294545E+03 -0.92133045984E+02 -0.21915717720E+03  0.26151311784E+03  0.00000000000E+00 0. -1.
          2    1    6    6  503    0  0.66928132343E+03 -0.32630876327E+03  0.27756436251E+03  0.79464260785E+03  0.00000000000E+00 0. -1.
         -2    1    6    6    0  503  0.21386550963E+02 -0.68198729366E+01  0.27544915409E+02  0.35533330746E+02  0.00000000000E+00 0.  1.
<mgrwt>
<rscale>  0 0.19204598E+04</rscale>
<asrwt>0</asrwt>
<pdfrwt beam="1">  1        2 0.17227666E+00 0.19204598E+04</pdfrwt>
<pdfrwt beam="2">  1       -1 0.12667686E+00 0.19204598E+04</pdfrwt>
<totfact> 0.12228341E+01</totfact>
</mgrwt>
</event>
<event>
12    6  0.1627636E-007  0.1959489E+04  0.7818608E-02  0.8625799E-01
         -1   -1    0    0    0  501 -0.00000000000E+00  0.00000000000E+00  0.58004779121E+03  0.58004779121E+03  0.00000000000E+00 0.  1.
          2   -1    0    0  501    0  0.00000000000E+00 -0.00000000000E+00 -0.16548617433E+04  0.16548617433E+04  0.00000000000E+00 0. -1.
         24    2    1    2    0    0  0.49941956325E+03  0.25213137229E+03  0.18019611149E+03  0.59333815560E+03  0.81175114628E+02 0.  0.
        254    2    1    2    0    0 -0.49941956325E+03 -0.25213137229E+03 -0.12550100636E+04  0.16415713789E+04  0.89817381575E+03 0.  0.
         23    2    4    4    0    0 -0.40396600203E+02  0.24651010543E+03 -0.72530731571E+02  0.27568541388E+03  0.91337960436E+02 0.  0.
         23    2    4    4    0    0 -0.45902296305E+03 -0.49864147772E+03 -0.11824793320E+04  0.13658859650E+04  0.89675497945E+02 0.  0.
          2    1    3    3  502    0  0.15741672385E+03  0.61040617897E+02  0.19747881968E+02  0.16998811965E+03  0.00000000000E+00 0. -1.
         -1    1    3    3    0  502  0.34200283940E+03  0.19109075440E+03  0.16044822952E+03  0.42335003594E+03  0.00000000000E+00 0.  1.
         11    1    5    5    0    0  0.55456690593E+01  0.47548828399E+02 -0.51651780755E+02  0.70424086665E+02  0.00000000000E+00 0.  1.
        -11    1    5    5    0    0 -0.45942269262E+02  0.19896127703E+03 -0.20878950816E+02  0.20526132721E+03  0.00000000000E+00 0. -1.
          4    1    6    6  503    0 -0.25514565704E+03 -0.32345380970E+03 -0.77574538272E+03  0.87835219140E+03  0.00000000000E+00 0. -1.
         -4    1    6    6    0  503 -0.20387730601E+03 -0.17518766802E+03 -0.40673394927E+03  0.48753377362E+03  0.00000000000E+00 0.  1.
<mgrwt>
<rscale>  0 0.19594886E+04</rscale>
<asrwt>0</asrwt>
<pdfrwt beam="1">  1        2 0.25459411E+00 0.19594886E+04</pdfrwt>
<pdfrwt beam="2">  1       -1 0.89238123E-01 0.19594886E+04</pdfrwt>
<totfact> 0.13579538E+01</totfact>
</mgrwt>
</event>
<event>
12    6  0.1627636E-007  0.2330335E+04  0.7818608E-02  0.8466055E-01
         -1   -1    0    0    0  501 -0.00000000000E+00  0.00000000000E+00  0.97849039610E+03  0.97849039610E+03  0.00000000000E+00 0.  1.
          2   -1    0    0  501    0  0.00000000000E+00 -0.00000000000E+00 -0.13874595692E+04  0.13874595692E+04  0.00000000000E+00 0. -1.
         24    2    1    2    0    0 -0.66278135908E+03  0.35442082854E+03 -0.86939173389E+03  0.11518036423E+04  0.76918071373E+02 0.  0.
        254    2    1    2    0    0  0.66278135908E+03 -0.35442082854E+03  0.46042256078E+03  0.12141463231E+04  0.83502641015E+03 0.  0.
         23    2    4    4    0    0 -0.15510643637E+03 -0.69371539588E+02 -0.59543366215E+02  0.19987098537E+03  0.86790444319E+02 0.  0.
         23    2    4    4    0    0  0.81788779545E+03 -0.28504928895E+03  0.51996592700E+03  0.10142753377E+04  0.90533708125E+02 0.  0.
          4    1    3    3  502    0 -0.23192090791E+03  0.84220395769E+02 -0.27151888723E+03  0.36688266341E+03  0.00000000000E+00 0. -1.
         -3    1    3    3    0  502 -0.43086045117E+03  0.27020043277E+03 -0.59787284666E+03  0.78492097885E+03  0.00000000000E+00 0.  1.
         11    1    5    5    0    0 -0.70856367306E+02 -0.71306320330E+02 -0.74561815193E+01  0.10080084697E+03  0.00000000000E+00 0. -1.
        -11    1    5    5    0    0 -0.84250069063E+02  0.19347807412E+01 -0.52087184695E+02  0.99070138402E+02  0.00000000000E+00 0.  1.
          1    1    6    6  503    0  0.69166547834E+03 -0.21863526347E+03  0.40304453319E+03  0.82984782225E+03  0.00000000000E+00 0. -1.
         -1    1    6    6    0  503  0.12622231711E+03 -0.66414025485E+02  0.11692139380E+03  0.18442751543E+03  0.00000000000E+00 0.  1.
<mgrwt>
<rscale>  0 0.23303355E+04</rscale>
<asrwt>0</asrwt>
<pdfrwt beam="1">  1        2 0.21345532E+00 0.23303355E+04</pdfrwt>
<pdfrwt beam="2">  1       -1 0.15053698E+00 0.23303355E+04</pdfrwt>
<totfact> 0.52388612E+00</totfact>
</mgrwt>
</event>
<event>
12    6  0.1627636E-007  0.2537422E+04  0.7818608E-02  0.8389774E-01
         -1   -1    0    0    0  501 -0.00000000000E+00  0.00000000000E+00  0.74580989343E+03  0.74580989343E+03  0.00000000000E+00 0.  1.
          2   -1    0    0  501    0  0.00000000000E+00 -0.00000000000E+00 -0.21582285087E+04  0.21582285087E+04  0.00000000000E+00 0. -1.
         24    2    1    2    0    0 -0.51054577205E+03  0.91257813067E+03 -0.10104191274E+04  0.14563775670E+04  0.81443077289E+02 0.  0.
        254    2    1    2    0    0  0.51054577205E+03 -0.91257813067E+03 -0.40199948789E+03  0.14476608351E+04  0.91687647766E+03 0.  0.
         23    2    4    4    0    0 -0.43040395587E+02  0.15388496264E+03 -0.32926642606E+02  0.18736622618E+03  0.92135126517E+02 0.  0.
         23    2    4    4    0    0  0.55358616764E+03 -0.10664630933E+04 -0.36907284528E+03  0.12602946089E+04  0.91249995951E+02 0.  0.
          2    1    3    3  502    0 -0.48183396784E+03  0.87660791998E+03 -0.94280649420E+03  0.13745870301E+04  0.00000000000E+00 0. -1.
         -1    1    3    3    0  502 -0.28711804214E+02  0.35970210693E+02 -0.67612633204E+02  0.81790536905E+02  0.00000000000E+00 0.  1.
         11    1    5    5    0    0 -0.55794575200E+02  0.14715577036E+03 -0.49894901954E+02  0.16509802123E+03  0.00000000000E+00 0.  1.
        -11    1    5    5    0    0  0.12754179613E+02  0.67291922832E+01  0.16968259348E+02  0.22268204950E+02  0.00000000000E+00 0. -1.
          1    1    6    6  503    0  0.19100063958E+03 -0.33534571174E+03 -0.16053739304E+03  0.41798354664E+03  0.00000000000E+00 0. -1.
         -1    1    6    6    0  503  0.36258552806E+03 -0.73111738157E+03 -0.20853545224E+03  0.84231106228E+03  0.00000000000E+00 0.  1.
<mgrwt>
<rscale>  0 0.25374225E+04</rscale>
<asrwt>0</asrwt>
<pdfrwt beam="1">  1        2 0.33203515E+00 0.25374225E+04</pdfrwt>
<pdfrwt beam="2">  1       -1 0.11473998E+00 0.25374225E+04</pdfrwt>
<totfact> 0.38045232E+00</totfact>
</mgrwt>
</event>
<event>
12    6  0.1627636E-007  0.1545673E+04  0.7818608E-02  0.8854636E-01
          2   -1    0    0  501    0  0.00000000000E+00  0.00000000000E+00  0.12766156325E+04  0.12766156325E+04  0.00000000000E+00 0. -1.
         -1   -1    0    0    0  501 -0.00000000000E+00 -0.00000000000E+00 -0.46785900698E+03  0.46785900698E+03  0.00000000000E+00 0.  1.
         24    2    1    2    0    0  0.22174084647E+00  0.26033362814E+03 -0.22358416167E+03  0.35221470691E+03  0.79320081343E+02 0.  0.
        254    2    1    2    0    0 -0.22174084647E+00 -0.26033362814E+03  0.10323407872E+04  0.13922599326E+04  0.89715470896E+03 0.  0.
         23    2    4    4    0    0 -0.12051758666E+03 -0.63057439555E+02  0.11175283580E+04  0.11292680859E+04  0.88747110379E+02 0.  0.
         23    2    4    4    0    0  0.12029584581E+03 -0.19727618858E+03 -0.85187570834E+02  0.26299184660E+03  0.92297367541E+02 0.  0.
          4    1    3    3  502    0  0.38260192677E+01  0.96505749408E+02 -0.13483734436E+03  0.16585869747E+03  0.00000000000E+00 0. -1.
         -3    1    3    3    0  502 -0.36042784213E+01  0.16382787873E+03 -0.88746817317E+02  0.18635600944E+03  0.00000000000E+00 0.  1.
         11    1    5    5    0    0 -0.90009785510E+02 -0.46677338420E+02  0.46989725280E+03  0.48071193411E+03  0.00000000000E+00 0.  1.
        -11    1    5    5    0    0 -0.30507801150E+02 -0.16380101135E+02  0.64763110522E+03  0.64855615184E+03  0.00000000000E+00 0. -1.
          4    1    6    6  503    0  0.13069487948E+03 -0.19163785818E+03 -0.91769078935E+02  0.24945497401E+03  0.00000000000E+00 0. -1.
         -4    1    6    6    0  503 -0.10399033662E+02 -0.56383303996E+01  0.65815081008E+01  0.13536872596E+02  0.00000000000E+00 0.  1.
<mgrwt>
<rscale>  0 0.15456728E+04</rscale>
<asrwt>0</asrwt>
<pdfrwt beam="1">  1        2 0.19640240E+00 0.15456728E+04</pdfrwt>
<pdfrwt beam="2">  1       -1 0.71978309E-01 0.15456728E+04</pdfrwt>
<totfact> 0.36481649E+01</totfact>
</mgrwt>
</event>
<event>
12    6  0.1627636E-007  0.2233988E+04  0.7818608E-02  0.8504413E-01
          2   -1    0    0  501    0  0.00000000000E+00  0.00000000000E+00  0.13949812181E+04  0.13949812181E+04  0.00000000000E+00 0. -1.
         -1   -1    0    0    0  501 -0.00000000000E+00 -0.00000000000E+00 -0.89440329322E+03  0.89440329322E+03  0.00000000000E+00 0.  1.
         24    2    1    2    0    0  0.58560391801E+03  0.46627744170E+03 -0.36254578258E+03  0.83545148745E+03  0.78696518282E+02 0.  0.
        254    2    1    2    0    0 -0.58560391801E+03 -0.46627744170E+03  0.86312370745E+03  0.14539330239E+04  0.89921749432E+03 0.  0.
         23    2    4    4    0    0 -0.42279535425E+03  0.19957662178E+03  0.39640969707E+03  0.62010800608E+03  0.93843229587E+02 0.  0.
         23    2    4    4    0    0 -0.16280856375E+03 -0.66585406348E+03  0.46671401038E+03  0.83382501778E+03  0.87028331610E+02 0.  0.
          4    1    3    3  502    0  0.78006268520E+02  0.86450770322E+02 -0.80558679201E+02  0.14159242357E+03  0.00000000000E+00 0. -1.
         -3    1    3    3    0  502  0.50759764949E+03  0.37982667138E+03 -0.28198710338E+03  0.69385906388E+03  0.00000000000E+00 0.  1.
         11    1    5    5    0    0 -0.25389538561E+03  0.11189617845E+03  0.29299506354E+03  0.40352165845E+03  0.00000000000E+00 0. -1.
        -11    1    5    5    0    0 -0.16889996865E+03  0.87680443323E+02  0.10341463353E+03  0.21658634763E+03  0.00000000000E+00 0.  1.
          1    1    6    6  503    0 -0.40533019329E+02 -0.10036869368E+03  0.41962570132E+02  0.11609331427E+03  0.00000000000E+00 0. -1.
         -1    1    6    6    0  503 -0.12227554442E+03 -0.56548536980E+03  0.42475144025E+03  0.71773170350E+03  0.00000000000E+00 0.  1.
<mgrwt>
<rscale>  0 0.22339882E+04</rscale>
<asrwt>0</asrwt>
<pdfrwt beam="1">  1        2 0.21461250E+00 0.22339882E+04</pdfrwt>
<pdfrwt beam="2">  1       -1 0.13760051E+00 0.22339882E+04</pdfrwt>
<totfact> 0.66346369E+00</totfact>
</mgrwt>
</event>
<event>
12    6  0.1627636E-007  0.1332652E+04  0.7818608E-02  0.9004065E-01
         -1   -1    0    0    0  501 -0.00000000000E+00  0.00000000000E+00  0.11293422579E+03  0.11293422579E+03  0.00000000000E+00 0.  1.
          2   -1    0    0  501    0  0.00000000000E+00 -0.00000000000E+00 -0.39314045745E+04  0.39314045745E+04  0.00000000000E+00 0. -1.
         24    2    1    2    0    0  0.17137038922E+02  0.31152683376E+03 -0.15818203552E+04  0.16144944546E+04  0.84226252285E+02 0.  0.
        254    2    1    2    0    0 -0.17137038922E+02 -0.31152683376E+03 -0.22366499934E+04  0.24298443456E+04  0.89677070900E+03 0.  0.
         23    2    4    4    0    0  0.17476004349E+03 -0.45769952070E+03 -0.20545267862E+04  0.21140159434E+04  0.89180545563E+02 0.  0.
         23    2    4    4    0    0 -0.19189708241E+03  0.14617268694E+03 -0.18212320728E+03  0.31582840225E+03  0.91584782549E+02 0.  0.
          2    1    3    3  502    0 -0.48492169284E+01  0.90116288901E+02 -0.29214150574E+03  0.30576317601E+03  0.00000000000E+00 0. -1.
         -1    1    3    3    0  502  0.21986255850E+02  0.22141054486E+03 -0.12896788495E+04  0.13087312786E+04  0.00000000000E+00 0.  1.
         11    1    5    5    0    0 -0.39338768897E+01 -0.71454338473E+02 -0.34131944175E+03  0.34874081951E+03  0.00000000000E+00 0. -1.
        -11    1    5    5    0    0  0.17869392038E+03 -0.38624518223E+03 -0.17132073444E+04  0.17652751239E+04  0.00000000000E+00 0.  1.
          1    1    6    6  503    0 -0.76573797507E+02  0.41893254841E+02 -0.16811643080E+02  0.88888821619E+02  0.00000000000E+00 0. -1.
         -1    1    6    6    0  503 -0.11532328490E+03  0.10427943210E+03 -0.16531156420E+03  0.22693958063E+03  0.00000000000E+00 0.  1.
<mgrwt>
<rscale>  0 0.13326517E+04</rscale>
<asrwt>0</asrwt>
<pdfrwt beam="1">  1        2 0.60483145E+00 0.13326517E+04</pdfrwt>
<pdfrwt beam="2">  1       -1 0.17374497E-01 0.13326517E+04</pdfrwt>
<totfact> 0.11519026E+01</totfact>
</mgrwt>
</event>
<event>
12    6  0.1921921E-007  0.1893401E+04  0.7818608E-02  0.8658148E-01
          2   -1    0    0  501    0  0.00000000000E+00  0.00000000000E+00  0.15383479086E+04  0.15383479086E+04  0.00000000000E+00 0. -1.
         -1   -1    0    0    0  501 -0.00000000000E+00 -0.00000000000E+00 -0.58260018362E+03  0.58260018362E+03  0.00000000000E+00 0.  1.
         24    2    1    2    0    0  0.13860028572E+02 -0.24039037908E+03  0.11480204883E+04  0.11756818881E+04  0.79355061457E+02 0.  0.
        254    2    1    2    0    0 -0.13860028572E+02  0.24039037908E+03 -0.19227276336E+03  0.94526620406E+03  0.89363289233E+03 0.  0.
         23    2    4    4    0    0  0.32021150982E+03 -0.16856876245E+03 -0.16625061831E+03  0.40877868180E+03  0.92249140444E+02 0.  0.
         23    2    4    4    0    0 -0.33407153839E+03  0.40895914153E+03 -0.26022145050E+02  0.53648752226E+03  0.91051289398E+02 0.  0.
          2    1    3    3  502    0 -0.63841192462E+01 -0.20356143743E+03  0.81688644920E+03  0.84189161218E+03  0.00000000000E+00 0. -1.
         -1    1    3    3    0  502  0.20244147819E+02 -0.36828941656E+02  0.33113403911E+03  0.33379027596E+03  0.00000000000E+00 0.  1.
         11    1    5    5    0    0  0.76730522414E+01  0.99560372907E+00  0.94094396622E+01  0.12182139067E+02  0.00000000000E+00 0. -1.
        -11    1    5    5    0    0  0.31253845758E+03 -0.16956436618E+03 -0.17566005797E+03  0.39659654273E+03  0.00000000000E+00 0.  1.
          3    1    6    6  503    0 -0.75499956247E+02  0.40387784391E+02 -0.50595096987E+01  0.85773044482E+02  0.00000000000E+00 0. -1.
         -3    1    6    6    0  503 -0.25857158214E+03  0.36857135714E+03 -0.20962635351E+02  0.45071447778E+03  0.00000000000E+00 0.  1.
<mgrwt>
<rscale>  0 0.18934009E+04</rscale>
<asrwt>0</asrwt>
<pdfrwt beam="1">  1        2 0.23666891E+00 0.18934009E+04</pdfrwt>
<pdfrwt beam="2">  1       -1 0.89630798E-01 0.18934009E+04</pdfrwt>
<totfact> 0.15717015E+01</totfact>
</mgrwt>
</event>
<event>
12    6  0.1627636E-007  0.1487007E+04  0.7818608E-02  0.8893139E-01
          2   -1    0    0  501    0  0.00000000000E+00  0.00000000000E+00  0.19855613483E+04  0.19855613483E+04  0.00000000000E+00 0. -1.
         -1   -1    0    0    0  501 -0.00000000000E+00 -0.00000000000E+00 -0.27840863966E+03  0.27840863966E+03  0.00000000000E+00 0.  1.
         24    2    1    2    0    0  0.29127033796E+03 -0.14991616539E+03  0.52157089739E+02  0.34132557689E+03  0.80433332708E+02 0.  0.
        254    2    1    2    0    0 -0.29127033796E+03  0.14991616539E+03  0.16549956189E+04  0.19226444111E+04  0.92208338364E+03 0.  0.
         23    2    4    4    0    0  0.10423004469E+03 -0.17469441265E+03  0.12325302280E+04  0.12526388687E+04  0.92689440527E+02 0.  0.
         23    2    4    4    0    0 -0.39550038265E+03  0.32461057805E+03  0.42246539091E+03  0.67000554237E+03  0.92939981924E+02 0.  0.
          2    1    3    3  502    0  0.86832069173E+01  0.57801419513E+01 -0.79737388458E+01  0.13129685241E+02  0.00000000000E+00 0. -1.
         -1    1    3    3    0  502  0.28258713104E+03 -0.15569630734E+03  0.60130828585E+02  0.32819589165E+03  0.00000000000E+00 0.  1.
         11    1    5    5    0    0  0.17905271984E+02 -0.22365956220E+02  0.53587222614E+02  0.60765328848E+02  0.00000000000E+00 0. -1.
        -11    1    5    5    0    0  0.86324772706E+02 -0.15232845643E+03  0.11789430054E+04  0.11918735399E+04  0.00000000000E+00 0.  1.
          3    1    6    6  503    0 -0.97267839525E+02  0.42486678502E+02  0.11919335046E+03  0.15960327456E+03  0.00000000000E+00 0. -1.
         -3    1    6    6    0  503 -0.29823254313E+03  0.28212389955E+03  0.30327204045E+03  0.51040226782E+03  0.00000000000E+00 0.  1.
<mgrwt>
<rscale>  0 0.14870070E+04</rscale>
<asrwt>0</asrwt>
<pdfrwt beam="1">  1        2 0.30547097E+00 0.14870070E+04</pdfrwt>
<pdfrwt beam="2">  1       -1 0.42832100E-01 0.14870070E+04</pdfrwt>
<totfact> 0.40271610E+01</totfact>
</mgrwt>
</event>
<event>
12    6  0.1627636E-007  0.1735676E+04  0.7818608E-02  0.8741275E-01
         -1   -1    0    0    0  501 -0.00000000000E+00  0.00000000000E+00  0.36356398537E+03  0.36356398537E+03  0.00000000000E+00 0.  1.
          2   -1    0    0  501    0  0.00000000000E+00 -0.00000000000E+00 -0.20715547979E+04  0.20715547979E+04  0.00000000000E+00 0. -1.
         24    2    1    2    0    0 -0.26736143868E+02  0.21105815473E+03  0.20662224129E+03  0.30765203231E+03  0.81833100403E+02 0.  0.
        254    2    1    2    0    0  0.26736143868E+02 -0.21105815473E+03 -0.19146130538E+04  0.21274667510E+04  0.90283512586E+03 0.  0.
         23    2    4    4    0    0 -0.19516842242E+03  0.56502664794E+02 -0.16891253962E+04  0.17035282477E+04  0.87066769452E+02 0.  0.
         23    2    4    4    0    0  0.22190456629E+03 -0.26756081952E+03 -0.22548765766E+03  0.42393850330E+03  0.89714782175E+02 0.  0.
          2    1    3    3  502    0 -0.30108182678E+02  0.97433284843E+02  0.48539679223E+02  0.11294179084E+03  0.00000000000E+00 0. -1.
         -3    1    3    3    0  502  0.33720388095E+01  0.11362486989E+03  0.15808256207E+03  0.19471024147E+03  0.00000000000E+00 0.  1.
         11    1    5    5    0    0 -0.27588009204E+02  0.44313025744E+02 -0.46649166280E+03  0.46940304000E+03  0.00000000000E+00 0.  1.
        -11    1    5    5    0    0 -0.16758041322E+03  0.12189639049E+02 -0.12226337334E+04  0.12341252077E+04  0.00000000000E+00 0. -1.
          2    1    6    6  503    0  0.16976135660E+03 -0.23919099433E+03 -0.15487348233E+03  0.33168817509E+03  0.00000000000E+00 0. -1.
         -2    1    6    6    0  503  0.52143209688E+02 -0.28369825193E+02 -0.70614175332E+02  0.92250328215E+02  0.00000000000E+00 0.  1.
<mgrwt>
<rscale>  0 0.17356759E+04</rscale>
<asrwt>0</asrwt>
<pdfrwt beam="1">  1        2 0.31870074E+00 0.17356759E+04</pdfrwt>
<pdfrwt beam="2">  1       -1 0.55932921E-01 0.17356759E+04</pdfrwt>
<totfact> 0.21300887E+01</totfact>
</mgrwt>
</event>
<event>
12    6  0.1627636E-007  0.1725222E+04  0.7818608E-02  0.8747109E-01
          2   -1    0    0  501    0  0.00000000000E+00  0.00000000000E+00  0.11673768668E+04  0.11673768668E+04  0.00000000000E+00 0. -1.
         -1   -1    0    0    0  501 -0.00000000000E+00 -0.00000000000E+00 -0.63741003283E+03  0.63741003283E+03  0.00000000000E+00 0.  1.
         24    2    1    2    0    0  0.16973668428E+03  0.27559902036E+03 -0.37025562616E+03  0.49793364675E+03  0.77995678404E+02 0.  0.
        254    2    1    2    0    0 -0.16973668428E+03 -0.27559902036E+03  0.90022246010E+03  0.13068532528E+04  0.89033678166E+03 0.  0.
         23    2    4    4    0    0  0.85717112987E+02 -0.39522045981E+03  0.63626512018E+02  0.41939568573E+03  0.91092111989E+02 0.  0.
         23    2    4    4    0    0 -0.25545379727E+03  0.11962143944E+03  0.83659594808E+03  0.88745756711E+03  0.90123369699E+02 0.  0.
          2    1    3    3  502    0  0.16429414781E+03  0.24884258875E+03 -0.30193188218E+03  0.42435605623E+03  0.00000000000E+00 0. -1.
         -1    1    3    3    0  502  0.54425364682E+01  0.26756431610E+02 -0.68323743977E+02  0.73577590521E+02  0.00000000000E+00 0.  1.
         11    1    5    5    0    0  0.10394001490E+03 -0.35136437535E+03  0.48844076337E+02  0.36965686083E+03  0.00000000000E+00 0.  1.
        -11    1    5    5    0    0 -0.18222901912E+02 -0.43856084460E+02  0.14782435681E+02  0.49738824905E+02  0.00000000000E+00 0. -1.
          3    1    6    6  503    0 -0.85486780543E+02  0.47312799353E+02  0.17353822497E+03  0.19915322281E+03  0.00000000000E+00 0. -1.
         -3    1    6    6    0  503 -0.16996701672E+03  0.72308640092E+02  0.66305772311E+03  0.68830434430E+03  0.00000000000E+00 0.  1.
<mgrwt>
<rscale>  0 0.17252220E+04</rscale>
<asrwt>0</asrwt>
<pdfrwt beam="1">  1        2 0.17959644E+00 0.17252220E+04</pdfrwt>
<pdfrwt beam="2">  1       -1 0.98063082E-01 0.17252220E+04</pdfrwt>
<totfact> 0.21390541E+01</totfact>
</mgrwt>
</event>
<event>
12    6  0.1627636E-007  0.1648318E+04  0.7818608E-02  0.8791402E-01
          2   -1    0    0  501    0  0.00000000000E+00  0.00000000000E+00  0.15473689618E+04  0.15473689618E+04  0.00000000000E+00 0. -1.
         -1   -1    0    0    0  501 -0.00000000000E+00 -0.00000000000E+00 -0.43896307178E+03  0.43896307178E+03  0.00000000000E+00 0.  1.
         24    2    1    2    0    0  0.35223099354E+03 -0.37005261124E+03  0.24919427365E+03  0.57398811039E+03  0.79743068425E+02 0.  0.
        254    2    1    2    0    0 -0.35223099354E+03  0.37005261124E+03  0.85921161635E+03  0.14123439232E+04  0.99772999740E+03 0.  0.
         23    2    4    4    0    0 -0.43319419230E+03  0.65368175904E+03  0.48025831168E+03  0.92378489214E+03  0.88167061022E+02 0.  0.
         23    2    4    4    0    0  0.80963198757E+02 -0.28362914781E+03  0.37895330467E+03  0.48855903102E+03  0.89909880628E+02 0.  0.
          4    1    3    3  502    0  0.30726981730E+03 -0.27858003784E+03  0.20882962009E+03  0.46436126920E+03  0.00000000000E+00 0. -1.
         -3    1    3    3    0  502  0.44961176234E+02 -0.91472573401E+02  0.40364653553E+02  0.10962684119E+03  0.00000000000E+00 0.  1.
         11    1    5    5    0    0 -0.23840064431E+03  0.42809486358E+03  0.32191562046E+03  0.58628469716E+03  0.00000000000E+00 0. -1.
        -11    1    5    5    0    0 -0.19479354799E+03  0.22558689547E+03  0.15834269123E+03  0.33750019498E+03  0.00000000000E+00 0.  1.
          1    1    6    6  503    0 -0.17100569884E+02 -0.50210679600E+02  0.45525644124E+02  0.69900830532E+02  0.00000000000E+00 0. -1.
         -1    1    6    6    0  503  0.98063768641E+02 -0.23341846821E+03  0.33342766054E+03  0.41865820049E+03  0.00000000000E+00 0.  1.
<mgrwt>
<rscale>  0 0.16483177E+04</rscale>
<asrwt>0</asrwt>
<pdfrwt beam="1">  1        2 0.23805676E+00 0.16483177E+04</pdfrwt>
<pdfrwt beam="2">  1       -1 0.67532781E-01 0.16483177E+04</pdfrwt>
<totfact> 0.28853336E+01</totfact>
</mgrwt>
</event>
<event>
12    6  0.1627636E-007  0.2683161E+04  0.7818608E-02  0.8340489E-01
          2   -1    0    0  501    0  0.00000000000E+00  0.00000000000E+00  0.12660818410E+04  0.12660818410E+04  0.00000000000E+00 0. -1.
         -1   -1    0    0    0  501 -0.00000000000E+00 -0.00000000000E+00 -0.14215814373E+04  0.14215814373E+04  0.00000000000E+00 0.  1.
         24    2    1    2    0    0  0.21412896883E+03  0.31926200942E+03  0.10514182175E+04  0.11219126866E+04  0.73677420579E+02 0.  0.
        254    2    1    2    0    0 -0.21412896883E+03 -0.31926200942E+03 -0.12069178137E+04  0.15657505917E+04  0.92040472638E+03 0.  0.
         23    2    4    4    0    0 -0.30308574032E+03  0.12192292985E+03 -0.79847077698E+02  0.34866802743E+03  0.92019947443E+02 0.  0.
         23    2    4    4    0    0  0.88956771486E+02 -0.44118493927E+03 -0.11270707360E+04  0.12170825643E+04  0.91891601232E+02 0.  0.
          4    1    3    3  502    0  0.17310800019E+03  0.29929968350E+03  0.93405680918E+03  0.99599638707E+03  0.00000000000E+00 0. -1.
         -3    1    3    3    0  502  0.41020968638E+02  0.19962325913E+02  0.11736140830E+03  0.12591629951E+03  0.00000000000E+00 0.  1.
         11    1    5    5    0    0 -0.92848609605E+02  0.33175328965E+02  0.18255669552E+02  0.10027330766E+03  0.00000000000E+00 0.  1.
        -11    1    5    5    0    0 -0.21023713071E+03  0.88747600890E+02 -0.98102747250E+02  0.24839471978E+03  0.00000000000E+00 0. -1.
          3    1    6    6  503    0  0.89188192089E+02 -0.40493360789E+03 -0.10851009498E+04  0.11616237909E+04  0.00000000000E+00 0. -1.
         -3    1    6    6    0  503 -0.23142060300E+00 -0.36251331382E+02 -0.41969786220E+02  0.55458773317E+02  0.00000000000E+00 0.  1.
<mgrwt>
<rscale>  0 0.26831612E+04</rscale>
<asrwt>0</asrwt>
<pdfrwt beam="1">  1        2 0.19478182E+00 0.26831612E+04</pdfrwt>
<pdfrwt beam="2">  1       -1 0.21870484E+00 0.26831612E+04</pdfrwt>
<totfact> 0.19448351E+00</totfact>
</mgrwt>
</event>
<event>
12    6  0.1627636E-007  0.3881275E+04  0.7818608E-02  0.8028935E-01
          2   -1    0    0  501    0  0.00000000000E+00  0.00000000000E+00  0.36519511456E+04  0.36519511456E+04  0.00000000000E+00 0. -1.
         -1   -1    0    0    0  501 -0.00000000000E+00 -0.00000000000E+00 -0.10312500523E+04  0.10312500523E+04  0.00000000000E+00 0.  1.
         24    2    1    2    0    0  0.89093980780E+03  0.99559440560E+02  0.31790943913E+04  0.33040232998E+04  0.79012616552E+02 0.  0.
        254    2    1    2    0    0 -0.89093980780E+03 -0.99559440560E+02 -0.55839329803E+03  0.13791778981E+04  0.88692884501E+03 0.  0.
         23    2    4    4    0    0 -0.55999868582E+03 -0.60443736996E+02  0.15054174082E+03  0.59033529386E+03  0.92633525169E+02 0.  0.
         23    2    4    4    0    0 -0.33094112198E+03 -0.39115703564E+02 -0.70893503885E+03  0.78884260428E+03  0.92906945622E+02 0.  0.
          2    1    3    3  502    0  0.52027127114E+03  0.82250648550E+02  0.19763639403E+04  0.20453512631E+04  0.00000000000E+00 0. -1.
         -1    1    3    3    0  502  0.37066853666E+03  0.17308792010E+02  0.12027304510E+04  0.12586720368E+04  0.00000000000E+00 0.  1.
         11    1    5    5    0    0 -0.33547893123E+03  0.96263028982E+01  0.89057550327E+02  0.34723194882E+03  0.00000000000E+00 0. -1.
        -11    1    5    5    0    0 -0.22451975458E+03 -0.70070039894E+02  0.61484190488E+02  0.24310334504E+03  0.00000000000E+00 0.  1.
          3    1    6    6  503    0 -0.24636116092E+03 -0.50662597861E+02 -0.59895253560E+03  0.64961885775E+03  0.00000000000E+00 0. -1.
         -3    1    6    6    0  503 -0.84579961056E+02  0.11546894297E+02 -0.10998250325E+03  0.13922374654E+03  0.00000000000E+00 0.  1.
<mgrwt>
<rscale>  0 0.38812755E+04</rscale>
<asrwt>0</asrwt>
<pdfrwt beam="1">  1        2 0.56183863E+00 0.38812755E+04</pdfrwt>
<pdfrwt beam="2">  1       -1 0.15865386E+00 0.38812755E+04</pdfrwt>
<totfact> 0.17081904E-01</totfact>
</mgrwt>
</event>
<event>
12    6  0.1627636E-007  0.2039430E+04  0.7818608E-02  0.8588404E-01
         -1   -1    0    0    0  501 -0.00000000000E+00  0.00000000000E+00  0.14182978988E+04  0.14182978988E+04  0.00000000000E+00 0.  1.
          2   -1    0    0  501    0  0.00000000000E+00 -0.00000000000E+00 -0.73314559960E+03  0.73314559960E+03  0.00000000000E+00 0. -1.
         24    2    1    2    0    0  0.66624779123E+03 -0.48321975851E+03  0.25346743698E+03  0.86501037991E+03  0.81300439194E+02 0.  0.
        254    2    1    2    0    0 -0.66624779123E+03  0.48321975851E+03  0.43168486218E+03  0.12864331185E+04  0.88947787701E+03 0.  0.
         23    2    4    4    0    0 -0.78569677473E+03  0.38635563547E+03  0.71505338660E+02  0.88396563433E+03  0.98448617839E+02 0.  0.
         23    2    4    4    0    0  0.11944898350E+03  0.96864123039E+02  0.36017952352E+03  0.40246748412E+03  0.92736554943E+02 0.  0.
          4    1    3    3  502    0  0.61193125782E+03 -0.42747130037E+03  0.24960782851E+03  0.78708045649E+03  0.00000000000E+00 0. -1.
         -3    1    3    3    0  502  0.54316533407E+02 -0.55748458135E+02  0.38596084641E+01  0.77929923414E+02  0.00000000000E+00 0.  1.
         11    1    5    5    0    0 -0.28711312505E+03  0.95614955430E+02  0.18977797644E+01  0.30262149271E+03  0.00000000000E+00 0.  1.
        -11    1    5    5    0    0 -0.49858364967E+03  0.29074068004E+03  0.69607558895E+02  0.58134414163E+03  0.00000000000E+00 0. -1.
          3    1    6    6  503    0  0.57581767599E+02  0.93932777976E+01  0.21022957579E+03  0.21817508603E+03  0.00000000000E+00 0. -1.
         -3    1    6    6    0  503  0.61867215901E+02  0.87470845242E+02  0.14994994772E+03  0.18429239809E+03  0.00000000000E+00 0.  1.
<mgrwt>
<rscale>  0 0.20394302E+04</rscale>
<asrwt>0</asrwt>
<pdfrwt beam="1">  1        2 0.11279163E+00 0.20394302E+04</pdfrwt>
<pdfrwt beam="2">  1       -1 0.21819968E+00 0.20394302E+04</pdfrwt>
<totfact> 0.46188119E+00</totfact>
</mgrwt>
</event>
<event>
12    6  0.1627636E-007  0.9905453E+03  0.7818608E-02  0.9318976E-01
         -1   -1    0    0    0  501 -0.00000000000E+00  0.00000000000E+00  0.15738685609E+03  0.15738685609E+03  0.00000000000E+00 0.  1.
          2   -1    0    0  501    0  0.00000000000E+00 -0.00000000000E+00 -0.15585482339E+04  0.15585482339E+04  0.00000000000E+00 0. -1.
         24    2    1    2    0    0  0.38830986631E+02 -0.68836116900E+01 -0.17402330051E+03  0.19653124580E+03  0.82372275826E+02 0.  0.
        254    2    1    2    0    0 -0.38830986631E+02  0.68836116900E+01 -0.12271380773E+04  0.15194038442E+04  0.89507818168E+03 0.  0.
         23    2    4    4    0    0 -0.37279035951E+03  0.15129188369E+03 -0.27438296082E+03  0.49548887098E+03  0.91440285745E+02 0.  0.
         23    2    4    4    0    0  0.33395937288E+03 -0.14440827200E+03 -0.95275511646E+03  0.10239149732E+04  0.90977736923E+02 0.  0.
          4    1    3    3  502    0  0.79994567605E+00 -0.21767165002E+01 -0.15262076398E+03  0.15263838183E+03  0.00000000000E+00 0. -1.
         -3    1    3    3    0  502  0.38031040955E+02 -0.47068951897E+01 -0.21402536525E+02  0.43892863977E+02  0.00000000000E+00 0.  1.
         11    1    5    5    0    0 -0.52148097713E+02 -0.95954028839E+01 -0.46187063728E+02  0.70318850299E+02  0.00000000000E+00 0. -1.
        -11    1    5    5    0    0 -0.32064226180E+03  0.16088728657E+03 -0.22819589709E+03  0.42517002068E+03  0.00000000000E+00 0.  1.
          4    1    6    6  503    0  0.19175408352E+02  0.12683266595E+02 -0.49999858712E+02  0.55032239716E+02  0.00000000000E+00 0. -1.
         -4    1    6    6    0  503  0.31478396453E+03 -0.15709153860E+03 -0.90275525775E+03  0.96888273347E+03  0.00000000000E+00 0.  1.
<mgrwt>
<rscale>  0 0.99054532E+03</rscale>
<asrwt>0</asrwt>
<pdfrwt beam="1">  1        2 0.23977663E+00 0.99054532E+03</pdfrwt>
<pdfrwt beam="2">  1       -1 0.24213364E-01 0.99054532E+03</pdfrwt>
<totfact> 0.19802077E+02</totfact>
</mgrwt>
</event>
<event>
12    6  0.1627636E-007  0.1212378E+04  0.7818608E-02  0.9102090E-01
          2   -1    0    0  501    0  0.00000000000E+00  0.00000000000E+00  0.21568824579E+04  0.21568824579E+04  0.00000000000E+00 0. -1.
         -1   -1    0    0    0  501 -0.00000000000E+00 -0.00000000000E+00 -0.17036874113E+03  0.17036874113E+03  0.00000000000E+00 0.  1.
         24    2    1    2    0    0 -0.13855961367E+03 -0.16235429855E+02  0.86599394956E+03  0.88082578555E+03  0.80288156619E+02 0.  0.
        254    2    1    2    0    0  0.13855961367E+03  0.16235429855E+02  0.11205197672E+04  0.14464254135E+04  0.90394666456E+03 0.  0.
         23    2    4    4    0    0  0.31744649753E+03 -0.35857255066E+03  0.57981498960E+03  0.75833888911E+03  0.97703099654E+02 0.  0.
         23    2    4    4    0    0 -0.17888688386E+03  0.37480798052E+03  0.54070477762E+03  0.68808652440E+03  0.92843249787E+02 0.  0.
          4    1    3    3  502    0 -0.13213211752E+03 -0.12016202121E+02  0.86202035843E+03  0.87217107493E+03  0.00000000000E+00 0. -1.
         -3    1    3    3    0  502 -0.64274961524E+01 -0.42192277345E+01  0.39735911268E+01  0.86547106195E+01  0.00000000000E+00 0.  1.
         11    1    5    5    0    0  0.22428600898E+03 -0.18097606289E+03  0.34552667793E+03  0.44993914514E+03  0.00000000000E+00 0. -1.
        -11    1    5    5    0    0  0.93160488553E+02 -0.17759648778E+03  0.23428831167E+03  0.30839974397E+03  0.00000000000E+00 0.  1.
          1    1    6    6  503    0 -0.27092003499E+00  0.35215683671E+02  0.87172827874E+02  0.94017656287E+02  0.00000000000E+00 0. -1.
         -1    1    6    6    0  503 -0.17861596383E+03  0.33959229685E+03  0.45353194975E+03  0.59406886811E+03  0.00000000000E+00 0.  1.
<mgrwt>
<rscale>  0 0.12123784E+04</rscale>
<asrwt>0</asrwt>
<pdfrwt beam="1">  1        2 0.33182805E+00 0.12123784E+04</pdfrwt>
<pdfrwt beam="2">  1       -1 0.26210577E-01 0.12123784E+04</pdfrwt>
<totfact> 0.79371336E+01</totfact>
</mgrwt>
</event>
<event>
12    6  0.1627636E-007  0.1236040E+04  0.7818608E-02  0.9081883E-01
          2   -1    0    0  501    0  0.00000000000E+00  0.00000000000E+00  0.22534768201E+04  0.22534768201E+04  0.00000000000E+00 0. -1.
         -1   -1    0    0    0  501 -0.00000000000E+00 -0.00000000000E+00 -0.16949303772E+03  0.16949303772E+03  0.00000000000E+00 0.  1.
         24    2    1    2    0    0  0.65346437301E+02  0.19214248304E+03  0.77229620406E+02  0.23136223687E+03  0.79844722593E+02 0.  0.
        254    2    1    2    0    0 -0.65346437301E+02 -0.19214248304E+03  0.20067541620E+04  0.21916076210E+04  0.85725889142E+03 0.  0.
         23    2    4    4    0    0 -0.29793273531E+03 -0.17089308467E+03  0.29639747069E+03  0.46266106674E+03  0.90749329985E+02 0.  0.
         23    2    4    4    0    0  0.23258629801E+03 -0.21249398375E+02  0.17103566913E+04  0.17289465542E+04  0.96892997068E+02 0.  0.
          2    1    3    3  502    0 -0.13593788816E+02  0.11369349110E+02  0.18337229581E+02  0.25501121196E+02  0.00000000000E+00 0. -1.
         -1    1    3    3    0  502  0.78940226117E+02  0.18077313393E+03  0.58892390825E+02  0.20586111568E+03  0.00000000000E+00 0.  1.
         11    1    5    5    0    0 -0.11296811989E+01 -0.11876504190E+02  0.33216850014E+02  0.35294286453E+02  0.00000000000E+00 0.  1.
        -11    1    5    5    0    0 -0.29680305411E+03 -0.15901658048E+03  0.26318062067E+03  0.42736678029E+03  0.00000000000E+00 0. -1.
          3    1    6    6  503    0  0.18330406930E+03 -0.33324797528E+02  0.10310563873E+04  0.10477538822E+04  0.00000000000E+00 0. -1.
         -3    1    6    6    0  503  0.49282228713E+02  0.12075399153E+02  0.67930030406E+03  0.68119267203E+03  0.00000000000E+00 0.  1.
<mgrwt>
<rscale>  0 0.12360399E+04</rscale>
<asrwt>0</asrwt>
<pdfrwt beam="1">  1        2 0.34668872E+00 0.12360399E+04</pdfrwt>
<pdfrwt beam="2">  1       -1 0.26075854E-01 0.12360399E+04</pdfrwt>
<totfact> 0.70583343E+01</totfact>
</mgrwt>
</event>
<event>
12    6  0.1627636E-007  0.2173359E+04  0.7818608E-02  0.8529599E-01
         -1   -1    0    0    0  501 -0.00000000000E+00  0.00000000000E+00  0.12284752276E+04  0.12284752276E+04  0.00000000000E+00 0.  1.
          2   -1    0    0  501    0  0.00000000000E+00 -0.00000000000E+00 -0.96125031861E+03  0.96125031861E+03  0.00000000000E+00 0. -1.
         24    2    1    2    0    0  0.30003937275E+03 -0.84358782641E+03  0.94356400700E+02  0.90401653974E+03  0.81723483219E+02 0.  0.
        254    2    1    2    0    0 -0.30003937275E+03  0.84358782641E+03  0.17286850825E+03  0.12857090064E+04  0.90636641707E+03 0.  0.
         23    2    4    4    0    0 -0.13968590926E+02  0.94403467628E+03  0.61708939614E+02  0.94989996502E+03  0.84293290217E+02 0.  0.
         23    2    4    4    0    0 -0.28607078182E+03 -0.10044684987E+03  0.11115956863E+03  0.33580904140E+03  0.92115149300E+02 0.  0.
          4    1    3    3  502    0  0.12509588365E+03 -0.32756166337E+03  0.76307286718E+02  0.35884317665E+03  0.00000000000E+00 0. -1.
         -3    1    3    3    0  502  0.17494348909E+03 -0.51602616304E+03  0.18049113981E+02  0.54517336310E+03  0.00000000000E+00 0.  1.
         11    1    5    5    0    0 -0.48614606289E+02  0.44910319126E+03  0.32787326949E+02  0.45291507499E+03  0.00000000000E+00 0. -1.
        -11    1    5    5    0    0  0.34646015363E+02  0.49493148502E+03  0.28921612665E+02  0.49698489004E+03  0.00000000000E+00 0.  1.
          1    1    6    6  503    0 -0.14014494955E+03 -0.97338315413E+02  0.67016503512E+02  0.18332093791E+03  0.00000000000E+00 0. -1.
         -1    1    6    6    0  503 -0.14592583227E+03 -0.31085344549E+01  0.44143065122E+02  0.15248810350E+03  0.00000000000E+00 0.  1.
<mgrwt>
<rscale>  0 0.21733589E+04</rscale>
<asrwt>0</asrwt>
<pdfrwt beam="1">  1        2 0.14788466E+00 0.21733589E+04</pdfrwt>
<pdfrwt beam="2">  1       -1 0.18899619E+00 0.21733589E+04</pdfrwt>
<totfact> 0.50083804E+00</totfact>
</mgrwt>
</event>
<event>
12    6  0.1627636E-007  0.3863671E+04  0.7818608E-02  0.8032628E-01
         -1   -1    0    0    0  501 -0.00000000000E+00  0.00000000000E+00  0.18706914332E+04  0.18706914332E+04  0.00000000000E+00 0.  1.
          2   -1    0    0  501    0  0.00000000000E+00 -0.00000000000E+00 -0.19949783564E+04  0.19949783564E+04  0.00000000000E+00 0. -1.
         24    2    1    2    0    0  0.48449832830E+03  0.38612575273E+03  0.16606666044E+04  0.17743651257E+04  0.82014031622E+02 0.  0.
        254    2    1    2    0    0 -0.48449832830E+03 -0.38612575273E+03 -0.17849535275E+04  0.20913046639E+04  0.89647329831E+03 0.  0.
         23    2    4    4    0    0 -0.97323792785E+02 -0.41860597583E+03 -0.15851038405E+04  0.16449289716E+04  0.92381020627E+02 0.  0.
         23    2    4    4    0    0 -0.38717453551E+03  0.32480223100E+02 -0.19984968706E+03  0.44637569224E+03  0.91390783762E+02 0.  0.
          4    1    3    3  502    0  0.19849012188E+03  0.16556427102E+03  0.80870855657E+03  0.84901082784E+03  0.00000000000E+00 0. -1.
         -3    1    3    3    0  502  0.28600820642E+03  0.22056148171E+03  0.85195804779E+03  0.92535429785E+03  0.00000000000E+00 0.  1.
         11    1    5    5    0    0 -0.97766575771E+02 -0.42278202782E+03 -0.15507490535E+04  0.16103184695E+04  0.00000000000E+00 0. -1.
        -11    1    5    5    0    0  0.44278298645E+00  0.41760519970E+01 -0.34354787016E+02  0.34610502134E+02  0.00000000000E+00 0.  1.
          1    1    6    6  503    0 -0.33310082313E+03  0.55268857824E+02 -0.18816262271E+03  0.38654362962E+03  0.00000000000E+00 0. -1.
         -1    1    6    6    0  503 -0.54073712383E+02 -0.22788634724E+02 -0.11687064352E+02  0.59832062614E+02  0.00000000000E+00 0.  1.
<mgrwt>
<rscale>  0 0.38636713E+04</rscale>
<asrwt>0</asrwt>
<pdfrwt beam="1">  1        2 0.30691975E+00 0.38636713E+04</pdfrwt>
<pdfrwt beam="2">  1       -1 0.28779868E+00 0.38636713E+04</pdfrwt>
<totfact> 0.24176003E-01</totfact>
</mgrwt>
</event>
<event>
12    6  0.1627636E-007  0.1024209E+04  0.7818608E-02  0.9282384E-01
         -1   -1    0    0    0  501 -0.00000000000E+00  0.00000000000E+00  0.27840049574E+03  0.27840049574E+03  0.00000000000E+00 0.  1.
          2   -1    0    0  501    0  0.00000000000E+00 -0.00000000000E+00 -0.94199226537E+03  0.94199226537E+03  0.00000000000E+00 0. -1.
         24    2    1    2    0    0 -0.36356600939E+02  0.57394696692E+02 -0.11948479177E+02  0.10560206642E+03  0.79956717274E+02 0.  0.
        254    2    1    2    0    0  0.36356600939E+02 -0.57394696692E+02 -0.65164329046E+03  0.11147906947E+04  0.90194421187E+03 0.  0.
         23    2    4    4    0    0 -0.29935580531E+03 -0.33715503303E+03 -0.32856879508E+03  0.56366691138E+03  0.80470612050E+02 0.  0.
         23    2    4    4    0    0  0.33571240625E+03  0.27976033634E+03 -0.32307449538E+03  0.55112378331E+03  0.91605837534E+02 0.  0.
          2    1    3    3  502    0 -0.12943900407E+02  0.71731523511E+02  0.54601163089E+01  0.73094246648E+02  0.00000000000E+00 0. -1.
         -1    1    3    3    0  502 -0.23412700532E+02 -0.14336826820E+02 -0.17408595486E+02  0.32507819771E+02  0.00000000000E+00 0.  1.
         11    1    5    5    0    0 -0.16021343491E+03 -0.14564967945E+03 -0.19759970311E+03  0.29313446832E+03  0.00000000000E+00 0. -1.
        -11    1    5    5    0    0 -0.13914237040E+03 -0.19150535358E+03 -0.13096909197E+03  0.27053244305E+03  0.00000000000E+00 0.  1.
          2    1    6    6  503    0  0.61722457150E+02  0.54514622846E+02 -0.10979755895E+03  0.13724798640E+03  0.00000000000E+00 0.  1.
         -2    1    6    6    0  503  0.27398994910E+03  0.22524571350E+03 -0.21327693643E+03  0.41387579691E+03  0.00000000000E+00 0. -1.
<mgrwt>
<rscale>  0 0.10242092E+04</rscale>
<asrwt>0</asrwt>
<pdfrwt beam="1">  1        2 0.14492188E+00 0.10242092E+04</pdfrwt>
<pdfrwt beam="2">  1       -1 0.42830847E-01 0.10242092E+04</pdfrwt>
<totfact> 0.16769002E+02</totfact>
</mgrwt>
</event>
<event>
12    6  0.1627636E-007  0.1532211E+04  0.7818608E-02  0.8863311E-01
         -1   -1    0    0    0  501 -0.00000000000E+00  0.00000000000E+00  0.27220738976E+03  0.27220738976E+03  0.00000000000E+00 0.  1.
          2   -1    0    0  501    0  0.00000000000E+00 -0.00000000000E+00 -0.21561410117E+04  0.21561410117E+04  0.00000000000E+00 0. -1.
         24    2    1    2    0    0 -0.19614065582E+03  0.15492808559E+03 -0.13006991979E+04  0.13268126865E+04  0.78355810773E+02 0.  0.
        254    2    1    2    0    0  0.19614065582E+03 -0.15492808559E+03 -0.58323442407E+03  0.11015357150E+04  0.90041361019E+03 0.  0.
         23    2    4    4    0    0  0.50001628977E+03  0.95439047662E+02 -0.23449474490E+03  0.56774184986E+03  0.90653851773E+02 0.  0.
         23    2    4    4    0    0 -0.30387563396E+03 -0.25036713325E+03 -0.34873967917E+03  0.53379386514E+03  0.91062749273E+02 0.  0.
          2    1    3    3  502    0 -0.47029598052E+02  0.28768370557E+02 -0.48170516084E+03  0.48484973364E+03  0.00000000000E+00 0. -1.
         -1    1    3    3    0  502 -0.14911105776E+03  0.12615971503E+03 -0.81899403707E+03  0.84196295287E+03  0.00000000000E+00 0.  1.
         11    1    5    5    0    0  0.23615942595E+03  0.90123119503E+01 -0.13872277416E+03  0.27403741406E+03  0.00000000000E+00 0. -1.
        -11    1    5    5    0    0  0.26385686382E+03  0.86426735712E+02 -0.95771970740E+02  0.29370443580E+03  0.00000000000E+00 0.  1.
          4    1    6    6  503    0 -0.30927357531E+03 -0.23723701653E+03 -0.33899883835E+03  0.51657696310E+03  0.00000000000E+00 0. -1.
         -4    1    6    6    0  503  0.53979413581E+01 -0.13130116715E+02 -0.97408408172E+01  0.17216902035E+02  0.00000000000E+00 0.  1.
<mgrwt>
<rscale>  0 0.15322108E+04</rscale>
<asrwt>0</asrwt>
<pdfrwt beam="1">  1        2 0.33171399E+00 0.15322108E+04</pdfrwt>
<pdfrwt beam="2">  1       -1 0.41878061E-01 0.15322108E+04</pdfrwt>
<totfact> 0.33613006E+01</totfact>
</mgrwt>
</event>
<event>
12    6  0.1627636E-007  0.1898506E+04  0.7818608E-02  0.8655601E-01
          2   -1    0    0  501    0  0.00000000000E+00  0.00000000000E+00  0.28445077654E+04  0.28445077654E+04  0.00000000000E+00 0. -1.
         -1   -1    0    0    0  501 -0.00000000000E+00 -0.00000000000E+00 -0.31677921380E+03  0.31677921380E+03  0.00000000000E+00 0.  1.
         24    2    1    2    0    0  0.21347001372E+03  0.30544458610E+03  0.20385174856E+04  0.20738444433E+04  0.80071182141E+02 0.  0.
        254    2    1    2    0    0 -0.21347001372E+03 -0.30544458610E+03  0.48921106604E+03  0.10874425359E+04  0.89684890577E+03 0.  0.
         23    2    4    4    0    0  0.92064810568E+02 -0.39378342545E+03 -0.86329708964E+02  0.42332646764E+03  0.90615473544E+02 0.  0.
         23    2    4    4    0    0 -0.30553482429E+03  0.88338839356E+02  0.57554077501E+03  0.66411606825E+03  0.92992951424E+02 0.  0.
          2    1    3    3  502    0  0.16154710326E+03  0.27978252726E+03  0.17063116950E+04  0.17366275736E+04  0.00000000000E+00 0. -1.
         -1    1    3    3    0  502  0.51922910457E+02  0.25662058843E+02  0.33220579059E+03  0.33721686968E+03  0.00000000000E+00 0.  1.
         11    1    5    5    0    0  0.39639374901E+02 -0.22190841635E+03 -0.92176406860E+02  0.24353873464E+03  0.00000000000E+00 0. -1.
        -11    1    5    5    0    0  0.52425435667E+02 -0.17187500910E+03  0.58466978961E+01  0.17978773300E+03  0.00000000000E+00 0.  1.
          2    1    6    6  503    0  0.20222541919E+01  0.13117235043E+02  0.12922426131E+02  0.18524050969E+02  0.00000000000E+00 0. -1.
         -2    1    6    6    0  503 -0.30755707848E+03  0.75221604312E+02  0.56261834888E+03  0.64559201728E+03  0.00000000000E+00 0.  1.
<mgrwt>
<rscale>  0 0.18985057E+04</rscale>
<asrwt>0</asrwt>
<pdfrwt beam="1">  1        2 0.43761656E+00 0.18985057E+04</pdfrwt>
<pdfrwt beam="2">  1       -1 0.48735266E-01 0.18985057E+04</pdfrwt>
<totfact> 0.97856113E+00</totfact>
</mgrwt>
</event>
<event>
12    6  0.1627636E-007  0.1914366E+04  0.7818608E-02  0.8647738E-01
         -1   -1    0    0    0  501 -0.00000000000E+00  0.00000000000E+00  0.52474687837E+03  0.52474687837E+03  0.00000000000E+00 0.  1.
          2   -1    0    0  501    0  0.00000000000E+00 -0.00000000000E+00 -0.17459842029E+04  0.17459842029E+04  0.00000000000E+00 0. -1.
         24    2    1    2    0    0  0.38234654803E+03 -0.60809585258E+03 -0.23709496307E+03  0.76051233285E+03  0.78711741135E+02 0.  0.
        254    2    1    2    0    0 -0.38234654803E+03  0.60809585258E+03 -0.98414236144E+03  0.15102187484E+04  0.89233123432E+03 0.  0.
         23    2    4    4    0    0  0.22418813715E+03  0.26193622427E+01 -0.40482087720E+03  0.47175870544E+03  0.91701426620E+02 0.  0.
         23    2    4    4    0    0 -0.60653468517E+03  0.60547649034E+03 -0.57932148424E+03  0.10384600430E+04  0.91103095788E+02 0.  0.
          2    1    3    3  502    0  0.27877034821E+03 -0.46100278527E+03 -0.21165465898E+03  0.57882136254E+03  0.00000000000E+00 0. -1.
         -1    1    3    3    0  502  0.10357619982E+03 -0.14709306731E+03 -0.25440304086E+02  0.18169097030E+03  0.00000000000E+00 0.  1.
         11    1    5    5    0    0  0.35735739821E+02  0.16886427237E+02 -0.23012603435E+02  0.45735920699E+02  0.00000000000E+00 0.  1.
        -11    1    5    5    0    0  0.18845239733E+03 -0.14267064994E+02 -0.38180827377E+03  0.42602278474E+03  0.00000000000E+00 0. -1.
          2    1    6    6  503    0 -0.41655180362E+03  0.35390521437E+03 -0.36520168839E+03  0.65737096001E+03  0.00000000000E+00 0.  1.
         -2    1    6    6    0  503 -0.18998288156E+03  0.25157127597E+03 -0.21411979584E+03  0.38108908296E+03  0.00000000000E+00 0. -1.
<mgrwt>
<rscale>  0 0.19143665E+04</rscale>
<asrwt>0</asrwt>
<pdfrwt beam="1">  1        2 0.26861295E+00 0.19143665E+04</pdfrwt>
<pdfrwt beam="2">  1       -1 0.80730290E-01 0.19143665E+04</pdfrwt>
<totfact> 0.15070989E+01</totfact>
</mgrwt>
</event>
<event>
12    6  0.1627636E-007  0.2550691E+04  0.7818608E-02  0.8385146E-01
          2   -1    0    0  501    0  0.00000000000E+00  0.00000000000E+00  0.20664785333E+04  0.20664785333E+04  0.00000000000E+00 0. -1.
         -1   -1    0    0    0  501 -0.00000000000E+00 -0.00000000000E+00 -0.78709060012E+03  0.78709060012E+03  0.00000000000E+00 0.  1.
         24    2    1    2    0    0 -0.48633330532E+03  0.95375724623E+03  0.23125282317E+03  0.10982091238E+04  0.80077729015E+02 0.  0.
        254    2    1    2    0    0  0.48633330532E+03 -0.95375724623E+03  0.10481351100E+04  0.17553600097E+04  0.91461936679E+03 0.  0.
         23    2    4    4    0    0  0.49411567902E+03 -0.50785054449E+03  0.10848449090E+04  0.12988803697E+04  0.90217838593E+02 0.  0.
         23    2    4    4    0    0 -0.77823736990E+01 -0.44590670173E+03 -0.36709798930E+02  0.45647964002E+03  0.90181486012E+02 0.  0.
          4    1    3    3  502    0 -0.13923919220E+03  0.22569596622E+03  0.29751396558E+02  0.26685458102E+03  0.00000000000E+00 0. -1.
         -3    1    3    3    0  502 -0.34709411312E+03  0.72806128000E+03  0.20150142661E+03  0.83135454274E+03  0.00000000000E+00 0.  1.
         11    1    5    5    0    0  0.39092091730E+03 -0.38288948984E+03  0.76806902622E+03  0.94305543531E+03  0.00000000000E+00 0.  1.
        -11    1    5    5    0    0  0.10319476171E+03 -0.12496105465E+03  0.31677588274E+03  0.35582493436E+03  0.00000000000E+00 0. -1.
          3    1    6    6  503    0 -0.36134370925E+02 -0.32085620037E+03 -0.53066892052E+02  0.32721627269E+03  0.00000000000E+00 0.  1.
         -3    1    6    6    0  503  0.28351997226E+02 -0.12505050136E+03  0.16357093122E+02  0.12926336733E+03  0.00000000000E+00 0. -1.
<mgrwt>
<rscale>  0 0.25506908E+04</rscale>
<asrwt>0</asrwt>
<pdfrwt beam="1">  1        2 0.31791977E+00 0.25506908E+04</pdfrwt>
<pdfrwt beam="2">  1       -1 0.12109086E+00 0.25506908E+04</pdfrwt>
<totfact> 0.37530555E+00</totfact>
</mgrwt>
</event>
<event>
12    6  0.1627636E-007  0.2014648E+04  0.7818608E-02  0.8599803E-01
          2   -1    0    0  501    0  0.00000000000E+00  0.00000000000E+00  0.11449425236E+04  0.11449425236E+04  0.00000000000E+00 0. -1.
         -1   -1    0    0    0  501 -0.00000000000E+00 -0.00000000000E+00 -0.88624710620E+03  0.88624710620E+03  0.00000000000E+00 0.  1.
         24    2    1    2    0    0 -0.59085026955E+03  0.30449162412E+03  0.55437115354E+03  0.86916232465E+03  0.79350995781E+02 0.  0.
        254    2    1    2    0    0  0.59085026955E+03 -0.30449162412E+03 -0.29567573615E+03  0.11620273051E+04  0.90612588903E+03 0.  0.
         23    2    4    4    0    0 -0.97740594394E+02 -0.14566395382E+03 -0.39601264110E+03  0.44244913811E+03  0.90354948224E+02 0.  0.
         23    2    4    4    0    0  0.68859086395E+03 -0.15882767029E+03  0.10033690495E+03  0.71957816703E+03  0.91332563806E+02 0.  0.
          4    1    3    3  502    0 -0.52077260426E+03  0.29472934956E+03  0.48796575269E+03  0.77212697831E+03  0.00000000000E+00 0. -1.
         -3    1    3    3    0  502 -0.70077665299E+02  0.97622745566E+01  0.66405400844E+02  0.97035346340E+02  0.00000000000E+00 0.  1.
         11    1    5    5    0    0 -0.71807736506E+02 -0.15218531887E+03 -0.31488799461E+03  0.35703105110E+03  0.00000000000E+00 0. -1.
        -11    1    5    5    0    0 -0.25932857888E+02  0.65213650452E+01 -0.81124646490E+02  0.85418087010E+02  0.00000000000E+00 0.  1.
          1    1    6    6  503    0  0.62413963082E+03 -0.16303275670E+03  0.72137519811E+02  0.64910228800E+03  0.00000000000E+00 0. -1.
         -1    1    6    6    0  503  0.64451233124E+02  0.42050864122E+01  0.28199385141E+02  0.70475879031E+02  0.00000000000E+00 0.  1.
<mgrwt>
<rscale>  0 0.20146484E+04</rscale>
<asrwt>0</asrwt>
<pdfrwt beam="1">  1        2 0.17614500E+00 0.20146484E+04</pdfrwt>
<pdfrwt beam="2">  1       -1 0.13634571E+00 0.20146484E+04</pdfrwt>
<totfact> 0.97159794E+00</totfact>
</mgrwt>
</event>
<event>
12    6  0.1627636E-007  0.2264515E+04  0.7818608E-02  0.8492045E-01
          2   -1    0    0  501    0  0.00000000000E+00  0.00000000000E+00  0.20810704310E+04  0.20810704310E+04  0.00000000000E+00 0. -1.
         -1   -1    0    0    0  501 -0.00000000000E+00 -0.00000000000E+00 -0.61603239878E+03  0.61603239878E+03  0.00000000000E+00 0.  1.
         24    2    1    2    0    0 -0.35246541995E+03 -0.84495880811E+03  0.31069756229E+03  0.97013325888E+03  0.80239049794E+02 0.  0.
        254    2    1    2    0    0  0.35246541995E+03  0.84495880811E+03  0.11543404699E+04  0.17269695709E+04  0.90096321713E+03 0.  0.
         23    2    4    4    0    0  0.46810930271E+03  0.95169183102E+02  0.26373320684E+03  0.55343903138E+03  0.92498996565E+02 0.  0.
         23    2    4    4    0    0 -0.11564388276E+03  0.74978962500E+03  0.89060726308E+03  0.11735305395E+04  0.91840300146E+02 0.  0.
          4    1    3    3  502    0 -0.66138996965E+02 -0.10900612543E+03  0.64937950740E+02  0.14308612703E+03  0.00000000000E+00 0. -1.
         -3    1    3    3    0  502 -0.28632642299E+03 -0.73595268267E+03  0.24575961155E+03  0.82704713185E+03  0.00000000000E+00 0.  1.
         11    1    5    5    0    0  0.19778407931E+03  0.44852381113E+02  0.60895589400E+02  0.21175115331E+03  0.00000000000E+00 0.  1.
        -11    1    5    5    0    0  0.27032522340E+03  0.50316801989E+02  0.20283761744E+03  0.34168787807E+03  0.00000000000E+00 0. -1.
          3    1    6    6  503    0 -0.52050141757E+02  0.21458925636E+03  0.20370568711E+03  0.30042265753E+03  0.00000000000E+00 0. -1.
         -3    1    6    6    0  503 -0.63593741001E+02  0.53520036865E+03  0.68690157597E+03  0.87310788197E+03  0.00000000000E+00 0.  1.
<mgrwt>
<rscale>  0 0.22645148E+04</rscale>
<asrwt>0</asrwt>
<pdfrwt beam="1">  1        2 0.32016468E+00 0.22645148E+04</pdfrwt>
<pdfrwt beam="2">  1       -1 0.94774216E-01 0.22645148E+04</pdfrwt>
<totfact> 0.67061548E+00</totfact>
</mgrwt>
</event>
<event>
12    6  0.1627636E-007  0.3030076E+04  0.7818608E-02  0.8235194E-01
          2   -1    0    0  501    0  0.00000000000E+00  0.00000000000E+00  0.31913500399E+04  0.31913500399E+04  0.00000000000E+00 0. -1.
         -1   -1    0    0    0  501 -0.00000000000E+00 -0.00000000000E+00 -0.71923811037E+03  0.71923811037E+03  0.00000000000E+00 0.  1.
         24    2    1    2    0    0  0.63614362139E+03  0.64458857636E+03 -0.21048175510E+03  0.93322898539E+03  0.80253536572E+02 0.  0.
        254    2    1    2    0    0 -0.63614362139E+03 -0.64458857636E+03  0.26825936846E+04  0.29773591649E+04  0.92096991267E+03 0.  0.
         23    2    4    4    0    0 -0.21930749029E+03 -0.40750196274E+03  0.33254361039E+03  0.57708853002E+03  0.91062032381E+02 0.  0.
         23    2    4    4    0    0 -0.41683613110E+03 -0.23708661363E+03  0.23500500742E+04  0.24002706349E+04  0.92743444867E+02 0.  0.
          2    1    3    3  502    0  0.44846140562E+03  0.42910825390E+03 -0.17755181092E+03  0.64558204084E+03  0.00000000000E+00 0. -1.
         -1    1    3    3    0  502  0.18768221577E+03  0.21548032246E+03 -0.32929944176E+02  0.28764694455E+03  0.00000000000E+00 0.  1.
         11    1    5    5    0    0 -0.45674670765E+02 -0.27498226350E+02  0.46644436319E+02  0.70838064918E+02  0.00000000000E+00 0.  1.
        -11    1    5    5    0    0 -0.17363281952E+03 -0.38000373639E+03  0.28589917407E+03  0.50625046510E+03  0.00000000000E+00 0. -1.
          1    1    6    6  503    0 -0.25298806610E+03 -0.12000426380E+03  0.15618511944E+04  0.15867523872E+04  0.00000000000E+00 0. -1.
         -1    1    6    6    0  503 -0.16384806500E+03 -0.11708234983E+03  0.78819887984E+03  0.81351824763E+03  0.00000000000E+00 0.  1.
<mgrwt>
<rscale>  0 0.30300763E+04</rscale>
<asrwt>0</asrwt>
<pdfrwt beam="1">  1        2 0.49097692E+00 0.30300763E+04</pdfrwt>
<pdfrwt beam="2">  1       -1 0.11065202E+00 0.30300763E+04</pdfrwt>
<totfact> 0.95834694E-01</totfact>
</mgrwt>
</event>
<event>
12    6  0.1627636E-007  0.2106372E+04  0.7818608E-02  0.8558442E-01
         -1   -1    0    0    0  501 -0.00000000000E+00  0.00000000000E+00  0.70544182548E+03  0.70544182548E+03  0.00000000000E+00 0.  1.
          2   -1    0    0  501    0  0.00000000000E+00 -0.00000000000E+00 -0.15723492088E+04  0.15723492088E+04  0.00000000000E+00 0. -1.
         24    2    1    2    0    0 -0.61470011002E+03 -0.17039944712E+03 -0.82678518777E+03  0.10488777488E+04  0.98379816705E+02 0.  0.
        254    2    1    2    0    0  0.61470011002E+03  0.17039944712E+03 -0.40122195513E+02  0.12289132855E+04  0.10496313047E+04 0.  0.
         23    2    4    4    0    0  0.67827177508E+03 -0.29701396893E+03  0.73513845669E+01  0.74593132334E+03  0.89942190787E+02 0.  0.
         23    2    4    4    0    0 -0.63571665061E+02  0.46741341605E+03 -0.47473580080E+02  0.48298196212E+03  0.92201826563E+02 0.  0.
          4    1    3    3  502    0 -0.52440368251E+03 -0.13444353431E+03 -0.75021606614E+03  0.92514778930E+03  0.00000000000E+00 0. -1.
         -3    1    3    3    0  502 -0.90296427506E+02 -0.35955912808E+02 -0.76569121637E+02  0.12372995949E+03  0.00000000000E+00 0.  1.
         11    1    5    5    0    0  0.46681842874E+03 -0.19943303749E+03 -0.36540374775E+02  0.50894811213E+03  0.00000000000E+00 0.  1.
        -11    1    5    5    0    0  0.21145334634E+03 -0.97580931439E+02  0.43891759342E+02  0.23698321121E+03  0.00000000000E+00 0. -1.
          4    1    6    6  503    0 -0.19945318367E+02  0.46330255400E+02  0.20075914610E+02  0.54289507620E+02  0.00000000000E+00 0. -1.
         -4    1    6    6    0  503 -0.43626346695E+02  0.42108316065E+03 -0.67549494690E+02  0.42869245450E+03  0.00000000000E+00 0.  1.
<mgrwt>
<rscale>  0 0.21063721E+04</rscale>
<asrwt>0</asrwt>
<pdfrwt beam="1">  1        2 0.24189988E+00 0.21063721E+04</pdfrwt>
<pdfrwt beam="2">  1       -1 0.10852951E+00 0.21063721E+04</pdfrwt>
<totfact> 0.95533336E+00</totfact>
</mgrwt>
</event>
<event>
12    6  0.1627636E-007  0.1440910E+04  0.7818608E-02  0.8924727E-01
         -1   -1    0    0    0  501 -0.00000000000E+00  0.00000000000E+00  0.17793359594E+03  0.17793359594E+03  0.00000000000E+00 0.  1.
          2   -1    0    0  501    0  0.00000000000E+00 -0.00000000000E+00 -0.29171301692E+04  0.29171301692E+04  0.00000000000E+00 0. -1.
         24    2    1    2    0    0 -0.23997284500E+03  0.32867483300E+03 -0.76163082168E+03  0.86709570771E+03  0.78481498488E+02 0.  0.
        254    2    1    2    0    0  0.23997284500E+03 -0.32867483300E+03 -0.19775657516E+04  0.22279680574E+04  0.94205161797E+03 0.  0.
         23    2    4    4    0    0 -0.22672012157E+03 -0.10087523548E+03 -0.10859877631E+03  0.28605183708E+03  0.91946357320E+02 0.  0.
         23    2    4    4    0    0  0.46669296657E+03 -0.22779959752E+03 -0.18689669753E+04  0.19419162204E+04  0.91137645987E+02 0.  0.
          4    1    3    3  502    0 -0.29759924259E+02  0.38886045879E+02 -0.15664298461E+03  0.16411825701E+03  0.00000000000E+00 0. -1.
         -3    1    3    3    0  502 -0.21021292074E+03  0.28978878712E+03 -0.60498783708E+03  0.70297745070E+03  0.00000000000E+00 0.  1.
         11    1    5    5    0    0 -0.59924006518E+02 -0.72675678205E+01 -0.67246830491E+02  0.90365039204E+02  0.00000000000E+00 0. -1.
        -11    1    5    5    0    0 -0.16679611505E+03 -0.93607667658E+02 -0.41351945817E+02  0.19568679788E+03  0.00000000000E+00 0.  1.
          4    1    6    6  503    0  0.28915733714E+03 -0.15841799877E+03 -0.10263426281E+04  0.10780015855E+04  0.00000000000E+00 0. -1.
         -4    1    6    6    0  503  0.17753562943E+03 -0.69381598753E+02 -0.84262434714E+03  0.86391463488E+03  0.00000000000E+00 0.  1.
<mgrwt>
<rscale>  0 0.14409101E+04</rscale>
<asrwt>0</asrwt>
<pdfrwt beam="1">  1        2 0.44878925E+00 0.14409101E+04</pdfrwt>
<pdfrwt beam="2">  1       -1 0.27374400E-01 0.14409101E+04</pdfrwt>
<totfact> 0.26140923E+01</totfact>
</mgrwt>
</event>
<event>
12    6  0.1627636E-007  0.1866459E+04  0.7818608E-02  0.8671734E-01
         -1   -1    0    0    0  501 -0.00000000000E+00  0.00000000000E+00  0.47091881560E+03  0.47091881560E+03  0.00000000000E+00 0.  1.
          2   -1    0    0  501    0  0.00000000000E+00 -0.00000000000E+00 -0.18493996439E+04  0.18493996439E+04  0.00000000000E+00 0. -1.
         24    2    1    2    0    0 -0.14436565857E+03 -0.18854230384E+02  0.32291173904E+03  0.36301825968E+03  0.79456530706E+02 0.  0.
        254    2    1    2    0    0  0.14436565857E+03  0.18854230384E+02 -0.17013925674E+04  0.19573001999E+04  0.95660361630E+03 0.  0.
         23    2    4    4    0    0 -0.26633472982E+03  0.33486603129E+03 -0.69188961665E+03  0.81851455730E+03  0.90473154318E+02 0.  0.
         23    2    4    4    0    0  0.41070038840E+03 -0.31601180091E+03 -0.10095029507E+04  0.11387856426E+04  0.95907585063E+02 0.  0.
          2    1    3    3  502    0 -0.56286844560E+01 -0.22595953471E+02  0.79273621899E+02  0.82623037532E+02  0.00000000000E+00 0. -1.
         -3    1    3    3    0  502 -0.13873697412E+03  0.37417230874E+01  0.24363811714E+03  0.28039522214E+03  0.00000000000E+00 0.  1.
         11    1    5    5    0    0 -0.32341198739E+01 -0.35967559974E+01 -0.26814603467E+02  0.27247369491E+02  0.00000000000E+00 0.  1.
        -11    1    5    5    0    0 -0.26310060995E+03  0.33846278729E+03 -0.66507501319E+03  0.79126718781E+03  0.00000000000E+00 0. -1.
          1    1    6    6  503    0  0.19783978206E+03 -0.17910449869E+03 -0.61057112135E+03  0.66634532717E+03  0.00000000000E+00 0. -1.
         -1    1    6    6    0  503  0.21286060634E+03 -0.13690730222E+03 -0.39893182936E+03  0.47244031539E+03  0.00000000000E+00 0.  1.
<mgrwt>
<rscale>  0 0.18664588E+04</rscale>
<asrwt>0</asrwt>
<pdfrwt beam="1">  1        2 0.28452302E+00 0.18664588E+04</pdfrwt>
<pdfrwt beam="2">  1       -1 0.72449050E-01 0.18664588E+04</pdfrwt>
<totfact> 0.16647884E+01</totfact>
</mgrwt>
</event>
<event>
12    6  0.1627636E-007  0.1979449E+04  0.7818608E-02  0.8616290E-01
         -1   -1    0    0    0  501 -0.00000000000E+00  0.00000000000E+00  0.43396790013E+03  0.43396790013E+03  0.00000000000E+00 0.  1.
          2   -1    0    0  501    0  0.00000000000E+00 -0.00000000000E+00 -0.22572045614E+04  0.22572045614E+04  0.00000000000E+00 0. -1.
         24    2    1    2    0    0  0.33098963808E+03 -0.36980954633E+03 -0.15531272809E+04  0.16324559822E+04  0.79968381327E+02 0.  0.
        254    2    1    2    0    0 -0.33098963808E+03  0.36980954633E+03 -0.27010938032E+03  0.10587164793E+04  0.89532578715E+03 0.  0.
         23    2    4    4    0    0 -0.22697164648E+03  0.17088349753E+03 -0.58756875697E+03  0.65923238645E+03  0.92913923368E+02 0.  0.
         23    2    4    4    0    0 -0.10401799160E+03  0.19892604880E+03  0.31745937664E+03  0.39948409284E+03  0.91737501333E+02 0.  0.
          2    1    3    3  502    0  0.27554404566E+03 -0.26286207669E+03 -0.12300394214E+04  0.12876404664E+04  0.00000000000E+00 0. -1.
         -1    1    3    3    0  502  0.55445592416E+02 -0.10694746964E+03 -0.32308785949E+03  0.34481551579E+03  0.00000000000E+00 0.  1.
         11    1    5    5    0    0 -0.23453630830E+03  0.15491776082E+03 -0.54733252930E+03  0.61528829841E+03  0.00000000000E+00 0. -1.
        -11    1    5    5    0    0  0.75646618271E+01  0.15965736714E+02 -0.40236227669E+02  0.43944088048E+02  0.00000000000E+00 0.  1.
          3    1    6    6  503    0 -0.42922896692E+02  0.13081704282E+03  0.25140746001E+03  0.28663772379E+03  0.00000000000E+00 0. -1.
         -3    1    6    6    0  503 -0.61095094906E+02  0.68109005982E+02  0.66051916631E+02  0.11284636905E+03  0.00000000000E+00 0.  1.
<mgrwt>
<rscale>  0 0.19794487E+04</rscale>
<asrwt>0</asrwt>
<pdfrwt beam="1">  1        2 0.34726223E+00 0.19794487E+04</pdfrwt>
<pdfrwt beam="2">  1       -1 0.66764294E-01 0.19794487E+04</pdfrwt>
<totfact> 0.11545512E+01</totfact>
</mgrwt>
</event>
<event>
12    6  0.1627636E-007  0.1240217E+04  0.7818608E-02  0.9078365E-01
          2   -1    0    0  501    0  0.00000000000E+00  0.00000000000E+00  0.73886294585E+03  0.73886294585E+03  0.00000000000E+00 0. -1.
         -1   -1    0    0    0  501 -0.00000000000E+00 -0.00000000000E+00 -0.52044079233E+03  0.52044079233E+03  0.00000000000E+00 0.  1.
         24    2    1    2    0    0 -0.24758624871E+03 -0.58069307265E+02 -0.73257096800E+02  0.27648931750E+03  0.80054640499E+02 0.  0.
        254    2    1    2    0    0  0.24758624871E+03  0.58069307265E+02  0.29167925032E+03  0.98281442068E+03  0.90342482003E+03 0.  0.
         23    2    4    4    0    0  0.13299275514E+03  0.35464452672E+03 -0.16126870817E+03  0.42172163468E+03  0.91551775889E+02 0.  0.
         23    2    4    4    0    0  0.11459349357E+03 -0.29657521946E+03  0.45294795849E+03  0.56109278600E+03  0.92599847939E+02 0.  0.
          2    1    3    3  502    0 -0.10107193661E+03 -0.10992138763E+02  0.88704102434E+01  0.10205414084E+03  0.00000000000E+00 0. -1.
         -3    1    3    3    0  502 -0.14651431210E+03 -0.47077168503E+02 -0.82127507043E+02  0.17443517666E+03  0.00000000000E+00 0.  1.
         11    1    5    5    0    0  0.86343521568E+02  0.13980348556E+03 -0.10426009874E+03  0.19460315126E+03  0.00000000000E+00 0. -1.
        -11    1    5    5    0    0  0.46649233575E+02  0.21484104117E+03 -0.57008609427E+02  0.22711848342E+03  0.00000000000E+00 0.  1.
          1    1    6    6  503    0  0.74711871746E+02 -0.25719694750E+03  0.32315332906E+03  0.41971443585E+03  0.00000000000E+00 0. -1.
         -1    1    6    6    0  503  0.39881621821E+02 -0.39378271963E+02  0.12979462943E+03  0.14137835015E+03  0.00000000000E+00 0.  1.
<mgrwt>
<rscale>  0 0.12402168E+04</rscale>
<asrwt>0</asrwt>
<pdfrwt beam="1">  1        2 0.11367122E+00 0.12402168E+04</pdfrwt>
<pdfrwt beam="2">  1       -1 0.80067814E-01 0.12402168E+04</pdfrwt>
<totfact> 0.66939318E+01</totfact>
</mgrwt>
</event>
<event>
12    6  0.1627636E-007  0.1178303E+04  0.7818608E-02  0.9132063E-01
          2   -1    0    0  501    0  0.00000000000E+00  0.00000000000E+00  0.11213908545E+04  0.11213908545E+04  0.00000000000E+00 0. -1.
         -1   -1    0    0    0  501 -0.00000000000E+00 -0.00000000000E+00 -0.30952598316E+03  0.30952598316E+03  0.00000000000E+00 0.  1.
         24    2    1    2    0    0  0.48948048528E+02 -0.10508328435E+03 -0.78016501645E+02  0.16089840165E+03  0.79770376826E+02 0.  0.
        254    2    1    2    0    0 -0.48948048528E+02  0.10508328435E+03  0.88988137303E+03  0.12700184360E+04  0.89867656125E+03 0.  0.
         23    2    4    4    0    0  0.33567022878E+03 -0.12176952889E+03  0.14443970887E+03  0.39704364249E+03  0.96324991012E+02 0.  0.
         23    2    4    4    0    0 -0.38461827731E+03  0.22685281324E+03  0.74544166416E+03  0.87297479356E+03  0.83715574443E+02 0.  0.
          4    1    3    3  502    0 -0.12802936937E+02 -0.65448529387E+02 -0.29429593175E+02  0.72893937660E+02  0.00000000000E+00 0. -1.
         -3    1    3    3    0  502  0.61750985465E+02 -0.39634754965E+02 -0.48586908471E+02  0.88004463988E+02  0.00000000000E+00 0.  1.
         11    1    5    5    0    0  0.31001696963E+03 -0.11792442558E+03  0.10148796459E+03  0.34686668702E+03  0.00000000000E+00 0. -1.
        -11    1    5    5    0    0  0.25653259152E+02 -0.38451033064E+01  0.42951744277E+02  0.50176955477E+02  0.00000000000E+00 0.  1.
          3    1    6    6  503    0 -0.27762718489E+03  0.13506441036E+03  0.45133900114E+03  0.54683282883E+03  0.00000000000E+00 0. -1.
         -3    1    6    6    0  503 -0.10699109242E+03  0.91788402885E+02  0.29410266302E+03  0.32614196472E+03  0.00000000000E+00 0.  1.
<mgrwt>
<rscale>  0 0.11783032E+04</rscale>
<asrwt>0</asrwt>
<pdfrwt beam="1">  1        2 0.17252167E+00 0.11783032E+04</pdfrwt>
<pdfrwt beam="2">  1       -1 0.47619383E-01 0.11783032E+04</pdfrwt>
<totfact> 0.10481107E+02</totfact>
</mgrwt>
</event>
<event>
12    6  0.1627636E-007  0.1984614E+04  0.7818608E-02  0.8613848E-01
         -3   -1    0    0    0  501 -0.00000000000E+00  0.00000000000E+00  0.25906003943E+03  0.25906003943E+03  0.00000000000E+00 0.  1.
          2   -1    0    0  501    0  0.00000000000E+00 -0.00000000000E+00 -0.38009447519E+04  0.38009447519E+04  0.00000000000E+00 0. -1.
         24    2    1    2    0    0 -0.41153661910E+03 -0.49575790571E+03 -0.23349289089E+04  0.24234647826E+04  0.78423549913E+02 0.  0.
        254    2    1    2    0    0  0.41153661910E+03  0.49575790571E+03 -0.12069558036E+04  0.16365400087E+04  0.89798808360E+03 0.  0.
         23    2    4    4    0    0  0.52263655863E+03  0.18821781633E+03 -0.11641043887E+04  0.12935187268E+04  0.97348600446E+02 0.  0.
         23    2    4    4    0    0 -0.11109993953E+03  0.30754008938E+03 -0.42851414824E+02  0.34302128183E+03  0.94357050049E+02 0.  0.
          4    1    3    3  502    0 -0.40468219610E+03 -0.48850908519E+03 -0.22424285134E+04  0.23304279529E+04  0.00000000000E+00 0. -1.
         -3    1    3    3    0  502 -0.68544230018E+01 -0.72488205137E+01 -0.92500395480E+02  0.93036829683E+02  0.00000000000E+00 0.  1.
         11    1    5    5    0    0  0.35191075986E+03  0.80371446860E+02 -0.70798666919E+03  0.79469860710E+03  0.00000000000E+00 0. -1.
        -11    1    5    5    0    0  0.17072579877E+03  0.10784636947E+03 -0.45611771955E+03  0.49882011974E+03  0.00000000000E+00 0.  1.
          2    1    6    6  503    0 -0.54645785814E+02  0.26207655623E+03 -0.37691466473E+02  0.27035334265E+03  0.00000000000E+00 0. -1.
         -2    1    6    6    0  503 -0.56454153715E+02  0.45463533146E+02 -0.51599483509E+01  0.72667939180E+02  0.00000000000E+00 0.  1.
<mgrwt>
<rscale>  0 0.19846137E+04</rscale>
<asrwt>0</asrwt>
<pdfrwt beam="1">  1        2 0.58476078E+00 0.19846137E+04</pdfrwt>
<pdfrwt beam="2">  1       -3 0.39855388E-01 0.19846137E+04</pdfrwt>
<totfact> 0.18687362E+00</totfact>
</mgrwt>
</event>
<event>
12    6  0.2017003E-007  0.1956047E+04  0.7818608E-02  0.8627451E-01
         -1   -1    0    0    0  501 -0.00000000000E+00  0.00000000000E+00  0.69023301302E+03  0.69023301302E+03  0.00000000000E+00 0.  1.
          2   -1    0    0  501    0  0.00000000000E+00 -0.00000000000E+00 -0.13858068035E+04  0.13858068035E+04  0.00000000000E+00 0. -1.
         24    2    1    2    0    0  0.32738550939E+03 -0.65187558954E+03 -0.50786871904E+03  0.89235215362E+03  0.78985278928E+02 0.  0.
        254    2    1    2    0    0 -0.32738550939E+03  0.65187558954E+03 -0.18770507142E+03  0.11836876629E+04  0.91310472205E+03 0.  0.
         23    2    4    4    0    0 -0.56634233517E+03  0.25260540072E+03  0.91115174979E+02  0.63353290560E+03  0.92243364492E+02 0.  0.
         23    2    4    4    0    0  0.23895682577E+03  0.39927018882E+03 -0.27882024640E+03  0.55015475728E+03  0.91719566604E+02 0.  0.
          2    1    3    3  502    0  0.26233819126E+03 -0.55688152945E+03 -0.39684046779E+03  0.73240748310E+03  0.00000000000E+00 0. -1.
         -1    1    3    3    0  502  0.65047318130E+02 -0.94994060092E+02 -0.11102825126E+03  0.15994467051E+03  0.00000000000E+00 0.  1.
         11    1    5    5    0    0 -0.63051583901E+02  0.62965097565E+02  0.12013194196E+02  0.89913417122E+02  0.00000000000E+00 0. -1.
        -11    1    5    5    0    0 -0.50329075127E+03  0.18964030316E+03  0.79101980783E+02  0.54361948848E+03  0.00000000000E+00 0.  1.
          3    1    6    6  503    0  0.36734494263E+02  0.14530638663E+02 -0.19922840561E+02  0.44243441375E+02  0.00000000000E+00 0. -1.
         -3    1    6    6    0  503  0.20222233151E+03  0.38473955015E+03 -0.25889740583E+03  0.50591131591E+03  0.00000000000E+00 0.  1.
<mgrwt>
<rscale>  0 0.19560466E+04</rscale>
<asrwt>0</asrwt>
<pdfrwt beam="1">  1        2 0.21320104E+00 0.19560466E+04</pdfrwt>
<pdfrwt beam="2">  1       -1 0.10618970E+00 0.19560466E+04</pdfrwt>
<totfact> 0.12992630E+01</totfact>
</mgrwt>
</event>
<event>
12    6  0.1627636E-007  0.1967557E+04  0.7818608E-02  0.8621941E-01
          2   -1    0    0  501    0  0.00000000000E+00  0.00000000000E+00  0.39015682743E+04  0.39015682743E+04  0.00000000000E+00 0. -1.
         -1   -1    0    0    0  501 -0.00000000000E+00 -0.00000000000E+00 -0.24805936539E+03  0.24805936539E+03  0.00000000000E+00 0.  1.
         24    2    1    2    0    0  0.61924612079E+03  0.34316788639E+03  0.19427647819E+04  0.20692727115E+04  0.79527356443E+02 0.  0.
        254    2    1    2    0    0 -0.61924612079E+03 -0.34316788639E+03  0.17107441271E+04  0.20803549282E+04  0.94868393196E+03 0.  0.
         23    2    4    4    0    0 -0.18420938333E+03  0.17749868019E+03  0.39775979169E+02  0.27471057133E+03  0.91896088636E+02 0.  0.
         23    2    4    4    0    0 -0.43503673746E+03 -0.52066656658E+03  0.16709681479E+04  0.18056443569E+04  0.88692478929E+02 0.  0.
          4    1    3    3  502    0  0.43214865105E+02  0.33386058632E+01  0.13288594823E+03  0.13977605694E+03  0.00000000000E+00 0. -1.
         -3    1    3    3    0  502  0.57603125569E+03  0.33982928053E+03  0.18098788337E+04  0.19294966546E+04  0.00000000000E+00 0.  1.
         11    1    5    5    0    0 -0.76192038290E+02  0.13032292969E+03  0.21346940758E+01  0.15097632139E+03  0.00000000000E+00 0. -1.
        -11    1    5    5    0    0 -0.10801734504E+03  0.47175750496E+02  0.37641285094E+02  0.12373424994E+03  0.00000000000E+00 0.  1.
          4    1    6    6  503    0 -0.38384919265E+03 -0.49254757971E+03  0.15577228471E+04  0.16782263820E+04  0.00000000000E+00 0. -1.
         -4    1    6    6    0  503 -0.51187544809E+02 -0.28118986872E+02  0.11324530081E+03  0.12741797488E+03  0.00000000000E+00 0.  1.
<mgrwt>
<rscale>  0 0.19675574E+04</rscale>
<asrwt>0</asrwt>
<pdfrwt beam="1">  1        2 0.60024123E+00 0.19675574E+04</pdfrwt>
<pdfrwt beam="2">  1       -1 0.38162982E-01 0.19675574E+04</pdfrwt>
<totfact> 0.29134178E+00</totfact>
</mgrwt>
</event>
<event>
12    6  0.1627636E-007  0.3014702E+04  0.7818608E-02  0.8239545E-01
          2   -1    0    0  501    0  0.00000000000E+00  0.00000000000E+00  0.41440031057E+04  0.41440031057E+04  0.00000000000E+00 0. -1.
         -1   -1    0    0    0  501 -0.00000000000E+00 -0.00000000000E+00 -0.54828797825E+03  0.54828797825E+03  0.00000000000E+00 0.  1.
         24    2    1    2    0    0 -0.81381114110E+03  0.10580930516E+04  0.18047299204E+04  0.22461599769E+04  0.79593197956E+02 0.  0.
        254    2    1    2    0    0  0.81381114110E+03 -0.10580930516E+04  0.17909852071E+04  0.24461311070E+04  0.99703555681E+03 0.  0.
         23    2    4    4    0    0  0.84806504578E+02 -0.76514052889E+03  0.13046690563E+04  0.15176224917E+04  0.91566963001E+02 0.  0.
         23    2    4    4    0    0  0.72900463653E+03 -0.29295252274E+03  0.48631615074E+03  0.92850861529E+03  0.91410664267E+02 0.  0.
          4    1    3    3  502    0 -0.24240939119E+03  0.37565867086E+03  0.61528370527E+03  0.76056280996E+03  0.00000000000E+00 0. -1.
         -3    1    3    3    0  502 -0.57140174992E+03  0.68243438077E+03  0.11894462151E+04  0.14855971670E+04  0.00000000000E+00 0.  1.
         11    1    5    5    0    0  0.76175245591E+01 -0.20782363928E+01  0.89976647289E+01  0.11970953073E+02  0.00000000000E+00 0.  1.
        -11    1    5    5    0    0  0.77188980019E+02 -0.76306229250E+03  0.12956713916E+04  0.15056515387E+04  0.00000000000E+00 0. -1.
          1    1    6    6  503    0  0.64868239320E+03 -0.29001403800E+03  0.43922186522E+03  0.83535192367E+03  0.00000000000E+00 0. -1.
         -1    1    6    6    0  503  0.80322243324E+02 -0.29384847340E+01  0.47094285517E+02  0.93156691620E+02  0.00000000000E+00 0.  1.
<mgrwt>
<rscale>  0 0.30147020E+04</rscale>
<asrwt>0</asrwt>
<pdfrwt beam="1">  1        2 0.63753892E+00 0.30147020E+04</pdfrwt>
<pdfrwt beam="2">  1       -1 0.84351999E-01 0.30147020E+04</pdfrwt>
<totfact> 0.35100765E-01</totfact>
</mgrwt>
</event>
<event>
12    6  0.1627636E-007  0.1460492E+04  0.7818608E-02  0.8911159E-01
          2   -1    0    0  501    0  0.00000000000E+00  0.00000000000E+00  0.42042845614E+03  0.42042845614E+03  0.00000000000E+00 0. -1.
         -1   -1    0    0    0  501 -0.00000000000E+00 -0.00000000000E+00 -0.12683710590E+04  0.12683710590E+04  0.00000000000E+00 0.  1.
         24    2    1    2    0    0 -0.15087952772E+03  0.40313230377E+03 -0.35963415002E+03  0.56651456338E+03  0.79509385861E+02 0.  0.
        254    2    1    2    0    0  0.15087952772E+03 -0.40313230377E+03 -0.48830845281E+03  0.11222849517E+04  0.91421993064E+03 0.  0.
         23    2    4    4    0    0  0.52494418584E+03 -0.17213075173E+03 -0.24632849845E+03  0.61227247792E+03  0.94891854901E+02 0.  0.
         23    2    4    4    0    0 -0.37406465812E+03 -0.23100155204E+03 -0.24197995436E+03  0.51001247381E+03  0.90952403120E+02 0.  0.
          4    1    3    3  502    0 -0.11767718408E+03  0.34994353188E+03 -0.27117628097E+03  0.45808838723E+03  0.00000000000E+00 0. -1.
         -3    1    3    3    0  502 -0.33202343643E+02  0.53188771889E+02 -0.88457869043E+02  0.10842617615E+03  0.00000000000E+00 0.  1.
         11    1    5    5    0    0  0.73021548606E+02 -0.46837940177E+02 -0.10618599033E+02  0.87399621545E+02  0.00000000000E+00 0.  1.
        -11    1    5    5    0    0  0.45192263724E+03 -0.12529281155E+03 -0.23570989942E+03  0.52487285637E+03  0.00000000000E+00 0. -1.
          2    1    6    6  503    0 -0.30032295158E+03 -0.22190009275E+03 -0.18723087811E+03  0.41771871891E+03  0.00000000000E+00 0. -1.
         -2    1    6    6    0  503 -0.73741706546E+02 -0.91014592939E+01 -0.54749076243E+02  0.92293754908E+02  0.00000000000E+00 0.  1.
<mgrwt>
<rscale>  0 0.14604921E+04</rscale>
<asrwt>0</asrwt>
<pdfrwt beam="1">  1        2 0.64681301E-01 0.14604921E+04</pdfrwt>
<pdfrwt beam="2">  1       -1 0.19513401E+00 0.14604921E+04</pdfrwt>
<totfact> 0.13550159E+01</totfact>
</mgrwt>
</event>
<event>
12    6  0.1627636E-007  0.1284162E+04  0.7818608E-02  0.9042220E-01
          2   -1    0    0  501    0  0.00000000000E+00  0.00000000000E+00  0.10991026245E+04  0.10991026245E+04  0.00000000000E+00 0. -1.
         -1   -1    0    0    0  501 -0.00000000000E+00 -0.00000000000E+00 -0.37509500465E+03  0.37509500465E+03  0.00000000000E+00 0.  1.
         24    2    1    2    0    0 -0.22478976939E+02  0.10775760054E+03 -0.15809339447E+03  0.21005733488E+03  0.83746986120E+02 0.  0.
        254    2    1    2    0    0  0.22478976939E+02 -0.10775760054E+03  0.88210101437E+03  0.12641402943E+04  0.89879445885E+03 0.  0.
         23    2    4    4    0    0 -0.19728532795E+03 -0.35471550467E+01  0.96526467480E+03  0.99050109883E+03  0.10209040812E+03 0.  0.
         23    2    4    4    0    0  0.21976430489E+03 -0.10421044550E+03 -0.83163660433E+02  0.27363919548E+03  0.93840546840E+02 0.  0.
          2    1    3    3  502    0 -0.26652277968E+02  0.99022610954E+02 -0.76616787781E+02  0.12800763091E+03  0.00000000000E+00 0. -1.
         -3    1    3    3    0  502  0.41733010292E+01  0.87349895888E+01 -0.81476606691E+02  0.82049703975E+02  0.00000000000E+00 0.  1.
         11    1    5    5    0    0 -0.89005906784E+02 -0.39686980362E+02  0.29764194965E+03  0.31318977960E+03  0.00000000000E+00 0. -1.
        -11    1    5    5    0    0 -0.10827942117E+03  0.36139825315E+02  0.66762272515E+03  0.67731131923E+03  0.00000000000E+00 0.  1.
          1    1    6    6  503    0  0.22787902785E+03 -0.10493604587E+03 -0.85689349659E+02  0.26510958056E+03  0.00000000000E+00 0.  1.
         -1    1    6    6    0  503 -0.81147229617E+01  0.72560037494E+00  0.25256892267E+01  0.85296149221E+01  0.00000000000E+00 0. -1.
<mgrwt>
<rscale>  0 0.12841618E+04</rscale>
<asrwt>0</asrwt>
<pdfrwt beam="1">  1        2 0.16909271E+00 0.12841618E+04</pdfrwt>
<pdfrwt beam="2">  1       -1 0.57706924E-01 0.12841618E+04</pdfrwt>
<totfact> 0.74245325E+01</totfact>
</mgrwt>
</event>
<event>
12    6  0.1627636E-007  0.1194600E+04  0.7818608E-02  0.9117596E-01
         -1   -1    0    0    0  501 -0.00000000000E+00  0.00000000000E+00  0.18355954423E+03  0.18355954423E+03  0.00000000000E+00 0.  1.
          2   -1    0    0  501    0  0.00000000000E+00 -0.00000000000E+00 -0.19436056201E+04  0.19436056201E+04  0.00000000000E+00 0. -1.
         24    2    1    2    0    0 -0.14949261567E+03 -0.15914102790E+03 -0.60741790143E+03  0.65028634334E+03  0.79005774764E+02 0.  0.
        254    2    1    2    0    0  0.14949261567E+03  0.15914102790E+03 -0.11526281744E+04  0.14768788210E+04  0.89718751355E+03 0.  0.
         23    2    4    4    0    0  0.34911591213E+03 -0.16973523182E+03 -0.20319573166E+03  0.44812631216E+03  0.94003815141E+02 0.  0.
         23    2    4    4    0    0 -0.19962329646E+03  0.32887625973E+03 -0.94943244277E+03  0.10287525088E+04  0.94343554778E+02 0.  0.
          4    1    3    3  502    0 -0.83141285362E+02 -0.33644469723E+02 -0.25729443948E+03  0.27247908592E+03  0.00000000000E+00 0. -1.
         -3    1    3    3    0  502 -0.66351330306E+02 -0.12549655818E+03 -0.35012346195E+03  0.37780725742E+03  0.00000000000E+00 0.  1.
         11    1    5    5    0    0  0.32728302128E+03 -0.15205853762E+03 -0.15589952415E+03  0.39311656861E+03  0.00000000000E+00 0. -1.
        -11    1    5    5    0    0  0.21832890844E+02 -0.17676694198E+02 -0.47296207512E+02  0.55009743549E+02  0.00000000000E+00 0.  1.
          1    1    6    6  503    0 -0.59392804842E+02  0.10174801414E+03 -0.41451775347E+03  0.43093518259E+03  0.00000000000E+00 0. -1.
         -1    1    6    6    0  503 -0.14023049162E+03  0.22712824558E+03 -0.53491468930E+03  0.59781732624E+03  0.00000000000E+00 0.  1.
<mgrwt>
<rscale>  0 0.11946001E+04</rscale>
<asrwt>0</asrwt>
<pdfrwt beam="1">  1        2 0.29901626E+00 0.11946001E+04</pdfrwt>
<pdfrwt beam="2">  1       -1 0.28239929E-01 0.11946001E+04</pdfrwt>
<totfact> 0.91696211E+01</totfact>
</mgrwt>
</event>
<event>
12    6  0.1627636E-007  0.1983569E+04  0.7818608E-02  0.8614341E-01
         -1   -1    0    0    0  501 -0.00000000000E+00  0.00000000000E+00  0.58797559598E+03  0.58797559598E+03  0.00000000000E+00 0.  1.
          2   -1    0    0  501    0  0.00000000000E+00 -0.00000000000E+00 -0.16729213208E+04  0.16729213208E+04  0.00000000000E+00 0. -1.
         24    2    1    2    0    0 -0.50067269400E+03  0.51312622305E+03 -0.64197551940E+02  0.72442239495E+03  0.81821838952E+02 0.  0.
        254    2    1    2    0    0  0.50067269400E+03 -0.51312622305E+03 -0.10207481729E+04  0.15364745218E+04  0.89713736767E+03 0.  0.
         23    2    4    4    0    0  0.33945927820E+03 -0.17917406989E+03 -0.10807197399E+04  0.11504327946E+04  0.90578749207E+02 0.  0.
         23    2    4    4    0    0  0.16121341580E+03 -0.33395215316E+03  0.59971567061E+02  0.38604172718E+03  0.88982134366E+02 0.  0.
          4    1    3    3  502    0 -0.35727482435E+03  0.35383309028E+03 -0.81492760354E+02  0.50939594215E+03  0.00000000000E+00 0. -1.
         -3    1    3    3    0  502 -0.14339786965E+03  0.15929313278E+03  0.17295208415E+02  0.21502645280E+03  0.00000000000E+00 0.  1.
         11    1    5    5    0    0  0.34031468467E+03 -0.18084393490E+03 -0.10309149908E+04  0.11005927183E+04  0.00000000000E+00 0. -1.
        -11    1    5    5    0    0 -0.85540646442E+00  0.16698650062E+01 -0.49804749160E+02  0.49840076327E+02  0.00000000000E+00 0.  1.
          2    1    6    6  503    0  0.16936292466E+03 -0.31725042585E+03  0.67648890926E+02  0.36593442772E+03  0.00000000000E+00 0. -1.
         -2    1    6    6    0  503 -0.81495088581E+01 -0.16701727315E+02 -0.76773238651E+01  0.20107299462E+02  0.00000000000E+00 0.  1.
<mgrwt>
<rscale>  0 0.19835694E+04</rscale>
<asrwt>0</asrwt>
<pdfrwt beam="1">  1        2 0.25737251E+00 0.19835694E+04</pdfrwt>
<pdfrwt beam="2">  1       -1 0.90457784E-01 0.19835694E+04</pdfrwt>
<totfact> 0.12850667E+01</totfact>
</mgrwt>
</event>
<event>
12    6  0.1627636E-007  0.1981687E+04  0.7818608E-02  0.8615231E-01
         -1   -1    0    0    0  501 -0.00000000000E+00  0.00000000000E+00  0.70919781677E+03  0.70919781677E+03  0.00000000000E+00 0.  1.
          2   -1    0    0  501    0  0.00000000000E+00 -0.00000000000E+00 -0.13843395503E+04  0.13843395503E+04  0.00000000000E+00 0. -1.
         24    2    1    2    0    0  0.27315103053E+03 -0.38090693089E+03  0.39401237029E+03  0.61784871250E+03  0.82399685185E+02 0.  0.
        254    2    1    2    0    0 -0.27315103053E+03  0.38090693089E+03 -0.10691541038E+04  0.14756886545E+04  0.90269869392E+03 0.  0.
         23    2    4    4    0    0  0.14489745462E+03 -0.17561603785E+03 -0.55259613118E+03  0.60454269327E+03  0.90956685757E+02 0.  0.
         23    2    4    4    0    0 -0.41804848516E+03  0.55652296874E+03 -0.51655797262E+03  0.87114596128E+03  0.87067767233E+02 0.  0.
          2    1    3    3  502    0  0.12255067489E+03 -0.12374034964E+03  0.10883255508E+03  0.20536520419E+03  0.00000000000E+00 0. -1.
         -1    1    3    3    0  502  0.15060035565E+03 -0.25716658125E+03  0.28517981521E+03  0.41248350831E+03  0.00000000000E+00 0.  1.
         11    1    5    5    0    0  0.13035956427E+03 -0.17252742364E+03 -0.54778531366E+03  0.58892111336E+03  0.00000000000E+00 0. -1.
        -11    1    5    5    0    0  0.14537890349E+02 -0.30886142152E+01 -0.48108175209E+01  0.15621579907E+02  0.00000000000E+00 0.  1.
          1    1    6    6  503    0 -0.30561749256E+03  0.39873390899E+03 -0.32288362884E+03  0.59719730383E+03  0.00000000000E+00 0. -1.
         -1    1    6    6    0  503 -0.11243099260E+03  0.15778905975E+03 -0.19367434379E+03  0.27394865745E+03  0.00000000000E+00 0.  1.
<mgrwt>
<rscale>  0 0.19816867E+04</rscale>
<asrwt>0</asrwt>
<pdfrwt beam="1">  1        2 0.21297531E+00 0.19816867E+04</pdfrwt>
<pdfrwt beam="2">  1       -1 0.10910736E+00 0.19816867E+04</pdfrwt>
<totfact> 0.12188700E+01</totfact>
</mgrwt>
</event>
<event>
12    6  0.1627636E-007  0.2025206E+04  0.7818608E-02  0.8594926E-01
          2   -1    0    0  501    0  0.00000000000E+00  0.00000000000E+00  0.11603989400E+04  0.11603989400E+04  0.00000000000E+00 0. -1.
         -3   -1    0    0    0  501 -0.00000000000E+00 -0.00000000000E+00 -0.88363096277E+03  0.88363096277E+03  0.00000000000E+00 0.  1.
         24    2    1    2    0    0  0.14670842468E+03  0.52427988102E+03  0.72274761222E+03  0.90825044734E+03  0.78498462490E+02 0.  0.
        254    2    1    2    0    0 -0.14670842468E+03 -0.52427988102E+03 -0.44597963495E+03  0.11357794555E+04  0.89146193479E+03 0.  0.
         23    2    4    4    0    0  0.11613074730E+03  0.36700752335E+02  0.18990091174E+03  0.24309368256E+03  0.90547703075E+02 0.  0.
         23    2    4    4    0    0 -0.26283917198E+03 -0.56098063335E+03 -0.63588054669E+03  0.89268577291E+03  0.93595502941E+02 0.  0.
          2    1    3    3  502    0  0.15047030628E+03  0.52295785206E+03  0.70796409309E+03  0.89293862343E+03  0.00000000000E+00 0. -1.
         -1    1    3    3    0  502 -0.37618815985E+01  0.13220289593E+01  0.14783519131E+02  0.15311823916E+02  0.00000000000E+00 0.  1.
         11    1    5    5    0    0  0.15170274704E+02 -0.26606916440E+02  0.56121798144E+02  0.63935291224E+02  0.00000000000E+00 0. -1.
        -11    1    5    5    0    0  0.10096047260E+03  0.63307668776E+02  0.13377911359E+03  0.17915839134E+03  0.00000000000E+00 0.  1.
          2    1    6    6  503    0 -0.15234167510E+03 -0.22253413067E+03 -0.29681340096E+03  0.40103319099E+03  0.00000000000E+00 0. -1.
         -2    1    6    6    0  503 -0.11049749688E+03 -0.33844650269E+03 -0.33906714573E+03  0.49165258192E+03  0.00000000000E+00 0.  1.
<mgrwt>
<rscale>  0 0.20252056E+04</rscale>
<asrwt>0</asrwt>
<pdfrwt beam="1">  1        2 0.17852291E+00 0.20252056E+04</pdfrwt>
<pdfrwt beam="2">  1       -3 0.13594323E+00 0.20252056E+04</pdfrwt>
<totfact> 0.48732340E+00</totfact>
</mgrwt>
</event>
<event>
12    6  0.1627636E-007  0.3217380E+04  0.7818608E-02  0.8184242E-01
          2   -1    0    0  501    0  0.00000000000E+00  0.00000000000E+00  0.16034594774E+04  0.16034594774E+04  0.00000000000E+00 0. -1.
         -1   -1    0    0    0  501 -0.00000000000E+00 -0.00000000000E+00 -0.16139378504E+04  0.16139378504E+04  0.00000000000E+00 0.  1.
         24    2    1    2    0    0  0.13223360661E+04 -0.21673848293E+03  0.61797368036E+03  0.14777442368E+04  0.79298916388E+02 0.  0.
        254    2    1    2    0    0 -0.13223360661E+04  0.21673848293E+03 -0.62845205338E+03  0.17396530910E+04  0.91427165101E+03 0.  0.
         23    2    4    4    0    0 -0.14232011380E+04  0.80841732607E+02 -0.53280763233E+03  0.15246021286E+04  0.92145604280E+02 0.  0.
         23    2    4    4    0    0  0.10086507190E+03  0.13589675032E+03 -0.95644421049E+02  0.21505096242E+03  0.91963969483E+02 0.  0.
          2    1    3    3  502    0  0.12513968255E+04 -0.18685974499E+03  0.58623831219E+03  0.13944841118E+04  0.00000000000E+00 0. -1.
         -1    1    3    3    0  502  0.70939240554E+02 -0.29878737934E+02  0.31735368167E+02  0.83260125052E+02  0.00000000000E+00 0.  1.
         11    1    5    5    0    0 -0.27605162601E+03  0.48117134693E+02 -0.12284396302E+03  0.30595816401E+03  0.00000000000E+00 0. -1.
        -11    1    5    5    0    0 -0.11471495120E+04  0.32724597914E+02 -0.40996366932E+03  0.12186439645E+04  0.00000000000E+00 0.  1.
          3    1    6    6  503    0 -0.23352536539E+01  0.16818104930E+02 -0.47255065523E+02  0.50212979205E+02  0.00000000000E+00 0. -1.
         -3    1    6    6    0  503  0.10320032555E+03  0.11907864539E+03 -0.48389355525E+02  0.16483798321E+03  0.00000000000E+00 0.  1.
<mgrwt>
<rscale>  0 0.32173803E+04</rscale>
<asrwt>0</asrwt>
<pdfrwt beam="1">  1        2 0.24668607E+00 0.32173803E+04</pdfrwt>
<pdfrwt beam="2">  1       -1 0.24829813E+00 0.32173803E+04</pdfrwt>
<totfact> 0.76011940E-01</totfact>
</mgrwt>
</event>
<event>
12    6  0.1627636E-007  0.2773501E+04  0.7818608E-02  0.8311543E-01
         -1   -1    0    0    0  501 -0.00000000000E+00  0.00000000000E+00  0.43345934264E+03  0.43345934264E+03  0.00000000000E+00 0.  1.
          2   -1    0    0  501    0  0.00000000000E+00 -0.00000000000E+00 -0.44365800912E+04  0.44365800912E+04  0.00000000000E+00 0. -1.
         24    2    1    2    0    0  0.27053630665E+03  0.29435450841E+03  0.26552263116E+03  0.48670446954E+03  0.80898103696E+02 0.  0.
        254    2    1    2    0    0 -0.27053630665E+03 -0.29435450841E+03 -0.42686433797E+04  0.43833349642E+04  0.91240048017E+03 0.  0.
         23    2    4    4    0    0 -0.46315006835E+03 -0.50225306701E+03 -0.26974980783E+04  0.27841529892E+04  0.90806696528E+02 0.  0.
         23    2    4    4    0    0  0.19261376170E+03  0.20789855861E+03 -0.15711453014E+04  0.15991819750E+04  0.92539500798E+02 0.  0.
          4    1    3    3  502    0  0.65077647747E+02  0.11460266838E+03  0.11531154716E+03  0.17511603223E+03  0.00000000000E+00 0. -1.
         -3    1    3    3    0  502  0.20545865890E+03  0.17975184003E+03  0.15021108400E+03  0.31158843732E+03  0.00000000000E+00 0.  1.
         11    1    5    5    0    0 -0.25188239474E+03 -0.33096139144E+03 -0.17140514233E+04  0.17637892349E+04  0.00000000000E+00 0. -1.
        -11    1    5    5    0    0 -0.21126767360E+03 -0.17129167558E+03 -0.98344665492E+03  0.10203637543E+04  0.00000000000E+00 0.  1.
          3    1    6    6  503    0  0.12833423481E+01  0.13359131467E+02 -0.19159027142E+02  0.23391914889E+02  0.00000000000E+00 0. -1.
         -3    1    6    6    0  503  0.19133041935E+03  0.19453942714E+03 -0.15519862743E+04  0.15757900601E+04  0.00000000000E+00 0.  1.
<mgrwt>
<rscale>  0 0.27735011E+04</rscale>
<asrwt>0</asrwt>
<pdfrwt beam="1">  1        2 0.68255081E+00 0.27735011E+04</pdfrwt>
<pdfrwt beam="2">  1       -1 0.66686050E-01 0.27735011E+04</pdfrwt>
<totfact> 0.32061746E-01</totfact>
</mgrwt>
</event>
<event>
12    6  0.1627636E-007  0.2714705E+04  0.7818608E-02  0.8330249E-01
          2   -1    0    0  501    0  0.00000000000E+00  0.00000000000E+00  0.13043819621E+04  0.13043819621E+04  0.00000000000E+00 0. -1.
         -1   -1    0    0    0  501 -0.00000000000E+00 -0.00000000000E+00 -0.14124745358E+04  0.14124745358E+04  0.00000000000E+00 0.  1.
         24    2    1    2    0    0 -0.48840071596E+03  0.49302272664E+03  0.93994562747E+03  0.11710612952E+04  0.79247121634E+02 0.  0.
        254    2    1    2    0    0  0.48840071596E+03 -0.49302272664E+03 -0.10480382012E+04  0.15457952026E+04  0.89971777183E+03 0.  0.
         23    2    4    4    0    0  0.24500324879E+03 -0.35114711264E+03 -0.11519357541E+04  0.12322860118E+04  0.90785167555E+02 0.  0.
         23    2    4    4    0    0  0.24339746717E+03 -0.14187561399E+03  0.10389755289E+03  0.31350919085E+03  0.90123772572E+02 0.  0.
          4    1    3    3  502    0 -0.46413294184E+03  0.48704512521E+03  0.89546827808E+03  0.11200427576E+04  0.00000000000E+00 0. -1.
         -3    1    3    3    0  502 -0.24267774118E+02  0.59776014211E+01  0.44477349383E+02  0.51018537686E+02  0.00000000000E+00 0.  1.
         11    1    5    5    0    0  0.13351847874E+03 -0.11478327830E+03 -0.48541614918E+03  0.51636346020E+03  0.00000000000E+00 0.  1.
        -11    1    5    5    0    0  0.11148477006E+03 -0.23636383434E+03 -0.66651960488E+03  0.71592255156E+03  0.00000000000E+00 0. -1.
          1    1    6    6  503    0 -0.57317889821E+01 -0.40646458548E+01  0.12769476387E+02  0.14575125319E+02  0.00000000000E+00 0.  1.
         -1    1    6    6    0  503  0.24912925615E+03 -0.13781096814E+03  0.91128076498E+02  0.29893406553E+03  0.00000000000E+00 0. -1.
<mgrwt>
<rscale>  0 0.27147054E+04</rscale>
<asrwt>0</asrwt>
<pdfrwt beam="1">  1        2 0.20067415E+00 0.27147054E+04</pdfrwt>
<pdfrwt beam="2">  1       -1 0.21730377E+00 0.27147054E+04</pdfrwt>
<totfact> 0.18823800E+00</totfact>
</mgrwt>
</event>
<event>
12    6  0.1627636E-007  0.2311497E+04  0.7818608E-02  0.8473402E-01
         -1   -1    0    0    0  501 -0.00000000000E+00  0.00000000000E+00  0.10627391440E+04  0.10627391440E+04  0.00000000000E+00 0.  1.
          2   -1    0    0  501    0  0.00000000000E+00 -0.00000000000E+00 -0.12568981029E+04  0.12568981029E+04  0.00000000000E+00 0. -1.
         24    2    1    2    0    0 -0.10512164028E+03  0.66416741466E+03 -0.79920426900E+03  0.10477299826E+04  0.82714804145E+02 0.  0.
        254    2    1    2    0    0  0.10512164028E+03 -0.66416741466E+03  0.60504531012E+03  0.12719072643E+04  0.89414727403E+03 0.  0.
         23    2    4    4    0    0  0.90734109654E+00  0.20184148236E+03  0.22525669208E+03  0.31614163972E+03  0.92000824827E+02 0.  0.
         23    2    4    4    0    0  0.10421429918E+03 -0.86600889702E+03  0.37978861804E+03  0.95576562455E+03  0.91741510879E+02 0.  0.
          2    1    3    3  502    0 -0.46343144626E+02  0.51638447571E+03 -0.61200857623E+03  0.80209420344E+03  0.00000000000E+00 0. -1.
         -1    1    3    3    0  502 -0.58778495650E+02  0.14778293895E+03 -0.18719569277E+03  0.24563577912E+03  0.00000000000E+00 0.  1.
         11    1    5    5    0    0 -0.28476008125E+02  0.15100011665E+03  0.20001204383E+03  0.25222358324E+03  0.00000000000E+00 0.  1.
        -11    1    5    5    0    0  0.29383349221E+02  0.50841365704E+02  0.25244648252E+02  0.63918056475E+02  0.00000000000E+00 0. -1.
          3    1    6    6  503    0  0.41244729133E+02 -0.60148565169E+03  0.29308651491E+03  0.67036245576E+03  0.00000000000E+00 0. -1.
         -3    1    6    6    0  503  0.62969570047E+02 -0.26452324533E+03  0.86702103133E+02  0.28540316879E+03  0.00000000000E+00 0.  1.
<mgrwt>
<rscale>  0 0.23114972E+04</rscale>
<asrwt>0</asrwt>
<pdfrwt beam="1">  1        2 0.19336894E+00 0.23114972E+04</pdfrwt>
<pdfrwt beam="2">  1       -1 0.16349833E+00 0.23114972E+04</pdfrwt>
<totfact> 0.49750175E+00</totfact>
</mgrwt>
</event>
<event>
12    6  0.1627636E-007  0.1960435E+04  0.7818608E-02  0.8625345E-01
          2   -1    0    0  501    0  0.00000000000E+00  0.00000000000E+00  0.14855783639E+04  0.14855783639E+04  0.00000000000E+00 0. -1.
         -1   -1    0    0    0  501 -0.00000000000E+00 -0.00000000000E+00 -0.64676922331E+03  0.64676922331E+03  0.00000000000E+00 0.  1.
         24    2    1    2    0    0  0.39409490233E+03  0.56598436503E+02  0.99637989759E+03  0.10755944734E+04  0.74942617139E+02 0.  0.
        254    2    1    2    0    0 -0.39409490233E+03 -0.56598436503E+02 -0.15757075696E+03  0.10567531138E+04  0.96611822522E+03 0.  0.
         23    2    4    4    0    0 -0.59003520045E+03  0.10690019653E+03  0.17191691001E+03  0.63008879731E+03  0.88810352748E+02 0.  0.
         23    2    4    4    0    0  0.19594029812E+03 -0.16349863304E+03 -0.32948766697E+03  0.42666431653E+03  0.91410682574E+02 0.  0.
          2    1    3    3  502    0  0.39411264996E+03  0.58187622262E+02  0.99718015022E+03  0.10738150829E+04  0.00000000000E+00 0. -1.
         -1    1    3    3    0  502 -0.17747629869E-01 -0.15891857594E+01 -0.80025263507E+00  0.17793905238E+01  0.00000000000E+00 0.  1.
         11    1    5    5    0    0 -0.38657507553E+03  0.10400094693E+03  0.87379341585E+02  0.40974581795E+03  0.00000000000E+00 0. -1.
        -11    1    5    5    0    0 -0.20346012492E+03  0.28992495991E+01  0.84537568423E+02  0.22034297936E+03  0.00000000000E+00 0.  1.
          2    1    6    6  503    0  0.66926419740E+02 -0.65626064322E+02 -0.57042633020E+02  0.10972596757E+03  0.00000000000E+00 0. -1.
         -2    1    6    6    0  503  0.12901387838E+03 -0.97872568715E+02 -0.27244503395E+03  0.31693834896E+03  0.00000000000E+00 0.  1.
<mgrwt>
<rscale>  0 0.19604350E+04</rscale>
<asrwt>0</asrwt>
<pdfrwt beam="1">  1        2 0.22855052E+00 0.19604350E+04</pdfrwt>
<pdfrwt beam="2">  1       -1 0.99502958E-01 0.19604350E+04</pdfrwt>
<totfact> 0.13242751E+01</totfact>
</mgrwt>
</event>
<event>
12    6  0.1627636E-007  0.2376554E+04  0.7818608E-02  0.8448334E-01
          2   -1    0    0  501    0  0.00000000000E+00  0.00000000000E+00  0.26783106796E+04  0.26783106796E+04  0.00000000000E+00 0. -1.
         -1   -1    0    0    0  501 -0.00000000000E+00 -0.00000000000E+00 -0.52719882757E+03  0.52719882757E+03  0.00000000000E+00 0.  1.
         24    2    1    2    0    0  0.45827769787E+03  0.12943987534E+03  0.21313714194E+04  0.21854707818E+04  0.82251326767E+02 0.  0.
        254    2    1    2    0    0 -0.45827769787E+03 -0.12943987534E+03  0.19740432568E+02  0.10200387254E+04  0.90184044424E+03 0.  0.
         23    2    4    4    0    0 -0.48597106160E+02  0.35728821952E+03  0.57112472637E+02  0.37632653379E+03  0.91341529279E+02 0.  0.
         23    2    4    4    0    0 -0.40968059171E+03 -0.48672809486E+03 -0.37372040069E+02  0.64371219157E+03  0.90698901012E+02 0.  0.
          4    1    3    3  502    0  0.18774830414E+03  0.73513764394E+02  0.74229909032E+03  0.76919544899E+03  0.00000000000E+00 0. -1.
         -3    1    3    3    0  502  0.27052939373E+03  0.55926110946E+02  0.13890723291E+04  0.14162753328E+04  0.00000000000E+00 0.  1.
         11    1    5    5    0    0 -0.24591383553E+02  0.18008271109E+02 -0.40338197598E+01  0.30745823704E+02  0.00000000000E+00 0. -1.
        -11    1    5    5    0    0 -0.24005722607E+02  0.33927994841E+03  0.61146292397E+02  0.34558071009E+03  0.00000000000E+00 0.  1.
          4    1    6    6  503    0 -0.39577453125E+03 -0.48324707356E+03 -0.47072701981E+02  0.62640326704E+03  0.00000000000E+00 0.  1.
         -4    1    6    6    0  503 -0.13906060460E+02 -0.34810213054E+01  0.97006619113E+01  0.17308924529E+02  0.00000000000E+00 0. -1.
<mgrwt>
<rscale>  0 0.23765540E+04</rscale>
<asrwt>0</asrwt>
<pdfrwt beam="1">  1        2 0.41204779E+00 0.23765540E+04</pdfrwt>
<pdfrwt beam="2">  1       -1 0.81107514E-01 0.23765540E+04</pdfrwt>
<totfact> 0.42470722E+00</totfact>
</mgrwt>
</event>
<event>
12    6  0.1627636E-007  0.1474652E+04  0.7818608E-02  0.8901486E-01
          2   -1    0    0  501    0  0.00000000000E+00  0.00000000000E+00  0.59063360687E+03  0.59063360687E+03  0.00000000000E+00 0. -1.
         -1   -1    0    0    0  501 -0.00000000000E+00 -0.00000000000E+00 -0.92045155381E+03  0.92045155381E+03  0.00000000000E+00 0.  1.
         24    2    1    2    0    0  0.19586393520E+03  0.40832740410E+03 -0.16888459339E+03  0.48972422200E+03  0.78828025948E+02 0.  0.
        254    2    1    2    0    0 -0.19586393520E+03 -0.40832740410E+03 -0.16093335355E+03  0.10213609387E+04  0.90121288979E+03 0.  0.
         23    2    4    4    0    0 -0.20514243839E+03 -0.51158268909E+03 -0.44017723946E+03  0.71112022302E+03  0.90198124481E+02 0.  0.
         23    2    4    4    0    0  0.92785031813E+01  0.10325528498E+03  0.27924388591E+03  0.31024071566E+03  0.86743353285E+02 0.  0.
          2    1    3    3  502    0  0.63740389260E+01  0.27420378121E+02 -0.32419760131E+02  0.42936538699E+02  0.00000000000E+00 0. -1.
         -1    1    3    3    0  502  0.18948989628E+03  0.38090702598E+03 -0.13646483326E+03  0.44678768330E+03  0.00000000000E+00 0.  1.
         11    1    5    5    0    0 -0.80467824896E+02 -0.12284846550E+03 -0.83008210259E+02  0.16869255849E+03  0.00000000000E+00 0. -1.
        -11    1    5    5    0    0 -0.12467461349E+03 -0.38873422359E+03 -0.35716902920E+03  0.54242766454E+03  0.00000000000E+00 0.  1.
          1    1    6    6  503    0  0.13982343124E+02 -0.12806276287E+02  0.42401354704E+02  0.46447621170E+02  0.00000000000E+00 0. -1.
         -1    1    6    6    0  503 -0.47038399424E+01  0.11606156127E+03  0.23684253120E+03  0.26379309449E+03  0.00000000000E+00 0.  1.
<mgrwt>
<rscale>  0 0.14746520E+04</rscale>
<asrwt>0</asrwt>
<pdfrwt beam="1">  1        2 0.90866709E-01 0.14746520E+04</pdfrwt>
<pdfrwt beam="2">  1       -1 0.14160793E+00 0.14746520E+04</pdfrwt>
<totfact> 0.22749588E+01</totfact>
</mgrwt>
</event>
<event>
12    6  0.1627636E-007  0.1537299E+04  0.7818608E-02  0.8860021E-01
          2   -1    0    0  501    0  0.00000000000E+00  0.00000000000E+00  0.27176747603E+04  0.27176747603E+04  0.00000000000E+00 0. -1.
         -3   -1    0    0    0  501 -0.00000000000E+00 -0.00000000000E+00 -0.21739987229E+03  0.21739987229E+03  0.00000000000E+00 0.  1.
         24    2    1    2    0    0  0.19518189814E+03 -0.25255043173E+03  0.92603796206E+02  0.34122985704E+03  0.77360573546E+02 0.  0.
        254    2    1    2    0    0 -0.19518189814E+03  0.25255043173E+03  0.24076710918E+04  0.25938447755E+04  0.91064424412E+03 0.  0.
         23    2    4    4    0    0 -0.45459523539E+03  0.41320854074E+03  0.12952813053E+04  0.14366814284E+04  0.94349036141E+02 0.  0.
         23    2    4    4    0    0  0.25941333725E+03 -0.16065810901E+03  0.11123897865E+04  0.11571633472E+04  0.92247858215E+02 0.  0.
          4    1    3    3  502    0  0.62494997652E+01 -0.41154632938E+00  0.15709286542E+02  0.16911750393E+02  0.00000000000E+00 0. -1.
         -3    1    3    3    0  502  0.18893239837E+03 -0.25213888540E+03  0.76894509664E+02  0.32431810665E+03  0.00000000000E+00 0.  1.
         11    1    5    5    0    0 -0.28208118734E+03  0.31541371308E+03  0.87146409169E+03  0.96876481653E+03  0.00000000000E+00 0. -1.
        -11    1    5    5    0    0 -0.17251404805E+03  0.97794827658E+02  0.42381721358E+03  0.46791661182E+03  0.00000000000E+00 0.  1.
          3    1    6    6  503    0  0.85809943016E+02 -0.10661389019E+03  0.49170298578E+03  0.51039366584E+03  0.00000000000E+00 0.  1.
         -3    1    6    6    0  503  0.17360339424E+03 -0.54044218816E+02  0.62068680074E+03  0.64676968133E+03  0.00000000000E+00 0. -1.
<mgrwt>
<rscale>  0 0.15372991E+04</rscale>
<asrwt>0</asrwt>
<pdfrwt beam="1">  1        2 0.41810379E+00 0.15372991E+04</pdfrwt>
<pdfrwt beam="2">  1       -3 0.33446136E-01 0.15372991E+04</pdfrwt>
<totfact> 0.14318487E+01</totfact>
</mgrwt>
</event>
<event>
12    6  0.1627636E-007  0.1953594E+04  0.7818608E-02  0.8628630E-01
          2   -1    0    0  501    0  0.00000000000E+00  0.00000000000E+00  0.15354588711E+04  0.15354588711E+04  0.00000000000E+00 0. -1.
         -1   -1    0    0    0  501 -0.00000000000E+00 -0.00000000000E+00 -0.62139877914E+03  0.62139877914E+03  0.00000000000E+00 0.  1.
         24    2    1    2    0    0 -0.39448305840E+03  0.37468825713E+02  0.10759634859E+04  0.11494868708E+04  0.81251750048E+02 0.  0.
        254    2    1    2    0    0  0.39448305840E+03 -0.37468825713E+02 -0.16190339403E+03  0.10073707793E+04  0.91190042319E+03 0.  0.
         23    2    4    4    0    0  0.54937252837E+03  0.12855285387E+03  0.17023811026E+03  0.59627889710E+03  0.90727602027E+02 0.  0.
         23    2    4    4    0    0 -0.15488946998E+03 -0.16602167959E+03 -0.33214150429E+03  0.41109188225E+03  0.84407409487E+02 0.  0.
          4    1    3    3  502    0 -0.32810503269E+03  0.19701507123E+02  0.79559915428E+03  0.86082464890E+03  0.00000000000E+00 0. -1.
         -3    1    3    3    0  502 -0.66378025704E+02  0.17767318590E+02  0.28036433167E+03  0.28866222194E+03  0.00000000000E+00 0.  1.
         11    1    5    5    0    0  0.30510603896E+03  0.68429756584E+02  0.47143368078E+02  0.31621958154E+03  0.00000000000E+00 0. -1.
        -11    1    5    5    0    0  0.24426648941E+03  0.60123097291E+02  0.12309474218E+03  0.28005931556E+03  0.00000000000E+00 0.  1.
          2    1    6    6  503    0 -0.16333700188E+03 -0.14431048815E+03 -0.28796177521E+03  0.36114606069E+03  0.00000000000E+00 0. -1.
         -2    1    6    6    0  503  0.84475319071E+01 -0.21711191442E+02 -0.44179729083E+02  0.49945821557E+02  0.00000000000E+00 0.  1.
<mgrwt>
<rscale>  0 0.19535939E+04</rscale>
<asrwt>0</asrwt>
<pdfrwt beam="1">  1        2 0.23622444E+00 0.19535939E+04</pdfrwt>
<pdfrwt beam="2">  1       -1 0.95599813E-01 0.19535939E+04</pdfrwt>
<totfact> 0.13596940E+01</totfact>
</mgrwt>
</event>
<event>
12    6  0.1724419E-007  0.2668311E+04  0.7818608E-02  0.8345361E-01
         -1   -1    0    0    0  501 -0.00000000000E+00  0.00000000000E+00  0.84727864898E+03  0.84727864898E+03  0.00000000000E+00 0.  1.
          2   -1    0    0  501    0  0.00000000000E+00 -0.00000000000E+00 -0.21008092814E+04  0.21008092814E+04  0.00000000000E+00 0. -1.
         24    2    1    2    0    0  0.26099817461E+03 -0.52365004636E+02 -0.18321767820E+04  0.18530415666E+04  0.77647576104E+02 0.  0.
        254    2    1    2    0    0 -0.26099817461E+03  0.52365004636E+02  0.57864614956E+03  0.10950463638E+04  0.89074857939E+03 0.  0.
         23    2    4    4    0    0 -0.49381705828E+03  0.28878166896E+03  0.30056530757E+03  0.65245191650E+03  0.90021441081E+02 0.  0.
         23    2    4    4    0    0  0.23281888367E+03 -0.23641666433E+03  0.27808084200E+03  0.44259444734E+03  0.91996838886E+02 0.  0.
          2    1    3    3  502    0  0.22474631171E+03 -0.71909333301E+02 -0.15800842124E+04  0.15976069526E+04  0.00000000000E+00 0. -1.
         -1    1    3    3    0  502  0.36251862895E+02  0.19544328665E+02 -0.25209256961E+03  0.25543461394E+03  0.00000000000E+00 0.  1.
         11    1    5    5    0    0 -0.28809473332E+03  0.16870414093E+03  0.22481927922E+03  0.40249642339E+03  0.00000000000E+00 0.  1.
        -11    1    5    5    0    0 -0.20572232496E+03  0.12007752804E+03  0.75746028351E+02  0.24995549311E+03  0.00000000000E+00 0. -1.
          4    1    6    6  503    0  0.18104800906E+03 -0.18334711862E+03  0.16043291816E+03  0.30353462524E+03  0.00000000000E+00 0. -1.
         -4    1    6    6    0  503  0.51770874611E+02 -0.53069545710E+02  0.11764792383E+03  0.13905982210E+03  0.00000000000E+00 0.  1.
<mgrwt>
<rscale>  0 0.26683110E+04</rscale>
<asrwt>0</asrwt>
<pdfrwt beam="1">  1        2 0.32320143E+00 0.26683110E+04</pdfrwt>
<pdfrwt beam="2">  1       -1 0.13035056E+00 0.26683110E+04</pdfrwt>
<totfact> 0.29580106E+00</totfact>
</mgrwt>
</event>
<event>
12    6  0.1627636E-007  0.1933737E+04  0.7818608E-02  0.8638243E-01
          2   -1    0    0  501    0  0.00000000000E+00  0.00000000000E+00  0.17694047912E+04  0.17694047912E+04  0.00000000000E+00 0. -1.
         -1   -1    0    0    0  501 -0.00000000000E+00 -0.00000000000E+00 -0.52833264110E+03  0.52833264110E+03  0.00000000000E+00 0.  1.
         24    2    1    2    0    0  0.13565694477E+03  0.52211527123E+03 -0.14551920115E+03  0.56453588065E+03  0.80732642266E+02 0.  0.
        254    2    1    2    0    0 -0.13565694477E+03 -0.52211527123E+03  0.13865913512E+04  0.17332015516E+04  0.88901343080E+03 0.  0.
         23    2    4    4    0    0  0.34211283615E+03 -0.10215792238E+03  0.71254256219E+03  0.80195024126E+03  0.89049720693E+02 0.  0.
         23    2    4    4    0    0 -0.47776978093E+03 -0.41995734885E+03  0.67404878901E+03  0.93125131034E+03  0.90879561142E+02 0.  0.
          4    1    3    3  502    0  0.75527351177E+01  0.40514656383E+02 -0.35026980004E+02  0.54086694462E+02  0.00000000000E+00 0. -1.
         -3    1    3    3    0  502  0.12810420966E+03  0.48160061484E+03 -0.11049222115E+03  0.51044918619E+03  0.00000000000E+00 0.  1.
         11    1    5    5    0    0  0.26892352541E+03 -0.10073574084E+03  0.62512190241E+03  0.68792800850E+03  0.00000000000E+00 0.  1.
        -11    1    5    5    0    0  0.73189310746E+02 -0.14221815448E+01  0.87420659779E+02  0.11402223276E+03  0.00000000000E+00 0. -1.
          4    1    6    6  503    0 -0.33331702763E+03 -0.29980127586E+03  0.53200343882E+03  0.69570734136E+03  0.00000000000E+00 0. -1.
         -4    1    6    6    0  503 -0.14445275330E+03 -0.12015607298E+03  0.14204535019E+03  0.23554396898E+03  0.00000000000E+00 0.  1.
<mgrwt>
<rscale>  0 0.19337366E+04</rscale>
<asrwt>0</asrwt>
<pdfrwt beam="1">  1        2 0.27221612E+00 0.19337366E+04</pdfrwt>
<pdfrwt beam="2">  1       -1 0.81281946E-01 0.19337366E+04</pdfrwt>
<totfact> 0.14391371E+01</totfact>
</mgrwt>
</event>
<event>
12    6  0.1627636E-007  0.1991949E+04  0.7818608E-02  0.8610394E-01
          2   -1    0    0  501    0  0.00000000000E+00  0.00000000000E+00  0.27024739722E+04  0.27024739722E+04  0.00000000000E+00 0. -1.
         -3   -1    0    0    0  501 -0.00000000000E+00 -0.00000000000E+00 -0.36705820008E+03  0.36705820008E+03  0.00000000000E+00 0.  1.
         24    2    1    2    0    0  0.22841957107E+02 -0.77149230969E+03  0.73100811515E+03  0.10660934009E+04  0.80374971852E+02 0.  0.
        254    2    1    2    0    0 -0.22841957107E+02  0.77149230969E+03  0.16044076570E+04  0.20034387714E+04  0.91865164347E+03 0.  0.
         23    2    4    4    0    0 -0.32552008880E+03  0.17957084962E+03  0.10982410626E+04  0.11630456035E+04  0.91283218577E+02 0.  0.
         23    2    4    4    0    0  0.30267813170E+03  0.59192146007E+03  0.50616659436E+03  0.84039316788E+03  0.89838683585E+02 0.  0.
          2    1    3    3  502    0  0.36340795437E+02 -0.33994690196E+03  0.36459605542E+03  0.49981479890E+03  0.00000000000E+00 0. -1.
         -1    1    3    3    0  502 -0.13498838330E+02 -0.43154540772E+03  0.36641205973E+03  0.56627860200E+03  0.00000000000E+00 0.  1.
         11    1    5    5    0    0  0.25704215880E+01 -0.54069120117E+01  0.13250789091E+02  0.14540466849E+02  0.00000000000E+00 0. -1.
        -11    1    5    5    0    0 -0.32809051039E+03  0.18497776163E+03  0.10849902735E+04  0.11485051367E+04  0.00000000000E+00 0.  1.
          1    1    6    6  503    0  0.39428901216E+02  0.45858078876E+02  0.75722859649E+02  0.96910025914E+02  0.00000000000E+00 0. -1.
         -1    1    6    6    0  503  0.26324923048E+03  0.54606338119E+03  0.43044373471E+03  0.74348314196E+03  0.00000000000E+00 0.  1.
<mgrwt>
<rscale>  0 0.19919490E+04</rscale>
<asrwt>0</asrwt>
<pdfrwt beam="1">  1        2 0.41576521E+00 0.19919490E+04</pdfrwt>
<pdfrwt beam="2">  1       -3 0.56470494E-01 0.19919490E+04</pdfrwt>
<totfact> 0.48905921E+00</totfact>
</mgrwt>
</event>
<event>
12    6  0.1627636E-007  0.2184004E+04  0.7818608E-02  0.8525116E-01
          2   -1    0    0  501    0  0.00000000000E+00  0.00000000000E+00  0.21283277027E+04  0.21283277027E+04  0.00000000000E+00 0. -1.
         -1   -1    0    0    0  501 -0.00000000000E+00 -0.00000000000E+00 -0.56028432903E+03  0.56028432903E+03  0.00000000000E+00 0.  1.
         24    2    1    2    0    0  0.58567469127E+03  0.22670125397E+03 -0.14647186422E+03  0.64979954789E+03  0.79857015273E+02 0.  0.
        254    2    1    2    0    0 -0.58567469127E+03 -0.22670125397E+03  0.17145152379E+04  0.20388124838E+04  0.90707526742E+03 0.  0.
         23    2    4    4    0    0 -0.81806700324E+03 -0.20619078177E+03  0.12377917395E+04  0.15004070343E+04  0.85700747004E+02 0.  0.
         23    2    4    4    0    0  0.23239231197E+03 -0.20510472193E+02  0.47672349836E+03  0.53840544948E+03  0.90489049120E+02 0.  0.
          4    1    3    3  502    0  0.32544441280E+03  0.89968294557E+02 -0.56281852469E+02  0.34230981109E+03  0.00000000000E+00 0. -1.
         -3    1    3    3    0  502  0.26023027847E+03  0.13673295941E+03 -0.90190011749E+02  0.30748973680E+03  0.00000000000E+00 0.  1.
         11    1    5    5    0    0 -0.38389032232E+02 -0.14957346997E+02  0.33657110197E+02  0.53200010261E+02  0.00000000000E+00 0.  1.
        -11    1    5    5    0    0 -0.77967797101E+03 -0.19123343478E+03  0.12041346293E+04  0.14472070241E+04  0.00000000000E+00 0. -1.
          2    1    6    6  503    0  0.11807576187E+03  0.19077748885E+02  0.31112902706E+03  0.33332734290E+03  0.00000000000E+00 0. -1.
         -2    1    6    6    0  503  0.11431655010E+03 -0.39588221078E+02  0.16559447129E+03  0.20507810658E+03  0.00000000000E+00 0.  1.
<mgrwt>
<rscale>  0 0.21840043E+04</rscale>
<asrwt>0</asrwt>
<pdfrwt beam="1">  1        2 0.32743503E+00 0.21840043E+04</pdfrwt>
<pdfrwt beam="2">  1       -1 0.86197590E-01 0.21840043E+04</pdfrwt>
<totfact> 0.78365520E+00</totfact>
</mgrwt>
</event>
<event>
12    6  0.1627636E-007  0.1720111E+04  0.7818608E-02  0.8749977E-01
         -1   -1    0    0    0  501 -0.00000000000E+00  0.00000000000E+00  0.33291304486E+03  0.33291304486E+03  0.00000000000E+00 0.  1.
          2   -1    0    0  501    0  0.00000000000E+00 -0.00000000000E+00 -0.22218873261E+04  0.22218873261E+04  0.00000000000E+00 0. -1.
         24    2    1    2    0    0 -0.16266643890E+03  0.44084912438E+02 -0.15706230255E+04  0.15816697836E+04  0.80117204619E+02 0.  0.
        254    2    1    2    0    0  0.16266643890E+03 -0.44084912438E+02 -0.31835125581E+03  0.97313058736E+03  0.90400872127E+03 0.  0.
         23    2    4    4    0    0  0.32115222843E+02 -0.46157487425E+03 -0.13959465586E+03  0.49178774353E+03  0.91026175718E+02 0.  0.
         23    2    4    4    0    0  0.13055121605E+03  0.41748996181E+03 -0.17875659995E+03  0.48134284383E+03  0.91627086892E+02 0.  0.
          2    1    3    3  502    0 -0.14040456071E+03  0.40741874502E+01 -0.11408145170E+04  0.11494293375E+04  0.00000000000E+00 0. -1.
         -1    1    3    3    0  502 -0.22261878186E+02  0.40010724988E+02 -0.42980850842E+03  0.43224044610E+03  0.00000000000E+00 0.  1.
         11    1    5    5    0    0  0.27621540848E+02 -0.36197043092E+02 -0.61415297085E+01  0.45944464679E+02  0.00000000000E+00 0. -1.
        -11    1    5    5    0    0  0.44936819948E+01 -0.42537783116E+03 -0.13345312615E+03  0.44584327885E+03  0.00000000000E+00 0.  1.
          3    1    6    6  503    0 -0.37356040515E-01  0.13161952861E+03 -0.38138201790E+02  0.13703366062E+03  0.00000000000E+00 0. -1.
         -3    1    6    6    0  503  0.13058857209E+03  0.28587043320E+03 -0.14061839816E+03  0.34430918321E+03  0.00000000000E+00 0.  1.
<mgrwt>
<rscale>  0 0.17201108E+04</rscale>
<asrwt>0</asrwt>
<pdfrwt beam="1">  1        2 0.34182883E+00 0.17201108E+04</pdfrwt>
<pdfrwt beam="2">  1       -1 0.51217391E-01 0.17201108E+04</pdfrwt>
<totfact> 0.20828599E+01</totfact>
</mgrwt>
</event>
<event>
12    6  0.1627636E-007  0.1591655E+04  0.7818608E-02  0.8825691E-01
         -1   -1    0    0    0  501 -0.00000000000E+00  0.00000000000E+00  0.28974177246E+03  0.28974177246E+03  0.00000000000E+00 0.  1.
          2   -1    0    0  501    0  0.00000000000E+00 -0.00000000000E+00 -0.21858828048E+04  0.21858828048E+04  0.00000000000E+00 0. -1.
         24    2    1    2    0    0 -0.29289071364E+03 -0.43636540079E+03 -0.43749156763E+03  0.68873044881E+03  0.82164628812E+02 0.  0.
        254    2    1    2    0    0  0.29289071364E+03  0.43636540079E+03 -0.14586494647E+04  0.17868941285E+04  0.88833137525E+03 0.  0.
         23    2    4    4    0    0  0.17768152245E+02 -0.12322739458E+03 -0.98944337247E+03  0.10014065330E+04  0.91192976918E+02 0.  0.
         23    2    4    4    0    0  0.27512256139E+03  0.55959279537E+03 -0.46920609224E+03  0.78548759544E+03  0.89442077132E+02 0.  0.
          2    1    3    3  502    0 -0.29347905866E+03 -0.40299302513E+03 -0.41155633494E+03  0.64646109938E+03  0.00000000000E+00 0. -1.
         -1    1    3    3    0  502  0.58834502018E+00 -0.33372375657E+02 -0.25935232687E+02  0.42269349432E+02  0.00000000000E+00 0.  1.
         11    1    5    5    0    0  0.78670384489E+01 -0.30099181936E+01 -0.54174094706E+01  0.10014900242E+02  0.00000000000E+00 0.  1.
        -11    1    5    5    0    0  0.99011137963E+01 -0.12021747639E+03 -0.98402596300E+03  0.99139163278E+03  0.00000000000E+00 0. -1.
          4    1    6    6  503    0  0.18609200557E+03  0.41389911677E+03 -0.38494990712E+03  0.59508750986E+03  0.00000000000E+00 0. -1.
         -4    1    6    6    0  503  0.89030555826E+02  0.14569367860E+03 -0.84256185126E+02  0.19040008557E+03  0.00000000000E+00 0.  1.
<mgrwt>
<rscale>  0 0.15916552E+04</rscale>
<asrwt>0</asrwt>
<pdfrwt beam="1">  1        2 0.33628967E+00 0.15916552E+04</pdfrwt>
<pdfrwt beam="2">  1       -1 0.44575656E-01 0.15916552E+04</pdfrwt>
<totfact> 0.28671852E+01</totfact>
</mgrwt>
</event>
<event>
12    6  0.1627636E-007  0.2419586E+04  0.7818608E-02  0.8432207E-01
          2   -1    0    0  501    0  0.00000000000E+00  0.00000000000E+00  0.13317331050E+04  0.13317331050E+04  0.00000000000E+00 0. -1.
         -1   -1    0    0    0  501 -0.00000000000E+00 -0.00000000000E+00 -0.10990187352E+04  0.10990187352E+04  0.00000000000E+00 0.  1.
         24    2    1    2    0    0 -0.58789337232E+03 -0.18080209809E+03 -0.74390245956E+03  0.96856110631E+03  0.80073287901E+02 0.  0.
        254    2    1    2    0    0  0.58789337232E+03  0.18080209809E+03  0.97661682936E+03  0.14621907340E+04  0.89772673748E+03 0.  0.
         23    2    4    4    0    0  0.14496161389E+03  0.24525169968E+03  0.95880359138E+03  0.10044358444E+04  0.91786561993E+02 0.  0.
         23    2    4    4    0    0  0.44293175842E+03 -0.64449601586E+02  0.17813237977E+02  0.45775488956E+03  0.94233400157E+02 0.  0.
          4    1    3    3  502    0 -0.39280306985E+02  0.64238047949E+01 -0.36691342561E+02  0.54133745518E+02  0.00000000000E+00 0. -1.
         -3    1    3    3    0  502 -0.54861306533E+03 -0.18722590288E+03 -0.70721111699E+03  0.91442736079E+03  0.00000000000E+00 0.  1.
         11    1    5    5    0    0  0.29385977420E+01  0.84854055373E+02  0.25719594958E+03  0.27084793252E+03  0.00000000000E+00 0.  1.
        -11    1    5    5    0    0  0.14202301615E+03  0.16039764430E+03  0.70160764180E+03  0.73358791187E+03  0.00000000000E+00 0. -1.
          1    1    6    6  503    0  0.29908246636E+03 -0.25897923998E+02  0.52713310276E+02  0.30479454922E+03  0.00000000000E+00 0. -1.
         -1    1    6    6    0  503  0.14384929206E+03 -0.38551677588E+02 -0.34900072299E+02  0.15296034034E+03  0.00000000000E+00 0.  1.
<mgrwt>
<rscale>  0 0.24195864E+04</rscale>
<asrwt>0</asrwt>
<pdfrwt beam="1">  1        2 0.20488201E+00 0.24195864E+04</pdfrwt>
<pdfrwt beam="2">  1       -1 0.16907981E+00 0.24195864E+04</pdfrwt>
<totfact> 0.40510213E+00</totfact>
</mgrwt>
</event>
<event>
12    6  0.1627636E-007  0.4476770E+04  0.7818608E-02  0.7914716E-01
         -1   -1    0    0    0  501 -0.00000000000E+00  0.00000000000E+00  0.15930013033E+04  0.15930013033E+04  0.00000000000E+00 0.  1.
          2   -1    0    0  501    0  0.00000000000E+00 -0.00000000000E+00 -0.31452374448E+04  0.31452374448E+04  0.00000000000E+00 0. -1.
         24    2    1    2    0    0  0.10784496565E+04 -0.43041782723E+02  0.12201327257E+04  0.16309664978E+04  0.80134836222E+02 0.  0.
        254    2    1    2    0    0 -0.10784496565E+04  0.43041782723E+02 -0.27723688672E+04  0.31072722502E+04  0.89677502443E+03 0.  0.
         23    2    4    4    0    0 -0.78810964906E+03 -0.31612651595E+03 -0.12522017511E+04  0.15157006121E+04  0.91029264247E+02 0.  0.
         23    2    4    4    0    0 -0.29034000743E+03  0.35916829868E+03 -0.15201671161E+04  0.15915716381E+04  0.94302872435E+02 0.  0.
          4    1    3    3  502    0  0.28112218332E+03  0.15728791709E+01  0.26967842300E+03  0.38956207173E+03  0.00000000000E+00 0. -1.
         -3    1    3    3    0  502  0.79732747317E+03 -0.44614661894E+02  0.95045430273E+03  0.12414044261E+04  0.00000000000E+00 0.  1.
         11    1    5    5    0    0 -0.18287276192E+03 -0.48408184098E+02 -0.33402757909E+03  0.38387527002E+03  0.00000000000E+00 0. -1.
        -11    1    5    5    0    0 -0.60523688714E+03 -0.26771833186E+03 -0.91817417200E+03  0.11318253420E+04  0.00000000000E+00 0.  1.
          4    1    6    6  503    0 -0.15560246686E+02  0.61783791547E+02 -0.27251525505E+03  0.27986411418E+03  0.00000000000E+00 0. -1.
         -4    1    6    6    0  503 -0.27477976074E+03  0.29738450713E+03 -0.12476518611E+04  0.13117075240E+04  0.00000000000E+00 0.  1.
<mgrwt>
<rscale>  0 0.44767700E+04</rscale>
<asrwt>0</asrwt>
<pdfrwt beam="1">  1        2 0.48388268E+00 0.44767700E+04</pdfrwt>
<pdfrwt beam="2">  1       -1 0.24507713E+00 0.44767700E+04</pdfrwt>
<totfact> 0.91038109E-02</totfact>
</mgrwt>
</event>
<event>
12    6  0.1627636E-007  0.3051441E+04  0.7818608E-02  0.8229192E-01
          2   -1    0    0  501    0  0.00000000000E+00  0.00000000000E+00  0.10053678910E+04  0.10053678910E+04  0.00000000000E+00 0. -1.
         -1   -1    0    0    0  501 -0.00000000000E+00 -0.00000000000E+00 -0.23153942166E+04  0.23153942166E+04  0.00000000000E+00 0.  1.
         24    2    1    2    0    0 -0.35087506404E+03  0.23164062444E+03  0.84600143187E+03  0.94803184703E+03  0.79216606820E+02 0.  0.
        254    2    1    2    0    0  0.35087506404E+03 -0.23164062444E+03 -0.21560277575E+04  0.23727302606E+04  0.89700753007E+03 0.  0.
         23    2    4    4    0    0 -0.17364213000E+03 -0.34627394207E+03 -0.56225087116E+03  0.68847954295E+03  0.88435324843E+02 0.  0.
         23    2    4    4    0    0  0.52451719404E+03  0.11463331763E+03 -0.15937768863E+04  0.16842507176E+04  0.91195570594E+02 0.  0.
          2    1    3    3  502    0 -0.11758539607E+03  0.77986370957E+02  0.37173410536E+03  0.39761092101E+03  0.00000000000E+00 0. -1.
         -1    1    3    3    0  502 -0.23328966798E+03  0.15365425348E+03  0.47426732652E+03  0.55042092602E+03  0.00000000000E+00 0.  1.
         11    1    5    5    0    0 -0.61721098847E+02 -0.75649548860E+02 -0.20081778110E+03  0.22329381875E+03  0.00000000000E+00 0.  1.
        -11    1    5    5    0    0 -0.11192103115E+03 -0.27062439321E+03 -0.36143309006E+03  0.46518572420E+03  0.00000000000E+00 0. -1.
          3    1    6    6  503    0  0.19483454292E+03  0.49633732187E+02 -0.73705178941E+03  0.76398255658E+03  0.00000000000E+00 0. -1.
         -3    1    6    6    0  503  0.32968265112E+03  0.64999585447E+02 -0.85672509691E+03  0.92026816104E+03  0.00000000000E+00 0.  1.
<mgrwt>
<rscale>  0 0.30514410E+04</rscale>
<asrwt>0</asrwt>
<pdfrwt beam="1">  1        2 0.15467199E+00 0.30514410E+04</pdfrwt>
<pdfrwt beam="2">  1       -1 0.35621449E+00 0.30514410E+04</pdfrwt>
<totfact> 0.34284485E-01</totfact>
</mgrwt>
</event>
<event>
12    6  0.1627636E-007  0.1108015E+04  0.7818608E-02  0.9197415E-01
         -3   -1    0    0    0  501 -0.00000000000E+00  0.00000000000E+00  0.77146887941E+03  0.77146887941E+03  0.00000000000E+00 0.  1.
          4   -1    0    0  501    0  0.00000000000E+00 -0.00000000000E+00 -0.39784419595E+03  0.39784419595E+03  0.00000000000E+00 0. -1.
         24    2    1    2    0    0  0.27377579076E+02 -0.65392566580E+02 -0.10103722148E+03  0.14732572603E+03  0.80440225159E+02 0.  0.
        254    2    1    2    0    0 -0.27377579076E+02  0.65392566580E+02  0.47466190494E+03  0.10219873493E+04  0.90229069517E+03 0.  0.
         23    2    4    4    0    0  0.26614270443E+03 -0.29873683185E+01  0.61485087335E+03  0.67738992026E+03  0.99873140125E+02 0.  0.
         23    2    4    4    0    0 -0.29352028350E+03  0.68379934898E+02 -0.14018896841E+03  0.34459742908E+03  0.90909124617E+02 0.  0.
          2    1    3    3  502    0 -0.11281840395E+02 -0.65234157432E+02 -0.48359819417E+02  0.81984433599E+02  0.00000000000E+00 0. -1.
         -1    1    3    3    0  502  0.38659419472E+02 -0.15840914821E+00 -0.52677402068E+02  0.65341292426E+02  0.00000000000E+00 0.  1.
         11    1    5    5    0    0  0.65433128021E+02  0.41622562309E+02  0.14262862104E+03  0.16234794571E+03  0.00000000000E+00 0.  1.
        -11    1    5    5    0    0  0.20070957641E+03 -0.44609930627E+02  0.47222225231E+03  0.51504197455E+03  0.00000000000E+00 0. -1.
          1    1    6    6  503    0 -0.19929902433E+03  0.68672062860E+02 -0.13481626980E+03  0.25022266069E+03  0.00000000000E+00 0. -1.
         -1    1    6    6    0  503 -0.94221259168E+02 -0.29212796207E+00 -0.53726986046E+01  0.94374768388E+02  0.00000000000E+00 0.  1.
<mgrwt>
<rscale>  0 0.11080152E+04</rscale>
<asrwt>0</asrwt>
<pdfrwt beam="1">  1        4 0.61206799E-01 0.11080152E+04</pdfrwt>
<pdfrwt beam="2">  1       -3 0.11868752E+00 0.11080152E+04</pdfrwt>
<totfact> 0.33074416E+00</totfact>
</mgrwt>
</event>
<event>
12    6  0.1627636E-007  0.1183222E+04  0.7818608E-02  0.9127671E-01
          2   -1    0    0  501    0  0.00000000000E+00  0.00000000000E+00  0.14248812649E+04  0.14248812649E+04  0.00000000000E+00 0. -1.
         -1   -1    0    0    0  501 -0.00000000000E+00 -0.00000000000E+00 -0.24563681407E+03  0.24563681407E+03  0.00000000000E+00 0.  1.
         24    2    1    2    0    0  0.90937919646E+02 -0.21075647358E+03  0.31331649720E+03  0.39797276845E+03  0.86758864777E+02 0.  0.
        254    2    1    2    0    0 -0.90937919646E+02  0.21075647358E+03  0.86592795365E+03  0.12725453106E+04  0.90379884383E+03 0.  0.
         23    2    4    4    0    0  0.27571699984E+03 -0.15798869397E+03  0.10622278479E+03  0.34739662895E+03  0.91765169745E+02 0.  0.
         23    2    4    4    0    0 -0.36665491948E+03  0.36874516755E+03  0.75970516886E+03  0.92514868160E+03  0.91319827501E+02 0.  0.
          2    1    3    3  502    0  0.64141905869E+01 -0.19850347992E+02 -0.71333840790E+00  0.20873116872E+02  0.00000000000E+00 0. -1.
         -1    1    3    3    0  502  0.84523729059E+02 -0.19090612559E+03  0.31402983561E+03  0.37709965157E+03  0.00000000000E+00 0.  1.
         11    1    5    5    0    0  0.18703450249E+03 -0.12318988493E+03  0.31169043249E+02  0.22611758474E+03  0.00000000000E+00 0. -1.
        -11    1    5    5    0    0  0.88682497349E+02 -0.34798809034E+02  0.75053741540E+02  0.12127904421E+03  0.00000000000E+00 0.  1.
          4    1    6    6  503    0 -0.47177201805E+02  0.77288185742E+02  0.18441527247E+03  0.20544620889E+03  0.00000000000E+00 0. -1.
         -4    1    6    6    0  503 -0.31947771768E+03  0.29145698181E+03  0.57528989639E+03  0.71970247271E+03  0.00000000000E+00 0.  1.
<mgrwt>
<rscale>  0 0.11832215E+04</rscale>
<asrwt>0</asrwt>
<pdfrwt beam="1">  1        2 0.21921250E+00 0.11832215E+04</pdfrwt>
<pdfrwt beam="2">  1       -1 0.37790280E-01 0.11832215E+04</pdfrwt>
<totfact> 0.10643883E+02</totfact>
</mgrwt>
</event>
<event>
12    6  0.1627636E-007  0.1707080E+04  0.7818608E-02  0.8757337E-01
         -1   -1    0    0    0  501 -0.00000000000E+00  0.00000000000E+00  0.60838549261E+03  0.60838549261E+03  0.00000000000E+00 0.  1.
          2   -1    0    0  501    0  0.00000000000E+00 -0.00000000000E+00 -0.11974814748E+04  0.11974814748E+04  0.00000000000E+00 0. -1.
         24    2    1    2    0    0  0.41066299001E+03  0.39921670409E+03 -0.52823528510E+03  0.78322453093E+03  0.79937983788E+02 0.  0.
        254    2    1    2    0    0 -0.41066299001E+03 -0.39921670409E+03 -0.60860697135E+02  0.10226424365E+04  0.84502985765E+03 0.  0.
         23    2    4    4    0    0  0.96434917258E+02 -0.97965181503E+02 -0.32787322169E+03  0.36901812037E+03  0.98876961982E+02 0.  0.
         23    2    4    4    0    0 -0.50709790726E+03 -0.30125152259E+03  0.26701252455E+03  0.65362431615E+03  0.89600730895E+02 0.  0.
          2    1    3    3  502    0  0.32210643699E+03  0.30497859338E+03 -0.36157320205E+03  0.57227587719E+03  0.00000000000E+00 0. -1.
         -1    1    3    3    0  502  0.88556553013E+02  0.94238110711E+02 -0.16666208304E+03  0.21094865374E+03  0.00000000000E+00 0.  1.
         11    1    5    5    0    0  0.94746204483E+02 -0.28127610022E+02 -0.20768943423E+03  0.23000631904E+03  0.00000000000E+00 0. -1.
        -11    1    5    5    0    0  0.16887127749E+01 -0.69837571481E+02 -0.12018378746E+03  0.13901180133E+03  0.00000000000E+00 0.  1.
          3    1    6    6  503    0 -0.35015273898E+03 -0.23541959298E+03  0.22562003339E+03  0.47847019222E+03  0.00000000000E+00 0. -1.
         -3    1    6    6    0  503 -0.15694516829E+03 -0.65831929601E+02  0.41392491157E+02  0.17515412393E+03  0.00000000000E+00 0.  1.
<mgrwt>
<rscale>  0 0.17070798E+04</rscale>
<asrwt>0</asrwt>
<pdfrwt beam="1">  1        2 0.18422792E+00 0.17070798E+04</pdfrwt>
<pdfrwt beam="2">  1       -1 0.93597769E-01 0.17070798E+04</pdfrwt>
<totfact> 0.22821587E+01</totfact>
</mgrwt>
</event>
<event>
12    6  0.1627636E-007  0.2139451E+04  0.7818608E-02  0.8544061E-01
          2   -1    0    0  501    0  0.00000000000E+00  0.00000000000E+00  0.21077511429E+04  0.21077511429E+04  0.00000000000E+00 0. -1.
         -1   -1    0    0    0  501 -0.00000000000E+00 -0.00000000000E+00 -0.54290677364E+03  0.54290677364E+03  0.00000000000E+00 0.  1.
         24    2    1    2    0    0 -0.22833250816E+03 -0.81248752521E+03  0.35135772206E+03  0.91735968419E+03  0.76320563660E+02 0.  0.
        254    2    1    2    0    0  0.22833250816E+03  0.81248752521E+03  0.12134866472E+04  0.17332982323E+04  0.90526305922E+03 0.  0.
         23    2    4    4    0    0  0.18832402712E+03  0.89916651736E+03  0.12837690992E+04  0.15812427730E+04  0.91100175766E+02 0.  0.
         23    2    4    4    0    0  0.40008481038E+02 -0.86678992157E+02 -0.70282452027E+02  0.15205545930E+03  0.95222441696E+02 0.  0.
          4    1    3    3  502    0 -0.70150050199E+02 -0.14036859206E+03  0.65860334832E+02  0.17018212270E+03  0.00000000000E+00 0. -1.
         -3    1    3    3    0  502 -0.15818245796E+03 -0.67211893314E+03  0.28549738723E+03  0.74717756150E+03  0.00000000000E+00 0.  1.
         11    1    5    5    0    0  0.18126582406E+03  0.84362461945E+03  0.11631923414E+04  0.14483011498E+04  0.00000000000E+00 0. -1.
        -11    1    5    5    0    0  0.70582030617E+01  0.55541897917E+02  0.12057675779E+03  0.13294162318E+03  0.00000000000E+00 0.  1.
          3    1    6    6  503    0  0.13032023126E+02 -0.10234283829E+03 -0.48445696051E+02  0.11397752253E+03  0.00000000000E+00 0. -1.
         -3    1    6    6    0  503  0.26976457911E+02  0.15663846131E+02 -0.21836755976E+02  0.38077936769E+02  0.00000000000E+00 0.  1.
<mgrwt>
<rscale>  0 0.21394507E+04</rscale>
<asrwt>0</asrwt>
<pdfrwt beam="1">  1        2 0.32426940E+00 0.21394507E+04</pdfrwt>
<pdfrwt beam="2">  1       -1 0.83524120E-01 0.21394507E+04</pdfrwt>
<totfact> 0.86491312E+00</totfact>
</mgrwt>
</event>
<event>
12    6  0.1627636E-007  0.1394230E+04  0.7818608E-02  0.8958006E-01
          2   -1    0    0  501    0  0.00000000000E+00  0.00000000000E+00  0.11086650293E+04  0.11086650293E+04  0.00000000000E+00 0. -1.
         -1   -1    0    0    0  501 -0.00000000000E+00 -0.00000000000E+00 -0.43833722721E+03  0.43833722721E+03  0.00000000000E+00 0.  1.
         24    2    1    2    0    0 -0.10981285242E+03 -0.31574710739E+03 -0.46136677177E+02  0.34699009230E+03  0.80736811885E+02 0.  0.
        254    2    1    2    0    0  0.10981285242E+03  0.31574710739E+03  0.71646447929E+03  0.12000121642E+04  0.90274733223E+03 0.  0.
         23    2    4    4    0    0  0.43758327978E+03  0.23475004480E+03  0.68249458484E+03  0.84898933070E+03  0.91636865086E+02 0.  0.
         23    2    4    4    0    0 -0.32777042735E+03  0.80997062590E+02  0.33969894445E+02  0.35102283353E+03  0.89828162266E+02 0.  0.
          2    1    3    3  502    0 -0.14300780106E+02 -0.18488817100E+02  0.16412037289E+02  0.28560525860E+02  0.00000000000E+00 0. -1.
         -1    1    3    3    0  502 -0.95512072318E+02 -0.29725829029E+03 -0.62548714466E+02  0.31842956644E+03  0.00000000000E+00 0.  1.
         11    1    5    5    0    0  0.17312372055E+03  0.78239902468E+02  0.19145502813E+03  0.26971898849E+03  0.00000000000E+00 0.  1.
        -11    1    5    5    0    0  0.26445955923E+03  0.15651014233E+03  0.49103955671E+03  0.57927034222E+03  0.00000000000E+00 0. -1.
          3    1    6    6  503    0 -0.31650247160E+03  0.56448524113E+02  0.37916180649E+02  0.32372501781E+03  0.00000000000E+00 0. -1.
         -3    1    6    6    0  503 -0.11267955756E+02  0.24548538478E+02 -0.39462862033E+01  0.27297815721E+02  0.00000000000E+00 0.  1.
<mgrwt>
<rscale>  0 0.13942298E+04</rscale>
<asrwt>0</asrwt>
<pdfrwt beam="1">  1        2 0.17056385E+00 0.13942298E+04</pdfrwt>
<pdfrwt beam="2">  1       -1 0.67436497E-01 0.13942298E+04</pdfrwt>
<totfact> 0.53226228E+01</totfact>
</mgrwt>
</event>
<event>
12    6  0.1627636E-007  0.1287627E+04  0.7818608E-02  0.9039435E-01
          2   -1    0    0  501    0  0.00000000000E+00  0.00000000000E+00  0.14481992140E+04  0.14481992140E+04  0.00000000000E+00 0. -1.
         -1   -1    0    0    0  501 -0.00000000000E+00 -0.00000000000E+00 -0.28621442768E+03  0.28621442768E+03  0.00000000000E+00 0.  1.
         24    2    1    2    0    0 -0.26934362946E+03 -0.11152008799E+02  0.10654344609E+03  0.30076304966E+03  0.80228100483E+02 0.  0.
        254    2    1    2    0    0  0.26934362946E+03  0.11152008799E+02  0.10554413403E+04  0.14336505921E+04  0.93205538426E+03 0.  0.
         23    2    4    4    0    0  0.54454248249E+03  0.19183204181E+03  0.85937732387E+03  0.10394810641E+04  0.93088401233E+02 0.  0.
         23    2    4    4    0    0 -0.27519885303E+03 -0.18068003302E+03  0.19606401641E+03  0.39416952792E+03  0.92459911124E+02 0.  0.
          2    1    3    3  502    0 -0.13370316143E+03 -0.45651862597E+02  0.51810723141E+02  0.15048248725E+03  0.00000000000E+00 0. -1.
         -1    1    3    3    0  502 -0.13564046802E+03  0.34499853798E+02  0.54732722944E+02  0.15028056241E+03  0.00000000000E+00 0.  1.
         11    1    5    5    0    0  0.75947022746E+02  0.58504548268E+02  0.11325624138E+03  0.14838365356E+03  0.00000000000E+00 0. -1.
        -11    1    5    5    0    0  0.46859545974E+03  0.13332749355E+03  0.74612108249E+03  0.89109741059E+03  0.00000000000E+00 0.  1.
          2    1    6    6  503    0 -0.63803521256E+01 -0.33045051068E+01 -0.96362704527E+01  0.12020247730E+02  0.00000000000E+00 0. -1.
         -2    1    6    6    0  503 -0.26881850091E+03 -0.17737552791E+03  0.20570028686E+03  0.38214928019E+03  0.00000000000E+00 0.  1.
<mgrwt>
<rscale>  0 0.12876265E+04</rscale>
<asrwt>0</asrwt>
<pdfrwt beam="1">  1        2 0.22279987E+00 0.12876265E+04</pdfrwt>
<pdfrwt beam="2">  1       -1 0.44032990E-01 0.12876265E+04</pdfrwt>
<totfact> 0.77411814E+01</totfact>
</mgrwt>
</event>
<event>
12    6  0.1627636E-007  0.2014673E+04  0.7818608E-02  0.8599791E-01
          2   -1    0    0  501    0  0.00000000000E+00  0.00000000000E+00  0.28044803363E+04  0.28044803363E+04  0.00000000000E+00 0. -1.
         -1   -1    0    0    0  501 -0.00000000000E+00 -0.00000000000E+00 -0.36182349032E+03  0.36182349032E+03  0.00000000000E+00 0.  1.
         24    2    1    2    0    0  0.40567292032E+02  0.57830665101E+03  0.11315726863E+03  0.59662963654E+03  0.84131254367E+02 0.  0.
        254    2    1    2    0    0 -0.40567292032E+02 -0.57830665101E+03  0.23294995773E+04  0.25696741900E+04  0.91682761436E+03 0.  0.
         23    2    4    4    0    0 -0.44313089507E+03 -0.26118580892E+03  0.15200792598E+04  0.16072461813E+04  0.89533873079E+02 0.  0.
         23    2    4    4    0    0  0.40256360304E+03 -0.31712084209E+03  0.80942031756E+03  0.96242800874E+03  0.92105040774E+02 0.  0.
          2    1    3    3  502    0 -0.22881664932E+02  0.13224634685E+03  0.11132016717E+02  0.13467215243E+03  0.00000000000E+00 0. -1.
         -1    1    3    3    0  502  0.63448956964E+02  0.44606030417E+03  0.10202525191E+03  0.46195748410E+03  0.00000000000E+00 0.  1.
         11    1    5    5    0    0 -0.92832819065E+02 -0.27819106057E+02  0.37282502517E+03  0.38521466009E+03  0.00000000000E+00 0. -1.
        -11    1    5    5    0    0 -0.35029807601E+03 -0.23336670286E+03  0.11472542346E+04  0.12220315212E+04  0.00000000000E+00 0.  1.
          3    1    6    6  503    0  0.19593026294E+03 -0.21159386573E+03  0.43272105222E+03  0.52000782781E+03  0.00000000000E+00 0. -1.
         -3    1    6    6    0  503  0.20663334010E+03 -0.10552697636E+03  0.37669926534E+03  0.44242018092E+03  0.00000000000E+00 0.  1.
<mgrwt>
<rscale>  0 0.20146730E+04</rscale>
<asrwt>0</asrwt>
<pdfrwt beam="1">  1        2 0.43145850E+00 0.20146730E+04</pdfrwt>
<pdfrwt beam="2">  1       -1 0.55665154E-01 0.20146730E+04</pdfrwt>
<totfact> 0.79335220E+00</totfact>
</mgrwt>
</event>
<event>
12    6  0.1627636E-007  0.2341532E+04  0.7818608E-02  0.8461723E-01
         -1   -1    0    0    0  501 -0.00000000000E+00  0.00000000000E+00  0.27166620251E+03  0.27166620251E+03  0.00000000000E+00 0.  1.
          2   -1    0    0  501    0  0.00000000000E+00 -0.00000000000E+00 -0.50455043912E+04  0.50455043912E+04  0.00000000000E+00 0. -1.
         24    2    1    2    0    0 -0.64663310359E+03  0.44330365920E+03 -0.34836649702E+04  0.35717332803E+04  0.81880989411E+02 0.  0.
        254    2    1    2    0    0  0.64663310359E+03 -0.44330365920E+03 -0.12901732185E+04  0.17454373133E+04  0.87598628770E+03 0.  0.
         23    2    4    4    0    0  0.80031023951E+03 -0.38117161087E+03 -0.72205138097E+03  0.11469502448E+04  0.91369529182E+02 0.  0.
         23    2    4    4    0    0 -0.15367713592E+03 -0.62132048330E+02 -0.56812183749E+03  0.59848706854E+03  0.89147604864E+02 0.  0.
          2    1    3    3  502    0 -0.55127166520E+03  0.41084051629E+03 -0.30360625382E+04  0.31129352892E+04  0.00000000000E+00 0. -1.
         -1    1    3    3    0  502 -0.95361438390E+02  0.32463142908E+02 -0.44760243198E+03  0.45879799116E+03  0.00000000000E+00 0.  1.
         11    1    5    5    0    0  0.52042421234E+02 -0.14983624396E+02 -0.72965743305E+02  0.90867608662E+02  0.00000000000E+00 0. -1.
        -11    1    5    5    0    0  0.74826781827E+03 -0.36618798647E+03 -0.64908563766E+03  0.10560826361E+04  0.00000000000E+00 0.  1.
          1    1    6    6  503    0 -0.43921071251E+02  0.48047828565E+01 -0.27340098880E+03  0.27694809462E+03  0.00000000000E+00 0. -1.
         -1    1    6    6    0  503 -0.10975606467E+03 -0.66936831186E+02 -0.29472084868E+03  0.32153897392E+03  0.00000000000E+00 0.  1.
<mgrwt>
<rscale>  0 0.23415320E+04</rscale>
<asrwt>0</asrwt>
<pdfrwt beam="1">  1        2 0.77623141E+00 0.23415320E+04</pdfrwt>
<pdfrwt beam="2">  1       -1 0.41794802E-01 0.23415320E+04</pdfrwt>
<totfact> 0.17588041E-01</totfact>
</mgrwt>
</event>
<event>
12    6  0.1627636E-007  0.2182851E+04  0.7818608E-02  0.8525600E-01
          2   -1    0    0  501    0  0.00000000000E+00  0.00000000000E+00  0.11003925099E+04  0.11003925099E+04  0.00000000000E+00 0. -1.
         -1   -1    0    0    0  501 -0.00000000000E+00 -0.00000000000E+00 -0.10825313124E+04  0.10825313124E+04  0.00000000000E+00 0.  1.
         24    2    1    2    0    0  0.44525039125E+03  0.76088774656E+03 -0.22099684134E+03  0.91227433514E+03  0.78783151019E+02 0.  0.
        254    2    1    2    0    0 -0.44525039125E+03 -0.76088774656E+03  0.23885803888E+03  0.12706494872E+04  0.88334527952E+03 0.  0.
         23    2    4    4    0    0 -0.34580811536E+03  0.40954322988E+02  0.27870628839E+03  0.45645577537E+03  0.97026648209E+02 0.  0.
         23    2    4    4    0    0 -0.99442275893E+02 -0.80184206955E+03 -0.39848249510E+02  0.81419371184E+03  0.92108884903E+02 0.  0.
          4    1    3    3  502    0  0.33642824563E+02  0.25374010428E+02 -0.74865867710E+01  0.42798703617E+02  0.00000000000E+00 0. -1.
         -3    1    3    3    0  502  0.41160756669E+03  0.73551373614E+03 -0.21351025457E+03  0.86947563152E+03  0.00000000000E+00 0.  1.
         11    1    5    5    0    0 -0.19341098457E+03  0.52820054870E+02  0.20503575538E+03  0.28677068911E+03  0.00000000000E+00 0. -1.
        -11    1    5    5    0    0 -0.15239713079E+03 -0.11865731882E+02  0.73670533017E+02  0.16968508627E+03  0.00000000000E+00 0.  1.
          4    1    6    6  503    0 -0.99714569734E+02 -0.44494035474E+03 -0.34021551485E+02  0.45724433365E+03  0.00000000000E+00 0. -1.
         -4    1    6    6    0  503  0.27229384092E+00 -0.35690171482E+03 -0.58266980242E+01  0.35694937819E+03  0.00000000000E+00 0.  1.
<mgrwt>
<rscale>  0 0.21828507E+04</rscale>
<asrwt>0</asrwt>
<pdfrwt beam="1">  1        2 0.16929116E+00 0.21828507E+04</pdfrwt>
<pdfrwt beam="2">  1       -1 0.16654328E+00 0.21828507E+04</pdfrwt>
<totfact> 0.59312036E+00</totfact>
</mgrwt>
</event>
<event>
12    6  0.1627636E-007  0.1731320E+04  0.7818608E-02  0.8743701E-01
         -1   -1    0    0    0  501 -0.00000000000E+00  0.00000000000E+00  0.90958378223E+03  0.90958378223E+03  0.00000000000E+00 0.  1.
          2   -1    0    0  501    0  0.00000000000E+00 -0.00000000000E+00 -0.82385685298E+03  0.82385685298E+03  0.00000000000E+00 0. -1.
         24    2    1    2    0    0  0.78095426908E+01 -0.53623053572E+02 -0.58552976371E+03  0.59605556772E+03  0.97471610156E+02 0.  0.
        254    2    1    2    0    0 -0.78095426908E+01  0.53623053572E+02  0.67125669296E+03  0.11373850675E+04  0.91658214202E+03 0.  0.
         23    2    4    4    0    0 -0.12256908034E+03  0.15247127982E+03  0.85579060854E+03  0.88219336869E+03  0.87274873055E+02 0.  0.
         23    2    4    4    0    0  0.11475953765E+03 -0.98848226250E+02 -0.18453391559E+03  0.25519169880E+03  0.90162707472E+02 0.  0.
          2    1    3    3  502    0  0.22557000115E+02  0.16352306936E+02 -0.31512978399E+03  0.31635896851E+03  0.00000000000E+00 0. -1.
         -3    1    3    3    0  502 -0.14747457424E+02 -0.69975360508E+02 -0.27039997972E+03  0.27969659921E+03  0.00000000000E+00 0.  1.
         11    1    5    5    0    0 -0.19837956331E+02  0.83143262227E+02  0.44414974962E+03  0.45230006263E+03  0.00000000000E+00 0. -1.
        -11    1    5    5    0    0 -0.10273112401E+03  0.69328017595E+02  0.41164085892E+03  0.42989330606E+03  0.00000000000E+00 0.  1.
          4    1    6    6  503    0  0.83056880341E+02 -0.64212491453E+02 -0.17952841986E+03  0.20797149557E+03  0.00000000000E+00 0. -1.
         -4    1    6    6    0  503  0.31702657308E+02 -0.34635734797E+02 -0.50054957222E+01  0.47220203227E+02  0.00000000000E+00 0.  1.
<mgrwt>
<rscale>  0 0.17313195E+04</rscale>
<asrwt>0</asrwt>
<pdfrwt beam="1">  1        2 0.12674721E+00 0.17313195E+04</pdfrwt>
<pdfrwt beam="2">  1       -1 0.13993597E+00 0.17313195E+04</pdfrwt>
<totfact> 0.15059418E+01</totfact>
</mgrwt>
</event>
<event>
12    6  0.1627636E-007  0.2323941E+04  0.7818608E-02  0.8468541E-01
         -1   -1    0    0    0  501 -0.00000000000E+00  0.00000000000E+00  0.85660401086E+03  0.85660401086E+03  0.00000000000E+00 0.  1.
          2   -1    0    0  501    0  0.00000000000E+00 -0.00000000000E+00 -0.15761952054E+04  0.15761952054E+04  0.00000000000E+00 0. -1.
         24    2    1    2    0    0  0.11121353364E+03  0.43352125685E+03 -0.11787981496E+04  0.12633335662E+04  0.78342145678E+02 0.  0.
        254    2    1    2    0    0 -0.11121353364E+03 -0.43352125685E+03  0.45920695512E+03  0.11694656500E+04  0.97799271402E+03 0.  0.
         23    2    4    4    0    0 -0.32362376890E+03 -0.48098820416E+03 -0.68997325309E+02  0.59094483412E+03  0.91505025779E+02 0.  0.
         23    2    4    4    0    0  0.21241023527E+03  0.47466947310E+02  0.52820428043E+03  0.57852081587E+03  0.91188559529E+02 0.  0.
          4    1    3    3  502    0  0.82095790980E+02  0.17771309140E+03 -0.46516667971E+03  0.50467980113E+03  0.00000000000E+00 0. -1.
         -3    1    3    3    0  502  0.29117742655E+02  0.25580816545E+03 -0.71363146992E+03  0.75865376511E+03  0.00000000000E+00 0.  1.
         11    1    5    5    0    0 -0.10991003037E+03 -0.17065762277E+03 -0.68214367582E+02  0.21414350078E+03  0.00000000000E+00 0. -1.
        -11    1    5    5    0    0 -0.21371373853E+03 -0.31033058139E+03 -0.78295772758E+00  0.37680133334E+03  0.00000000000E+00 0.  1.
          1    1    6    6  503    0 -0.26379608597E+01 -0.25696976027E+01  0.67923138232E+02  0.68022899752E+02  0.00000000000E+00 0. -1.
         -1    1    6    6    0  503  0.21504819613E+03  0.50036644912E+02  0.46028114220E+03  0.51049791611E+03  0.00000000000E+00 0.  1.
<mgrwt>
<rscale>  0 0.23239407E+04</rscale>
<asrwt>0</asrwt>
<pdfrwt beam="1">  1        2 0.24249157E+00 0.23239407E+04</pdfrwt>
<pdfrwt beam="2">  1       -1 0.13178523E+00 0.23239407E+04</pdfrwt>
<totfact> 0.58061260E+00</totfact>
</mgrwt>
</event>
<event>
12    6  0.1627636E-007  0.2418958E+04  0.7818608E-02  0.8432440E-01
         -1   -1    0    0    0  501 -0.00000000000E+00  0.00000000000E+00  0.12970378123E+04  0.12970378123E+04  0.00000000000E+00 0.  1.
          2   -1    0    0  501    0  0.00000000000E+00 -0.00000000000E+00 -0.11278308290E+04  0.11278308290E+04  0.00000000000E+00 0. -1.
         24    2    1    2    0    0  0.62601475971E+03 -0.74718173114E+03  0.43462867605E+03  0.10704589534E+04  0.82494037390E+02 0.  0.
        254    2    1    2    0    0 -0.62601475971E+03  0.74718173114E+03 -0.26542169276E+03  0.13544096880E+04  0.90210969904E+03 0.  0.
         23    2    4    4    0    0 -0.54151696628E+03  0.12065740128E+03 -0.41442634209E+03  0.69850458069E+03  0.91436442303E+02 0.  0.
         23    2    4    4    0    0 -0.84497793437E+02  0.62652432986E+03  0.14900464934E+03  0.65590510726E+03  0.91304497186E+02 0.  0.
          2    1    3    3  502    0  0.57097471705E+02 -0.98489152176E+02  0.70789394162E+02  0.13405734854E+03  0.00000000000E+00 0. -1.
         -1    1    3    3    0  502  0.56891728801E+03 -0.64869257896E+03  0.36383928189E+03  0.93640160489E+03  0.00000000000E+00 0.  1.
         11    1    5    5    0    0 -0.47168204525E+02 -0.96349893727E+01 -0.57556497352E+02  0.75036144129E+02  0.00000000000E+00 0. -1.
        -11    1    5    5    0    0 -0.49434876175E+03  0.13029239066E+03 -0.35686984474E+03  0.62346843656E+03  0.00000000000E+00 0.  1.
          3    1    6    6  503    0 -0.51444310132E+02  0.51058206625E+03  0.87542998695E+02  0.52058077187E+03  0.00000000000E+00 0. -1.
         -3    1    6    6    0  503 -0.33053483305E+02  0.11594226361E+03  0.61461650640E+02  0.13532433539E+03  0.00000000000E+00 0.  1.
<mgrwt>
<rscale>  0 0.24189578E+04</rscale>
<asrwt>0</asrwt>
<pdfrwt beam="1">  1        2 0.17351244E+00 0.24189578E+04</pdfrwt>
<pdfrwt beam="2">  1       -1 0.19954428E+00 0.24189578E+04</pdfrwt>
<totfact> 0.32496237E+00</totfact>
</mgrwt>
</event>
<event>
12    6  0.1627636E-007  0.1589786E+04  0.7818608E-02  0.8826848E-01
          2   -1    0    0  501    0  0.00000000000E+00  0.00000000000E+00  0.12861778800E+04  0.12861778800E+04  0.00000000000E+00 0. -1.
         -1   -1    0    0    0  501 -0.00000000000E+00 -0.00000000000E+00 -0.49126551378E+03  0.49126551378E+03  0.00000000000E+00 0.  1.
         24    2    1    2    0    0  0.43079126530E+03  0.23432961795E+03  0.39758684004E+02  0.49863540120E+03  0.81024849662E+02 0.  0.
        254    2    1    2    0    0 -0.43079126530E+03 -0.23432961795E+03  0.75515368222E+03  0.12788079926E+04  0.90807561032E+03 0.  0.
         23    2    4    4    0    0 -0.54464294479E+03  0.12673188025E+03  0.20066291796E+03  0.60114299683E+03  0.91708174190E+02 0.  0.
         23    2    4    4    0    0  0.11385167949E+03 -0.36106149820E+03  0.55449076426E+03  0.67766499577E+03  0.91881600093E+02 0.  0.
          2    1    3    3  502    0  0.87411278954E+02  0.43229387537E+02 -0.24238049828E+02  0.10048380315E+03  0.00000000000E+00 0. -1.
         -1    1    3    3    0  502  0.34337998635E+03  0.19110023041E+03  0.63996733832E+02  0.39815159805E+03  0.00000000000E+00 0.  1.
         11    1    5    5    0    0 -0.45807975049E+03  0.10432895124E+03  0.13082145974E+03  0.48768416235E+03  0.00000000000E+00 0. -1.
        -11    1    5    5    0    0 -0.86563194297E+02  0.22402929008E+02  0.69841458225E+02  0.11345883448E+03  0.00000000000E+00 0.  1.
          4    1    6    6  503    0  0.15345886595E+02 -0.17957065277E+03  0.21785834380E+03  0.28274259236E+03  0.00000000000E+00 0.  1.
         -4    1    6    6    0  503  0.98505792890E+02 -0.18149084543E+03  0.33663242046E+03  0.39492240341E+03  0.00000000000E+00 0. -1.
<mgrwt>
<rscale>  0 0.15897859E+04</rscale>
<asrwt>0</asrwt>
<pdfrwt beam="1">  1        2 0.19787352E+00 0.15897859E+04</pdfrwt>
<pdfrwt beam="2">  1       -1 0.75579310E-01 0.15897859E+04</pdfrwt>
<totfact> 0.32418711E+01</totfact>
</mgrwt>
</event>
<event>
12    6  0.1627636E-007  0.1817739E+04  0.7818608E-02  0.8696922E-01
          2   -1    0    0  501    0  0.00000000000E+00  0.00000000000E+00  0.21998403391E+04  0.21998403391E+04  0.00000000000E+00 0. -1.
         -1   -1    0    0    0  501 -0.00000000000E+00 -0.00000000000E+00 -0.37550181679E+03  0.37550181679E+03  0.00000000000E+00 0.  1.
         24    2    1    2    0    0 -0.25803416757E+03  0.13187253935E+03  0.15840982006E+04  0.16123697825E+04  0.79982547923E+02 0.  0.
        254    2    1    2    0    0  0.25803416757E+03 -0.13187253935E+03  0.24024032167E+03  0.96297237340E+03  0.88635680260E+03 0.  0.
         23    2    4    4    0    0  0.58025177307E+03 -0.62226159212E+02  0.15355208772E+03  0.61065979938E+03  0.93610533015E+02 0.  0.
         23    2    4    4    0    0 -0.32221760550E+03 -0.69646380140E+02  0.86688233951E+02  0.35231257403E+03  0.89075789938E+02 0.  0.
          4    1    3    3  502    0 -0.22716159428E+03  0.14203313291E+03  0.13934509489E+04  0.14189719334E+04  0.00000000000E+00 0. -1.
         -3    1    3    3    0  502 -0.30872573285E+02 -0.10160593561E+02  0.19064725177E+03  0.19339784914E+03  0.00000000000E+00 0.  1.
         11    1    5    5    0    0  0.41751760451E+03 -0.24009462033E+01  0.11436182923E+03  0.43290338715E+03  0.00000000000E+00 0. -1.
        -11    1    5    5    0    0  0.16273416855E+03 -0.59825213009E+02  0.39190258492E+02  0.17775641223E+03  0.00000000000E+00 0.  1.
          1    1    6    6  503    0 -0.22635837168E+03 -0.85260054176E+02  0.42409245112E+02  0.24557266407E+03  0.00000000000E+00 0. -1.
         -1    1    6    6    0  503 -0.95859233815E+02  0.15613674036E+02  0.44278988839E+02  0.10673990995E+03  0.00000000000E+00 0.  1.
<mgrwt>
<rscale>  0 0.18177393E+04</rscale>
<asrwt>0</asrwt>
<pdfrwt beam="1">  1        2 0.33843697E+00 0.18177393E+04</pdfrwt>
<pdfrwt beam="2">  1       -1 0.57769511E-01 0.18177393E+04</pdfrwt>
<totfact> 0.16833248E+01</totfact>
</mgrwt>
</event>
<event>
12    6  0.1627636E-007  0.1651098E+04  0.7818608E-02  0.8789757E-01
         -1   -1    0    0    0  501 -0.00000000000E+00  0.00000000000E+00  0.17971226475E+03  0.17971226475E+03  0.00000000000E+00 0.  1.
          2   -1    0    0  501    0  0.00000000000E+00 -0.00000000000E+00 -0.37923460087E+04  0.37923460087E+04  0.00000000000E+00 0. -1.
         24    2    1    2    0    0 -0.50864693200E+03  0.33012930856E+02 -0.62829753512E+03  0.81345564424E+03  0.84502884399E+02 0.  0.
        254    2    1    2    0    0  0.50864693200E+03 -0.33012930856E+02 -0.29843362088E+04  0.31586026292E+04  0.90038680955E+03 0.  0.
         23    2    4    4    0    0  0.52942145724E+03 -0.37095117367E+03 -0.15402491260E+04  0.16729571896E+04  0.92339242304E+02 0.  0.
         23    2    4    4    0    0 -0.20774525234E+02  0.33793824281E+03 -0.14440870828E+04  0.14856454395E+04  0.84386209587E+02 0.  0.
          2    1    3    3  502    0 -0.66812390777E+02 -0.10791630695E+02 -0.48889708278E+02  0.83489870224E+02  0.00000000000E+00 0. -1.
         -1    1    3    3    0  502 -0.44183454122E+03  0.43804561551E+02 -0.57940782684E+03  0.72996577402E+03  0.00000000000E+00 0.  1.
         11    1    5    5    0    0  0.50384449156E+03 -0.36831895778E+03 -0.14393995046E+04  0.15688814679E+04  0.00000000000E+00 0. -1.
        -11    1    5    5    0    0  0.25576965674E+02 -0.26322158904E+01 -0.10084962135E+03  0.10407572176E+03  0.00000000000E+00 0.  1.
          4    1    6    6  503    0 -0.41804893183E+02  0.29708394222E+03 -0.13096213488E+04  0.13435455314E+04  0.00000000000E+00 0. -1.
         -4    1    6    6    0  503  0.21030367949E+02  0.40854300595E+02 -0.13446573401E+03  0.14209990808E+03  0.00000000000E+00 0.  1.
<mgrwt>
<rscale>  0 0.16510979E+04</rscale>
<asrwt>0</asrwt>
<pdfrwt beam="1">  1        2 0.58343786E+00 0.16510979E+04</pdfrwt>
<pdfrwt beam="2">  1       -1 0.27648040E-01 0.16510979E+04</pdfrwt>
<totfact> 0.64683974E+00</totfact>
</mgrwt>
</event>
<event>
12    6  0.1627636E-007  0.1686942E+04  0.7818608E-02  0.8768847E-01
         -1   -1    0    0    0  501 -0.00000000000E+00  0.00000000000E+00  0.86425249266E+03  0.86425249266E+03  0.00000000000E+00 0.  1.
          2   -1    0    0  501    0  0.00000000000E+00 -0.00000000000E+00 -0.82318894207E+03  0.82318894207E+03  0.00000000000E+00 0. -1.
         24    2    1    2    0    0  0.45549060963E+03  0.33801734753E+03 -0.16405840787E+03  0.59575366557E+03  0.79245480332E+02 0.  0.
        254    2    1    2    0    0 -0.45549060963E+03 -0.33801734753E+03  0.20512195847E+03  0.10916877692E+04  0.90993392331E+03 0.  0.
         23    2    4    4    0    0 -0.15778463645E+03 -0.61503999838E+03  0.37226933233E+02  0.64243668288E+03  0.90381722942E+02 0.  0.
         23    2    4    4    0    0 -0.29770597318E+03  0.27702265085E+03  0.16789502524E+03  0.44925108629E+03  0.90925263142E+02 0.  0.
          2    1    3    3  502    0  0.99413158026E+02  0.59423562800E+02 -0.65376083285E+02  0.13299687241E+03  0.00000000000E+00 0. -1.
         -1    1    3    3    0  502  0.35607745160E+03  0.27859378473E+03 -0.98682324588E+02  0.46275679316E+03  0.00000000000E+00 0.  1.
         11    1    5    5    0    0 -0.40185339932E+02 -0.78811864581E+02  0.30010330781E+02  0.93417297636E+02  0.00000000000E+00 0. -1.
        -11    1    5    5    0    0 -0.11759929651E+03 -0.53622813380E+03  0.72166024515E+01  0.54901938524E+03  0.00000000000E+00 0.  1.
          1    1    6    6  503    0 -0.97046079737E+02  0.49979885661E+02  0.16073174755E+02  0.11033710849E+03  0.00000000000E+00 0. -1.
         -1    1    6    6    0  503 -0.20065989344E+03  0.22704276519E+03  0.15182185048E+03  0.33891397780E+03  0.00000000000E+00 0.  1.
<mgrwt>
<rscale>  0 0.16869417E+04</rscale>
<asrwt>0</asrwt>
<pdfrwt beam="1">  1        2 0.12664445E+00 0.16869417E+04</pdfrwt>
<pdfrwt beam="2">  1       -1 0.13296192E+00 0.16869417E+04</pdfrwt>
<totfact> 0.17266286E+01</totfact>
</mgrwt>
</event>
<event>
12    6  0.1627636E-007  0.1784262E+04  0.7818608E-02  0.8714714E-01
         -1   -1    0    0    0  501 -0.00000000000E+00  0.00000000000E+00  0.81540083921E+03  0.81540083921E+03  0.00000000000E+00 0.  1.
          2   -1    0    0  501    0  0.00000000000E+00 -0.00000000000E+00 -0.97608147909E+03  0.97608147909E+03  0.00000000000E+00 0. -1.
         24    2    1    2    0    0 -0.33019474125E+03 -0.58609902831E+03  0.59757337939E+02  0.68004109365E+03  0.79651186288E+02 0.  0.
        254    2    1    2    0    0  0.33019474125E+03  0.58609902831E+03 -0.22043797782E+03  0.11114412247E+04  0.85683607280E+03 0.  0.
         23    2    4    4    0    0  0.37392389610E+02  0.50417958920E+03  0.22769913023E+03  0.56184863269E+03  0.90728954468E+02 0.  0.
         23    2    4    4    0    0  0.29280235164E+03  0.81919439116E+02 -0.44813710805E+03  0.54959259197E+03  0.93707725937E+02 0.  0.
          2    1    3    3  502    0 -0.15193897340E+03 -0.32934345021E+03  0.59021382763E+02  0.36747256151E+03  0.00000000000E+00 0. -1.
         -1    1    3    3    0  502 -0.17825576785E+03 -0.25675557810E+03  0.73595517544E+00  0.31256853214E+03  0.00000000000E+00 0.  1.
         11    1    5    5    0    0  0.48006064438E+02  0.45676092575E+03  0.22907895671E+03  0.51323707379E+03  0.00000000000E+00 0.  1.
        -11    1    5    5    0    0 -0.10613674828E+02  0.47418663450E+02 -0.13798264729E+01  0.48611558891E+02  0.00000000000E+00 0. -1.
          1    1    6    6  503    0  0.82516077320E+02  0.58618629540E+02 -0.10051561414E+03  0.14264794226E+03  0.00000000000E+00 0. -1.
         -1    1    6    6    0  503  0.21028627432E+03  0.23300809575E+02 -0.34762149391E+03  0.40694464971E+03  0.00000000000E+00 0.  1.
<mgrwt>
<rscale>  0 0.17842619E+04</rscale>
<asrwt>0</asrwt>
<pdfrwt beam="1">  1        2 0.15016638E+00 0.17842619E+04</pdfrwt>
<pdfrwt beam="2">  1       -1 0.12544628E+00 0.17842619E+04</pdfrwt>
<totfact> 0.15616856E+01</totfact>
</mgrwt>
</event>
<event>
12    6  0.1627636E-007  0.3731895E+04  0.7818608E-02  0.8060930E-01
         -1   -1    0    0    0  501 -0.00000000000E+00  0.00000000000E+00  0.10765346377E+04  0.10765346377E+04  0.00000000000E+00 0.  1.
          2   -1    0    0  501    0  0.00000000000E+00 -0.00000000000E+00 -0.32342300595E+04  0.32342300595E+04  0.00000000000E+00 0. -1.
         24    2    1    2    0    0  0.45246238614E+03  0.16410885462E+04 -0.51958265637E+03  0.17817640785E+04  0.82603069779E+02 0.  0.
        254    2    1    2    0    0 -0.45246238614E+03 -0.16410885462E+04 -0.16381127655E+04  0.25290006187E+04  0.90251696362E+03 0.  0.
         23    2    4    4    0    0 -0.43023881522E+03 -0.44682353629E+03 -0.97427762284E+03  0.11585983642E+04  0.91523617073E+02 0.  0.
         23    2    4    4    0    0 -0.22223570926E+02 -0.11942650099E+04 -0.66383514263E+03  0.13704022545E+04  0.10277373930E+03 0.  0.
          2    1    3    3  502    0  0.43456311759E+02  0.19392141618E+03 -0.35188513159E+02  0.20182219438E+03  0.00000000000E+00 0. -1.
         -1    1    3    3    0  502  0.40900607438E+03  0.14471671300E+04 -0.48439414321E+03  0.15799418841E+04  0.00000000000E+00 0.  1.
         11    1    5    5    0    0 -0.38198333487E+03 -0.36076652932E+03 -0.85808333951E+03  0.10061663751E+04  0.00000000000E+00 0. -1.
        -11    1    5    5    0    0 -0.48255480342E+02 -0.86057006962E+02 -0.11619428333E+03  0.15243198913E+03  0.00000000000E+00 0.  1.
          2    1    6    6  503    0  0.71045320506E+01 -0.38071870769E+01 -0.41229196075E+01  0.90535912867E+01  0.00000000000E+00 0.  1.
         -2    1    6    6    0  503 -0.29328102976E+02 -0.11904578229E+04 -0.65971222302E+03  0.13613486632E+04  0.00000000000E+00 0. -1.
<mgrwt>
<rscale>  0 0.37318953E+04</rscale>
<asrwt>0</asrwt>
<pdfrwt beam="1">  1        2 0.49757384E+00 0.37318953E+04</pdfrwt>
<pdfrwt beam="2">  1       -1 0.16562072E+00 0.37318953E+04</pdfrwt>
<totfact> 0.29854031E-01</totfact>
</mgrwt>
</event>
<event>
12    6  0.1627636E-007  0.2505793E+04  0.7818608E-02  0.8400925E-01
         -1   -1    0    0    0  501 -0.00000000000E+00  0.00000000000E+00  0.59664360941E+03  0.59664360941E+03  0.00000000000E+00 0.  1.
          2   -1    0    0  501    0  0.00000000000E+00 -0.00000000000E+00 -0.26309670701E+04  0.26309670701E+04  0.00000000000E+00 0. -1.
         24    2    1    2    0    0 -0.17939440860E+02  0.10176543245E+04 -0.13524364831E+04  0.16944725546E+04  0.78807676197E+02 0.  0.
        254    2    1    2    0    0  0.17939440860E+02 -0.10176543245E+04 -0.68188697761E+03  0.15331381249E+04  0.92173776751E+03 0.  0.
         23    2    4    4    0    0 -0.13557714456E+03  0.12179205390E+03 -0.25752780014E+02  0.20613970133E+03  0.92821895402E+02 0.  0.
         23    2    4    4    0    0  0.15351658542E+03 -0.11394463784E+04 -0.65613419760E+03  0.13269984236E+04  0.92235240577E+02 0.  0.
          2    1    3    3  502    0 -0.45578385306E+02  0.82182060484E+03 -0.10895780433E+04  0.13655207096E+04  0.00000000000E+00 0. -1.
         -3    1    3    3    0  502  0.27638944447E+02  0.19583371968E+03 -0.26285843976E+03  0.32895184506E+03  0.00000000000E+00 0.  1.
         11    1    5    5    0    0 -0.65672555153E+02  0.33167595089E+01 -0.18853627614E+02  0.68405735638E+02  0.00000000000E+00 0. -1.
        -11    1    5    5    0    0 -0.69904589406E+02  0.11847529440E+03 -0.68991524003E+01  0.13773396569E+03  0.00000000000E+00 0.  1.
          2    1    6    6  503    0 -0.93337081849E+01 -0.12023759439E+03 -0.83109569456E+02  0.14646295692E+03  0.00000000000E+00 0. -1.
         -2    1    6    6    0  503  0.16285029360E+03 -0.10192087840E+04 -0.57302462814E+03  0.11805354667E+04  0.00000000000E+00 0.  1.
<mgrwt>
<rscale>  0 0.25057930E+04</rscale>
<asrwt>0</asrwt>
<pdfrwt beam="1">  1        2 0.40476417E+00 0.25057930E+04</pdfrwt>
<pdfrwt beam="2">  1       -1 0.91791322E-01 0.25057930E+04</pdfrwt>
<totfact> 0.34203745E+00</totfact>
</mgrwt>
</event>
<event>
12    6  0.1627636E-007  0.1252799E+04  0.7818608E-02  0.9067857E-01
         -1   -1    0    0    0  501 -0.00000000000E+00  0.00000000000E+00  0.12794818993E+03  0.12794818993E+03  0.00000000000E+00 0.  1.
          2   -1    0    0  501    0  0.00000000000E+00 -0.00000000000E+00 -0.30666825275E+04  0.30666825275E+04  0.00000000000E+00 0. -1.
         24    2    1    2    0    0  0.81989802939E+02 -0.23679672015E+03 -0.11026107427E+04  0.11352233724E+04  0.10092888935E+03 0.  0.
        254    2    1    2    0    0 -0.81989802939E+02  0.23679672015E+03 -0.18361235948E+04  0.20594073450E+04  0.89833943638E+03 0.  0.
         23    2    4    4    0    0 -0.38830237993E+03  0.83529340684E+02 -0.15519095262E+04  0.16049732023E+04  0.98792274118E+02 0.  0.
         23    2    4    4    0    0  0.30631257699E+03  0.15326737946E+03 -0.28421406859E+03  0.45443414278E+03  0.91730414287E+02 0.  0.
          4    1    3    3  502    0  0.82553194751E+02 -0.16031827107E+03 -0.91541699243E+03  0.93300870738E+03  0.00000000000E+00 0. -1.
         -3    1    3    3    0  502 -0.56339181280E+00 -0.76478449078E+02 -0.18719375029E+03  0.20221466498E+03  0.00000000000E+00 0.  1.
         11    1    5    5    0    0 -0.20836308346E+03  0.93941018453E+02 -0.82864274694E+03  0.85958646543E+03  0.00000000000E+00 0.  1.
        -11    1    5    5    0    0 -0.17993929647E+03 -0.10411677768E+02 -0.72326677927E+03  0.74538673683E+03  0.00000000000E+00 0. -1.
          3    1    6    6  503    0  0.25531647903E+03  0.13422172490E+03 -0.27629294831E+03  0.39942429719E+03  0.00000000000E+00 0. -1.
         -3    1    6    6    0  503  0.50996097967E+02  0.19045654562E+02 -0.79211202848E+01  0.55009845593E+02  0.00000000000E+00 0.  1.
<mgrwt>
<rscale>  0 0.12527992E+04</rscale>
<asrwt>0</asrwt>
<pdfrwt beam="1">  1        2 0.47179727E+00 0.12527992E+04</pdfrwt>
<pdfrwt beam="2">  1       -1 0.19684339E-01 0.12527992E+04</pdfrwt>
<totfact> 0.37700534E+01</totfact>
</mgrwt>
</event>
<event>
12    6  0.1627636E-007  0.3036586E+04  0.7818608E-02  0.8233360E-01
          2   -1    0    0  501    0  0.00000000000E+00  0.00000000000E+00  0.24265986196E+04  0.24265986196E+04  0.00000000000E+00 0. -1.
         -1   -1    0    0    0  501 -0.00000000000E+00 -0.00000000000E+00 -0.94997727821E+03  0.94997727821E+03  0.00000000000E+00 0.  1.
         24    2    1    2    0    0  0.12601674685E+04  0.15023072657E+03  0.12964012231E+04  0.18156907853E+04  0.74064679441E+02 0.  0.
        254    2    1    2    0    0 -0.12601674685E+04 -0.15023072657E+03  0.18022011829E+03  0.15608851125E+04  0.89066925609E+03 0.  0.
         23    2    4    4    0    0 -0.11419571307E+04  0.36335185754E+02 -0.14503768211E+03  0.11558601866E+04  0.97931137506E+02 0.  0.
         23    2    4    4    0    0 -0.11821033779E+03 -0.18656591233E+03  0.32525780040E+03  0.40502492595E+03  0.97324356252E+02 0.  0.
          2    1    3    3  502    0  0.78114424129E+03  0.68424097411E+02  0.76246633284E+03  0.10937198414E+04  0.00000000000E+00 0. -1.
         -1    1    3    3    0  502  0.47902322716E+03  0.81806629160E+02  0.53393489027E+03  0.72197094386E+03  0.00000000000E+00 0.  1.
         11    1    5    5    0    0 -0.91816382014E+03  0.11960605837E+02 -0.80973293777E+02  0.92180503958E+03  0.00000000000E+00 0. -1.
        -11    1    5    5    0    0 -0.22379331053E+03  0.24374579917E+02 -0.64064388331E+02  0.23405514700E+03  0.00000000000E+00 0.  1.
          1    1    6    6  503    0 -0.74471719590E+02 -0.18204614986E+03  0.27712376147E+03  0.33982998230E+03  0.00000000000E+00 0. -1.
         -1    1    6    6    0  503 -0.43738618196E+02 -0.45197624687E+01  0.48134038924E+02  0.65194943650E+02  0.00000000000E+00 0.  1.
<mgrwt>
<rscale>  0 0.30365859E+04</rscale>
<asrwt>0</asrwt>
<pdfrwt beam="1">  1        2 0.37332286E+00 0.30365859E+04</pdfrwt>
<pdfrwt beam="2">  1       -1 0.14615035E+00 0.30365859E+04</pdfrwt>
<totfact> 0.13927425E+00</totfact>
</mgrwt>
</event>
<event>
12    6  0.1627636E-007  0.1299212E+04  0.7818608E-02  0.9030191E-01
         -1   -1    0    0    0  501 -0.00000000000E+00  0.00000000000E+00  0.17388302075E+03  0.17388302075E+03  0.00000000000E+00 0.  1.
          2   -1    0    0  501    0  0.00000000000E+00 -0.00000000000E+00 -0.24268478310E+04  0.24268478310E+04  0.00000000000E+00 0. -1.
         24    2    1    2    0    0 -0.13823350137E+03 -0.29637430982E+03 -0.47811923476E+03  0.58509481590E+03  0.82411822734E+02 0.  0.
        254    2    1    2    0    0  0.13823350137E+03  0.29637430982E+03 -0.17748455755E+04  0.20156360359E+04  0.89764446176E+03 0.  0.
         23    2    4    4    0    0  0.93266833089E+02 -0.16906844023E+03 -0.13813639238E+04  0.13977634975E+04  0.91069562609E+02 0.  0.
         23    2    4    4    0    0  0.44966668279E+02  0.46544275006E+03 -0.39348165170E+03  0.61787253839E+03  0.90992904289E+02 0.  0.
          2    1    3    3  502    0 -0.11922897017E+02  0.24166634550E+01 -0.11107733287E+02  0.16473538609E+02  0.00000000000E+00 0. -1.
         -1    1    3    3    0  502 -0.12631060435E+03 -0.29879097328E+03 -0.46701150147E+03  0.56862127730E+03  0.00000000000E+00 0.  1.
         11    1    5    5    0    0  0.27874230000E+02 -0.41654332902E+02 -0.15118824120E+03  0.15927944132E+03  0.00000000000E+00 0.  1.
        -11    1    5    5    0    0  0.65392603089E+02 -0.12741410733E+03 -0.12301756826E+04  0.12384840562E+04  0.00000000000E+00 0. -1.
          3    1    6    6  503    0  0.23223076611E+02  0.31758491849E+03 -0.21096413385E+03  0.38197559806E+03  0.00000000000E+00 0. -1.
         -3    1    6    6    0  503  0.21743591668E+02  0.14785783156E+03 -0.18251751785E+03  0.23589694033E+03  0.00000000000E+00 0.  1.
<mgrwt>
<rscale>  0 0.12992115E+04</rscale>
<asrwt>0</asrwt>
<pdfrwt beam="1">  1        2 0.37336118E+00 0.12992115E+04</pdfrwt>
<pdfrwt beam="2">  1       -1 0.26751236E-01 0.12992115E+04</pdfrwt>
<totfact> 0.53604873E+01</totfact>
</mgrwt>
</event>
<event>
12    6  0.1627636E-007  0.1821623E+04  0.7818608E-02  0.8694884E-01
         -1   -1    0    0    0  501 -0.00000000000E+00  0.00000000000E+00  0.50299373331E+03  0.50299373331E+03  0.00000000000E+00 0.  1.
          2   -1    0    0  501    0  0.00000000000E+00 -0.00000000000E+00 -0.16492802146E+04  0.16492802146E+04  0.00000000000E+00 0. -1.
         24    2    1    2    0    0  0.15965969758E+03  0.40995905861E+03 -0.10481693950E+04  0.11395085560E+04  0.79139243965E+02 0.  0.
        254    2    1    2    0    0 -0.15965969758E+03 -0.40995905861E+03 -0.98117086301E+02  0.10127653919E+04  0.90692288955E+03 0.  0.
         23    2    4    4    0    0  0.34726873952E+03 -0.32703279267E+03 -0.37592912811E+02  0.48779962677E+03  0.94811517505E+02 0.  0.
         23    2    4    4    0    0 -0.50692843710E+03 -0.82926265936E+02 -0.60524173490E+02  0.52496576510E+03  0.89848055258E+02 0.  0.
          4    1    3    3  502    0  0.15170040104E+03  0.37148662505E+03 -0.99896601388E+03  0.10765446675E+04  0.00000000000E+00 0. -1.
         -3    1    3    3    0  502  0.79592965363E+01  0.38472433559E+02 -0.49203381074E+02  0.62963888495E+02  0.00000000000E+00 0.  1.
         11    1    5    5    0    0  0.23348996555E+03 -0.20725513273E+03 -0.68744796597E+02  0.31968437734E+03  0.00000000000E+00 0. -1.
        -11    1    5    5    0    0  0.11377877397E+03 -0.11977765995E+03  0.31151883785E+02  0.16811524943E+03  0.00000000000E+00 0.  1.
          3    1    6    6  503    0 -0.47910049550E+03 -0.55412208351E+02 -0.54319315935E+02  0.48534357491E+03  0.00000000000E+00 0. -1.
         -3    1    6    6    0  503 -0.27827941593E+02 -0.27514057585E+02 -0.62048575550E+01  0.39622190189E+02  0.00000000000E+00 0.  1.
<mgrwt>
<rscale>  0 0.18216230E+04</rscale>
<asrwt>0</asrwt>
<pdfrwt beam="1">  1        2 0.25373542E+00 0.18216230E+04</pdfrwt>
<pdfrwt beam="2">  1       -1 0.77383651E-01 0.18216230E+04</pdfrwt>
<totfact> 0.18809615E+01</totfact>
</mgrwt>
</event>
<event>
12    6  0.1627636E-007  0.1462623E+04  0.7818608E-02  0.8909696E-01
         -1   -1    0    0    0  501 -0.00000000000E+00  0.00000000000E+00  0.50189823498E+03  0.50189823498E+03  0.00000000000E+00 0.  1.
          2   -1    0    0  501    0  0.00000000000E+00 -0.00000000000E+00 -0.10655879302E+04  0.10655879302E+04  0.00000000000E+00 0. -1.
         24    2    1    2    0    0  0.25194740390E+03  0.17254832964E+03  0.20402477254E+03  0.37598180049E+03  0.80534378371E+02 0.  0.
        254    2    1    2    0    0 -0.25194740390E+03 -0.17254832964E+03 -0.76771446781E+03  0.11915043647E+04  0.85851425538E+03 0.  0.
         23    2    4    4    0    0 -0.28260951130E+03  0.64394235790E+02  0.74514196825E+02  0.31131157500E+03  0.85719179425E+02 0.  0.
         23    2    4    4    0    0  0.30662107404E+02 -0.23694256542E+03 -0.84222866464E+03  0.88019278973E+03  0.91149763656E+02 0.  0.
          2    1    3    3  502    0  0.12447655886E+03  0.81388474181E+02  0.51742547727E+02  0.15746678596E+03  0.00000000000E+00 0. -1.
         -1    1    3    3    0  502  0.12747084503E+03  0.91159855454E+02  0.15228222482E+03  0.21851501453E+03  0.00000000000E+00 0.  1.
         11    1    5    5    0    0 -0.13341005608E+03  0.64037479456E+02  0.86944202423E+01  0.14823843895E+03  0.00000000000E+00 0. -1.
        -11    1    5    5    0    0 -0.14919945522E+03  0.35675633357E+00  0.65819776582E+02  0.16307313606E+03  0.00000000000E+00 0.  1.
          4    1    6    6  503    0 -0.88934090640E+01 -0.16311170555E+03 -0.65534627990E+03  0.67539859919E+03  0.00000000000E+00 0.  1.
         -4    1    6    6    0  503  0.39555516468E+02 -0.73830859871E+02 -0.18688238474E+03  0.20479419054E+03  0.00000000000E+00 0. -1.
<mgrwt>
<rscale>  0 0.14626233E+04</rscale>
<asrwt>0</asrwt>
<pdfrwt beam="1">  1        2 0.16393660E+00 0.14626233E+04</pdfrwt>
<pdfrwt beam="2">  1       -1 0.77215113E-01 0.14626233E+04</pdfrwt>
<totfact> 0.42545018E+01</totfact>
</mgrwt>
</event>
<event>
12    6  0.1627636E-007  0.1081231E+04  0.7818608E-02  0.9223681E-01
          2   -1    0    0  501    0  0.00000000000E+00  0.00000000000E+00  0.26699497379E+03  0.26699497379E+03  0.00000000000E+00 0. -1.
         -3   -1    0    0    0  501 -0.00000000000E+00 -0.00000000000E+00 -0.10946460237E+04  0.10946460237E+04  0.00000000000E+00 0.  1.
         24    2    1    2    0    0 -0.33714264708E+01  0.83807914722E+02 -0.30455530621E+03  0.32591787286E+03  0.80208429891E+02 0.  0.
        254    2    1    2    0    0  0.33714264708E+01 -0.83807914722E+02 -0.52309574373E+03  0.10357231247E+04  0.88997646079E+03 0.  0.
         23    2    4    4    0    0  0.10960363480E+02 -0.14515007555E+03  0.22326436127E+03  0.28127441522E+03  0.89886860255E+02 0.  0.
         23    2    4    4    0    0 -0.75889370089E+01  0.61342160827E+02 -0.74636010500E+03  0.75444870944E+03  0.91208531249E+02 0.  0.
          2    1    3    3  502    0  0.24360982004E+02  0.16086930921E+02 -0.30333135083E+02  0.42099238409E+02  0.00000000000E+00 0. -1.
         -1    1    3    3    0  502 -0.27732408475E+02  0.67720983801E+02 -0.27422217112E+03  0.28381863445E+03  0.00000000000E+00 0.  1.
         11    1    5    5    0    0  0.48640984244E+02 -0.69048651696E+02  0.13111162376E+03  0.15596127575E+03  0.00000000000E+00 0. -1.
        -11    1    5    5    0    0 -0.37680620764E+02 -0.76101423854E+02  0.92152737512E+02  0.12531313947E+03  0.00000000000E+00 0.  1.
          1    1    6    6  503    0  0.41741114148E+02  0.33502791987E+02 -0.35699062543E+03  0.36098069799E+03  0.00000000000E+00 0. -1.
         -1    1    6    6    0  503 -0.49330051157E+02  0.27839368840E+02 -0.38936947958E+03  0.39346801145E+03  0.00000000000E+00 0.  1.
<mgrwt>
<rscale>  0 0.10812308E+04</rscale>
<asrwt>0</asrwt>
<pdfrwt beam="1">  1        2 0.41076150E-01 0.10812308E+04</pdfrwt>
<pdfrwt beam="2">  1       -3 0.16840708E+00 0.10812308E+04</pdfrwt>
<totfact> 0.18384656E+01</totfact>
</mgrwt>
</event>
<event>
12    6  0.1627636E-007  0.2300853E+04  0.7818608E-02  0.8477585E-01
         -1   -1    0    0    0  501 -0.00000000000E+00  0.00000000000E+00  0.17828894383E+04  0.17828894383E+04  0.00000000000E+00 0.  1.
          2   -1    0    0  501    0  0.00000000000E+00 -0.00000000000E+00 -0.74232343302E+03  0.74232343302E+03  0.00000000000E+00 0. -1.
         24    2    1    2    0    0 -0.53469271994E+03 -0.79334947002E+03  0.63074097649E+03  0.11487197582E+04  0.80144976342E+02 0.  0.
        254    2    1    2    0    0  0.53469271994E+03  0.79334947002E+03  0.40982502875E+03  0.13764931130E+04  0.90082020941E+03 0.  0.
         23    2    4    4    0    0  0.84443288093E+02  0.82964942073E+03  0.16889816836E+03  0.85564054339E+03  0.90251415440E+02 0.  0.
         23    2    4    4    0    0  0.45024943185E+03 -0.36299950710E+02  0.24092686039E+03  0.52085256964E+03  0.95913554519E+02 0.  0.
          2    1    3    3  502    0 -0.74672249744E+01 -0.36863296926E+01  0.14681512914E+02  0.16878841692E+02  0.00000000000E+00 0. -1.
         -1    1    3    3    0  502 -0.52722549497E+03 -0.78966314033E+03  0.61605946357E+03  0.11318409166E+04  0.00000000000E+00 0.  1.
         11    1    5    5    0    0  0.27115825567E+02  0.23273280542E+03  0.65890803400E+01  0.23439974977E+03  0.00000000000E+00 0.  1.
        -11    1    5    5    0    0  0.57327462526E+02  0.59691661532E+03  0.16230908802E+03  0.62124079362E+03  0.00000000000E+00 0. -1.
          1    1    6    6  503    0  0.35884336831E+03 -0.15060022893E+02  0.14699214751E+03  0.38807481070E+03  0.00000000000E+00 0. -1.
         -1    1    6    6    0  503  0.91406063537E+02 -0.21239927816E+02  0.93934712878E+02  0.13277775894E+03  0.00000000000E+00 0.  1.
<mgrwt>
<rscale>  0 0.23008525E+04</rscale>
<asrwt>0</asrwt>
<pdfrwt beam="1">  1        2 0.11420361E+00 0.23008525E+04</pdfrwt>
<pdfrwt beam="2">  1       -1 0.27429068E+00 0.23008525E+04</pdfrwt>
<totfact> 0.19051616E+00</totfact>
</mgrwt>
</event>
<event>
12    6  0.1627636E-007  0.1788090E+04  0.7818608E-02  0.8712659E-01
          2   -1    0    0  501    0  0.00000000000E+00  0.00000000000E+00  0.90918863687E+03  0.90918863687E+03  0.00000000000E+00 0. -1.
         -1   -1    0    0    0  501 -0.00000000000E+00 -0.00000000000E+00 -0.87915401939E+03  0.87915401939E+03  0.00000000000E+00 0.  1.
         24    2    1    2    0    0  0.28974605169E+02  0.66218063813E+03  0.65180230202E+02  0.67084287844E+03  0.80367778933E+02 0.  0.
        254    2    1    2    0    0 -0.28974605169E+02 -0.66218063813E+03 -0.35145612722E+02  0.11174997778E+04  0.89902603638E+03 0.  0.
         23    2    4    4    0    0 -0.28092810339E+03 -0.52382045428E+03  0.29531608407E+03  0.67011663149E+03  0.92391789118E+02 0.  0.
         23    2    4    4    0    0  0.25195349822E+03 -0.13836018385E+03 -0.33046169679E+03  0.44738314633E+03  0.91228508874E+02 0.  0.
          2    1    3    3  502    0  0.16442074326E+02  0.40005445755E+03 -0.21351440522E+00  0.40039225318E+03  0.00000000000E+00 0. -1.
         -1    1    3    3    0  502  0.12532530843E+02  0.26212618057E+03  0.65393744607E+02  0.27045062526E+03  0.00000000000E+00 0.  1.
         11    1    5    5    0    0 -0.21415547450E+03 -0.44669998442E+03  0.21385546910E+03  0.53957168662E+03  0.00000000000E+00 0. -1.
        -11    1    5    5    0    0 -0.66772628895E+02 -0.77120469862E+02  0.81460614969E+02  0.13054494487E+03  0.00000000000E+00 0.  1.
          4    1    6    6  503    0  0.23420475087E+03 -0.95120080566E+02 -0.29636155304E+03  0.38952517913E+03  0.00000000000E+00 0. -1.
         -4    1    6    6    0  503  0.17748747351E+02 -0.43240103279E+02 -0.34100143753E+02  0.57857967197E+02  0.00000000000E+00 0.  1.
<mgrwt>
<rscale>  0 0.17880904E+04</rscale>
<asrwt>0</asrwt>
<pdfrwt beam="1">  1        2 0.13987518E+00 0.17880904E+04</pdfrwt>
<pdfrwt beam="2">  1       -1 0.13525446E+00 0.17880904E+04</pdfrwt>
<totfact> 0.14290519E+01</totfact>
</mgrwt>
</event>
<event>
12    6  0.1627636E-007  0.2817260E+04  0.7818608E-02  0.8297930E-01
          2   -1    0    0  501    0  0.00000000000E+00  0.00000000000E+00  0.46428808203E+04  0.46428808203E+04  0.00000000000E+00 0. -1.
         -1   -1    0    0    0  501 -0.00000000000E+00 -0.00000000000E+00 -0.42737233335E+03  0.42737233335E+03  0.00000000000E+00 0.  1.
         24    2    1    2    0    0  0.52897571491E+02 -0.12439787559E+04  0.15100696937E+04  0.19588673965E+04  0.81053679236E+02 0.  0.
        254    2    1    2    0    0 -0.52897571491E+02  0.12439787559E+04  0.27054387933E+04  0.31113857572E+04  0.90057812975E+03 0.  0.
         23    2    4    4    0    0 -0.43664505982E+03  0.49866504453E+03  0.93632542690E+03  0.11515286513E+04  0.99935953748E+02 0.  0.
         23    2    4    4    0    0  0.38374748833E+03  0.74531371137E+03  0.17691133664E+04  0.19598571059E+04  0.92320686981E+02 0.  0.
          4    1    3    3  502    0 -0.15847127989E+02 -0.27441257190E+03  0.36377925781E+03  0.45594817633E+03  0.00000000000E+00 0. -1.
         -3    1    3    3    0  502  0.68744699481E+02 -0.96956618399E+03  0.11462904359E+04  0.15029192202E+04  0.00000000000E+00 0.  1.
         11    1    5    5    0    0 -0.40818380018E+03  0.48065986521E+03  0.91638737018E+03  0.11123909982E+04  0.00000000000E+00 0. -1.
        -11    1    5    5    0    0 -0.28461259640E+02  0.18005179319E+02  0.19938056728E+02  0.39137653081E+02  0.00000000000E+00 0.  1.
          1    1    6    6  503    0  0.27818857501E+03  0.61382678506E+03  0.13791437073E+04  0.15349949742E+04  0.00000000000E+00 0. -1.
         -1    1    6    6    0  503  0.10555891332E+03  0.13148692631E+03  0.38996965904E+03  0.42486213169E+03  0.00000000000E+00 0.  1.
<mgrwt>
<rscale>  0 0.28172602E+04</rscale>
<asrwt>0</asrwt>
<pdfrwt beam="1">  1        2 0.71428932E+00 0.28172602E+04</pdfrwt>
<pdfrwt beam="2">  1       -1 0.65749593E-01 0.28172602E+04</pdfrwt>
<totfact> 0.20463495E-01</totfact>
</mgrwt>
</event>
<event>
12    6  0.1627636E-007  0.2269206E+04  0.7818608E-02  0.8490163E-01
          2   -1    0    0  501    0  0.00000000000E+00  0.00000000000E+00  0.20982057387E+04  0.20982057387E+04  0.00000000000E+00 0. -1.
         -1   -1    0    0    0  501 -0.00000000000E+00 -0.00000000000E+00 -0.61353557512E+03  0.61353557512E+03  0.00000000000E+00 0.  1.
         24    2    1    2    0    0  0.17310406311E+03 -0.86848241918E+03  0.10545640117E+04  0.13799154169E+04  0.88513127887E+02 0.  0.
        254    2    1    2    0    0 -0.17310406311E+03  0.86848241918E+03  0.43010615182E+03  0.13318258969E+04  0.89696275773E+03 0.  0.
         23    2    4    4    0    0  0.31220389047E+03  0.12730151100E+03  0.23323726577E+03  0.41951156884E+03  0.88957238740E+02 0.  0.
         23    2    4    4    0    0 -0.48530795358E+03  0.74118090818E+03  0.19686888605E+03  0.91231432807E+03  0.93204755472E+02 0.  0.
          4    1    3    3  502    0  0.13763260938E+03 -0.60225939019E+03  0.79049302238E+03  0.10032638370E+04  0.00000000000E+00 0. -1.
         -3    1    3    3    0  502  0.35471453729E+02 -0.26622302899E+03  0.26407098936E+03  0.37665157986E+03  0.00000000000E+00 0.  1.
         11    1    5    5    0    0  0.26428821211E+02  0.52455768090E+01 -0.56767499695E+01  0.27535870368E+02  0.00000000000E+00 0.  1.
        -11    1    5    5    0    0  0.28577506926E+03  0.12205593419E+03  0.23891401574E+03  0.39197569848E+03  0.00000000000E+00 0. -1.
          3    1    6    6  503    0 -0.41455940181E+03  0.62089868574E+03  0.19939979197E+03  0.77274507609E+03  0.00000000000E+00 0. -1.
         -3    1    6    6    0  503 -0.70748551773E+02  0.12028222245E+03 -0.25309059199E+01  0.13956925198E+03  0.00000000000E+00 0.  1.
<mgrwt>
<rscale>  0 0.22692059E+04</rscale>
<asrwt>0</asrwt>
<pdfrwt beam="1">  1        2 0.32280088E+00 0.22692059E+04</pdfrwt>
<pdfrwt beam="2">  1       -1 0.94390089E-01 0.22692059E+04</pdfrwt>
<totfact> 0.66173132E+00</totfact>
</mgrwt>
</event>
<event>
12    6  0.1627636E-007  0.1094700E+04  0.7818608E-02  0.9210373E-01
         -1   -1    0    0    0  501 -0.00000000000E+00  0.00000000000E+00  0.54412933102E+03  0.54412933102E+03  0.00000000000E+00 0.  1.
          2   -1    0    0  501    0  0.00000000000E+00 -0.00000000000E+00 -0.55058999149E+03  0.55058999149E+03  0.00000000000E+00 0. -1.
         24    2    1    2    0    0  0.13716878915E+03 -0.38130762653E+02  0.63002495789E+02  0.17582228532E+03  0.81700243357E+02 0.  0.
        254    2    1    2    0    0 -0.13716878915E+03  0.38130762653E+02 -0.69463156266E+02  0.91889703719E+03  0.90513943848E+03 0.  0.
         23    2    4    4    0    0  0.81017682687E+02  0.17522962530E+02 -0.45208206356E+03  0.46825332059E+03  0.89510116383E+02 0.  0.
         23    2    4    4    0    0 -0.21818647183E+03  0.20607800123E+02  0.38261890729E+03  0.45064371659E+03  0.93018886101E+02 0.  0.
          2    1    3    3  502    0 -0.51521624722E+01 -0.15856810214E+02  0.18825399574E+02  0.25147144518E+02  0.00000000000E+00 0. -1.
         -1    1    3    3    0  502  0.14232095162E+03 -0.22273952439E+02  0.44177096215E+02  0.15067514081E+03  0.00000000000E+00 0.  1.
         11    1    5    5    0    0  0.32138257327E+02  0.11168072102E+02 -0.37640405437E+03  0.37793862671E+03  0.00000000000E+00 0. -1.
        -11    1    5    5    0    0  0.48879425360E+02  0.63548904288E+01 -0.75678009189E+02  0.90314693880E+02  0.00000000000E+00 0.  1.
          2    1    6    6  503    0  0.14229782857E+00  0.15738601086E+02  0.52661405743E+02  0.54963146450E+02  0.00000000000E+00 0.  1.
         -2    1    6    6    0  503 -0.21832876966E+03  0.48691990363E+01  0.32995750155E+03  0.39568057014E+03  0.00000000000E+00 0. -1.
<mgrwt>
<rscale>  0 0.10947003E+04</rscale>
<asrwt>0</asrwt>
<pdfrwt beam="1">  1        2 0.84706153E-01 0.10947003E+04</pdfrwt>
<pdfrwt beam="2">  1       -1 0.83712205E-01 0.10947003E+04</pdfrwt>
<totfact> 0.88391321E+01</totfact>
</mgrwt>
</event>
<event>
12    6  0.1627636E-007  0.4028671E+04  0.7818608E-02  0.7998788E-01
         -1   -1    0    0    0  501 -0.00000000000E+00  0.00000000000E+00  0.15565097239E+04  0.15565097239E+04  0.00000000000E+00 0.  1.
          2   -1    0    0  501    0  0.00000000000E+00 -0.00000000000E+00 -0.26068245874E+04  0.26068245874E+04  0.00000000000E+00 0. -1.
         24    2    1    2    0    0 -0.25287236666E+03  0.12676286757E+04 -0.19542400196E+04  0.23443988348E+04  0.79529549163E+02 0.  0.
        254    2    1    2    0    0  0.25287236666E+03 -0.12676286757E+04  0.90392515611E+03  0.18189354766E+04  0.90588006205E+03 0.  0.
         23    2    4    4    0    0  0.13506100796E+03 -0.36020303529E+03 -0.14740628615E+03  0.42220543419E+03  0.92418141941E+02 0.  0.
         23    2    4    4    0    0  0.11781135870E+03 -0.90742564038E+03  0.10513314423E+04  0.13967300424E+04  0.90863637956E+02 0.  0.
          2    1    3    3  502    0 -0.16369435382E+03  0.98918478544E+03 -0.15057665761E+04  0.18090371370E+04  0.00000000000E+00 0. -1.
         -3    1    3    3    0  502 -0.89178012844E+02  0.27844389023E+03 -0.44847344350E+03  0.53536169783E+03  0.00000000000E+00 0.  1.
         11    1    5    5    0    0  0.44146051051E+02 -0.83821346608E+02  0.27840576090E+01  0.94776805956E+02  0.00000000000E+00 0.  1.
        -11    1    5    5    0    0  0.90914956907E+02 -0.27638168868E+03 -0.15019034376E+03  0.32742862823E+03  0.00000000000E+00 0. -1.
          3    1    6    6  503    0  0.90448057276E+01 -0.33468311837E+03  0.34250770355E+03  0.47896359488E+03  0.00000000000E+00 0. -1.
         -3    1    6    6    0  503  0.10876655297E+03 -0.57274252201E+03  0.70882373871E+03  0.91776644748E+03  0.00000000000E+00 0.  1.
<mgrwt>
<rscale>  0 0.40286712E+04</rscale>
<asrwt>0</asrwt>
<pdfrwt beam="1">  1        2 0.40104994E+00 0.40286712E+04</pdfrwt>
<pdfrwt beam="2">  1       -1 0.23946303E+00 0.40286712E+04</pdfrwt>
<totfact> 0.22041918E-01</totfact>
</mgrwt>
</event>
<event>
12    6  0.1627636E-007  0.1136663E+04  0.7818608E-02  0.9170176E-01
          2   -1    0    0  501    0  0.00000000000E+00  0.00000000000E+00  0.12326052423E+04  0.12326052423E+04  0.00000000000E+00 0. -1.
         -1   -1    0    0    0  501 -0.00000000000E+00 -0.00000000000E+00 -0.26204730390E+03  0.26204730390E+03  0.00000000000E+00 0.  1.
         24    2    1    2    0    0 -0.16274644711E+03  0.21693718868E+03  0.26688641737E+03  0.38983476987E+03  0.84821212810E+02 0.  0.
        254    2    1    2    0    0  0.16274644711E+03 -0.21693718868E+03  0.70367152101E+03  0.11048177763E+04  0.80741597674E+03 0.  0.
         23    2    4    4    0    0  0.32519275622E+03 -0.21529955366E+03  0.80178965792E+03  0.89615363235E+03  0.90113543488E+02 0.  0.
         23    2    4    4    0    0 -0.16244630910E+03 -0.16376350179E+01 -0.98118136913E+02  0.20866414396E+03  0.86729873707E+02 0.  0.
          2    1    3    3  502    0 -0.84425230789E+02  0.15996662425E+03  0.21138367364E+03  0.27820855118E+03  0.00000000000E+00 0. -1.
         -1    1    3    3    0  502 -0.78321216323E+02  0.56970564433E+02  0.55502743735E+02  0.11162621870E+03  0.00000000000E+00 0.  1.
         11    1    5    5    0    0  0.72595877421E+02 -0.60436412285E+02  0.11963305906E+03  0.15242962366E+03  0.00000000000E+00 0. -1.
        -11    1    5    5    0    0  0.25259687880E+03 -0.15486314138E+03  0.68215659886E+03  0.74372400869E+03  0.00000000000E+00 0.  1.
          1    1    6    6  503    0 -0.76856625596E+02 -0.13055086337E+02  0.55976086893E-02  0.77957528236E+02  0.00000000000E+00 0. -1.
         -1    1    6    6    0  503 -0.85589683509E+02  0.11417451319E+02 -0.98123734521E+02  0.13070661572E+03  0.00000000000E+00 0.  1.
<mgrwt>
<rscale>  0 0.11366633E+04</rscale>
<asrwt>0</asrwt>
<pdfrwt beam="1">  1        2 0.18963157E+00 0.11366633E+04</pdfrwt>
<pdfrwt beam="2">  1       -1 0.40314970E-01 0.11366633E+04</pdfrwt>
<totfact> 0.12270712E+02</totfact>
</mgrwt>
</event>
<event>
12    6  0.1627636E-007  0.1191238E+04  0.7818608E-02  0.9120561E-01
         -1   -1    0    0    0  501 -0.00000000000E+00  0.00000000000E+00  0.27692105581E+03  0.27692105581E+03  0.00000000000E+00 0.  1.
          2   -1    0    0  501    0  0.00000000000E+00 -0.00000000000E+00 -0.12810945986E+04  0.12810945986E+04  0.00000000000E+00 0. -1.
         24    2    1    2    0    0  0.13073807635E+03 -0.43962842340E+02  0.57775707720E+02  0.16617492554E+03  0.72463075847E+02 0.  0.
        254    2    1    2    0    0 -0.13073807635E+03  0.43962842340E+02 -0.10619492505E+04  0.13918407289E+04  0.88907774001E+03 0.  0.
         23    2    4    4    0    0 -0.31239150037E+02  0.31520237486E+03 -0.50081572171E+02  0.33549764006E+03  0.98600613574E+02 0.  0.
         23    2    4    4    0    0 -0.99498926317E+02 -0.27123953252E+03 -0.10118676783E+04  0.10563430888E+04  0.92269184935E+02 0.  0.
          4    1    3    3  502    0  0.21961986582E+01  0.62049887130E+01 -0.10367948100E+02  0.12280859957E+02  0.00000000000E+00 0. -1.
         -3    1    3    3    0  502  0.12854187770E+03 -0.50167831053E+02  0.68143655820E+02  0.15389406559E+03  0.00000000000E+00 0.  1.
         11    1    5    5    0    0 -0.36866578150E+01  0.21466282923E+03  0.10454868920E+02  0.21494889156E+03  0.00000000000E+00 0.  1.
        -11    1    5    5    0    0 -0.27552492222E+02  0.10053954563E+03 -0.60536441091E+02  0.12054874850E+03  0.00000000000E+00 0. -1.
          4    1    6    6  503    0  0.18087671883E+01 -0.12638132118E+03 -0.40688910021E+03  0.42606836288E+03  0.00000000000E+00 0. -1.
         -4    1    6    6    0  503 -0.10130769350E+03 -0.14485821134E+03 -0.60497857813E+03  0.63027472594E+03  0.00000000000E+00 0.  1.
<mgrwt>
<rscale>  0 0.11912381E+04</rscale>
<asrwt>0</asrwt>
<pdfrwt beam="1">  1        2 0.19709147E+00 0.11912381E+04</pdfrwt>
<pdfrwt beam="2">  1       -1 0.42603240E-01 0.11912381E+04</pdfrwt>
<totfact> 0.10342554E+02</totfact>
</mgrwt>
</event>
<event>
12    6  0.1627636E-007  0.1944019E+04  0.7818608E-02  0.8633250E-01
         -1   -1    0    0    0  501 -0.00000000000E+00  0.00000000000E+00  0.87458586506E+03  0.87458586506E+03  0.00000000000E+00 0.  1.
          2   -1    0    0  501    0  0.00000000000E+00 -0.00000000000E+00 -0.10802857981E+04  0.10802857981E+04  0.00000000000E+00 0. -1.
         24    2    1    2    0    0 -0.66959839695E+03 -0.34800214941E+03  0.61924826837E+01  0.75882001649E+03  0.79384893974E+02 0.  0.
        254    2    1    2    0    0  0.66959839695E+03  0.34800214941E+03 -0.21189241577E+03  0.11960516467E+04  0.90342328759E+03 0.  0.
         23    2    4    4    0    0 -0.19214210527E+03  0.20943440053E+03 -0.30033043638E+02  0.29988828130E+03  0.90827533313E+02 0.  0.
         23    2    4    4    0    0  0.86174050222E+03  0.13856774889E+03 -0.18185937213E+03  0.89616336542E+03  0.90764707321E+02 0.  0.
          2    1    3    3  502    0 -0.53531336284E+03 -0.26461549932E+03  0.34907066326E+02  0.59816407631E+03  0.00000000000E+00 0. -1.
         -1    1    3    3    0  502 -0.13428503412E+03 -0.83386650098E+02 -0.28714583643E+02  0.16065594018E+03  0.00000000000E+00 0.  1.
         11    1    5    5    0    0 -0.19862382424E+03  0.18998419475E+03 -0.16555818119E+02  0.27535343275E+03  0.00000000000E+00 0. -1.
        -11    1    5    5    0    0  0.64817189757E+01  0.19450205775E+02 -0.13477225519E+02  0.24534848548E+02  0.00000000000E+00 0.  1.
          3    1    6    6  503    0  0.79457700076E+03  0.10659218267E+03 -0.15183694480E+03  0.81594666575E+03  0.00000000000E+00 0. -1.
         -3    1    6    6    0  503  0.67163501459E+02  0.31975566223E+02 -0.30022427326E+02  0.80216699671E+02  0.00000000000E+00 0.  1.
<mgrwt>
<rscale>  0 0.19440192E+04</rscale>
<asrwt>0</asrwt>
<pdfrwt beam="1">  1        2 0.16619781E+00 0.19440192E+04</pdfrwt>
<pdfrwt beam="2">  1       -1 0.13455167E+00 0.19440192E+04</pdfrwt>
<totfact> 0.11082243E+01</totfact>
</mgrwt>
</event>
<event>
12    6  0.1627636E-007  0.1539979E+04  0.7818608E-02  0.8858294E-01
          2   -1    0    0  501    0  0.00000000000E+00  0.00000000000E+00  0.11745030580E+04  0.11745030580E+04  0.00000000000E+00 0. -1.
         -1   -1    0    0    0  501 -0.00000000000E+00 -0.00000000000E+00 -0.50479549117E+03  0.50479549117E+03  0.00000000000E+00 0.  1.
         24    2    1    2    0    0  0.97177981158E+02  0.48005649157E+03  0.16177134076E+03  0.52222571173E+03  0.81559378279E+02 0.  0.
        254    2    1    2    0    0 -0.97177981158E+02 -0.48005649157E+03  0.50793622608E+03  0.11570728374E+04  0.91701720063E+03 0.  0.
         23    2    4    4    0    0 -0.23407310942E+03 -0.84597166928E+02  0.65292364530E+03  0.70433678594E+03  0.88510565662E+02 0.  0.
         23    2    4    4    0    0  0.13689512826E+03 -0.39545932464E+03 -0.14498741922E+03  0.45273605149E+03  0.93916063596E+02 0.  0.
          2    1    3    3  502    0  0.57015315886E+02  0.11150055389E+03  0.51788441011E+02  0.13551812567E+03  0.00000000000E+00 0. -1.
         -1    1    3    3    0  502  0.40162665272E+02  0.36855593768E+03  0.10998289975E+03  0.38670758607E+03  0.00000000000E+00 0.  1.
         11    1    5    5    0    0 -0.19353214218E+03 -0.38824045283E+02  0.55319623569E+03  0.58735685212E+03  0.00000000000E+00 0. -1.
        -11    1    5    5    0    0 -0.40540967242E+02 -0.45773121645E+02  0.99727409610E+02  0.11697993382E+03  0.00000000000E+00 0.  1.
          1    1    6    6  503    0  0.69733845547E+02 -0.25747751143E+03 -0.13495734748E+03  0.29894976793E+03  0.00000000000E+00 0. -1.
         -1    1    6    6    0  503  0.67161282712E+02 -0.13798181321E+03 -0.10030071743E+02  0.15378628356E+03  0.00000000000E+00 0.  1.
<mgrwt>
<rscale>  0 0.15399790E+04</rscale>
<asrwt>0</asrwt>
<pdfrwt beam="1">  1        2 0.18069278E+00 0.15399790E+04</pdfrwt>
<pdfrwt beam="2">  1       -1 0.77660845E-01 0.15399790E+04</pdfrwt>
<totfact> 0.35812591E+01</totfact>
</mgrwt>
</event>
<event>
12    6  0.1627636E-007  0.1443415E+04  0.7818608E-02  0.8922978E-01
         -1   -1    0    0    0  501 -0.00000000000E+00  0.00000000000E+00  0.10653529835E+04  0.10653529835E+04  0.00000000000E+00 0.  1.
          2   -1    0    0  501    0  0.00000000000E+00 -0.00000000000E+00 -0.48891018762E+03  0.48891018762E+03  0.00000000000E+00 0. -1.
         24    2    1    2    0    0  0.32722017532E+03 -0.21266885545E+03 -0.28350000142E+02  0.39919585288E+03  0.79072885609E+02 0.  0.
        254    2    1    2    0    0 -0.32722017532E+03  0.21266885545E+03  0.60479279602E+03  0.11550673182E+04  0.90338535427E+03 0.  0.
         23    2    4    4    0    0 -0.19762307244E+03 -0.85185342086E+01 -0.20606905507E+03  0.29974454000E+03  0.90856423099E+02 0.  0.
         23    2    4    4    0    0 -0.12959710288E+03  0.22118738966E+03  0.81086185108E+03  0.85532277822E+03  0.91437645353E+02 0.  0.
          4    1    3    3  502    0  0.27794756396E+03 -0.15925585403E+03  0.22501414222E+01  0.32034721551E+03  0.00000000000E+00 0. -1.
         -3    1    3    3    0  502  0.49272611361E+02 -0.53413001423E+02 -0.30600141564E+02  0.78848637370E+02  0.00000000000E+00 0.  1.
         11    1    5    5    0    0 -0.46878359644E+02  0.14182129781E+02 -0.77200701620E+01  0.49581376457E+02  0.00000000000E+00 0. -1.
        -11    1    5    5    0    0 -0.15074471280E+03 -0.22700663990E+02 -0.19834898490E+03  0.25016316354E+03  0.00000000000E+00 0.  1.
          4    1    6    6  503    0 -0.12019492339E+03  0.22428047060E+03  0.80392991862E+03  0.84323891226E+03  0.00000000000E+00 0.  1.
         -4    1    6    6    0  503 -0.94021794906E+01 -0.30930809433E+01  0.69319324640E+01  0.12083865962E+02  0.00000000000E+00 0. -1.
<mgrwt>
<rscale>  0 0.14434153E+04</rscale>
<asrwt>0</asrwt>
<pdfrwt beam="1">  1        2 0.75216952E-01 0.14434153E+04</pdfrwt>
<pdfrwt beam="2">  1       -1 0.16390046E+00 0.14434153E+04</pdfrwt>
<totfact> 0.19150555E+01</totfact>
</mgrwt>
</event>
<event>
12    6  0.1627636E-007  0.2038974E+04  0.7818608E-02  0.8588613E-01
          2   -1    0    0  501    0  0.00000000000E+00  0.00000000000E+00  0.22848783069E+04  0.22848783069E+04  0.00000000000E+00 0. -1.
         -1   -1    0    0    0  501 -0.00000000000E+00 -0.00000000000E+00 -0.45488379489E+03  0.45488379489E+03  0.00000000000E+00 0.  1.
         24    2    1    2    0    0  0.80149555395E+03 -0.81264342442E+01  0.95801346824E+03  0.12517601995E+04  0.81563655385E+02 0.  0.
        254    2    1    2    0    0 -0.80149555395E+03  0.81264342442E+01  0.87198104372E+03  0.14880019022E+04  0.90074278150E+03 0.  0.
         23    2    4    4    0    0 -0.53554220967E+03 -0.28926339437E+03  0.11461275020E+03  0.62617810387E+03  0.92109530441E+02 0.  0.
         23    2    4    4    0    0 -0.26595334428E+03  0.29738982861E+03  0.75736829352E+03  0.86182379834E+03  0.99807994939E+02 0.  0.
          2    1    3    3  502    0  0.15453668987E+02  0.59390768964E+01  0.72807229920E+01  0.18085835530E+02  0.00000000000E+00 0. -1.
         -1    1    3    3    0  502  0.78604188496E+03 -0.14065511141E+02  0.95073274525E+03  0.12336743640E+04  0.00000000000E+00 0.  1.
         11    1    5    5    0    0 -0.46378475260E+03 -0.26685418813E+03  0.72374702621E+02  0.53994958288E+03  0.00000000000E+00 0. -1.
        -11    1    5    5    0    0 -0.71757457064E+02 -0.22409206235E+02  0.42238047584E+02  0.86228520990E+02  0.00000000000E+00 0.  1.
          3    1    6    6  503    0 -0.15968569974E+03  0.22667384495E+03  0.58453627367E+03  0.64696461257E+03  0.00000000000E+00 0. -1.
         -3    1    6    6    0  503 -0.10626764454E+03  0.70715983661E+02  0.17283201985E+03  0.21485918576E+03  0.00000000000E+00 0.  1.
<mgrwt>
<rscale>  0 0.20389744E+04</rscale>
<asrwt>0</asrwt>
<pdfrwt beam="1">  1        2 0.35151973E+00 0.20389744E+04</pdfrwt>
<pdfrwt beam="2">  1       -1 0.69982123E-01 0.20389744E+04</pdfrwt>
<totfact> 0.10064320E+01</totfact>
</mgrwt>
</event>
<event>
12    6  0.1627636E-007  0.1845254E+04  0.7818608E-02  0.8682597E-01
          2   -1    0    0  501    0  0.00000000000E+00  0.00000000000E+00  0.63268799208E+03  0.63268799208E+03  0.00000000000E+00 0. -1.
         -1   -1    0    0    0  501 -0.00000000000E+00 -0.00000000000E+00 -0.13454355412E+04  0.13454355412E+04  0.00000000000E+00 0.  1.
         24    2    1    2    0    0 -0.92526816724E+02 -0.68153512065E+03 -0.26691408439E+03  0.74355526347E+03  0.92628121483E+02 0.  0.
        254    2    1    2    0    0  0.92526816724E+02  0.68153512065E+03 -0.44583346471E+03  0.12345682698E+04  0.92322261780E+03 0.  0.
         23    2    4    4    0    0 -0.30785810066E+03  0.93563428127E+02 -0.39236452774E+03  0.51534340586E+03  0.89989877796E+02 0.  0.
         23    2    4    4    0    0  0.40038491739E+03  0.58797169252E+03 -0.53468936964E+02  0.71922486393E+03  0.91687973028E+02 0.  0.
          4    1    3    3  502    0 -0.60378782328E+01 -0.17834338280E+03 -0.31008291154E+02  0.18111966288E+03  0.00000000000E+00 0. -1.
         -3    1    3    3    0  502 -0.86488938492E+02 -0.50319173785E+03 -0.23590579324E+03  0.56243560059E+03  0.00000000000E+00 0.  1.
         11    1    5    5    0    0 -0.12086840754E+03 -0.44540502107E+01 -0.17091028801E+03  0.20937845413E+03  0.00000000000E+00 0. -1.
        -11    1    5    5    0    0 -0.18698969312E+03  0.98017478338E+02 -0.22145423973E+03  0.30596495173E+03  0.00000000000E+00 0.  1.
          3    1    6    6  503    0  0.27000065707E+02  0.23358527249E+02 -0.21257004483E+02  0.41550987750E+02  0.00000000000E+00 0. -1.
         -3    1    6    6    0  503  0.37338485168E+03  0.56461316527E+03 -0.32211932481E+02  0.67767387618E+03  0.00000000000E+00 0.  1.
<mgrwt>
<rscale>  0 0.18452544E+04</rscale>
<asrwt>0</asrwt>
<pdfrwt beam="1">  1        2 0.97336615E-01 0.18452544E+04</pdfrwt>
<pdfrwt beam="2">  1       -1 0.20699008E+00 0.18452544E+04</pdfrwt>
<totfact> 0.67290320E+00</totfact>
</mgrwt>
</event>
<event>
12    6  0.1627636E-007  0.1683090E+04  0.7818608E-02  0.8771068E-01
          2   -1    0    0  501    0  0.00000000000E+00  0.00000000000E+00  0.32731664845E+04  0.32731664845E+04  0.00000000000E+00 0. -1.
         -1   -1    0    0    0  501 -0.00000000000E+00 -0.00000000000E+00 -0.21636479658E+03  0.21636479658E+03  0.00000000000E+00 0.  1.
         24    2    1    2    0    0  0.53061559943E+03  0.77960051074E+02  0.56671930270E+03  0.78422464911E+03  0.78783553429E+02 0.  0.
        254    2    1    2    0    0 -0.53061559943E+03 -0.77960051074E+02  0.24900823852E+04  0.27053066319E+04  0.91134132131E+03 0.  0.
         23    2    4    4    0    0 -0.19849841087E+03  0.40319062231E+03  0.93227925818E+03  0.10389796701E+04  0.91486843829E+02 0.  0.
         23    2    4    4    0    0 -0.33211718856E+03 -0.48115067338E+03  0.15578031270E+04  0.16663269618E+04  0.89928659916E+02 0.  0.
          2    1    3    3  502    0  0.36109988737E+03  0.33753071397E+02  0.42636377567E+03  0.55974857542E+03  0.00000000000E+00 0. -1.
         -1    1    3    3    0  502  0.16951571206E+03  0.44206979677E+02  0.14035552703E+03  0.22447607368E+03  0.00000000000E+00 0.  1.
         11    1    5    5    0    0 -0.18999189870E+03  0.30740571309E+03  0.70599403104E+03  0.79310955478E+03  0.00000000000E+00 0. -1.
        -11    1    5    5    0    0 -0.85065121685E+01  0.95784909219E+02  0.22628522713E+03  0.24587011531E+03  0.00000000000E+00 0.  1.
          3    1    6    6  503    0 -0.20567185334E+03 -0.36831001875E+03  0.11307109216E+04  0.12068389989E+04  0.00000000000E+00 0. -1.
         -3    1    6    6    0  503 -0.12644533522E+03 -0.11284065463E+03  0.42709220542E+03  0.45948796292E+03  0.00000000000E+00 0.  1.
<mgrwt>
<rscale>  0 0.16830900E+04</rscale>
<asrwt>0</asrwt>
<pdfrwt beam="1">  1        2 0.50356404E+00 0.16830900E+04</pdfrwt>
<pdfrwt beam="2">  1       -1 0.33286894E-01 0.16830900E+04</pdfrwt>
<totfact> 0.10769889E+01</totfact>
</mgrwt>
</event>
<event>
12    6  0.1627636E-007  0.3214985E+04  0.7818608E-02  0.8184871E-01
         -1   -1    0    0    0  501 -0.00000000000E+00  0.00000000000E+00  0.55633022373E+03  0.55633022373E+03  0.00000000000E+00 0.  1.
          2   -1    0    0  501    0  0.00000000000E+00 -0.00000000000E+00 -0.46447818077E+04  0.46447818077E+04  0.00000000000E+00 0. -1.
         24    2    1    2    0    0 -0.12506231355E+04  0.46298695493E+02 -0.31673582826E+04  0.34065517017E+04  0.78957011188E+02 0.  0.
        254    2    1    2    0    0  0.12506231355E+04 -0.46298695493E+02 -0.92109330129E+03  0.17945603297E+04  0.89768151985E+03 0.  0.
         23    2    4    4    0    0  0.12226421095E+04 -0.17957618962E+03 -0.10179444954E+04  0.16035598147E+04  0.89954142366E+02 0.  0.
         23    2    4    4    0    0  0.27981025935E+02  0.13327749413E+03  0.96851194135E+02  0.19100051498E+03  0.92494403422E+02 0.  0.
          2    1    3    3  502    0 -0.96441789632E+03  0.62098729028E+02 -0.24961420605E+04  0.26766926079E+04  0.00000000000E+00 0. -1.
         -1    1    3    3    0  502 -0.28620523913E+03 -0.15800033534E+02 -0.67121622214E+03  0.72985909382E+03  0.00000000000E+00 0.  1.
         11    1    5    5    0    0  0.11679187352E+03 -0.40435562277E+02 -0.12017313249E+03  0.17238607307E+03  0.00000000000E+00 0. -1.
        -11    1    5    5    0    0  0.11058502360E+04 -0.13914062735E+03 -0.89777136294E+03  0.14311737416E+04  0.00000000000E+00 0.  1.
          4    1    6    6  503    0  0.37072694148E+02  0.36417017927E+02 -0.23974914759E+01  0.52022416432E+02  0.00000000000E+00 0. -1.
         -4    1    6    6    0  503 -0.90916682127E+01  0.96860476205E+02  0.99248685611E+02  0.13897809855E+03  0.00000000000E+00 0.  1.
<mgrwt>
<rscale>  0 0.32149852E+04</rscale>
<asrwt>0</asrwt>
<pdfrwt beam="1">  1        2 0.71458183E+00 0.32149852E+04</pdfrwt>
<pdfrwt beam="2">  1       -1 0.85589264E-01 0.32149852E+04</pdfrwt>
<totfact> 0.11276130E-01</totfact>
</mgrwt>
</event>
<event>
12    6  0.1627636E-007  0.2279925E+04  0.7818608E-02  0.8485879E-01
          2   -1    0    0  501    0  0.00000000000E+00  0.00000000000E+00  0.32076298945E+04  0.32076298945E+04  0.00000000000E+00 0. -1.
         -1   -1    0    0    0  501 -0.00000000000E+00 -0.00000000000E+00 -0.40513237637E+03  0.40513237637E+03  0.00000000000E+00 0.  1.
         24    2    1    2    0    0  0.62971346406E+03 -0.36999800036E+03  0.19901089114E+03  0.76135225428E+03  0.81328673988E+02 0.  0.
        254    2    1    2    0    0 -0.62971346406E+03  0.36999800036E+03  0.26034866270E+04  0.28514100166E+04  0.90496347922E+03 0.  0.
         23    2    4    4    0    0 -0.24315261018E+03  0.12464899030E+03  0.22434638294E+04  0.22619100527E+04  0.91905221940E+02 0.  0.
         23    2    4    4    0    0 -0.38656085388E+03  0.24534901006E+03  0.36002279755E+03  0.58949996391E+03  0.90930535026E+02 0.  0.
          2    1    3    3  502    0  0.26690085869E+03 -0.18206042608E+03  0.52727535580E+02  0.32735647256E+03  0.00000000000E+00 0. -1.
         -1    1    3    3    0  502  0.36281260537E+03 -0.18793757428E+03  0.14628335556E+03  0.43399578172E+03  0.00000000000E+00 0.  1.
         11    1    5    5    0    0 -0.34556190669E+02  0.34598207539E+02  0.71283168331E+03  0.71450694539E+03  0.00000000000E+00 0.  1.
        -11    1    5    5    0    0 -0.20859641951E+03  0.90050782761E+02  0.15306321461E+04  0.15474031073E+04  0.00000000000E+00 0. -1.
          2    1    6    6  503    0 -0.16655947473E+03  0.82398105336E+02  0.96013571999E+02  0.20916527530E+03  0.00000000000E+00 0. -1.
         -2    1    6    6    0  503 -0.22000137915E+03  0.16295090473E+03  0.26400922555E+03  0.38033468861E+03  0.00000000000E+00 0.  1.
<mgrwt>
<rscale>  0 0.22799252E+04</rscale>
<asrwt>0</asrwt>
<pdfrwt beam="1">  1        2 0.49348151E+00 0.22799252E+04</pdfrwt>
<pdfrwt beam="2">  1       -1 0.62328060E-01 0.22799252E+04</pdfrwt>
<totfact> 0.34634230E+00</totfact>
</mgrwt>
</event>
<event>
12    6  0.1627636E-007  0.1035918E+04  0.7818608E-02  0.9270005E-01
          2   -1    0    0  501    0  0.00000000000E+00  0.00000000000E+00  0.15996057966E+04  0.15996057966E+04  0.00000000000E+00 0. -1.
         -1   -1    0    0    0  501 -0.00000000000E+00 -0.00000000000E+00 -0.16771715792E+03  0.16771715792E+03  0.00000000000E+00 0.  1.
         24    2    1    2    0    0  0.80467412744E+02  0.61977042799E+02  0.23153770614E+03  0.26591249302E+03  0.82362529280E+02 0.  0.
        254    2    1    2    0    0 -0.80467412744E+02 -0.61977042799E+02  0.12003509326E+04  0.15014104615E+04  0.89614443831E+03 0.  0.
         23    2    4    4    0    0  0.16513370305E+03  0.16210353537E+02 -0.69369846266E+02  0.20264240114E+03  0.93380146304E+02 0.  0.
         23    2    4    4    0    0 -0.24560111580E+03 -0.78187396336E+02  0.12697207788E+04  0.12987680604E+04  0.90412617690E+02 0.  0.
          2    1    3    3  502    0  0.46136473336E+02  0.79232594643E+02  0.17483557132E+03  0.19741797088E+03  0.00000000000E+00 0. -1.
         -1    1    3    3    0  502  0.34330939409E+02 -0.17255551844E+02  0.56702134822E+02  0.68494522142E+02  0.00000000000E+00 0.  1.
         11    1    5    5    0    0  0.88387711918E+02  0.24867917732E+02 -0.83521864308E+02  0.12412373974E+03  0.00000000000E+00 0. -1.
        -11    1    5    5    0    0  0.76745991136E+02 -0.86575641950E+01  0.14152018042E+02  0.78518661399E+02  0.00000000000E+00 0.  1.
          2    1    6    6  503    0 -0.19308113431E+03 -0.28018239432E+02  0.10288272001E+04  0.10471631935E+04  0.00000000000E+00 0. -1.
         -2    1    6    6    0  503 -0.52519981489E+02 -0.50169156905E+02  0.24089357870E+03  0.25160486685E+03  0.00000000000E+00 0.  1.
<mgrwt>
<rscale>  0 0.10359176E+04</rscale>
<asrwt>0</asrwt>
<pdfrwt beam="1">  1        2 0.24609319E+00 0.10359176E+04</pdfrwt>
<pdfrwt beam="2">  1       -1 0.25802641E-01 0.10359176E+04</pdfrwt>
<totfact> 0.16797481E+02</totfact>
</mgrwt>
</event>
<event>
12    6  0.1627636E-007  0.1294005E+04  0.7818608E-02  0.9034333E-01
         -1   -1    0    0    0  501 -0.00000000000E+00  0.00000000000E+00  0.28548085591E+03  0.28548085591E+03  0.00000000000E+00 0.  1.
          2   -1    0    0  501    0  0.00000000000E+00 -0.00000000000E+00 -0.14663412233E+04  0.14663412233E+04  0.00000000000E+00 0. -1.
         24    2    1    2    0    0 -0.30500499785E+03 -0.10294982998E+03 -0.38885902645E+03  0.51107642731E+03  0.79756227930E+02 0.  0.
        254    2    1    2    0    0  0.30500499785E+03  0.10294982998E+03 -0.79200134097E+03  0.12407456519E+04  0.89919793843E+03 0.  0.
         23    2    4    4    0    0 -0.18642569770E+03  0.11370874857E+03  0.68755012008E+02  0.24526510818E+03  0.87997166711E+02 0.  0.
         23    2    4    4    0    0  0.49143069555E+03 -0.10758918596E+02 -0.86075635298E+03  0.99548054375E+03  0.91978970044E+02 0.  0.
          2    1    3    3  502    0 -0.59908103680E+02  0.36066392490E+00 -0.38578268821E+02  0.71255833377E+02  0.00000000000E+00 0. -1.
         -1    1    3    3    0  502 -0.24509689417E+03 -0.10331049390E+03 -0.35028075762E+03  0.43982059393E+03  0.00000000000E+00 0.  1.
         11    1    5    5    0    0 -0.15245283561E+03  0.65440191354E+02  0.81557308231E+02  0.18486719627E+03  0.00000000000E+00 0. -1.
        -11    1    5    5    0    0 -0.33972862087E+02  0.48268557220E+02 -0.12802296224E+02  0.60397911909E+02  0.00000000000E+00 0.  1.
          1    1    6    6  503    0  0.41941173788E+03  0.64409978018E+01 -0.78191305372E+03  0.88731939904E+03  0.00000000000E+00 0. -1.
         -1    1    6    6    0  503  0.72018957669E+02 -0.17199916398E+02 -0.78843299258E+02  0.10816114471E+03  0.00000000000E+00 0.  1.
<mgrwt>
<rscale>  0 0.12940052E+04</rscale>
<asrwt>0</asrwt>
<pdfrwt beam="1">  1        2 0.22559096E+00 0.12940052E+04</pdfrwt>
<pdfrwt beam="2">  1       -1 0.43920132E-01 0.12940052E+04</pdfrwt>
<totfact> 0.75924365E+01</totfact>
</mgrwt>
</event>
<event>
12    6  0.1627636E-007  0.1436532E+04  0.7818608E-02  0.8927791E-01
          4   -1    0    0  501    0  0.00000000000E+00  0.00000000000E+00  0.86537122591E+03  0.86537122591E+03  0.00000000000E+00 0. -1.
         -3   -1    0    0    0  501 -0.00000000000E+00 -0.00000000000E+00 -0.59616706256E+03  0.59616706256E+03  0.00000000000E+00 0.  1.
         24    2    1    2    0    0  0.26994721834E+03 -0.29891674047E+03  0.23937967014E+03  0.47516540897E+03  0.79100069446E+02 0.  0.
        254    2    1    2    0    0 -0.26994721834E+03  0.29891674047E+03  0.29824493208E+02  0.98637287949E+03  0.89989957139E+03 0.  0.
         23    2    4    4    0    0  0.28046567706E+03  0.41716601710E+02 -0.16657572173E+03  0.34142938061E+03  0.91789324046E+02 0.  0.
         23    2    4    4    0    0 -0.55041289540E+03  0.25720013876E+03  0.19640021494E+03  0.64494349888E+03  0.90954964239E+02 0.  0.
          4    1    3    3  502    0  0.62073227961E+02 -0.78678449800E+02  0.10072065610E+03  0.14208460387E+03  0.00000000000E+00 0. -1.
         -3    1    3    3    0  502  0.20787399038E+03 -0.22023829067E+03  0.13865901405E+03  0.33308080510E+03  0.00000000000E+00 0.  1.
         11    1    5    5    0    0  0.14221016563E+03  0.10456642830E+02 -0.13467445315E+03  0.19613842285E+03  0.00000000000E+00 0. -1.
        -11    1    5    5    0    0  0.13825551143E+03  0.31259958879E+02 -0.31901268580E+02  0.14529095776E+03  0.00000000000E+00 0.  1.
          1    1    6    6  503    0 -0.28031588604E+03  0.17661647328E+03  0.86570975538E+02  0.34243964199E+03  0.00000000000E+00 0. -1.
         -1    1    6    6    0  503 -0.27009700936E+03  0.80583665484E+02  0.10982923940E+03  0.30250385689E+03  0.00000000000E+00 0.  1.
<mgrwt>
<rscale>  0 0.14365317E+04</rscale>
<asrwt>0</asrwt>
<pdfrwt beam="1">  1        4 0.13313403E+00 0.14365317E+04</pdfrwt>
<pdfrwt beam="2">  1       -3 0.91718010E-01 0.14365317E+04</pdfrwt>
<totfact> 0.96442901E-01</totfact>
</mgrwt>
</event>
<event>
12    6  0.1627636E-007  0.1736041E+04  0.7818608E-02  0.8741072E-01
          2   -1    0    0  501    0  0.00000000000E+00  0.00000000000E+00  0.33920494797E+04  0.33920494797E+04  0.00000000000E+00 0. -1.
         -1   -1    0    0    0  501 -0.00000000000E+00 -0.00000000000E+00 -0.22212522523E+03  0.22212522523E+03  0.00000000000E+00 0.  1.
         24    2    1    2    0    0 -0.48700099216E+03 -0.22774884860E+02  0.32703469025E+03  0.59244320590E+03  0.79678113959E+02 0.  0.
        254    2    1    2    0    0  0.48700099216E+03  0.22774884860E+02  0.28428895642E+04  0.30217314991E+04  0.90063950398E+03 0.  0.
         23    2    4    4    0    0  0.44806930050E+03  0.16645552153E+03  0.27995098190E+04  0.28414848295E+04  0.91144229204E+02 0.  0.
         23    2    4    4    0    0  0.38931691668E+02 -0.14368063667E+03  0.43379745208E+02  0.18024666959E+03  0.91908963829E+02 0.  0.
          4    1    3    3  502    0 -0.88602436087E+02 -0.34405955950E+02  0.72351250051E+02  0.11945235397E+03  0.00000000000E+00 0. -1.
         -3    1    3    3    0  502 -0.39839855608E+03  0.11631071090E+02  0.25468344020E+03  0.47299085193E+03  0.00000000000E+00 0.  1.
         11    1    5    5    0    0  0.21493616996E+03  0.11113827159E+03  0.16101462903E+04  0.16282261356E+04  0.00000000000E+00 0.  1.
        -11    1    5    5    0    0  0.23313313053E+03  0.55317249943E+02  0.11893635288E+04  0.12132586939E+04  0.00000000000E+00 0. -1.
          1    1    6    6  503    0 -0.29940312540E+02 -0.45229175981E+02  0.68851411011E+01  0.54676373717E+02  0.00000000000E+00 0. -1.
         -1    1    6    6    0  503  0.68872004207E+02 -0.98451460691E+02  0.36494604106E+02  0.12557029587E+03  0.00000000000E+00 0.  1.
<mgrwt>
<rscale>  0 0.17360412E+04</rscale>
<asrwt>0</asrwt>
<pdfrwt beam="1">  1        2 0.52185373E+00 0.17360412E+04</pdfrwt>
<pdfrwt beam="2">  1       -1 0.34173114E-01 0.17360412E+04</pdfrwt>
<totfact> 0.85158254E+00</totfact>
</mgrwt>
</event>
<event>
12    6  0.1627636E-007  0.2026250E+04  0.7818608E-02  0.8594445E-01
         -1   -1    0    0    0  501 -0.00000000000E+00  0.00000000000E+00  0.92681231330E+03  0.92681231330E+03  0.00000000000E+00 0.  1.
          2   -1    0    0  501    0  0.00000000000E+00 -0.00000000000E+00 -0.11074760074E+04  0.11074760074E+04  0.00000000000E+00 0. -1.
         24    2    1    2    0    0  0.17194258162E+03  0.33894762404E+03  0.63296780916E+03  0.74244050722E+03  0.78229892688E+02 0.  0.
        254    2    1    2    0    0 -0.17194258162E+03 -0.33894762404E+03 -0.81363150329E+03  0.12918478135E+04  0.92866829756E+03 0.  0.
         23    2    4    4    0    0  0.14482054678E+03 -0.44908737821E+03 -0.81231426218E+03  0.94361708949E+03  0.88917304244E+02 0.  0.
         23    2    4    4    0    0 -0.31676312841E+03  0.11013975417E+03 -0.13172411059E+01  0.34823072402E+03  0.93772368302E+02 0.  0.
          4    1    3    3  502    0  0.40705064240E+02  0.28682753672E+02  0.62276568675E+02  0.79736902491E+02  0.00000000000E+00 0. -1.
         -3    1    3    3    0  502  0.13123751738E+03  0.31026487037E+03  0.57069124048E+03  0.66270360473E+03  0.00000000000E+00 0.  1.
         11    1    5    5    0    0  0.33459911793E+02 -0.24831940033E+03 -0.41988413910E+03  0.48896296439E+03  0.00000000000E+00 0. -1.
        -11    1    5    5    0    0  0.11136063499E+03 -0.20076797788E+03 -0.39243012308E+03  0.45465412510E+03  0.00000000000E+00 0.  1.
          4    1    6    6  503    0 -0.24046346682E+03  0.12336379949E+03  0.69697524667E+01  0.27035140715E+03  0.00000000000E+00 0. -1.
         -4    1    6    6    0  503 -0.76299661584E+02 -0.13224045316E+02 -0.82869935726E+01  0.77879316862E+02  0.00000000000E+00 0.  1.
<mgrwt>
<rscale>  0 0.20262501E+04</rscale>
<asrwt>0</asrwt>
<pdfrwt beam="1">  1        2 0.17038092E+00 0.20262501E+04</pdfrwt>
<pdfrwt beam="2">  1       -1 0.14258651E+00 0.20262501E+04</pdfrwt>
<totfact> 0.91042797E+00</totfact>
</mgrwt>
</event>
<event>
12    6  0.1627636E-007  0.1802821E+04  0.7818608E-02  0.8704801E-01
         -1   -1    0    0    0  501 -0.00000000000E+00  0.00000000000E+00  0.29405312309E+03  0.29405312309E+03  0.00000000000E+00 0.  1.
          2   -1    0    0  501    0  0.00000000000E+00 -0.00000000000E+00 -0.27632462636E+04  0.27632462636E+04  0.00000000000E+00 0. -1.
         24    2    1    2    0    0 -0.14410326817E+03  0.18531753362E+03 -0.19830425533E+04  0.19984417317E+04  0.78760692000E+02 0.  0.
        254    2    1    2    0    0  0.14410326817E+03 -0.18531753362E+03 -0.48615058720E+03  0.10588576550E+04  0.91089450538E+03 0.  0.
         23    2    4    4    0    0  0.18993343053E+03  0.64983464251E+02  0.21222075146E+03  0.30983388392E+03  0.10325613596E+03 0.  0.
         23    2    4    4    0    0 -0.45830162363E+02 -0.25030099787E+03 -0.69837133866E+03  0.74902377107E+03  0.92536963698E+02 0.  0.
          4    1    3    3  502    0 -0.78408672834E+02  0.59333745400E+02 -0.10568536679E+04  0.10614179613E+04  0.00000000000E+00 0. -1.
         -3    1    3    3    0  502 -0.65694595335E+02  0.12598378822E+03 -0.92618888538E+03  0.93702377032E+03  0.00000000000E+00 0.  1.
         11    1    5    5    0    0  0.12393023507E+03  0.25514701143E+02  0.61625383093E+02  0.14073873305E+03  0.00000000000E+00 0.  1.
        -11    1    5    5    0    0  0.66003195459E+02  0.39468763108E+02  0.15059536837E+03  0.16909515087E+03  0.00000000000E+00 0. -1.
          2    1    6    6  503    0  0.96031302028E+01 -0.18436483759E+03 -0.47331994449E+03  0.50804958745E+03  0.00000000000E+00 0. -1.
         -2    1    6    6    0  503 -0.55433292565E+02 -0.65936160279E+02 -0.22505139417E+03  0.24097418363E+03  0.00000000000E+00 0.  1.
<mgrwt>
<rscale>  0 0.18028213E+04</rscale>
<asrwt>0</asrwt>
<pdfrwt beam="1">  1        2 0.42511480E+00 0.18028213E+04</pdfrwt>
<pdfrwt beam="2">  1       -1 0.45238943E-01 0.18028213E+04</pdfrwt>
<totfact> 0.12711715E+01</totfact>
</mgrwt>
</event>
<event>
12    6  0.1627636E-007  0.1801227E+04  0.7818608E-02  0.8705647E-01
          2   -1    0    0  501    0  0.00000000000E+00  0.00000000000E+00  0.34442968694E+04  0.34442968694E+04  0.00000000000E+00 0. -1.
         -1   -1    0    0    0  501 -0.00000000000E+00 -0.00000000000E+00 -0.23549216062E+03  0.23549216062E+03  0.00000000000E+00 0.  1.
         24    2    1    2    0    0  0.31855363504E+03  0.57771253451E+03  0.14812649294E+04  0.16235721148E+04  0.81316848775E+02 0.  0.
        254    2    1    2    0    0 -0.31855363504E+03 -0.57771253451E+03  0.17275397793E+04  0.20562169152E+04  0.89911407633E+03 0.  0.
         23    2    4    4    0    0  0.30043595855E+03 -0.12687010751E+03  0.62142268646E+03  0.70763156913E+03  0.90655904454E+02 0.  0.
         23    2    4    4    0    0 -0.61898959359E+03 -0.45084242700E+03  0.11061170929E+04  0.13485853461E+04  0.93703796815E+02 0.  0.
          2    1    3    3  502    0  0.69252530090E+02  0.80172934985E+02  0.19108591063E+03  0.21848898752E+03  0.00000000000E+00 0. -1.
         -1    1    3    3    0  502  0.24930110495E+03  0.49753959952E+03  0.12901790188E+04  0.14050831273E+04  0.00000000000E+00 0.  1.
         11    1    5    5    0    0  0.25914537068E+02 -0.44693882631E+02  0.10545506831E+03  0.11743031044E+03  0.00000000000E+00 0. -1.
        -11    1    5    5    0    0  0.27452142148E+03 -0.82176224876E+02  0.51596761814E+03  0.59020125869E+03  0.00000000000E+00 0.  1.
          3    1    6    6  503    0 -0.14881340807E+03 -0.11643573672E+03  0.20704097703E+03  0.28030104776E+03  0.00000000000E+00 0. -1.
         -3    1    6    6    0  503 -0.47017618552E+03 -0.33440669028E+03  0.89907611586E+03  0.10682842983E+04  0.00000000000E+00 0.  1.
<mgrwt>
<rscale>  0 0.18012273E+04</rscale>
<asrwt>0</asrwt>
<pdfrwt beam="1">  1        2 0.52989179E+00 0.18012273E+04</pdfrwt>
<pdfrwt beam="2">  1       -1 0.36229566E-01 0.18012273E+04</pdfrwt>
<totfact> 0.70192516E+00</totfact>
</mgrwt>
</event>
<event>
12    6  0.1627636E-007  0.2495817E+04  0.7818608E-02  0.8404477E-01
          2   -1    0    0  501    0  0.00000000000E+00  0.00000000000E+00  0.13223190409E+04  0.13223190409E+04  0.00000000000E+00 0. -1.
         -1   -1    0    0    0  501 -0.00000000000E+00 -0.00000000000E+00 -0.11776851806E+04  0.11776851806E+04  0.00000000000E+00 0.  1.
         24    2    1    2    0    0  0.34666741626E+02  0.50706393922E+03 -0.89022983310E+03  0.10282376192E+04  0.80298345764E+02 0.  0.
        254    2    1    2    0    0 -0.34666741626E+02 -0.50706393922E+03  0.10348636934E+04  0.14717666023E+04  0.91478874411E+03 0.  0.
         23    2    4    4    0    0  0.98477287310E+02 -0.64729698845E+03  0.33800773655E+03  0.74265990633E+03  0.92754186625E+02 0.  0.
         23    2    4    4    0    0 -0.13314402894E+03  0.14023304923E+03  0.69685595682E+03  0.72910669596E+03  0.92713046564E+02 0.  0.
          4    1    3    3  502    0 -0.10234275680E+02  0.54489519124E+02 -0.14443578276E+03  0.15471116131E+03  0.00000000000E+00 0. -1.
         -3    1    3    3    0  502  0.44901017306E+02  0.45257442009E+03 -0.74579405034E+03  0.87352645787E+03  0.00000000000E+00 0.  1.
         11    1    5    5    0    0  0.62115514002E+02 -0.41873126029E+03  0.26736908091E+03  0.50067996850E+03  0.00000000000E+00 0. -1.
        -11    1    5    5    0    0  0.36361773308E+02 -0.22856572815E+03  0.70638655641E+02  0.24197993784E+03  0.00000000000E+00 0.  1.
          3    1    6    6  503    0 -0.13484503924E+03  0.10844262064E+03  0.48655060714E+03  0.51640534456E+03  0.00000000000E+00 0. -1.
         -3    1    6    6    0  503  0.17010102996E+01  0.31790428595E+02  0.21030534968E+03  0.21270135140E+03  0.00000000000E+00 0.  1.
<mgrwt>
<rscale>  0 0.24958169E+04</rscale>
<asrwt>0</asrwt>
<pdfrwt beam="1">  1        2 0.20343370E+00 0.24958169E+04</pdfrwt>
<pdfrwt beam="2">  1       -1 0.18118233E+00 0.24958169E+04</pdfrwt>
<totfact> 0.33286449E+00</totfact>
</mgrwt>
</event>
<event>
12    6  0.1627636E-007  0.1914019E+04  0.7818608E-02  0.8647909E-01
         -1   -1    0    0    0  501 -0.00000000000E+00  0.00000000000E+00  0.13396510249E+04  0.13396510249E+04  0.00000000000E+00 0.  1.
          2   -1    0    0  501    0  0.00000000000E+00 -0.00000000000E+00 -0.68366125272E+03  0.68366125272E+03  0.00000000000E+00 0. -1.
         24    2    1    2    0    0  0.42535673152E+03  0.23028234503E+03  0.83448485705E+03  0.96902046147E+03  0.93152405354E+02 0.  0.
        254    2    1    2    0    0 -0.42535673152E+03 -0.23028234503E+03 -0.17849508484E+03  0.10542918162E+04  0.91962624520E+03 0.  0.
         23    2    4    4    0    0 -0.17324815997E+03 -0.42604894959E+03 -0.43062960462E+03  0.63769052079E+03  0.98360111607E+02 0.  0.
         23    2    4    4    0    0 -0.25210857155E+03  0.19576660456E+03  0.25213451978E+03  0.41660129538E+03  0.90008488128E+02 0.  0.
          4    1    3    3  502    0  0.17099902138E+03  0.90096889070E+02  0.24671041882E+03  0.31340731563E+03  0.00000000000E+00 0. -1.
         -3    1    3    3    0  502  0.25435771014E+03  0.14018545596E+03  0.58777443823E+03  0.65561314584E+03  0.00000000000E+00 0.  1.
         11    1    5    5    0    0 -0.98567336790E+02 -0.14122294035E+03 -0.19809411907E+03  0.26248946412E+03  0.00000000000E+00 0.  1.
        -11    1    5    5    0    0 -0.74680823180E+02 -0.28482600924E+03 -0.23253548555E+03  0.37520105667E+03  0.00000000000E+00 0. -1.
          2    1    6    6  503    0 -0.40275196078E+02  0.22892803111E+02  0.25497480727E+01  0.46396907964E+02  0.00000000000E+00 0. -1.
         -2    1    6    6    0  503 -0.21183337547E+03  0.17287380145E+03  0.24958477171E+03  0.37020438742E+03  0.00000000000E+00 0.  1.
<mgrwt>
<rscale>  0 0.19140193E+04</rscale>
<asrwt>0</asrwt>
<pdfrwt beam="1">  1        2 0.10517865E+00 0.19140193E+04</pdfrwt>
<pdfrwt beam="2">  1       -1 0.20610016E+00 0.19140193E+04</pdfrwt>
<totfact> 0.61613727E+00</totfact>
</mgrwt>
</event>
<event>
12    6  0.1627636E-007  0.1814531E+04  0.7818608E-02  0.8698610E-01
         -1   -1    0    0    0  501 -0.00000000000E+00  0.00000000000E+00  0.50940855621E+03  0.50940855621E+03  0.00000000000E+00 0.  1.
          2   -1    0    0  501    0  0.00000000000E+00 -0.00000000000E+00 -0.16158547858E+04  0.16158547858E+04  0.00000000000E+00 0. -1.
         24    2    1    2    0    0 -0.30709267189E+03 -0.60900575730E+03 -0.51135238665E+03  0.85623761866E+03  0.80421854695E+02 0.  0.
        254    2    1    2    0    0  0.30709267189E+03  0.60900575730E+03 -0.59509384294E+03  0.12690257233E+04  0.88943559804E+03 0.  0.
         23    2    4    4    0    0 -0.13788100589E+03  0.60778434707E+03 -0.50209694157E+03  0.80539089773E+03  0.90222918827E+02 0.  0.
         23    2    4    4    0    0  0.44497367779E+03  0.12214102340E+01 -0.92996901371E+02  0.46363482562E+03  0.91135953947E+02 0.  0.
          2    1    3    3  502    0 -0.65885034086E+02 -0.12510730320E+03 -0.14871317322E+03  0.20520302854E+03  0.00000000000E+00 0. -1.
         -1    1    3    3    0  502 -0.24120763780E+03 -0.48389845410E+03 -0.36263921343E+03  0.65103459012E+03  0.00000000000E+00 0.  1.
         11    1    5    5    0    0 -0.32560723989E+02  0.23986583854E+03 -0.24460843986E+03  0.34413530784E+03  0.00000000000E+00 0.  1.
        -11    1    5    5    0    0 -0.10532028191E+03  0.36791850852E+03 -0.25748850170E+03  0.46125558989E+03  0.00000000000E+00 0. -1.
          4    1    6    6  503    0  0.28045750304E+03 -0.12412782685E+02 -0.15204758188E+02  0.28114350937E+03  0.00000000000E+00 0. -1.
         -4    1    6    6    0  503  0.16451617474E+03  0.13634192919E+02 -0.77792143183E+02  0.18249131626E+03  0.00000000000E+00 0.  1.
<mgrwt>
<rscale>  0 0.18145305E+04</rscale>
<asrwt>0</asrwt>
<pdfrwt beam="1">  1        2 0.24859304E+00 0.18145305E+04</pdfrwt>
<pdfrwt beam="2">  1       -1 0.78370549E-01 0.18145305E+04</pdfrwt>
<totfact> 0.19128313E+01</totfact>
</mgrwt>
</event>
<event>
12    6  0.1627636E-007  0.2133672E+04  0.7818608E-02  0.8546554E-01
         -1   -1    0    0    0  501 -0.00000000000E+00  0.00000000000E+00  0.47040052268E+03  0.47040052268E+03  0.00000000000E+00 0.  1.
          2   -1    0    0  501    0  0.00000000000E+00 -0.00000000000E+00 -0.24195098042E+04  0.24195098042E+04  0.00000000000E+00 0. -1.
         24    2    1    2    0    0 -0.75645974225E+03 -0.36719680228E+03 -0.11288194608E+04  0.14099890833E+04  0.82286126874E+02 0.  0.
        254    2    1    2    0    0  0.75645974225E+03  0.36719680228E+03 -0.82028982071E+03  0.14799212436E+04  0.90012591563E+03 0.  0.
         23    2    4    4    0    0 -0.69040170598E+02 -0.10191779605E+03 -0.41775300044E+03  0.44476444506E+03  0.90244445284E+02 0.  0.
         23    2    4    4    0    0  0.82549991285E+03  0.46911459833E+03 -0.40253682027E+03  0.10351567985E+04  0.89415286054E+02 0.  0.
          2    1    3    3  502    0 -0.66981874250E+03 -0.29469022944E+03 -0.96922175017E+03  0.12144506084E+04  0.00000000000E+00 0. -1.
         -1    1    3    3    0  502 -0.86640999743E+02 -0.72506572842E+02 -0.15959771058E+03  0.19553847490E+03  0.00000000000E+00 0.  1.
         11    1    5    5    0    0 -0.86549036306E+02 -0.10365378940E+03 -0.37075063954E+03  0.39457683721E+03  0.00000000000E+00 0. -1.
        -11    1    5    5    0    0  0.17508865709E+02  0.17359933592E+01 -0.47002360896E+02  0.50187607845E+02  0.00000000000E+00 0.  1.
          1    1    6    6  503    0  0.17737265225E+03  0.10923650306E+03 -0.49812357070E+02  0.21418436517E+03  0.00000000000E+00 0. -1.
         -1    1    6    6    0  503  0.64812726059E+03  0.35987809526E+03 -0.35272446320E+03  0.82097243335E+03  0.00000000000E+00 0.  1.
<mgrwt>
<rscale>  0 0.21336716E+04</rscale>
<asrwt>0</asrwt>
<pdfrwt beam="1">  1        2 0.37223228E+00 0.21336716E+04</pdfrwt>
<pdfrwt beam="2">  1       -1 0.72369310E-01 0.21336716E+04</pdfrwt>
<totfact> 0.78060739E+00</totfact>
</mgrwt>
</event>
<event>
12    6  0.1627636E-007  0.1762561E+04  0.7818608E-02  0.8726466E-01
         -1   -1    0    0    0  501 -0.00000000000E+00  0.00000000000E+00  0.53345937804E+03  0.53345937804E+03  0.00000000000E+00 0.  1.
          2   -1    0    0  501    0  0.00000000000E+00 -0.00000000000E+00 -0.14558846725E+04  0.14558846725E+04  0.00000000000E+00 0. -1.
         24    2    1    2    0    0  0.43301568113E+03 -0.91304051062E+02  0.17498912706E+03  0.48317565497E+03  0.83657092448E+02 0.  0.
        254    2    1    2    0    0 -0.43301568113E+03  0.91304051062E+02 -0.10974144215E+04  0.15061683956E+04  0.93187220873E+03 0.  0.
         23    2    4    4    0    0 -0.69105855486E+03  0.18693240863E+03 -0.90560068581E+03  0.11578319210E+04  0.89199234337E+02 0.  0.
         23    2    4    4    0    0  0.25804287373E+03 -0.95628357568E+02 -0.19181373569E+03  0.34833647460E+03  0.93887607712E+02 0.  0.
          2    1    3    3  502    0  0.33250294257E+03 -0.52892641520E+02  0.97309177229E+02  0.35046385594E+03  0.00000000000E+00 0. -1.
         -1    1    3    3    0  502  0.10051273856E+03 -0.38411409542E+02  0.77679949828E+02  0.13271179903E+03  0.00000000000E+00 0.  1.
         11    1    5    5    0    0 -0.42680742385E+03  0.90788373291E+02 -0.60818808239E+03  0.74853179581E+03  0.00000000000E+00 0. -1.
        -11    1    5    5    0    0 -0.26425113101E+03  0.96144035339E+02 -0.29741260341E+03  0.40930012514E+03  0.00000000000E+00 0.  1.
          1    1    6    6  503    0  0.33887921830E+02 -0.51127395029E+02 -0.29730863401E+02  0.68163964138E+02  0.00000000000E+00 0. -1.
         -1    1    6    6    0  503  0.22415495190E+03 -0.44500962539E+02 -0.16208287229E+03  0.28017251046E+03  0.00000000000E+00 0.  1.
<mgrwt>
<rscale>  0 0.17625610E+04</rscale>
<asrwt>0</asrwt>
<pdfrwt beam="1">  1        2 0.22398225E+00 0.17625610E+04</pdfrwt>
<pdfrwt beam="2">  1       -1 0.82070674E-01 0.17625610E+04</pdfrwt>
<totfact> 0.21427817E+01</totfact>
</mgrwt>
</event>
<event>
12    6  0.1627636E-007  0.2073906E+04  0.7818608E-02  0.8572826E-01
         -1   -1    0    0    0  501 -0.00000000000E+00  0.00000000000E+00  0.46329516807E+03  0.46329516807E+03  0.00000000000E+00 0.  1.
          2   -1    0    0  501    0  0.00000000000E+00 -0.00000000000E+00 -0.23209207422E+04  0.23209207422E+04  0.00000000000E+00 0. -1.
         24    2    1    2    0    0  0.33213492415E+03 -0.40291844894E+03 -0.16340407321E+04  0.17172195848E+04  0.78083955254E+02 0.  0.
        254    2    1    2    0    0 -0.33213492415E+03  0.40291844894E+03 -0.22358484208E+03  0.10669963255E+04  0.90323534730E+03 0.  0.
         23    2    4    4    0    0 -0.63506189405E+03  0.27593191019E+03 -0.19413611483E+03  0.72463571631E+03  0.89252797884E+02 0.  0.
         23    2    4    4    0    0  0.30292696990E+03  0.12698653875E+03 -0.29448727251E+02  0.34236060916E+03  0.91941443600E+02 0.  0.
          2    1    3    3  502    0  0.54349150857E+02 -0.69237183422E+02 -0.19158176311E+03  0.21083450791E+03  0.00000000000E+00 0. -1.
         -1    1    3    3    0  502  0.27778577329E+03 -0.33368126552E+03 -0.14424589689E+04  0.15063850769E+04  0.00000000000E+00 0.  1.
         11    1    5    5    0    0 -0.58321382521E+03  0.27812500255E+03 -0.18313703345E+03  0.67158845730E+03  0.00000000000E+00 0.  1.
        -11    1    5    5    0    0 -0.51848068839E+02 -0.21930923650E+01 -0.10999081383E+02  0.53047259003E+02  0.00000000000E+00 0. -1.
          1    1    6    6  503    0  0.15889192147E+03  0.88415530588E+02 -0.57345885806E+02  0.19066331418E+03  0.00000000000E+00 0. -1.
         -1    1    6    6    0  503  0.14403504843E+03  0.38571008163E+02  0.27897158555E+02  0.15169729498E+03  0.00000000000E+00 0.  1.
<mgrwt>
<rscale>  0 0.20739058E+04</rscale>
<asrwt>0</asrwt>
<pdfrwt beam="1">  1        2 0.35706474E+00 0.20739058E+04</pdfrwt>
<pdfrwt beam="2">  1       -1 0.71276178E-01 0.20739058E+04</pdfrwt>
<totfact> 0.92181565E+00</totfact>
</mgrwt>
</event>
<event>
12    6  0.1627636E-007  0.1588404E+04  0.7818608E-02  0.8827703E-01
          2   -1    0    0  501    0  0.00000000000E+00  0.00000000000E+00  0.18842601536E+04  0.18842601536E+04  0.00000000000E+00 0. -1.
         -1   -1    0    0    0  501 -0.00000000000E+00 -0.00000000000E+00 -0.33475057127E+03  0.33475057127E+03  0.00000000000E+00 0.  1.
         24    2    1    2    0    0  0.38921677896E+03  0.30706473688E+03  0.21435846220E+03  0.54601791111E+03  0.80047206580E+02 0.  0.
        254    2    1    2    0    0 -0.38921677896E+03 -0.30706473688E+03  0.13351511201E+04  0.16729928137E+04  0.87778014765E+03 0.  0.
         23    2    4    4    0    0  0.14879077830E+02 -0.36298982978E+03  0.11615876708E+04  0.12204279023E+04  0.90417610781E+02 0.  0.
         23    2    4    4    0    0 -0.40409585679E+03  0.55925092909E+02  0.17356344931E+03  0.45256491141E+03  0.90937619305E+02 0.  0.
          2    1    3    3  502    0  0.73051573261E+02  0.62342342462E+02  0.77577896990E+02  0.12345618705E+03  0.00000000000E+00 0. -1.
         -1    1    3    3    0  502  0.31616520570E+03  0.24472239441E+03  0.13678056521E+03  0.42256172406E+03  0.00000000000E+00 0.  1.
         11    1    5    5    0    0 -0.12801041460E+01 -0.28966593929E+03  0.79247979938E+03  0.84376076436E+03  0.00000000000E+00 0. -1.
        -11    1    5    5    0    0  0.16159181976E+02 -0.73323890499E+02  0.36910787140E+03  0.37666713794E+03  0.00000000000E+00 0.  1.
          3    1    6    6  503    0 -0.49260803816E+02  0.34774769154E+02  0.94135017690E+01  0.61028889698E+02  0.00000000000E+00 0. -1.
         -3    1    6    6    0  503 -0.35483505298E+03  0.21150323755E+02  0.16414994754E+03  0.39153602171E+03  0.00000000000E+00 0.  1.
<mgrwt>
<rscale>  0 0.15884044E+04</rscale>
<asrwt>0</asrwt>
<pdfrwt beam="1">  1        2 0.28988617E+00 0.15884044E+04</pdfrwt>
<pdfrwt beam="2">  1       -1 0.51500089E-01 0.15884044E+04</pdfrwt>
<totfact> 0.32133142E+01</totfact>
</mgrwt>
</event>
<event>
12    6  0.1627636E-007  0.2198312E+04  0.7818608E-02  0.8519131E-01
          2   -1    0    0  501    0  0.00000000000E+00  0.00000000000E+00  0.12848701569E+04  0.12848701569E+04  0.00000000000E+00 0. -1.
         -1   -1    0    0    0  501 -0.00000000000E+00 -0.00000000000E+00 -0.94028463986E+03  0.94028463986E+03  0.00000000000E+00 0.  1.
         24    2    1    2    0    0 -0.11029445212E+03 -0.90625726121E+03 -0.54875869695E+02  0.91860712668E+03  0.85793953406E+02 0.  0.
        254    2    1    2    0    0  0.11029445212E+03  0.90625726121E+03  0.39946138669E+03  0.13065476700E+04  0.84500315085E+03 0.  0.
         23    2    4    4    0    0  0.46918045163E+02 -0.27277093195E+02  0.34926665370E+03  0.36489911818E+03  0.90657753571E+02 0.  0.
         23    2    4    4    0    0  0.63376406954E+02  0.93353435441E+03  0.50194732985E+02  0.94164855186E+03  0.93163963970E+02 0.  0.
          4    1    3    3  502    0 -0.64932294916E+02 -0.75656005533E+03 -0.27712875451E+02  0.75984690807E+03  0.00000000000E+00 0. -1.
         -3    1    3    3    0  502 -0.45362157202E+02 -0.14969720589E+03 -0.27162994244E+02  0.15876021861E+03  0.00000000000E+00 0.  1.
         11    1    5    5    0    0 -0.22644310139E+02 -0.26354248167E+02  0.14521853857E+03  0.14931756468E+03  0.00000000000E+00 0. -1.
        -11    1    5    5    0    0  0.69562355302E+02 -0.92284502759E+00  0.20404811513E+03  0.21558155349E+03  0.00000000000E+00 0.  1.
          4    1    6    6  503    0  0.38439758111E+02  0.76082232299E+03  0.67664940931E+01  0.76182281903E+03  0.00000000000E+00 0. -1.
         -4    1    6    6    0  503  0.24936648843E+02  0.17271203142E+03  0.43428238892E+02  0.17982573283E+03  0.00000000000E+00 0.  1.
<mgrwt>
<rscale>  0 0.21983118E+04</rscale>
<asrwt>0</asrwt>
<pdfrwt beam="1">  1        2 0.19767233E+00 0.21983118E+04</pdfrwt>
<pdfrwt beam="2">  1       -1 0.14465918E+00 0.21983118E+04</pdfrwt>
<totfact> 0.67593115E+00</totfact>
</mgrwt>
</event>
<event>
12    6  0.1627636E-007  0.2240318E+04  0.7818608E-02  0.8501832E-01
          2   -1    0    0  501    0  0.00000000000E+00  0.00000000000E+00  0.46130252648E+03  0.46130252648E+03  0.00000000000E+00 0. -1.
         -1   -1    0    0    0  501 -0.00000000000E+00 -0.00000000000E+00 -0.27200294704E+04  0.27200294704E+04  0.00000000000E+00 0.  1.
         24    2    1    2    0    0  0.52499589496E+03  0.37219563346E+03 -0.19145773890E+04  0.20214957253E+04  0.81780863538E+02 0.  0.
        254    2    1    2    0    0 -0.52499589496E+03 -0.37219563346E+03 -0.34414955486E+03  0.11598362715E+04  0.90146047131E+03 0.  0.
         23    2    4    4    0    0 -0.40676009642E+03 -0.63825295128E+03 -0.99758212386E+02  0.76875615798E+03  0.90629595798E+02 0.  0.
         23    2    4    4    0    0 -0.11823579854E+03  0.26605731782E+03 -0.24439134248E+03  0.39108011354E+03  0.91925657512E+02 0.  0.
          2    1    3    3  502    0  0.38342371173E+02  0.42361349992E+01 -0.11939094434E+03  0.12546824242E+03  0.00000000000E+00 0. -1.
         -1    1    3    3    0  502  0.48665352379E+03  0.36795949846E+03 -0.17951864447E+04  0.18960274829E+04  0.00000000000E+00 0.  1.
         11    1    5    5    0    0 -0.14938629606E+03 -0.16150235362E+03 -0.41088424562E+02  0.22380244482E+03  0.00000000000E+00 0. -1.
        -11    1    5    5    0    0 -0.25737380037E+03 -0.47675059766E+03 -0.58669787824E+02  0.54495371316E+03  0.00000000000E+00 0.  1.
          4    1    6    6  503    0 -0.95883800746E+02  0.20303244423E+03 -0.23238672794E+03  0.32314001297E+03  0.00000000000E+00 0.  1.
         -4    1    6    6    0  503 -0.22351997790E+02  0.63024873586E+02 -0.12004614534E+02  0.67940100573E+02  0.00000000000E+00 0. -1.
<mgrwt>
<rscale>  0 0.22403183E+04</rscale>
<asrwt>0</asrwt>
<pdfrwt beam="1">  1        2 0.70969621E-01 0.22403183E+04</pdfrwt>
<pdfrwt beam="2">  1       -1 0.41846606E+00 0.22403183E+04</pdfrwt>
<totfact> 0.37590819E-01</totfact>
</mgrwt>
</event>
<event>
12    6  0.1627636E-007  0.2041069E+04  0.7818608E-02  0.8587657E-01
          2   -1    0    0  501    0  0.00000000000E+00  0.00000000000E+00  0.34667904214E+03  0.34667904214E+03  0.00000000000E+00 0. -1.
         -3   -1    0    0    0  501 -0.00000000000E+00 -0.00000000000E+00 -0.30041930630E+04  0.30041930630E+04  0.00000000000E+00 0.  1.
         24    2    1    2    0    0  0.17499420858E+03 -0.19776612941E+03 -0.23227233734E+04  0.23390762008E+04  0.80617549063E+02 0.  0.
        254    2    1    2    0    0 -0.17499420858E+03  0.19776612941E+03 -0.33479064751E+03  0.10117959043E+04  0.91755749647E+03 0.  0.
         23    2    4    4    0    0 -0.45756382216E+03  0.38304766902E+03 -0.23942815389E+03  0.64971392830E+03  0.93339057534E+02 0.  0.
         23    2    4    4    0    0  0.28256961358E+03 -0.18528153960E+03 -0.95362493626E+02  0.36208197601E+03  0.88512805407E+02 0.  0.
          2    1    3    3  502    0  0.67347188853E+02 -0.47238917819E+02 -0.47112083409E+03  0.47824888867E+03  0.00000000000E+00 0. -1.
         -1    1    3    3    0  502  0.10764701972E+03 -0.15052721160E+03 -0.18516025393E+04  0.18608273122E+04  0.00000000000E+00 0.  1.
         11    1    5    5    0    0 -0.61652841168E+02  0.96087722935E+02 -0.31999638097E+02  0.11856601605E+03  0.00000000000E+00 0. -1.
        -11    1    5    5    0    0 -0.39591098099E+03  0.28695994608E+03 -0.20742851579E+03  0.53114791225E+03  0.00000000000E+00 0.  1.
          1    1    6    6  503    0  0.60701264492E+01 -0.18444607775E+02  0.10707206948E+02  0.22174180294E+02  0.00000000000E+00 0. -1.
         -1    1    6    6    0  503  0.27649948713E+03 -0.16683693183E+03 -0.10606970057E+03  0.33990779571E+03  0.00000000000E+00 0.  1.
<mgrwt>
<rscale>  0 0.20410691E+04</rscale>
<asrwt>0</asrwt>
<pdfrwt beam="1">  1        2 0.53335237E-01 0.20410691E+04</pdfrwt>
<pdfrwt beam="2">  1       -3 0.46218355E+00 0.20410691E+04</pdfrwt>
<totfact> 0.25951631E-01</totfact>
</mgrwt>
</event>
<event>
12    6  0.1627636E-007  0.2193366E+04  0.7818608E-02  0.8521195E-01
         -1   -1    0    0    0  501 -0.00000000000E+00  0.00000000000E+00  0.10749818954E+04  0.10749818954E+04  0.00000000000E+00 0.  1.
          2   -1    0    0  501    0  0.00000000000E+00 -0.00000000000E+00 -0.11188217498E+04  0.11188217498E+04  0.00000000000E+00 0. -1.
         24    2    1    2    0    0  0.39565063373E+03 -0.30787845214E+03  0.74181075430E+03  0.89863977112E+03  0.77082279222E+02 0.  0.
        254    2    1    2    0    0 -0.39565063373E+03  0.30787845214E+03 -0.78565060874E+03  0.12951638741E+04  0.89937423602E+03 0.  0.
         23    2    4    4    0    0 -0.17332224430E+03  0.54660540549E+03 -0.19089244605E+03  0.61101856932E+03  0.89920500531E+02 0.  0.
         23    2    4    4    0    0 -0.22232838944E+03 -0.23872695336E+03 -0.59475816269E+03  0.68414530474E+03  0.88865375188E+02 0.  0.
          4    1    3    3  502    0  0.30808914998E+02 -0.55211998387E+02  0.84351834596E+02  0.10541719978E+03  0.00000000000E+00 0. -1.
         -3    1    3    3    0  502  0.36484171874E+03 -0.25266645375E+03  0.65745891971E+03  0.79322257134E+03  0.00000000000E+00 0.  1.
         11    1    5    5    0    0 -0.17089834363E+02  0.35889849143E+02 -0.39172369207E+02  0.55808764718E+02  0.00000000000E+00 0.  1.
        -11    1    5    5    0    0 -0.15623240993E+03  0.51071555635E+03 -0.15172007684E+03  0.55520980460E+03  0.00000000000E+00 0. -1.
          1    1    6    6  503    0 -0.15848212941E+03 -0.16616203517E+03 -0.49271182813E+03  0.54359116333E+03  0.00000000000E+00 0. -1.
         -1    1    6    6    0  503 -0.63846260029E+02 -0.72564918184E+02 -0.10204633457E+03  0.14055414142E+03  0.00000000000E+00 0.  1.
<mgrwt>
<rscale>  0 0.21933656E+04</rscale>
<asrwt>0</asrwt>
<pdfrwt beam="1">  1        2 0.17212642E+00 0.21933656E+04</pdfrwt>
<pdfrwt beam="2">  1       -1 0.16538183E+00 0.21933656E+04</pdfrwt>
<totfact> 0.58890701E+00</totfact>
</mgrwt>
</event>
<event>
12    6  0.1627636E-007  0.1216830E+04  0.7818608E-02  0.9098251E-01
         -1   -1    0    0    0  501 -0.00000000000E+00  0.00000000000E+00  0.70369487140E+03  0.70369487140E+03  0.00000000000E+00 0.  1.
          2   -1    0    0  501    0  0.00000000000E+00 -0.00000000000E+00 -0.52603625011E+03  0.52603625011E+03  0.00000000000E+00 0. -1.
         24    2    1    2    0    0 -0.60593209357E+02  0.17237695382E+03 -0.16288965935E+03  0.25713637896E+03  0.78744682563E+02 0.  0.
        254    2    1    2    0    0  0.60593209357E+02 -0.17237695382E+03  0.34054828064E+03  0.97259474255E+03  0.89251445398E+03 0.  0.
         23    2    4    4    0    0  0.12320628061E+03  0.40854811307E+02  0.59864395813E+03  0.62016261156E+03  0.96840967477E+02 0.  0.
         23    2    4    4    0    0 -0.62613071257E+02 -0.21323176513E+03 -0.25809567749E+03  0.35243213099E+03  0.90591643441E+02 0.  0.
          2    1    3    3  502    0 -0.29308981850E+02  0.99600144518E+02 -0.14072279991E+03  0.17487741884E+03  0.00000000000E+00 0. -1.
         -1    1    3    3    0  502 -0.31284227507E+02  0.72776809301E+02 -0.22166859445E+02  0.82258960123E+02  0.00000000000E+00 0.  1.
         11    1    5    5    0    0  0.11157782551E+03  0.67812449485E+02  0.52216900238E+03  0.53824586064E+03  0.00000000000E+00 0.  1.
        -11    1    5    5    0    0  0.11628455104E+02 -0.26957638177E+02  0.76474955754E+02  0.81916750923E+02  0.00000000000E+00 0. -1.
          2    1    6    6  503    0 -0.23355536390E+02 -0.10929150206E+03 -0.19474259176E+03  0.22453238196E+03  0.00000000000E+00 0. -1.
         -2    1    6    6    0  503 -0.39257534867E+02 -0.10394026307E+03 -0.63353085732E+02  0.12789974903E+03  0.00000000000E+00 0.  1.
<mgrwt>
<rscale>  0 0.12168303E+04</rscale>
<asrwt>0</asrwt>
<pdfrwt beam="1">  1        2 0.80928654E-01 0.12168303E+04</pdfrwt>
<pdfrwt beam="2">  1       -1 0.10826075E+00 0.12168303E+04</pdfrwt>
<totfact> 0.51850270E+01</totfact>
</mgrwt>
</event>
<event>
12    6  0.1627636E-007  0.1705351E+04  0.7818608E-02  0.8758318E-01
          2   -1    0    0  501    0  0.00000000000E+00  0.00000000000E+00  0.16567995416E+04  0.16567995416E+04  0.00000000000E+00 0. -1.
         -1   -1    0    0    0  501 -0.00000000000E+00 -0.00000000000E+00 -0.43883139961E+03  0.43883139961E+03  0.00000000000E+00 0.  1.
         24    2    1    2    0    0  0.27961637818E+03 -0.40079636190E+03  0.67736480338E+03  0.83904135093E+03  0.79650919931E+02 0.  0.
        254    2    1    2    0    0 -0.27961637818E+03  0.40079636190E+03  0.54060333858E+03  0.12565895902E+04  0.10236905714E+04 0.  0.
         23    2    4    4    0    0 -0.38545792123E+03  0.26168506671E+03  0.80028188155E+03  0.93031488077E+03  0.89318555009E+02 0.  0.
         23    2    4    4    0    0  0.10584154305E+03  0.13911129520E+03 -0.25967854298E+03  0.32627470947E+03  0.92020952352E+02 0.  0.
          2    1    3    3  502    0  0.25299787595E+03 -0.33106774955E+03  0.60851489941E+03  0.73749858497E+03  0.00000000000E+00 0. -1.
         -1    1    3    3    0  502  0.26618502227E+02 -0.69728612353E+02  0.68849903970E+02  0.10154276596E+03  0.00000000000E+00 0.  1.
         11    1    5    5    0    0 -0.11145434579E+03  0.46640807181E+02  0.27090280633E+03  0.29662394806E+03  0.00000000000E+00 0. -1.
        -11    1    5    5    0    0 -0.27400357543E+03  0.21504425953E+03  0.52937907523E+03  0.63369093271E+03  0.00000000000E+00 0.  1.
          1    1    6    6  503    0 -0.15205199825E+02  0.26127173783E+02 -0.57334282385E+02  0.64815486176E+02  0.00000000000E+00 0. -1.
         -1    1    6    6    0  503  0.12104674287E+03  0.11298412141E+03 -0.20234426059E+03  0.26145922329E+03  0.00000000000E+00 0.  1.
<mgrwt>
<rscale>  0 0.17053512E+04</rscale>
<asrwt>0</asrwt>
<pdfrwt beam="1">  1        2 0.25489223E+00 0.17053512E+04</pdfrwt>
<pdfrwt beam="2">  1       -1 0.67512524E-01 0.17053512E+04</pdfrwt>
<totfact> 0.24956169E+01</totfact>
</mgrwt>
</event>
<event>
12    6  0.1627636E-007  0.1238206E+04  0.7818608E-02  0.9080057E-01
          2   -1    0    0  501    0  0.00000000000E+00  0.00000000000E+00  0.15275891027E+04  0.15275891027E+04  0.00000000000E+00 0. -1.
         -1   -1    0    0    0  501 -0.00000000000E+00 -0.00000000000E+00 -0.25091077853E+03  0.25091077853E+03  0.00000000000E+00 0.  1.
         24    2    1    2    0    0  0.27152000198E+03  0.94976926665E+01  0.44676984799E+03  0.52870297735E+03  0.78167918889E+02 0.  0.
        254    2    1    2    0    0 -0.27152000198E+03 -0.94976926665E+01  0.82990847620E+03  0.12497969039E+04  0.89410900032E+03 0.  0.
         23    2    4    4    0    0 -0.97523417142E+02  0.11542487999E+03 -0.15369760502E+03  0.23907961064E+03  0.10345233985E+03 0.  0.
         23    2    4    4    0    0 -0.17399658484E+03 -0.12492257266E+03  0.98360608122E+03  0.10107172933E+04  0.90487917245E+02 0.  0.
          4    1    3    3  502    0  0.83810543895E+02 -0.14467285803E+02  0.20306118184E+03  0.22015302222E+03  0.00000000000E+00 0. -1.
         -3    1    3    3    0  502  0.18770945809E+03  0.23964978470E+02  0.24370866615E+03  0.30854995512E+03  0.00000000000E+00 0.  1.
         11    1    5    5    0    0 -0.10127427280E+03  0.95272807873E+02 -0.16491815838E+03  0.21571134698E+03  0.00000000000E+00 0. -1.
        -11    1    5    5    0    0  0.37508556630E+01  0.20152072119E+02  0.11220553354E+02  0.23368263659E+02  0.00000000000E+00 0.  1.
          1    1    6    6  503    0 -0.81330004385E+02 -0.12992874786E+02  0.46032228544E+03  0.46763232446E+03  0.00000000000E+00 0. -1.
         -1    1    6    6    0  503 -0.92666580458E+02 -0.11192969787E+03  0.52328379578E+03  0.54308496879E+03  0.00000000000E+00 0.  1.
<mgrwt>
<rscale>  0 0.12382061E+04</rscale>
<asrwt>0</asrwt>
<pdfrwt beam="1">  1        2 0.23501370E+00 0.12382061E+04</pdfrwt>
<pdfrwt beam="2">  1       -1 0.38601659E-01 0.12382061E+04</pdfrwt>
<totfact> 0.89242586E+01</totfact>
</mgrwt>
</event>
<event>
12    6  0.1627636E-007  0.5307620E+04  0.7818608E-02  0.7782730E-01
          2   -1    0    0  501    0  0.00000000000E+00  0.00000000000E+00  0.37474749422E+04  0.37474749422E+04  0.00000000000E+00 0. -1.
         -1   -1    0    0    0  501 -0.00000000000E+00 -0.00000000000E+00 -0.18793207951E+04  0.18793207951E+04  0.00000000000E+00 0.  1.
         24    2    1    2    0    0 -0.45457181521E+03 -0.23023733602E+04  0.20345283360E+04  0.31069928173E+04  0.80871454242E+02 0.  0.
        254    2    1    2    0    0  0.45457181521E+03  0.23023733602E+04 -0.16637418891E+03  0.25198029200E+04  0.90231245137E+03 0.  0.
         23    2    4    4    0    0 -0.16408013836E+01  0.70832542510E+02 -0.21458954171E+03  0.23994012253E+03  0.80639008442E+02 0.  0.
         23    2    4    4    0    0  0.45621261659E+03  0.22315408177E+04  0.48215352796E+02  0.22798627975E+04  0.86863585078E+02 0.  0.
          4    1    3    3  502    0 -0.42412027578E+03 -0.20129200642E+04  0.17886890294E+04  0.27260105717E+04  0.00000000000E+00 0. -1.
         -3    1    3    3    0  502 -0.30451539427E+02 -0.28945329601E+03  0.24583930660E+03  0.38098224565E+03  0.00000000000E+00 0.  1.
         11    1    5    5    0    0  0.16368335671E+02  0.66881348632E+02 -0.20991495406E+03  0.22091927292E+03  0.00000000000E+00 0. -1.
        -11    1    5    5    0    0 -0.18009137055E+02  0.39511938781E+01 -0.46745876506E+01  0.19020849619E+02  0.00000000000E+00 0.  1.
          2    1    6    6  503    0  0.40916826751E+03  0.19653998493E+04  0.69648310843E+02  0.20087474022E+04  0.00000000000E+00 0. -1.
         -2    1    6    6    0  503  0.47044349079E+02  0.26614096838E+03 -0.21432958046E+02  0.27111539521E+03  0.00000000000E+00 0.  1.
<mgrwt>
<rscale>  0 0.53076200E+04</rscale>
<asrwt>0</asrwt>
<pdfrwt beam="1">  1        2 0.57653460E+00 0.53076200E+04</pdfrwt>
<pdfrwt beam="2">  1       -1 0.28912628E+00 0.53076200E+04</pdfrwt>
<totfact> 0.16810838E-02</totfact>
</mgrwt>
</event>
<event>
12    6  0.1627636E-007  0.2776428E+04  0.7818608E-02  0.8310624E-01
         -1   -1    0    0    0  501 -0.00000000000E+00  0.00000000000E+00  0.24224137996E+04  0.24224137996E+04  0.00000000000E+00 0.  1.
          2   -1    0    0  501    0  0.00000000000E+00 -0.00000000000E+00 -0.79554435616E+03  0.79554435616E+03  0.00000000000E+00 0. -1.
         24    2    1    2    0    0 -0.32309698146E+03 -0.69662800363E+03 -0.40338578463E+03  0.87111591852E+03  0.80253457210E+02 0.  0.
        254    2    1    2    0    0  0.32309698146E+03  0.69662800363E+03  0.20302552281E+04  0.23468422373E+04  0.89221631936E+03 0.  0.
         23    2    4    4    0    0  0.23657402282E+03  0.14632770677E+03  0.61466077271E+02  0.29854251134E+03  0.89277580506E+02 0.  0.
         23    2    4    4    0    0  0.86522958633E+02  0.55030029686E+03  0.19687891509E+04  0.20482997259E+04  0.95312159218E+02 0.  0.
          2    1    3    3  502    0 -0.21395362194E+03 -0.45606437026E+03 -0.30690976199E+03  0.58988512795E+03  0.00000000000E+00 0. -1.
         -1    1    3    3    0  502 -0.10914335951E+03 -0.24056363336E+03 -0.96476022640E+02  0.28123079057E+03  0.00000000000E+00 0.  1.
         11    1    5    5    0    0  0.24087027361E+03  0.14298446756E+03  0.69716462592E+02  0.28865798418E+03  0.00000000000E+00 0. -1.
        -11    1    5    5    0    0 -0.42962507921E+01  0.33432392112E+01 -0.82503853214E+01  0.98845271634E+01  0.00000000000E+00 0.  1.
          2    1    6    6  503    0  0.10520979829E+03  0.39838044728E+03  0.14477877101E+04  0.15052791555E+04  0.00000000000E+00 0. -1.
         -2    1    6    6    0  503 -0.18686839653E+02  0.15191984958E+03  0.52100144077E+03  0.54302057047E+03  0.00000000000E+00 0.  1.
<mgrwt>
<rscale>  0 0.27764277E+04</rscale>
<asrwt>0</asrwt>
<pdfrwt beam="1">  1        2 0.12239144E+00 0.27764277E+04</pdfrwt>
<pdfrwt beam="2">  1       -1 0.37267904E+00 0.27764277E+04</pdfrwt>
<totfact> 0.37809145E-01</totfact>
</mgrwt>
</event>
<event>
12    6  0.1627636E-007  0.1664260E+04  0.7818608E-02  0.8782015E-01
         -1   -1    0    0    0  501 -0.00000000000E+00  0.00000000000E+00  0.32146188263E+03  0.32146188263E+03  0.00000000000E+00 0.  1.
          2   -1    0    0  501    0  0.00000000000E+00 -0.00000000000E+00 -0.21540350752E+04  0.21540350752E+04  0.00000000000E+00 0. -1.
         24    2    1    2    0    0  0.31325913541E+03  0.42028255923E+03 -0.10314221469E+04  0.11597956719E+04  0.80781432578E+02 0.  0.
        254    2    1    2    0    0 -0.31325913541E+03 -0.42028255923E+03 -0.80115104565E+03  0.13157012859E+04  0.90247335717E+03 0.  0.
         23    2    4    4    0    0 -0.20652204212E+03 -0.54502706040E+03 -0.11000515825E+03  0.59967221087E+03  0.88316335967E+02 0.  0.
         23    2    4    4    0    0 -0.10673709329E+03  0.12474450117E+03 -0.69114588740E+03  0.71602907508E+03  0.89783077635E+02 0.  0.
          4    1    3    3  502    0  0.29636495145E+03  0.39247227082E+03 -0.10008204609E+04  0.11151270164E+04  0.00000000000E+00 0. -1.
         -3    1    3    3    0  502  0.16894183959E+02  0.27810288416E+02 -0.30601686041E+02  0.44668655476E+02  0.00000000000E+00 0.  1.
         11    1    5    5    0    0 -0.77461541297E+01 -0.11686799370E+03 -0.29800842426E+02  0.12085619994E+03  0.00000000000E+00 0. -1.
        -11    1    5    5    0    0 -0.19877588799E+03 -0.42815906670E+03 -0.80204315820E+02  0.47881601093E+03  0.00000000000E+00 0.  1.
          3    1    6    6  503    0 -0.15330311086E+02 -0.13771755395E+02 -0.60552750276E+02  0.63963389924E+02  0.00000000000E+00 0. -1.
         -3    1    6    6    0  503 -0.91406782199E+02  0.13851625656E+03 -0.63059313712E+03  0.65206568515E+03  0.00000000000E+00 0.  1.
<mgrwt>
<rscale>  0 0.16642598E+04</rscale>
<asrwt>0</asrwt>
<pdfrwt beam="1">  1        2 0.33139000E+00 0.16642598E+04</pdfrwt>
<pdfrwt beam="2">  1       -1 0.49455675E-01 0.16642598E+04</pdfrwt>
<totfact> 0.24420444E+01</totfact>
</mgrwt>
</event>
<event>
12    6  0.1627636E-007  0.3849586E+04  0.7818608E-02  0.8035597E-01
          2   -1    0    0  501    0  0.00000000000E+00  0.00000000000E+00  0.20328711264E+04  0.20328711264E+04  0.00000000000E+00 0. -1.
         -1   -1    0    0    0  501 -0.00000000000E+00 -0.00000000000E+00 -0.18224604916E+04  0.18224604916E+04  0.00000000000E+00 0.  1.
         24    2    1    2    0    0  0.17099511524E+04 -0.27721851348E+03 -0.28917137052E+03  0.17580381992E+04  0.79342172723E+02 0.  0.
        254    2    1    2    0    0 -0.17099511524E+04  0.27721851348E+03  0.49958200532E+03  0.20972934188E+04  0.10715756887E+04 0.  0.
         23    2    4    4    0    0 -0.14527907311E+04  0.63467297751E+03  0.38922795775E+03  0.16349666693E+04  0.90591997292E+02 0.  0.
         23    2    4    4    0    0 -0.25716042138E+03 -0.35745446403E+03  0.11035404757E+03  0.46232674953E+03  0.87537599559E+02 0.  0.
          4    1    3    3  502    0  0.54513378963E+03 -0.51753944147E+02 -0.83952679625E+02  0.55398318724E+03  0.00000000000E+00 0. -1.
         -3    1    3    3    0  502  0.11648173628E+04 -0.22546456934E+03 -0.20521869090E+03  0.12040550120E+04  0.00000000000E+00 0.  1.
         11    1    5    5    0    0 -0.10801492120E+04  0.49636249426E+03  0.25830285253E+03  0.12164778705E+04  0.00000000000E+00 0.  1.
        -11    1    5    5    0    0 -0.37264151908E+03  0.13831048325E+03  0.13092510522E+03  0.41848879877E+03  0.00000000000E+00 0. -1.
          1    1    6    6  503    0 -0.34005704348E+02 -0.24618003435E+02  0.34832439409E+02  0.54550278244E+02  0.00000000000E+00 0. -1.
         -1    1    6    6    0  503 -0.22315471704E+03 -0.33283646059E+03  0.75521608158E+02  0.40777647129E+03  0.00000000000E+00 0.  1.
<mgrwt>
<rscale>  0 0.38495856E+04</rscale>
<asrwt>0</asrwt>
<pdfrwt beam="1">  1        2 0.31274940E+00 0.38495856E+04</pdfrwt>
<pdfrwt beam="2">  1       -1 0.28037854E+00 0.38495856E+04</pdfrwt>
<totfact> 0.25751944E-01</totfact>
</mgrwt>
</event>
<event>
12    6  0.1714939E-007  0.1903136E+04  0.7818608E-02  0.8653297E-01
          2   -1    0    0  501    0  0.00000000000E+00  0.00000000000E+00  0.17762372580E+04  0.17762372580E+04  0.00000000000E+00 0. -1.
         -1   -1    0    0    0  501 -0.00000000000E+00 -0.00000000000E+00 -0.50977516969E+03  0.50977516969E+03  0.00000000000E+00 0.  1.
         24    2    1    2    0    0 -0.47913688570E+03 -0.29357734621E+03  0.10691242656E+04  0.12104470099E+04  0.79971589585E+02 0.  0.
        254    2    1    2    0    0  0.47913688570E+03  0.29357734621E+03  0.19733782274E+03  0.10755654178E+04  0.89562209562E+03 0.  0.
         23    2    4    4    0    0  0.59366613029E+02 -0.15362120335E+03  0.38364473072E+03  0.42745957511E+03  0.91730802263E+02 0.  0.
         23    2    4    4    0    0  0.41977027267E+03  0.44719854956E+03 -0.18630690798E+03  0.64810584265E+03  0.95589197994E+02 0.  0.
          2    1    3    3  502    0 -0.47399081995E+03 -0.29634082063E+03  0.10397103037E+04  0.11804586799E+04  0.00000000000E+00 0. -1.
         -1    1    3    3    0  502 -0.51460657455E+01  0.27634744143E+01  0.29413961846E+02  0.29988329980E+02  0.00000000000E+00 0.  1.
         11    1    5    5    0    0  0.39318349449E+02 -0.10066577092E+02  0.55777477036E+02  0.68981124391E+02  0.00000000000E+00 0.  1.
        -11    1    5    5    0    0  0.20048263580E+02 -0.14355462626E+03  0.32786725369E+03  0.35847845072E+03  0.00000000000E+00 0. -1.
          2    1    6    6  503    0  0.36323336247E+03  0.35922810377E+03 -0.12161522170E+03  0.52514147456E+03  0.00000000000E+00 0. -1.
         -2    1    6    6    0  503  0.56536910201E+02  0.87970445786E+02 -0.64691686285E+02  0.12296436810E+03  0.00000000000E+00 0.  1.
<mgrwt>
<rscale>  0 0.19031360E+04</rscale>
<asrwt>0</asrwt>
<pdfrwt beam="1">  1        2 0.27326727E+00 0.19031360E+04</pdfrwt>
<pdfrwt beam="2">  1       -1 0.78426950E-01 0.19031360E+04</pdfrwt>
<totfact> 0.15434169E+01</totfact>
</mgrwt>
</event>
<event>
12    6  0.1627636E-007  0.1847384E+04  0.7818608E-02  0.8681499E-01
          2   -1    0    0  501    0  0.00000000000E+00  0.00000000000E+00  0.63030443144E+03  0.63030443144E+03  0.00000000000E+00 0. -1.
         -1   -1    0    0    0  501 -0.00000000000E+00 -0.00000000000E+00 -0.13536426187E+04  0.13536426187E+04  0.00000000000E+00 0.  1.
         24    2    1    2    0    0  0.31593447887E+03 -0.33342925866E+03  0.29435205890E+03  0.55193649848E+03  0.83672566042E+02 0.  0.
        254    2    1    2    0    0 -0.31593447887E+03  0.33342925866E+03 -0.10176902461E+04  0.14320105516E+04  0.89664436509E+03 0.  0.
         23    2    4    4    0    0 -0.54026693368E+03  0.36961949614E+03 -0.41228910338E+03  0.77891239863E+03  0.90638228198E+02 0.  0.
         23    2    4    4    0    0  0.22433245481E+03 -0.36190237486E+02 -0.60540114276E+03  0.65309815301E+03  0.91607151673E+02 0.  0.
          2    1    3    3  502    0  0.16237936710E+03 -0.16019065206E+03  0.97508507123E+02  0.24806453360E+03  0.00000000000E+00 0. -1.
         -1    1    3    3    0  502  0.15355511178E+03 -0.17323860660E+03  0.19684355177E+03  0.30387196488E+03  0.00000000000E+00 0.  1.
         11    1    5    5    0    0 -0.42629564588E+03  0.24677193361E+03 -0.29173668666E+03  0.57248114315E+03  0.00000000000E+00 0. -1.
        -11    1    5    5    0    0 -0.11397128781E+03  0.12284756253E+03 -0.12055241672E+03  0.20643125548E+03  0.00000000000E+00 0.  1.
          1    1    6    6  503    0  0.12537812871E+03  0.26105008405E+02 -0.31879522265E+03  0.34355718681E+03  0.00000000000E+00 0. -1.
         -1    1    6    6    0  503  0.98954326097E+02 -0.62295245891E+02 -0.28660592011E+03  0.30954096620E+03  0.00000000000E+00 0.  1.
<mgrwt>
<rscale>  0 0.18473840E+04</rscale>
<asrwt>0</asrwt>
<pdfrwt beam="1">  1        2 0.96969914E-01 0.18473840E+04</pdfrwt>
<pdfrwt beam="2">  1       -1 0.20825271E+00 0.18473840E+04</pdfrwt>
<totfact> 0.66266456E+00</totfact>
</mgrwt>
</event>
<event>
12    6  0.1627636E-007  0.1754436E+04  0.7818608E-02  0.8730912E-01
         -3   -1    0    0    0  501 -0.00000000000E+00  0.00000000000E+00  0.10275653620E+04  0.10275653620E+04  0.00000000000E+00 0.  1.
          4   -1    0    0  501    0  0.00000000000E+00 -0.00000000000E+00 -0.74886884353E+03  0.74886884353E+03  0.00000000000E+00 0. -1.
         24    2    1    2    0    0 -0.18447290285E+03  0.30496801858E+03 -0.43308653082E+03  0.56615393644E+03  0.77010339054E+02 0.  0.
        254    2    1    2    0    0  0.18447290285E+03 -0.30496801858E+03  0.71178304927E+03  0.12102802691E+04  0.91165096185E+03 0.  0.
         23    2    4    4    0    0 -0.16437825173E+03 -0.41938482018E+03  0.69888450862E+02  0.46529383453E+03  0.93328022823E+02 0.  0.
         23    2    4    4    0    0  0.34885115458E+03  0.11441680161E+03  0.64189459841E+03  0.74498643455E+03  0.90486350620E+02 0.  0.
          4    1    3    3  502    0 -0.13712704608E+03  0.27482170474E+03 -0.38290641851E+03  0.49086466720E+03  0.00000000000E+00 0. -1.
         -3    1    3    3    0  502 -0.47345856770E+02  0.30146313835E+02 -0.50180112308E+02  0.75289269238E+02  0.00000000000E+00 0.  1.
         11    1    5    5    0    0 -0.14003528884E+02 -0.74857165687E+01  0.17588728522E+02  0.23695952076E+02  0.00000000000E+00 0.  1.
        -11    1    5    5    0    0 -0.15037472285E+03 -0.41189910362E+03  0.52299722340E+02  0.44159788245E+03  0.00000000000E+00 0. -1.
          1    1    6    6  503    0  0.30919430850E+03  0.84918041558E+02  0.49297064517E+03  0.58807503874E+03  0.00000000000E+00 0. -1.
         -1    1    6    6    0  503  0.39656846085E+02  0.29498760048E+02  0.14892395324E+03  0.15691139581E+03  0.00000000000E+00 0.  1.
<mgrwt>
<rscale>  0 0.17544363E+04</rscale>
<asrwt>0</asrwt>
<pdfrwt beam="1">  1        4 0.11521059E+00 0.17544363E+04</pdfrwt>
<pdfrwt beam="2">  1       -3 0.15808698E+00 0.17544363E+04</pdfrwt>
<totfact> 0.35677040E-01</totfact>
</mgrwt>
</event>
<event>
12    6  0.1627636E-007  0.2400632E+04  0.7818608E-02  0.8439267E-01
          2   -1    0    0  501    0  0.00000000000E+00  0.00000000000E+00  0.10424962317E+04  0.10424962317E+04  0.00000000000E+00 0. -1.
         -1   -1    0    0    0  501 -0.00000000000E+00 -0.00000000000E+00 -0.13820276384E+04  0.13820276384E+04  0.00000000000E+00 0.  1.
         24    2    1    2    0    0  0.31278595615E+03 -0.84318830683E+03  0.35679151016E+03  0.97069328761E+03  0.78381769205E+02 0.  0.
        254    2    1    2    0    0 -0.31278595615E+03  0.84318830683E+03 -0.69632291692E+03  0.14538305825E+04  0.90551431956E+03 0.  0.
         23    2    4    4    0    0  0.16331167971E+02  0.70161176115E+03 -0.50246351062E+02  0.70949457937E+03  0.91280293208E+02 0.  0.
         23    2    4    4    0    0 -0.32911712412E+03  0.14157654568E+03 -0.64607656585E+03  0.74433600316E+03  0.90879904126E+02 0.  0.
          2    1    3    3  502    0  0.31229799310E+03 -0.83535234726E+03  0.36060314736E+03  0.96196580524E+03  0.00000000000E+00 0. -1.
         -1    1    3    3    0  502  0.48796304911E+00 -0.78359595770E+01 -0.38116371983E+01  0.87274823724E+01  0.00000000000E+00 0.  1.
         11    1    5    5    0    0  0.14866095874E+02  0.31086751852E+02 -0.16273409033E+02  0.38107883552E+02  0.00000000000E+00 0.  1.
        -11    1    5    5    0    0  0.14650720964E+01  0.67052500930E+03 -0.33972942029E+02  0.67138669582E+03  0.00000000000E+00 0. -1.
          2    1    6    6  503    0 -0.14169019599E+03  0.23318530435E+02 -0.31169465565E+03  0.34318132796E+03  0.00000000000E+00 0. -1.
         -2    1    6    6    0  503 -0.18742692813E+03  0.11825801525E+03 -0.33438191020E+03  0.40115467520E+03  0.00000000000E+00 0.  1.
<mgrwt>
<rscale>  0 0.24006321E+04</rscale>
<asrwt>0</asrwt>
<pdfrwt beam="1">  1        2 0.16038403E+00 0.24006321E+04</pdfrwt>
<pdfrwt beam="2">  1       -1 0.21261964E+00 0.24006321E+04</pdfrwt>
<totfact> 0.29937961E+00</totfact>
</mgrwt>
</event>
<event>
12    6  0.1627636E-007  0.2483466E+04  0.7818608E-02  0.8408900E-01
         -1   -1    0    0    0  501 -0.00000000000E+00  0.00000000000E+00  0.12591135883E+04  0.12591135883E+04  0.00000000000E+00 0.  1.
          2   -1    0    0  501    0  0.00000000000E+00 -0.00000000000E+00 -0.12245919900E+04  0.12245919900E+04  0.00000000000E+00 0. -1.
         24    2    1    2    0    0  0.10514734858E+03 -0.52554183149E+03  0.95412251013E+03  0.10973029884E+04  0.80460564304E+02 0.  0.
        254    2    1    2    0    0 -0.10514734858E+03  0.52554183149E+03 -0.91960091186E+03  0.13864025899E+04  0.88836711024E+03 0.  0.
         23    2    4    4    0    0 -0.17907667348E+03  0.10040686913E+03 -0.91651998129E+03  0.94364908668E+03  0.91185132197E+02 0.  0.
         23    2    4    4    0    0  0.73929324902E+02  0.42513496237E+03 -0.30809305630E+01  0.44275350319E+03  0.99075179278E+02 0.  0.
          2    1    3    3  502    0  0.34931236432E+02 -0.81068821917E+02  0.20852803248E+03  0.22644267596E+03  0.00000000000E+00 0. -1.
         -1    1    3    3    0  502  0.70216112146E+02 -0.44447300957E+03  0.74559447765E+03  0.87086031242E+03  0.00000000000E+00 0.  1.
         11    1    5    5    0    0 -0.16331245347E+03  0.99315827143E+02 -0.90251731149E+03  0.92253568414E+03  0.00000000000E+00 0. -1.
        -11    1    5    5    0    0 -0.15764220012E+02  0.10910419827E+01 -0.14002669807E+02  0.21113402542E+02  0.00000000000E+00 0.  1.
          1    1    6    6  503    0  0.63389436123E+02  0.35985453555E+03 -0.39053937439E+02  0.36747614534E+03  0.00000000000E+00 0. -1.
         -1    1    6    6    0  503  0.10539888779E+02  0.65280426820E+02  0.35973006876E+02  0.75277357850E+02  0.00000000000E+00 0.  1.
<mgrwt>
<rscale>  0 0.24834657E+04</rscale>
<asrwt>0</asrwt>
<pdfrwt beam="1">  1        2 0.18839877E+00 0.24834657E+04</pdfrwt>
<pdfrwt beam="2">  1       -1 0.19370978E+00 0.24834657E+04</pdfrwt>
<totfact> 0.31020178E+00</totfact>
</mgrwt>
</event>
<event>
12    6  0.1627636E-007  0.1682574E+04  0.7818608E-02  0.8771366E-01
          2   -1    0    0  501    0  0.00000000000E+00  0.00000000000E+00  0.12091086804E+04  0.12091086804E+04  0.00000000000E+00 0. -1.
         -1   -1    0    0    0  501 -0.00000000000E+00 -0.00000000000E+00 -0.58536001304E+03  0.58536001304E+03  0.00000000000E+00 0.  1.
         24    2    1    2    0    0  0.13208257387E+03 -0.57604183431E+03  0.12480326423E+03  0.60937923664E+03  0.80605198918E+02 0.  0.
        254    2    1    2    0    0 -0.13208257387E+03  0.57604183431E+03  0.49894540309E+03  0.11850894568E+04  0.89789782497E+03 0.  0.
         23    2    4    4    0    0  0.37622304171E+03  0.29579343519E+03  0.24599012998E+03  0.54548296532E+03  0.89459420951E+02 0.  0.
         23    2    4    4    0    0 -0.50830561558E+03  0.28024839912E+03  0.25295527310E+03  0.63960649144E+03  0.90533583069E+02 0.  0.
          4    1    3    3  502    0  0.69231295329E+02 -0.35249703197E+03  0.11411565793E+03  0.37692109676E+03  0.00000000000E+00 0. -1.
         -3    1    3    3    0  502  0.62851278541E+02 -0.22354480234E+03  0.10687606300E+02  0.23245813988E+03  0.00000000000E+00 0.  1.
         11    1    5    5    0    0  0.26183315509E+02  0.40320652383E+02  0.18955184961E+01  0.48113553289E+02  0.00000000000E+00 0. -1.
        -11    1    5    5    0    0  0.35003972620E+03  0.25547278280E+03  0.24409461149E+03  0.49736941204E+03  0.00000000000E+00 0.  1.
          4    1    6    6  503    0  0.38575663075E+01  0.24547767916E+01  0.44758452859E+00  0.45942440971E+01  0.00000000000E+00 0. -1.
         -4    1    6    6    0  503 -0.51216318189E+03  0.27779362233E+03  0.25250768858E+03  0.63501224734E+03  0.00000000000E+00 0.  1.
<mgrwt>
<rscale>  0 0.16825741E+04</rscale>
<asrwt>0</asrwt>
<pdfrwt beam="1">  1        2 0.18601672E+00 0.16825741E+04</pdfrwt>
<pdfrwt beam="2">  1       -1 0.90055387E-01 0.16825741E+04</pdfrwt>
<totfact> 0.24517847E+01</totfact>
</mgrwt>
</event>
<event>
12    6  0.1627636E-007  0.1637897E+04  0.7818608E-02  0.8797599E-01
          2   -1    0    0  501    0  0.00000000000E+00  0.00000000000E+00  0.32804600921E+04  0.32804600921E+04  0.00000000000E+00 0. -1.
         -1   -1    0    0    0  501 -0.00000000000E+00 -0.00000000000E+00 -0.20444586076E+03  0.20444586076E+03  0.00000000000E+00 0.  1.
         24    2    1    2    0    0  0.69664595699E+02  0.32709901008E+03  0.10287316461E+03  0.35858949261E+03  0.78464118706E+02 0.  0.
        254    2    1    2    0    0 -0.69664595699E+02 -0.32709901008E+03  0.29731410667E+04  0.31263164602E+04  0.90688471631E+03 0.  0.
         23    2    4    4    0    0 -0.45019367733E+03 -0.24865449573E+03  0.12006056370E+04  0.13093979971E+04  0.92551680941E+02 0.  0.
         23    2    4    4    0    0  0.38052908163E+03 -0.78444514358E+02  0.17725354297E+04  0.18169184632E+04  0.91405298491E+02 0.  0.
          2    1    3    3  502    0 -0.13155181396E+02  0.85702781959E+02  0.41393583383E+02  0.96080457838E+02  0.00000000000E+00 0. -1.
         -1    1    3    3    0  502  0.82819777095E+02  0.24139622813E+03  0.61479581223E+02  0.26250903477E+03  0.00000000000E+00 0.  1.
         11    1    5    5    0    0 -0.47964589522E+02 -0.32278947073E+02  0.22282365714E+03  0.23020189933E+03  0.00000000000E+00 0. -1.
        -11    1    5    5    0    0 -0.40222908781E+03 -0.21637554865E+03  0.97778197989E+03  0.10791960977E+04  0.00000000000E+00 0.  1.
          3    1    6    6  503    0  0.14977168522E+03 -0.17159464395E+02  0.50210620260E+03  0.52424864673E+03  0.00000000000E+00 0. -1.
         -3    1    6    6    0  503  0.23075739642E+03 -0.61285049963E+02  0.12704292271E+04  0.12926698165E+04  0.00000000000E+00 0.  1.
<mgrwt>
<rscale>  0 0.16378968E+04</rscale>
<asrwt>0</asrwt>
<pdfrwt beam="1">  1        2 0.50468613E+00 0.16378968E+04</pdfrwt>
<pdfrwt beam="2">  1       -1 0.31453212E-01 0.16378968E+04</pdfrwt>
<totfact> 0.11828620E+01</totfact>
</mgrwt>
</event>
<event>
12    6  0.1627636E-007  0.1445896E+04  0.7818608E-02  0.8921251E-01
          2   -1    0    0  501    0  0.00000000000E+00  0.00000000000E+00  0.72759177602E+03  0.72759177602E+03  0.00000000000E+00 0. -1.
         -1   -1    0    0    0  501 -0.00000000000E+00 -0.00000000000E+00 -0.71833399105E+03  0.71833399105E+03  0.00000000000E+00 0.  1.
         24    2    1    2    0    0 -0.26297492098E+03  0.15245383367E+03  0.30824693337E+03  0.44065203962E+03  0.82219630393E+02 0.  0.
        254    2    1    2    0    0  0.26297492098E+03 -0.15245383367E+03 -0.29898914841E+03  0.10052737274E+04  0.91037507422E+03 0.  0.
         23    2    4    4    0    0  0.90624622182E+02 -0.28328148015E+02 -0.60592843258E+03  0.62039300248E+03  0.93396498922E+02 0.  0.
         23    2    4    4    0    0  0.17235029879E+03 -0.12412568566E+03  0.30693928417E+03  0.38488072496E+03  0.93859666237E+02 0.  0.
          2    1    3    3  502    0 -0.21686302380E+03  0.12945186303E+03  0.29317792990E+03  0.38696337619E+03  0.00000000000E+00 0. -1.
         -1    1    3    3    0  502 -0.46111897180E+02  0.23001970646E+02  0.15069003473E+02  0.53688663429E+02  0.00000000000E+00 0.  1.
         11    1    5    5    0    0  0.30498410400E+02 -0.23586335314E+02 -0.61173924560E+02  0.72309869980E+02  0.00000000000E+00 0.  1.
        -11    1    5    5    0    0  0.60126211782E+02 -0.47418127014E+01 -0.54475450802E+03  0.54808313250E+03  0.00000000000E+00 0. -1.
          3    1    6    6  503    0  0.11211399581E+03 -0.12434392880E+03  0.25654704337E+03  0.30634514220E+03  0.00000000000E+00 0. -1.
         -3    1    6    6    0  503  0.60236302983E+02  0.21824314393E+00  0.50392240798E+02  0.78535582762E+02  0.00000000000E+00 0.  1.
<mgrwt>
<rscale>  0 0.14458961E+04</rscale>
<asrwt>0</asrwt>
<pdfrwt beam="1">  1        2 0.11193720E+00 0.14458961E+04</pdfrwt>
<pdfrwt beam="2">  1       -1 0.11051292E+00 0.14458961E+04</pdfrwt>
<totfact> 0.32625364E+01</totfact>
</mgrwt>
</event>
<event>
12    6  0.1627636E-007  0.1082196E+04  0.7818608E-02  0.9222721E-01
          2   -1    0    0  501    0  0.00000000000E+00  0.00000000000E+00  0.93019226916E+03  0.93019226916E+03  0.00000000000E+00 0. -1.
         -1   -1    0    0    0  501 -0.00000000000E+00 -0.00000000000E+00 -0.31475975023E+03  0.31475975023E+03  0.00000000000E+00 0.  1.
         24    2    1    2    0    0 -0.40390271047E+02 -0.92656799561E+02  0.16449877642E+02  0.13366146670E+03  0.85896057562E+02 0.  0.
        254    2    1    2    0    0  0.40390271047E+02  0.92656799561E+02  0.59898264129E+03  0.11112905527E+04  0.93057500043E+03 0.  0.
         23    2    4    4    0    0  0.44272862588E+03  0.11520180363E+03  0.12588219106E+03  0.48294127067E+03  0.90032511717E+02 0.  0.
         23    2    4    4    0    0 -0.40233835483E+03 -0.22545004065E+02  0.47310045023E+03  0.62834928202E+03  0.92813550875E+02 0.  0.
          2    1    3    3  502    0  0.43696539592E+01 -0.15634918368E+02  0.38592182021E+02  0.41867661282E+02  0.00000000000E+00 0. -1.
         -1    1    3    3    0  502 -0.44759925006E+02 -0.77021881193E+02 -0.22142304380E+02  0.91793805413E+02  0.00000000000E+00 0.  1.
         11    1    5    5    0    0  0.40921856087E+03  0.84309877604E+02  0.12895466623E+03  0.43726112560E+03  0.00000000000E+00 0. -1.
        -11    1    5    5    0    0  0.33510065008E+02  0.30891926021E+02 -0.30724751699E+01  0.45680145072E+02  0.00000000000E+00 0.  1.
          1    1    6    6  503    0 -0.27263096464E+03  0.62287212058E+01  0.25728281826E+03  0.37491450815E+03  0.00000000000E+00 0. -1.
         -1    1    6    6    0  503 -0.12970739019E+03 -0.28773725270E+02  0.21581763197E+03  0.25343477387E+03  0.00000000000E+00 0.  1.
<mgrwt>
<rscale>  0 0.10821961E+04</rscale>
<asrwt>0</asrwt>
<pdfrwt beam="1">  1        2 0.14310650E+00 0.10821961E+04</pdfrwt>
<pdfrwt beam="2">  1       -1 0.48424577E-01 0.10821961E+04</pdfrwt>
<totfact> 0.13528528E+02</totfact>
</mgrwt>
</event>
<event>
12    6  0.1627636E-007  0.1456519E+04  0.7818608E-02  0.8913894E-01
          2   -1    0    0  501    0  0.00000000000E+00  0.00000000000E+00  0.84494058782E+03  0.84494058782E+03  0.00000000000E+00 0. -1.
         -1   -1    0    0    0  501 -0.00000000000E+00 -0.00000000000E+00 -0.62769094820E+03  0.62769094820E+03  0.00000000000E+00 0.  1.
         24    2    1    2    0    0  0.72413178662E+02 -0.23338167559E+03 -0.30676201238E+03  0.39986038993E+03  0.77940517353E+02 0.  0.
        254    2    1    2    0    0 -0.72413178662E+02  0.23338167559E+03  0.52401165200E+03  0.10727711461E+04  0.90362550069E+03 0.  0.
         23    2    4    4    0    0  0.71289653260E+02 -0.32690363912E+03  0.23750325439E+03  0.42025590703E+03  0.90879192418E+02 0.  0.
         23    2    4    4    0    0 -0.14370283192E+03  0.56028531472E+03  0.28650839761E+03  0.65251523906E+03  0.95493128094E+02 0.  0.
          2    1    3    3  502    0 -0.44984277564E+01  0.10921333251E+01 -0.24528896547E+02  0.24961878401E+02  0.00000000000E+00 0. -1.
         -1    1    3    3    0  502  0.76911606419E+02 -0.23447380892E+03 -0.28223311583E+03  0.37489851152E+03  0.00000000000E+00 0.  1.
         11    1    5    5    0    0  0.84710567279E+02 -0.31302023950E+03  0.20888963635E+03  0.38573621909E+03  0.00000000000E+00 0.  1.
        -11    1    5    5    0    0 -0.13420914019E+02 -0.13883399627E+02  0.28613618037E+02  0.34519687939E+02  0.00000000000E+00 0. -1.
          2    1    6    6  503    0 -0.64110439676E+02  0.15945182455E+03  0.44318239703E+02  0.17747996844E+03  0.00000000000E+00 0. -1.
         -2    1    6    6    0  503 -0.79592392246E+02  0.40083349017E+03  0.24219015791E+03  0.47503527062E+03  0.00000000000E+00 0.  1.
<mgrwt>
<rscale>  0 0.14565185E+04</rscale>
<asrwt>0</asrwt>
<pdfrwt beam="1">  1        2 0.12999086E+00 0.14565185E+04</pdfrwt>
<pdfrwt beam="2">  1       -1 0.96567839E-01 0.14565185E+04</pdfrwt>
<totfact> 0.36550787E+01</totfact>
</mgrwt>
</event>
<event>
12    6  0.1627636E-007  0.1581485E+04  0.7818608E-02  0.8832004E-01
         -1   -1    0    0    0  501 -0.00000000000E+00  0.00000000000E+00  0.33069358023E+03  0.33069358023E+03  0.00000000000E+00 0.  1.
          2   -1    0    0  501    0  0.00000000000E+00 -0.00000000000E+00 -0.18907939074E+04  0.18907939074E+04  0.00000000000E+00 0. -1.
         24    2    1    2    0    0  0.46709779783E+03  0.15128498922E+02 -0.17796326586E+03  0.50627493480E+03  0.78956705866E+02 0.  0.
        254    2    1    2    0    0 -0.46709779783E+03 -0.15128498922E+02 -0.13821370614E+04  0.17152125529E+04  0.90179932411E+03 0.  0.
         23    2    4    4    0    0 -0.14628421600E+03 -0.28603902330E+03 -0.12044976294E+04  0.12498720765E+04  0.90267789256E+02 0.  0.
         23    2    4    4    0    0 -0.32081358183E+03  0.27091052438E+03 -0.17763943198E+03  0.46534047637E+03  0.93124243049E+02 0.  0.
          2    1    3    3  502    0  0.29089269088E+03  0.37600655667E+02 -0.13823099735E+03  0.32425325834E+03  0.00000000000E+00 0. -1.
         -1    1    3    3    0  502  0.17620510695E+03 -0.22472156745E+02 -0.39732268510E+02  0.18202167647E+03  0.00000000000E+00 0.  1.
         11    1    5    5    0    0 -0.11243237930E+03 -0.13774273003E+03 -0.55432060995E+03  0.58213867609E+03  0.00000000000E+00 0. -1.
        -11    1    5    5    0    0 -0.33851836701E+02 -0.14829629328E+03 -0.65017701942E+03  0.66773340041E+03  0.00000000000E+00 0.  1.
          3    1    6    6  503    0 -0.20353557207E+03  0.22240790188E+03 -0.14364292435E+03  0.33395402922E+03  0.00000000000E+00 0. -1.
         -3    1    6    6    0  503 -0.11727800976E+03  0.48502622501E+02 -0.33996507631E+02  0.13138644714E+03  0.00000000000E+00 0.  1.
<mgrwt>
<rscale>  0 0.15814846E+04</rscale>
<asrwt>0</asrwt>
<pdfrwt beam="1">  1        2 0.29089137E+00 0.15814846E+04</pdfrwt>
<pdfrwt beam="2">  1       -1 0.50875935E-01 0.15814846E+04</pdfrwt>
<totfact> 0.32636518E+01</totfact>
</mgrwt>
</event>
<event>
12    6  0.1627636E-007  0.1183184E+04  0.7818608E-02  0.9127704E-01
          2   -1    0    0  501    0  0.00000000000E+00  0.00000000000E+00  0.26754812506E+04  0.26754812506E+04  0.00000000000E+00 0. -1.
         -1   -1    0    0    0  501 -0.00000000000E+00 -0.00000000000E+00 -0.13081047559E+03  0.13081047559E+03  0.00000000000E+00 0.  1.
         24    2    1    2    0    0  0.17707069777E+02  0.19007747628E+03  0.20110495821E+03  0.28938591528E+03  0.82813141676E+02 0.  0.
        254    2    1    2    0    0 -0.17707069777E+02 -0.19007747628E+03  0.23435658168E+04  0.25169058110E+04  0.89781464459E+03 0.  0.
         23    2    4    4    0    0 -0.20463965733E+03 -0.39462104391E+03  0.61814194699E+03  0.76661909719E+03  0.89455105463E+02 0.  0.
         23    2    4    4    0    0  0.18693258755E+03  0.20454356763E+03  0.17254238698E+04  0.17502867138E+04  0.98153891395E+02 0.  0.
          4    1    3    3  502    0 -0.19705675222E+02  0.37156699361E+02  0.12847070303E+02  0.43977052638E+02  0.00000000000E+00 0. -1.
         -1    1    3    3    0  502  0.37412745000E+02  0.15292077692E+03  0.18825788791E+03  0.24540886264E+03  0.00000000000E+00 0.  1.
         11    1    5    5    0    0 -0.17775560934E+03 -0.38493238218E+03  0.56647713165E+03  0.70757779515E+03  0.00000000000E+00 0. -1.
        -11    1    5    5    0    0 -0.26884047994E+02 -0.96886617333E+01  0.51664815338E+02  0.59041302040E+02  0.00000000000E+00 0.  1.
          1    1    6    6  503    0  0.18280024811E+03  0.15477695548E+03  0.15272017618E+04  0.15458709707E+04  0.00000000000E+00 0. -1.
         -1    1    6    6    0  503  0.41323394405E+01  0.49766612147E+02  0.19822210804E+03  0.20441574310E+03  0.00000000000E+00 0.  1.
<mgrwt>
<rscale>  0 0.11831838E+04</rscale>
<asrwt>0</asrwt>
<pdfrwt beam="1">  1        2 0.41161246E+00 0.11831838E+04</pdfrwt>
<pdfrwt beam="2">  1       -1 0.20124691E-01 0.11831838E+04</pdfrwt>
<totfact> 0.63134965E+01</totfact>
</mgrwt>
</event>
<event>
12    6  0.1627636E-007  0.2325833E+04  0.7818608E-02  0.8467804E-01
         -1   -1    0    0    0  501 -0.00000000000E+00  0.00000000000E+00  0.14672787421E+04  0.14672787421E+04  0.00000000000E+00 0.  1.
          2   -1    0    0  501    0  0.00000000000E+00 -0.00000000000E+00 -0.92168943196E+03  0.92168943196E+03  0.00000000000E+00 0. -1.
         24    2    1    2    0    0 -0.64830060034E+03  0.31308544044E+03  0.92528397823E+03  0.11751765064E+04  0.81075393762E+02 0.  0.
        254    2    1    2    0    0  0.64830060034E+03 -0.31308544044E+03 -0.37969466805E+03  0.12137916677E+04  0.90044767208E+03 0.  0.
         23    2    4    4    0    0  0.53234209234E+02 -0.16826953099E+03  0.25818101416E+03  0.32466313323E+03  0.87179113983E+02 0.  0.
         23    2    4    4    0    0  0.59506639110E+03 -0.14481590945E+03 -0.63787568221E+03  0.88912853445E+03  0.92674200129E+02 0.  0.
          2    1    3    3  502    0 -0.67763799267E+02  0.62215435644E+02  0.11188001401E+03  0.14484415921E+03  0.00000000000E+00 0. -1.
         -3    1    3    3    0  502 -0.58053680107E+03  0.25087000480E+03  0.81340396422E+03  0.10303323472E+04  0.00000000000E+00 0.  1.
         11    1    5    5    0    0  0.38073370627E+02 -0.16767020429E+03  0.25730491428E+03  0.30946518038E+03  0.00000000000E+00 0. -1.
        -11    1    5    5    0    0  0.15160838607E+02 -0.59932670382E+00  0.87609987717E+00  0.15197952848E+02  0.00000000000E+00 0.  1.
          3    1    6    6  503    0  0.49683439852E+03 -0.15244388827E+03 -0.55552365343E+03  0.76071682520E+03  0.00000000000E+00 0. -1.
         -3    1    6    6    0  503  0.98231992587E+02  0.76279788256E+01 -0.82352028775E+02  0.12841170925E+03  0.00000000000E+00 0.  1.
<mgrwt>
<rscale>  0 0.23258335E+04</rscale>
<asrwt>0</asrwt>
<pdfrwt beam="1">  1        2 0.14179837E+00 0.23258335E+04</pdfrwt>
<pdfrwt beam="2">  1       -1 0.22573519E+00 0.23258335E+04</pdfrwt>
<totfact> 0.29473074E+00</totfact>
</mgrwt>
</event>
<event>
12    6  0.1627636E-007  0.1299725E+04  0.7818608E-02  0.9029783E-01
          2   -1    0    0  501    0  0.00000000000E+00  0.00000000000E+00  0.82737553860E+03  0.82737553860E+03  0.00000000000E+00 0. -1.
         -1   -1    0    0    0  501 -0.00000000000E+00 -0.00000000000E+00 -0.51043490790E+03  0.51043490790E+03  0.00000000000E+00 0.  1.
         24    2    1    2    0    0 -0.62670551276E+02  0.32110950350E+03  0.11066883184E+03  0.35465082606E+03  0.80564923168E+02 0.  0.
        254    2    1    2    0    0  0.62670551276E+02 -0.32110950350E+03  0.20627179886E+03  0.98315962044E+03  0.90388930352E+03 0.  0.
         23    2    4    4    0    0  0.89584829424E+02 -0.62024251137E+03  0.21548128381E+03  0.66900318616E+03  0.91688957060E+02 0.  0.
         23    2    4    4    0    0 -0.26914278148E+02  0.29913300787E+03 -0.92094849475E+01  0.31415643428E+03  0.91676146396E+02 0.  0.
          2    1    3    3  502    0 -0.51329762336E+02  0.13149260622E+03  0.79955847224E+02  0.16222819575E+03  0.00000000000E+00 0. -1.
         -1    1    3    3    0  502 -0.11340788940E+02  0.18961689728E+03  0.30712984614E+02  0.19242263030E+03  0.00000000000E+00 0.  1.
         11    1    5    5    0    0  0.54501953802E+02 -0.19625754111E+03  0.10643114358E+03  0.22981530352E+03  0.00000000000E+00 0.  1.
        -11    1    5    5    0    0  0.35082875622E+02 -0.42398497027E+03  0.10905014022E+03  0.43918788264E+03  0.00000000000E+00 0. -1.
          2    1    6    6  503    0 -0.57908607666E+02  0.22533457865E+03  0.57503001559E+01  0.23272762004E+03  0.00000000000E+00 0. -1.
         -2    1    6    6    0  503  0.30994329518E+02  0.73798429223E+02 -0.14959785103E+02  0.81428814239E+02  0.00000000000E+00 0.  1.
<mgrwt>
<rscale>  0 0.12997251E+04</rscale>
<asrwt>0</asrwt>
<pdfrwt beam="1">  1        2 0.12728854E+00 0.12997251E+04</pdfrwt>
<pdfrwt beam="2">  1       -1 0.78528447E-01 0.12997251E+04</pdfrwt>
<totfact> 0.59806552E+01</totfact>
</mgrwt>
</event>
<event>
12    6  0.1627636E-007  0.2071026E+04  0.7818608E-02  0.8574115E-01
         -1   -1    0    0    0  501 -0.00000000000E+00  0.00000000000E+00  0.39973876640E+03  0.39973876640E+03  0.00000000000E+00 0.  1.
          2   -1    0    0  501    0  0.00000000000E+00 -0.00000000000E+00 -0.26824702446E+04  0.26824702446E+04  0.00000000000E+00 0. -1.
         24    2    1    2    0    0 -0.48895000109E+03  0.31456475373E+03 -0.29147745958E+02  0.58724828195E+03  0.77381300752E+02 0.  0.
        254    2    1    2    0    0  0.48895000109E+03 -0.31456475373E+03 -0.22535837322E+04  0.24949607290E+04  0.89898070802E+03 0.  0.
         23    2    4    4    0    0 -0.15139915883E+03 -0.21921092922E+03 -0.13535786907E+04  0.13825913744E+04  0.91697872205E+02 0.  0.
         23    2    4    4    0    0  0.64034915992E+03 -0.95353824501E+02 -0.90000504150E+03  0.11123693546E+04  0.90648265067E+02 0.  0.
          4    1    3    3  502    0 -0.45192017813E+02  0.52949818689E+01  0.10025721437E+01  0.45512201198E+02  0.00000000000E+00 0. -1.
         -3    1    3    3    0  502 -0.44375798328E+03  0.30926977186E+03 -0.30150318102E+02  0.54173608076E+03  0.00000000000E+00 0.  1.
         11    1    5    5    0    0 -0.12775701943E+03 -0.10762806250E+03 -0.84956369234E+03  0.86583146351E+03  0.00000000000E+00 0. -1.
        -11    1    5    5    0    0 -0.23642139397E+02 -0.11158286672E+03 -0.50401499839E+03  0.51675991089E+03  0.00000000000E+00 0.  1.
          3    1    6    6  503    0  0.50356273603E+03 -0.41395923811E+02 -0.66540761418E+03  0.83549766285E+03  0.00000000000E+00 0. -1.
         -3    1    6    6    0  503  0.13678642390E+03 -0.53957900690E+02 -0.23459742732E+03  0.27687169179E+03  0.00000000000E+00 0.  1.
<mgrwt>
<rscale>  0 0.20710262E+04</rscale>
<asrwt>0</asrwt>
<pdfrwt beam="1">  1        2 0.41268774E+00 0.20710262E+04</pdfrwt>
<pdfrwt beam="2">  1       -1 0.61498271E-01 0.20710262E+04</pdfrwt>
<totfact> 0.76754134E+00</totfact>
</mgrwt>
</event>
<event>
12    6  0.1627636E-007  0.2720699E+04  0.7818608E-02  0.8328320E-01
          2   -1    0    0  501    0  0.00000000000E+00  0.00000000000E+00  0.29721682237E+04  0.29721682237E+04  0.00000000000E+00 0. -1.
         -1   -1    0    0    0  501 -0.00000000000E+00 -0.00000000000E+00 -0.62262662099E+03  0.62262662099E+03  0.00000000000E+00 0.  1.
         24    2    1    2    0    0 -0.71650134206E+03 -0.74067774000E+03  0.18829442962E+04  0.21476642820E+04  0.70745726877E+02 0.  0.
        254    2    1    2    0    0  0.71650134206E+03  0.74067774000E+03  0.46659730650E+03  0.14471305627E+04  0.90249439405E+03 0.  0.
         23    2    4    4    0    0  0.11027337867E+03  0.37335024636E+03 -0.21763044754E+03  0.45767568390E+03  0.10272972034E+03 0.  0.
         23    2    4    4    0    0  0.60622796339E+03  0.36732749364E+03  0.68422775404E+03  0.98945487878E+03  0.91714265783E+02 0.  0.
          4    1    3    3  502    0 -0.64222561450E+03 -0.69212610660E+03  0.17170937388E+04  0.19595670939E+04  0.00000000000E+00 0. -1.
         -3    1    3    3    0  502 -0.74275727563E+02 -0.48551633398E+02  0.16585055732E+03  0.18809718811E+03  0.00000000000E+00 0.  1.
         11    1    5    5    0    0  0.11109291278E+03  0.37609428548E+03 -0.22333338336E+03  0.45129408035E+03  0.00000000000E+00 0. -1.
        -11    1    5    5    0    0 -0.81953410996E+00 -0.27440391258E+01  0.57029358173E+01  0.63816035460E+01  0.00000000000E+00 0.  1.
          3    1    6    6  503    0  0.54547361291E+03  0.30848523317E+03  0.56844253545E+03  0.84606827004E+03  0.00000000000E+00 0. -1.
         -3    1    6    6    0  503  0.60754350487E+02  0.58842260469E+02  0.11578521859E+03  0.14338660873E+03  0.00000000000E+00 0.  1.
<mgrwt>
<rscale>  0 0.27206992E+04</rscale>
<asrwt>0</asrwt>
<pdfrwt beam="1">  1        2 0.45725664E+00 0.27206992E+04</pdfrwt>
<pdfrwt beam="2">  1       -1 0.95788713E-01 0.27206992E+04</pdfrwt>
<totfact> 0.18957774E+00</totfact>
</mgrwt>
</event>
<event>
12    6  0.1627636E-007  0.3708375E+04  0.7818608E-02  0.8066108E-01
          2   -1    0    0  501    0  0.00000000000E+00  0.00000000000E+00  0.28866856126E+04  0.28866856126E+04  0.00000000000E+00 0. -1.
         -1   -1    0    0    0  501 -0.00000000000E+00 -0.00000000000E+00 -0.11909893941E+04  0.11909893941E+04  0.00000000000E+00 0.  1.
         24    2    1    2    0    0  0.14916206938E+04 -0.25557359903E+03  0.17507145415E+04  0.23155117067E+04  0.79642323228E+02 0.  0.
        254    2    1    2    0    0 -0.14916206938E+04  0.25557359903E+03 -0.55018322997E+02  0.17621633000E+04  0.90107842126E+03 0.  0.
         23    2    4    4    0    0 -0.11993351369E+04 -0.14495301428E+03 -0.22100371871E+03  0.12315127882E+04  0.91460137972E+02 0.  0.
         23    2    4    4    0    0 -0.29228555688E+03  0.40052661330E+03  0.16598539571E+03  0.53065051178E+03  0.90478723115E+02 0.  0.
          4    1    3    3  502    0  0.93433384708E+03 -0.14024421942E+03  0.10413444338E+04  0.14060748233E+04  0.00000000000E+00 0. -1.
         -3    1    3    3    0  502  0.55728684671E+03 -0.11532937961E+03  0.70937010767E+03  0.90943688344E+03  0.00000000000E+00 0.  1.
         11    1    5    5    0    0 -0.21210158807E+03 -0.59935083498E+02 -0.49407888145E+02  0.22587704024E+03  0.00000000000E+00 0. -1.
        -11    1    5    5    0    0 -0.98723354884E+03 -0.85017930781E+02 -0.17159583056E+03  0.10056357480E+04  0.00000000000E+00 0.  1.
          4    1    6    6  503    0 -0.71699842533E+02  0.56465381543E+02  0.50462636129E+01  0.91403892196E+02  0.00000000000E+00 0. -1.
         -4    1    6    6    0  503 -0.22058571434E+03  0.34406123176E+03  0.16093913210E+03  0.43924661958E+03  0.00000000000E+00 0.  1.
<mgrwt>
<rscale>  0 0.37083754E+04</rscale>
<asrwt>0</asrwt>
<pdfrwt beam="1">  1        2 0.44410548E+00 0.37083754E+04</pdfrwt>
<pdfrwt beam="2">  1       -1 0.18322914E+00 0.37083754E+04</pdfrwt>
<totfact> 0.37047022E-01</totfact>
</mgrwt>
</event>
<event>
12    6  0.1627636E-007  0.2118457E+04  0.7818608E-02  0.8553156E-01
          2   -1    0    0  501    0  0.00000000000E+00  0.00000000000E+00  0.48348233549E+04  0.48348233549E+04  0.00000000000E+00 0. -1.
         -1   -1    0    0    0  501 -0.00000000000E+00 -0.00000000000E+00 -0.23205916447E+03  0.23205916447E+03  0.00000000000E+00 0.  1.
         24    2    1    2    0    0 -0.22777902255E+03  0.47343329834E+03  0.24341322001E+03  0.58465751953E+03  0.80944724230E+02 0.  0.
        254    2    1    2    0    0  0.22777902255E+03 -0.47343329834E+03  0.43593509704E+04  0.44822249999E+04  0.90020980599E+03 0.  0.
         23    2    4    4    0    0  0.31325994914E+03 -0.68135155282E+03  0.26431716761E+04  0.27489565550E+04  0.89632011121E+02 0.  0.
         23    2    4    4    0    0 -0.85480926589E+02  0.20791825448E+03  0.17161792943E+04  0.17332684449E+04  0.91712280704E+02 0.  0.
          2    1    3    3  502    0 -0.30802301845E+01  0.43530123749E+01  0.16233325231E+02  0.17086760453E+02  0.00000000000E+00 0. -1.
         -1    1    3    3    0  502 -0.22469879237E+03  0.46908028596E+03  0.22717989478E+03  0.56757075908E+03  0.00000000000E+00 0.  1.
         11    1    5    5    0    0  0.25451703599E+03 -0.49966207273E+03  0.18495509182E+04  0.19326871727E+04  0.00000000000E+00 0. -1.
        -11    1    5    5    0    0  0.58742913151E+02 -0.18168948008E+03  0.79362075795E+03  0.81626938229E+03  0.00000000000E+00 0.  1.
          3    1    6    6  503    0 -0.72630719273E+02  0.16006079260E+03  0.15478247418E+04  0.15577728044E+04  0.00000000000E+00 0. -1.
         -3    1    6    6    0  503 -0.12850207317E+02  0.47857461884E+02  0.16835455252E+03  0.17549564051E+03  0.00000000000E+00 0.  1.
<mgrwt>
<rscale>  0 0.21184570E+04</rscale>
<asrwt>0</asrwt>
<pdfrwt beam="1">  1        2 0.74381890E+00 0.21184570E+04</pdfrwt>
<pdfrwt beam="2">  1       -1 0.35701413E-01 0.21184570E+04</pdfrwt>
<totfact> 0.43372997E-01</totfact>
</mgrwt>
</event>
<event>
12    6  0.1627636E-007  0.1659126E+04  0.7818608E-02  0.8785026E-01
         -1   -1    0    0    0  501 -0.00000000000E+00  0.00000000000E+00  0.10495634291E+04  0.10495634291E+04  0.00000000000E+00 0.  1.
          2   -1    0    0  501    0  0.00000000000E+00 -0.00000000000E+00 -0.65567736385E+03  0.65567736385E+03  0.00000000000E+00 0. -1.
         24    2    1    2    0    0  0.13061587723E+03 -0.30916816004E+03 -0.35272431409E+03  0.49324506394E+03  0.78935370905E+02 0.  0.
        254    2    1    2    0    0 -0.13061587723E+03  0.30916816004E+03  0.74661037933E+03  0.12119957290E+04  0.89379031657E+03 0.  0.
         23    2    4    4    0    0 -0.14171174722E+03  0.91030052964E+02 -0.17609674873E+03  0.25961962524E+03  0.89574522347E+02 0.  0.
         23    2    4    4    0    0  0.11095869994E+02  0.21813810708E+03  0.92270712805E+03  0.95237610375E+03  0.89019361601E+02 0.  0.
          2    1    3    3  502    0  0.11893595338E+03 -0.30914944661E+03 -0.32931684847E+03  0.46708535412E+03  0.00000000000E+00 0. -1.
         -1    1    3    3    0  502  0.11679923850E+02 -0.18713438917E-01 -0.23407465615E+02  0.26159709820E+02  0.00000000000E+00 0.  1.
         11    1    5    5    0    0 -0.49882737346E+01  0.23366769774E+02 -0.69563616945E+02  0.73552604352E+02  0.00000000000E+00 0. -1.
        -11    1    5    5    0    0 -0.13672347349E+03  0.67663283190E+02 -0.10653313178E+03  0.18606702089E+03  0.00000000000E+00 0.  1.
          1    1    6    6  503    0  0.29889348333E+02  0.20934067519E+03  0.87771772088E+03  0.90283181656E+03  0.00000000000E+00 0. -1.
         -1    1    6    6    0  503 -0.18793478339E+02  0.87974318862E+01  0.44989407170E+02  0.49544287192E+02  0.00000000000E+00 0.  1.
<mgrwt>
<rscale>  0 0.16591263E+04</rscale>
<asrwt>0</asrwt>
<pdfrwt beam="1">  1        2 0.10087344E+00 0.16591263E+04</pdfrwt>
<pdfrwt beam="2">  1       -1 0.16147130E+00 0.16591263E+04</pdfrwt>
<totfact> 0.13814187E+01</totfact>
</mgrwt>
</event>
<event>
12    6  0.1627636E-007  0.2491028E+04  0.7818608E-02  0.8406189E-01
          2   -1    0    0  501    0  0.00000000000E+00  0.00000000000E+00  0.22848125955E+04  0.22848125955E+04  0.00000000000E+00 0. -1.
         -1   -1    0    0    0  501 -0.00000000000E+00 -0.00000000000E+00 -0.67896381312E+03  0.67896381312E+03  0.00000000000E+00 0.  1.
         24    2    1    2    0    0 -0.78429491747E+03  0.32909748154E+03 -0.97309318513E+02  0.85989026543E+03  0.80737198223E+02 0.  0.
        254    2    1    2    0    0  0.78429491747E+03 -0.32909748154E+03  0.17031581009E+04  0.21038861432E+04  0.89563704535E+03 0.  0.
         23    2    4    4    0    0  0.18846648595E+03 -0.46002741663E+03  0.34397830788E+03  0.61151259456E+03  0.92096344307E+02 0.  0.
         23    2    4    4    0    0  0.59582843152E+03  0.13092993508E+03  0.13591797930E+04  0.14923735487E+04  0.87492464013E+02 0.  0.
          2    1    3    3  502    0 -0.44630589115E+03  0.17390606965E+03 -0.16375526696E+02  0.47927072455E+03  0.00000000000E+00 0. -1.
         -1    1    3    3    0  502 -0.33798902632E+03  0.15519141189E+03 -0.80933791817E+02  0.38061954087E+03  0.00000000000E+00 0.  1.
         11    1    5    5    0    0  0.17345355962E+03 -0.42153379775E+03  0.27875754092E+03  0.53430576135E+03  0.00000000000E+00 0. -1.
        -11    1    5    5    0    0  0.15012926331E+02 -0.38493618876E+02  0.65220766959E+02  0.77206833207E+02  0.00000000000E+00 0.  1.
          3    1    6    6  503    0  0.49168330740E+03  0.73433440093E+02  0.11110107007E+04  0.12171646241E+04  0.00000000000E+00 0. -1.
         -3    1    6    6    0  503  0.10414512411E+03  0.57496494989E+02  0.24816909230E+03  0.27520892461E+03  0.00000000000E+00 0.  1.
<mgrwt>
<rscale>  0 0.24910280E+04</rscale>
<asrwt>0</asrwt>
<pdfrwt beam="1">  1        2 0.35150963E+00 0.24910280E+04</pdfrwt>
<pdfrwt beam="2">  1       -1 0.10445597E+00 0.24910280E+04</pdfrwt>
<totfact> 0.40453173E+00</totfact>
</mgrwt>
</event>
<event>
12    6  0.1627636E-007  0.2491365E+04  0.7818608E-02  0.8406068E-01
         -1   -1    0    0    0  501 -0.00000000000E+00  0.00000000000E+00  0.94536272570E+03  0.94536272570E+03  0.00000000000E+00 0.  1.
          2   -1    0    0  501    0  0.00000000000E+00 -0.00000000000E+00 -0.16414063896E+04  0.16414063896E+04  0.00000000000E+00 0. -1.
         24    2    1    2    0    0 -0.73752607269E+03 -0.11740389623E+03  0.47780201937E+03  0.89021741108E+03  0.80398299303E+02 0.  0.
        254    2    1    2    0    0  0.73752607269E+03  0.11740389623E+03 -0.11738456833E+04  0.16965517042E+04  0.97089938417E+03 0.  0.
         23    2    4    4    0    0  0.45488180181E+03 -0.37574842399E+03 -0.35187737581E+03  0.69306394999E+03  0.91736685230E+02 0.  0.
         23    2    4    4    0    0  0.28264427088E+03  0.49315232022E+03 -0.82196830745E+03  0.10034877542E+04  0.90932830178E+02 0.  0.
          2    1    3    3  502    0 -0.22823014312E+03 -0.65990143784E+02  0.17941612214E+03  0.29771436342E+03  0.00000000000E+00 0. -1.
         -1    1    3    3    0  502 -0.50929592958E+03 -0.51413752447E+02  0.29838589723E+03  0.59250304766E+03  0.00000000000E+00 0.  1.
         11    1    5    5    0    0  0.10466733090E+03 -0.71450512614E+02 -0.35832987885E+02  0.13169824954E+03  0.00000000000E+00 0. -1.
        -11    1    5    5    0    0  0.35021447091E+03 -0.30429791138E+03 -0.31604438793E+03  0.56136570045E+03  0.00000000000E+00 0.  1.
          4    1    6    6  503    0  0.20407967674E+03  0.27328025833E+03 -0.51776977579E+03  0.62001302790E+03  0.00000000000E+00 0. -1.
         -4    1    6    6    0  503  0.78564594140E+02  0.21987206189E+03 -0.30419853166E+03  0.38347472631E+03  0.00000000000E+00 0.  1.
<mgrwt>
<rscale>  0 0.24913646E+04</rscale>
<asrwt>0</asrwt>
<pdfrwt beam="1">  1        2 0.25252406E+00 0.24913646E+04</pdfrwt>
<pdfrwt beam="2">  1       -1 0.14544042E+00 0.24913646E+04</pdfrwt>
<totfact> 0.40725641E+00</totfact>
</mgrwt>
</event>
<event>
12    6  0.1627636E-007  0.2325249E+04  0.7818608E-02  0.8468032E-01
          2   -1    0    0  501    0  0.00000000000E+00  0.00000000000E+00  0.10678484283E+04  0.10678484283E+04  0.00000000000E+00 0. -1.
         -1   -1    0    0    0  501 -0.00000000000E+00 -0.00000000000E+00 -0.12658118361E+04  0.12658118361E+04  0.00000000000E+00 0.  1.
         24    2    1    2    0    0 -0.91834648568E+03 -0.32973945890E+03  0.11720907423E+03  0.98606404332E+03  0.80597468541E+02 0.  0.
        254    2    1    2    0    0  0.91834648568E+03  0.32973945890E+03 -0.31517248200E+03  0.13475962211E+04  0.87441037455E+03 0.  0.
         23    2    4    4    0    0  0.85519878428E+03 -0.99541876476E+02 -0.18486654040E+03  0.88528867266E+03  0.91032139284E+02 0.  0.
         23    2    4    4    0    0  0.63147701399E+02  0.42928133538E+03 -0.13030594160E+03  0.46230754841E+03  0.92078954186E+02 0.  0.
          4    1    3    3  502    0 -0.71678823169E+03 -0.27866325351E+03  0.11852809440E+03  0.77813076479E+03  0.00000000000E+00 0. -1.
         -3    1    3    3    0  502 -0.20155825399E+03 -0.51076205391E+02 -0.13190201672E+01  0.20793327853E+03  0.00000000000E+00 0.  1.
         11    1    5    5    0    0  0.35919913007E+03  0.22658777604E+01 -0.66784416386E+02  0.36536188569E+03  0.00000000000E+00 0.  1.
        -11    1    5    5    0    0  0.49599965421E+03 -0.10180775424E+03 -0.11808212401E+03  0.51992678697E+03  0.00000000000E+00 0. -1.
          1    1    6    6  503    0 -0.31860670805E+01  0.25731421409E+03 -0.54682957329E+02  0.26307980086E+03  0.00000000000E+00 0. -1.
         -1    1    6    6    0  503  0.66333768479E+02  0.17196712128E+03 -0.75622984275E+02  0.19922774755E+03  0.00000000000E+00 0.  1.
<mgrwt>
<rscale>  0 0.23252485E+04</rscale>
<asrwt>0</asrwt>
<pdfrwt beam="1">  1        2 0.16428437E+00 0.23252485E+04</pdfrwt>
<pdfrwt beam="2">  1       -1 0.19474028E+00 0.23252485E+04</pdfrwt>
<totfact> 0.38521453E+00</totfact>
</mgrwt>
</event>
<event>
12    6  0.1627636E-007  0.1171758E+04  0.7818608E-02  0.9137943E-01
          2   -1    0    0  501    0  0.00000000000E+00  0.00000000000E+00  0.46307757539E+03  0.46307757539E+03  0.00000000000E+00 0. -1.
         -1   -1    0    0    0  501 -0.00000000000E+00 -0.00000000000E+00 -0.74124494562E+03  0.74124494562E+03  0.00000000000E+00 0.  1.
         24    2    1    2    0    0 -0.17992423995E+03 -0.59040961559E+02 -0.14492598169E+03  0.25132001864E+03  0.79370298820E+02 0.  0.
        254    2    1    2    0    0  0.17992423995E+03  0.59040961559E+02 -0.13324138853E+03  0.95300250237E+03  0.92444682629E+03 0.  0.
         23    2    4    4    0    0 -0.33796549605E+03 -0.14223692409E+03 -0.22266846891E+02  0.37887456096E+03  0.92725947676E+02 0.  0.
         23    2    4    4    0    0  0.51788973601E+03  0.20127788565E+03 -0.11097454164E+03  0.57412794141E+03  0.92655158027E+02 0.  0.
          2    1    3    3  502    0 -0.69291478753E+02  0.22143970877E+00 -0.15438779690E+02  0.70990942955E+02  0.00000000000E+00 0. -1.
         -1    1    3    3    0  502 -0.11063276120E+03 -0.59262401268E+02 -0.12948720200E+03  0.18032907568E+03  0.00000000000E+00 0.  1.
         11    1    5    5    0    0 -0.85615107717E+01  0.34902609997E+01  0.14082176595E+02  0.16846040668E+02  0.00000000000E+00 0. -1.
        -11    1    5    5    0    0 -0.32940398528E+03 -0.14572718509E+03 -0.36349023486E+02  0.36202852029E+03  0.00000000000E+00 0.  1.
          4    1    6    6  503    0  0.48896625354E+02  0.34892484032E+02  0.12609416321E+02  0.61378846461E+02  0.00000000000E+00 0. -1.
         -4    1    6    6    0  503  0.46899311065E+03  0.16638540162E+03 -0.12358395796E+03  0.51274909495E+03  0.00000000000E+00 0.  1.
<mgrwt>
<rscale>  0 0.11717575E+04</rscale>
<asrwt>0</asrwt>
<pdfrwt beam="1">  1        2 0.71242704E-01 0.11717575E+04</pdfrwt>
<pdfrwt beam="2">  1       -1 0.11403768E+00 0.11717575E+04</pdfrwt>
<totfact> 0.53325048E+01</totfact>
</mgrwt>
</event>
<event>
12    6  0.1627636E-007  0.1312559E+04  0.7818608E-02  0.9019665E-01
          2   -1    0    0  501    0  0.00000000000E+00  0.00000000000E+00  0.10625190509E+04  0.10625190509E+04  0.00000000000E+00 0. -1.
         -1   -1    0    0    0  501 -0.00000000000E+00 -0.00000000000E+00 -0.40535976490E+03  0.40535976490E+03  0.00000000000E+00 0.  1.
         24    2    1    2    0    0 -0.28272647164E+03 -0.95180495553E+02  0.13726260690E+03  0.33799343655E+03  0.80030965239E+02 0.  0.
        254    2    1    2    0    0  0.28272647164E+03  0.95180495553E+02  0.51989667914E+03  0.11298853793E+04  0.95778642131E+03 0.  0.
         23    2    4    4    0    0  0.52242429196E+03  0.20215999986E+03  0.61421666916E+03  0.83633740429E+03  0.91664228358E+02 0.  0.
         23    2    4    4    0    0 -0.23969782032E+03 -0.10697950430E+03 -0.94319990019E+02  0.29354797500E+03  0.91512259843E+02 0.  0.
          2    1    3    3  502    0 -0.36168752760E+02  0.87235356532E+01  0.36417289204E+02  0.52062440429E+02  0.00000000000E+00 0. -1.
         -1    1    3    3    0  502 -0.24655771888E+03 -0.10390403121E+03  0.10084531769E+03  0.28593099612E+03  0.00000000000E+00 0.  1.
         11    1    5    5    0    0  0.12946159243E+03  0.11351084517E+02  0.16031474989E+03  0.20637337538E+03  0.00000000000E+00 0. -1.
        -11    1    5    5    0    0  0.39296269954E+03  0.19080891534E+03  0.45390191927E+03  0.62996402891E+03  0.00000000000E+00 0.  1.
          2    1    6    6  503    0 -0.16840267981E+03 -0.58491515993E+02 -0.10463755328E+03  0.20671172576E+03  0.00000000000E+00 0.  1.
         -2    1    6    6    0  503 -0.71295140515E+02 -0.48487988309E+02  0.10317563256E+02  0.86836249245E+02  0.00000000000E+00 0. -1.
<mgrwt>
<rscale>  0 0.13125585E+04</rscale>
<asrwt>0</asrwt>
<pdfrwt beam="1">  1        2 0.16346447E+00 0.13125585E+04</pdfrwt>
<pdfrwt beam="2">  1       -1 0.62363041E-01 0.13125585E+04</pdfrwt>
<totfact> 0.66971102E+01</totfact>
</mgrwt>
</event>
<event>
12    6  0.1627636E-007  0.1571963E+04  0.7818608E-02  0.8837960E-01
          2   -1    0    0  501    0  0.00000000000E+00  0.00000000000E+00  0.15811316771E+04  0.15811316771E+04  0.00000000000E+00 0. -1.
         -1   -1    0    0    0  501 -0.00000000000E+00 -0.00000000000E+00 -0.39071197837E+03  0.39071197837E+03  0.00000000000E+00 0.  1.
         24    2    1    2    0    0  0.35242899620E+03 -0.20448861877E+03 -0.19979551798E+02  0.41551145212E+03  0.78922694947E+02 0.  0.
        254    2    1    2    0    0 -0.35242899620E+03  0.20448861877E+03  0.12103992506E+04  0.15563322034E+04  0.88942778737E+03 0.  0.
         23    2    4    4    0    0  0.19036841365E+02  0.32605215506E+03  0.10847234196E+04  0.11364440208E+04  0.90596391912E+02 0.  0.
         23    2    4    4    0    0 -0.37146583757E+03 -0.12156353629E+03  0.12567583101E+03  0.41988818263E+03  0.88017666287E+02 0.  0.
          2    1    3    3  502    0  0.55519421442E+02 -0.63380597225E+02  0.12479589255E+02  0.85177734238E+02  0.00000000000E+00 0. -1.
         -1    1    3    3    0  502  0.29690957476E+03 -0.14110802155E+03 -0.32459141053E+02  0.33033371788E+03  0.00000000000E+00 0.  1.
         11    1    5    5    0    0  0.10259569568E+02  0.24601446997E+02  0.19920189015E+03  0.20097731962E+03  0.00000000000E+00 0.  1.
        -11    1    5    5    0    0  0.87772717974E+01  0.30145070806E+03  0.88552152941E+03  0.93546670114E+03  0.00000000000E+00 0. -1.
          1    1    6    6  503    0 -0.28507682425E+02 -0.37178075926E+02  0.22278315209E+02  0.51876975773E+02  0.00000000000E+00 0. -1.
         -1    1    6    6    0  503 -0.34295815514E+03 -0.84385460361E+02  0.10339751580E+03  0.36801120686E+03  0.00000000000E+00 0.  1.
<mgrwt>
<rscale>  0 0.15719632E+04</rscale>
<asrwt>0</asrwt>
<pdfrwt beam="1">  1        2 0.24325102E+00 0.15719632E+04</pdfrwt>
<pdfrwt beam="2">  1       -1 0.60109536E-01 0.15719632E+04</pdfrwt>
<totfact> 0.35109443E+01</totfact>
</mgrwt>
</event>
<event>
12    6  0.1627636E-007  0.1574149E+04  0.7818608E-02  0.8836588E-01
         -1   -1    0    0    0  501 -0.00000000000E+00  0.00000000000E+00  0.64675637744E+03  0.64675637744E+03  0.00000000000E+00 0.  1.
          2   -1    0    0  501    0  0.00000000000E+00 -0.00000000000E+00 -0.95783606482E+03  0.95783606482E+03  0.00000000000E+00 0. -1.
         24    2    1    2    0    0  0.91623656136E+02 -0.39721160438E+03 -0.83314349154E+01  0.41590240339E+03  0.82057561009E+02 0.  0.
        254    2    1    2    0    0 -0.91623656136E+02  0.39721160438E+03 -0.30274825247E+03  0.11886900389E+04  0.10747816295E+04 0.  0.
         23    2    4    4    0    0 -0.39183775432E+03  0.59091351614E+03 -0.56578151129E+01  0.71496645967E+03  0.91811863675E+02 0.  0.
         23    2    4    4    0    0  0.30021409819E+03 -0.19370191175E+03 -0.29709043736E+03  0.47372357920E+03  0.92208275922E+02 0.  0.
          2    1    3    3  502    0  0.53963659743E+02 -0.23284724791E+03 -0.45300999947E+02  0.24327371010E+03  0.00000000000E+00 0. -1.
         -3    1    3    3    0  502  0.37659996392E+02 -0.16436435648E+03  0.36969565031E+02  0.17262869329E+03  0.00000000000E+00 0.  1.
         11    1    5    5    0    0 -0.10179846914E+03  0.22432457671E+03 -0.21239404448E+02  0.24725605420E+03  0.00000000000E+00 0. -1.
        -11    1    5    5    0    0 -0.29003928518E+03  0.36658893943E+03  0.15581589335E+02  0.46771040547E+03  0.00000000000E+00 0.  1.
          2    1    6    6  503    0  0.10309646820E+03 -0.11057072458E+03 -0.89793932092E+02  0.17583434571E+03  0.00000000000E+00 0. -1.
         -2    1    6    6    0  503  0.19711762999E+03 -0.83131187173E+02 -0.20729650527E+03  0.29788923349E+03  0.00000000000E+00 0.  1.
<mgrwt>
<rscale>  0 0.15741494E+04</rscale>
<asrwt>0</asrwt>
<pdfrwt beam="1">  1        2 0.14735939E+00 0.15741494E+04</pdfrwt>
<pdfrwt beam="2">  1       -1 0.99500981E-01 0.15741494E+04</pdfrwt>
<totfact> 0.28366001E+01</totfact>
</mgrwt>
</event>
<event>
12    6  0.1627636E-007  0.1597275E+04  0.7818608E-02  0.8822224E-01
         -1   -1    0    0    0  501 -0.00000000000E+00  0.00000000000E+00  0.34112799742E+03  0.34112799742E+03  0.00000000000E+00 0.  1.
          2   -1    0    0  501    0  0.00000000000E+00 -0.00000000000E+00 -0.18697442884E+04  0.18697442884E+04  0.00000000000E+00 0. -1.
         24    2    1    2    0    0  0.26957279709E+03 -0.18229133042E+03 -0.11162997308E+04  0.11653308875E+04  0.77274616298E+02 0.  0.
        254    2    1    2    0    0 -0.26957279709E+03  0.18229133042E+03 -0.41231656021E+03  0.10455413983E+04  0.90402004831E+03 0.  0.
         23    2    4    4    0    0  0.22013230185E+03  0.43399670734E+02 -0.46609786725E+03  0.52527055212E+03  0.91214962249E+02 0.  0.
         23    2    4    4    0    0 -0.48970509894E+03  0.13889165969E+03  0.53781307039E+02  0.52027084622E+03  0.93205940688E+02 0.  0.
          4    1    3    3  502    0  0.13731531560E+03 -0.68564385677E+02 -0.63848161188E+03  0.65666988631E+03  0.00000000000E+00 0. -1.
         -3    1    3    3    0  502  0.13225748150E+03 -0.11372694474E+03 -0.47781811893E+03  0.50866100121E+03  0.00000000000E+00 0.  1.
         11    1    5    5    0    0  0.22559295038E+02 -0.24461507036E+02 -0.61536702954E+02  0.69957508028E+02  0.00000000000E+00 0. -1.
        -11    1    5    5    0    0  0.19757300681E+03  0.67861177770E+02 -0.40456116429E+03  0.45531304409E+03  0.00000000000E+00 0.  1.
          1    1    6    6  503    0 -0.25885222044E+03  0.87670372367E+02  0.73430833409E+02  0.28298878690E+03  0.00000000000E+00 0. -1.
         -1    1    6    6    0  503 -0.23085287850E+03  0.51221287319E+02 -0.19649526370E+02  0.23728205932E+03  0.00000000000E+00 0.  1.
<mgrwt>
<rscale>  0 0.15972753E+04</rscale>
<asrwt>0</asrwt>
<pdfrwt beam="1">  1        2 0.28765297E+00 0.15972753E+04</pdfrwt>
<pdfrwt beam="2">  1       -1 0.52481231E-01 0.15972753E+04</pdfrwt>
<totfact> 0.31547240E+01</totfact>
</mgrwt>
</event>
<event>
12    6  0.1627636E-007  0.1399952E+04  0.7818608E-02  0.8953853E-01
          2   -1    0    0  501    0  0.00000000000E+00  0.00000000000E+00  0.11287728008E+04  0.11287728008E+04  0.00000000000E+00 0. -1.
         -3   -1    0    0    0  501 -0.00000000000E+00 -0.00000000000E+00 -0.43406994979E+03  0.43406994979E+03  0.00000000000E+00 0.  1.
         24    2    1    2    0    0 -0.18375334574E+03 -0.24070534426E+03 -0.97849111484E+02  0.32750120027E+03  0.77319032179E+02 0.  0.
        254    2    1    2    0    0  0.18375334574E+03  0.24070534426E+03  0.79255196246E+03  0.12353415503E+04  0.89790076168E+03 0.  0.
         23    2    4    4    0    0 -0.31848929597E+03 -0.44068389410E+02  0.15168285616E+03  0.36802000696E+03  0.95150313093E+02 0.  0.
         23    2    4    4    0    0  0.50224264170E+03  0.28477373367E+03  0.64086910630E+03  0.86732154331E+03  0.90496947786E+02 0.  0.
          2    1    3    3  502    0 -0.28845901414E+02 -0.94729702321E+02 -0.21181363559E+02  0.10126427155E+03  0.00000000000E+00 0. -1.
         -1    1    3    3    0  502 -0.15490744432E+03 -0.14597564194E+03 -0.76667747926E+02  0.22623692872E+03  0.00000000000E+00 0.  1.
         11    1    5    5    0    0 -0.18998619234E+03  0.20964016720E+02  0.91875391792E+02  0.21207388074E+03  0.00000000000E+00 0.  1.
        -11    1    5    5    0    0 -0.12850310363E+03 -0.65032406130E+02  0.59807464370E+02  0.15594612622E+03  0.00000000000E+00 0. -1.
          4    1    6    6  503    0  0.17756518775E+03  0.53166453164E+02  0.19199583395E+03  0.26686788472E+03  0.00000000000E+00 0.  1.
         -4    1    6    6    0  503  0.32467745396E+03  0.23160728050E+03  0.44887327234E+03  0.60045365859E+03  0.00000000000E+00 0. -1.
<mgrwt>
<rscale>  0 0.13999519E+04</rscale>
<asrwt>0</asrwt>
<pdfrwt beam="1">  1        2 0.17365735E+00 0.13999519E+04</pdfrwt>
<pdfrwt beam="2">  1       -3 0.66779993E-01 0.13999519E+04</pdfrwt>
<totfact> 0.28010993E+01</totfact>
</mgrwt>
</event>
<event>
12    6  0.1627636E-007  0.2129755E+04  0.7818608E-02  0.8548248E-01
          2   -1    0    0  501    0  0.00000000000E+00  0.00000000000E+00  0.19556826991E+04  0.19556826991E+04  0.00000000000E+00 0. -1.
         -1   -1    0    0    0  501 -0.00000000000E+00 -0.00000000000E+00 -0.57983045940E+03  0.57983045940E+03  0.00000000000E+00 0.  1.
         24    2    1    2    0    0 -0.47479207650E+03  0.91194749373E+02 -0.30010997206E+03  0.57415592093E+03  0.76452782745E+02 0.  0.
        254    2    1    2    0    0  0.47479207650E+03 -0.91194749373E+02  0.16759622118E+04  0.19613572376E+04  0.89684384368E+03 0.  0.
         23    2    4    4    0    0  0.40522274400E+03 -0.27497616882E+03  0.32935553592E+03  0.59740720214E+03  0.92751983559E+02 0.  0.
         23    2    4    4    0    0  0.69569332499E+02  0.18378141945E+03  0.13466066759E+04  0.13639500355E+04  0.91622364018E+02 0.  0.
          4    1    3    3  502    0 -0.31199347549E+03  0.31370964310E+02 -0.16520105546E+03  0.35442270649E+03  0.00000000000E+00 0. -1.
         -3    1    3    3    0  502 -0.16279860100E+03  0.59823785063E+02 -0.13490891660E+03  0.21973321444E+03  0.00000000000E+00 0.  1.
         11    1    5    5    0    0  0.67623603804E+02 -0.43523132161E+02  0.99597977155E+02  0.12801160837E+03  0.00000000000E+00 0.  1.
        -11    1    5    5    0    0  0.33759914019E+03 -0.23145303666E+03  0.22975755877E+03  0.46939559377E+03  0.00000000000E+00 0. -1.
          3    1    6    6  503    0 -0.21377035045E+02  0.46611013706E+02  0.26841856645E+03  0.27327292409E+03  0.00000000000E+00 0.  1.
         -3    1    6    6    0  503  0.90946367544E+02  0.13717040575E+03  0.10781881094E+04  0.10906771114E+04  0.00000000000E+00 0. -1.
<mgrwt>
<rscale>  0 0.21297553E+04</rscale>
<asrwt>0</asrwt>
<pdfrwt beam="1">  1        2 0.30087426E+00 0.21297553E+04</pdfrwt>
<pdfrwt beam="2">  1       -1 0.89204687E-01 0.21297553E+04</pdfrwt>
<totfact> 0.91158214E+00</totfact>
</mgrwt>
</event>
<event>
12    6  0.1627636E-007  0.1476112E+04  0.7818608E-02  0.8900495E-01
          2   -1    0    0  501    0  0.00000000000E+00  0.00000000000E+00  0.11311358425E+04  0.11311358425E+04  0.00000000000E+00 0. -1.
         -1   -1    0    0    0  501 -0.00000000000E+00 -0.00000000000E+00 -0.48157505227E+03  0.48157505227E+03  0.00000000000E+00 0.  1.
         24    2    1    2    0    0 -0.36816928445E+03  0.13731421648E+03  0.50383091263E+03  0.64410322320E+03  0.81360663439E+02 0.  0.
        254    2    1    2    0    0  0.36816928445E+03 -0.13731421648E+03  0.14572987757E+03  0.96860767153E+03  0.87324670516E+03 0.  0.
         23    2    4    4    0    0  0.69461971927E+02  0.22597715976E+03 -0.24340403266E+03  0.35173740283E+03  0.92644671515E+02 0.  0.
         23    2    4    4    0    0  0.29870731252E+03 -0.36329137624E+03  0.38913391023E+03  0.61687026870E+03  0.88865323468E+02 0.  0.
          4    1    3    3  502    0 -0.21301812941E+03  0.11014959926E+03  0.34721437236E+03  0.42198042378E+03  0.00000000000E+00 0. -1.
         -3    1    3    3    0  502 -0.15515115504E+03  0.27164617220E+02  0.15661654026E+03  0.22212279942E+03  0.00000000000E+00 0.  1.
         11    1    5    5    0    0  0.66358138071E+02  0.23466732174E+03 -0.23919874824E+03  0.34159653912E+03  0.00000000000E+00 0. -1.
        -11    1    5    5    0    0  0.31038338560E+01 -0.86901619763E+01 -0.42052844134E+01  0.10140863710E+02  0.00000000000E+00 0.  1.
          1    1    6    6  503    0  0.26204612021E+03 -0.26417995413E+03  0.31813140895E+03  0.48955777049E+03  0.00000000000E+00 0. -1.
         -1    1    6    6    0  503  0.36661192310E+02 -0.99111422112E+02  0.71002501275E+02  0.12731249822E+03  0.00000000000E+00 0.  1.
<mgrwt>
<rscale>  0 0.14761122E+04</rscale>
<asrwt>0</asrwt>
<pdfrwt beam="1">  1        2 0.17402090E+00 0.14761122E+04</pdfrwt>
<pdfrwt beam="2">  1       -1 0.74088470E-01 0.14761122E+04</pdfrwt>
<totfact> 0.42215182E+01</totfact>
</mgrwt>
</event>
<event>
12    6  0.1627636E-007  0.1079320E+04  0.7818608E-02  0.9225586E-01
          2   -1    0    0  501    0  0.00000000000E+00  0.00000000000E+00  0.55957229010E+03  0.55957229010E+03  0.00000000000E+00 0. -1.
         -1   -1    0    0    0  501 -0.00000000000E+00 -0.00000000000E+00 -0.52045611830E+03  0.52045611830E+03  0.00000000000E+00 0.  1.
         24    2    1    2    0    0 -0.11934845664E+03 -0.10050513922E+03 -0.12907862458E+02  0.17885145337E+03  0.86463242753E+02 0.  0.
        254    2    1    2    0    0  0.11934845664E+03  0.10050513922E+03  0.52024034261E+02  0.90117695503E+03  0.88604066894E+03 0.  0.
         23    2    4    4    0    0 -0.67269539354E+02 -0.35747129100E+03 -0.76196380736E+02  0.38245800266E+03  0.90317886102E+02 0.  0.
         23    2    4    4    0    0  0.18661799599E+03  0.45797643022E+03  0.12822041500E+03  0.51871895237E+03  0.89778559042E+02 0.  0.
          2    1    3    3  502    0 -0.12664388988E+03 -0.91033794327E+02  0.64485255200E+01  0.15610064073E+03  0.00000000000E+00 0. -1.
         -1    1    3    3    0  502  0.72954332440E+01 -0.94713448910E+01 -0.19356387978E+02  0.22750812640E+02  0.00000000000E+00 0.  1.
         11    1    5    5    0    0 -0.55281464343E+02 -0.17692031172E+03  0.19246842449E+01  0.18536596615E+03  0.00000000000E+00 0. -1.
        -11    1    5    5    0    0 -0.11988075011E+02 -0.18055097928E+03 -0.78121064981E+02  0.19709203651E+03  0.00000000000E+00 0.  1.
          1    1    6    6  503    0  0.18821670287E+03  0.41781967462E+03  0.98469010235E+02  0.46871628275E+03  0.00000000000E+00 0. -1.
         -1    1    6    6    0  503 -0.15987068787E+01  0.40156755599E+02  0.29751404762E+02  0.50002669621E+02  0.00000000000E+00 0.  1.
<mgrwt>
<rscale>  0 0.10793198E+04</rscale>
<asrwt>0</asrwt>
<pdfrwt beam="1">  1        2 0.86088045E-01 0.10793198E+04</pdfrwt>
<pdfrwt beam="2">  1       -1 0.80070172E-01 0.10793198E+04</pdfrwt>
<totfact> 0.95472974E+01</totfact>
</mgrwt>
</event>
<event>
12    6  0.1627636E-007  0.1489376E+04  0.7818608E-02  0.8891549E-01
          2   -1    0    0  501    0  0.00000000000E+00  0.00000000000E+00  0.12202243253E+04  0.12202243253E+04  0.00000000000E+00 0. -1.
         -1   -1    0    0    0  501 -0.00000000000E+00 -0.00000000000E+00 -0.45447401776E+03  0.45447401776E+03  0.00000000000E+00 0.  1.
         24    2    1    2    0    0 -0.12875627841E+03 -0.31383758733E+03  0.60724461176E+03  0.70027423471E+03  0.81029468860E+02 0.  0.
        254    2    1    2    0    0  0.12875627841E+03  0.31383758733E+03  0.15850569577E+03  0.97442410834E+03  0.89961440455E+03 0.  0.
         23    2    4    4    0    0 -0.17885913097E+03  0.20053912324E+03 -0.29183484227E+03  0.40828049700E+03  0.96534244629E+02 0.  0.
         23    2    4    4    0    0  0.30761540938E+03  0.11329846409E+03  0.45034053804E+03  0.56614361134E+03  0.10123342535E+03 0.  0.
          2    1    3    3  502    0 -0.10602790469E+03 -0.16106632679E+03  0.36893398035E+03  0.41628903428E+03  0.00000000000E+00 0. -1.
         -1    1    3    3    0  502 -0.22728373717E+02 -0.15277126054E+03  0.23831063141E+03  0.28398520043E+03  0.00000000000E+00 0.  1.
         11    1    5    5    0    0 -0.16846400538E+03  0.13404493786E+03 -0.19578390314E+03  0.29099742817E+03  0.00000000000E+00 0. -1.
        -11    1    5    5    0    0 -0.10395125588E+02  0.66494185378E+02 -0.96050939134E+02  0.11728306883E+03  0.00000000000E+00 0.  1.
          4    1    6    6  503    0  0.26491299102E+02  0.76620432874E+00  0.40346881561E+01  0.26807735930E+02  0.00000000000E+00 0. -1.
         -4    1    6    6    0  503  0.28112411028E+03  0.11253225976E+03  0.44630584988E+03  0.53933587541E+03  0.00000000000E+00 0.  1.
<mgrwt>
<rscale>  0 0.14893760E+04</rscale>
<asrwt>0</asrwt>
<pdfrwt beam="1">  1        2 0.18772682E+00 0.14893760E+04</pdfrwt>
<pdfrwt beam="2">  1       -1 0.69919080E-01 0.14893760E+04</pdfrwt>
<totfact> 0.42006908E+01</totfact>
</mgrwt>
</event>
<event>
12    6  0.1627636E-007  0.1177868E+04  0.7818608E-02  0.9132452E-01
          2   -1    0    0  501    0  0.00000000000E+00  0.00000000000E+00  0.97868004803E+03  0.97868004803E+03  0.00000000000E+00 0. -1.
         -1   -1    0    0    0  501 -0.00000000000E+00 -0.00000000000E+00 -0.35439922698E+03  0.35439922698E+03  0.00000000000E+00 0.  1.
         24    2    1    2    0    0  0.78728961470E+02 -0.33115659024E+02 -0.10716953536E+03  0.15856620765E+03  0.79768644533E+02 0.  0.
        254    2    1    2    0    0 -0.78728961470E+02  0.33115659024E+02  0.73145035642E+03  0.11745130674E+04  0.91496799139E+03 0.  0.
         23    2    4    4    0    0  0.34956171457E+03  0.19856951359E+03  0.51108920381E+03  0.65694521432E+03  0.93496504429E+02 0.  0.
         23    2    4    4    0    0 -0.42829067604E+03 -0.16545385457E+03  0.22036115260E+03  0.51756785305E+03  0.92247296762E+02 0.  0.
          2    1    3    3  502    0  0.37413341555E+02  0.12969274494E+02 -0.61193740586E+01  0.40067529822E+02  0.00000000000E+00 0. -1.
         -1    1    3    3    0  502  0.41315619915E+02 -0.46084933519E+02 -0.10105016130E+03  0.11849867782E+03  0.00000000000E+00 0.  1.
         11    1    5    5    0    0  0.31949009325E+03  0.20722778153E+03  0.48138713684E+03  0.61380033287E+03  0.00000000000E+00 0.  1.
        -11    1    5    5    0    0  0.30071621324E+02 -0.86582679324E+01  0.29702066976E+02  0.43144881449E+02  0.00000000000E+00 0. -1.
          4    1    6    6  503    0 -0.24800403519E+03 -0.66170733868E+02  0.81577699346E+02  0.26933155872E+03  0.00000000000E+00 0. -1.
         -4    1    6    6    0  503 -0.18028664085E+03 -0.99283120701E+02  0.13878345326E+03  0.24823629433E+03  0.00000000000E+00 0.  1.
<mgrwt>
<rscale>  0 0.11778683E+04</rscale>
<asrwt>0</asrwt>
<pdfrwt beam="1">  1        2 0.15056616E+00 0.11778683E+04</pdfrwt>
<pdfrwt beam="2">  1       -1 0.54522958E-01 0.11778683E+04</pdfrwt>
<totfact> 0.99579244E+01</totfact>
</mgrwt>
</event>
<event>
12    6  0.1627636E-007  0.2114755E+04  0.7818608E-02  0.8554771E-01
          2   -1    0    0  501    0  0.00000000000E+00  0.00000000000E+00  0.25036566674E+04  0.25036566674E+04  0.00000000000E+00 0. -1.
         -1   -1    0    0    0  501 -0.00000000000E+00 -0.00000000000E+00 -0.44656582561E+03  0.44656582561E+03  0.00000000000E+00 0.  1.
         24    2    1    2    0    0 -0.85226508896E+03 -0.69820720217E+02  0.92038729020E+03  0.12589186980E+04  0.80825796378E+02 0.  0.
        254    2    1    2    0    0  0.85226508896E+03  0.69820720217E+02  0.11367035516E+04  0.16913037951E+04  0.91497696587E+03 0.  0.
         23    2    4    4    0    0  0.15748003777E+03  0.40214557703E+03  0.61459228713E+03  0.75654986906E+03  0.90127673605E+02 0.  0.
         23    2    4    4    0    0  0.69478505119E+03 -0.33232485682E+03  0.52211126448E+03  0.93475392599E+03  0.89435182353E+02 0.  0.
          4    1    3    3  502    0 -0.76689789025E+03 -0.80598501383E+02  0.80215646503E+03  0.11126920000E+04  0.00000000000E+00 0. -1.
         -3    1    3    3    0  502 -0.85367198705E+02  0.10777781165E+02  0.11823082517E+03  0.14622669798E+03  0.00000000000E+00 0.  1.
         11    1    5    5    0    0  0.13400045874E+03  0.35346562454E+03  0.47632578453E+03  0.60809565339E+03  0.00000000000E+00 0. -1.
        -11    1    5    5    0    0  0.23479579034E+02  0.48679952498E+02  0.13826650261E+03  0.14845421567E+03  0.00000000000E+00 0.  1.
          3    1    6    6  503    0  0.35719090314E+03 -0.21234326016E+03  0.30951769553E+03  0.51814689545E+03  0.00000000000E+00 0. -1.
         -3    1    6    6    0  503  0.33759414805E+03 -0.11998159665E+03  0.21259356895E+03  0.41660703054E+03  0.00000000000E+00 0.  1.
<mgrwt>
<rscale>  0 0.21147553E+04</rscale>
<asrwt>0</asrwt>
<pdfrwt beam="1">  1        2 0.38517794E+00 0.21147553E+04</pdfrwt>
<pdfrwt beam="2">  1       -1 0.68702436E-01 0.21147553E+04</pdfrwt>
<totfact> 0.77827571E+00</totfact>
</mgrwt>
</event>
<event>
12    6  0.1627636E-007  0.1714965E+04  0.7818608E-02  0.8752875E-01
          2   -1    0    0  501    0  0.00000000000E+00  0.00000000000E+00  0.25353968462E+04  0.25353968462E+04  0.00000000000E+00 0. -1.
         -1   -1    0    0    0  501 -0.00000000000E+00 -0.00000000000E+00 -0.29000433862E+03  0.29000433862E+03  0.00000000000E+00 0.  1.
         24    2    1    2    0    0  0.60830202853E+03 -0.76828518283E+02  0.11075419971E+04  0.12674481160E+04  0.61979610792E+02 0.  0.
        254    2    1    2    0    0 -0.60830202853E+03  0.76828518283E+02  0.11378505105E+04  0.15579530688E+04  0.86981607335E+03 0.  0.
         23    2    4    4    0    0  0.38859205692E+02  0.13996379248E+03  0.80297549185E+03  0.82087839361E+03  0.89284912078E+02 0.  0.
         23    2    4    4    0    0 -0.64716123422E+03 -0.63135274194E+02  0.33487501861E+03  0.73707467524E+03  0.91291143378E+02 0.  0.
          4    1    3    3  502    0  0.22053969517E+03 -0.18479214642E+02  0.34280659807E+03  0.40803872635E+03  0.00000000000E+00 0. -1.
         -3    1    3    3    0  502  0.38776233336E+03 -0.58349303641E+02  0.76473539905E+03  0.85940938962E+03  0.00000000000E+00 0.  1.
         11    1    5    5    0    0  0.36658961794E+02  0.12678032168E+03  0.79372904714E+03  0.80462595641E+03  0.00000000000E+00 0.  1.
        -11    1    5    5    0    0  0.22002438979E+01  0.13183470798E+02  0.92464447012E+01  0.16252437205E+02  0.00000000000E+00 0. -1.
          3    1    6    6  503    0 -0.14288528648E+01 -0.78607033243E+01  0.76312749605E+01  0.11048467531E+02  0.00000000000E+00 0. -1.
         -3    1    6    6    0  503 -0.64573238136E+03 -0.55274570869E+02  0.32724374365E+03  0.72602620771E+03  0.00000000000E+00 0.  1.
<mgrwt>
<rscale>  0 0.17149648E+04</rscale>
<asrwt>0</asrwt>
<pdfrwt beam="1">  1        2 0.39006104E+00 0.17149648E+04</pdfrwt>
<pdfrwt beam="2">  1       -1 0.44616054E-01 0.17149648E+04</pdfrwt>
<totfact> 0.17911761E+01</totfact>
</mgrwt>
</event>
<event>
12    6  0.1627636E-007  0.1444065E+04  0.7818608E-02  0.8922526E-01
          2   -1    0    0  501    0  0.00000000000E+00  0.00000000000E+00  0.13574285747E+04  0.13574285747E+04  0.00000000000E+00 0. -1.
         -1   -1    0    0    0  501 -0.00000000000E+00 -0.00000000000E+00 -0.38405755218E+03  0.38405755218E+03  0.00000000000E+00 0.  1.
         24    2    1    2    0    0  0.12287580467E+03 -0.39750239805E+03  0.14713528035E+03  0.44832963582E+03  0.79019312836E+02 0.  0.
        254    2    1    2    0    0 -0.12287580467E+03  0.39750239805E+03  0.82623574216E+03  0.12931564911E+04  0.90359370787E+03 0.  0.
         23    2    4    4    0    0 -0.25390919465E+03  0.57714134296E+03  0.83866374193E+03  0.10534894459E+04  0.94451742595E+02 0.  0.
         23    2    4    4    0    0  0.13103338999E+03 -0.17963894491E+03 -0.12427999763E+02  0.23966704518E+03  0.88577297016E+02 0.  0.
          2    1    3    3  502    0 -0.55969696008E+01 -0.67023123167E+01  0.12956553292E+02  0.15624318619E+02  0.00000000000E+00 0. -1.
         -1    1    3    3    0  502  0.12847277427E+03 -0.39080008574E+03  0.13417872705E+03  0.43270531720E+03  0.00000000000E+00 0.  1.
         11    1    5    5    0    0 -0.82500035012E+02  0.30430466897E+03  0.40767271369E+03  0.51536843988E+03  0.00000000000E+00 0. -1.
        -11    1    5    5    0    0 -0.17140915964E+03  0.27283667399E+03  0.43099102824E+03  0.53812100601E+03  0.00000000000E+00 0.  1.
          1    1    6    6  503    0  0.13206024538E+03 -0.18600174855E+03 -0.20845210155E+02  0.22906567106E+03  0.00000000000E+00 0. -1.
         -1    1    6    6    0  503 -0.10268553902E+01  0.63628036472E+01  0.84172103926E+01  0.10601374111E+02  0.00000000000E+00 0.  1.
<mgrwt>
<rscale>  0 0.14440647E+04</rscale>
<asrwt>0</asrwt>
<pdfrwt beam="1">  1        2 0.20883516E+00 0.14440647E+04</pdfrwt>
<pdfrwt beam="2">  1       -1 0.59085778E-01 0.14440647E+04</pdfrwt>
<totfact> 0.49152753E+01</totfact>
</mgrwt>
</event>
<event>
12    6  0.1627636E-007  0.1579767E+04  0.7818608E-02  0.8833075E-01
         -1   -1    0    0    0  501 -0.00000000000E+00  0.00000000000E+00  0.12113330202E+04  0.12113330202E+04  0.00000000000E+00 0.  1.
          2   -1    0    0  501    0  0.00000000000E+00 -0.00000000000E+00 -0.51506587540E+03  0.51506587540E+03  0.00000000000E+00 0. -1.
         24    2    1    2    0    0  0.43023289077E+03  0.30653266185E+03  0.25088164727E+03  0.59032496773E+03  0.80494431472E+02 0.  0.
        254    2    1    2    0    0 -0.43023289077E+03 -0.30653266185E+03  0.44538549753E+03  0.11360739279E+04  0.90179438626E+03 0.  0.
         23    2    4    4    0    0 -0.64485852564E+03 -0.12405536442E+03  0.86182021089E+02  0.66877391726E+03  0.92730578154E+02 0.  0.
         23    2    4    4    0    0  0.21462563486E+03 -0.18247729743E+03  0.35920347644E+03  0.46730001061E+03  0.99900126173E+02 0.  0.
          2    1    3    3  502    0  0.24658408297E+03  0.15964147355E+03  0.18082223042E+03  0.34494316788E+03  0.00000000000E+00 0. -1.
         -1    1    3    3    0  502  0.18364880780E+03  0.14689118830E+03  0.70059416859E+02  0.24538179985E+03  0.00000000000E+00 0.  1.
         11    1    5    5    0    0 -0.28610916676E+03 -0.13948917201E+02  0.59479671388E+02  0.29255915454E+03  0.00000000000E+00 0. -1.
        -11    1    5    5    0    0 -0.35874935888E+03 -0.11010644721E+03  0.26702349701E+02  0.37621476273E+03  0.00000000000E+00 0.  1.
          1    1    6    6  503    0  0.59605338419E+02 -0.11225664453E+03  0.12982314901E+03  0.18168214175E+03  0.00000000000E+00 0. -1.
         -1    1    6    6    0  503  0.15502029644E+03 -0.70220652903E+02  0.22938032742E+03  0.28561786886E+03  0.00000000000E+00 0.  1.
<mgrwt>
<rscale>  0 0.15797675E+04</rscale>
<asrwt>0</asrwt>
<pdfrwt beam="1">  1        2 0.79240905E-01 0.15797675E+04</pdfrwt>
<pdfrwt beam="2">  1       -1 0.18635892E+00 0.15797675E+04</pdfrwt>
<totfact> 0.12239148E+01</totfact>
</mgrwt>
</event>
<event>
12    6  0.1627636E-007  0.3597948E+04  0.7818608E-02  0.8090962E-01
         -1   -1    0    0    0  501 -0.00000000000E+00  0.00000000000E+00  0.14696623530E+04  0.14696623530E+04  0.00000000000E+00 0.  1.
          2   -1    0    0  501    0  0.00000000000E+00 -0.00000000000E+00 -0.22020751426E+04  0.22020751426E+04  0.00000000000E+00 0. -1.
         24    2    1    2    0    0  0.13981279292E+04 -0.26218374273E+03 -0.12693189411E+04  0.19081592433E+04  0.79994387306E+02 0.  0.
        254    2    1    2    0    0 -0.13981279292E+04  0.26218374273E+03  0.53690615142E+03  0.17635782523E+04  0.89355358828E+03 0.  0.
         23    2    4    4    0    0 -0.53827876400E+03  0.30352265841E+03  0.63712655878E+03  0.89231638483E+03  0.91805483476E+02 0.  0.
         23    2    4    4    0    0 -0.85984916524E+03 -0.41338915680E+02 -0.10022040736E+03  0.87126186748E+03  0.89462946336E+02 0.  0.
          2    1    3    3  502    0  0.12856149032E+04 -0.25292342042E+03 -0.11429773817E+04  0.17387274746E+04  0.00000000000E+00 0. -1.
         -1    1    3    3    0  502  0.11251302602E+03 -0.92603223182E+01 -0.12634155941E+03  0.16943176865E+03  0.00000000000E+00 0.  1.
         11    1    5    5    0    0 -0.27110997409E+02  0.42748952414E+02  0.59114643196E+02  0.77826860101E+02  0.00000000000E+00 0.  1.
        -11    1    5    5    0    0 -0.51116776659E+03  0.26077370600E+03  0.57801191558E+03  0.81448952473E+03  0.00000000000E+00 0. -1.
          1    1    6    6  503    0 -0.23308551324E+03 -0.15203850504E+02 -0.67333058906E+02  0.24309206974E+03  0.00000000000E+00 0. -1.
         -1    1    6    6    0  503 -0.62676365200E+03 -0.26135065176E+02 -0.32887348453E+02  0.62816979774E+03  0.00000000000E+00 0.  1.
<mgrwt>
<rscale>  0 0.35979477E+04</rscale>
<asrwt>0</asrwt>
<pdfrwt beam="1">  1        2 0.33878079E+00 0.35979477E+04</pdfrwt>
<pdfrwt beam="2">  1       -1 0.22610190E+00 0.35979477E+04</pdfrwt>
<totfact> 0.47827141E-01</totfact>
</mgrwt>
</event>
<event>
12    6  0.1627636E-007  0.1478369E+04  0.7818608E-02  0.8898966E-01
          2   -1    0    0  501    0  0.00000000000E+00  0.00000000000E+00  0.15039625527E+04  0.15039625527E+04  0.00000000000E+00 0. -1.
         -1   -1    0    0    0  501 -0.00000000000E+00 -0.00000000000E+00 -0.36330285190E+03  0.36330285190E+03  0.00000000000E+00 0.  1.
         24    2    1    2    0    0 -0.22040313901E+03  0.16106272046E+03  0.82996762241E+03  0.87736435941E+03  0.80020130633E+02 0.  0.
        254    2    1    2    0    0  0.22040313901E+03 -0.16106272046E+03  0.31069207840E+03  0.98990104520E+03  0.89936409095E+03 0.  0.
         23    2    4    4    0    0 -0.15680204504E+03 -0.42911992910E+03  0.18221613297E+03  0.50066323469E+03  0.93435328285E+02 0.  0.
         23    2    4    4    0    0  0.37720518405E+03  0.26805720864E+03  0.12847594543E+03  0.48923781051E+03  0.93322819846E+02 0.  0.
          2    1    3    3  502    0 -0.62659127149E+02  0.36480543246E+02  0.34231167155E+03  0.34990609701E+03  0.00000000000E+00 0. -1.
         -1    1    3    3    0  502 -0.15774401186E+03  0.12458217722E+03  0.48765595087E+03  0.52745826240E+03  0.00000000000E+00 0.  1.
         11    1    5    5    0    0 -0.13985476223E+03 -0.41696602886E+03  0.18906509103E+03  0.47871247360E+03  0.00000000000E+00 0. -1.
        -11    1    5    5    0    0 -0.16947282808E+02 -0.12153900245E+02 -0.68489580533E+01  0.21950761084E+02  0.00000000000E+00 0.  1.
          3    1    6    6  503    0  0.18244998795E+03  0.17431507938E+03  0.99144762623E+02  0.27111515811E+03  0.00000000000E+00 0. -1.
         -3    1    6    6    0  503  0.19475519610E+03  0.93742129257E+02  0.29331182808E+02  0.21812265240E+03  0.00000000000E+00 0.  1.
<mgrwt>
<rscale>  0 0.14783692E+04</rscale>
<asrwt>0</asrwt>
<pdfrwt beam="1">  1        2 0.23137885E+00 0.14783692E+04</pdfrwt>
<pdfrwt beam="2">  1       -1 0.55892747E-01 0.14783692E+04</pdfrwt>
<totfact> 0.45088921E+01</totfact>
</mgrwt>
</event>
<event>
12    6  0.1627636E-007  0.1384125E+04  0.7818608E-02  0.8965391E-01
          2   -1    0    0  501    0  0.00000000000E+00  0.00000000000E+00  0.18210892266E+04  0.18210892266E+04  0.00000000000E+00 0. -1.
         -1   -1    0    0    0  501 -0.00000000000E+00 -0.00000000000E+00 -0.26300204862E+03  0.26300204862E+03  0.00000000000E+00 0.  1.
         24    2    1    2    0    0  0.33949640169E+03 -0.68602631363E+02  0.72834403456E+03  0.81060071248E+03  0.81390138148E+02 0.  0.
        254    2    1    2    0    0 -0.33949640169E+03  0.68602631363E+02  0.82974314343E+03  0.12734905627E+04  0.90185386929E+03 0.  0.
         23    2    4    4    0    0 -0.64254550806E+03  0.59007509419E+02  0.56038263180E+03  0.85858608640E+03  0.82430319845E+02 0.  0.
         23    2    4    4    0    0  0.30304910637E+03  0.95951219440E+01  0.26936051162E+03  0.41490447635E+03  0.87520352111E+02 0.  0.
          4    1    3    3  502    0  0.20592374474E+03 -0.64121665110E+02  0.52146809250E+03  0.56430944355E+03  0.00000000000E+00 0. -1.
         -3    1    3    3    0  502  0.13357265695E+03 -0.44809662527E+01  0.20687594206E+03  0.24629126892E+03  0.00000000000E+00 0.  1.
         11    1    5    5    0    0 -0.52025490006E+03  0.26859845643E+02  0.41602474930E+03  0.66668073646E+03  0.00000000000E+00 0. -1.
        -11    1    5    5    0    0 -0.12229060801E+03  0.32147663776E+02  0.14435788250E+03  0.19190534993E+03  0.00000000000E+00 0.  1.
          2    1    6    6  503    0  0.16522953364E+03  0.41835974387E+02  0.11577909523E+03  0.20604816532E+03  0.00000000000E+00 0. -1.
         -2    1    6    6    0  503  0.13781957273E+03 -0.32240852443E+02  0.15358141639E+03  0.20885631103E+03  0.00000000000E+00 0.  1.
<mgrwt>
<rscale>  0 0.13841246E+04</rscale>
<asrwt>0</asrwt>
<pdfrwt beam="1">  1        2 0.28016756E+00 0.13841246E+04</pdfrwt>
<pdfrwt beam="2">  1       -1 0.40461855E-01 0.13841246E+04</pdfrwt>
<totfact> 0.55613148E+01</totfact>
</mgrwt>
</event>
<event>
12    6  0.1627636E-007  0.2246950E+04  0.7818608E-02  0.8499137E-01
         -1   -1    0    0    0  501 -0.00000000000E+00  0.00000000000E+00  0.37305220543E+03  0.37305220543E+03  0.00000000000E+00 0.  1.
          2   -1    0    0  501    0  0.00000000000E+00 -0.00000000000E+00 -0.33834297849E+04  0.33834297849E+04  0.00000000000E+00 0. -1.
         24    2    1    2    0    0 -0.49725309596E+03 -0.44037662655E+03 -0.15254248490E+03  0.68621257996E+03  0.80164085092E+02 0.  0.
        254    2    1    2    0    0  0.49725309596E+03  0.44037662655E+03 -0.28578350946E+04  0.30702694104E+04  0.90451125471E+03 0.  0.
         23    2    4    4    0    0  0.67581280417E+03  0.48490606092E+03 -0.17060479130E+04  0.19002258953E+04  0.91663173417E+02 0.  0.
         23    2    4    4    0    0 -0.17855970821E+03 -0.44529434371E+02 -0.11517871815E+04  0.11700435151E+04  0.92312922859E+02 0.  0.
          4    1    3    3  502    0 -0.10824279443E+03 -0.84185020695E+02 -0.64225164296E+02  0.15142157040E+03  0.00000000000E+00 0. -1.
         -3    1    3    3    0  502 -0.38901030153E+03 -0.35619160585E+03 -0.88317320607E+02  0.53479100955E+03  0.00000000000E+00 0.  1.
         11    1    5    5    0    0  0.29903444185E+03  0.17700243725E+03 -0.63601346894E+03  0.72475140075E+03  0.00000000000E+00 0. -1.
        -11    1    5    5    0    0  0.37677836232E+03  0.30790362368E+03 -0.10700344441E+04  0.11754744945E+04  0.00000000000E+00 0.  1.
          3    1    6    6  503    0 -0.88302094285E+02  0.17722963668E+02 -0.66434446487E+03  0.67042145797E+03  0.00000000000E+00 0. -1.
         -3    1    6    6    0  503 -0.90257613927E+02 -0.62252398039E+02 -0.48744271668E+03  0.49962205713E+03  0.00000000000E+00 0.  1.
<mgrwt>
<rscale>  0 0.22469499E+04</rscale>
<asrwt>0</asrwt>
<pdfrwt beam="1">  1        2 0.52052766E+00 0.22469499E+04</pdfrwt>
<pdfrwt beam="2">  1       -1 0.57392647E-01 0.22469499E+04</pdfrwt>
<totfact> 0.31246247E+00</totfact>
</mgrwt>
</event>
<event>
12    6  0.1627636E-007  0.2072566E+04  0.7818608E-02  0.8573426E-01
         -1   -1    0    0    0  501 -0.00000000000E+00  0.00000000000E+00  0.48864617400E+03  0.48864617400E+03  0.00000000000E+00 0.  1.
          2   -1    0    0  501    0  0.00000000000E+00 -0.00000000000E+00 -0.21976683574E+04  0.21976683574E+04  0.00000000000E+00 0. -1.
         24    2    1    2    0    0  0.17255746501E+03  0.95284840935E+02 -0.17603764280E+04  0.17731411076E+04  0.79050232704E+02 0.  0.
        254    2    1    2    0    0 -0.17255746501E+03 -0.95284840935E+02  0.51354244686E+02  0.91317342379E+03  0.89016468354E+03 0.  0.
         23    2    4    4    0    0  0.44460872789E+02  0.12249074099E+03  0.40584430859E+03  0.43626831608E+03  0.92949932572E+02 0.  0.
         23    2    4    4    0    0 -0.21701833780E+03 -0.21777558192E+03 -0.35449006390E+03  0.47690510771E+03  0.85159340840E+02 0.  0.
          4    1    3    3  502    0  0.77847260436E+02  0.25988946656E+02 -0.44223327413E+03  0.44978427058E+03  0.00000000000E+00 0. -1.
         -3    1    3    3    0  502  0.94710204572E+02  0.69295894280E+02 -0.13181431539E+04  0.13233568370E+04  0.00000000000E+00 0.  1.
         11    1    5    5    0    0  0.16373777625E+02  0.11619958838E+03  0.23128061976E+03  0.25934758532E+03  0.00000000000E+00 0. -1.
        -11    1    5    5    0    0  0.28087095164E+02  0.62911526046E+01  0.17456368883E+03  0.17692073076E+03  0.00000000000E+00 0.  1.
          3    1    6    6  503    0 -0.21148913051E+03 -0.21661388516E+03 -0.31454928737E+03  0.43656669794E+03  0.00000000000E+00 0. -1.
         -3    1    6    6    0  503 -0.55292072854E+01 -0.11616967655E+01 -0.39940776531E+02  0.40338409766E+02  0.00000000000E+00 0.  1.
<mgrwt>
<rscale>  0 0.20725658E+04</rscale>
<asrwt>0</asrwt>
<pdfrwt beam="1">  1        2 0.33810282E+00 0.20725658E+04</pdfrwt>
<pdfrwt beam="2">  1       -1 0.75176335E-01 0.20725658E+04</pdfrwt>
<totfact> 0.96880386E+00</totfact>
</mgrwt>
</event>
<event>
12    6  0.1627636E-007  0.1406709E+04  0.7818608E-02  0.8948977E-01
          2   -1    0    0  501    0  0.00000000000E+00  0.00000000000E+00  0.17155198260E+04  0.17155198260E+04  0.00000000000E+00 0. -1.
         -1   -1    0    0    0  501 -0.00000000000E+00 -0.00000000000E+00 -0.28837169775E+03  0.28837169775E+03  0.00000000000E+00 0.  1.
         24    2    1    2    0    0 -0.23980944539E+03  0.16116490496E+03  0.16091501053E+02  0.29994664418E+03  0.78907263669E+02 0.  0.
        254    2    1    2    0    0  0.23980944539E+03 -0.16116490496E+03  0.14110566272E+04  0.17039448795E+04  0.91042004082E+03 0.  0.
         23    2    4    4    0    0  0.23092747691E+03  0.35179272150E+03  0.71125453311E+03  0.83146920441E+03  0.91500866268E+02 0.  0.
         23    2    4    4    0    0  0.88819684745E+01 -0.51295762646E+03  0.69980209406E+03  0.87247567512E+03  0.91029758431E+02 0.  0.
          4    1    3    3  502    0 -0.17861731252E+02  0.38613853298E+02  0.18519519487E+02  0.46400902059E+02  0.00000000000E+00 0. -1.
         -3    1    3    3    0  502 -0.22194771414E+03  0.12255105167E+03 -0.24280184339E+01  0.25354574212E+03  0.00000000000E+00 0.  1.
         11    1    5    5    0    0  0.16617422788E+02 -0.30762041398E+00  0.15203214184E+02  0.22524899378E+02  0.00000000000E+00 0.  1.
        -11    1    5    5    0    0  0.21431005413E+03  0.35210034191E+03  0.69605131892E+03  0.80894430504E+03  0.00000000000E+00 0. -1.
          4    1    6    6  503    0 -0.15142783804E+02 -0.56956636964E+02  0.12640801716E+03  0.13947167884E+03  0.00000000000E+00 0.  1.
         -4    1    6    6    0  503  0.24024752278E+02 -0.45600098950E+03  0.57339407691E+03  0.73300399629E+03  0.00000000000E+00 0. -1.
<mgrwt>
<rscale>  0 0.14067087E+04</rscale>
<asrwt>0</asrwt>
<pdfrwt beam="1">  1        2 0.26392612E+00 0.14067087E+04</pdfrwt>
<pdfrwt beam="2">  1       -1 0.44364878E-01 0.14067087E+04</pdfrwt>
<totfact> 0.53584838E+01</totfact>
</mgrwt>
</event>
<event>
12    6  0.1627636E-007  0.1257579E+04  0.7818608E-02  0.9063899E-01
         -1   -1    0    0    0  501 -0.00000000000E+00  0.00000000000E+00  0.16752831258E+03  0.16752831258E+03  0.00000000000E+00 0.  1.
          2   -1    0    0  501    0  0.00000000000E+00 -0.00000000000E+00 -0.23600554299E+04  0.23600554299E+04  0.00000000000E+00 0. -1.
         24    2    1    2    0    0 -0.12476238690E+03 -0.21862974783E+03 -0.73286731419E+03  0.77907799333E+03  0.80643658624E+02 0.  0.
        254    2    1    2    0    0  0.12476238690E+03  0.21862974783E+03 -0.14596598031E+04  0.17485057491E+04  0.92913992169E+03 0.  0.
         23    2    4    4    0    0 -0.68219153861E+02  0.31636111692E+02  0.10609736974E+03  0.15695864403E+03  0.87890087915E+02 0.  0.
         23    2    4    4    0    0  0.19298154076E+03  0.18699363614E+03 -0.15657571729E+04  0.15915471051E+04  0.96011292784E+02 0.  0.
          2    1    3    3  502    0 -0.47018330678E+02 -0.97503079259E+02 -0.43490726881E+03  0.44817620012E+03  0.00000000000E+00 0. -1.
         -1    1    3    3    0  502 -0.77744056218E+02 -0.12112666857E+03 -0.29796004537E+03  0.33090179322E+03  0.00000000000E+00 0.  1.
         11    1    5    5    0    0 -0.78452015452E+02 -0.27591000969E+01  0.61537375043E+02  0.99745575787E+02  0.00000000000E+00 0. -1.
        -11    1    5    5    0    0  0.10232861592E+02  0.34395211789E+02  0.44559994702E+02  0.57213068247E+02  0.00000000000E+00 0.  1.
          1    1    6    6  503    0  0.13443318263E+03  0.15308369259E+03 -0.92181985627E+03  0.94406501098E+03  0.00000000000E+00 0. -1.
         -1    1    6    6    0  503  0.58548358132E+02  0.33909943543E+02 -0.64393731658E+03  0.64748209411E+03  0.00000000000E+00 0.  1.
<mgrwt>
<rscale>  0 0.12575788E+04</rscale>
<asrwt>0</asrwt>
<pdfrwt beam="1">  1        2 0.36308547E+00 0.12575788E+04</pdfrwt>
<pdfrwt beam="2">  1       -1 0.25773585E-01 0.12575788E+04</pdfrwt>
<totfact> 0.62601083E+01</totfact>
</mgrwt>
</event>
<event>
12    6  0.1627636E-007  0.2330493E+04  0.7818608E-02  0.8465994E-01
         -1   -1    0    0    0  501 -0.00000000000E+00  0.00000000000E+00  0.75588434865E+03  0.75588434865E+03  0.00000000000E+00 0.  1.
          2   -1    0    0  501    0  0.00000000000E+00 -0.00000000000E+00 -0.17963055999E+04  0.17963055999E+04  0.00000000000E+00 0. -1.
         24    2    1    2    0    0  0.30693515988E+03 -0.63292909108E+02 -0.14708364972E+04  0.15060346250E+04  0.81025337583E+02 0.  0.
        254    2    1    2    0    0 -0.30693515988E+03  0.63292909108E+02  0.43041524602E+03  0.10461553235E+04  0.90053789049E+03 0.  0.
         23    2    4    4    0    0 -0.17241390203E+02 -0.26327323038E+03  0.52131562598E+03  0.59122876862E+03  0.90395882568E+02 0.  0.
         23    2    4    4    0    0 -0.28969376968E+03  0.32656613948E+03 -0.90900379951E+02  0.45492655491E+03  0.90151914212E+02 0.  0.
          4    1    3    3  502    0  0.17481339096E+03  0.37283344059E+01 -0.84514733887E+03  0.86304556458E+03  0.00000000000E+00 0. -1.
         -3    1    3    3    0  502  0.13212176892E+03 -0.67021243513E+02 -0.62568915836E+03  0.64298906040E+03  0.00000000000E+00 0.  1.
         11    1    5    5    0    0 -0.34138051956E+02 -0.75596254537E+02  0.22779935455E+03  0.24243091021E+03  0.00000000000E+00 0.  1.
        -11    1    5    5    0    0  0.16896661753E+02 -0.18767697584E+03  0.29351627143E+03  0.34879785841E+03  0.00000000000E+00 0. -1.
          4    1    6    6  503    0 -0.17553609542E+03  0.23213330539E+03 -0.22952132389E+02  0.29193422658E+03  0.00000000000E+00 0. -1.
         -4    1    6    6    0  503 -0.11415767426E+03  0.94432834091E+02 -0.67948247562E+02  0.16299232833E+03  0.00000000000E+00 0.  1.
<mgrwt>
<rscale>  0 0.23304929E+04</rscale>
<asrwt>0</asrwt>
<pdfrwt beam="1">  1        2 0.27635471E+00 0.23304929E+04</pdfrwt>
<pdfrwt beam="2">  1       -1 0.11628990E+00 0.23304929E+04</pdfrwt>
<totfact> 0.59643285E+00</totfact>
</mgrwt>
</event>
<event>
12    6  0.1627636E-007  0.1662318E+04  0.7818608E-02  0.8783153E-01
         -1   -1    0    0    0  501 -0.00000000000E+00  0.00000000000E+00  0.60495320632E+03  0.60495320632E+03  0.00000000000E+00 0.  1.
          2   -1    0    0  501    0  0.00000000000E+00 -0.00000000000E+00 -0.11419479599E+04  0.11419479599E+04  0.00000000000E+00 0. -1.
         24    2    1    2    0    0 -0.14875861861E+03 -0.45434511275E+03  0.16436973704E+03  0.51195404414E+03  0.80752243131E+02 0.  0.
        254    2    1    2    0    0  0.14875861861E+03  0.45434511275E+03 -0.70136449061E+03  0.12349471221E+04  0.89700815910E+03 0.  0.
         23    2    4    4    0    0  0.17937254411E+03  0.44578657721E+03 -0.89433109635E+03  0.10191768152E+04  0.89404075438E+02 0.  0.
         23    2    4    4    0    0 -0.30613925504E+02  0.85585355401E+01  0.19296660574E+03  0.21577030688E+03  0.91160591461E+02 0.  0.
          4    1    3    3  502    0 -0.26697952314E+02 -0.62903089194E+02  0.54641583553E+02  0.87494468060E+02  0.00000000000E+00 0. -1.
         -3    1    3    3    0  502 -0.12206066629E+03 -0.39144202356E+03  0.10972815349E+03  0.42445957608E+03  0.00000000000E+00 0.  1.
         11    1    5    5    0    0  0.20363411215E+02  0.11728425319E+03 -0.16302030827E+03  0.20185610091E+03  0.00000000000E+00 0. -1.
        -11    1    5    5    0    0  0.15900913290E+03  0.32850232402E+03 -0.73131078807E+03  0.81732071427E+03  0.00000000000E+00 0.  1.
          1    1    6    6  503    0 -0.22369595640E+02  0.45011063735E+02  0.63319956454E+02  0.80844366241E+02  0.00000000000E+00 0. -1.
         -1    1    6    6    0  503 -0.82443298645E+01 -0.36452528194E+02  0.12964664928E+03  0.13492594064E+03  0.00000000000E+00 0.  1.
<mgrwt>
<rscale>  0 0.16623178E+04</rscale>
<asrwt>0</asrwt>
<pdfrwt beam="1">  1        2 0.17568430E+00 0.16623178E+04</pdfrwt>
<pdfrwt beam="2">  1       -1 0.93069725E-01 0.16623178E+04</pdfrwt>
<totfact> 0.25059478E+01</totfact>
</mgrwt>
</event>
<event>
12    6  0.1627636E-007  0.1856138E+04  0.7818608E-02  0.8677003E-01
         -1   -1    0    0    0  501 -0.00000000000E+00  0.00000000000E+00  0.43240721448E+03  0.43240721448E+03  0.00000000000E+00 0.  1.
          2   -1    0    0  501    0  0.00000000000E+00 -0.00000000000E+00 -0.19919007441E+04  0.19919007441E+04  0.00000000000E+00 0. -1.
         24    2    1    2    0    0 -0.49779620425E+03 -0.19964355986E+03  0.15506653672E+01  0.54309780824E+03  0.85406163673E+02 0.  0.
        254    2    1    2    0    0  0.49779620425E+03  0.19964355986E+03 -0.15610441950E+04  0.18812101503E+04  0.90245999308E+03 0.  0.
         23    2    4    4    0    0  0.13042316374E+03 -0.24785546210E+03 -0.10901397741E+04  0.11293604103E+04  0.92777569772E+02 0.  0.
         23    2    4    4    0    0  0.36737304050E+03  0.44749902195E+03 -0.47090442087E+03  0.75184974008E+03  0.91152249095E+02 0.  0.
          2    1    3    3  502    0 -0.96037450298E+02 -0.75831958894E+02  0.81993098764E+01  0.12264137365E+03  0.00000000000E+00 0. -1.
         -1    1    3    3    0  502 -0.40175875395E+03 -0.12381160096E+03 -0.66486445092E+01  0.42045643458E+03  0.00000000000E+00 0.  1.
         11    1    5    5    0    0  0.10736545823E+02 -0.11781007191E+03 -0.43376278622E+03  0.44960498348E+03  0.00000000000E+00 0.  1.
        -11    1    5    5    0    0  0.11968661792E+03 -0.13004539018E+03 -0.65637698789E+03  0.67975542679E+03  0.00000000000E+00 0. -1.
          2    1    6    6  503    0  0.30030391764E+03  0.38561886505E+03 -0.35372482477E+03  0.60332876915E+03  0.00000000000E+00 0. -1.
         -2    1    6    6    0  503  0.67069122867E+02  0.61880156904E+02 -0.11717959610E+03  0.14852097092E+03  0.00000000000E+00 0.  1.
<mgrwt>
<rscale>  0 0.18561382E+04</rscale>
<asrwt>0</asrwt>
<pdfrwt beam="1">  1        2 0.30644625E+00 0.18561382E+04</pdfrwt>
<pdfrwt beam="2">  1       -1 0.66524190E-01 0.18561382E+04</pdfrwt>
<totfact> 0.16542798E+01</totfact>
</mgrwt>
</event>
<event>
12    6  0.1627636E-007  0.3526900E+04  0.7818608E-02  0.8107444E-01
          2   -1    0    0  501    0  0.00000000000E+00  0.00000000000E+00  0.35053715905E+04  0.35053715905E+04  0.00000000000E+00 0. -1.
         -1   -1    0    0    0  501 -0.00000000000E+00 -0.00000000000E+00 -0.88714007583E+03  0.88714007583E+03  0.00000000000E+00 0.  1.
         24    2    1    2    0    0  0.12260488811E+04  0.10075256702E+04  0.17682139631E+04  0.23773160105E+04  0.82139876937E+02 0.  0.
        254    2    1    2    0    0 -0.12260488811E+04 -0.10075256702E+04  0.85001755156E+03  0.20151956559E+04  0.90563781855E+03 0.  0.
         23    2    4    4    0    0  0.45985401522E+02  0.14684626739E+02 -0.84679387977E+02  0.13230956728E+03  0.89470260032E+02 0.  0.
         23    2    4    4    0    0 -0.12720342826E+04 -0.10222102970E+04  0.93469693954E+03  0.18828860886E+04  0.92825354120E+02 0.  0.
          2    1    3    3  502    0  0.86211603936E+03  0.71002650805E+03  0.11874012003E+04  0.16301237125E+04  0.00000000000E+00 0. -1.
         -1    1    3    3    0  502  0.36393284172E+03  0.29749916219E+03  0.58081276277E+03  0.74719229800E+03  0.00000000000E+00 0.  1.
         11    1    5    5    0    0  0.55089046058E+02 -0.23978196959E+02 -0.63008765886E+02  0.87062400055E+02  0.00000000000E+00 0. -1.
        -11    1    5    5    0    0 -0.91036445356E+01  0.38662823697E+02 -0.21670622091E+02  0.45247167225E+02  0.00000000000E+00 0.  1.
          2    1    6    6  503    0 -0.10108874172E+04 -0.76995028772E+03  0.70383142259E+03  0.14526167724E+04  0.00000000000E+00 0. -1.
         -2    1    6    6    0  503 -0.26114686537E+03 -0.25226000926E+03  0.23086551695E+03  0.43026931622E+03  0.00000000000E+00 0.  1.
<mgrwt>
<rscale>  0 0.35268998E+04</rscale>
<asrwt>0</asrwt>
<pdfrwt beam="1">  1        2 0.53928793E+00 0.35268998E+04</pdfrwt>
<pdfrwt beam="2">  1       -1 0.13648309E+00 0.35268998E+04</pdfrwt>
<totfact> 0.33540295E-01</totfact>
</mgrwt>
</event>
<event>
12    6  0.1627636E-007  0.1553506E+04  0.7818608E-02  0.8849631E-01
          2   -1    0    0  501    0  0.00000000000E+00  0.00000000000E+00  0.73252361394E+03  0.73252361394E+03  0.00000000000E+00 0. -1.
         -1   -1    0    0    0  501 -0.00000000000E+00 -0.00000000000E+00 -0.82365326350E+03  0.82365326350E+03  0.00000000000E+00 0.  1.
         24    2    1    2    0    0 -0.49981163370E+02 -0.16702425904E+03  0.44383530926E+03  0.48364297690E+03  0.80780737550E+02 0.  0.
        254    2    1    2    0    0  0.49981163370E+02  0.16702425904E+03 -0.53496495882E+03  0.10725339005E+04  0.91309705992E+03 0.  0.
         23    2    4    4    0    0 -0.41175503688E+03  0.13840471645E+03 -0.35334356490E+03  0.56736045710E+03  0.91368142604E+02 0.  0.
         23    2    4    4    0    0  0.46173620025E+03  0.28619542590E+02 -0.18162139392E+03  0.50517344344E+03  0.90523369286E+02 0.  0.
          4    1    3    3  502    0 -0.30597849044E+02 -0.16931589800E+03  0.38623978160E+03  0.42283007293E+03  0.00000000000E+00 0. -1.
         -1    1    3    3    0  502 -0.19383314326E+02  0.22916389546E+01  0.57595527661E+02  0.60812903975E+02  0.00000000000E+00 0.  1.
         11    1    5    5    0    0 -0.50196252495E+02  0.64284781734E+01 -0.10005614238E+02  0.51585864463E+02  0.00000000000E+00 0.  1.
        -11    1    5    5    0    0 -0.36155878439E+03  0.13197623828E+03 -0.34333795066E+03  0.51577459263E+03  0.00000000000E+00 0. -1.
          2    1    6    6  503    0  0.40657345960E+03  0.34630519428E+02 -0.18808779810E+03  0.44930865863E+03  0.00000000000E+00 0. -1.
         -2    1    6    6    0  503  0.55162740650E+02 -0.60109768376E+01  0.64664041798E+01  0.55864784808E+02  0.00000000000E+00 0.  1.
<mgrwt>
<rscale>  0 0.15535063E+04</rscale>
<asrwt>0</asrwt>
<pdfrwt beam="1">  1        2 0.11269594E+00 0.15535063E+04</pdfrwt>
<pdfrwt beam="2">  1       -1 0.12671589E+00 0.15535063E+04</pdfrwt>
<totfact> 0.22986292E+01</totfact>
</mgrwt>
</event>
<event>
12    6  0.1627636E-007  0.1420557E+04  0.7818608E-02  0.8939071E-01
         -1   -1    0    0    0  501 -0.00000000000E+00  0.00000000000E+00  0.16827041723E+03  0.16827041723E+03  0.00000000000E+00 0.  1.
          2   -1    0    0  501    0  0.00000000000E+00 -0.00000000000E+00 -0.29981232171E+04  0.29981232171E+04  0.00000000000E+00 0. -1.
         24    2    1    2    0    0 -0.68602582212E+02 -0.40405495017E+03 -0.47969083857E+03  0.63656662844E+03  0.84540255499E+02 0.  0.
        254    2    1    2    0    0  0.68602582212E+02  0.40405495017E+03 -0.23501619613E+04  0.25298270058E+04  0.84190065820E+03 0.  0.
         23    2    4    4    0    0 -0.27064660377E+03  0.32713193298E+03 -0.19218885801E+04  0.19702752805E+04  0.89800228422E+02 0.  0.
         23    2    4    4    0    0  0.33924918598E+03  0.76923017190E+02 -0.42827338121E+03  0.55955172536E+03  0.93128317587E+02 0.  0.
          4    1    3    3  502    0  0.15185309148E+02 -0.29707794173E+02 -0.25118338238E+02  0.41762154691E+02  0.00000000000E+00 0. -1.
         -3    1    3    3    0  502 -0.83787891360E+02 -0.37434715599E+03 -0.45457250033E+03  0.59480447375E+03  0.00000000000E+00 0.  1.
         11    1    5    5    0    0 -0.32294334754E+02  0.24825571409E+02 -0.32974629933E+03  0.33225269746E+03  0.00000000000E+00 0. -1.
        -11    1    5    5    0    0 -0.23835226902E+03  0.30230636157E+03 -0.15921422807E+04  0.16380225830E+04  0.00000000000E+00 0.  1.
          3    1    6    6  503    0  0.58452207138E+02 -0.11702900931E+02 -0.38128887977E+02  0.70763200238E+02  0.00000000000E+00 0. -1.
         -3    1    6    6    0  503  0.28079697885E+03  0.88625918121E+02 -0.39014449323E+03  0.48878852512E+03  0.00000000000E+00 0.  1.
<mgrwt>
<rscale>  0 0.14205569E+04</rscale>
<asrwt>0</asrwt>
<pdfrwt beam="1">  1        2 0.46124970E+00 0.14205569E+04</pdfrwt>
<pdfrwt beam="2">  1       -1 0.25887758E-01 0.14205569E+04</pdfrwt>
<totfact> 0.25711367E+01</totfact>
</mgrwt>
</event>
<event>
12    6  0.1627636E-007  0.1086764E+04  0.7818608E-02  0.9218190E-01
         -1   -1    0    0    0  501 -0.00000000000E+00  0.00000000000E+00  0.67235853448E+03  0.67235853448E+03  0.00000000000E+00 0.  1.
          2   -1    0    0  501    0  0.00000000000E+00 -0.00000000000E+00 -0.43914624829E+03  0.43914624829E+03  0.00000000000E+00 0. -1.
         24    2    1    2    0    0 -0.66563477865E+02  0.26241697923E+02 -0.10178993379E+03  0.14817172216E+03  0.80463316688E+02 0.  0.
        254    2    1    2    0    0  0.66563477865E+02 -0.26241697923E+02  0.33500221998E+03  0.96333306061E+03  0.90036924368E+03 0.  0.
         23    2    4    4    0    0  0.23743441446E+03  0.12652501658E+03  0.56172833305E+03  0.62909009913E+03  0.88498314588E+02 0.  0.
         23    2    4    4    0    0 -0.17087093659E+03 -0.15276671450E+03 -0.22672611307E+03  0.33424296148E+03  0.88199098164E+02 0.  0.
          2    1    3    3  502    0 -0.12660993779E+02 -0.60532012283E+01 -0.80668810256E+02  0.81880394214E+02  0.00000000000E+00 0. -1.
         -1    1    3    3    0  502 -0.53902484086E+02  0.32294899151E+02 -0.21121123534E+02  0.66291327948E+02  0.00000000000E+00 0.  1.
         11    1    5    5    0    0  0.11152644370E+03  0.39011933982E+02  0.15850493151E+03  0.19769646418E+03  0.00000000000E+00 0. -1.
        -11    1    5    5    0    0  0.12590797076E+03  0.87513082599E+02  0.40322340154E+03  0.43139363495E+03  0.00000000000E+00 0.  1.
          3    1    6    6  503    0 -0.15187810059E+03 -0.16092713950E+03 -0.22112228204E+03  0.31282513531E+03  0.00000000000E+00 0. -1.
         -3    1    6    6    0  503 -0.18992836006E+02  0.81604249960E+01 -0.56038310310E+01  0.21417826171E+02  0.00000000000E+00 0.  1.
<mgrwt>
<rscale>  0 0.10867635E+04</rscale>
<asrwt>0</asrwt>
<pdfrwt beam="1">  1        2 0.67560962E-01 0.10867635E+04</pdfrwt>
<pdfrwt beam="2">  1       -1 0.10343977E+00 0.10867635E+04</pdfrwt>
<totfact> 0.71719086E+01</totfact>
</mgrwt>
</event>
<event>
12    6  0.1627636E-007  0.1117920E+04  0.7818608E-02  0.9187900E-01
         -1   -1    0    0    0  501 -0.00000000000E+00  0.00000000000E+00  0.31430848889E+03  0.31430848889E+03  0.00000000000E+00 0.  1.
          2   -1    0    0  501    0  0.00000000000E+00 -0.00000000000E+00 -0.99404336584E+03  0.99404336584E+03  0.00000000000E+00 0. -1.
         24    2    1    2    0    0  0.14194411375E+03 -0.60232338095E+02 -0.24188881613E+03  0.29657171855E+03  0.75289566985E+02 0.  0.
        254    2    1    2    0    0 -0.14194411375E+03  0.60232338095E+02 -0.43784606083E+03  0.10117801362E+04  0.89900712177E+03 0.  0.
         23    2    4    4    0    0  0.19464736758E+03  0.36439595379E+03 -0.32648948747E+03  0.53562641097E+03  0.98123686514E+02 0.  0.
         23    2    4    4    0    0 -0.33659148133E+03 -0.30416361569E+03 -0.11135657336E+03  0.47615372521E+03  0.92264582508E+02 0.  0.
          4    1    3    3  502    0  0.12189179401E+03 -0.16825981240E+02 -0.16144514881E+03  0.20299078591E+03  0.00000000000E+00 0. -1.
         -3    1    3    3    0  502  0.20052319748E+02 -0.43406356856E+02 -0.80443667314E+02  0.93580932640E+02  0.00000000000E+00 0.  1.
         11    1    5    5    0    0  0.49272260023E+02  0.11010765599E+03 -0.15428749767E+03  0.19584709202E+03  0.00000000000E+00 0.  1.
        -11    1    5    5    0    0  0.14537510756E+03  0.25428829780E+03 -0.17220198981E+03  0.33977931895E+03  0.00000000000E+00 0. -1.
          4    1    6    6  503    0 -0.54593143985E+02 -0.88785684449E+02 -0.51662925026E+02  0.11632870220E+03  0.00000000000E+00 0. -1.
         -4    1    6    6    0  503 -0.28199833735E+03 -0.21537793124E+03 -0.59693648331E+02  0.35982502301E+03  0.00000000000E+00 0.  1.
<mgrwt>
<rscale>  0 0.11179200E+04</rscale>
<asrwt>0</asrwt>
<pdfrwt beam="1">  1        2 0.15292974E+00 0.11179200E+04</pdfrwt>
<pdfrwt beam="2">  1       -1 0.48355153E-01 0.11179200E+04</pdfrwt>
<totfact> 0.12291030E+02</totfact>
</mgrwt>
</event>
<event>
12    6  0.1627636E-007  0.1213340E+04  0.7818608E-02  0.9101259E-01
          2   -1    0    0  501    0  0.00000000000E+00  0.00000000000E+00  0.69634208935E+03  0.69634208935E+03  0.00000000000E+00 0. -1.
         -1   -1    0    0    0  501 -0.00000000000E+00 -0.00000000000E+00 -0.52854577438E+03  0.52854577438E+03  0.00000000000E+00 0.  1.
         24    2    1    2    0    0  0.24901254174E+03  0.18513296672E+02 -0.41337231071E+02  0.26513620955E+03  0.78983889780E+02 0.  0.
        254    2    1    2    0    0 -0.24901254174E+03 -0.18513296672E+02  0.20913354604E+03  0.95975165418E+03  0.90279366941E+03 0.  0.
         23    2    4    4    0    0 -0.40634592470E+03 -0.23347540813E+03 -0.15245366722E+03  0.50125387222E+03  0.91572632663E+02 0.  0.
         23    2    4    4    0    0  0.15733338296E+03  0.21496211145E+03  0.36158721326E+03  0.45849778195E+03  0.92262671252E+02 0.  0.
          2    1    3    3  502    0  0.33534087463E+02 -0.15575157491E+02  0.14871501629E+02  0.39853257252E+02  0.00000000000E+00 0. -1.
         -1    1    3    3    0  502  0.21547845428E+03  0.34088454163E+02 -0.56208732700E+02  0.22528295230E+03  0.00000000000E+00 0.  1.
         11    1    5    5    0    0 -0.24180354884E+03 -0.14162578558E+03 -0.43504293557E+02  0.28358322046E+03  0.00000000000E+00 0. -1.
        -11    1    5    5    0    0 -0.16454237586E+03 -0.91849622546E+02 -0.10894937366E+03  0.21767065176E+03  0.00000000000E+00 0.  1.
          1    1    6    6  503    0  0.10482355586E+03  0.18863896013E+03  0.23565269791E+03  0.31953846275E+03  0.00000000000E+00 0. -1.
         -1    1    6    6    0  503  0.52509827095E+02  0.26323151326E+02  0.12593451535E+03  0.13895931921E+03  0.00000000000E+00 0.  1.
<mgrwt>
<rscale>  0 0.12133403E+04</rscale>
<asrwt>0</asrwt>
<pdfrwt beam="1">  1        2 0.10712955E+00 0.12133403E+04</pdfrwt>
<pdfrwt beam="2">  1       -1 0.81314735E-01 0.12133403E+04</pdfrwt>
<totfact> 0.70005838E+01</totfact>
</mgrwt>
</event>
<event>
12    6  0.1627636E-007  0.1760091E+04  0.7818608E-02  0.8727815E-01
          4   -1    0    0  501    0  0.00000000000E+00  0.00000000000E+00  0.63582642489E+03  0.63582642489E+03  0.00000000000E+00 0. -1.
         -3   -1    0    0    0  501 -0.00000000000E+00 -0.00000000000E+00 -0.12180686361E+04  0.12180686361E+04  0.00000000000E+00 0.  1.
         24    2    1    2    0    0  0.21334793841E+03  0.36904801263E+03  0.30785669103E+03  0.53305947864E+03  0.87537918124E+02 0.  0.
        254    2    1    2    0    0 -0.21334793841E+03 -0.36904801263E+03 -0.89009890223E+03  0.13208355823E+04  0.87784782359E+03 0.  0.
         23    2    4    4    0    0 -0.33313303225E+03  0.81358227459E+02 -0.74359779445E+03  0.82381239256E+03  0.90179819626E+02 0.  0.
         23    2    4    4    0    0  0.11978509384E+03 -0.45040624009E+03 -0.14650110778E+03  0.49702318978E+03  0.91406929633E+02 0.  0.
          4    1    3    3  502    0  0.19629270115E+03  0.35382667085E+03  0.31051885369E+03  0.51004519018E+03  0.00000000000E+00 0. -1.
         -3    1    3    3    0  502  0.17055237256E+02  0.15221341784E+02 -0.26621626571E+01  0.23014288466E+02  0.00000000000E+00 0.  1.
         11    1    5    5    0    0 -0.24861885000E+03  0.76187749226E+02 -0.63447216072E+03  0.68569003817E+03  0.00000000000E+00 0. -1.
        -11    1    5    5    0    0 -0.84514182246E+02  0.51704782331E+01 -0.10912563373E+03  0.13812235439E+03  0.00000000000E+00 0.  1.
          4    1    6    6  503    0  0.19973751417E+02 -0.22060199959E+03 -0.41461912340E+02  0.22535146581E+03  0.00000000000E+00 0. -1.
         -4    1    6    6    0  503  0.99811342423E+02 -0.22980424050E+03 -0.10503919544E+03  0.27167172397E+03  0.00000000000E+00 0.  1.
<mgrwt>
<rscale>  0 0.17600912E+04</rscale>
<asrwt>0</asrwt>
<pdfrwt beam="1">  1        4 0.97819451E-01 0.17600912E+04</pdfrwt>
<pdfrwt beam="2">  1       -3 0.18739517E+00 0.17600912E+04</pdfrwt>
<totfact> 0.33301202E-01</totfact>
</mgrwt>
</event>
<event>
12    6  0.1627636E-007  0.4949398E+04  0.7818608E-02  0.7836361E-01
         -1   -1    0    0    0  501 -0.00000000000E+00  0.00000000000E+00  0.18656833179E+04  0.18656833179E+04  0.00000000000E+00 0.  1.
          2   -1    0    0  501    0  0.00000000000E+00 -0.00000000000E+00 -0.32825162131E+04  0.32825162131E+04  0.00000000000E+00 0. -1.
         24    2    1    2    0    0  0.92401701021E+03  0.12305774236E+04 -0.25903951991E+04  0.30140836813E+04  0.80155596124E+02 0.  0.
        254    2    1    2    0    0 -0.92401701021E+03 -0.12305774236E+04  0.11735623039E+04  0.21341158497E+04  0.89948526843E+03 0.  0.
         23    2    4    4    0    0 -0.25141332650E+03 -0.10338861183E+04  0.80265685048E+03  0.13365545464E+04  0.99954336747E+02 0.  0.
         23    2    4    4    0    0 -0.67260368371E+03 -0.19669130535E+03  0.37090545346E+03  0.79756130337E+03  0.86313337879E+02 0.  0.
          2    1    3    3  502    0  0.54459309330E+03  0.68727739546E+03 -0.14115615541E+04  0.16617574662E+04  0.00000000000E+00 0. -1.
         -1    1    3    3    0  502  0.37942391690E+03  0.54330002818E+03 -0.11788336450E+04  0.13523262151E+04  0.00000000000E+00 0.  1.
         11    1    5    5    0    0 -0.66102864287E+02 -0.41446803637E+03  0.36053606217E+03  0.55329882881E+03  0.00000000000E+00 0.  1.
        -11    1    5    5    0    0 -0.18531046221E+03 -0.61941808192E+03  0.44212078832E+03  0.78325571755E+03  0.00000000000E+00 0. -1.
          1    1    6    6  503    0 -0.25910250238E+03 -0.10779972272E+03  0.18096530107E+03  0.33392113912E+03  0.00000000000E+00 0.  1.
         -1    1    6    6    0  503 -0.41350118133E+03 -0.88891582632E+02  0.18994015239E+03  0.46364016426E+03  0.00000000000E+00 0. -1.
<mgrwt>
<rscale>  0 0.49493982E+04</rscale>
<asrwt>0</asrwt>
<pdfrwt beam="1">  1        2 0.50500249E+00 0.49493982E+04</pdfrwt>
<pdfrwt beam="2">  1       -1 0.28702821E+00 0.49493982E+04</pdfrwt>
<totfact> 0.38032951E-02</totfact>
</mgrwt>
</event>
<event>
12    6  0.1627636E-007  0.2281964E+04  0.7818608E-02  0.8485067E-01
         -1   -1    0    0    0  501 -0.00000000000E+00  0.00000000000E+00  0.71262621437E+03  0.71262621437E+03  0.00000000000E+00 0.  1.
          2   -1    0    0  501    0  0.00000000000E+00 -0.00000000000E+00 -0.18268194071E+04  0.18268194071E+04  0.00000000000E+00 0. -1.
         24    2    1    2    0    0  0.46957257082E+03  0.58440679844E+03 -0.11441243955E+04  0.13702607255E+04  0.81019245585E+02 0.  0.
        254    2    1    2    0    0 -0.46957257082E+03 -0.58440679844E+03  0.29931202767E+02  0.11691848960E+04  0.89669824284E+03 0.  0.
         23    2    4    4    0    0 -0.39064765936E+03 -0.63771345503E+03 -0.30169405312E+03  0.81177792951E+03  0.93166843114E+02 0.  0.
         23    2    4    4    0    0 -0.78924911460E+02  0.53306656587E+02  0.33162525589E+03  0.35740696646E+03  0.93239948745E+02 0.  0.
          4    1    3    3  502    0  0.13929705063E+03  0.20813280123E+03 -0.44001635321E+03  0.50629766180E+03  0.00000000000E+00 0. -1.
         -3    1    3    3    0  502  0.33027552019E+03  0.37627399722E+03 -0.70410804231E+03  0.86396306372E+03  0.00000000000E+00 0.  1.
         11    1    5    5    0    0 -0.26101540836E+03 -0.50282681796E+03 -0.22916771290E+03  0.61113148577E+03  0.00000000000E+00 0.  1.
        -11    1    5    5    0    0 -0.12963225100E+03 -0.13488663707E+03 -0.72526340221E+02  0.20064644374E+03  0.00000000000E+00 0. -1.
          3    1    6    6  503    0 -0.41694202167E+02 -0.10527950852E+02  0.48602510205E+02  0.64895671980E+02  0.00000000000E+00 0. -1.
         -3    1    6    6    0  503 -0.37230709293E+02  0.63834607439E+02  0.28302274568E+03  0.29251129448E+03  0.00000000000E+00 0.  1.
<mgrwt>
<rscale>  0 0.22819635E+04</rscale>
<asrwt>0</asrwt>
<pdfrwt beam="1">  1        2 0.28104914E+00 0.22819635E+04</pdfrwt>
<pdfrwt beam="2">  1       -1 0.10963480E+00 0.22819635E+04</pdfrwt>
<totfact> 0.66291100E+00</totfact>
</mgrwt>
</event>
<event>
12    6  0.1627636E-007  0.3468550E+04  0.7818608E-02  0.8121284E-01
          2   -1    0    0  501    0  0.00000000000E+00  0.00000000000E+00  0.39576721219E+04  0.39576721219E+04  0.00000000000E+00 0. -1.
         -1   -1    0    0    0  501 -0.00000000000E+00 -0.00000000000E+00 -0.75996922618E+03  0.75996922618E+03  0.00000000000E+00 0.  1.
         24    2    1    2    0    0 -0.10538448471E+04  0.11699228109E+04  0.20048175873E+04  0.25504360182E+04  0.78243077708E+02 0.  0.
        254    2    1    2    0    0  0.10538448471E+04 -0.11699228109E+04  0.11928853084E+04  0.21672053299E+04  0.89134462335E+03 0.  0.
         23    2    4    4    0    0  0.69525138859E+02  0.36304151839E+02 -0.87780706442E+02  0.14918648974E+03  0.91648349268E+02 0.  0.
         23    2    4    4    0    0  0.98431970823E+03 -0.12062269628E+04  0.12806660149E+04  0.20180188402E+04  0.91792286389E+02 0.  0.
          4    1    3    3  502    0 -0.18534221429E+03  0.20260075634E+03  0.39916463802E+03  0.48449067185E+03  0.00000000000E+00 0. -1.
         -3    1    3    3    0  502 -0.86850263280E+03  0.96732205461E+03  0.16056529493E+04  0.20659453464E+04  0.00000000000E+00 0.  1.
         11    1    5    5    0    0 -0.16933093165E+02  0.25277754594E+02 -0.38465018068E+02  0.49043369954E+02  0.00000000000E+00 0. -1.
        -11    1    5    5    0    0  0.86458232023E+02  0.11026397245E+02 -0.49315688374E+02  0.10014311979E+03  0.00000000000E+00 0.  1.
          4    1    6    6  503    0  0.27507346728E+03 -0.34211710709E+03  0.30875625397E+03  0.53669353614E+03  0.00000000000E+00 0. -1.
         -4    1    6    6    0  503  0.70924624095E+03 -0.86410985570E+03  0.97190976089E+03  0.14813253040E+04  0.00000000000E+00 0.  1.
<mgrwt>
<rscale>  0 0.34685496E+04</rscale>
<asrwt>0</asrwt>
<pdfrwt beam="1">  1        2 0.60887262E+00 0.34685496E+04</pdfrwt>
<pdfrwt beam="2">  1       -1 0.11691834E+00 0.34685496E+04</pdfrwt>
<totfact> 0.22764627E-01</totfact>
</mgrwt>
</event>
<event>
12    6  0.1627636E-007  0.1936658E+04  0.7818608E-02  0.8636821E-01
         -1   -1    0    0    0  501 -0.00000000000E+00  0.00000000000E+00  0.34083112448E+03  0.34083112448E+03  0.00000000000E+00 0.  1.
          2   -1    0    0  501    0  0.00000000000E+00 -0.00000000000E+00 -0.27511022970E+04  0.27511022970E+04  0.00000000000E+00 0. -1.
         24    2    1    2    0    0 -0.12415558039E+03  0.19391257122E+03  0.20471081204E+03  0.31828648340E+03  0.79894152069E+02 0.  0.
        254    2    1    2    0    0  0.12415558039E+03 -0.19391257122E+03 -0.26149819845E+04  0.27736469380E+04  0.89552770146E+03 0.  0.
         23    2    4    4    0    0 -0.14683864549E+03 -0.47356345282E+03 -0.17365128159E+04  0.18082526797E+04  0.92070962660E+02 0.  0.
         23    2    4    4    0    0  0.27099422588E+03  0.27965088160E+03 -0.87846916866E+03  0.96539425838E+03  0.92927432909E+02 0.  0.
          2    1    3    3  502    0  0.47779500358E+01  0.40768162242E+01 -0.45215852847E+01  0.77391194950E+01  0.00000000000E+00 0. -1.
         -1    1    3    3    0  502 -0.12893353043E+03  0.18983575499E+03  0.20923239732E+03  0.31054736391E+03  0.00000000000E+00 0.  1.
         11    1    5    5    0    0 -0.67863350282E+02 -0.32644599975E+03 -0.12583372815E+04  0.13017623205E+04  0.00000000000E+00 0.  1.
        -11    1    5    5    0    0 -0.78975295212E+02 -0.14711745306E+03 -0.47817553433E+03  0.50649035912E+03  0.00000000000E+00 0. -1.
          2    1    6    6  503    0  0.23031132998E+03  0.27051625592E+03 -0.74150180979E+03  0.82222094801E+03  0.00000000000E+00 0.  1.
         -2    1    6    6    0  503  0.40682895905E+02  0.91346256843E+01 -0.13696735887E+03  0.14317331037E+03  0.00000000000E+00 0. -1.
<mgrwt>
<rscale>  0 0.19366582E+04</rscale>
<asrwt>0</asrwt>
<pdfrwt beam="1">  1        2 0.42324651E+00 0.19366582E+04</pdfrwt>
<pdfrwt beam="2">  1       -1 0.52435558E-01 0.19366582E+04</pdfrwt>
<totfact> 0.96558399E+00</totfact>
</mgrwt>
</event>
<event>
12    6  0.1627636E-007  0.2041159E+04  0.7818608E-02  0.8587616E-01
          2   -1    0    0  501    0  0.00000000000E+00  0.00000000000E+00  0.19219097461E+04  0.19219097461E+04  0.00000000000E+00 0. -1.
         -1   -1    0    0    0  501 -0.00000000000E+00 -0.00000000000E+00 -0.54195181613E+03  0.54195181613E+03  0.00000000000E+00 0.  1.
         24    2    1    2    0    0  0.35442825845E+03 -0.10634031472E+03  0.13819899414E+04  0.14334891820E+04  0.89818616909E+02 0.  0.
        254    2    1    2    0    0 -0.35442825845E+03  0.10634031472E+03 -0.20320114133E+01  0.10303723802E+04  0.96163166541E+03 0.  0.
         23    2    4    4    0    0 -0.21434699050E+03 -0.40960946878E+03  0.91990714446E+02  0.47996873525E+03  0.90460743018E+02 0.  0.
         23    2    4    4    0    0 -0.14008126796E+03  0.51594978350E+03 -0.94022725859E+02  0.55040364496E+03  0.90977792265E+02 0.  0.
          2    1    3    3  502    0  0.34362899022E+03 -0.81243656674E+02  0.12977126647E+04  0.13448938898E+04  0.00000000000E+00 0. -1.
         -1    1    3    3    0  502  0.10799268234E+02 -0.25096658045E+02  0.84277276702E+02  0.88595292243E+02  0.00000000000E+00 0.  1.
         11    1    5    5    0    0 -0.15787396997E+03 -0.36091079018E+03  0.95411449448E+02  0.40531979171E+03  0.00000000000E+00 0. -1.
        -11    1    5    5    0    0 -0.56473020528E+02 -0.48698678599E+02 -0.34207350019E+01  0.74648943548E+02  0.00000000000E+00 0.  1.
          3    1    6    6  503    0 -0.86980880781E+02  0.17429859430E+03 -0.55269621471E+02  0.20248556654E+03  0.00000000000E+00 0. -1.
         -3    1    6    6    0  503 -0.53100387174E+02  0.34165118919E+03 -0.38753104389E+02  0.34791807843E+03  0.00000000000E+00 0.  1.
<mgrwt>
<rscale>  0 0.20411590E+04</rscale>
<asrwt>0</asrwt>
<pdfrwt beam="1">  1        2 0.29567842E+00 0.20411590E+04</pdfrwt>
<pdfrwt beam="2">  1       -1 0.83377203E-01 0.20411590E+04</pdfrwt>
<totfact> 0.11111353E+01</totfact>
</mgrwt>
</event>
<event>
12    6  0.1627636E-007  0.2044512E+04  0.7818608E-02  0.8586088E-01
         -1   -1    0    0    0  501 -0.00000000000E+00  0.00000000000E+00  0.78440139520E+03  0.78440139520E+03  0.00000000000E+00 0.  1.
          2   -1    0    0  501    0  0.00000000000E+00 -0.00000000000E+00 -0.13322357241E+04  0.13322357241E+04  0.00000000000E+00 0. -1.
         24    2    1    2    0    0  0.14353792172E+03  0.18121323711E+03  0.59591182912E+03  0.64407118284E+03  0.79217474053E+02 0.  0.
        254    2    1    2    0    0 -0.14353792172E+03 -0.18121323711E+03 -0.11437461580E+04  0.14725659365E+04  0.89825040549E+03 0.  0.
         23    2    4    4    0    0 -0.19522848173E+03  0.14680858573E+03  0.20281922551E+02  0.25874036949E+03  0.82875216432E+02 0.  0.
         23    2    4    4    0    0  0.51690560012E+02 -0.32802182284E+03 -0.11640280806E+04  0.12138255670E+04  0.90226960586E+02 0.  0.
          2    1    3    3  502    0  0.32200863498E+01 -0.76525884699E+01  0.12549054375E+02  0.15046921017E+02  0.00000000000E+00 0. -1.
         -1    1    3    3    0  502  0.14031783537E+03  0.18886582558E+03  0.58336277475E+03  0.62902426182E+03  0.00000000000E+00 0.  1.
         11    1    5    5    0    0 -0.10721081176E+03  0.11249856301E+03  0.43665169511E+02  0.16142097715E+03  0.00000000000E+00 0.  1.
        -11    1    5    5    0    0 -0.88017669970E+02  0.34310022721E+02 -0.23383246960E+02  0.97319392335E+02  0.00000000000E+00 0. -1.
          3    1    6    6  503    0  0.30823178942E+02 -0.37786663783E+02 -0.24593747797E+03  0.25072523485E+03  0.00000000000E+00 0. -1.
         -3    1    6    6    0  503  0.20867381070E+02 -0.29023515905E+03 -0.91809060262E+03  0.96310033213E+03  0.00000000000E+00 0.  1.
<mgrwt>
<rscale>  0 0.20445122E+04</rscale>
<asrwt>0</asrwt>
<pdfrwt beam="1">  1        2 0.20495934E+00 0.20445122E+04</pdfrwt>
<pdfrwt beam="2">  1       -1 0.12067714E+00 0.20445122E+04</pdfrwt>
<totfact> 0.10200450E+01</totfact>
</mgrwt>
</event>
<event>
12    6  0.1627636E-007  0.2027521E+04  0.7818608E-02  0.8593861E-01
          2   -1    0    0  501    0  0.00000000000E+00  0.00000000000E+00  0.75247346026E+03  0.75247346026E+03  0.00000000000E+00 0. -1.
         -1   -1    0    0    0  501 -0.00000000000E+00 -0.00000000000E+00 -0.13657758055E+04  0.13657758055E+04  0.00000000000E+00 0.  1.
         24    2    1    2    0    0 -0.11724427873E+03  0.19492459432E+03 -0.10592461278E+04  0.10863666982E+04  0.80302088677E+02 0.  0.
        254    2    1    2    0    0  0.11724427873E+03 -0.19492459432E+03  0.44594378259E+03  0.10318825675E+04  0.90231588565E+03 0.  0.
         23    2    4    4    0    0 -0.17441115206E+03 -0.31048702587E+03  0.57396404719E+03  0.68101082985E+03  0.86715510223E+02 0.  0.
         23    2    4    4    0    0  0.29165543079E+03  0.11556243156E+03 -0.12802026460E+03  0.35087173764E+03  0.91127505357E+02 0.  0.
          4    1    3    3  502    0 -0.17966055131E+02 -0.33287133096E+01 -0.55753514230E+02  0.58671235016E+02  0.00000000000E+00 0. -1.
         -3    1    3    3    0  502 -0.99278223597E+02  0.19825330763E+03 -0.10034926136E+04  0.10276954632E+04  0.00000000000E+00 0.  1.
         11    1    5    5    0    0 -0.10958187660E+03 -0.17979007934E+03  0.25815417784E+03  0.33313096501E+03  0.00000000000E+00 0.  1.
        -11    1    5    5    0    0 -0.64829275455E+02 -0.13069694654E+03  0.31580986934E+03  0.34787986485E+03  0.00000000000E+00 0. -1.
          1    1    6    6  503    0  0.15011284064E+03  0.77591592319E+02 -0.11360265764E+03  0.20361700309E+03  0.00000000000E+00 0. -1.
         -1    1    6    6    0  503  0.14154259014E+03  0.37970839237E+02 -0.14417606957E+02  0.14725473455E+03  0.00000000000E+00 0.  1.
<mgrwt>
<rscale>  0 0.20275207E+04</rscale>
<asrwt>0</asrwt>
<pdfrwt beam="1">  1        2 0.11576515E+00 0.20275207E+04</pdfrwt>
<pdfrwt beam="2">  1       -1 0.21011935E+00 0.20275207E+04</pdfrwt>
<totfact> 0.50689183E+00</totfact>
</mgrwt>
</event>
<event>
12    6  0.1627636E-007  0.2632310E+04  0.7818608E-02  0.8357308E-01
         -1   -1    0    0    0  501 -0.00000000000E+00  0.00000000000E+00  0.13389691834E+04  0.13389691834E+04  0.00000000000E+00 0.  1.
          2   -1    0    0  501    0  0.00000000000E+00 -0.00000000000E+00 -0.12937295922E+04  0.12937295922E+04  0.00000000000E+00 0. -1.
         24    2    1    2    0    0 -0.66277550804E+03 -0.78330057616E+03 -0.51890748219E+03  0.11528293928E+04  0.83183333987E+02 0.  0.
        254    2    1    2    0    0  0.66277550804E+03  0.78330057616E+03  0.56414707340E+03  0.14798693828E+04  0.90494215449E+03 0.  0.
         23    2    4    4    0    0  0.67542650075E+03  0.43171195588E+03 -0.25085492979E+01  0.80694943808E+03  0.92654908308E+02 0.  0.
         23    2    4    4    0    0 -0.12650992710E+02  0.35158862029E+03  0.56665562269E+03  0.67291994469E+03  0.89151846318E+02 0.  0.
          4    1    3    3  502    0 -0.39942441129E+03 -0.43534453201E+03 -0.26067372793E+03  0.64576738406E+03  0.00000000000E+00 0. -1.
         -1    1    3    3    0  502 -0.26335109676E+03 -0.34795604416E+03 -0.25823375426E+03  0.50706200870E+03  0.00000000000E+00 0.  1.
         11    1    5    5    0    0 -0.17424399633E+01  0.78237850627E+01  0.68255477226E+00  0.80444757909E+01  0.00000000000E+00 0. -1.
        -11    1    5    5    0    0  0.67716894072E+03  0.42388817082E+03 -0.31911040701E+01  0.79890496229E+03  0.00000000000E+00 0.  1.
          3    1    6    6  503    0  0.33510489230E+02  0.23337816330E+03  0.35609572211E+03  0.42707432995E+03  0.00000000000E+00 0. -1.
         -3    1    6    6    0  503 -0.46161481940E+02  0.11821045698E+03  0.21055990059E+03  0.24584561475E+03  0.00000000000E+00 0.  1.
<mgrwt>
<rscale>  0 0.26323101E+04</rscale>
<asrwt>0</asrwt>
<pdfrwt beam="1">  1        2 0.19903532E+00 0.26323101E+04</pdfrwt>
<pdfrwt beam="2">  1       -1 0.20599526E+00 0.26323101E+04</pdfrwt>
<totfact> 0.22939553E+00</totfact>
</mgrwt>
</event>
<event>
12    6  0.1627636E-007  0.1414620E+04  0.7818608E-02  0.8943303E-01
          2   -1    0    0  501    0  0.00000000000E+00  0.00000000000E+00  0.16719762906E+04  0.16719762906E+04  0.00000000000E+00 0. -1.
         -1   -1    0    0    0  501 -0.00000000000E+00 -0.00000000000E+00 -0.29921915460E+03  0.29921915460E+03  0.00000000000E+00 0.  1.
         24    2    1    2    0    0 -0.15808029192E+03 -0.23628144697E+03 -0.88039537870E+01  0.29608099057E+03  0.82268721274E+02 0.  0.
        254    2    1    2    0    0  0.15808029192E+03  0.23628144697E+03  0.13815610898E+04  0.16751144547E+04  0.90359232535E+03 0.  0.
         23    2    4    4    0    0 -0.34226089076E+03  0.20547010200E+03  0.41527974112E+03  0.58275259471E+03  0.88220423370E+02 0.  0.
         23    2    4    4    0    0  0.50034118268E+03  0.30811344970E+02  0.96628134871E+03  0.10923618600E+04  0.90907371289E+02 0.  0.
          4    1    3    3  502    0  0.88584794285E+01 -0.38077021159E+01  0.11081738905E+01  0.97056325173E+01  0.00000000000E+00 0. -1.
         -3    1    3    3    0  502 -0.16693877135E+03 -0.23247374485E+03 -0.99121276775E+01  0.28637535805E+03  0.00000000000E+00 0.  1.
         11    1    5    5    0    0 -0.32039864834E+03  0.21407508757E+03  0.39105597172E+03  0.54900656644E+03  0.00000000000E+00 0. -1.
        -11    1    5    5    0    0 -0.21862242419E+02 -0.86049855686E+01  0.24223769405E+02  0.33746028276E+02  0.00000000000E+00 0.  1.
          1    1    6    6  503    0  0.20498421468E+03 -0.45067364110E+01  0.48523326922E+03  0.52677335212E+03  0.00000000000E+00 0. -1.
         -1    1    6    6    0  503  0.29535696801E+03  0.35318081381E+02  0.48104807949E+03  0.56558850784E+03  0.00000000000E+00 0.  1.
<mgrwt>
<rscale>  0 0.14146199E+04</rscale>
<asrwt>0</asrwt>
<pdfrwt beam="1">  1        2 0.25722712E+00 0.14146199E+04</pdfrwt>
<pdfrwt beam="2">  1       -1 0.46033717E-01 0.14146199E+04</pdfrwt>
<totfact> 0.52847188E+01</totfact>
</mgrwt>
</event>
<event>
12    6  0.1627636E-007  0.2474512E+04  0.7818608E-02  0.8412122E-01
         -1   -1    0    0    0  501 -0.00000000000E+00  0.00000000000E+00  0.68149745233E+03  0.68149745233E+03  0.00000000000E+00 0.  1.
          2   -1    0    0  501    0  0.00000000000E+00 -0.00000000000E+00 -0.22462333658E+04  0.22462333658E+04  0.00000000000E+00 0. -1.
         24    2    1    2    0    0 -0.56728081482E+03  0.86036904956E+03 -0.10339458592E+04  0.14619486484E+04  0.78786968638E+02 0.  0.
        254    2    1    2    0    0  0.56728081482E+03 -0.86036904956E+03 -0.53079005426E+03  0.14657821697E+04  0.89707126982E+03 0.  0.
         23    2    4    4    0    0  0.30892346050E+03 -0.69076433319E+03 -0.75506378516E+03  0.10729430252E+04  0.92175632764E+02 0.  0.
         23    2    4    4    0    0  0.25835735432E+03 -0.16960471637E+03  0.22427373090E+03  0.39283914452E+03  0.92247518917E+02 0.  0.
          2    1    3    3  502    0 -0.45515077331E+03  0.66790753359E+03 -0.85157191256E+03  0.11740687468E+04  0.00000000000E+00 0. -1.
         -1    1    3    3    0  502 -0.11213004151E+03  0.19246151597E+03 -0.18237394665E+03  0.28787990161E+03  0.00000000000E+00 0.  1.
         11    1    5    5    0    0  0.25331252087E+03 -0.49970162820E+03 -0.51345289753E+03  0.75993606865E+03  0.00000000000E+00 0.  1.
        -11    1    5    5    0    0  0.55610939624E+02 -0.19106270498E+03 -0.24161088763E+03  0.31300695657E+03  0.00000000000E+00 0. -1.
          3    1    6    6  503    0  0.22452687767E+03 -0.16255363199E+03  0.16050588396E+03  0.32030944547E+03  0.00000000000E+00 0. -1.
         -3    1    6    6    0  503  0.33830476652E+02 -0.70510843890E+01  0.63767846942E+02  0.72529699056E+02  0.00000000000E+00 0.  1.
<mgrwt>
<rscale>  0 0.24745119E+04</rscale>
<asrwt>0</asrwt>
<pdfrwt beam="1">  1        2 0.34557437E+00 0.24745119E+04</pdfrwt>
<pdfrwt beam="2">  1       -1 0.10484576E+00 0.24745119E+04</pdfrwt>
<totfact> 0.42231477E+00</totfact>
</mgrwt>
</event>
<event>
12    6  0.1627636E-007  0.1090201E+04  0.7818608E-02  0.9214796E-01
         -1   -1    0    0    0  501 -0.00000000000E+00  0.00000000000E+00  0.11347675451E+03  0.11347675451E+03  0.00000000000E+00 0.  1.
          2   -1    0    0  501    0  0.00000000000E+00 -0.00000000000E+00 -0.26184619865E+04  0.26184619865E+04  0.00000000000E+00 0. -1.
         24    2    1    2    0    0  0.82395578489E+02 -0.78839949566E+02 -0.12192355094E+03  0.18650316869E+03  0.83146320749E+02 0.  0.
        254    2    1    2    0    0 -0.82395578489E+02  0.78839949566E+02 -0.23830616810E+04  0.25454355723E+04  0.88727363770E+03 0.  0.
         23    2    4    4    0    0 -0.27437446053E+03 -0.32726714794E+03 -0.11052514033E+04  0.11881545324E+04  0.88007941203E+02 0.  0.
         23    2    4    4    0    0  0.19197888204E+03  0.40610709751E+03 -0.12778102777E+04  0.13572810399E+04  0.87371903583E+02 0.  0.
          2    1    3    3  502    0  0.36679583544E+01 -0.40459051538E+02 -0.79293231369E+02  0.89094361835E+02  0.00000000000E+00 0. -1.
         -1    1    3    3    0  502  0.78727620134E+02 -0.38380898028E+02 -0.42630319571E+02  0.97408806851E+02  0.00000000000E+00 0.  1.
         11    1    5    5    0    0 -0.30657918306E+02 -0.14606020779E+02 -0.15219846953E+03  0.15594107196E+03  0.00000000000E+00 0.  1.
        -11    1    5    5    0    0 -0.24371654222E+03 -0.31266112717E+03 -0.95305293376E+03  0.10322134605E+04  0.00000000000E+00 0. -1.
          3    1    6    6  503    0  0.14028929916E+03  0.24532999108E+03 -0.68836749186E+03  0.74412209739E+03  0.00000000000E+00 0. -1.
         -3    1    6    6    0  503  0.51689582883E+02  0.16077710643E+03 -0.58944278585E+03  0.61315894246E+03  0.00000000000E+00 0.  1.
<mgrwt>
<rscale>  0 0.10902010E+04</rscale>
<asrwt>0</asrwt>
<pdfrwt beam="1">  1        2 0.40284033E+00 0.10902010E+04</pdfrwt>
<pdfrwt beam="2">  1       -1 0.17457961E-01 0.10902010E+04</pdfrwt>
<totfact> 0.87114583E+01</totfact>
</mgrwt>
</event>
<event>
12    6  0.1627636E-007  0.2139208E+04  0.7818608E-02  0.8544166E-01
         -1   -1    0    0    0  501 -0.00000000000E+00  0.00000000000E+00  0.50249553517E+03  0.50249553517E+03  0.00000000000E+00 0.  1.
          2   -1    0    0  501    0  0.00000000000E+00 -0.00000000000E+00 -0.22767422864E+04  0.22767422864E+04  0.00000000000E+00 0. -1.
         24    2    1    2    0    0 -0.31606631578E+03 -0.25830319036E+03 -0.17540468549E+04  0.18025519409E+04  0.76776796349E+02 0.  0.
        254    2    1    2    0    0  0.31606631578E+03  0.25830319036E+03 -0.20199896318E+02  0.97668588062E+03  0.88706753941E+03 0.  0.
         23    2    4    4    0    0  0.15548214225E+03 -0.23911412460E+03 -0.25816631291E+03  0.39530391990E+03  0.90912500916E+02 0.  0.
         23    2    4    4    0    0  0.16058417353E+03  0.49741731495E+03  0.23796641659E+03  0.58138196072E+03  0.90364300608E+02 0.  0.
          4    1    3    3  502    0 -0.27949785471E+03 -0.21687630875E+03 -0.13888785224E+04  0.14332264071E+04  0.00000000000E+00 0. -1.
         -3    1    3    3    0  502 -0.36568461070E+02 -0.41426881611E+02 -0.36516833252E+03  0.36932553383E+03  0.00000000000E+00 0.  1.
         11    1    5    5    0    0  0.91388741390E+01 -0.27888957688E+02 -0.72689594416E+02  0.78390625191E+02  0.00000000000E+00 0. -1.
        -11    1    5    5    0    0  0.14634326812E+03 -0.21122516691E+03 -0.18547671849E+03  0.31691329471E+03  0.00000000000E+00 0.  1.
          4    1    6    6  503    0  0.65632764387E+02  0.89206330455E+02  0.38723463117E+02  0.11732406296E+03  0.00000000000E+00 0. -1.
         -4    1    6    6    0  503  0.94951409138E+02  0.40821098450E+03  0.19924295347E+03  0.46405789776E+03  0.00000000000E+00 0.  1.
<mgrwt>
<rscale>  0 0.21392081E+04</rscale>
<asrwt>0</asrwt>
<pdfrwt beam="1">  1        2 0.35026804E+00 0.21392081E+04</pdfrwt>
<pdfrwt beam="2">  1       -1 0.77307006E-01 0.21392081E+04</pdfrwt>
<totfact> 0.81963515E+00</totfact>
</mgrwt>
</event>
<event>
12    6  0.1627636E-007  0.1603438E+04  0.7818608E-02  0.8818439E-01
         -1   -1    0    0    0  501 -0.00000000000E+00  0.00000000000E+00  0.80551399725E+03  0.80551399725E+03  0.00000000000E+00 0.  1.
          2   -1    0    0  501    0  0.00000000000E+00 -0.00000000000E+00 -0.79794180453E+03  0.79794180453E+03  0.00000000000E+00 0. -1.
         24    2    1    2    0    0 -0.42543375222E+03  0.14703142139E+03  0.30951281483E+03  0.55194728143E+03  0.78965198246E+02 0.  0.
        254    2    1    2    0    0  0.42543375222E+03 -0.14703142139E+03 -0.30194062210E+03  0.10515085203E+04  0.90104933976E+03 0.  0.
         23    2    4    4    0    0 -0.13621238989E+03 -0.34370758769E+03 -0.70595483730E+01  0.38127638096E+03  0.92914586929E+02 0.  0.
         23    2    4    4    0    0  0.56164614211E+03  0.19667616630E+03 -0.29488107373E+03  0.67023213938E+03  0.90157471564E+02 0.  0.
          4    1    3    3  502    0 -0.38762785655E+03  0.15631138591E+03  0.27965496103E+03  0.50288716604E+03  0.00000000000E+00 0. -1.
         -3    1    3    3    0  502 -0.37805895669E+02 -0.92799645215E+01  0.29857853794E+02  0.49060115390E+02  0.00000000000E+00 0.  1.
         11    1    5    5    0    0 -0.73181274010E+02 -0.27827451593E+03  0.13769249910E+02  0.28806561288E+03  0.00000000000E+00 0. -1.
        -11    1    5    5    0    0 -0.63031115878E+02 -0.65433071757E+02 -0.20828798283E+02  0.93210768081E+02  0.00000000000E+00 0.  1.
          3    1    6    6  503    0  0.35365686160E+03  0.10237842037E+03 -0.22467951044E+03  0.43131821098E+03  0.00000000000E+00 0. -1.
         -3    1    6    6    0  503  0.20798928051E+03  0.94297745934E+02 -0.70201563293E+02  0.23891392840E+03  0.00000000000E+00 0.  1.
<mgrwt>
<rscale>  0 0.16034379E+04</rscale>
<asrwt>0</asrwt>
<pdfrwt beam="1">  1        2 0.12276028E+00 0.16034379E+04</pdfrwt>
<pdfrwt beam="2">  1       -1 0.12392523E+00 0.16034379E+04</pdfrwt>
<totfact> 0.21636112E+01</totfact>
</mgrwt>
</event>
<event>
12    6  0.1627636E-007  0.2025823E+04  0.7818608E-02  0.8594642E-01
         -1   -1    0    0    0  501 -0.00000000000E+00  0.00000000000E+00  0.41089423481E+03  0.41089423481E+03  0.00000000000E+00 0.  1.
          2   -1    0    0  501    0  0.00000000000E+00 -0.00000000000E+00 -0.24969680708E+04  0.24969680708E+04  0.00000000000E+00 0. -1.
         24    2    1    2    0    0 -0.43330850481E+03 -0.54236218926E+03 -0.23551516421E+03  0.73785407923E+03  0.83953826543E+02 0.  0.
        254    2    1    2    0    0  0.43330850481E+03  0.54236218926E+03 -0.18505586717E+04  0.21700082263E+04  0.89579869398E+03 0.  0.
         23    2    4    4    0    0  0.41168511585E+03  0.16152179958E+03 -0.16847015130E+04  0.17443048969E+04  0.93842736362E+02 0.  0.
         23    2    4    4    0    0  0.21623388962E+02  0.38084038968E+03 -0.16585715871E+03  0.42570332939E+03  0.90596656654E+02 0.  0.
          4    1    3    3  502    0 -0.26042579806E+03 -0.36711064179E+03 -0.18450813107E+03  0.48645150841E+03  0.00000000000E+00 0. -1.
         -3    1    3    3    0  502 -0.17288270675E+03 -0.17525154747E+03 -0.51007033142E+02  0.25140257082E+03  0.00000000000E+00 0.  1.
         11    1    5    5    0    0  0.13211264992E+03  0.62391791444E+01 -0.50082438923E+03  0.51799396567E+03  0.00000000000E+00 0.  1.
        -11    1    5    5    0    0  0.27957246593E+03  0.15528262044E+03 -0.11838771238E+04  0.12263109313E+04  0.00000000000E+00 0. -1.
          1    1    6    6  503    0  0.28313247021E+02  0.38926133230E+02 -0.70441586098E+01  0.48646726258E+02  0.00000000000E+00 0. -1.
         -1    1    6    6    0  503 -0.66898580589E+01  0.34191425645E+03 -0.15881300010E+03  0.37705660313E+03  0.00000000000E+00 0.  1.
<mgrwt>
<rscale>  0 0.20258231E+04</rscale>
<asrwt>0</asrwt>
<pdfrwt beam="1">  1        2 0.38414894E+00 0.20258231E+04</pdfrwt>
<pdfrwt beam="2">  1       -1 0.63214497E-01 0.20258231E+04</pdfrwt>
<totfact> 0.93665754E+00</totfact>
</mgrwt>
</event>
<event>
12    6  0.1698972E-007  0.1756657E+04  0.7818608E-02  0.8729695E-01
         -1   -1    0    0    0  501 -0.00000000000E+00  0.00000000000E+00  0.84386079685E+03  0.84386079685E+03  0.00000000000E+00 0.  1.
          2   -1    0    0  501    0  0.00000000000E+00 -0.00000000000E+00 -0.91420384898E+03  0.91420384898E+03  0.00000000000E+00 0. -1.
         24    2    1    2    0    0 -0.48114402098E+02  0.42550510259E+03 -0.51495621669E+03  0.67442992923E+03  0.79411814760E+02 0.  0.
        254    2    1    2    0    0  0.48114402098E+02 -0.42550510259E+03  0.44461316455E+03  0.10836347166E+04  0.89062547959E+03 0.  0.
         23    2    4    4    0    0  0.14023047663E+02 -0.68991168710E+03  0.37775918688E+03  0.79275045238E+03  0.97859565776E+02 0.  0.
         23    2    4    4    0    0  0.34091354435E+02  0.26440658452E+03  0.66853977676E+02  0.29088426421E+03  0.95242524375E+02 0.  0.
          2    1    3    3  502    0 -0.12269037832E+02  0.30087294683E+03 -0.40320479830E+03  0.50323867975E+03  0.00000000000E+00 0. -1.
         -1    1    3    3    0  502 -0.35845364266E+02  0.12463215576E+03 -0.11175141838E+03  0.17119124948E+03  0.00000000000E+00 0.  1.
         11    1    5    5    0    0  0.39227166414E+01 -0.12457510182E+02 -0.56824085867E+01  0.14243139862E+02  0.00000000000E+00 0. -1.
        -11    1    5    5    0    0  0.10100331022E+02 -0.67745417692E+03  0.38344159547E+03  0.77850731252E+03  0.00000000000E+00 0.  1.
          1    1    6    6  503    0 -0.30476815410E+02  0.71049797128E+02  0.33770809475E+02  0.84364551335E+02  0.00000000000E+00 0. -1.
         -1    1    6    6    0  503  0.64568169845E+02  0.19335678739E+03  0.33083168201E+02  0.20651971287E+03  0.00000000000E+00 0.  1.
<mgrwt>
<rscale>  0 0.17566568E+04</rscale>
<asrwt>0</asrwt>
<pdfrwt beam="1">  1        2 0.14064675E+00 0.17566568E+04</pdfrwt>
<pdfrwt beam="2">  1       -1 0.12982474E+00 0.17566568E+04</pdfrwt>
<totfact> 0.15780406E+01</totfact>
</mgrwt>
</event>
<event>
12    6  0.1627636E-007  0.1617733E+04  0.7818608E-02  0.8809728E-01
         -1   -1    0    0    0  501 -0.00000000000E+00  0.00000000000E+00  0.11373040965E+04  0.11373040965E+04  0.00000000000E+00 0.  1.
          2   -1    0    0  501    0  0.00000000000E+00 -0.00000000000E+00 -0.57527689120E+03  0.57527689120E+03  0.00000000000E+00 0. -1.
         24    2    1    2    0    0  0.14063807009E+02 -0.34905011765E+03  0.63494631852E+03  0.72926919593E+03  0.81504339893E+02 0.  0.
        254    2    1    2    0    0 -0.14063807009E+02  0.34905011765E+03 -0.72919113199E+02  0.98331179179E+03  0.91627021533E+03 0.  0.
         23    2    4    4    0    0 -0.50310929481E+02 -0.26008862715E+03  0.16157345036E+03  0.32322713749E+03  0.90512534744E+02 0.  0.
         23    2    4    4    0    0  0.36247122472E+02  0.60913874481E+03 -0.23449256356E+03  0.66008465430E+03  0.91439182896E+02 0.  0.
          4    1    3    3  502    0  0.33537327647E+01 -0.18047491969E+03  0.24504310738E+03  0.30434941866E+03  0.00000000000E+00 0. -1.
         -3    1    3    3    0  502  0.10710074244E+02 -0.16857519796E+03  0.38990321114E+03  0.42491977727E+03  0.00000000000E+00 0.  1.
         11    1    5    5    0    0 -0.34359531310E+02 -0.34512911890E+02  0.67481351524E+01  0.49165595766E+02  0.00000000000E+00 0. -1.
        -11    1    5    5    0    0 -0.15951398170E+02 -0.22557571526E+03  0.15482531521E+03  0.27406154172E+03  0.00000000000E+00 0.  1.
          4    1    6    6  503    0  0.91063432834E+01  0.21966911162E+03 -0.38379755668E+02  0.22318254801E+03  0.00000000000E+00 0. -1.
         -4    1    6    6    0  503  0.27140779188E+02  0.38946963318E+03 -0.19611280789E+03  0.43690210630E+03  0.00000000000E+00 0.  1.
<mgrwt>
<rscale>  0 0.16177327E+04</rscale>
<asrwt>0</asrwt>
<pdfrwt beam="1">  1        2 0.88504137E-01 0.16177327E+04</pdfrwt>
<pdfrwt beam="2">  1       -1 0.17496986E+00 0.16177327E+04</pdfrwt>
<totfact> 0.12919394E+01</totfact>
</mgrwt>
</event>
<event>
12    6  0.1627636E-007  0.1080708E+04  0.7818608E-02  0.9224202E-01
          2   -1    0    0  501    0  0.00000000000E+00  0.00000000000E+00  0.81842641258E+03  0.81842641258E+03  0.00000000000E+00 0. -1.
         -1   -1    0    0    0  501 -0.00000000000E+00 -0.00000000000E+00 -0.35676071295E+03  0.35676071295E+03  0.00000000000E+00 0.  1.
         24    2    1    2    0    0 -0.72098530431E+02  0.10181964944E+03 -0.16129007605E+02  0.15242772103E+03  0.86073376547E+02 0.  0.
        254    2    1    2    0    0  0.72098530431E+02 -0.10181964944E+03  0.47779470723E+03  0.10227594045E+04  0.89564701648E+03 0.  0.
         23    2    4    4    0    0  0.15967243518E+03 -0.42899306638E+03  0.50296237273E+02  0.46967315942E+03  0.92373305862E+02 0.  0.
         23    2    4    4    0    0 -0.87573904752E+02  0.32717341694E+03  0.42749846995E+03  0.55308624508E+03  0.91857602530E+02 0.  0.
          2    1    3    3  502    0 -0.35590839392E+02  0.44348349987E+02  0.35451173294E+02  0.67009474577E+02  0.00000000000E+00 0. -1.
         -1    1    3    3    0  502 -0.36507691039E+02  0.57471299451E+02 -0.51580180899E+02  0.85418246454E+02  0.00000000000E+00 0.  1.
         11    1    5    5    0    0  0.36444742965E+02 -0.94384222116E+02  0.50535233259E+02  0.11309469693E+03  0.00000000000E+00 0.  1.
        -11    1    5    5    0    0  0.12322769222E+03 -0.33460884426E+03 -0.23899598579E+00  0.35657846248E+03  0.00000000000E+00 0. -1.
          1    1    6    6  503    0 -0.89070644253E+02  0.32055517216E+03  0.37982328229E+03  0.50493061289E+03  0.00000000000E+00 0. -1.
         -1    1    6    6    0  503  0.14967395009E+01  0.66182447800E+01  0.47675187660E+02  0.48155632189E+02  0.00000000000E+00 0.  1.
<mgrwt>
<rscale>  0 0.10807079E+04</rscale>
<asrwt>0</asrwt>
<pdfrwt beam="1">  1        2 0.12591176E+00 0.10807079E+04</pdfrwt>
<pdfrwt beam="2">  1       -1 0.54886264E-01 0.10807079E+04</pdfrwt>
<totfact> 0.12713761E+02</totfact>
</mgrwt>
</event>
<event>
12    6  0.1627636E-007  0.1069262E+04  0.7818608E-02  0.9235680E-01
          2   -1    0    0  501    0  0.00000000000E+00  0.00000000000E+00  0.14257766510E+04  0.14257766510E+04  0.00000000000E+00 0. -1.
         -1   -1    0    0    0  501 -0.00000000000E+00 -0.00000000000E+00 -0.20047357908E+03  0.20047357908E+03  0.00000000000E+00 0.  1.
         24    2    1    2    0    0  0.73567292454E+02  0.11197579753E+03  0.21356507369E+03  0.26416261911E+03  0.78874095117E+02 0.  0.
        254    2    1    2    0    0 -0.73567292454E+02 -0.11197579753E+03  0.10117379982E+04  0.13620876110E+04  0.90206327780E+03 0.  0.
         23    2    4    4    0    0 -0.26056284486E+03 -0.38881629297E+03  0.85999737874E+03  0.98402101956E+03  0.98136485027E+02 0.  0.
         23    2    4    4    0    0  0.18699555240E+03  0.27684049544E+03  0.15174061947E+03  0.37806659141E+03  0.91110566943E+02 0.  0.
          2    1    3    3  502    0  0.65269822677E+02  0.61301007433E+02  0.18468825421E+03  0.20525037030E+03  0.00000000000E+00 0. -1.
         -1    1    3    3    0  502  0.82974697775E+01  0.50674790098E+02  0.28876819481E+02  0.58912248807E+02  0.00000000000E+00 0.  1.
         11    1    5    5    0    0 -0.21273549713E+03 -0.36282558680E+03  0.79358575395E+03  0.89815207345E+03  0.00000000000E+00 0. -1.
        -11    1    5    5    0    0 -0.47827347728E+02 -0.25990706165E+02  0.66411624793E+02  0.85868946105E+02  0.00000000000E+00 0.  1.
          2    1    6    6  503    0  0.24400979364E+02  0.29659395624E+02  0.54418943498E+02  0.66607123899E+02  0.00000000000E+00 0.  1.
         -2    1    6    6    0  503  0.16259457304E+03  0.24718109981E+03  0.97321675976E+02  0.31145946751E+03  0.00000000000E+00 0. -1.
<mgrwt>
<rscale>  0 0.10692625E+04</rscale>
<asrwt>0</asrwt>
<pdfrwt beam="1">  1        2 0.21935025E+00 0.10692625E+04</pdfrwt>
<pdfrwt beam="2">  1       -1 0.30842090E-01 0.10692625E+04</pdfrwt>
<totfact> 0.15391714E+02</totfact>
</mgrwt>
</event>
<event>
12    6  0.1627636E-007  0.2408863E+04  0.7818608E-02  0.8436193E-01
         -1   -1    0    0    0  501 -0.00000000000E+00  0.00000000000E+00  0.74994408805E+03  0.74994408805E+03  0.00000000000E+00 0.  1.
          2   -1    0    0  501    0  0.00000000000E+00 -0.00000000000E+00 -0.19343518265E+04  0.19343518265E+04  0.00000000000E+00 0. -1.
         24    2    1    2    0    0  0.57403012412E+02 -0.95238767089E+03 -0.95733611499E+03  0.13539224763E+04  0.79222807066E+02 0.  0.
        254    2    1    2    0    0 -0.57403012412E+02  0.95238767089E+03 -0.22707162350E+03  0.13303734383E+04  0.89888518830E+03 0.  0.
         23    2    4    4    0    0 -0.33658307696E+02 -0.69793707251E+02 -0.27725077924E+03  0.30272047909E+03  0.93635733704E+02 0.  0.
         23    2    4    4    0    0 -0.23744704716E+02  0.10221813781E+04  0.50179155736E+02  0.10276529592E+04  0.90189113292E+02 0.  0.
          2    1    3    3  502    0  0.59207896325E+02 -0.87410867787E+03 -0.90584571353E+03  0.12602095113E+04  0.00000000000E+00 0. -1.
         -1    1    3    3    0  502 -0.18048839136E+01 -0.78278993020E+02 -0.51490401459E+02  0.93712964933E+02  0.00000000000E+00 0.  1.
         11    1    5    5    0    0  0.24031958455E+01 -0.82842168921E+02 -0.17919400545E+03  0.19743123332E+03  0.00000000000E+00 0.  1.
        -11    1    5    5    0    0 -0.36061503541E+02  0.13048461670E+02 -0.98056773792E+02  0.10528924578E+03  0.00000000000E+00 0. -1.
          1    1    6    6  503    0  0.18867214504E+02  0.43116499833E+03  0.55109382800E+02  0.43508191371E+03  0.00000000000E+00 0. -1.
         -1    1    6    6    0  503 -0.42611919221E+02  0.59101637981E+03 -0.49302270639E+01  0.59257104553E+03  0.00000000000E+00 0.  1.
<mgrwt>
<rscale>  0 0.24088634E+04</rscale>
<asrwt>0</asrwt>
<pdfrwt beam="1">  1        2 0.29759258E+00 0.24088634E+04</pdfrwt>
<pdfrwt beam="2">  1       -1 0.11537602E+00 0.24088634E+04</pdfrwt>
<totfact> 0.50611169E+00</totfact>
</mgrwt>
</event>
<event>
12    6  0.1627636E-007  0.3034290E+04  0.7818608E-02  0.8234007E-01
         -1   -1    0    0    0  501 -0.00000000000E+00  0.00000000000E+00  0.15681290013E+04  0.15681290013E+04  0.00000000000E+00 0.  1.
          2   -1    0    0  501    0  0.00000000000E+00 -0.00000000000E+00 -0.14678182221E+04  0.14678182221E+04  0.00000000000E+00 0. -1.
         24    2    1    2    0    0  0.60621906575E+03 -0.12393708045E+04  0.56285971146E+01  0.13820258966E+04  0.80139572777E+02 0.  0.
        254    2    1    2    0    0 -0.60621906575E+03  0.12393708045E+04  0.94682182109E+02  0.16539213267E+04  0.90716563686E+03 0.  0.
         23    2    4    4    0    0 -0.49376118024E+03  0.92776664604E+03 -0.33105204898E+03  0.11066548654E+04  0.10265709634E+03 0.  0.
         23    2    4    4    0    0 -0.11245788551E+03  0.31160415847E+03  0.42573423109E+03  0.54726646132E+03  0.92233489425E+02 0.  0.
          4    1    3    3  502    0  0.18409748154E+03 -0.29726719715E+03  0.35018593712E+01  0.34967403711E+03  0.00000000000E+00 0. -1.
         -1    1    3    3    0  502  0.42212158421E+03 -0.94210360736E+03  0.21267377435E+01  0.10323518595E+04  0.00000000000E+00 0.  1.
         11    1    5    5    0    0 -0.46714600780E+03  0.80832299503E+03 -0.29361841355E+03  0.97868443825E+03  0.00000000000E+00 0. -1.
        -11    1    5    5    0    0 -0.26615172435E+02  0.11944365101E+03 -0.37433635433E+02  0.12797042718E+03  0.00000000000E+00 0.  1.
          4    1    6    6  503    0 -0.26378813889E+02  0.25406806894E+02  0.93358087846E+02  0.10028499501E+03  0.00000000000E+00 0.  1.
         -4    1    6    6    0  503 -0.86079071623E+02  0.28619735158E+03  0.33237614324E+03  0.44698146630E+03  0.00000000000E+00 0. -1.
<mgrwt>
<rscale>  0 0.30342896E+04</rscale>
<asrwt>0</asrwt>
<pdfrwt beam="1">  1        2 0.22581819E+00 0.30342896E+04</pdfrwt>
<pdfrwt beam="2">  1       -1 0.24125062E+00 0.30342896E+04</pdfrwt>
<totfact> 0.10236386E+00</totfact>
</mgrwt>
</event>
<event>
12    6  0.1627636E-007  0.2283634E+04  0.7818608E-02  0.8484402E-01
          2   -1    0    0  501    0  0.00000000000E+00  0.00000000000E+00  0.15844496338E+04  0.15844496338E+04  0.00000000000E+00 0. -1.
         -1   -1    0    0    0  501 -0.00000000000E+00 -0.00000000000E+00 -0.82283811222E+03  0.82283811222E+03  0.00000000000E+00 0.  1.
         24    2    1    2    0    0 -0.82257664330E+03 -0.32739617517E+03  0.72890512554E+03  0.11496069739E+04  0.80454476769E+02 0.  0.
        254    2    1    2    0    0  0.82257664330E+03  0.32739617517E+03  0.32706395993E+02  0.12576807721E+04  0.89267610388E+03 0.  0.
         23    2    4    4    0    0  0.50136417157E+03 -0.83822799688E+02  0.36579155247E+03  0.63285827698E+03  0.91180286261E+02 0.  0.
         23    2    4    4    0    0  0.32121247173E+03  0.41121897486E+03 -0.33308515648E+03  0.62482249507E+03  0.84728576057E+02 0.  0.
          4    1    3    3  502    0 -0.70884170113E+03 -0.25391793750E+03  0.60187048232E+03  0.96393928944E+03  0.00000000000E+00 0. -1.
         -3    1    3    3    0  502 -0.11373494217E+03 -0.73478237668E+02  0.12703464322E+03  0.18566768448E+03  0.00000000000E+00 0.  1.
         11    1    5    5    0    0  0.61052489385E+02  0.10046119846E+02  0.73564179515E+02  0.96125020113E+02  0.00000000000E+00 0.  1.
        -11    1    5    5    0    0  0.44031168219E+03 -0.93868919534E+02  0.29222737296E+03  0.53673325687E+03  0.00000000000E+00 0. -1.
          4    1    6    6  503    0  0.22655385476E+03  0.22366918949E+03 -0.20886806597E+03  0.38076295042E+03  0.00000000000E+00 0. -1.
         -4    1    6    6    0  503  0.94658616966E+02  0.18754978537E+03 -0.12421709051E+03  0.24405954465E+03  0.00000000000E+00 0.  1.
<mgrwt>
<rscale>  0 0.22836335E+04</rscale>
<asrwt>0</asrwt>
<pdfrwt beam="1">  1        2 0.24376148E+00 0.22836335E+04</pdfrwt>
<pdfrwt beam="2">  1       -1 0.12659048E+00 0.22836335E+04</pdfrwt>
<totfact> 0.63791215E+00</totfact>
</mgrwt>
</event>
<event>
12    6  0.1627636E-007  0.2354530E+04  0.7818608E-02  0.8456726E-01
         -1   -1    0    0    0  501 -0.00000000000E+00  0.00000000000E+00  0.73214952493E+03  0.73214952493E+03  0.00000000000E+00 0.  1.
          2   -1    0    0  501    0  0.00000000000E+00 -0.00000000000E+00 -0.18929921256E+04  0.18929921256E+04  0.00000000000E+00 0. -1.
         24    2    1    2    0    0  0.88435381976E+03 -0.42083112569E+03 -0.75289844337E+03  0.12380148026E+04  0.81511168013E+02 0.  0.
        254    2    1    2    0    0 -0.88435381976E+03  0.42083112569E+03 -0.40794415732E+03  0.13871268480E+04  0.89360054946E+03 0.  0.
         23    2    4    4    0    0  0.15010877669E+02  0.34141598230E+03 -0.31708383588E+03  0.47518018105E+03  0.91999163413E+02 0.  0.
         23    2    4    4    0    0 -0.89936469743E+03  0.79415143393E+02 -0.90860321438E+02  0.91194666692E+03  0.90705574880E+02 0.  0.
          4    1    3    3  502    0  0.28482013843E+03 -0.16309059906E+03 -0.21549230265E+03  0.39262958022E+03  0.00000000000E+00 0. -1.
         -3    1    3    3    0  502  0.59953368133E+03 -0.25774052663E+03 -0.53740614072E+03  0.84538522236E+03  0.00000000000E+00 0.  1.
         11    1    5    5    0    0 -0.27002361268E+02  0.62151388640E+02 -0.90800872231E+02  0.11329925429E+03  0.00000000000E+00 0.  1.
        -11    1    5    5    0    0  0.42013238937E+02  0.27926459366E+03 -0.22628296365E+03  0.36188092676E+03  0.00000000000E+00 0. -1.
          1    1    6    6  503    0 -0.77141357159E+03  0.44960527712E+02 -0.55033926510E+02  0.77467998590E+03  0.00000000000E+00 0. -1.
         -1    1    6    6    0  503 -0.12795112584E+03  0.34454615680E+02 -0.35826394928E+02  0.13726668102E+03  0.00000000000E+00 0.  1.
<mgrwt>
<rscale>  0 0.23545303E+04</rscale>
<asrwt>0</asrwt>
<pdfrwt beam="1">  1        2 0.29122955E+00 0.23545303E+04</pdfrwt>
<pdfrwt beam="2">  1       -1 0.11263839E+00 0.23545303E+04</pdfrwt>
<totfact> 0.56778728E+00</totfact>
</mgrwt>
</event>
<event>
12    6  0.1627636E-007  0.1508943E+04  0.7818608E-02  0.8878527E-01
         -1   -1    0    0    0  501 -0.00000000000E+00  0.00000000000E+00  0.15004953335E+04  0.15004953335E+04  0.00000000000E+00 0.  1.
          2   -1    0    0  501    0  0.00000000000E+00 -0.00000000000E+00 -0.37935967353E+03  0.37935967353E+03  0.00000000000E+00 0. -1.
         24    2    1    2    0    0  0.25062570884E+03  0.24820485184E+03  0.74666945090E+03  0.82963707674E+03  0.79771647772E+02 0.  0.
        254    2    1    2    0    0 -0.25062570884E+03 -0.24820485184E+03  0.37446620903E+03  0.10502179302E+04  0.91559481480E+03 0.  0.
         23    2    4    4    0    0 -0.46916714946E+03 -0.14284853374E+03 -0.10161564168E+03  0.50901964517E+03  0.90839103991E+02 0.  0.
         23    2    4    4    0    0  0.21854144062E+03 -0.10535631810E+03  0.47608185071E+03  0.54119828506E+03  0.85914726051E+02 0.  0.
          4    1    3    3  502    0  0.36564172404E+02  0.25318085523E+02  0.46722428553E+02  0.64505267134E+02  0.00000000000E+00 0. -1.
         -3    1    3    3    0  502  0.21406153644E+03  0.22288676632E+03  0.69994702235E+03  0.76513180961E+03  0.00000000000E+00 0.  1.
         11    1    5    5    0    0 -0.29562462613E+03 -0.11619212831E+03 -0.10143400295E+03  0.33344172986E+03  0.00000000000E+00 0.  1.
        -11    1    5    5    0    0 -0.17354252333E+03 -0.26656405430E+02 -0.18163873016E+00  0.17557791531E+03  0.00000000000E+00 0. -1.
          3    1    6    6  503    0  0.31436322039E+02 -0.42497220813E+02  0.55734090754E+02  0.76815004995E+02  0.00000000000E+00 0. -1.
         -3    1    6    6    0  503  0.18710511858E+03 -0.62859097286E+02  0.42034775995E+03  0.46438328007E+03  0.00000000000E+00 0.  1.
<mgrwt>
<rscale>  0 0.15089432E+04</rscale>
<asrwt>0</asrwt>
<pdfrwt beam="1">  1        2 0.58363027E-01 0.15089432E+04</pdfrwt>
<pdfrwt beam="2">  1       -1 0.23084543E+00 0.15089432E+04</pdfrwt>
<totfact> 0.86915723E+00</totfact>
</mgrwt>
</event>
<event>
12    6  0.1627636E-007  0.1373719E+04  0.7818608E-02  0.8973065E-01
          2   -1    0    0  501    0  0.00000000000E+00  0.00000000000E+00  0.17603059473E+04  0.17603059473E+04  0.00000000000E+00 0. -1.
         -1   -1    0    0    0  501 -0.00000000000E+00 -0.00000000000E+00 -0.26800809042E+03  0.26800809042E+03  0.00000000000E+00 0.  1.
         24    2    1    2    0    0  0.21910212635E+03 -0.25546205582E+03  0.70508680423E+03  0.78524456762E+03  0.78708485842E+02 0.  0.
        254    2    1    2    0    0 -0.21910212635E+03  0.25546205582E+03  0.78721105268E+03  0.12430694701E+04  0.90125127594E+03 0.  0.
         23    2    4    4    0    0 -0.21066275422E+03  0.22077365486E+03 -0.11386898139E+03  0.33706535089E+03  0.86758879367E+02 0.  0.
         23    2    4    4    0    0 -0.84393721242E+01  0.34688400965E+02  0.90108003407E+03  0.90600411924E+03  0.87313962946E+02 0.  0.
          2    1    3    3  502    0  0.16869024949E+03 -0.16108427578E+03  0.41503541028E+03  0.47608710964E+03  0.00000000000E+00 0. -1.
         -1    1    3    3    0  502  0.50411876856E+02 -0.94377780042E+02  0.29005139395E+03  0.30915745799E+03  0.00000000000E+00 0.  1.
         11    1    5    5    0    0 -0.38886356640E+02  0.92425743598E+02 -0.16731421057E+02  0.10165927042E+03  0.00000000000E+00 0. -1.
        -11    1    5    5    0    0 -0.17177639758E+03  0.12834791126E+03 -0.97137560334E+02  0.23540608046E+03  0.00000000000E+00 0.  1.
          4    1    6    6  503    0 -0.36634333592E+02 -0.10558596986E+02  0.49008839058E+03  0.49156910903E+03  0.00000000000E+00 0. -1.
         -4    1    6    6    0  503  0.28194961468E+02  0.45246997951E+02  0.41099164349E+03  0.41443501022E+03  0.00000000000E+00 0.  1.
<mgrwt>
<rscale>  0 0.13737194E+04</rscale>
<asrwt>0</asrwt>
<pdfrwt beam="1">  1        2 0.27081629E+00 0.13737194E+04</pdfrwt>
<pdfrwt beam="2">  1       -1 0.41232015E-01 0.13737194E+04</pdfrwt>
<totfact> 0.58096928E+01</totfact>
</mgrwt>
</event>
<event>
12    6  0.1627636E-007  0.1940365E+04  0.7818608E-02  0.8635021E-01
          2   -1    0    0  501    0  0.00000000000E+00  0.00000000000E+00  0.14333741667E+04  0.14333741667E+04  0.00000000000E+00 0. -1.
         -1   -1    0    0    0  501 -0.00000000000E+00 -0.00000000000E+00 -0.65667018040E+03  0.65667018040E+03  0.00000000000E+00 0.  1.
         24    2    1    2    0    0 -0.51468575179E+02  0.75299711205E+03  0.33365697094E+03  0.82783945103E+03  0.65859831759E+02 0.  0.
        254    2    1    2    0    0  0.51468575179E+02 -0.75299711205E+03  0.44304701533E+03  0.12622048960E+04  0.90951463804E+03 0.  0.
         23    2    4    4    0    0 -0.24621774007E+02 -0.72057589955E+03 -0.74017713964E+02  0.73050454629E+03  0.91227251404E+02 0.  0.
         23    2    4    4    0    0  0.76090349185E+02 -0.32421212500E+02  0.51706472930E+03  0.53170034976E+03  0.92241267266E+02 0.  0.
          4    1    3    3  502    0  0.15196931309E+02  0.12233890366E+03  0.60847522406E+02  0.13747790750E+03  0.00000000000E+00 0. -1.
         -1    1    3    3    0  502 -0.66665506487E+02  0.63065820840E+03  0.27280944853E+03  0.69036154353E+03  0.00000000000E+00 0.  1.
         11    1    5    5    0    0 -0.48552454238E+02 -0.39987561520E+03 -0.70239248478E+02  0.40889045045E+03  0.00000000000E+00 0.  1.
        -11    1    5    5    0    0  0.23930680232E+02 -0.32070028435E+03 -0.37784654856E+01  0.32161409584E+03  0.00000000000E+00 0. -1.
          1    1    6    6  503    0  0.44486778910E+02  0.27814381674E+02  0.16556821747E+03  0.17368231908E+03  0.00000000000E+00 0. -1.
         -1    1    6    6    0  503  0.31603570275E+02 -0.60235594173E+02  0.35149651183E+03  0.35801803067E+03  0.00000000000E+00 0.  1.
<mgrwt>
<rscale>  0 0.19403650E+04</rscale>
<asrwt>0</asrwt>
<pdfrwt beam="1">  1        2 0.22051910E+00 0.19403650E+04</pdfrwt>
<pdfrwt beam="2">  1       -1 0.10102618E+00 0.19403650E+04</pdfrwt>
<totfact> 0.13716832E+01</totfact>
</mgrwt>
</event>
<event>
12    6  0.1627636E-007  0.1435157E+04  0.7818608E-02  0.8928756E-01
         -1   -1    0    0    0  501 -0.00000000000E+00  0.00000000000E+00  0.42635879460E+03  0.42635879460E+03  0.00000000000E+00 0.  1.
          2   -1    0    0  501    0  0.00000000000E+00 -0.00000000000E+00 -0.12077123139E+04  0.12077123139E+04  0.00000000000E+00 0. -1.
         24    2    1    2    0    0 -0.26630005793E+03 -0.51266603471E+01  0.18951854663E+03  0.33695235662E+03  0.81716629990E+02 0.  0.
        254    2    1    2    0    0  0.26630005793E+03  0.51266603471E+01 -0.97087206591E+03  0.12971187519E+04  0.81791349454E+03 0.  0.
         23    2    4    4    0    0  0.12954960179E+03  0.23566826170E+03 -0.97257228596E+03  0.10128784272E+04  0.87768034938E+02 0.  0.
         23    2    4    4    0    0  0.13675045614E+03 -0.23054160135E+03  0.17002200524E+01  0.28424032466E+03  0.94549215798E+02 0.  0.
          4    1    3    3  502    0 -0.51734827226E+02  0.11660740132E+02  0.46548381358E+01  0.53236573205E+02  0.00000000000E+00 0. -1.
         -3    1    3    3    0  502 -0.21456523070E+03 -0.16787400479E+02  0.18486370850E+03  0.28371578342E+03  0.00000000000E+00 0.  1.
         11    1    5    5    0    0  0.56655130814E+02  0.16673419336E+03 -0.50984271591E+03  0.53939752507E+03  0.00000000000E+00 0.  1.
        -11    1    5    5    0    0  0.72894470978E+02  0.68934068334E+02 -0.46272957005E+03  0.47348090213E+03  0.00000000000E+00 0. -1.
          3    1    6    6  503    0  0.11369294809E+03 -0.23404021071E+03 -0.40302052401E+01  0.26022518945E+03  0.00000000000E+00 0. -1.
         -3    1    6    6    0  503  0.23057508051E+02  0.34986093564E+01  0.57304252925E+01  0.24015135207E+02  0.00000000000E+00 0.  1.
<mgrwt>
<rscale>  0 0.14351568E+04</rscale>
<asrwt>0</asrwt>
<pdfrwt beam="1">  1        2 0.18580189E+00 0.14351568E+04</pdfrwt>
<pdfrwt beam="2">  1       -1 0.65593662E-01 0.14351568E+04</pdfrwt>
<totfact> 0.48876431E+01</totfact>
</mgrwt>
</event>
<event>
12    6  0.1627636E-007  0.1122921E+04  0.7818608E-02  0.9183135E-01
         -3   -1    0    0    0  501 -0.00000000000E+00  0.00000000000E+00  0.47788045423E+03  0.47788045423E+03  0.00000000000E+00 0.  1.
          2   -1    0    0  501    0  0.00000000000E+00 -0.00000000000E+00 -0.65965825018E+03  0.65965825018E+03  0.00000000000E+00 0. -1.
         24    2    1    2    0    0 -0.24704184967E+01 -0.14590568831E+03  0.42101559421E+02  0.17172199917E+03  0.80133206871E+02 0.  0.
        254    2    1    2    0    0  0.24704184967E+01  0.14590568831E+03 -0.22387935537E+03  0.96581670525E+03  0.92810849017E+03 0.  0.
         23    2    4    4    0    0  0.76950404969E+02  0.15239015565E+03  0.33853208766E+03  0.38956394469E+03  0.89509598744E+02 0.  0.
         23    2    4    4    0    0 -0.74479986472E+02 -0.64844673404E+01 -0.56241144303E+03  0.57625276055E+03  0.10085284374E+03 0.  0.
          4    1    3    3  502    0  0.21187586952E+02 -0.13644718910E+03  0.23246924100E+02  0.14002560028E+03  0.00000000000E+00 0. -1.
         -3    1    3    3    0  502 -0.23658005448E+02 -0.94584992075E+01  0.18854635321E+02  0.31696398883E+02  0.00000000000E+00 0.  1.
         11    1    5    5    0    0  0.77365359678E+02  0.99655286961E+02  0.16204363232E+03  0.20536483115E+03  0.00000000000E+00 0.  1.
        -11    1    5    5    0    0 -0.41495470911E+00  0.52734868688E+02  0.17648845534E+03  0.18419911354E+03  0.00000000000E+00 0. -1.
          3    1    6    6  503    0 -0.33451210866E+02  0.20873622696E+01 -0.49970494687E+03  0.50082768944E+03  0.00000000000E+00 0. -1.
         -3    1    6    6    0  503 -0.41028775606E+02 -0.85718296100E+01 -0.62706496162E+02  0.75425071107E+02  0.00000000000E+00 0.  1.
<mgrwt>
<rscale>  0 0.11229208E+04</rscale>
<asrwt>0</asrwt>
<pdfrwt beam="1">  1        2 0.10148589E+00 0.11229208E+04</pdfrwt>
<pdfrwt beam="2">  1       -3 0.73520070E-01 0.11229208E+04</pdfrwt>
<totfact> 0.48561591E+01</totfact>
</mgrwt>
</event>
<event>
12    6  0.1627636E-007  0.1496116E+04  0.7818608E-02  0.8887040E-01
          2   -1    0    0  501    0  0.00000000000E+00  0.00000000000E+00  0.74767862062E+03  0.74767862062E+03  0.00000000000E+00 0. -1.
         -1   -1    0    0    0  501 -0.00000000000E+00 -0.00000000000E+00 -0.74843792486E+03  0.74843792486E+03  0.00000000000E+00 0.  1.
         24    2    1    2    0    0  0.10084705148E+03 -0.25261302513E+03 -0.37301375617E+03  0.47061202700E+03  0.91394471424E+02 0.  0.
        254    2    1    2    0    0 -0.10084705148E+03  0.25261302513E+03  0.37225445192E+03  0.10255045185E+04  0.91602547573E+03 0.  0.
         23    2    4    4    0    0 -0.46282588389E+03 -0.40495207581E+02  0.24447779732E+03  0.53378120129E+03  0.96464070154E+02 0.  0.
         23    2    4    4    0    0  0.36197883241E+03  0.29310823271E+03  0.12777665461E+03  0.49172331719E+03  0.92324622997E+02 0.  0.
          4    1    3    3  502    0  0.44015419726E+02 -0.11563765624E+03 -0.24596990341E+03  0.27533728062E+03  0.00000000000E+00 0. -1.
         -3    1    3    3    0  502  0.56831631752E+02 -0.13697536889E+03 -0.12704385276E+03  0.19527474638E+03  0.00000000000E+00 0.  1.
         11    1    5    5    0    0 -0.37663635366E+02  0.22456695431E+02  0.13675770056E+02  0.45933422312E+02  0.00000000000E+00 0. -1.
        -11    1    5    5    0    0 -0.42516224852E+03 -0.62951903012E+02  0.23080202726E+03  0.48784777898E+03  0.00000000000E+00 0.  1.
          4    1    6    6  503    0  0.85516185067E+02  0.11760682357E+03  0.18899822201E+02  0.14663419157E+03  0.00000000000E+00 0. -1.
         -4    1    6    6    0  503  0.27646264734E+03  0.17550140914E+03  0.10887683240E+03  0.34508912562E+03  0.00000000000E+00 0.  1.
<mgrwt>
<rscale>  0 0.14961164E+04</rscale>
<asrwt>0</asrwt>
<pdfrwt beam="1">  1        2 0.11502748E+00 0.14961164E+04</pdfrwt>
<pdfrwt beam="2">  1       -1 0.11514430E+00 0.14961164E+04</pdfrwt>
<totfact> 0.28446381E+01</totfact>
</mgrwt>
</event>
<event>
12    6  0.1627636E-007  0.1084129E+04  0.7818608E-02  0.9220800E-01
          2   -1    0    0  501    0  0.00000000000E+00  0.00000000000E+00  0.74153902666E+03  0.74153902666E+03  0.00000000000E+00 0. -1.
         -1   -1    0    0    0  501 -0.00000000000E+00 -0.00000000000E+00 -0.39624887973E+03  0.39624887973E+03  0.00000000000E+00 0.  1.
         24    2    1    2    0    0 -0.10652424966E+03  0.89541071701E+02  0.83230001958E+01  0.16827509152E+03  0.94245502845E+02 0.  0.
        254    2    1    2    0    0  0.10652424966E+03 -0.89541071701E+02  0.33696714673E+03  0.96951281487E+03  0.89835584316E+03 0.  0.
         23    2    4    4    0    0 -0.24896499947E+03 -0.27659803597E+03  0.39669566233E+03  0.55227699987E+03  0.95668132670E+02 0.  0.
         23    2    4    4    0    0  0.35548924913E+03  0.18705696427E+03 -0.59728515606E+02  0.41723581500E+03  0.95683413482E+02 0.  0.
          4    1    3    3  502    0  0.77001251588E+01  0.21341419451E+02  0.25503836855E+02  0.34134935271E+02  0.00000000000E+00 0. -1.
         -3    1    3    3    0  502 -0.11422437482E+03  0.68199652250E+02 -0.17180836659E+02  0.13414015625E+03  0.00000000000E+00 0.  1.
         11    1    5    5    0    0 -0.59764482014E+02 -0.70235330268E+02  0.44601398211E+02  0.10244061524E+03  0.00000000000E+00 0. -1.
        -11    1    5    5    0    0 -0.18920051745E+03 -0.20636270570E+03  0.35209426412E+03  0.44983638463E+03  0.00000000000E+00 0.  1.
          4    1    6    6  503    0  0.20560590704E+02 -0.65927651363E-01 -0.24472165592E+02  0.31962933616E+02  0.00000000000E+00 0. -1.
         -4    1    6    6    0  503  0.33492865843E+03  0.18712289192E+03 -0.35256350014E+02  0.38527288139E+03  0.00000000000E+00 0.  1.
<mgrwt>
<rscale>  0 0.10841292E+04</rscale>
<asrwt>0</asrwt>
<pdfrwt beam="1">  1        2 0.11408293E+00 0.10841292E+04</pdfrwt>
<pdfrwt beam="2">  1       -1 0.60961366E-01 0.10841292E+04</pdfrwt>
<totfact> 0.11786009E+02</totfact>
</mgrwt>
</event>
<event>
12    6  0.1627636E-007  0.2320186E+04  0.7818608E-02  0.8470004E-01
          2   -1    0    0  501    0  0.00000000000E+00  0.00000000000E+00  0.25163425439E+04  0.25163425439E+04  0.00000000000E+00 0. -1.
         -1   -1    0    0    0  501 -0.00000000000E+00 -0.00000000000E+00 -0.53483006455E+03  0.53483006455E+03  0.00000000000E+00 0.  1.
         24    2    1    2    0    0 -0.83086436433E+03  0.24248285995E+03  0.21782670008E+03  0.89600343809E+03  0.78994686592E+02 0.  0.
        254    2    1    2    0    0  0.83086436433E+03 -0.24248285995E+03  0.17636857792E+04  0.21551691703E+04  0.88602093404E+03 0.  0.
         23    2    4    4    0    0  0.32875515110E+03 -0.39448437586E+03  0.14416853078E+04  0.15331316296E+04  0.91313716642E+02 0.  0.
         23    2    4    4    0    0  0.50210921323E+03  0.15200151591E+03  0.32200047147E+03  0.62203754074E+03  0.89600645130E+02 0.  0.
          2    1    3    3  502    0 -0.20806708416E+03  0.32118475180E+02  0.32601393092E+02  0.21304074444E+03  0.00000000000E+00 0. -1.
         -1    1    3    3    0  502 -0.62279728017E+03  0.21036438477E+03  0.18522530698E+03  0.68296269365E+03  0.00000000000E+00 0.  1.
         11    1    5    5    0    0  0.15784694399E+03 -0.25446951190E+03  0.88010046951E+03  0.92964898034E+03  0.00000000000E+00 0.  1.
        -11    1    5    5    0    0  0.17090820711E+03 -0.14001486396E+03  0.56158483825E+03  0.60348264924E+03  0.00000000000E+00 0. -1.
          4    1    6    6  503    0  0.13006300442E+03  0.71431558023E+02  0.60741473168E+02  0.16033832718E+03  0.00000000000E+00 0. -1.
         -4    1    6    6    0  503  0.37204620881E+03  0.80569957892E+02  0.26125899831E+03  0.46169921356E+03  0.00000000000E+00 0.  1.
<mgrwt>
<rscale>  0 0.23201859E+04</rscale>
<asrwt>0</asrwt>
<pdfrwt beam="1">  1        2 0.38712962E+00 0.23201859E+04</pdfrwt>
<pdfrwt beam="2">  1       -1 0.82281550E-01 0.23201859E+04</pdfrwt>
<totfact> 0.51510925E+00</totfact>
</mgrwt>
</event>
<event>
12    6  0.1627636E-007  0.1586305E+04  0.7818608E-02  0.8829006E-01
         -1   -1    0    0    0  501 -0.00000000000E+00  0.00000000000E+00  0.26453383904E+03  0.26453383904E+03  0.00000000000E+00 0.  1.
          2   -1    0    0  501    0  0.00000000000E+00 -0.00000000000E+00 -0.23781108169E+04  0.23781108169E+04  0.00000000000E+00 0. -1.
         24    2    1    2    0    0 -0.27514542371E+03 -0.36100291236E+03 -0.11552577394E+04  0.12437879696E+04  0.79749370425E+02 0.  0.
        254    2    1    2    0    0  0.27514542371E+03  0.36100291236E+03 -0.95831923850E+03  0.13988566863E+04  0.91235747329E+03 0.  0.
         23    2    4    4    0    0 -0.48676270086E+02 -0.18828259370E+03  0.31405525020E+02  0.21771409060E+03  0.92700614252E+02 0.  0.
         23    2    4    4    0    0  0.32382169380E+03  0.54928550606E+03 -0.98972476352E+03  0.11811425957E+04  0.94697768518E+02 0.  0.
          4    1    3    3  502    0 -0.13517307175E+03 -0.19740301544E+03 -0.70956851956E+03  0.74881719651E+03  0.00000000000E+00 0. -1.
         -3    1    3    3    0  502 -0.13997235197E+03 -0.16359989692E+03 -0.44568921980E+03  0.49497077311E+03  0.00000000000E+00 0.  1.
         11    1    5    5    0    0 -0.21438548945E+02 -0.16690083080E+02 -0.23060019420E+02  0.35636143867E+02  0.00000000000E+00 0.  1.
        -11    1    5    5    0    0 -0.27237721140E+02 -0.17159251062E+03  0.54465544440E+02  0.18207794673E+03  0.00000000000E+00 0. -1.
          1    1    6    6  503    0  0.11257107348E+03  0.12230129559E+03 -0.21656076866E+03  0.27299893775E+03  0.00000000000E+00 0.  1.
         -1    1    6    6    0  503  0.21125062032E+03  0.42698421047E+03 -0.77316399486E+03  0.90814365798E+03  0.00000000000E+00 0. -1.
<mgrwt>
<rscale>  0 0.15863049E+04</rscale>
<asrwt>0</asrwt>
<pdfrwt beam="1">  1        2 0.36586320E+00 0.15863049E+04</pdfrwt>
<pdfrwt beam="2">  1       -1 0.40697514E-01 0.15863049E+04</pdfrwt>
<totfact> 0.26437151E+01</totfact>
</mgrwt>
</event>
<event>
12    6  0.1627636E-007  0.1855936E+04  0.7818608E-02  0.8677106E-01
          2   -1    0    0  501    0  0.00000000000E+00  0.00000000000E+00  0.13018283268E+04  0.13018283268E+04  0.00000000000E+00 0. -1.
         -1   -1    0    0    0  501 -0.00000000000E+00 -0.00000000000E+00 -0.66147352011E+03  0.66147352011E+03  0.00000000000E+00 0.  1.
         24    2    1    2    0    0  0.17030551055E+03 -0.45057007578E+03  0.81974551423E+03  0.95411365716E+03  0.79578907824E+02 0.  0.
        254    2    1    2    0    0 -0.17030551055E+03  0.45057007578E+03 -0.17939070749E+03  0.10091881898E+04  0.86848282445E+03 0.  0.
         23    2    4    4    0    0  0.23197846169E+03  0.29490215328E+03 -0.36421297707E+03  0.53077104932E+03  0.91024872563E+02 0.  0.
         23    2    4    4    0    0 -0.40228397225E+03  0.15566792250E+03  0.18482226959E+03  0.47841714047E+03  0.93052633188E+02 0.  0.
          4    1    3    3  502    0  0.17237180603E+03 -0.45319550888E+03  0.81428417917E+03  0.94771141875E+03  0.00000000000E+00 0. -1.
         -3    1    3    3    0  502 -0.20662954776E+01  0.26254331073E+01  0.54613350578E+01  0.64022384066E+01  0.00000000000E+00 0.  1.
         11    1    5    5    0    0 -0.43197568835E+01  0.30520100165E+02 -0.21109209556E+02  0.37359544185E+02  0.00000000000E+00 0.  1.
        -11    1    5    5    0    0  0.23629821858E+03  0.26438205311E+03 -0.34310376752E+03  0.49341150513E+03  0.00000000000E+00 0. -1.
          4    1    6    6  503    0 -0.34768414847E+03  0.16645641346E+03  0.16550834539E+03  0.41950568181E+03  0.00000000000E+00 0. -1.
         -4    1    6    6    0  503 -0.54599823776E+02 -0.10788490964E+02  0.19313924199E+02  0.58911458662E+02  0.00000000000E+00 0.  1.
<mgrwt>
<rscale>  0 0.18559364E+04</rscale>
<asrwt>0</asrwt>
<pdfrwt beam="1">  1        2 0.20028128E+00 0.18559364E+04</pdfrwt>
<pdfrwt beam="2">  1       -1 0.10176516E+00 0.18559364E+04</pdfrwt>
<totfact> 0.16176289E+01</totfact>
</mgrwt>
</event>
<event>
12    6  0.1627636E-007  0.1829331E+04  0.7818608E-02  0.8690855E-01
         -1   -1    0    0    0  501 -0.00000000000E+00  0.00000000000E+00  0.22817823526E+03  0.22817823526E+03  0.00000000000E+00 0.  1.
          2   -1    0    0  501    0  0.00000000000E+00 -0.00000000000E+00 -0.36664903900E+04  0.36664903900E+04  0.00000000000E+00 0. -1.
         24    2    1    2    0    0  0.34833821177E+03 -0.61379064536E+02 -0.46118302045E+02  0.36457682023E+03  0.75382098169E+02 0.  0.
        254    2    1    2    0    0 -0.34833821177E+03  0.61379064536E+02 -0.33921938527E+04  0.35300918050E+04  0.91074810919E+03 0.  0.
         23    2    4    4    0    0 -0.53026312362E+03 -0.19113240719E+03 -0.27783433973E+04  0.28363853684E+04  0.90439743276E+02 0.  0.
         23    2    4    4    0    0  0.18192491185E+03  0.25251147173E+03 -0.61385045540E+03  0.69370643668E+03  0.86934008278E+02 0.  0.
          2    1    3    3  502    0  0.20639427329E+03 -0.48896635280E+02 -0.62557233895E+02  0.22113996586E+03  0.00000000000E+00 0. -1.
         -1    1    3    3    0  502  0.14194393847E+03 -0.12482429256E+02  0.16438931850E+02  0.14343685436E+03  0.00000000000E+00 0.  1.
         11    1    5    5    0    0 -0.20117853387E+03 -0.10496856125E+03 -0.95582804719E+03  0.98239424730E+03  0.00000000000E+00 0. -1.
        -11    1    5    5    0    0 -0.32908458975E+03 -0.86163845935E+02 -0.18225153501E+04  0.18539911210E+04  0.00000000000E+00 0.  1.
          1    1    6    6  503    0  0.15461371900E+03  0.21893569209E+03 -0.57939270327E+03  0.63838400981E+03  0.00000000000E+00 0. -1.
         -1    1    6    6    0  503  0.27311192858E+02  0.33575779640E+02 -0.34457752122E+02  0.55322426873E+02  0.00000000000E+00 0.  1.
<mgrwt>
<rscale>  0 0.18293314E+04</rscale>
<asrwt>0</asrwt>
<pdfrwt beam="1">  1        2 0.56407549E+00 0.18293314E+04</pdfrwt>
<pdfrwt beam="2">  1       -1 0.35104341E-01 0.18293314E+04</pdfrwt>
<totfact> 0.51620917E+00</totfact>
</mgrwt>
</event>
<event>
12    6  0.1627636E-007  0.2300723E+04  0.7818608E-02  0.8477636E-01
         -1   -1    0    0    0  501 -0.00000000000E+00  0.00000000000E+00  0.18133313108E+04  0.18133313108E+04  0.00000000000E+00 0.  1.
          2   -1    0    0  501    0  0.00000000000E+00 -0.00000000000E+00 -0.72977906044E+03  0.72977906044E+03  0.00000000000E+00 0. -1.
         24    2    1    2    0    0  0.56883911444E+03  0.73551266687E+03  0.80533838916E+03  0.12327005808E+04  0.80149732061E+02 0.  0.
        254    2    1    2    0    0 -0.56883911444E+03 -0.73551266687E+03  0.27821386118E+03  0.13104097904E+04  0.88046240412E+03 0.  0.
         23    2    4    4    0    0 -0.69417468736E+03 -0.78034667711E+03  0.74536004182E+02  0.10510230960E+04  0.90964275266E+02 0.  0.
         23    2    4    4    0    0  0.12533557293E+03  0.44834010239E+02  0.20367785700E+03  0.25938669442E+03  0.89875989549E+02 0.  0.
          4    1    3    3  502    0  0.21194023977E+03  0.26802842976E+03  0.34754657134E+03  0.48738744715E+03  0.00000000000E+00 0. -1.
         -3    1    3    3    0  502  0.35689887467E+03  0.46748423712E+03  0.45779181782E+03  0.74531313363E+03  0.00000000000E+00 0.  1.
         11    1    5    5    0    0 -0.67887592365E+03 -0.77725301754E+03  0.78348879672E+02  0.10349557092E+04  0.00000000000E+00 0.  1.
        -11    1    5    5    0    0 -0.15298763709E+02 -0.30936595765E+01 -0.38128754904E+01  0.16067386847E+02  0.00000000000E+00 0. -1.
          3    1    6    6  503    0  0.19589574447E+02  0.36183384303E+02  0.11146034984E+03  0.11881245016E+03  0.00000000000E+00 0. -1.
         -3    1    6    6    0  503  0.10574599848E+03  0.86506259362E+01  0.92217507156E+02  0.14057424426E+03  0.00000000000E+00 0.  1.
<mgrwt>
<rscale>  0 0.23007227E+04</rscale>
<asrwt>0</asrwt>
<pdfrwt beam="1">  1        2 0.11227370E+00 0.23007227E+04</pdfrwt>
<pdfrwt beam="2">  1       -1 0.27897405E+00 0.23007227E+04</pdfrwt>
<totfact> 0.18162640E+00</totfact>
</mgrwt>
</event>
<event>
12    6  0.1627636E-007  0.3469687E+04  0.7818608E-02  0.8121011E-01
         -1   -1    0    0    0  501 -0.00000000000E+00  0.00000000000E+00  0.13024998101E+04  0.13024998101E+04  0.00000000000E+00 0.  1.
          2   -1    0    0  501    0  0.00000000000E+00 -0.00000000000E+00 -0.23106970726E+04  0.23106970726E+04  0.00000000000E+00 0. -1.
         24    2    1    2    0    0 -0.59428420438E+03 -0.14930803976E+04 -0.32298226858E+03  0.16410855396E+04  0.79883747929E+02 0.  0.
        254    2    1    2    0    0  0.59428420438E+03  0.14930803976E+04 -0.68521499387E+03  0.19721113431E+04  0.91500861865E+03 0.  0.
         23    2    4    4    0    0  0.27931241673E+03  0.14888845310E+04 -0.61402776382E+03  0.16372098201E+04  0.92915701832E+02 0.  0.
         23    2    4    4    0    0  0.31497178765E+03  0.41958666622E+01 -0.71187230053E+02  0.33490152294E+03  0.88693720353E+02 0.  0.
          4    1    3    3  502    0 -0.14398366636E+03 -0.34488188194E+03 -0.10916072738E+03  0.38934672603E+03  0.00000000000E+00 0. -1.
         -3    1    3    3    0  502 -0.45030053802E+03 -0.11481985157E+04 -0.21382154120E+03  0.12517388136E+04  0.00000000000E+00 0.  1.
         11    1    5    5    0    0  0.48814215430E+01  0.13757729050E+01 -0.25540650542E+01  0.56784043241E+01  0.00000000000E+00 0.  1.
        -11    1    5    5    0    0  0.27443099519E+03  0.14875087581E+04 -0.61147369877E+03  0.16315314158E+04  0.00000000000E+00 0. -1.
          3    1    6    6  503    0  0.11275710232E+03 -0.27424927446E+02  0.58987651425E+01  0.11619417455E+03  0.00000000000E+00 0. -1.
         -3    1    6    6    0  503  0.20221468533E+03  0.31620794109E+02 -0.77085995196E+02  0.21870734839E+03  0.00000000000E+00 0.  1.
<mgrwt>
<rscale>  0 0.34696873E+04</rscale>
<asrwt>0</asrwt>
<pdfrwt beam="1">  1        2 0.35549186E+00 0.34696873E+04</pdfrwt>
<pdfrwt beam="2">  1       -1 0.20038459E+00 0.34696873E+04</pdfrwt>
<totfact> 0.62620749E-01</totfact>
</mgrwt>
</event>
<event>
12    6  0.1627636E-007  0.1444055E+04  0.7818608E-02  0.8922533E-01
         -1   -1    0    0    0  501 -0.00000000000E+00  0.00000000000E+00  0.55539413757E+03  0.55539413757E+03  0.00000000000E+00 0.  1.
          2   -1    0    0  501    0  0.00000000000E+00 -0.00000000000E+00 -0.93865490425E+03  0.93865490425E+03  0.00000000000E+00 0. -1.
         24    2    1    2    0    0  0.46508917061E+03  0.24236100044E+02 -0.30689528243E+02  0.47237252956E+03  0.72791719098E+02 0.  0.
        254    2    1    2    0    0 -0.46508917061E+03 -0.24236100044E+02 -0.35257123844E+03  0.10216765123E+04  0.83822496525E+03 0.  0.
         23    2    4    4    0    0 -0.12664198663E+03 -0.20800503698E+03  0.21002838972E+03  0.33418870858E+03  0.90916886613E+02 0.  0.
         23    2    4    4    0    0 -0.33844718399E+03  0.18376893693E+03 -0.56259962816E+03  0.68748780368E+03  0.88338100893E+02 0.  0.
          2    1    3    3  502    0  0.94600203525E+02  0.49248328002E+01 -0.36011642453E+02  0.10134244361E+03  0.00000000000E+00 0. -1.
         -1    1    3    3    0  502  0.37048896709E+03  0.19311267244E+02  0.53221142100E+01  0.37103008594E+03  0.00000000000E+00 0.  1.
         11    1    5    5    0    0 -0.80715075232E+02 -0.11232296752E+03  0.60853656703E+02  0.15111101858E+03  0.00000000000E+00 0.  1.
        -11    1    5    5    0    0 -0.45926911393E+02 -0.95682069457E+02  0.14917473302E+03  0.18307769000E+03  0.00000000000E+00 0. -1.
          1    1    6    6  503    0 -0.19604441960E+03  0.15010173333E+03 -0.38499157564E+03  0.45736468831E+03  0.00000000000E+00 0. -1.
         -1    1    6    6    0  503 -0.14240276439E+03  0.33667203607E+02 -0.17760805252E+03  0.23012311536E+03  0.00000000000E+00 0.  1.
<mgrwt>
<rscale>  0 0.14440546E+04</rscale>
<asrwt>0</asrwt>
<pdfrwt beam="1">  1        2 0.14440844E+00 0.14440546E+04</pdfrwt>
<pdfrwt beam="2">  1       -1 0.85445253E-01 0.14440546E+04</pdfrwt>
<totfact> 0.41409743E+01</totfact>
</mgrwt>
</event>
<event>
12    6  0.1627636E-007  0.1445510E+04  0.7818608E-02  0.8921519E-01
          2   -1    0    0  501    0  0.00000000000E+00  0.00000000000E+00  0.17203539431E+04  0.17203539431E+04  0.00000000000E+00 0. -1.
         -1   -1    0    0    0  501 -0.00000000000E+00 -0.00000000000E+00 -0.30364377747E+03  0.30364377747E+03  0.00000000000E+00 0.  1.
         24    2    1    2    0    0  0.18222258902E+03 -0.89487706257E+02 -0.10847229957E+03  0.24328649600E+03  0.78796940591E+02 0.  0.
        254    2    1    2    0    0 -0.18222258902E+03  0.89487706257E+02  0.15251824652E+04  0.17807112245E+04  0.89640269501E+03 0.  0.
         23    2    4    4    0    0 -0.40941294308E+03  0.19014903449E+03  0.35957797164E+03  0.58547150739E+03  0.98513729996E+02 0.  0.
         23    2    4    4    0    0  0.22719035406E+03 -0.10066132823E+03  0.11656044935E+04  0.11952397172E+04  0.90642077159E+02 0.  0.
          2    1    3    3  502    0  0.84690114648E+01 -0.83682518446E+01  0.11937177690E+02  0.16859656145E+02  0.00000000000E+00 0. -1.
         -1    1    3    3    0  502  0.17375357755E+03 -0.81119454413E+02 -0.12040947726E+03  0.22642683986E+03  0.00000000000E+00 0.  1.
         11    1    5    5    0    0 -0.58890769285E+01 -0.57234885718E+00  0.30184054183E+02  0.30758509997E+02  0.00000000000E+00 0. -1.
        -11    1    5    5    0    0 -0.40352386615E+03  0.19072138334E+03  0.32939391746E+03  0.55471299739E+03  0.00000000000E+00 0.  1.
          3    1    6    6  503    0  0.15620633031E+03 -0.81545107510E+02  0.61488761398E+03  0.63963802264E+03  0.00000000000E+00 0. -1.
         -3    1    6    6    0  503  0.70984023753E+02 -0.19116220718E+02  0.55071687955E+03  0.55560169451E+03  0.00000000000E+00 0.  1.
<mgrwt>
<rscale>  0 0.14455100E+04</rscale>
<asrwt>0</asrwt>
<pdfrwt beam="1">  1        2 0.26466983E+00 0.14455100E+04</pdfrwt>
<pdfrwt beam="2">  1       -1 0.46714428E-01 0.14455100E+04</pdfrwt>
<totfact> 0.48208302E+01</totfact>
</mgrwt>
</event>
<event>
12    6  0.1627636E-007  0.3045519E+04  0.7818608E-02  0.8230851E-01
          2   -1    0    0  501    0  0.00000000000E+00  0.00000000000E+00  0.27133057371E+04  0.27133057371E+04  0.00000000000E+00 0. -1.
         -1   -1    0    0    0  501 -0.00000000000E+00 -0.00000000000E+00 -0.85460219082E+03  0.85460219082E+03  0.00000000000E+00 0.  1.
         24    2    1    2    0    0  0.52804891053E+03  0.11936558590E+04  0.14189507569E+04  0.19289281778E+04  0.60767613257E+02 0.  0.
        254    2    1    2    0    0 -0.52804891053E+03 -0.11936558590E+04  0.43975278939E+03  0.16389797502E+04  0.88838175580E+03 0.  0.
         23    2    4    4    0    0  0.74590332930E+02 -0.57770962672E+03  0.49596707974E+03  0.77056516437E+03  0.92060837416E+02 0.  0.
         23    2    4    4    0    0 -0.60263924346E+03 -0.61594623228E+03 -0.56214290348E+02  0.86841458580E+03  0.91760708147E+02 0.  0.
          4    1    3    3  502    0  0.52055199519E+03  0.11886488842E+04  0.14089154067E+04  0.19154381152E+04  0.00000000000E+00 0. -1.
         -3    1    3    3    0  502  0.74969153449E+01  0.50069747640E+01  0.10035350170E+02  0.13490062602E+02  0.00000000000E+00 0.  1.
         11    1    5    5    0    0  0.30112432651E+02 -0.10920748679E+03  0.56176589944E+02  0.12644699692E+03  0.00000000000E+00 0. -1.
        -11    1    5    5    0    0  0.44477900278E+02 -0.46850213992E+03  0.43979048979E+03  0.64411816745E+03  0.00000000000E+00 0.  1.
          1    1    6    6  503    0 -0.49518324168E+02 -0.76980274644E+02 -0.27582252037E+02  0.95597111568E+02  0.00000000000E+00 0. -1.
         -1    1    6    6    0  503 -0.55312091930E+03 -0.53896595764E+03 -0.28632038311E+02  0.77281747423E+03  0.00000000000E+00 0.  1.
<mgrwt>
<rscale>  0 0.30455193E+04</rscale>
<asrwt>0</asrwt>
<pdfrwt beam="1">  1        2 0.41743165E+00 0.30455193E+04</pdfrwt>
<pdfrwt beam="2">  1       -1 0.13147726E+00 0.30455193E+04</pdfrwt>
<totfact> 0.12447756E+00</totfact>
</mgrwt>
</event>
<event>
12    6  0.1627636E-007  0.2067228E+04  0.7818608E-02  0.8575819E-01
         -1   -1    0    0    0  501 -0.00000000000E+00  0.00000000000E+00  0.74421127567E+03  0.74421127567E+03  0.00000000000E+00 0.  1.
          2   -1    0    0  501    0  0.00000000000E+00 -0.00000000000E+00 -0.14355574658E+04  0.14355574658E+04  0.00000000000E+00 0. -1.
         24    2    1    2    0    0  0.15964854355E+03  0.27290808077E+03  0.54598798753E+03  0.63609299904E+03  0.80900821364E+02 0.  0.
        254    2    1    2    0    0 -0.15964854355E+03 -0.27290808077E+03 -0.12373341777E+04  0.15436757425E+04  0.86716345206E+03 0.  0.
         23    2    4    4    0    0 -0.46710463029E+03  0.25823456537E+02 -0.74117146396E+03  0.88221413524E+03  0.10056368567E+03 0.  0.
         23    2    4    4    0    0  0.30745608674E+03 -0.29873153730E+03 -0.49616271374E+03  0.66146160724E+03  0.87087557593E+02 0.  0.
          4    1    3    3  502    0  0.17890216586E+02  0.10414520515E+03  0.16456431437E+03  0.19557018477E+03  0.00000000000E+00 0. -1.
         -3    1    3    3    0  502  0.14175832697E+03  0.16876287561E+03  0.38142367316E+03  0.44052281427E+03  0.00000000000E+00 0.  1.
         11    1    5    5    0    0 -0.67644363178E+02 -0.67900064661E+01 -0.18167390490E+03  0.19397750328E+03  0.00000000000E+00 0.  1.
        -11    1    5    5    0    0 -0.39946026711E+03  0.32613463003E+02 -0.55949755906E+03  0.68823663195E+03  0.00000000000E+00 0. -1.
          3    1    6    6  503    0  0.29862999132E+03 -0.30095843873E+03 -0.46624911384E+03  0.63019369222E+03  0.00000000000E+00 0. -1.
         -3    1    6    6    0  503  0.88260954241E+01  0.22269014301E+01 -0.29913599898E+02  0.31267915013E+02  0.00000000000E+00 0.  1.
<mgrwt>
<rscale>  0 0.20672281E+04</rscale>
<asrwt>0</asrwt>
<pdfrwt beam="1">  1        2 0.22085499E+00 0.20672281E+04</pdfrwt>
<pdfrwt beam="2">  1       -1 0.11449404E+00 0.20672281E+04</pdfrwt>
<totfact> 0.10086679E+01</totfact>
</mgrwt>
</event>
<event>
12    6  0.1627636E-007  0.3258286E+04  0.7818608E-02  0.8173591E-01
         -1   -1    0    0    0  501 -0.00000000000E+00  0.00000000000E+00  0.17136572248E+04  0.17136572248E+04  0.00000000000E+00 0.  1.
          2   -1    0    0  501    0  0.00000000000E+00 -0.00000000000E+00 -0.15487970360E+04  0.15487970360E+04  0.00000000000E+00 0. -1.
         24    2    1    2    0    0  0.68764185166E+03  0.34969681376E+03 -0.12179562861E+04  0.14439673200E+04  0.80529055404E+02 0.  0.
        254    2    1    2    0    0 -0.68764185166E+03 -0.34969681376E+03  0.13828164748E+04  0.18184869408E+04  0.89418911481E+03 0.  0.
         23    2    4    4    0    0 -0.27064923891E+03 -0.59865577407E+03  0.61155071783E+03  0.90259117675E+03  0.95062113941E+02 0.  0.
         23    2    4    4    0    0 -0.41699261275E+03  0.24895896031E+03  0.77126575700E+03  0.91589576405E+03  0.90281668465E+02 0.  0.
          2    1    3    3  502    0  0.47452656469E+03  0.26748545278E+03 -0.80364886161E+03  0.97086323487E+03  0.00000000000E+00 0. -1.
         -1    1    3    3    0  502  0.21311528697E+03  0.82211360971E+02 -0.41430742449E+03  0.47310408516E+03  0.00000000000E+00 0.  1.
         11    1    5    5    0    0 -0.20557373278E+02 -0.13122834175E+03  0.10441257114E+03  0.16895404194E+03  0.00000000000E+00 0. -1.
        -11    1    5    5    0    0 -0.25009186563E+03 -0.46742743232E+03  0.50713814669E+03  0.73363713481E+03  0.00000000000E+00 0.  1.
          1    1    6    6  503    0 -0.51112541848E+02  0.49986333767E+02  0.68641877070E+02  0.99110205254E+02  0.00000000000E+00 0. -1.
         -1    1    6    6    0  503 -0.36588007090E+03  0.19897262655E+03  0.70262387993E+03  0.81678555879E+03  0.00000000000E+00 0.  1.
<mgrwt>
<rscale>  0 0.32582862E+04</rscale>
<asrwt>0</asrwt>
<pdfrwt beam="1">  1        2 0.23827647E+00 0.32582862E+04</pdfrwt>
<pdfrwt beam="2">  1       -1 0.26363957E+00 0.32582862E+04</pdfrwt>
<totfact> 0.64589111E-01</totfact>
</mgrwt>
</event>
<event>
12    6  0.1627636E-007  0.3345641E+04  0.7818608E-02  0.8151378E-01
         -1   -1    0    0    0  501 -0.00000000000E+00  0.00000000000E+00  0.92618045478E+03  0.92618045478E+03  0.00000000000E+00 0.  1.
          2   -1    0    0  501    0  0.00000000000E+00 -0.00000000000E+00 -0.30213649430E+04  0.30213649430E+04  0.00000000000E+00 0. -1.
         24    2    1    2    0    0 -0.10278085080E+04 -0.29703491610E+03  0.35443433715E+03  0.11298643642E+04  0.79685077330E+02 0.  0.
        254    2    1    2    0    0  0.10278085080E+04  0.29703491610E+03 -0.24496188254E+04  0.28176810337E+04  0.89110826899E+03 0.  0.
         23    2    4    4    0    0  0.98040707148E+03 -0.62610521894E+01 -0.22062063757E+04  0.24159571233E+04  0.90912172362E+02 0.  0.
         23    2    4    4    0    0  0.47401436524E+02  0.30329596829E+03 -0.24341244973E+03  0.40172391032E+03  0.88865847599E+02 0.  0.
          4    1    3    3  502    0 -0.84111015806E+02 -0.42461193011E+02  0.46519307096E+02  0.10507931207E+03  0.00000000000E+00 0. -1.
         -3    1    3    3    0  502 -0.94369749220E+03 -0.25457372309E+03  0.30791503006E+03  0.10247850521E+04  0.00000000000E+00 0.  1.
         11    1    5    5    0    0  0.58216655518E+03  0.11746657497E+02 -0.14108582526E+04  0.15262951519E+04  0.00000000000E+00 0.  1.
        -11    1    5    5    0    0  0.39824051630E+03 -0.18007709687E+02 -0.79534812309E+03  0.88966197139E+03  0.00000000000E+00 0. -1.
          4    1    6    6  503    0 -0.21109992707E+02  0.32573205574E+02 -0.17728402567E+02  0.42672494315E+02  0.00000000000E+00 0. -1.
         -4    1    6    6    0  503  0.68511429231E+02  0.27072276272E+03 -0.22568404716E+03  0.35905141600E+03  0.00000000000E+00 0.  1.
<mgrwt>
<rscale>  0 0.33456414E+04</rscale>
<asrwt>0</asrwt>
<pdfrwt beam="1">  1        2 0.46482539E+00 0.33456414E+04</pdfrwt>
<pdfrwt beam="2">  1       -1 0.14248930E+00 0.33456414E+04</pdfrwt>
<totfact> 0.63793905E-01</totfact>
</mgrwt>
</event>
<event>
12    6  0.1627636E-007  0.1538520E+04  0.7818608E-02  0.8859234E-01
          2   -1    0    0  501    0  0.00000000000E+00  0.00000000000E+00  0.23142359060E+04  0.23142359060E+04  0.00000000000E+00 0. -1.
         -1   -1    0    0    0  501 -0.00000000000E+00 -0.00000000000E+00 -0.25570462857E+03  0.25570462857E+03  0.00000000000E+00 0.  1.
         24    2    1    2    0    0  0.48124279792E+03 -0.14381464939E+03  0.75123872774E+03  0.90860429380E+03  0.94471438709E+02 0.  0.
        254    2    1    2    0    0 -0.48124279792E+03  0.14381464939E+03  0.13072925497E+04  0.16613362408E+04  0.89372647409E+03 0.  0.
         23    2    4    4    0    0  0.90255815122E+02 -0.70977718004E+01 -0.81042912819E+02  0.14955020245E+03  0.87182674930E+02 0.  0.
         23    2    4    4    0    0 -0.57149861304E+03  0.15091242119E+03  0.13883354626E+04  0.15117860384E+04  0.92932478685E+02 0.  0.
          4    1    3    3  502    0  0.76569060313E+01  0.72190114873E+01  0.36617765865E+02  0.38099909630E+02  0.00000000000E+00 0. -1.
         -3    1    3    3    0  502  0.47358589189E+03 -0.15103366088E+03  0.71462096187E+03  0.87050438417E+03  0.00000000000E+00 0.  1.
         11    1    5    5    0    0  0.28337599837E+02  0.38088109824E+01 -0.81822020979E+02  0.86673927583E+02  0.00000000000E+00 0. -1.
        -11    1    5    5    0    0  0.61918215285E+02 -0.10906582783E+02  0.77910816008E+00  0.62876274871E+02  0.00000000000E+00 0.  1.
          4    1    6    6  503    0 -0.19968415721E+03  0.30564990331E+02  0.57448323135E+03  0.60896548701E+03  0.00000000000E+00 0. -1.
         -4    1    6    6    0  503 -0.37181445583E+03  0.12034743086E+03  0.81385223121E+03  0.90282055134E+03  0.00000000000E+00 0.  1.
<mgrwt>
<rscale>  0 0.15385199E+04</rscale>
<asrwt>0</asrwt>
<pdfrwt beam="1">  1        2 0.35603628E+00 0.15385199E+04</pdfrwt>
<pdfrwt beam="2">  1       -1 0.39339175E-01 0.15385199E+04</pdfrwt>
<totfact> 0.30705221E+01</totfact>
</mgrwt>
</event>
<event>
12    6  0.1627636E-007  0.1506682E+04  0.7818608E-02  0.8880022E-01
         -1   -1    0    0    0  501 -0.00000000000E+00  0.00000000000E+00  0.17542790149E+04  0.17542790149E+04  0.00000000000E+00 0.  1.
          2   -1    0    0  501    0  0.00000000000E+00 -0.00000000000E+00 -0.32350750108E+03  0.32350750108E+03  0.00000000000E+00 0. -1.
         24    2    1    2    0    0 -0.39258192099E+03 -0.99673148912E+02  0.10872862528E+03  0.42672908492E+03  0.78870125269E+02 0.  0.
        254    2    1    2    0    0  0.39258192099E+03  0.99673148912E+02  0.13220428885E+04  0.16510574311E+04  0.90229592720E+03 0.  0.
         23    2    4    4    0    0  0.13177215065E+03 -0.28478798835E+03  0.10612532687E+04  0.11105088342E+04  0.92213190111E+02 0.  0.
         23    2    4    4    0    0  0.26080977033E+03  0.38446113726E+03  0.26078961983E+03  0.54054859689E+03  0.91375365536E+02 0.  0.
          2    1    3    3  502    0 -0.38539953078E+03 -0.99818572659E+02  0.92122466753E+02  0.40863565025E+03  0.00000000000E+00 0. -1.
         -1    1    3    3    0  502 -0.71823902060E+01  0.14542374711E+00  0.16606158525E+02  0.18093434669E+02  0.00000000000E+00 0.  1.
         11    1    5    5    0    0  0.12267540477E+03 -0.28690933850E+03  0.97412035557E+03  0.10228766742E+04  0.00000000000E+00 0. -1.
        -11    1    5    5    0    0  0.90967458870E+01  0.21213501465E+01  0.87132913139E+02  0.87632159988E+02  0.00000000000E+00 0.  1.
          1    1    6    6  503    0  0.26713590101E+03  0.37453457384E+03  0.26070613836E+03  0.52877729451E+03  0.00000000000E+00 0. -1.
         -1    1    6    6    0  503 -0.63261306760E+01  0.99265634191E+01  0.83481470439E-01  0.11771302383E+02  0.00000000000E+00 0.  1.
<mgrwt>
<rscale>  0 0.15066817E+04</rscale>
<asrwt>0</asrwt>
<pdfrwt beam="1">  1        2 0.49770386E-01 0.15066817E+04</pdfrwt>
<pdfrwt beam="2">  1       -1 0.26988907E+00 0.15066817E+04</pdfrwt>
<totfact> 0.57815027E+00</totfact>
</mgrwt>
</event>
<event>
12    6  0.1627636E-007  0.1289476E+04  0.7818608E-02  0.9037952E-01
          2   -1    0    0  501    0  0.00000000000E+00  0.00000000000E+00  0.73403422206E+03  0.73403422206E+03  0.00000000000E+00 0. -1.
         -1   -1    0    0    0  501 -0.00000000000E+00 -0.00000000000E+00 -0.56630509311E+03  0.56630509311E+03  0.00000000000E+00 0.  1.
         24    2    1    2    0    0 -0.11243491724E+03  0.16358086062E+03  0.30211804920E+03  0.37006311860E+03  0.79190198400E+02 0.  0.
        254    2    1    2    0    0  0.11243491724E+03 -0.16358086062E+03 -0.13438892025E+03  0.93027619656E+03  0.89886212036E+03 0.  0.
         23    2    4    4    0    0 -0.37048355384E+03 -0.17085914428E+03 -0.12887661368E+03  0.43731135017E+03  0.90449569280E+02 0.  0.
         23    2    4    4    0    0  0.48291847107E+03  0.72782836615E+01 -0.55123065685E+01  0.49296484639E+03  0.98593768243E+02 0.  0.
          4    1    3    3  502    0 -0.11254164081E+03  0.10366186299E+03  0.23085059444E+03  0.27695378623E+03  0.00000000000E+00 0. -1.
         -3    1    3    3    0  502  0.10672357223E+00  0.59918997629E+02  0.71267454764E+02  0.93109332375E+02  0.00000000000E+00 0.  1.
         11    1    5    5    0    0 -0.56489975312E+02 -0.54494362609E+02 -0.50711172348E+02  0.93447182236E+02  0.00000000000E+00 0. -1.
        -11    1    5    5    0    0 -0.31399357853E+03 -0.11636478168E+03 -0.78165441336E+02  0.34386416793E+03  0.00000000000E+00 0.  1.
          3    1    6    6  503    0  0.22353120960E+03 -0.19481571886E+02  0.40976042784E+02  0.22808938904E+03  0.00000000000E+00 0. -1.
         -3    1    6    6    0  503  0.25938726147E+03  0.26759855548E+02 -0.46488349352E+02  0.26487545735E+03  0.00000000000E+00 0.  1.
<mgrwt>
<rscale>  0 0.12894764E+04</rscale>
<asrwt>0</asrwt>
<pdfrwt beam="1">  1        2 0.11292834E+00 0.12894764E+04</pdfrwt>
<pdfrwt beam="2">  1       -1 0.87123860E-01 0.12894764E+04</pdfrwt>
<totfact> 0.56066035E+01</totfact>
</mgrwt>
</event>
<event>
12    6  0.1627636E-007  0.1749588E+04  0.7818608E-02  0.8733577E-01
         -1   -1    0    0    0  501 -0.00000000000E+00  0.00000000000E+00  0.20254006695E+03  0.20254006695E+03  0.00000000000E+00 0.  1.
          2   -1    0    0  501    0  0.00000000000E+00 -0.00000000000E+00 -0.37783356944E+04  0.37783356944E+04  0.00000000000E+00 0. -1.
         24    2    1    2    0    0 -0.26032686828E+03  0.56505571818E+03 -0.10093991871E+04  0.11889409025E+04  0.87382537288E+02 0.  0.
        254    2    1    2    0    0  0.26032686828E+03 -0.56505571818E+03 -0.25663964404E+04  0.27919348589E+04  0.90633962940E+03 0.  0.
         23    2    4    4    0    0 -0.25234517419E+03 -0.24929769243E+03 -0.40546181068E+03  0.54638875167E+03  0.91180928045E+02 0.  0.
         23    2    4    4    0    0  0.51267204247E+03 -0.31575802576E+03 -0.21609346297E+04  0.22455461072E+04  0.10150414599E+03 0.  0.
          2    1    3    3  502    0 -0.46560189858E+02  0.12629296659E+03 -0.15792309053E+03  0.20750293302E+03  0.00000000000E+00 0. -1.
         -1    1    3    3    0  502 -0.21376667842E+03  0.43876275159E+03 -0.85147609655E+03  0.98143796950E+03  0.00000000000E+00 0.  1.
         11    1    5    5    0    0 -0.61815797335E+02 -0.80778989834E+02 -0.62459298290E+02  0.11936331908E+03  0.00000000000E+00 0.  1.
        -11    1    5    5    0    0 -0.19052937686E+03 -0.16851870259E+03 -0.34300251239E+03  0.42702543259E+03  0.00000000000E+00 0. -1.
          3    1    6    6  503    0  0.25809249276E+03 -0.13057866453E+03 -0.87178427187E+03  0.91851529064E+03  0.00000000000E+00 0. -1.
         -3    1    6    6    0  503  0.25457954971E+03 -0.18517936122E+03 -0.12891503579E+04  0.13270308166E+04  0.00000000000E+00 0.  1.
<mgrwt>
<rscale>  0 0.17495878E+04</rscale>
<asrwt>0</asrwt>
<pdfrwt beam="1">  1        2 0.58128239E+00 0.17495878E+04</pdfrwt>
<pdfrwt beam="2">  1       -1 0.31160012E-01 0.17495878E+04</pdfrwt>
<totfact> 0.53198506E+00</totfact>
</mgrwt>
</event>
<event>
12    6  0.1627636E-007  0.1460960E+04  0.7818608E-02  0.8910837E-01
         -1   -1    0    0    0  501 -0.00000000000E+00  0.00000000000E+00  0.26068696069E+03  0.26068696069E+03  0.00000000000E+00 0.  1.
          2   -1    0    0  501    0  0.00000000000E+00 -0.00000000000E+00 -0.20469042449E+04  0.20469042449E+04  0.00000000000E+00 0. -1.
         24    2    1    2    0    0  0.20869122615E+03 -0.33097027795E+03 -0.89159675997E+03  0.97701877013E+03  0.80793205473E+02 0.  0.
        254    2    1    2    0    0 -0.20869122615E+03  0.33097027795E+03 -0.89462052429E+03  0.13305724355E+04  0.90387154557E+03 0.  0.
         23    2    4    4    0    0 -0.14176971355E+03 -0.29802176086E+03 -0.36114173556E+03  0.49791175658E+03  0.92612863832E+02 0.  0.
         23    2    4    4    0    0 -0.66921512599E+02  0.62899203881E+03 -0.53347878873E+03  0.83266067893E+03  0.92815486169E+02 0.  0.
          2    1    3    3  502    0  0.17771346808E+03 -0.30256071561E+03 -0.84083347539E+03  0.91111250496E+03  0.00000000000E+00 0. -1.
         -1    1    3    3    0  502  0.30977758071E+02 -0.28409562333E+02 -0.50763284576E+02  0.65906265165E+02  0.00000000000E+00 0.  1.
         11    1    5    5    0    0 -0.13850962525E+03 -0.29854366779E+03 -0.36589109500E+03  0.49212755589E+03  0.00000000000E+00 0. -1.
        -11    1    5    5    0    0 -0.32600883016E+01  0.52190693020E+00  0.47493594361E+01  0.57842006908E+01  0.00000000000E+00 0.  1.
          2    1    6    6  503    0 -0.61781048147E+02  0.62738893187E+03 -0.53524356219E+03  0.82699422042E+03  0.00000000000E+00 0. -1.
         -2    1    6    6    0  503 -0.51404644518E+01  0.16031069398E+01  0.17647734607E+01  0.56664585067E+01  0.00000000000E+00 0.  1.
<mgrwt>
<rscale>  0 0.14609603E+04</rscale>
<asrwt>0</asrwt>
<pdfrwt beam="1">  1        2 0.31490835E+00 0.14609603E+04</pdfrwt>
<pdfrwt beam="2">  1       -1 0.40105686E-01 0.14609603E+04</pdfrwt>
<totfact> 0.42116073E+01</totfact>
</mgrwt>
</event>
<event>
12    6  0.1627636E-007  0.1631859E+04  0.7818608E-02  0.8801211E-01
          2   -1    0    0  501    0  0.00000000000E+00  0.00000000000E+00  0.27442395546E+04  0.27442395546E+04  0.00000000000E+00 0. -1.
         -1   -1    0    0    0  501 -0.00000000000E+00 -0.00000000000E+00 -0.24259589105E+03  0.24259589105E+03  0.00000000000E+00 0.  1.
         24    2    1    2    0    0  0.42616029328E+03 -0.39521270140E+03  0.10227257982E+04  0.11790626378E+04  0.80093511114E+02 0.  0.
        254    2    1    2    0    0 -0.42616029328E+03  0.39521270140E+03  0.14789178653E+04  0.18077728078E+04  0.86199698234E+03 0.  0.
         23    2    4    4    0    0 -0.96014862198E+02 -0.14071506822E+03  0.97839850366E+03  0.99735961748E+03  0.91885746528E+02 0.  0.
         23    2    4    4    0    0 -0.33014543108E+03  0.53592776962E+03  0.50051936163E+03  0.81041319037E+03  0.10017648344E+03 0.  0.
          2    1    3    3  502    0  0.29378083602E+03 -0.22775938250E+03  0.68973383964E+03  0.78352682499E+03  0.00000000000E+00 0. -1.
         -1    1    3    3    0  502  0.13237945726E+03 -0.16745331890E+03  0.33299195859E+03  0.39553581279E+03  0.00000000000E+00 0.  1.
         11    1    5    5    0    0 -0.15448476610E+02 -0.56697811068E+01  0.32075440415E+03  0.32117625945E+03  0.00000000000E+00 0. -1.
        -11    1    5    5    0    0 -0.80566385588E+02 -0.13504528711E+03  0.65764409951E+03  0.67618335803E+03  0.00000000000E+00 0.  1.
          4    1    6    6  503    0 -0.16633145533E+01  0.31965657846E+02  0.47810918796E+02  0.57536543630E+02  0.00000000000E+00 0. -1.
         -4    1    6    6    0  503 -0.32848211653E+03  0.50396211178E+03  0.45270844283E+03  0.75287664673E+03  0.00000000000E+00 0.  1.
<mgrwt>
<rscale>  0 0.16318594E+04</rscale>
<asrwt>0</asrwt>
<pdfrwt beam="1">  1        2 0.42219068E+00 0.16318594E+04</pdfrwt>
<pdfrwt beam="2">  1       -1 0.37322447E-01 0.16318594E+04</pdfrwt>
<totfact> 0.18874137E+01</totfact>
</mgrwt>
</event>
<event>
12    6  0.1627636E-007  0.1431478E+04  0.7818608E-02  0.8931343E-01
         -1   -1    0    0    0  501 -0.00000000000E+00  0.00000000000E+00  0.92033185508E+03  0.92033185508E+03  0.00000000000E+00 0.  1.
          2   -1    0    0  501    0  0.00000000000E+00 -0.00000000000E+00 -0.55662799990E+03  0.55662799990E+03  0.00000000000E+00 0. -1.
         24    2    1    2    0    0 -0.15283538212E+03 -0.29488053560E+03  0.34982543752E+03  0.48901987805E+03  0.80308281535E+02 0.  0.
        254    2    1    2    0    0  0.15283538212E+03  0.29488053560E+03  0.13878417649E+02  0.98793997693E+03  0.93033306038E+03 0.  0.
         23    2    4    4    0    0  0.41010330255E+03  0.49084318225E+03  0.56311848204E+02  0.64853383295E+03  0.91177628341E+02 0.  0.
         23    2    4    4    0    0 -0.25726792042E+03 -0.19596264664E+03 -0.42433430555E+02  0.33940614399E+03  0.93849841703E+02 0.  0.
          4    1    3    3  502    0 -0.91915061131E+01 -0.14039839522E+02 -0.15149628095E+01  0.16849213356E+02  0.00000000000E+00 0. -1.
         -3    1    3    3    0  502 -0.14364387601E+03 -0.28084069608E+03  0.35134040033E+03  0.47217066469E+03  0.00000000000E+00 0.  1.
         11    1    5    5    0    0  0.25217661732E+02  0.43971554261E+02  0.28396143856E+02  0.58101368600E+02  0.00000000000E+00 0. -1.
        -11    1    5    5    0    0  0.38488564081E+03  0.44687162799E+03  0.27915704347E+02  0.59043246434E+03  0.00000000000E+00 0.  1.
          3    1    6    6  503    0  0.46674791850E+01 -0.13512939207E+02  0.77642344451E+01  0.16268627000E+02  0.00000000000E+00 0. -1.
         -3    1    6    6    0  503 -0.26193539961E+03 -0.18244970744E+03 -0.50197665000E+02  0.32313751699E+03  0.00000000000E+00 0.  1.
<mgrwt>
<rscale>  0 0.14314782E+04</rscale>
<asrwt>0</asrwt>
<pdfrwt beam="1">  1        2 0.85635077E-01 0.14314782E+04</pdfrwt>
<pdfrwt beam="2">  1       -1 0.14158952E+00 0.14314782E+04</pdfrwt>
<totfact> 0.24517046E+01</totfact>
</mgrwt>
</event>
<event>
12    6  0.1627636E-007  0.2423503E+04  0.7818608E-02  0.8430756E-01
         -1   -1    0    0    0  501 -0.00000000000E+00  0.00000000000E+00  0.62808033732E+03  0.62808033732E+03  0.00000000000E+00 0.  1.
          2   -1    0    0  501    0  0.00000000000E+00 -0.00000000000E+00 -0.23378254083E+04  0.23378254083E+04  0.00000000000E+00 0. -1.
         24    2    1    2    0    0  0.85248304746E+03 -0.53964873655E+03 -0.10739045473E+04  0.14755842929E+04  0.78293828030E+02 0.  0.
        254    2    1    2    0    0 -0.85248304746E+03  0.53964873655E+03 -0.63584052370E+03  0.14903214528E+04  0.89376549276E+03 0.  0.
         23    2    4    4    0    0 -0.64311785434E+03  0.47974455477E+01 -0.63584302423E+03  0.90879710991E+03  0.89399359465E+02 0.  0.
         23    2    4    4    0    0 -0.20936519312E+03  0.53485129100E+03  0.25005294398E-02  0.58152434289E+03  0.90944344464E+02 0.  0.
          4    1    3    3  502    0  0.10738312507E+03 -0.73113941191E+02 -0.10274311167E+03  0.16562889525E+03  0.00000000000E+00 0. -1.
         -3    1    3    3    0  502  0.74509992239E+03 -0.46653479536E+03 -0.97116143565E+03  0.13099553976E+04  0.00000000000E+00 0.  1.
         11    1    5    5    0    0 -0.42811559865E+03 -0.38201328835E+02 -0.40921492219E+03  0.59346369718E+03  0.00000000000E+00 0.  1.
        -11    1    5    5    0    0 -0.21500225569E+03  0.42998774383E+02 -0.22662810204E+03  0.31533341273E+03  0.00000000000E+00 0. -1.
          2    1    6    6  503    0 -0.62556880553E+02  0.94435070036E+02 -0.27173412666E+02  0.11648922746E+03  0.00000000000E+00 0. -1.
         -2    1    6    6    0  503 -0.14680831257E+03  0.44041622097E+03  0.27175913195E+02  0.46503511544E+03  0.00000000000E+00 0.  1.
<mgrwt>
<rscale>  0 0.24235034E+04</rscale>
<asrwt>0</asrwt>
<pdfrwt beam="1">  1        2 0.35966545E+00 0.24235034E+04</pdfrwt>
<pdfrwt beam="2">  1       -1 0.96627743E-01 0.24235034E+04</pdfrwt>
<totfact> 0.45387953E+00</totfact>
</mgrwt>
</event>
<event>
12    6  0.1627636E-007  0.1494284E+04  0.7818608E-02  0.8888263E-01
         -1   -1    0    0    0  501 -0.00000000000E+00  0.00000000000E+00  0.46068307482E+03  0.46068307482E+03  0.00000000000E+00 0.  1.
          2   -1    0    0  501    0  0.00000000000E+00 -0.00000000000E+00 -0.12117252903E+04  0.12117252903E+04  0.00000000000E+00 0. -1.
         24    2    1    2    0    0  0.25079066059E+03  0.57323315545E+02  0.16428785941E+03  0.31545973830E+03  0.79639360842E+02 0.  0.
        254    2    1    2    0    0 -0.25079066059E+03 -0.57323315545E+02 -0.91533007493E+03  0.13569486269E+04  0.96814178298E+03 0.  0.
         23    2    4    4    0    0 -0.44965406966E+03  0.43106481901E+02 -0.99886151518E+03  0.10999147399E+04  0.89672500147E+02 0.  0.
         23    2    4    4    0    0  0.19886340907E+03 -0.10042979745E+03  0.83531440255E+02  0.25703388702E+03  0.97242572370E+02 0.  0.
          2    1    3    3  502    0  0.24087651368E+02  0.33594251937E+02  0.26763153731E+02  0.49244848556E+02  0.00000000000E+00 0. -1.
         -1    1    3    3    0  502  0.22670300922E+03  0.23729063607E+02  0.13752470567E+03  0.26621488974E+03  0.00000000000E+00 0.  1.
         11    1    5    5    0    0 -0.42961828247E+03  0.38986901409E+02 -0.98466836022E+03  0.10750179658E+04  0.00000000000E+00 0. -1.
        -11    1    5    5    0    0 -0.20035787186E+02  0.41195804920E+01 -0.14193154961E+02  0.24896774075E+02  0.00000000000E+00 0.  1.
          2    1    6    6  503    0  0.21797801607E+02 -0.50750091228E+02  0.39583284081E+02  0.67952573852E+02  0.00000000000E+00 0.  1.
         -2    1    6    6    0  503  0.17706560746E+03 -0.49679706217E+02  0.43948156175E+02  0.18908131316E+03  0.00000000000E+00 0. -1.
<mgrwt>
<rscale>  0 0.14942842E+04</rscale>
<asrwt>0</asrwt>
<pdfrwt beam="1">  1        2 0.18641927E+00 0.14942842E+04</pdfrwt>
<pdfrwt beam="2">  1       -1 0.70874319E-01 0.14942842E+04</pdfrwt>
<totfact> 0.41314149E+01</totfact>
</mgrwt>
</event>
<event>
12    6  0.1627636E-007  0.1390033E+04  0.7818608E-02  0.8961065E-01
          2   -1    0    0  501    0  0.00000000000E+00  0.00000000000E+00  0.16903718866E+04  0.16903718866E+04  0.00000000000E+00 0. -1.
         -1   -1    0    0    0  501 -0.00000000000E+00 -0.00000000000E+00 -0.28576417624E+03  0.28576417624E+03  0.00000000000E+00 0.  1.
         24    2    1    2    0    0 -0.25727098729E+03  0.84990680348E+02  0.81629124278E+03  0.86378993553E+03  0.79936743966E+02 0.  0.
        254    2    1    2    0    0  0.25727098729E+03 -0.84990680348E+02  0.58831646762E+03  0.11123461273E+04  0.90431513550E+03 0.  0.
         23    2    4    4    0    0  0.51453933520E+03 -0.24947089195E+03  0.20419902137E+03  0.61405911623E+03  0.91569124151E+02 0.  0.
         23    2    4    4    0    0 -0.25726834791E+03  0.16448021161E+03  0.38411744626E+03  0.49828701112E+03  0.86619801928E+02 0.  0.
          2    1    3    3  502    0 -0.21906272963E+03  0.45146103233E+02  0.59308349092E+03  0.63385698493E+03  0.00000000000E+00 0. -1.
         -1    1    3    3    0  502 -0.38208257667E+02  0.39844577115E+02  0.22320775186E+03  0.22993295059E+03  0.00000000000E+00 0.  1.
         11    1    5    5    0    0  0.64868963257E+02 -0.43031757524E+02 -0.23620786656E+01  0.77879997209E+02  0.00000000000E+00 0. -1.
        -11    1    5    5    0    0  0.44967037194E+03 -0.20643913443E+03  0.20656110003E+03  0.53617911902E+03  0.00000000000E+00 0.  1.
          2    1    6    6  503    0 -0.13594831989E+02  0.16538392559E+02  0.19311818367E+01  0.21495751872E+02  0.00000000000E+00 0. -1.
         -2    1    6    6    0  503 -0.24367351592E+03  0.14794181905E+03  0.38218626442E+03  0.47679125925E+03  0.00000000000E+00 0.  1.
<mgrwt>
<rscale>  0 0.13900327E+04</rscale>
<asrwt>0</asrwt>
<pdfrwt beam="1">  1        2 0.26005721E+00 0.13900327E+04</pdfrwt>
<pdfrwt beam="2">  1       -1 0.43963720E-01 0.13900327E+04</pdfrwt>
<totfact> 0.56352114E+01</totfact>
</mgrwt>
</event>
<event>
12    6  0.1627636E-007  0.1380700E+04  0.7818608E-02  0.8967909E-01
          2   -1    0    0  501    0  0.00000000000E+00  0.00000000000E+00  0.39044244232E+03  0.39044244232E+03  0.00000000000E+00 0. -1.
         -1   -1    0    0    0  501 -0.00000000000E+00 -0.00000000000E+00 -0.12206226937E+04  0.12206226937E+04  0.00000000000E+00 0.  1.
         24    2    1    2    0    0 -0.78983716772E+02  0.38232292953E+03 -0.20833462041E+03  0.44885822410E+03  0.75240556382E+02 0.  0.
        254    2    1    2    0    0  0.78983716772E+02 -0.38232292953E+03 -0.62184563096E+03  0.11622069119E+04  0.90090158584E+03 0.  0.
         23    2    4    4    0    0 -0.12576734670E+03 -0.60889029646E+03 -0.26170785811E+03  0.68114022826E+03  0.94319610600E+02 0.  0.
         23    2    4    4    0    0  0.20475106347E+03  0.22656736693E+03 -0.36013777285E+03  0.48106668364E+03  0.92033520675E+02 0.  0.
          4    1    3    3  502    0 -0.79223130114E+02  0.37197852026E+03 -0.21467191502E+03  0.43672457565E+03  0.00000000000E+00 0. -1.
         -3    1    3    3    0  502  0.23941334247E+00  0.10344409272E+02  0.63372946052E+01  0.12133648456E+02  0.00000000000E+00 0.  1.
         11    1    5    5    0    0 -0.41249972572E+02 -0.89647455902E+02 -0.70975066389E+02  0.12155528222E+03  0.00000000000E+00 0. -1.
        -11    1    5    5    0    0 -0.84517374125E+02 -0.51924284055E+03 -0.19073279172E+03  0.55958494604E+03  0.00000000000E+00 0.  1.
          3    1    6    6  503    0  0.52990410821E+02  0.87538787294E+02 -0.64912333755E+02  0.12118017162E+03  0.00000000000E+00 0. -1.
         -3    1    6    6    0  503  0.15176065265E+03  0.13902857963E+03 -0.29522543910E+03  0.35988651203E+03  0.00000000000E+00 0.  1.
<mgrwt>
<rscale>  0 0.13806997E+04</rscale>
<asrwt>0</asrwt>
<pdfrwt beam="1">  1        2 0.60068068E-01 0.13806997E+04</pdfrwt>
<pdfrwt beam="2">  1       -1 0.18778811E+00 0.13806997E+04</pdfrwt>
<totfact> 0.16692159E+01</totfact>
</mgrwt>
</event>
<event>
12    6  0.1627636E-007  0.1450800E+04  0.7818608E-02  0.8917846E-01
         -1   -1    0    0    0  501 -0.00000000000E+00  0.00000000000E+00  0.64252845592E+03  0.64252845592E+03  0.00000000000E+00 0.  1.
          2   -1    0    0  501    0  0.00000000000E+00 -0.00000000000E+00 -0.81896009136E+03  0.81896009136E+03  0.00000000000E+00 0. -1.
         24    2    1    2    0    0 -0.14997875952E+03  0.16662145107E+03 -0.44098635613E+03  0.50102177614E+03  0.79356900233E+02 0.  0.
        254    2    1    2    0    0  0.14997875952E+03 -0.16662145107E+03  0.26455472068E+03  0.96046677114E+03  0.89568458844E+03 0.  0.
         23    2    4    4    0    0 -0.36525505708E+03 -0.27442470038E+02  0.60753121025E+02  0.38192754341E+03  0.89517377177E+02 0.  0.
         23    2    4    4    0    0  0.51523381660E+03 -0.13917898104E+03  0.20380159965E+03  0.57853922773E+03  0.91300993837E+02 0.  0.
          2    1    3    3  502    0 -0.10827632427E+03  0.89464871337E+02 -0.33629487892E+03  0.36444748756E+03  0.00000000000E+00 0. -1.
         -1    1    3    3    0  502 -0.41702435251E+02  0.77156579737E+02 -0.10469147721E+03  0.13657428859E+03  0.00000000000E+00 0.  1.
         11    1    5    5    0    0 -0.79541173743E+01 -0.10245874924E+02 -0.11095070841E+02  0.17068876153E+02  0.00000000000E+00 0.  1.
        -11    1    5    5    0    0 -0.35730093970E+03 -0.17196595114E+02  0.71848191866E+02  0.36485866725E+03  0.00000000000E+00 0. -1.
          3    1    6    6  503    0  0.27197126784E+03 -0.11855177117E+03  0.12568635836E+03  0.32221103901E+03  0.00000000000E+00 0. -1.
         -3    1    6    6    0  503  0.24326254875E+03 -0.20627209868E+02  0.78115241290E+02  0.25632818872E+03  0.00000000000E+00 0.  1.
<mgrwt>
<rscale>  0 0.14508000E+04</rscale>
<asrwt>0</asrwt>
<pdfrwt beam="1">  1        2 0.12599386E+00 0.14508000E+04</pdfrwt>
<pdfrwt beam="2">  1       -1 0.98850532E-01 0.14508000E+04</pdfrwt>
<totfact> 0.36180220E+01</totfact>
</mgrwt>
</event>
<event>
12    6  0.1627636E-007  0.2404301E+04  0.7818608E-02  0.8437895E-01
          2   -1    0    0  501    0  0.00000000000E+00  0.00000000000E+00  0.22236195857E+04  0.22236195857E+04  0.00000000000E+00 0. -1.
         -1   -1    0    0    0  501 -0.00000000000E+00 -0.00000000000E+00 -0.64991591370E+03  0.64991591370E+03  0.00000000000E+00 0.  1.
         24    2    1    2    0    0 -0.92826281924E+03  0.76665127616E+01  0.12118809364E+04  0.15286092036E+04  0.79120517869E+02 0.  0.
        254    2    1    2    0    0  0.92826281924E+03 -0.76665127616E+01  0.36182273554E+03  0.13449262957E+04  0.90342703746E+03 0.  0.
         23    2    4    4    0    0  0.75356995717E+03  0.18211902859E+03  0.59816444913E+03  0.98352128934E+03  0.92078213835E+02 0.  0.
         23    2    4    4    0    0  0.17469286208E+03 -0.18978554135E+03 -0.23634171360E+03  0.36140500640E+03  0.90664355158E+02 0.  0.
          4    1    3    3  502    0 -0.54398983247E+03  0.33495317167E+02  0.66704581642E+03  0.86139247460E+03  0.00000000000E+00 0. -1.
         -3    1    3    3    0  502 -0.38427298677E+03 -0.25828804406E+02  0.54483512002E+03  0.66721672904E+03  0.00000000000E+00 0.  1.
         11    1    5    5    0    0  0.18620525569E+03  0.68802867724E+02  0.19555731745E+03  0.27865551540E+03  0.00000000000E+00 0. -1.
        -11    1    5    5    0    0  0.56736470147E+03  0.11331616086E+03  0.40260713168E+03  0.70486577394E+03  0.00000000000E+00 0.  1.
          4    1    6    6  503    0  0.88986953743E+02 -0.85677257564E+02 -0.17260169384E+03  0.21225130180E+03  0.00000000000E+00 0.  1.
         -4    1    6    6    0  503  0.85705908334E+02 -0.10410828378E+03 -0.63740019762E+02  0.14915370460E+03  0.00000000000E+00 0. -1.
<mgrwt>
<rscale>  0 0.24043009E+04</rscale>
<asrwt>0</asrwt>
<pdfrwt beam="1">  1        2 0.34209532E+00 0.24043009E+04</pdfrwt>
<pdfrwt beam="2">  1       -1 0.99987065E-01 0.24043009E+04</pdfrwt>
<totfact> 0.48824762E+00</totfact>
</mgrwt>
</event>
<event>
12    6  0.1627636E-007  0.2751793E+04  0.7818608E-02  0.8318393E-01
         -1   -1    0    0    0  501 -0.00000000000E+00  0.00000000000E+00  0.19649154978E+04  0.19649154978E+04  0.00000000000E+00 0.  1.
          2   -1    0    0  501    0  0.00000000000E+00 -0.00000000000E+00 -0.96344668560E+03  0.96344668560E+03  0.00000000000E+00 0. -1.
         24    2    1    2    0    0 -0.65098134234E+02 -0.65831499084E+03  0.15468792409E+04  0.16842687005E+04  0.79430947969E+02 0.  0.
        254    2    1    2    0    0  0.65098134234E+02  0.65831499084E+03 -0.54541042861E+03  0.12440934829E+04  0.90148747324E+03 0.  0.
         23    2    4    4    0    0 -0.47025487753E+02  0.44597229111E+03 -0.77439262415E+03  0.89980415070E+03  0.94132312917E+02 0.  0.
         23    2    4    4    0    0  0.11212362199E+03  0.21234269973E+03  0.22898219555E+03  0.34428933224E+03  0.91875838388E+02 0.  0.
          2    1    3    3  502    0 -0.44618616570E+02 -0.29803902583E+03  0.79724354669E+03  0.85230003790E+03  0.00000000000E+00 0. -1.
         -1    1    3    3    0  502 -0.20479517664E+02 -0.36027596501E+03  0.74963569416E+03  0.83196866261E+03  0.00000000000E+00 0.  1.
         11    1    5    5    0    0  0.21804038379E+02  0.40299526067E+02 -0.96088227458E+02  0.10645381791E+03  0.00000000000E+00 0.  1.
        -11    1    5    5    0    0 -0.68829526131E+02  0.40567276505E+03 -0.67830439670E+03  0.79335033279E+03  0.00000000000E+00 0. -1.
          1    1    6    6  503    0  0.63684969817E+02  0.18263464757E+03  0.14022972892E+03  0.23890493244E+03  0.00000000000E+00 0.  1.
         -1    1    6    6    0  503  0.48438652170E+02  0.29708052158E+02  0.88752466629E+02  0.10538439979E+03  0.00000000000E+00 0. -1.
<mgrwt>
<rscale>  0 0.27517931E+04</rscale>
<asrwt>0</asrwt>
<pdfrwt beam="1">  1        2 0.14822257E+00 0.27517931E+04</pdfrwt>
<pdfrwt beam="2">  1       -1 0.30229469E+00 0.27517931E+04</pdfrwt>
<totfact> 0.84538439E-01</totfact>
</mgrwt>
</event>
<event>
12    6  0.1627636E-007  0.2134808E+04  0.7818608E-02  0.8546063E-01
          2   -1    0    0  501    0  0.00000000000E+00  0.00000000000E+00  0.10702314651E+04  0.10702314651E+04  0.00000000000E+00 0. -1.
         -1   -1    0    0    0  501 -0.00000000000E+00 -0.00000000000E+00 -0.10645843692E+04  0.10645843692E+04  0.00000000000E+00 0.  1.
         24    2    1    2    0    0 -0.72906133999E+03 -0.25058553183E+03 -0.42008349645E+03  0.88153338982E+03  0.79419312211E+02 0.  0.
        254    2    1    2    0    0  0.72906133999E+03  0.25058553183E+03  0.42573059239E+03  0.12532824445E+04  0.89171004371E+03 0.  0.
         23    2    4    4    0    0  0.74132667199E+03  0.36394503278E+03  0.60121190720E+03  0.10254903572E+04  0.90296699118E+02 0.  0.
         23    2    4    4    0    0 -0.12265332005E+02 -0.11335950095E+03 -0.17548131481E+03  0.22779208725E+03  0.89970708243E+02 0.  0.
          2    1    3    3  502    0 -0.18561265279E+03 -0.88961452232E+02 -0.14180631800E+03  0.24995045246E+03  0.00000000000E+00 0. -1.
         -1    1    3    3    0  502 -0.54344868720E+03 -0.16162407960E+03 -0.27827717846E+03  0.63158293737E+03  0.00000000000E+00 0.  1.
         11    1    5    5    0    0  0.14377560697E+03  0.34445364214E+02  0.12156057651E+03  0.19140240865E+03  0.00000000000E+00 0.  1.
        -11    1    5    5    0    0  0.59755106502E+03  0.32949966857E+03  0.47965133069E+03  0.83408794856E+03  0.00000000000E+00 0. -1.
          3    1    6    6  503    0  0.10037755256E+02 -0.12117282318E+03 -0.14840532653E+03  0.19185346114E+03  0.00000000000E+00 0. -1.
         -3    1    6    6    0  503 -0.22303087260E+02  0.78133222284E+01 -0.27075988276E+02  0.35938626110E+02  0.00000000000E+00 0.  1.
<mgrwt>
<rscale>  0 0.21348084E+04</rscale>
<asrwt>0</asrwt>
<pdfrwt beam="1">  1        2 0.16465099E+00 0.21348084E+04</pdfrwt>
<pdfrwt beam="2">  1       -1 0.16378221E+00 0.21348084E+04</pdfrwt>
<totfact> 0.65200368E+00</totfact>
</mgrwt>
</event>
<event>
12    6  0.1627636E-007  0.1701324E+04  0.7818608E-02  0.8760610E-01
         -1   -1    0    0    0  501 -0.00000000000E+00  0.00000000000E+00  0.61008400633E+03  0.61008400633E+03  0.00000000000E+00 0.  1.
          2   -1    0    0  501    0  0.00000000000E+00 -0.00000000000E+00 -0.11861085373E+04  0.11861085373E+04  0.00000000000E+00 0. -1.
         24    2    1    2    0    0 -0.96870084435E+02  0.31022578756E+03 -0.75080288073E+03  0.82212538992E+03  0.81002089591E+02 0.  0.
        254    2    1    2    0    0  0.96870084435E+02 -0.31022578756E+03  0.17477834972E+03  0.97406715374E+03  0.90146297535E+03 0.  0.
         23    2    4    4    0    0  0.39927750008E+03 -0.19276562261E+03  0.36965863606E+03  0.58446874221E+03  0.91515551006E+02 0.  0.
         23    2    4    4    0    0 -0.30240741564E+03 -0.11746016495E+03 -0.19488028634E+03  0.38959841153E+03  0.92528162615E+02 0.  0.
          4    1    3    3  502    0 -0.36661225884E+02  0.77707700738E+02 -0.29029651101E+03  0.30274510160E+03  0.00000000000E+00 0. -1.
         -3    1    3    3    0  502 -0.60208858551E+02  0.23251808682E+03 -0.46050636972E+03  0.51938028832E+03  0.00000000000E+00 0.  1.
         11    1    5    5    0    0  0.21107128977E+03 -0.53687674555E+02  0.15970023536E+03  0.27006965942E+03  0.00000000000E+00 0. -1.
        -11    1    5    5    0    0  0.18820621030E+03 -0.13907794806E+03  0.20995840070E+03  0.31439908279E+03  0.00000000000E+00 0.  1.
          3    1    6    6  503    0 -0.12509719581E+03 -0.98128129056E+02 -0.92574122911E+02  0.18397936391E+03  0.00000000000E+00 0. -1.
         -3    1    6    6    0  503 -0.17731021983E+03 -0.19332035893E+02 -0.10230616342E+03  0.20561904762E+03  0.00000000000E+00 0.  1.
<mgrwt>
<rscale>  0 0.17013240E+04</rscale>
<asrwt>0</asrwt>
<pdfrwt beam="1">  1        2 0.18247824E+00 0.17013240E+04</pdfrwt>
<pdfrwt beam="2">  1       -1 0.93859078E-01 0.17013240E+04</pdfrwt>
<totfact> 0.23049890E+01</totfact>
</mgrwt>
</event>
<event>
12    6  0.1627636E-007  0.1295044E+04  0.7818608E-02  0.9033504E-01
         -1   -1    0    0    0  501 -0.00000000000E+00  0.00000000000E+00  0.58861230095E+03  0.58861230095E+03  0.00000000000E+00 0.  1.
          2   -1    0    0  501    0  0.00000000000E+00 -0.00000000000E+00 -0.71232790960E+03  0.71232790960E+03  0.00000000000E+00 0. -1.
         24    2    1    2    0    0  0.50434352215E+02 -0.24318114259E+03  0.21376056380E+03  0.33752789322E+03  0.80937062397E+02 0.  0.
        254    2    1    2    0    0 -0.50434352215E+02  0.24318114259E+03 -0.33747617245E+03  0.96341231733E+03  0.86752085520E+03 0.  0.
         23    2    4    4    0    0  0.98529242741E+02  0.49592626150E+03 -0.10736817730E+02  0.51483147543E+03  0.96360263153E+02 0.  0.
         23    2    4    4    0    0 -0.14896359496E+03 -0.25274511891E+03 -0.32673935472E+03  0.44858084190E+03  0.91629242270E+02 0.  0.
          2    1    3    3  502    0 -0.20965886043E+02 -0.51924620008E+02  0.33972847590E+02  0.65497243560E+02  0.00000000000E+00 0. -1.
         -1    1    3    3    0  502  0.71400238258E+02 -0.19125652258E+03  0.17978771621E+03  0.27203064966E+03  0.00000000000E+00 0.  1.
         11    1    5    5    0    0  0.20610325167E+02  0.53902902612E+02 -0.31053443010E+02  0.65533386425E+02  0.00000000000E+00 0. -1.
        -11    1    5    5    0    0  0.77918917573E+02  0.44202335889E+03  0.20316625280E+02  0.44929808900E+03  0.00000000000E+00 0.  1.
          3    1    6    6  503    0 -0.35274814738E+02 -0.31893473939E+02 -0.10639125981E+03  0.11653585886E+03  0.00000000000E+00 0. -1.
         -3    1    6    6    0  503 -0.11368878022E+03 -0.22085164497E+03 -0.22034809491E+03  0.33204498304E+03  0.00000000000E+00 0.  1.
<mgrwt>
<rscale>  0 0.12950444E+04</rscale>
<asrwt>0</asrwt>
<pdfrwt beam="1">  1        2 0.10958891E+00 0.12950444E+04</pdfrwt>
<pdfrwt beam="2">  1       -1 0.90555738E-01 0.12950444E+04</pdfrwt>
<totfact> 0.53502451E+01</totfact>
</mgrwt>
</event>
<event>
12    6  0.1627636E-007  0.1285446E+04  0.7818608E-02  0.9041187E-01
          2   -1    0    0  501    0  0.00000000000E+00  0.00000000000E+00  0.14896170324E+04  0.14896170324E+04  0.00000000000E+00 0. -1.
         -1   -1    0    0    0  501 -0.00000000000E+00 -0.00000000000E+00 -0.27731485258E+03  0.27731485258E+03  0.00000000000E+00 0.  1.
         24    2    1    2    0    0 -0.40207975214E+02 -0.18056669224E+03  0.65421199356E+03  0.68449327968E+03  0.79477706255E+02 0.  0.
        254    2    1    2    0    0  0.40207975214E+02  0.18056669224E+03  0.55809018631E+03  0.10824386053E+04  0.90883863621E+03 0.  0.
         23    2    4    4    0    0  0.75564291026E+02 -0.29403996236E+03  0.50320880420E+03  0.59478613033E+03  0.91553146716E+02 0.  0.
         23    2    4    4    0    0 -0.35356315812E+02  0.47460665460E+03  0.54881382112E+02  0.48765247501E+03  0.91057260146E+02 0.  0.
          2    1    3    3  502    0 -0.19594328548E+02 -0.15875072009E+03  0.61290207543E+03  0.63343088250E+03  0.00000000000E+00 0. -1.
         -1    1    3    3    0  502 -0.20613646665E+02 -0.21815972149E+02  0.41309918131E+02  0.51062397179E+02  0.00000000000E+00 0.  1.
         11    1    5    5    0    0  0.95591086503E+02 -0.23056922754E+03  0.41513269681E+03  0.48439135053E+03  0.00000000000E+00 0.  1.
        -11    1    5    5    0    0 -0.20026795478E+02 -0.63470734814E+02  0.88076107384E+02  0.11039477980E+03  0.00000000000E+00 0. -1.
          3    1    6    6  503    0  0.32943876119E+01  0.31913316139E+02  0.27798105754E+02  0.42450529093E+02  0.00000000000E+00 0. -1.
         -3    1    6    6    0  503 -0.38650703424E+02  0.44269333846E+03  0.27083276358E+02  0.44520194592E+03  0.00000000000E+00 0.  1.
<mgrwt>
<rscale>  0 0.12854461E+04</rscale>
<asrwt>0</asrwt>
<pdfrwt beam="1">  1        2 0.22917185E+00 0.12854461E+04</pdfrwt>
<pdfrwt beam="2">  1       -1 0.42663824E-01 0.12854461E+04</pdfrwt>
<totfact> 0.77774465E+01</totfact>
</mgrwt>
</event>
<event>
12    6  0.1627636E-007  0.1480519E+04  0.7818608E-02  0.8897512E-01
          2   -1    0    0  501    0  0.00000000000E+00  0.00000000000E+00  0.13161093521E+04  0.13161093521E+04  0.00000000000E+00 0. -1.
         -1   -1    0    0    0  501 -0.00000000000E+00 -0.00000000000E+00 -0.41636685157E+03  0.41636685157E+03  0.00000000000E+00 0.  1.
         24    2    1    2    0    0 -0.45730315126E+03  0.81326205492E+02  0.28806221987E+03  0.55288393799E+03  0.83430704913E+02 0.  0.
        254    2    1    2    0    0  0.45730315126E+03 -0.81326205492E+02  0.61168028068E+03  0.11795922657E+04  0.89529046890E+03 0.  0.
         23    2    4    4    0    0  0.20740976373E+03  0.20340011081E+03 -0.13851560023E+03  0.33438532522E+03  0.90755490439E+02 0.  0.
         23    2    4    4    0    0  0.24989338753E+03 -0.28472631630E+03  0.75019588091E+03  0.84520694049E+03  0.89806081056E+02 0.  0.
          4    1    3    3  502    0 -0.44982749949E+02 -0.62034757251E+01  0.54686662152E+02  0.71081375349E+02  0.00000000000E+00 0. -1.
         -3    1    3    3    0  502 -0.41232040131E+03  0.87529681217E+02  0.23337555772E+03  0.48180256264E+03  0.00000000000E+00 0.  1.
         11    1    5    5    0    0  0.21087060986E+03  0.17094833237E+03 -0.12778001496E+03  0.30002912970E+03  0.00000000000E+00 0.  1.
        -11    1    5    5    0    0 -0.34608461267E+01  0.32451778434E+02 -0.10735585269E+02  0.34356195519E+02  0.00000000000E+00 0. -1.
          1    1    6    6  503    0  0.87334326199E+02 -0.16600759240E+03  0.34136662921E+03  0.38950864022E+03  0.00000000000E+00 0. -1.
         -1    1    6    6    0  503  0.16255906133E+03 -0.11871872390E+03  0.40882925171E+03  0.45569830028E+03  0.00000000000E+00 0.  1.
<mgrwt>
<rscale>  0 0.14805192E+04</rscale>
<asrwt>0</asrwt>
<pdfrwt beam="1">  1        2 0.20247836E+00 0.14805192E+04</pdfrwt>
<pdfrwt beam="2">  1       -1 0.64056439E-01 0.14805192E+04</pdfrwt>
<totfact> 0.44100427E+01</totfact>
</mgrwt>
</event>
<event>
12    6  0.1627636E-007  0.1251139E+04  0.7818608E-02  0.9069236E-01
         -1   -1    0    0    0  501 -0.00000000000E+00  0.00000000000E+00  0.75229589648E+03  0.75229589648E+03  0.00000000000E+00 0.  1.
          2   -1    0    0  501    0  0.00000000000E+00 -0.00000000000E+00 -0.52019029618E+03  0.52019029618E+03  0.00000000000E+00 0. -1.
         24    2    1    2    0    0 -0.48884140439E+02 -0.26864597476E+03  0.87785026628E+02  0.29843101426E+03  0.82429002379E+02 0.  0.
        254    2    1    2    0    0  0.48884140439E+02  0.26864597476E+03  0.14432057367E+03  0.97405517840E+03  0.92379366941E+03 0.  0.
         23    2    4    4    0    0 -0.34158693853E+03  0.28982857579E+03 -0.14237195787E+03  0.48099184733E+03  0.10198599360E+03 0.  0.
         23    2    4    4    0    0  0.39047107897E+03 -0.21182601033E+02  0.28669253154E+03  0.49306333107E+03  0.89456552039E+02 0.  0.
          2    1    3    3  502    0 -0.52838274417E+02 -0.25026148532E+03  0.10147323574E+03  0.27517178607E+03  0.00000000000E+00 0. -1.
         -1    1    3    3    0  502  0.39541339779E+01 -0.18384489436E+02 -0.13688209110E+02  0.23259228190E+02  0.00000000000E+00 0.  1.
         11    1    5    5    0    0 -0.13937392145E+03  0.10746242027E+03 -0.51443932562E+01  0.17606739202E+03  0.00000000000E+00 0.  1.
        -11    1    5    5    0    0 -0.20221301708E+03  0.18236615552E+03 -0.13722756461E+03  0.30492445531E+03  0.00000000000E+00 0. -1.
          1    1    6    6  503    0  0.15640075437E+03 -0.17146404548E+02  0.16947902269E+03  0.23125383086E+03  0.00000000000E+00 0. -1.
         -1    1    6    6    0  503  0.23407032460E+03 -0.40361964845E+01  0.11721350885E+03  0.26180950020E+03  0.00000000000E+00 0.  1.
<mgrwt>
<rscale>  0 0.12511387E+04</rscale>
<asrwt>0</asrwt>
<pdfrwt beam="1">  1        2 0.80029276E-01 0.12511387E+04</pdfrwt>
<pdfrwt beam="2">  1       -1 0.11573783E+00 0.12511387E+04</pdfrwt>
<totfact> 0.44706027E+01</totfact>
</mgrwt>
</event>
<event>
12    6  0.1627636E-007  0.1918127E+04  0.7818608E-02  0.8645886E-01
         -1   -1    0    0    0  501 -0.00000000000E+00  0.00000000000E+00  0.41030720123E+03  0.41030720123E+03  0.00000000000E+00 0.  1.
          2   -1    0    0  501    0  0.00000000000E+00 -0.00000000000E+00 -0.22417413206E+04  0.22417413206E+04  0.00000000000E+00 0. -1.
         24    2    1    2    0    0 -0.65381960452E+03  0.18535213479E+03 -0.33264273436E+03  0.76094503034E+03  0.80936155952E+02 0.  0.
        254    2    1    2    0    0  0.65381960452E+03 -0.18535213479E+03 -0.14987913850E+04  0.18911034915E+04  0.93169807910E+03 0.  0.
         23    2    4    4    0    0 -0.81393602022E+02  0.15660619661E+03 -0.77595371703E+03  0.80100076466E+03  0.91365391438E+02 0.  0.
         23    2    4    4    0    0  0.73521320655E+03 -0.34195833140E+03 -0.72283766794E+03  0.10901027268E+04  0.91409525032E+02 0.  0.
          4    1    3    3  502    0 -0.66840434036E+02  0.47971319325E+01 -0.56257652283E+02  0.87496168701E+02  0.00000000000E+00 0. -1.
         -3    1    3    3    0  502 -0.58697917049E+03  0.18055500286E+03 -0.27638508208E+03  0.67344886164E+03  0.00000000000E+00 0.  1.
         11    1    5    5    0    0 -0.59950420799E+02  0.16138609233E+03 -0.61820820900E+03  0.64173274299E+03  0.00000000000E+00 0. -1.
        -11    1    5    5    0    0 -0.21443181224E+02 -0.47798957198E+01 -0.15774550803E+03  0.15926802167E+03  0.00000000000E+00 0.  1.
          1    1    6    6  503    0  0.14335527218E+03 -0.10265190657E+03 -0.18200623051E+03  0.25340563516E+03  0.00000000000E+00 0. -1.
         -1    1    6    6    0  503  0.59185793436E+03 -0.23930642484E+03 -0.54083143743E+03  0.83669709163E+03  0.00000000000E+00 0.  1.
<mgrwt>
<rscale>  0 0.19181268E+04</rscale>
<asrwt>0</asrwt>
<pdfrwt beam="1">  1        2 0.34488328E+00 0.19181268E+04</pdfrwt>
<pdfrwt beam="2">  1       -1 0.63124184E-01 0.19181268E+04</pdfrwt>
<totfact> 0.13259480E+01</totfact>
</mgrwt>
</event>
<event>
12    6  0.1627636E-007  0.1722925E+04  0.7818608E-02  0.8748396E-01
          2   -1    0    0  501    0  0.00000000000E+00  0.00000000000E+00  0.14726929995E+04  0.14726929995E+04  0.00000000000E+00 0. -1.
         -1   -1    0    0    0  501 -0.00000000000E+00 -0.00000000000E+00 -0.50391903031E+03  0.50391903031E+03  0.00000000000E+00 0.  1.
         24    2    1    2    0    0 -0.28802723930E+03  0.53683737847E+03  0.24121200705E+03  0.66014955462E+03  0.80374999965E+02 0.  0.
        254    2    1    2    0    0  0.28802723930E+03 -0.53683737847E+03  0.72756196212E+03  0.13164624752E+04  0.91245437054E+03 0.  0.
         23    2    4    4    0    0 -0.16083903251E+02  0.20298946324E+03 -0.12056210653E+02  0.22326696845E+03  0.90770991252E+02 0.  0.
         23    2    4    4    0    0  0.30411114255E+03 -0.73982684172E+03  0.73961817277E+03  0.10931955067E+04  0.90631295320E+02 0.  0.
          4    1    3    3  502    0 -0.22074258319E+03  0.38212981555E+03  0.13801406646E+03  0.46238335449E+03  0.00000000000E+00 0. -1.
         -3    1    3    3    0  502 -0.67284656103E+02  0.15470756292E+03  0.10319794060E+03  0.19776620014E+03  0.00000000000E+00 0.  1.
         11    1    5    5    0    0  0.28738000440E+02  0.60109573342E+02 -0.28808236621E+02  0.72587519409E+02  0.00000000000E+00 0. -1.
        -11    1    5    5    0    0 -0.44821903691E+02  0.14287988990E+03  0.16752025968E+02  0.15067944904E+03  0.00000000000E+00 0.  1.
          4    1    6    6  503    0  0.26408628981E+02 -0.14356166972E+03  0.15883534495E+03  0.21572212567E+03  0.00000000000E+00 0. -1.
         -4    1    6    6    0  503  0.27770251357E+03 -0.59626517199E+03  0.58078282783E+03  0.87747338106E+03  0.00000000000E+00 0.  1.
<mgrwt>
<rscale>  0 0.17229255E+04</rscale>
<asrwt>0</asrwt>
<pdfrwt beam="1">  1        2 0.22656815E+00 0.17229255E+04</pdfrwt>
<pdfrwt beam="2">  1       -1 0.77526005E-01 0.17229255E+04</pdfrwt>
<totfact> 0.23741500E+01</totfact>
</mgrwt>
</event>
<event>
12    6  0.1627636E-007  0.1874070E+04  0.7818608E-02  0.8667872E-01
         -1   -1    0    0    0  501 -0.00000000000E+00  0.00000000000E+00  0.10013443264E+04  0.10013443264E+04  0.00000000000E+00 0.  1.
          2   -1    0    0  501    0  0.00000000000E+00 -0.00000000000E+00 -0.87685538896E+03  0.87685538896E+03  0.00000000000E+00 0. -1.
         24    2    1    2    0    0  0.60294438678E+03 -0.33711394292E+03  0.31911203355E+03  0.76504003566E+03  0.79158209520E+02 0.  0.
        254    2    1    2    0    0 -0.60294438678E+03  0.33711394292E+03 -0.19462309615E+03  0.11131596797E+04  0.85091631716E+03 0.  0.
         23    2    4    4    0    0 -0.17867609774E+01  0.79688323504E+02 -0.40312814975E+03  0.42158286407E+03  0.94161482231E+02 0.  0.
         23    2    4    4    0    0 -0.60115762581E+03  0.25742561942E+03  0.20850505361E+03  0.69157681559E+03  0.84532206211E+02 0.  0.
          4    1    3    3  502    0  0.22921959947E+03 -0.14172125356E+03  0.84383926273E+02  0.28239544172E+03  0.00000000000E+00 0. -1.
         -3    1    3    3    0  502  0.37372478731E+03 -0.19539268937E+03  0.23472810728E+03  0.48264459393E+03  0.00000000000E+00 0.  1.
         11    1    5    5    0    0  0.16972979150E+01  0.10120186672E+03 -0.34324015236E+03  0.35785262447E+03  0.00000000000E+00 0. -1.
        -11    1    5    5    0    0 -0.34840588924E+01 -0.21513543211E+02 -0.59887997393E+02  0.63730239601E+02  0.00000000000E+00 0.  1.
          4    1    6    6  503    0 -0.35737288045E+03  0.17719135127E+03  0.16308763030E+03  0.43094051306E+03  0.00000000000E+00 0. -1.
         -4    1    6    6    0  503 -0.24378474536E+03  0.80234268150E+02  0.45417423308E+02  0.26063630253E+03  0.00000000000E+00 0.  1.
<mgrwt>
<rscale>  0 0.18740695E+04</rscale>
<asrwt>0</asrwt>
<pdfrwt beam="1">  1        2 0.13490083E+00 0.18740695E+04</pdfrwt>
<pdfrwt beam="2">  1       -1 0.15405297E+00 0.18740695E+04</pdfrwt>
<totfact> 0.10569051E+01</totfact>
</mgrwt>
</event>
<event>
12    6  0.1627636E-007  0.2810640E+04  0.7818608E-02  0.8299973E-01
          2   -1    0    0  501    0  0.00000000000E+00  0.00000000000E+00  0.27268386840E+04  0.27268386840E+04  0.00000000000E+00 0. -1.
         -1   -1    0    0    0  501 -0.00000000000E+00 -0.00000000000E+00 -0.72425425844E+03  0.72425425844E+03  0.00000000000E+00 0.  1.
         24    2    1    2    0    0  0.80944177991E+03 -0.80462774246E+03  0.25260861195E+03  0.11718584418E+04  0.82579039171E+02 0.  0.
        254    2    1    2    0    0 -0.80944177991E+03  0.80462774246E+03  0.17499758136E+04  0.22792345007E+04  0.91097352422E+03 0.  0.
         23    2    4    4    0    0 -0.96879576382E+02  0.30904493189E+02  0.93464523069E+03  0.94460826548E+03  0.91555054141E+02 0.  0.
         23    2    4    4    0    0 -0.71256220352E+03  0.77372324927E+03  0.81533058290E+03  0.13346262352E+04  0.10035271725E+03 0.  0.
          2    1    3    3  502    0  0.55026341100E+02 -0.49140482647E+02 -0.36788355381E+01  0.73866224220E+02  0.00000000000E+00 0. -1.
         -1    1    3    3    0  502  0.75441543881E+03 -0.75548725981E+03  0.25628744749E+03  0.10979922175E+04  0.00000000000E+00 0.  1.
         11    1    5    5    0    0 -0.90784867855E+02 -0.12974676887E+02  0.67682012158E+03  0.68300491320E+03  0.00000000000E+00 0. -1.
        -11    1    5    5    0    0 -0.60947085272E+01  0.43879170076E+02  0.25782510911E+03  0.26160335228E+03  0.00000000000E+00 0.  1.
          4    1    6    6  503    0 -0.65926157921E+03  0.70202363097E+03  0.77698465603E+03  0.12374037999E+04  0.00000000000E+00 0. -1.
         -4    1    6    6    0  503 -0.53300624311E+02  0.71699618301E+02  0.38345926870E+02  0.97222435291E+02  0.00000000000E+00 0.  1.
<mgrwt>
<rscale>  0 0.28106402E+04</rscale>
<asrwt>0</asrwt>
<pdfrwt beam="1">  1        2 0.41951364E+00 0.28106402E+04</pdfrwt>
<pdfrwt beam="2">  1       -1 0.11142373E+00 0.28106402E+04</pdfrwt>
<totfact> 0.18714683E+00</totfact>
</mgrwt>
</event>
<event>
12    6  0.1627636E-007  0.2933531E+04  0.7818608E-02  0.8262970E-01
         -1   -1    0    0    0  501 -0.00000000000E+00  0.00000000000E+00  0.15882149100E+04  0.15882149100E+04  0.00000000000E+00 0.  1.
          2   -1    0    0  501    0  0.00000000000E+00 -0.00000000000E+00 -0.13546030125E+04  0.13546030125E+04  0.00000000000E+00 0. -1.
         24    2    1    2    0    0 -0.50999833601E+03  0.56884738852E+03 -0.98118346141E+03  0.12461725886E+04  0.80867061206E+02 0.  0.
        254    2    1    2    0    0  0.50999833601E+03 -0.56884738852E+03  0.12147953589E+04  0.16966453338E+04  0.90509224431E+03 0.  0.
         23    2    4    4    0    0 -0.11886345900E+03 -0.16940958763E+02  0.68449757953E+03  0.70119037039E+03  0.93356741465E+02 0.  0.
         23    2    4    4    0    0  0.62886179500E+03 -0.55190642975E+03  0.53029777934E+03  0.99545496343E+03  0.98219066551E+02 0.  0.
          2    1    3    3  502    0 -0.39305996694E+03  0.43063771080E+03 -0.80115788026E+03  0.99085767126E+03  0.00000000000E+00 0. -1.
         -1    1    3    3    0  502 -0.11693836906E+03  0.13820967772E+03 -0.18002558115E+03  0.25531491739E+03  0.00000000000E+00 0.  1.
         11    1    5    5    0    0 -0.77243827160E+02 -0.23583686714E+01  0.19567780073E+03  0.21038529520E+03  0.00000000000E+00 0.  1.
        -11    1    5    5    0    0 -0.41619631836E+02 -0.14582590092E+02  0.48881977880E+03  0.49080507519E+03  0.00000000000E+00 0. -1.
          2    1    6    6  503    0  0.56338178286E+03 -0.45597559313E+03  0.43574898946E+03  0.84568904250E+03  0.00000000000E+00 0. -1.
         -2    1    6    6    0  503  0.65480012141E+02 -0.95930836620E+02  0.94548789875E+02  0.14976592093E+03  0.00000000000E+00 0.  1.
<mgrwt>
<rscale>  0 0.29335308E+04</rscale>
<asrwt>0</asrwt>
<pdfrwt beam="1">  1        2 0.20840046E+00 0.29335308E+04</pdfrwt>
<pdfrwt beam="2">  1       -1 0.24434075E+00 0.29335308E+04</pdfrwt>
<totfact> 0.11438186E+00</totfact>
</mgrwt>
</event>
<event>
12    6  0.1627636E-007  0.1570141E+04  0.7818608E-02  0.8839104E-01
          2   -1    0    0  501    0  0.00000000000E+00  0.00000000000E+00  0.22213046749E+04  0.22213046749E+04  0.00000000000E+00 0. -1.
         -1   -1    0    0    0  501 -0.00000000000E+00 -0.00000000000E+00 -0.27746572586E+03  0.27746572586E+03  0.00000000000E+00 0.  1.
         24    2    1    2    0    0 -0.88120408161E+02 -0.41350552577E+03  0.11590517030E+04  0.12362795002E+04  0.78956483479E+02 0.  0.
        254    2    1    2    0    0  0.88120408161E+02  0.41350552577E+03  0.78478724606E+03  0.12624909005E+04  0.89400236365E+03 0.  0.
         23    2    4    4    0    0  0.10857094996E+00  0.56502159496E+03  0.14196620732E+03  0.58984988963E+03  0.92298828380E+02 0.  0.
         23    2    4    4    0    0  0.88011837211E+02 -0.15151606918E+03  0.64282103874E+03  0.67264101092E+03  0.92324639250E+02 0.  0.
          4    1    3    3  502    0 -0.88311514550E+02 -0.23781927282E+03  0.64911462828E+03  0.69692663228E+03  0.00000000000E+00 0. -1.
         -3    1    3    3    0  502  0.19110638874E+00 -0.17568625295E+03  0.50993707467E+03  0.53935286791E+03  0.00000000000E+00 0.  1.
         11    1    5    5    0    0 -0.45425642423E+02  0.30986109556E+03  0.84306423010E+02  0.32432230958E+03  0.00000000000E+00 0.  1.
        -11    1    5    5    0    0  0.45534213373E+02  0.25516049939E+03  0.57659784313E+02  0.26552758005E+03  0.00000000000E+00 0. -1.
          1    1    6    6  503    0 -0.13501363489E+02  0.21922993479E+01  0.52130162487E+02  0.53894775567E+02  0.00000000000E+00 0. -1.
         -1    1    6    6    0  503  0.10151320070E+03 -0.15370836853E+03  0.59069087625E+03  0.61874623535E+03  0.00000000000E+00 0.  1.
<mgrwt>
<rscale>  0 0.15701413E+04</rscale>
<asrwt>0</asrwt>
<pdfrwt beam="1">  1        2 0.34173917E+00 0.15701413E+04</pdfrwt>
<pdfrwt beam="2">  1       -1 0.42687036E-01 0.15701413E+04</pdfrwt>
<totfact> 0.29735506E+01</totfact>
</mgrwt>
</event>
<event>
12    6  0.1627636E-007  0.1308906E+04  0.7818608E-02  0.9022533E-01
          2   -1    0    0  501    0  0.00000000000E+00  0.00000000000E+00  0.34599006617E+04  0.34599006617E+04  0.00000000000E+00 0. -1.
         -1   -1    0    0    0  501 -0.00000000000E+00 -0.00000000000E+00 -0.12379213976E+03  0.12379213976E+03  0.00000000000E+00 0.  1.
         24    2    1    2    0    0 -0.27262959603E+03  0.19054768503E+03  0.12535210009E+04  0.12993056549E+04  0.79025111642E+02 0.  0.
        254    2    1    2    0    0  0.27262959603E+03 -0.19054768503E+03  0.20825875210E+04  0.22843871465E+04  0.87784881138E+03 0.  0.
         23    2    4    4    0    0 -0.15511037082E+03 -0.79752156430E+02  0.16418749508E+04  0.16537740873E+04  0.93785629384E+02 0.  0.
         23    2    4    4    0    0  0.42773996685E+03 -0.11079552860E+03  0.44071257023E+03  0.63061305921E+03  0.90598744435E+02 0.  0.
          4    1    3    3  502    0 -0.78088310266E+01 -0.61892426456E+01  0.18871391854E+02  0.21340431041E+02  0.00000000000E+00 0. -1.
         -3    1    3    3    0  502 -0.26482076500E+03  0.19673692767E+03  0.12346496090E+04  0.12779652239E+04  0.00000000000E+00 0.  1.
         11    1    5    5    0    0 -0.11912032016E+03 -0.58601006374E+02  0.80619117174E+03  0.81704830580E+03  0.00000000000E+00 0. -1.
        -11    1    5    5    0    0 -0.35990050664E+02 -0.21151150056E+02  0.83568377902E+03  0.83672578149E+03  0.00000000000E+00 0.  1.
          3    1    6    6  503    0  0.39048775092E+03 -0.72463235554E+02  0.39715079061E+03  0.56165857477E+03  0.00000000000E+00 0. -1.
         -3    1    6    6    0  503  0.37252215926E+02 -0.38332293044E+02  0.43561779622E+02  0.68954484446E+02  0.00000000000E+00 0.  1.
<mgrwt>
<rscale>  0 0.13089057E+04</rscale>
<asrwt>0</asrwt>
<pdfrwt beam="1">  1        2 0.53229234E+00 0.13089057E+04</pdfrwt>
<pdfrwt beam="2">  1       -1 0.19044947E-01 0.13089057E+04</pdfrwt>
<totfact> 0.21899345E+01</totfact>
</mgrwt>
</event>
<event>
12    6  0.1627636E-007  0.1594789E+04  0.7818608E-02  0.8823756E-01
         -1   -1    0    0    0  501 -0.00000000000E+00  0.00000000000E+00  0.59930471801E+03  0.59930471801E+03  0.00000000000E+00 0.  1.
          2   -1    0    0  501    0  0.00000000000E+00 -0.00000000000E+00 -0.10609598431E+04  0.10609598431E+04  0.00000000000E+00 0. -1.
         24    2    1    2    0    0  0.32705893486E+03 -0.38490124939E+03  0.30346955342E+02  0.51213628030E+03  0.79032355685E+02 0.  0.
        254    2    1    2    0    0 -0.32705893486E+03  0.38490124939E+03 -0.49200208046E+03  0.11481282808E+04  0.90609932317E+03 0.  0.
         23    2    4    4    0    0  0.22954586802E+03  0.31678452826E+03 -0.41091837790E+03  0.57460141111E+03  0.90934732043E+02 0.  0.
         23    2    4    4    0    0 -0.55660480288E+03  0.68116721131E+02 -0.81083702565E+02  0.57352686973E+03  0.88936545865E+02 0.  0.
          4    1    3    3  502    0  0.49721631829E+02 -0.11007656939E+03  0.58413460717E+01  0.12092647818E+03  0.00000000000E+00 0. -1.
         -3    1    3    3    0  502  0.27733730303E+03 -0.27482468000E+03  0.24505609271E+02  0.39120980212E+03  0.00000000000E+00 0.  1.
         11    1    5    5    0    0  0.22887042894E+03  0.31570007312E+03 -0.41551806960E+03  0.56982758407E+03  0.00000000000E+00 0.  1.
        -11    1    5    5    0    0  0.67543908252E+00  0.10844551367E+01  0.45996916979E+01  0.47738270406E+01  0.00000000000E+00 0. -1.
          1    1    6    6  503    0 -0.68978923598E+02 -0.12185708348E+01  0.17618297690E+02  0.71203800665E+02  0.00000000000E+00 0. -1.
         -1    1    6    6    0  503 -0.48762587928E+03  0.69335291966E+02 -0.98702000255E+02  0.50232306906E+03  0.00000000000E+00 0.  1.
<mgrwt>
<rscale>  0 0.15947893E+04</rscale>
<asrwt>0</asrwt>
<pdfrwt beam="1">  1        2 0.16322459E+00 0.15947893E+04</pdfrwt>
<pdfrwt beam="2">  1       -1 0.92200726E-01 0.15947893E+04</pdfrwt>
<totfact> 0.28871740E+01</totfact>
</mgrwt>
</event>
<event>
12    6  0.1627636E-007  0.1305598E+04  0.7818608E-02  0.9025138E-01
         -1   -1    0    0    0  501 -0.00000000000E+00  0.00000000000E+00  0.62555764495E+03  0.62555764495E+03  0.00000000000E+00 0.  1.
          2   -1    0    0  501    0  0.00000000000E+00 -0.00000000000E+00 -0.68122675801E+03  0.68122675801E+03  0.00000000000E+00 0. -1.
         24    2    1    2    0    0 -0.26442897253E+03  0.14751046751E+03  0.15323869739E+03  0.34776789203E+03  0.76015714245E+02 0.  0.
        254    2    1    2    0    0  0.26442897253E+03 -0.14751046751E+03 -0.20890781046E+03  0.95901651093E+03  0.88565691745E+03 0.  0.
         23    2    4    4    0    0 -0.10648364001E+02 -0.37257647345E+03 -0.39254548569E+03  0.54830484122E+03  0.87290459646E+02 0.  0.
         23    2    4    4    0    0  0.27507733653E+03  0.22506600594E+03  0.18363767523E+03  0.41071166972E+03  0.92946391966E+02 0.  0.
          2    1    3    3  502    0 -0.27997827533E+02  0.29577687820E+01  0.38825284868E+02  0.47958622664E+02  0.00000000000E+00 0. -1.
         -3    1    3    3    0  502 -0.23643114499E+03  0.14455269873E+03  0.11441341253E+03  0.29980926937E+03  0.00000000000E+00 0.  1.
         11    1    5    5    0    0  0.28243205509E+02 -0.29043636940E+03 -0.29328908461E+03  0.41372629899E+03  0.00000000000E+00 0.  1.
        -11    1    5    5    0    0 -0.38891569509E+02 -0.82140104045E+02 -0.99256401079E+02  0.13457854222E+03  0.00000000000E+00 0. -1.
          2    1    6    6  503    0  0.87807653271E+02  0.20924351228E+02  0.41511496104E+02  0.99353997182E+02  0.00000000000E+00 0. -1.
         -2    1    6    6    0  503  0.18726968326E+03  0.20414165471E+03  0.14212617912E+03  0.31135767253E+03  0.00000000000E+00 0.  1.
<mgrwt>
<rscale>  0 0.13055981E+04</rscale>
<asrwt>0</asrwt>
<pdfrwt beam="1">  1        2 0.10480412E+00 0.13055981E+04</pdfrwt>
<pdfrwt beam="2">  1       -1 0.96239638E-01 0.13055981E+04</pdfrwt>
<totfact> 0.49380659E+01</totfact>
</mgrwt>
</event>
<event>
12    6  0.1627636E-007  0.1193790E+04  0.7818608E-02  0.9118309E-01
         -1   -1    0    0    0  501 -0.00000000000E+00  0.00000000000E+00  0.31937062086E+03  0.31937062086E+03  0.00000000000E+00 0.  1.
          2   -1    0    0  501    0  0.00000000000E+00 -0.00000000000E+00 -0.11155812178E+04  0.11155812178E+04  0.00000000000E+00 0. -1.
         24    2    1    2    0    0 -0.85786818587E+02 -0.21971178944E+03 -0.82264988406E+02  0.26216601149E+03  0.79566579676E+02 0.  0.
        254    2    1    2    0    0  0.85786818587E+02  0.21971178944E+03 -0.71394560850E+03  0.11727858271E+04  0.90004200777E+03 0.  0.
         23    2    4    4    0    0  0.95096859461E+02  0.54730661480E+03 -0.57563221417E+03  0.80518848475E+03  0.91586607634E+02 0.  0.
         23    2    4    4    0    0 -0.93100408738E+01 -0.32759482536E+03 -0.13831339433E+03  0.36759734238E+03  0.92693929749E+02 0.  0.
          4    1    3    3  502    0 -0.81420892715E+02 -0.17489800793E+03 -0.95459200053E+02  0.21524668133E+03  0.00000000000E+00 0. -1.
         -3    1    3    3    0  502 -0.43659258722E+01 -0.44813781507E+02  0.13194211646E+02  0.46919330159E+02  0.00000000000E+00 0.  1.
         11    1    5    5    0    0  0.48855692656E+02  0.36245137168E+03 -0.31733505388E+03  0.48421009073E+03  0.00000000000E+00 0.  1.
        -11    1    5    5    0    0  0.46241166805E+02  0.18485524311E+03 -0.25829716029E+03  0.32097839402E+03  0.00000000000E+00 0. -1.
          1    1    6    6  503    0  0.20703853134E+02 -0.20980444499E+03 -0.48145283426E+02  0.21625106471E+03  0.00000000000E+00 0. -1.
         -1    1    6    6    0  503 -0.30013894007E+02 -0.11779038037E+03 -0.90168110905E+02  0.15134627767E+03  0.00000000000E+00 0.  1.
<mgrwt>
<rscale>  0 0.11937904E+04</rscale>
<asrwt>0</asrwt>
<pdfrwt beam="1">  1        2 0.17162788E+00 0.11937904E+04</pdfrwt>
<pdfrwt beam="2">  1       -1 0.49133941E-01 0.11937904E+04</pdfrwt>
<totfact> 0.99499546E+01</totfact>
</mgrwt>
</event>
<event>
12    6  0.1627636E-007  0.4659480E+04  0.7818608E-02  0.7883296E-01
          2   -1    0    0  501    0  0.00000000000E+00  0.00000000000E+00  0.19836068584E+04  0.19836068584E+04  0.00000000000E+00 0. -1.
         -1   -1    0    0    0  501 -0.00000000000E+00 -0.00000000000E+00 -0.27362720945E+04  0.27362720945E+04  0.00000000000E+00 0.  1.
         24    2    1    2    0    0 -0.64120861198E+03  0.21177529412E+04  0.10634157040E+02  0.22141462508E+04  0.79401073254E+02 0.  0.
        254    2    1    2    0    0  0.64120861198E+03 -0.21177529412E+04 -0.76329939318E+03  0.25057327022E+04  0.89445201503E+03 0.  0.
         23    2    4    4    0    0  0.62182485461E+03 -0.21650084259E+04 -0.64022235080E+03  0.23435957478E+04  0.92890993268E+02 0.  0.
         23    2    4    4    0    0  0.19383757371E+02  0.47255484744E+02 -0.12307704238E+03  0.16213695435E+03  0.92366783626E+02 0.  0.
          2    1    3    3  502    0 -0.45440628270E+02  0.11497544700E+03 -0.14555447663E+02  0.12448319230E+03  0.00000000000E+00 0. -1.
         -1    1    3    3    0  502 -0.59576798371E+03  0.20027774942E+04  0.25189604703E+02  0.20896630585E+04  0.00000000000E+00 0.  1.
         11    1    5    5    0    0  0.24094392811E+03 -0.76220583592E+03 -0.26790635782E+03  0.84308097438E+03  0.00000000000E+00 0. -1.
        -11    1    5    5    0    0  0.38088092649E+03 -0.14028025900E+04 -0.37231599297E+03  0.15005147735E+04  0.00000000000E+00 0.  1.
          1    1    6    6  503    0 -0.26674143874E+02  0.20094087521E+02 -0.66962446215E+01  0.34060563658E+02  0.00000000000E+00 0. -1.
         -1    1    6    6    0  503  0.46057901245E+02  0.27161397223E+02 -0.11638079776E+03  0.12807639070E+03  0.00000000000E+00 0.  1.
<mgrwt>
<rscale>  0 0.46594798E+04</rscale>
<asrwt>0</asrwt>
<pdfrwt beam="1">  1        2 0.30517029E+00 0.46594798E+04</pdfrwt>
<pdfrwt beam="2">  1       -1 0.42096494E+00 0.46594798E+04</pdfrwt>
<totfact> 0.29848994E-02</totfact>
</mgrwt>
</event>
<event>
12    6  0.1627636E-007  0.1665460E+04  0.7818608E-02  0.8781313E-01
          2   -1    0    0  501    0  0.00000000000E+00  0.00000000000E+00  0.11876409965E+04  0.11876409965E+04  0.00000000000E+00 0. -1.
         -1   -1    0    0    0  501 -0.00000000000E+00 -0.00000000000E+00 -0.58387965252E+03  0.58387965252E+03  0.00000000000E+00 0.  1.
         24    2    1    2    0    0  0.48118736586E+03  0.25858968329E+03  0.51190927314E+02  0.55412372005E+03  0.77605932182E+02 0.  0.
        254    2    1    2    0    0 -0.48118736586E+03 -0.25858968329E+03  0.55257041662E+03  0.12173969289E+04  0.93718264595E+03 0.  0.
         23    2    4    4    0    0 -0.68884325659E+03 -0.20857796743E+03  0.13302518112E+03  0.73749480418E+03  0.90515671214E+02 0.  0.
         23    2    4    4    0    0  0.20765589073E+03 -0.50011715861E+02  0.41954523550E+03  0.47990212474E+03  0.93089763223E+02 0.  0.
          4    1    3    3  502    0  0.14991682007E+03  0.92787041080E+02  0.51504796573E+02  0.18367697734E+03  0.00000000000E+00 0. -1.
         -3    1    3    3    0  502  0.33127054579E+03  0.16580264221E+03 -0.31386925953E+00  0.37044674271E+03  0.00000000000E+00 0.  1.
         11    1    5    5    0    0 -0.50512045650E+03 -0.12046592855E+03  0.12206928791E+03  0.53344130564E+03  0.00000000000E+00 0.  1.
        -11    1    5    5    0    0 -0.18372280010E+03 -0.88112038884E+02  0.10955893202E+02  0.20405349854E+03  0.00000000000E+00 0. -1.
          2    1    6    6  503    0  0.28322522845E+02 -0.38392157672E+02  0.50763649926E+02  0.69663988005E+02  0.00000000000E+00 0. -1.
         -2    1    6    6    0  503  0.17933336789E+03 -0.11619558189E+02  0.36878158558E+03  0.41023813674E+03  0.00000000000E+00 0.  1.
<mgrwt>
<rscale>  0 0.16654602E+04</rscale>
<asrwt>0</asrwt>
<pdfrwt beam="1">  1        2 0.18271400E+00 0.16654602E+04</pdfrwt>
<pdfrwt beam="2">  1       -1 0.89827639E-01 0.16654602E+04</pdfrwt>
<totfact> 0.25431712E+01</totfact>
</mgrwt>
</event>
<event>
12    6  0.1627636E-007  0.3478639E+04  0.7818608E-02  0.8118871E-01
          2   -1    0    0  501    0  0.00000000000E+00  0.00000000000E+00  0.14901964465E+04  0.14901964465E+04  0.00000000000E+00 0. -1.
         -1   -1    0    0    0  501 -0.00000000000E+00 -0.00000000000E+00 -0.20300890395E+04  0.20300890395E+04  0.00000000000E+00 0.  1.
         24    2    1    2    0    0 -0.36729787829E+03 -0.11574441586E+04  0.83823832159E+03  0.14776599574E+04  0.79061710349E+02 0.  0.
        254    2    1    2    0    0  0.36729787829E+03  0.11574441586E+04 -0.13781309146E+04  0.20426255286E+04  0.89358240837E+03 0.  0.
         23    2    4    4    0    0  0.16019540246E+03  0.86179673225E+03 -0.34831049193E+03  0.94784055389E+03  0.93409539827E+02 0.  0.
         23    2    4    4    0    0  0.20710247583E+03  0.29564742638E+03 -0.10298204227E+04  0.10947849747E+04  0.87893126263E+02 0.  0.
          4    1    3    3  502    0 -0.62289090633E+02 -0.16443973914E+03  0.90707935526E+02  0.19785926359E+03  0.00000000000E+00 0. -1.
         -3    1    3    3    0  502 -0.30500878766E+03 -0.99300441949E+03  0.74753038607E+03  0.12798006938E+04  0.00000000000E+00 0.  1.
         11    1    5    5    0    0  0.49437009254E+02  0.49785577281E+03 -0.17786253628E+03  0.53097972675E+03  0.00000000000E+00 0. -1.
        -11    1    5    5    0    0  0.11075839321E+03  0.36394095943E+03 -0.17044795565E+03  0.41686082714E+03  0.00000000000E+00 0.  1.
          3    1    6    6  503    0  0.12828847130E+03  0.12273244805E+03 -0.41827971309E+03  0.45439971837E+03  0.00000000000E+00 0. -1.
         -3    1    6    6    0  503  0.78814004537E+02  0.17291497834E+03 -0.61154070962E+03  0.64038525637E+03  0.00000000000E+00 0.  1.
<mgrwt>
<rscale>  0 0.34786385E+04</rscale>
<asrwt>0</asrwt>
<pdfrwt beam="1">  1        2 0.22926099E+00 0.34786385E+04</pdfrwt>
<pdfrwt beam="2">  1       -1 0.31232139E+00 0.34786385E+04</pdfrwt>
<totfact> 0.33087456E-01</totfact>
</mgrwt>
</event>
<event>
12    6  0.1627636E-007  0.2892897E+04  0.7818608E-02  0.8274994E-01
         -1   -1    0    0    0  501 -0.00000000000E+00  0.00000000000E+00  0.99080487090E+03  0.99080487090E+03  0.00000000000E+00 0.  1.
          2   -1    0    0  501    0  0.00000000000E+00 -0.00000000000E+00 -0.21116293785E+04  0.21116293785E+04  0.00000000000E+00 0. -1.
         24    2    1    2    0    0 -0.54631292655E+03 -0.10928660416E+02  0.76670562182E+03  0.94513881939E+03  0.82901315108E+02 0.  0.
        254    2    1    2    0    0  0.54631292655E+03  0.10928660416E+02 -0.18875301294E+04  0.21572954300E+04  0.89026756289E+03 0.  0.
         23    2    4    4    0    0  0.18955187450E+03  0.20969617455E+02 -0.17521134346E+04  0.17650948438E+04  0.96377807916E+02 0.  0.
         23    2    4    4    0    0  0.35676105205E+03 -0.10040957039E+02 -0.13541669482E+03  0.39220058623E+03  0.90024160779E+02 0.  0.
          2    1    3    3  502    0 -0.10609196996E+03  0.17644133242E+02  0.19875304846E+03  0.22598583097E+03  0.00000000000E+00 0. -1.
         -1    1    3    3    0  502 -0.44022095660E+03 -0.28572793658E+02  0.56795257336E+03  0.71915298842E+03  0.00000000000E+00 0.  1.
         11    1    5    5    0    0  0.13411365693E+03  0.91480051818E+01 -0.79340926617E+03  0.80471636160E+03  0.00000000000E+00 0. -1.
        -11    1    5    5    0    0  0.55438217573E+02  0.11821612273E+02 -0.95870416844E+03  0.96037848220E+03  0.00000000000E+00 0.  1.
          3    1    6    6  503    0  0.17514716187E+03 -0.29088530700E+02 -0.26327914058E+02  0.17948768757E+03  0.00000000000E+00 0. -1.
         -3    1    6    6    0  503  0.18161389018E+03  0.19047573661E+02 -0.10908878077E+03  0.21271289866E+03  0.00000000000E+00 0.  1.
<mgrwt>
<rscale>  0 0.28928966E+04</rscale>
<asrwt>0</asrwt>
<pdfrwt beam="1">  1        2 0.32486605E+00 0.28928966E+04</pdfrwt>
<pdfrwt beam="2">  1       -1 0.15243152E+00 0.28928966E+04</pdfrwt>
<totfact> 0.18989503E+00</totfact>
</mgrwt>
</event>
<event>
12    6  0.1627636E-007  0.1330434E+04  0.7818608E-02  0.9005773E-01
          2   -1    0    0  501    0  0.00000000000E+00  0.00000000000E+00  0.21877968649E+04  0.21877968649E+04  0.00000000000E+00 0. -1.
         -1   -1    0    0    0  501 -0.00000000000E+00 -0.00000000000E+00 -0.20226446311E+03  0.20226446311E+03  0.00000000000E+00 0.  1.
         24    2    1    2    0    0 -0.10604571157E+03 -0.28205340594E+03  0.20148546944E+03  0.37082472009E+03  0.78196942954E+02 0.  0.
        254    2    1    2    0    0  0.10604571157E+03  0.28205340594E+03  0.17840469324E+04  0.20192366080E+04  0.89648937821E+03 0.  0.
         23    2    4    4    0    0  0.23340908282E+03  0.56073004314E+03  0.10209288795E+04  0.11915674804E+04  0.92947846046E+02 0.  0.
         23    2    4    4    0    0 -0.12736337125E+03 -0.27867663720E+03  0.76311805288E+03  0.82766912758E+03  0.93834565361E+02 0.  0.
          4    1    3    3  502    0  0.77347317749E+01 -0.23475049163E+02  0.35210969091E+02  0.43019952966E+02  0.00000000000E+00 0. -1.
         -3    1    3    3    0  502 -0.11378044334E+03 -0.25857835678E+03  0.16627450035E+03  0.32780476712E+03  0.00000000000E+00 0.  1.
         11    1    5    5    0    0  0.44917781835E+02  0.18132139277E+03  0.25244203471E+03  0.31404145505E+03  0.00000000000E+00 0. -1.
        -11    1    5    5    0    0  0.18849130098E+03  0.37940865037E+03  0.76848684478E+03  0.87752602532E+03  0.00000000000E+00 0.  1.
          1    1    6    6  503    0 -0.45697184442E+01 -0.57585946323E+02  0.75825524181E+02  0.95323311199E+02  0.00000000000E+00 0. -1.
         -1    1    6    6    0  503 -0.12279365281E+03 -0.22109069087E+03  0.68729252870E+03  0.73234581638E+03  0.00000000000E+00 0.  1.
<mgrwt>
<rscale>  0 0.13304339E+04</rscale>
<asrwt>0</asrwt>
<pdfrwt beam="1">  1        2 0.33658412E+00 0.13304339E+04</pdfrwt>
<pdfrwt beam="2">  1       -1 0.31117611E-01 0.13304339E+04</pdfrwt>
<totfact> 0.56019524E+01</totfact>
</mgrwt>
</event>
<event>
12    6  0.1627636E-007  0.2709980E+04  0.7818608E-02  0.8331774E-01
         -1   -1    0    0    0  501 -0.00000000000E+00  0.00000000000E+00  0.36620039653E+03  0.36620039653E+03  0.00000000000E+00 0.  1.
          2   -1    0    0  501    0  0.00000000000E+00 -0.00000000000E+00 -0.50136425708E+04  0.50136425708E+04  0.00000000000E+00 0. -1.
         24    2    1    2    0    0  0.23135731158E+03  0.11575425094E+04 -0.16188361040E+04  0.20050838044E+04  0.79371684209E+02 0.  0.
        254    2    1    2    0    0 -0.23135731158E+03 -0.11575425094E+04 -0.30286060703E+04  0.33747591630E+04  0.90725620003E+03 0.  0.
         23    2    4    4    0    0 -0.36918616350E+02  0.13913017148E+03 -0.38220498766E+03  0.41989490513E+03  0.97523791562E+02 0.  0.
         23    2    4    4    0    0 -0.19443869523E+03 -0.12966726809E+04 -0.26464010826E+04  0.29548642578E+04  0.92831269804E+02 0.  0.
          2    1    3    3  502    0  0.13159242297E+03  0.49021354800E+03 -0.73134818884E+03  0.89022247879E+03  0.00000000000E+00 0. -1.
         -1    1    3    3    0  502  0.99764888606E+02  0.66732896139E+03 -0.88748791517E+03  0.11148613256E+04  0.00000000000E+00 0.  1.
         11    1    5    5    0    0 -0.21524401351E+00 -0.51477439386E+01 -0.10598676059E+03  0.10611191742E+03  0.00000000000E+00 0. -1.
        -11    1    5    5    0    0 -0.36703372336E+02  0.14427791541E+03 -0.27621822707E+03  0.31378298772E+03  0.00000000000E+00 0.  1.
          1    1    6    6  503    0  0.65197482896E+01 -0.57471340092E+02 -0.92543123395E+02  0.10913153411E+03  0.00000000000E+00 0. -1.
         -1    1    6    6    0  503 -0.20095844352E+03 -0.12392013408E+04 -0.25538579592E+04  0.28457327237E+04  0.00000000000E+00 0.  1.
<mgrwt>
<rscale>  0 0.27099800E+04</rscale>
<asrwt>0</asrwt>
<pdfrwt beam="1">  1        2 0.77132962E+00 0.27099800E+04</pdfrwt>
<pdfrwt beam="2">  1       -1 0.56338523E-01 0.27099800E+04</pdfrwt>
<totfact> 0.10532966E-01</totfact>
</mgrwt>
</event>
<event>
12    6  0.1627636E-007  0.2407641E+04  0.7818608E-02  0.8436648E-01
         -1   -1    0    0    0  501 -0.00000000000E+00  0.00000000000E+00  0.16616007003E+04  0.16616007003E+04  0.00000000000E+00 0.  1.
          2   -1    0    0  501    0  0.00000000000E+00 -0.00000000000E+00 -0.87216146383E+03  0.87216146383E+03  0.00000000000E+00 0. -1.
         24    2    1    2    0    0  0.87177337691E+02 -0.10194581848E+04  0.18210241685E+03  0.10423518117E+04  0.80256653092E+02 0.  0.
        254    2    1    2    0    0 -0.87177337691E+02  0.10194581848E+04  0.60733681962E+03  0.14914103525E+04  0.89919516694E+03 0.  0.
         23    2    4    4    0    0  0.13226337245E+03  0.10628187034E+04  0.33192384244E+03  0.11249582926E+04  0.90997400132E+02 0.  0.
         23    2    4    4    0    0 -0.21944071014E+03 -0.43360518659E+02  0.27541297718E+03  0.36645205987E+03  0.91653937938E+02 0.  0.
          2    1    3    3  502    0  0.66205311418E+01 -0.31562179348E+03  0.24780516592E+02  0.31666231534E+03  0.00000000000E+00 0. -1.
         -1    1    3    3    0  502  0.80556806549E+02 -0.70383639129E+03  0.15732190025E+03  0.72568949633E+03  0.00000000000E+00 0.  1.
         11    1    5    5    0    0  0.55166626599E+02  0.21860536479E+03  0.44322059012E+02  0.22977403491E+03  0.00000000000E+00 0.  1.
        -11    1    5    5    0    0  0.77096745850E+02  0.84421333864E+03  0.28760178342E+03  0.89518425767E+03  0.00000000000E+00 0. -1.
          1    1    6    6  503    0 -0.19483133226E+03 -0.64677888114E+02  0.25741871962E+03  0.32925199233E+03  0.00000000000E+00 0. -1.
         -1    1    6    6    0  503 -0.24609377877E+02  0.21317369454E+02  0.17994257560E+02  0.37200067541E+02  0.00000000000E+00 0.  1.
<mgrwt>
<rscale>  0 0.24076413E+04</rscale>
<asrwt>0</asrwt>
<pdfrwt beam="1">  1        2 0.13417869E+00 0.24076413E+04</pdfrwt>
<pdfrwt beam="2">  1       -1 0.25563088E+00 0.24076413E+04</pdfrwt>
<totfact> 0.20113753E+00</totfact>
</mgrwt>
</event>
<event>
12    6  0.1627636E-007  0.1336532E+04  0.7818608E-02  0.9001086E-01
         -1   -1    0    0    0  501 -0.00000000000E+00  0.00000000000E+00  0.99004795764E+03  0.99004795764E+03  0.00000000000E+00 0.  1.
          2   -1    0    0  501    0  0.00000000000E+00 -0.00000000000E+00 -0.45106831265E+03  0.45106831265E+03  0.00000000000E+00 0. -1.
         24    2    1    2    0    0 -0.40114350373E+02  0.31163467030E+03 -0.34300860265E+02  0.32625416067E+03  0.80869645137E+02 0.  0.
        254    2    1    2    0    0  0.40114350373E+02 -0.31163467030E+03  0.57328050525E+03  0.11148621096E+04  0.90307345045E+03 0.  0.
         23    2    4    4    0    0 -0.42068494585E+03 -0.17498449234E+03  0.25080970014E+03  0.52881488319E+03  0.95625722375E+02 0.  0.
         23    2    4    4    0    0  0.46079929622E+03 -0.13665017796E+03  0.32247080511E+03  0.58604722642E+03  0.91949273593E+02 0.  0.
          4    1    3    3  502    0 -0.44610420963E+02  0.12757256341E+03  0.14101509522E+02  0.13588120239E+03  0.00000000000E+00 0. -1.
         -3    1    3    3    0  502  0.44960705908E+01  0.18406210689E+03 -0.48402369787E+02  0.19037295828E+03  0.00000000000E+00 0.  1.
         11    1    5    5    0    0 -0.21622916982E+03 -0.42632765640E+02  0.14110258119E+03  0.26169169839E+03  0.00000000000E+00 0.  1.
        -11    1    5    5    0    0 -0.20445577602E+03 -0.13235172670E+03  0.10970711895E+03  0.26712318480E+03  0.00000000000E+00 0. -1.
          1    1    6    6  503    0  0.28534163280E+03 -0.37443108806E+02  0.18991292888E+03  0.34480248602E+03  0.00000000000E+00 0. -1.
         -1    1    6    6    0  503  0.17545766342E+03 -0.99207069155E+02  0.13255787623E+03  0.24124474040E+03  0.00000000000E+00 0.  1.
<mgrwt>
<rscale>  0 0.13365317E+04</rscale>
<asrwt>0</asrwt>
<pdfrwt beam="1">  1        2 0.69395125E-01 0.13365317E+04</pdfrwt>
<pdfrwt beam="2">  1       -1 0.15231507E+00 0.13365317E+04</pdfrwt>
<totfact> 0.25965630E+01</totfact>
</mgrwt>
</event>
<event>
12    6  0.1627636E-007  0.1377392E+04  0.7818608E-02  0.8970348E-01
         -1   -1    0    0    0  501 -0.00000000000E+00  0.00000000000E+00  0.12843882282E+03  0.12843882282E+03  0.00000000000E+00 0.  1.
          2   -1    0    0  501    0  0.00000000000E+00 -0.00000000000E+00 -0.36928250849E+04  0.36928250849E+04  0.00000000000E+00 0. -1.
         24    2    1    2    0    0 -0.79488685898E+02 -0.26199476069E+03 -0.25823401831E+03  0.38455483270E+03  0.78980411025E+02 0.  0.
        254    2    1    2    0    0  0.79488685898E+02  0.26199476069E+03 -0.33061522438E+04  0.34367090750E+04  0.89742236520E+03 0.  0.
         23    2    4    4    0    0  0.28892881664E+03  0.44314672673E+03 -0.12585719476E+04  0.13684199212E+04  0.93331938699E+02 0.  0.
         23    2    4    4    0    0 -0.20944013074E+03 -0.18115196604E+03 -0.20475802961E+04  0.20682891538E+04  0.92486494610E+02 0.  0.
          4    1    3    3  502    0 -0.50015343196E+02 -0.92607377742E+02 -0.14308017407E+03  0.17762206276E+03  0.00000000000E+00 0. -1.
         -3    1    3    3    0  502 -0.29473342703E+02 -0.16938738295E+03 -0.11515384424E+03  0.20693276994E+03  0.00000000000E+00 0.  1.
         11    1    5    5    0    0  0.37427509299E+02  0.18729789750E+02 -0.13429215772E+03  0.14066274240E+03  0.00000000000E+00 0. -1.
        -11    1    5    5    0    0  0.25150130734E+03  0.42441693698E+03 -0.11242797899E+04  0.12277571788E+04  0.00000000000E+00 0.  1.
          1    1    6    6  503    0 -0.28933225571E+02  0.58033632380E+01 -0.13902057028E+03  0.14211801268E+03  0.00000000000E+00 0. -1.
         -1    1    6    6    0  503 -0.18050690517E+03 -0.18695532928E+03 -0.19085597258E+04  0.19261711412E+04  0.00000000000E+00 0.  1.
<mgrwt>
<rscale>  0 0.13773919E+04</rscale>
<asrwt>0</asrwt>
<pdfrwt beam="1">  1        2 0.56812685E+00 0.13773919E+04</pdfrwt>
<pdfrwt beam="2">  1       -1 0.19759822E-01 0.13773919E+04</pdfrwt>
<totfact> 0.13997090E+01</totfact>
</mgrwt>
</event>
<event>
12    6  0.1627636E-007  0.2423979E+04  0.7818608E-02  0.8430580E-01
         -1   -1    0    0    0  501 -0.00000000000E+00  0.00000000000E+00  0.70515707808E+03  0.70515707808E+03  0.00000000000E+00 0.  1.
          2   -1    0    0  501    0  0.00000000000E+00 -0.00000000000E+00 -0.20831081263E+04  0.20831081263E+04  0.00000000000E+00 0. -1.
         24    2    1    2    0    0  0.61528933421E+03 -0.39975243826E+03 -0.14469262513E+04  0.16243048452E+04  0.79922941853E+02 0.  0.
        254    2    1    2    0    0 -0.61528933421E+03  0.39975243826E+03  0.68975203088E+02  0.11639603592E+04  0.90092350534E+03 0.  0.
         23    2    4    4    0    0  0.21468460255E+03  0.19032830512E+03 -0.44990840232E+01  0.29983276466E+03  0.86977598872E+02 0.  0.
         23    2    4    4    0    0 -0.82997393676E+03  0.20942413314E+03  0.73474287111E+02  0.86412759455E+03  0.92751418085E+02 0.  0.
          4    1    3    3  502    0  0.47549680144E+03 -0.26743697672E+03 -0.10784763752E+04  0.12086070646E+04  0.00000000000E+00 0. -1.
         -3    1    3    3    0  502  0.13979253276E+03 -0.13231546154E+03 -0.36844987609E+03  0.41569778057E+03  0.00000000000E+00 0.  1.
         11    1    5    5    0    0  0.13622825117E+03  0.11672803628E+03  0.39352468074E+02  0.18366324514E+03  0.00000000000E+00 0. -1.
        -11    1    5    5    0    0  0.78456351375E+02  0.73600268842E+02 -0.43851552097E+02  0.11616951952E+03  0.00000000000E+00 0.  1.
          4    1    6    6  503    0 -0.80806819960E+03  0.18667210670E+03  0.68773088829E+02  0.83219614778E+03  0.00000000000E+00 0. -1.
         -4    1    6    6    0  503 -0.21905737151E+02  0.22752026445E+02  0.47011982817E+01  0.31931446769E+02  0.00000000000E+00 0.  1.
<mgrwt>
<rscale>  0 0.24239789E+04</rscale>
<asrwt>0</asrwt>
<pdfrwt beam="1">  1        2 0.32047817E+00 0.24239789E+04</pdfrwt>
<pdfrwt beam="2">  1       -1 0.10848570E+00 0.24239789E+04</pdfrwt>
<totfact> 0.48353111E+00</totfact>
</mgrwt>
</event>
<event>
12    6  0.1627636E-007  0.1316447E+04  0.7818608E-02  0.9016623E-01
         -1   -1    0    0    0  501 -0.00000000000E+00  0.00000000000E+00  0.58277580165E+03  0.58277580165E+03  0.00000000000E+00 0.  1.
          2   -1    0    0  501    0  0.00000000000E+00 -0.00000000000E+00 -0.74343891909E+03  0.74343891909E+03  0.00000000000E+00 0. -1.
         24    2    1    2    0    0  0.24863336272E+02 -0.44769645176E+02 -0.36750318625E+03  0.37976090485E+03  0.80853239435E+02 0.  0.
        254    2    1    2    0    0 -0.24863336272E+02  0.44769645176E+02  0.20684006882E+03  0.94645381589E+03  0.92215481614E+03 0.  0.
         23    2    4    4    0    0  0.34589840289E+03 -0.25326831453E+03  0.82357687247E+02  0.44574541504E+03  0.90086858727E+02 0.  0.
         23    2    4    4    0    0 -0.37076173916E+03  0.29803795970E+03  0.12448238157E+03  0.50070840085E+03  0.94457115733E+02 0.  0.
          4    1    3    3  502    0  0.14754082719E+02 -0.55720353400E+02 -0.35676614785E+03  0.36139248054E+03  0.00000000000E+00 0. -1.
         -3    1    3    3    0  502  0.10109253553E+02  0.10950708224E+02 -0.10737038408E+02  0.18368424314E+02  0.00000000000E+00 0.  1.
         11    1    5    5    0    0  0.29317307924E+03 -0.21213050199E+03  0.34501185423E+02  0.36351084724E+03  0.00000000000E+00 0. -1.
        -11    1    5    5    0    0  0.52725323645E+02 -0.41137812543E+02  0.47856501824E+02  0.82234567799E+02  0.00000000000E+00 0.  1.
          4    1    6    6  503    0 -0.32833896496E+03  0.24045480111E+03  0.13420524391E+03  0.42852775264E+03  0.00000000000E+00 0. -1.
         -4    1    6    6    0  503 -0.42422774200E+02  0.57583158594E+02 -0.97228623397E+01  0.72180648214E+02  0.00000000000E+00 0.  1.
<mgrwt>
<rscale>  0 0.13164471E+04</rscale>
<asrwt>0</asrwt>
<pdfrwt beam="1">  1        2 0.11437522E+00 0.13164471E+04</pdfrwt>
<pdfrwt beam="2">  1       -1 0.89657816E-01 0.13164471E+04</pdfrwt>
<totfact> 0.51684808E+01</totfact>
</mgrwt>
</event>
<event>
12    6  0.1627636E-007  0.2413991E+04  0.7818608E-02  0.8434284E-01
         -1   -1    0    0    0  501 -0.00000000000E+00  0.00000000000E+00  0.62632843092E+03  0.62632843092E+03  0.00000000000E+00 0.  1.
          2   -1    0    0  501    0  0.00000000000E+00 -0.00000000000E+00 -0.23259967293E+04  0.23259967293E+04  0.00000000000E+00 0. -1.
         24    2    1    2    0    0 -0.40400933022E+03  0.59981068474E+03 -0.16438337162E+04  0.17976954325E+04  0.80766237646E+02 0.  0.
        254    2    1    2    0    0  0.40400933022E+03 -0.59981068474E+03 -0.55834582199E+02  0.11546297277E+04  0.89836290613E+03 0.  0.
         23    2    4    4    0    0  0.29236051540E+03 -0.38768259214E+03  0.39668855716E+03  0.63440971132E+03  0.96650955583E+02 0.  0.
         23    2    4    4    0    0  0.11164881482E+03 -0.21212809259E+03 -0.45252313936E+03  0.52022001639E+03  0.91585415204E+02 0.  0.
          2    1    3    3  502    0 -0.21301998069E+03  0.38111709392E+03 -0.10261218758E+04  0.11151474591E+04  0.00000000000E+00 0. -1.
         -1    1    3    3    0  502 -0.19098934954E+03  0.21869359082E+03 -0.61771184037E+03  0.68254797343E+03  0.00000000000E+00 0.  1.
         11    1    5    5    0    0  0.10800880516E+03 -0.12169487167E+03  0.78871673511E+02  0.18082113998E+03  0.00000000000E+00 0. -1.
        -11    1    5    5    0    0  0.18435171025E+03 -0.26598772047E+03  0.31781688365E+03  0.45358857134E+03  0.00000000000E+00 0.  1.
          4    1    6    6  503    0  0.19658393887E+02  0.23038708530E+01 -0.16828053455E+02  0.25979677715E+02  0.00000000000E+00 0. -1.
         -4    1    6    6    0  503  0.91990420936E+02 -0.21443196345E+03 -0.43569508591E+03  0.49424033868E+03  0.00000000000E+00 0.  1.
<mgrwt>
<rscale>  0 0.24139908E+04</rscale>
<asrwt>0</asrwt>
<pdfrwt beam="1">  1        2 0.35784564E+00 0.24139908E+04</pdfrwt>
<pdfrwt beam="2">  1       -1 0.96358222E-01 0.24139908E+04</pdfrwt>
<totfact> 0.46426780E+00</totfact>
</mgrwt>
</event>
<event>
12    6  0.1627636E-007  0.1143475E+04  0.7818608E-02  0.9163824E-01
         -1   -1    0    0    0  501 -0.00000000000E+00  0.00000000000E+00  0.30000862669E+03  0.30000862669E+03  0.00000000000E+00 0.  1.
          2   -1    0    0  501    0  0.00000000000E+00 -0.00000000000E+00 -0.10895811611E+04  0.10895811611E+04  0.00000000000E+00 0. -1.
         24    2    1    2    0    0  0.13361146845E+03  0.14921132616E+03 -0.21287592430E+03  0.30853349354E+03  0.98796321445E+02 0.  0.
        254    2    1    2    0    0 -0.13361146845E+03 -0.14921132616E+03 -0.57669661007E+03  0.10810562942E+04  0.89218142036E+03 0.  0.
         23    2    4    4    0    0 -0.33361366869E+03  0.12533689542E+03 -0.62679697290E+03  0.72576817720E+03  0.82810533867E+02 0.  0.
         23    2    4    4    0    0  0.20000220024E+03 -0.27454822158E+03  0.50100362828E+02  0.35528811701E+03  0.91334515167E+02 0.  0.
          2    1    3    3  502    0  0.99183187138E+02  0.87758271548E+02 -0.19524172086E+03  0.23591979231E+03  0.00000000000E+00 0. -1.
         -1    1    3    3    0  502  0.34428281315E+02  0.61453054611E+02 -0.17634203433E+02  0.72613701229E+02  0.00000000000E+00 0.  1.
         11    1    5    5    0    0 -0.32224913592E+03  0.12667720878E+03 -0.62454339820E+03  0.71410508825E+03  0.00000000000E+00 0.  1.
        -11    1    5    5    0    0 -0.11364532773E+02 -0.13403133605E+01 -0.22535746917E+01  0.11663088954E+02  0.00000000000E+00 0. -1.
          1    1    6    6  503    0  0.13490464572E+03 -0.21105374167E+03 -0.19834062588E+01  0.25049327178E+03  0.00000000000E+00 0. -1.
         -1    1    6    6    0  503  0.65097554521E+02 -0.63494479908E+02  0.52083769087E+02  0.10479484522E+03  0.00000000000E+00 0.  1.
<mgrwt>
<rscale>  0 0.11434750E+04</rscale>
<asrwt>0</asrwt>
<pdfrwt beam="1">  1        2 0.16762787E+00 0.11434750E+04</pdfrwt>
<pdfrwt beam="2">  1       -1 0.46155173E-01 0.11434750E+04</pdfrwt>
<totfact> 0.11654886E+02</totfact>
</mgrwt>
</event>
<event>
12    6  0.1627636E-007  0.1954038E+04  0.7818608E-02  0.8628416E-01
         -1   -1    0    0    0  501 -0.00000000000E+00  0.00000000000E+00  0.30473744368E+03  0.30473744368E+03  0.00000000000E+00 0.  1.
          2   -1    0    0  501    0  0.00000000000E+00 -0.00000000000E+00 -0.31324202480E+04  0.31324202480E+04  0.00000000000E+00 0. -1.
         24    2    1    2    0    0 -0.74811833150E+03  0.55954226987E+02 -0.13975089667E+04  0.15882257748E+04  0.81350390938E+02 0.  0.
        254    2    1    2    0    0  0.74811833150E+03 -0.55954226987E+02 -0.14301738376E+04  0.18489319170E+04  0.90018893251E+03 0.  0.
         23    2    4    4    0    0  0.85951521921E+03 -0.30289212093E+01 -0.72828446674E+03  0.11302628154E+04  0.91215026323E+02 0.  0.
         23    2    4    4    0    0 -0.11139688771E+03 -0.52925305778E+02 -0.70188937091E+03  0.71866910153E+03  0.92877521059E+02 0.  0.
          2    1    3    3  502    0 -0.68420243882E+03  0.65707509716E+02 -0.13105756386E+04  0.14798847788E+04  0.00000000000E+00 0. -1.
         -1    1    3    3    0  502 -0.63915892682E+02 -0.97532827288E+01 -0.86933328118E+02  0.10834099593E+03  0.00000000000E+00 0.  1.
         11    1    5    5    0    0  0.68060384052E+03  0.31967871188E+02 -0.55577774375E+03  0.87927949651E+03  0.00000000000E+00 0.  1.
        -11    1    5    5    0    0  0.17891137869E+03 -0.34996792398E+02 -0.17250672299E+03  0.25098331893E+03  0.00000000000E+00 0. -1.
          1    1    6    6  503    0 -0.57426506072E+02  0.19686174945E+02 -0.21314897713E+03  0.22162543973E+03  0.00000000000E+00 0. -1.
         -1    1    6    6    0  503 -0.53970381643E+02 -0.72611480722E+02 -0.48874039378E+03  0.49704366180E+03  0.00000000000E+00 0.  1.
<mgrwt>
<rscale>  0 0.19540376E+04</rscale>
<asrwt>0</asrwt>
<pdfrwt beam="1">  1        2 0.48191081E+00 0.19540376E+04</pdfrwt>
<pdfrwt beam="2">  1       -1 0.46882684E-01 0.19540376E+04</pdfrwt>
<totfact> 0.69286124E+00</totfact>
</mgrwt>
</event>
<event>
12    6  0.1627636E-007  0.1011240E+04  0.7818608E-02  0.9296302E-01
          2   -1    0    0  501    0  0.00000000000E+00  0.00000000000E+00  0.20331166183E+04  0.20331166183E+04  0.00000000000E+00 0. -1.
         -1   -1    0    0    0  501 -0.00000000000E+00 -0.00000000000E+00 -0.12574367356E+03  0.12574367356E+03  0.00000000000E+00 0.  1.
         24    2    1    2    0    0 -0.41098631925E+02 -0.50114768191E+02  0.15205916999E+03  0.18366743692E+03  0.80069648881E+02 0.  0.
        254    2    1    2    0    0  0.41098631925E+02  0.50114768191E+02  0.17553137748E+04  0.19751928549E+04  0.90336027078E+03 0.  0.
         23    2    4    4    0    0 -0.34420041220E+03  0.24728677906E+03  0.11190873331E+04  0.12001112385E+04  0.91026648705E+02 0.  0.
         23    2    4    4    0    0  0.38529904413E+03 -0.19717201087E+03  0.63622644167E+03  0.77508161647E+03  0.92926163374E+02 0.  0.
          2    1    3    3  502    0 -0.41419978098E+02 -0.50191889929E+02  0.16155334294E+03  0.17416751423E+03  0.00000000000E+00 0. -1.
         -3    1    3    3    0  502  0.32134617337E+00  0.77121738244E-01 -0.94941729492E+01  0.94999226900E+01  0.00000000000E+00 0.  1.
         11    1    5    5    0    0 -0.32898249443E+03  0.24008815506E+03  0.11065520339E+04  0.11791222191E+04  0.00000000000E+00 0. -1.
        -11    1    5    5    0    0 -0.15217917770E+02  0.71986239947E+01  0.12535299196E+02  0.20989019382E+02  0.00000000000E+00 0.  1.
          1    1    6    6  503    0  0.34821044177E+03 -0.16953934379E+03  0.60807702825E+03  0.72093812018E+03  0.00000000000E+00 0. -1.
         -1    1    6    6    0  503  0.37088602360E+02 -0.27632667073E+02  0.28149413424E+02  0.54143496292E+02  0.00000000000E+00 0.  1.
<mgrwt>
<rscale>  0 0.10112399E+04</rscale>
<asrwt>0</asrwt>
<pdfrwt beam="1">  1        2 0.31278715E+00 0.10112399E+04</pdfrwt>
<pdfrwt beam="2">  1       -1 0.19345182E-01 0.10112399E+04</pdfrwt>
<totfact> 0.15802886E+02</totfact>
</mgrwt>
</event>
<event>
12    6  0.1627636E-007  0.1521950E+04  0.7818608E-02  0.8869986E-01
          2   -1    0    0  501    0  0.00000000000E+00  0.00000000000E+00  0.18837767654E+04  0.18837767654E+04  0.00000000000E+00 0. -1.
         -1   -1    0    0    0  501 -0.00000000000E+00 -0.00000000000E+00 -0.30740524012E+03  0.30740524012E+03  0.00000000000E+00 0.  1.
         24    2    1    2    0    0  0.82734072556E+02 -0.26685754509E+03 -0.66129210331E+02  0.29853754269E+03  0.81815131887E+02 0.  0.
        254    2    1    2    0    0 -0.82734072556E+02  0.26685754509E+03  0.16425007356E+04  0.18926444628E+04  0.89790674352E+03 0.  0.
         23    2    4    4    0    0 -0.21578063186E+03 -0.80227255911E+02  0.47928065152E+02  0.25275523186E+03  0.92684486988E+02 0.  0.
         23    2    4    4    0    0  0.13304655930E+03  0.34708480100E+03  0.15945726704E+04  0.16398892309E+04  0.91681200111E+02 0.  0.
          2    1    3    3  502    0  0.30519658088E+02 -0.55634435422E+02  0.16875353617E+02  0.65661385108E+02  0.00000000000E+00 0. -1.
         -1    1    3    3    0  502  0.52214414468E+02 -0.21122310967E+03 -0.83004563949E+02  0.23287615758E+03  0.00000000000E+00 0.  1.
         11    1    5    5    0    0 -0.17591922574E+03 -0.46363318730E+02  0.71387674890E+02  0.19543114244E+03  0.00000000000E+00 0. -1.
        -11    1    5    5    0    0 -0.39861406116E+02 -0.33863937182E+02 -0.23459609738E+02  0.57324089422E+02  0.00000000000E+00 0.  1.
          4    1    6    6  503    0  0.88575660186E+02  0.10831394508E+03  0.59617522750E+03  0.61237444441E+03  0.00000000000E+00 0. -1.
         -4    1    6    6    0  503  0.44470899116E+02  0.23877085591E+03  0.99839744291E+03  0.10275147865E+04  0.00000000000E+00 0.  1.
<mgrwt>
<rscale>  0 0.15219499E+04</rscale>
<asrwt>0</asrwt>
<pdfrwt beam="1">  1        2 0.28981180E+00 0.15219499E+04</pdfrwt>
<pdfrwt beam="2">  1       -1 0.47293115E-01 0.15219499E+04</pdfrwt>
<totfact> 0.38004254E+01</totfact>
</mgrwt>
</event>
<event>
12    6  0.1627636E-007  0.1998573E+04  0.7818608E-02  0.8607288E-01
         -1   -1    0    0    0  501 -0.00000000000E+00  0.00000000000E+00  0.52338111674E+03  0.52338111674E+03  0.00000000000E+00 0.  1.
          2   -1    0    0  501    0  0.00000000000E+00 -0.00000000000E+00 -0.19079276721E+04  0.19079276721E+04  0.00000000000E+00 0. -1.
         24    2    1    2    0    0 -0.36643104861E+02  0.57152048275E+03 -0.12392272937E+04  0.13674765406E+04  0.79557679398E+02 0.  0.
        254    2    1    2    0    0  0.36643104861E+02 -0.57152048275E+03 -0.14531926168E+03  0.10638322482E+04  0.88467111698E+03 0.  0.
         23    2    4    4    0    0 -0.28725901271E+03 -0.64185000101E+03 -0.97078602656E+02  0.71612620656E+03  0.94463349705E+02 0.  0.
         23    2    4    4    0    0  0.32390211758E+03  0.70329518257E+02 -0.48240659023E+02  0.34770604168E+03  0.93346169328E+02 0.  0.
          2    1    3    3  502    0 -0.57295889357E+02  0.49080589590E+03 -0.10349752481E+04  0.11468857880E+04  0.00000000000E+00 0. -1.
         -1    1    3    3    0  502  0.20652784495E+02  0.80714586851E+02 -0.20425204555E+03  0.22059075264E+03  0.00000000000E+00 0.  1.
         11    1    5    5    0    0 -0.10823618582E+03 -0.14196312599E+03 -0.26839367692E+02  0.18052410565E+03  0.00000000000E+00 0. -1.
        -11    1    5    5    0    0 -0.17902282689E+03 -0.49988687502E+03 -0.70239234963E+02  0.53560210090E+03  0.00000000000E+00 0.  1.
          4    1    6    6  503    0  0.55803500455E+02 -0.20983580827E+02 -0.20863515785E+02  0.63163499098E+02  0.00000000000E+00 0. -1.
         -4    1    6    6    0  503  0.26809861712E+03  0.91313099084E+02 -0.27377143238E+02  0.28454254258E+03  0.00000000000E+00 0.  1.
<mgrwt>
<rscale>  0 0.19985728E+04</rscale>
<asrwt>0</asrwt>
<pdfrwt beam="1">  1        2 0.29352734E+00 0.19985728E+04</pdfrwt>
<pdfrwt beam="2">  1       -1 0.80520171E-01 0.19985728E+04</pdfrwt>
<totfact> 0.12234429E+01</totfact>
</mgrwt>
</event>
<event>
12    6  0.1627636E-007  0.1712029E+04  0.7818608E-02  0.8754533E-01
          2   -1    0    0  501    0  0.00000000000E+00  0.00000000000E+00  0.18788818004E+04  0.18788818004E+04  0.00000000000E+00 0. -1.
         -1   -1    0    0    0  501 -0.00000000000E+00 -0.00000000000E+00 -0.38999838348E+03  0.38999838348E+03  0.00000000000E+00 0.  1.
         24    2    1    2    0    0 -0.10119157462E+03  0.41666941899E+03  0.11214250632E+04  0.12032323301E+04  0.79503009631E+02 0.  0.
        254    2    1    2    0    0  0.10119157462E+03 -0.41666941899E+03  0.36745835375E+03  0.10656478537E+04  0.90372925530E+03 0.  0.
         23    2    4    4    0    0 -0.40525319768E+02 -0.67273748352E+03  0.17358141712E+03  0.70179636078E+03  0.90385841615E+02 0.  0.
         23    2    4    4    0    0  0.14171689439E+03  0.25606806453E+03  0.19387693663E+03  0.36385149293E+03  0.95630071222E+02 0.  0.
          2    1    3    3  502    0 -0.11251223165E+03  0.40262591709E+03  0.10751857414E+04  0.11535991548E+04  0.00000000000E+00 0. -1.
         -1    1    3    3    0  502  0.11320657030E+02  0.14043501898E+02  0.46239321737E+02  0.49633175356E+02  0.00000000000E+00 0.  1.
         11    1    5    5    0    0  0.11592748920E+02 -0.27244824673E+03  0.34640667904E+02  0.27488618526E+03  0.00000000000E+00 0. -1.
        -11    1    5    5    0    0 -0.52118068688E+02 -0.40028923679E+03  0.13894074921E+03  0.42691017553E+03  0.00000000000E+00 0.  1.
          3    1    6    6  503    0  0.38034485617E+02  0.94398757107E+02  0.17847055023E+02  0.10332601227E+03  0.00000000000E+00 0. -1.
         -3    1    6    6    0  503  0.10368240877E+03  0.16166930743E+03  0.17602988161E+03  0.26052548066E+03  0.00000000000E+00 0.  1.
<mgrwt>
<rscale>  0 0.17120290E+04</rscale>
<asrwt>0</asrwt>
<pdfrwt beam="1">  1        2 0.28905873E+00 0.17120290E+04</pdfrwt>
<pdfrwt beam="2">  1       -1 0.59999752E-01 0.17120290E+04</pdfrwt>
<totfact> 0.23791805E+01</totfact>
</mgrwt>
</event>
<event>
12    6  0.1627636E-007  0.1625255E+04  0.7818608E-02  0.8805181E-01
         -1   -1    0    0    0  501 -0.00000000000E+00  0.00000000000E+00  0.57842829817E+03  0.57842829817E+03  0.00000000000E+00 0.  1.
          2   -1    0    0  501    0  0.00000000000E+00 -0.00000000000E+00 -0.11416515452E+04  0.11416515452E+04  0.00000000000E+00 0. -1.
         24    2    1    2    0    0  0.15160457644E+03  0.71102781931E+02  0.37027305275E+03  0.41403959779E+03  0.79291246312E+02 0.  0.
        254    2    1    2    0    0 -0.15160457644E+03 -0.71102781931E+02 -0.93349629982E+03  0.13060402456E+04  0.89793442310E+03 0.  0.
         23    2    4    4    0    0 -0.34851116042E+03  0.25269164700E+03 -0.22037661593E+03  0.49332952766E+03  0.97442663213E+02 0.  0.
         23    2    4    4    0    0  0.19690658398E+03 -0.32379442893E+03 -0.71311968389E+03  0.81271071795E+03  0.91345456900E+02 0.  0.
          2    1    3    3  502    0  0.68956376755E+02  0.17334067907E+02  0.77810384961E+02  0.10540354744E+03  0.00000000000E+00 0. -1.
         -1    1    3    3    0  502  0.82648199687E+02  0.53768714023E+02  0.29246266779E+03  0.30863605034E+03  0.00000000000E+00 0.  1.
         11    1    5    5    0    0 -0.35312288891E+03  0.24010815962E+03 -0.20759117708E+03  0.47480711851E+03  0.00000000000E+00 0. -1.
        -11    1    5    5    0    0  0.46117284865E+01  0.12583487382E+02 -0.12785438845E+02  0.18522409152E+02  0.00000000000E+00 0.  1.
          2    1    6    6  503    0  0.19910295334E+03 -0.29130541468E+03 -0.68094426076E+03  0.76693279817E+03  0.00000000000E+00 0. -1.
         -2    1    6    6    0  503 -0.21963693606E+01 -0.32489014255E+02 -0.32175423132E+02  0.45777919780E+02  0.00000000000E+00 0.  1.
<mgrwt>
<rscale>  0 0.16252551E+04</rscale>
<asrwt>0</asrwt>
<pdfrwt beam="1">  1        2 0.17563870E+00 0.16252551E+04</pdfrwt>
<pdfrwt beam="2">  1       -1 0.88988970E-01 0.16252551E+04</pdfrwt>
<totfact> 0.27770965E+01</totfact>
</mgrwt>
</event>
<event>
12    6  0.1627636E-007  0.1439164E+04  0.7818608E-02  0.8925948E-01
         -1   -1    0    0    0  501 -0.00000000000E+00  0.00000000000E+00  0.32006948701E+03  0.32006948701E+03  0.00000000000E+00 0.  1.
          2   -1    0    0  501    0  0.00000000000E+00 -0.00000000000E+00 -0.16177672241E+04  0.16177672241E+04  0.00000000000E+00 0. -1.
         24    2    1    2    0    0 -0.37453652406E+03  0.34301184688E+02 -0.10650797354E+03  0.39890477898E+03  0.79541782336E+02 0.  0.
        254    2    1    2    0    0  0.37453652406E+03 -0.34301184688E+02 -0.11911897635E+04  0.15389319321E+04  0.89884607124E+03 0.  0.
         23    2    4    4    0    0  0.96444774806E+02  0.14122169935E+02  0.12859769246E+03  0.18604890606E+03  0.92605608203E+02 0.  0.
         23    2    4    4    0    0  0.27809174926E+03 -0.48423354623E+02 -0.13197874560E+04  0.13528830260E+04  0.93668089022E+02 0.  0.
          2    1    3    3  502    0 -0.20098348245E+03 -0.72744093764E-02 -0.93060553098E+02  0.22148279124E+03  0.00000000000E+00 0. -1.
         -1    1    3    3    0  502 -0.17355304161E+03  0.34308459098E+02 -0.13447420444E+02  0.17742198774E+03  0.00000000000E+00 0.  1.
         11    1    5    5    0    0  0.50398924431E+02  0.21066155600E+02  0.60577809006E+01  0.54959359576E+02  0.00000000000E+00 0. -1.
        -11    1    5    5    0    0  0.46045850375E+02 -0.69439856652E+01  0.12253991156E+03  0.13108954648E+03  0.00000000000E+00 0.  1.
          3    1    6    6  503    0  0.16578211360E+03 -0.51601598885E+02 -0.60888072864E+03  0.63315256922E+03  0.00000000000E+00 0. -1.
         -3    1    6    6    0  503  0.11230963566E+03  0.31782442620E+01 -0.71090672733E+03  0.71973045682E+03  0.00000000000E+00 0.  1.
<mgrwt>
<rscale>  0 0.14391635E+04</rscale>
<asrwt>0</asrwt>
<pdfrwt beam="1">  1        2 0.24888727E+00 0.14391635E+04</pdfrwt>
<pdfrwt beam="2">  1       -1 0.49241459E-01 0.14391635E+04</pdfrwt>
<totfact> 0.49801742E+01</totfact>
</mgrwt>
</event>
<event>
12    6  0.1627636E-007  0.1515589E+04  0.7818608E-02  0.8874152E-01
         -1   -1    0    0    0  501 -0.00000000000E+00  0.00000000000E+00  0.71882389411E+03  0.71882389411E+03  0.00000000000E+00 0.  1.
          2   -1    0    0  501    0  0.00000000000E+00 -0.00000000000E+00 -0.79887783154E+03  0.79887783154E+03  0.00000000000E+00 0. -1.
         24    2    1    2    0    0  0.28241048218E+03  0.16461682150E+03 -0.26524909962E+03  0.42891703841E+03  0.82209261157E+02 0.  0.
        254    2    1    2    0    0 -0.28241048218E+03 -0.16461682150E+03  0.18519516218E+03  0.10887846872E+04  0.10219102058E+04 0.  0.
         23    2    4    4    0    0  0.36409016009E+03 -0.16453450665E+03  0.14489561237E+03  0.43452510699E+03  0.90465913852E+02 0.  0.
         23    2    4    4    0    0 -0.64650064228E+03 -0.82314845932E-01  0.40299549815E+02  0.65425958025E+03  0.92024221769E+02 0.  0.
          4    1    3    3  502    0  0.28028315233E+03  0.15343748161E+03 -0.23513455173E+03  0.39672403968E+03  0.00000000000E+00 0. -1.
         -3    1    3    3    0  502  0.21273298563E+01  0.11179339886E+02 -0.30114547887E+02  0.32192998727E+02  0.00000000000E+00 0.  1.
         11    1    5    5    0    0  0.34026075947E+02  0.96401074698E+01  0.39073337449E+01  0.35580511146E+02  0.00000000000E+00 0.  1.
        -11    1    5    5    0    0  0.33006408414E+03 -0.17417461412E+03  0.14098827862E+03  0.39894459585E+03  0.00000000000E+00 0. -1.
          1    1    6    6  503    0 -0.37302229173E+03  0.36931567452E+02 -0.33264760361E+01  0.37486082250E+03  0.00000000000E+00 0. -1.
         -1    1    6    6    0  503 -0.27347835055E+03 -0.37013882298E+02  0.43626025851E+02  0.27939875775E+03  0.00000000000E+00 0.  1.
<mgrwt>
<rscale>  0 0.15155890E+04</rscale>
<asrwt>0</asrwt>
<pdfrwt beam="1">  1        2 0.12290428E+00 0.15155890E+04</pdfrwt>
<pdfrwt beam="2">  1       -1 0.11058829E+00 0.15155890E+04</pdfrwt>
<totfact> 0.28664510E+01</totfact>
</mgrwt>
</event>
<event>
12    6  0.1627636E-007  0.1606007E+04  0.7818608E-02  0.8816866E-01
          2   -1    0    0  501    0  0.00000000000E+00  0.00000000000E+00  0.11401136189E+04  0.11401136189E+04  0.00000000000E+00 0. -1.
         -1   -1    0    0    0  501 -0.00000000000E+00 -0.00000000000E+00 -0.56557080188E+03  0.56557080188E+03  0.00000000000E+00 0.  1.
         24    2    1    2    0    0  0.11582236412E+03  0.52955207078E+03  0.85676758586E+02  0.55469970213E+03  0.80690996282E+02 0.  0.
        254    2    1    2    0    0 -0.11582236412E+03 -0.52955207078E+03  0.48886605844E+03  0.11509847187E+04  0.88990762654E+03 0.  0.
         23    2    4    4    0    0 -0.42475962187E+03 -0.22910229896E+02  0.14267868523E+03  0.45789376058E+03  0.91454216706E+02 0.  0.
         23    2    4    4    0    0  0.30893725775E+03 -0.50664184088E+03  0.34618737321E+03  0.69309095807E+03  0.91658030895E+02 0.  0.
          2    1    3    3  502    0 -0.65280420015E+00  0.29541372481E+02  0.23092017815E+02  0.37501468346E+02  0.00000000000E+00 0. -1.
         -1    1    3    3    0  502  0.11647516832E+03  0.50001069830E+03  0.62584740771E+02  0.51719823378E+03  0.00000000000E+00 0.  1.
         11    1    5    5    0    0 -0.21692471362E+02 -0.78794360541E+01  0.32332849243E+02  0.39724828086E+02  0.00000000000E+00 0.  1.
        -11    1    5    5    0    0 -0.40306715051E+03 -0.15030793842E+02  0.11034583598E+03  0.41816893250E+03  0.00000000000E+00 0. -1.
          2    1    6    6  503    0  0.16109225142E+03 -0.18573922257E+03  0.16419906896E+03  0.29565369356E+03  0.00000000000E+00 0. -1.
         -2    1    6    6    0  503  0.14784500633E+03 -0.32090261831E+03  0.18198830425E+03  0.39743726451E+03  0.00000000000E+00 0.  1.
<mgrwt>
<rscale>  0 0.16060074E+04</rscale>
<asrwt>0</asrwt>
<pdfrwt beam="1">  1        2 0.17540210E+00 0.16060074E+04</pdfrwt>
<pdfrwt beam="2">  1       -1 0.87010892E-01 0.16060074E+04</pdfrwt>
<totfact> 0.29281841E+01</totfact>
</mgrwt>
</event>
<event>
12    6  0.1627636E-007  0.3066515E+04  0.7818608E-02  0.8224988E-01
          2   -1    0    0  501    0  0.00000000000E+00  0.00000000000E+00  0.26420955710E+04  0.26420955710E+04  0.00000000000E+00 0. -1.
         -1   -1    0    0    0  501 -0.00000000000E+00 -0.00000000000E+00 -0.88977789090E+03  0.88977789090E+03  0.00000000000E+00 0.  1.
         24    2    1    2    0    0  0.96489761137E+03  0.56617592486E+03 -0.16395042839E+03  0.11337122858E+04  0.82711702242E+02 0.  0.
        254    2    1    2    0    0 -0.96489761137E+03 -0.56617592486E+03  0.19162681085E+04  0.23981611761E+04  0.90967630762E+03 0.  0.
         23    2    4    4    0    0 -0.58630483303E+03 -0.77672578289E+03  0.15004279183E+04  0.17907800576E+04  0.92482310272E+02 0.  0.
         23    2    4    4    0    0 -0.37859277834E+03  0.21054985803E+03  0.41584019023E+03  0.60738111852E+03  0.91241573857E+02 0.  0.
          2    1    3    3  502    0  0.49033524792E+03  0.29142670205E+03 -0.41919972944E+02  0.57194008615E+03  0.00000000000E+00 0. -1.
         -1    1    3    3    0  502  0.47456236345E+03  0.27474922282E+03 -0.12203045544E+03  0.56177219965E+03  0.00000000000E+00 0.  1.
         11    1    5    5    0    0 -0.30243552111E+03 -0.33129421326E+03  0.72475070325E+03  0.85234188096E+03  0.00000000000E+00 0. -1.
        -11    1    5    5    0    0 -0.28386931192E+03 -0.44543156963E+03  0.77567721502E+03  0.93843817664E+03  0.00000000000E+00 0.  1.
          2    1    6    6  503    0 -0.34335598214E+03  0.21467677218E+03  0.36357106826E+03  0.54420893842E+03  0.00000000000E+00 0. -1.
         -2    1    6    6    0  503 -0.35236796200E+02 -0.41269141499E+01  0.52269121976E+02  0.63172180103E+02  0.00000000000E+00 0.  1.
<mgrwt>
<rscale>  0 0.30665148E+04</rscale>
<asrwt>0</asrwt>
<pdfrwt beam="1">  1        2 0.40647624E+00 0.30665148E+04</pdfrwt>
<pdfrwt beam="2">  1       -1 0.13688891E+00 0.30665148E+04</pdfrwt>
<totfact> 0.12354796E+00</totfact>
</mgrwt>
</event>
<event>
12    6  0.1627636E-007  0.1697937E+04  0.7818608E-02  0.8762542E-01
          2   -1    0    0  501    0  0.00000000000E+00  0.00000000000E+00  0.21159642160E+04  0.21159642160E+04  0.00000000000E+00 0. -1.
         -1   -1    0    0    0  501 -0.00000000000E+00 -0.00000000000E+00 -0.34062371569E+03  0.34062371569E+03  0.00000000000E+00 0.  1.
         24    2    1    2    0    0  0.71624936917E+02  0.59594656075E+03  0.48677375622E+03  0.77728737472E+03  0.83333896493E+02 0.  0.
        254    2    1    2    0    0 -0.71624936917E+02 -0.59594656075E+03  0.12885667441E+04  0.16793005570E+04  0.89407140197E+03 0.  0.
         23    2    4    4    0    0  0.97599751452E+02  0.70405016262E+02 -0.59565247699E+02  0.16318499348E+03  0.92729421250E+02 0.  0.
         23    2    4    4    0    0 -0.16922468837E+03 -0.66635157701E+03  0.13481319918E+04  0.15161155635E+04  0.92114685232E+02 0.  0.
          4    1    3    3  502    0 -0.99487029284E+00  0.26724903835E+03  0.24787097124E+03  0.36450384998E+03  0.00000000000E+00 0. -1.
         -3    1    3    3    0  502  0.72619807209E+02  0.32869752239E+03  0.23890278498E+03  0.41278352474E+03  0.00000000000E+00 0.  1.
         11    1    5    5    0    0  0.13879959102E+01  0.20966761340E+02 -0.50426350482E+02  0.54629190335E+02  0.00000000000E+00 0.  1.
        -11    1    5    5    0    0  0.96211755542E+02  0.49438254922E+02 -0.91388972172E+01  0.10855580315E+03  0.00000000000E+00 0. -1.
          3    1    6    6  503    0 -0.18820333017E+02 -0.81413689023E+02  0.10637623927E+03  0.13527120158E+03  0.00000000000E+00 0. -1.
         -3    1    6    6    0  503 -0.15040435535E+03 -0.58493788799E+03  0.12417557525E+04  0.13808443619E+04  0.00000000000E+00 0.  1.
<mgrwt>
<rscale>  0 0.16979371E+04</rscale>
<asrwt>0</asrwt>
<pdfrwt beam="1">  1        2 0.32553295E+00 0.16979371E+04</pdfrwt>
<pdfrwt beam="2">  1       -1 0.52403650E-01 0.16979371E+04</pdfrwt>
<totfact> 0.22896082E+01</totfact>
</mgrwt>
</event>
<event>
12    6  0.1627636E-007  0.2789701E+04  0.7818608E-02  0.8306473E-01
         -1   -1    0    0    0  501 -0.00000000000E+00  0.00000000000E+00  0.11514359596E+04  0.11514359596E+04  0.00000000000E+00 0.  1.
          2   -1    0    0  501    0  0.00000000000E+00 -0.00000000000E+00 -0.16897232072E+04  0.16897232072E+04  0.00000000000E+00 0. -1.
         24    2    1    2    0    0 -0.10608825088E+04 -0.53428315847E+03  0.15663268953E+03  0.12010702664E+04  0.84295874054E+02 0.  0.
        254    2    1    2    0    0  0.10608825088E+04  0.53428315847E+03 -0.69491993708E+03  0.16400889004E+04  0.89221504774E+03 0.  0.
         23    2    4    4    0    0  0.59467543803E+02 -0.45782370890E+02  0.15946347251E+03  0.19859267343E+03  0.91531615437E+02 0.  0.
         23    2    4    4    0    0  0.10014149650E+04  0.58006552936E+03 -0.85438340959E+03  0.14414962270E+04  0.92910770984E+02 0.  0.
          2    1    3    3  502    0 -0.31969714412E+03 -0.12146820739E+03  0.59528978962E+02  0.34713756452E+03  0.00000000000E+00 0. -1.
         -3    1    3    3    0  502 -0.74118536472E+03 -0.41281495108E+03  0.97103710568E+02  0.85393270187E+03  0.00000000000E+00 0.  1.
         11    1    5    5    0    0  0.67214532728E+02 -0.61323825665E+02  0.93826504774E+02  0.13069742921E+03  0.00000000000E+00 0. -1.
        -11    1    5    5    0    0 -0.77469889249E+01  0.15541454776E+02  0.65636967736E+02  0.67895244219E+02  0.00000000000E+00 0.  1.
          1    1    6    6  503    0  0.56305528083E+03  0.34856109685E+03 -0.43653163740E+03  0.79314939195E+03  0.00000000000E+00 0. -1.
         -1    1    6    6    0  503  0.43835968421E+03  0.23150443251E+03 -0.41785177219E+03  0.64834683506E+03  0.00000000000E+00 0.  1.
<mgrwt>
<rscale>  0 0.27897011E+04</rscale>
<asrwt>0</asrwt>
<pdfrwt beam="1">  1        2 0.25995742E+00 0.27897011E+04</pdfrwt>
<pdfrwt beam="2">  1       -1 0.17714399E+00 0.27897011E+04</pdfrwt>
<totfact> 0.21498617E+00</totfact>
</mgrwt>
</event>
<event>
12    6  0.1627636E-007  0.1554018E+04  0.7818608E-02  0.8849305E-01
          2   -1    0    0  501    0  0.00000000000E+00  0.00000000000E+00  0.10382495496E+04  0.10382495496E+04  0.00000000000E+00 0. -1.
         -1   -1    0    0    0  501 -0.00000000000E+00 -0.00000000000E+00 -0.58150104212E+03  0.58150104212E+03  0.00000000000E+00 0.  1.
         24    2    1    2    0    0  0.32339476567E+03 -0.36255865580E+02  0.55431138324E+03  0.64768918712E+03  0.79633606469E+02 0.  0.
        254    2    1    2    0    0 -0.32339476567E+03  0.36255865580E+02 -0.97562875763E+02  0.97206140458E+03  0.91076132840E+03 0.  0.
         23    2    4    4    0    0 -0.74260406165E+01 -0.40553549589E+03 -0.31896535883E+02  0.41724673830E+03  0.92537922575E+02 0.  0.
         23    2    4    4    0    0 -0.31596872505E+03  0.44179136147E+03 -0.65666339880E+02  0.55481466629E+03  0.92148811455E+02 0.  0.
          2    1    3    3  502    0  0.24388117223E+03 -0.43041905528E+02  0.35363242801E+03  0.43172505827E+03  0.00000000000E+00 0. -1.
         -1    1    3    3    0  502  0.79513593441E+02  0.67860399480E+01  0.20067895522E+03  0.21596412885E+03  0.00000000000E+00 0.  1.
         11    1    5    5    0    0  0.11595219491E+02 -0.38880359767E+03 -0.39026701909E+02  0.39092936720E+03  0.00000000000E+00 0. -1.
        -11    1    5    5    0    0 -0.19021260107E+02 -0.16731898219E+02  0.71301660262E+01  0.26317371100E+02  0.00000000000E+00 0.  1.
          1    1    6    6  503    0 -0.15474466132E+03  0.27716341182E+03 -0.91851809418E+01  0.31756862976E+03  0.00000000000E+00 0. -1.
         -1    1    6    6    0  503 -0.16122406373E+03  0.16462794965E+03 -0.56481158938E+02  0.23724603653E+03  0.00000000000E+00 0.  1.
<mgrwt>
<rscale>  0 0.15540183E+04</rscale>
<asrwt>0</asrwt>
<pdfrwt beam="1">  1        2 0.15973070E+00 0.15540183E+04</pdfrwt>
<pdfrwt beam="2">  1       -1 0.89461699E-01 0.15540183E+04</pdfrwt>
<totfact> 0.32003171E+01</totfact>
</mgrwt>
</event>
<event>
12    6  0.1627636E-007  0.1695625E+04  0.7818608E-02  0.8763864E-01
         -1   -1    0    0    0  501 -0.00000000000E+00  0.00000000000E+00  0.44107035314E+03  0.44107035314E+03  0.00000000000E+00 0.  1.
          2   -1    0    0  501    0  0.00000000000E+00 -0.00000000000E+00 -0.16296398151E+04  0.16296398151E+04  0.00000000000E+00 0. -1.
         24    2    1    2    0    0  0.26267514128E+03  0.16764977966E+03  0.20849031350E+03  0.38280795537E+03  0.77259571628E+02 0.  0.
        254    2    1    2    0    0 -0.26267514128E+03 -0.16764977966E+03 -0.13970597754E+04  0.16879022128E+04  0.89450164087E+03 0.  0.
         23    2    4    4    0    0 -0.54650494905E+03  0.32650639569E+02 -0.62059447266E+03  0.83252556522E+03  0.90706083864E+02 0.  0.
         23    2    4    4    0    0  0.28382980777E+03 -0.20030041922E+03 -0.77646530276E+03  0.85537664761E+03  0.89951237710E+02 0.  0.
          2    1    3    3  502    0 -0.48310524587E+01  0.82486121464E+01  0.78488175753E+01  0.12368613808E+02  0.00000000000E+00 0. -1.
         -1    1    3    3    0  502  0.26750619374E+03  0.15940116751E+03  0.20064149592E+03  0.37043934156E+03  0.00000000000E+00 0.  1.
         11    1    5    5    0    0 -0.36500960437E+03  0.62337568214E+01 -0.35078948544E+03  0.50628463744E+03  0.00000000000E+00 0. -1.
        -11    1    5    5    0    0 -0.18149534468E+03  0.26416882747E+02 -0.26980498722E+03  0.32624092778E+03  0.00000000000E+00 0.  1.
          3    1    6    6  503    0  0.15774481059E+03 -0.14135089646E+03 -0.55222089083E+03  0.59144857213E+03  0.00000000000E+00 0. -1.
         -3    1    6    6    0  503  0.12608499718E+03 -0.58949522762E+02 -0.22424441193E+03  0.26392807548E+03  0.00000000000E+00 0.  1.
<mgrwt>
<rscale>  0 0.16956247E+04</rscale>
<asrwt>0</asrwt>
<pdfrwt beam="1">  1        2 0.25071382E+00 0.16956247E+04</pdfrwt>
<pdfrwt beam="2">  1       -1 0.67856978E-01 0.16956247E+04</pdfrwt>
<totfact> 0.25596518E+01</totfact>
</mgrwt>
</event>
<event>
12    6  0.1627636E-007  0.2022311E+04  0.7818608E-02  0.8596260E-01
         -1   -1    0    0    0  501 -0.00000000000E+00  0.00000000000E+00  0.85071179865E+03  0.85071179865E+03  0.00000000000E+00 0.  1.
          2   -1    0    0  501    0  0.00000000000E+00 -0.00000000000E+00 -0.12018590581E+04  0.12018590581E+04  0.00000000000E+00 0. -1.
         24    2    1    2    0    0  0.28072669827E+03 -0.19027112128E+02  0.62740719699E+03  0.69218627570E+03  0.79451490332E+02 0.  0.
        254    2    1    2    0    0 -0.28072669827E+03  0.19027112128E+02 -0.97855445646E+03  0.13603845811E+04  0.90216842885E+03 0.  0.
         23    2    4    4    0    0 -0.31110559124E+02 -0.17616204090E+03 -0.10088534830E+04  0.10285892393E+04  0.90606520659E+02 0.  0.
         23    2    4    4    0    0 -0.24961613915E+03  0.19518915303E+03  0.30299026519E+02  0.33179534174E+03  0.93611406403E+02 0.  0.
          2    1    3    3  502    0  0.13100938693E+03 -0.16276323049E+02  0.20313875349E+03  0.24226789165E+03  0.00000000000E+00 0. -1.
         -1    1    3    3    0  502  0.14971731134E+03 -0.27507890795E+01  0.42426844350E+03  0.44991838405E+03  0.00000000000E+00 0.  1.
         11    1    5    5    0    0 -0.21493059544E+01 -0.10872451455E+03 -0.37344254475E+03  0.38895369109E+03  0.00000000000E+00 0.  1.
        -11    1    5    5    0    0 -0.28961253170E+02 -0.67437526352E+02 -0.63541093822E+03  0.63963554823E+03  0.00000000000E+00 0. -1.
          2    1    6    6  503    0 -0.15082995450E+03  0.60100176431E+02  0.25643437284E+02  0.16437546124E+03  0.00000000000E+00 0. -1.
         -2    1    6    6    0  503 -0.98786184646E+02  0.13508897660E+03  0.46555892352E+01  0.16741988050E+03  0.00000000000E+00 0.  1.
<mgrwt>
<rscale>  0 0.20223112E+04</rscale>
<asrwt>0</asrwt>
<pdfrwt beam="1">  1        2 0.18490139E+00 0.20223112E+04</pdfrwt>
<pdfrwt beam="2">  1       -1 0.13087874E+00 0.20223112E+04</pdfrwt>
<totfact> 0.99600291E+00</totfact>
</mgrwt>
</event>
<event>
12    6  0.1627636E-007  0.2648511E+04  0.7818608E-02  0.8351907E-01
          2   -1    0    0  501    0  0.00000000000E+00  0.00000000000E+00  0.26754507742E+04  0.26754507742E+04  0.00000000000E+00 0. -1.
         -1   -1    0    0    0  501 -0.00000000000E+00 -0.00000000000E+00 -0.65546045318E+03  0.65546045318E+03  0.00000000000E+00 0.  1.
         24    2    1    2    0    0 -0.44305521082E+02 -0.10545519835E+04  0.15502665389E+04  0.18772113349E+04  0.80951769379E+02 0.  0.
        254    2    1    2    0    0  0.44305521082E+02  0.10545519835E+04  0.46972378211E+03  0.14536998925E+04  0.88236051636E+03 0.  0.
         23    2    4    4    0    0  0.25258040315E+03  0.93643681619E+03  0.62278857084E+03  0.11558200890E+04  0.85695411270E+02 0.  0.
         23    2    4    4    0    0 -0.20827488206E+03  0.11811516734E+03 -0.15306478872E+03  0.29787980346E+03  0.89296856106E+02 0.  0.
          4    1    3    3  502    0 -0.35080077005E+02 -0.97511188552E+03  0.14660484772E+04  0.17610712475E+04  0.00000000000E+00 0. -1.
         -3    1    3    3    0  502 -0.92254440775E+01 -0.79440098014E+02  0.84218061715E+02  0.11614008744E+03  0.00000000000E+00 0.  1.
         11    1    5    5    0    0  0.18369440890E+03  0.77794596762E+03  0.53622028704E+03  0.96253610874E+03  0.00000000000E+00 0.  1.
        -11    1    5    5    0    0  0.68885994245E+02  0.15849084857E+03  0.86568283795E+02  0.19328398031E+03  0.00000000000E+00 0. -1.
          3    1    6    6  503    0 -0.75598534100E+02  0.41114592720E+02 -0.74597775761E+01  0.86378217012E+02  0.00000000000E+00 0. -1.
         -3    1    6    6    0  503 -0.13267634796E+03  0.77000574618E+02 -0.14560501114E+03  0.21150158645E+03  0.00000000000E+00 0.  1.
<mgrwt>
<rscale>  0 0.26485107E+04</rscale>
<asrwt>0</asrwt>
<pdfrwt beam="1">  1        2 0.41160781E+00 0.26485107E+04</pdfrwt>
<pdfrwt beam="2">  1       -1 0.10084007E+00 0.26485107E+04</pdfrwt>
<totfact> 0.25714812E+00</totfact>
</mgrwt>
</event>
<event>
12    6  0.1627636E-007  0.1153687E+04  0.7818608E-02  0.9154389E-01
          2   -1    0    0  501    0  0.00000000000E+00  0.00000000000E+00  0.34860213041E+04  0.34860213041E+04  0.00000000000E+00 0. -1.
         -1   -1    0    0    0  501 -0.00000000000E+00 -0.00000000000E+00 -0.95452155069E+02  0.95452155069E+02  0.00000000000E+00 0.  1.
         24    2    1    2    0    0 -0.14414322543E+03 -0.14120798722E+03  0.42133270813E+03  0.47374216965E+03  0.78698330783E+02 0.  0.
        254    2    1    2    0    0  0.14414322543E+03  0.14120798722E+03  0.29692364409E+04  0.31077312895E+04  0.89493673565E+03 0.  0.
         23    2    4    4    0    0  0.26951595431E+03 -0.31450173806E+03  0.16470530281E+04  0.17007086013E+04  0.89865879400E+02 0.  0.
         23    2    4    4    0    0 -0.12537272888E+03  0.45570972528E+03  0.13221834128E+04  0.14070226882E+04  0.90300571645E+02 0.  0.
          2    1    3    3  502    0  0.54330327537E+01 -0.27389291714E+02  0.68415147320E+02  0.73894001978E+02  0.00000000000E+00 0. -1.
         -1    1    3    3    0  502 -0.14957625818E+03 -0.11381869550E+03  0.35291756081E+03  0.39984816767E+03  0.00000000000E+00 0.  1.
         11    1    5    5    0    0  0.20007720951E+01 -0.34082425624E+02  0.18721355262E+03  0.19030115373E+03  0.00000000000E+00 0. -1.
        -11    1    5    5    0    0  0.26751518222E+03 -0.28041931244E+03  0.14598394755E+04  0.15104074476E+04  0.00000000000E+00 0.  1.
          4    1    6    6  503    0 -0.12768585037E+03  0.39126255277E+03  0.10618816961E+04  0.11388515259E+04  0.00000000000E+00 0.  1.
         -4    1    6    6    0  503  0.23131214849E+01  0.64447172507E+02  0.26030171664E+03  0.26817116225E+03  0.00000000000E+00 0. -1.
<mgrwt>
<rscale>  0 0.11536867E+04</rscale>
<asrwt>0</asrwt>
<pdfrwt beam="1">  1        2 0.53631087E+00 0.11536867E+04</pdfrwt>
<pdfrwt beam="2">  1       -1 0.14684950E-01 0.11536867E+04</pdfrwt>
<totfact> 0.32831038E+01</totfact>
</mgrwt>
</event>
<event>
12    6  0.1627636E-007  0.1427763E+04  0.7818608E-02  0.8933964E-01
         -1   -1    0    0    0  501 -0.00000000000E+00  0.00000000000E+00  0.26560501271E+03  0.26560501271E+03  0.00000000000E+00 0.  1.
          2   -1    0    0  501    0  0.00000000000E+00 -0.00000000000E+00 -0.19187384487E+04  0.19187384487E+04  0.00000000000E+00 0. -1.
         24    2    1    2    0    0 -0.84111269149E+02 -0.19001652706E+03  0.49063150239E+02  0.22760508273E+03  0.78840946333E+02 0.  0.
        254    2    1    2    0    0  0.84111269149E+02  0.19001652706E+03 -0.17021965862E+04  0.19567383787E+04  0.94242818202E+03 0.  0.
         23    2    4    4    0    0 -0.27847733055E+03 -0.21969735881E+03 -0.40221796219E+03  0.54369420555E+03  0.89484897825E+02 0.  0.
         23    2    4    4    0    0  0.36258859970E+03  0.40971388587E+03 -0.12999786240E+04  0.14130441731E+04  0.86101401572E+02 0.  0.
          2    1    3    3  502    0 -0.24153128831E+02 -0.52995811459E+01 -0.65769096772E+01  0.25587397944E+02  0.00000000000E+00 0. -1.
         -1    1    3    3    0  502 -0.59958140318E+02 -0.18471694592E+03  0.55640059916E+02  0.20201768479E+03  0.00000000000E+00 0.  1.
         11    1    5    5    0    0 -0.21195922278E+03 -0.20946566329E+03 -0.33901739947E+03  0.45137054995E+03  0.00000000000E+00 0. -1.
        -11    1    5    5    0    0 -0.66518107776E+02 -0.10231695521E+02 -0.63200562726E+02  0.92323655605E+02  0.00000000000E+00 0.  1.
          1    1    6    6  503    0  0.26568720860E+03  0.35002253050E+03 -0.10583421057E+04  0.11459465421E+04  0.00000000000E+00 0. -1.
         -1    1    6    6    0  503  0.96901391102E+02  0.59691355371E+02 -0.24163651835E+03  0.26709763104E+03  0.00000000000E+00 0.  1.
<mgrwt>
<rscale>  0 0.14277627E+04</rscale>
<asrwt>0</asrwt>
<pdfrwt beam="1">  1        2 0.29519052E+00 0.14277627E+04</pdfrwt>
<pdfrwt beam="2">  1       -1 0.40862311E-01 0.14277627E+04</pdfrwt>
<totfact> 0.48061151E+01</totfact>
</mgrwt>
</event>
<event>
12    6  0.1627636E-007  0.3053261E+04  0.7818608E-02  0.8228683E-01
         -1   -1    0    0    0  501 -0.00000000000E+00  0.00000000000E+00  0.33689916451E+04  0.33689916451E+04  0.00000000000E+00 0.  1.
          2   -1    0    0  501    0  0.00000000000E+00 -0.00000000000E+00 -0.69177971987E+03  0.69177971987E+03  0.00000000000E+00 0. -1.
         24    2    1    2    0    0 -0.89363967723E+03 -0.10400035567E+04  0.15281808719E+04  0.20548094133E+04  0.81888198420E+02 0.  0.
        254    2    1    2    0    0  0.89363967723E+03  0.10400035567E+04  0.11490310534E+04  0.20059619517E+04  0.90742036525E+03 0.  0.
         23    2    4    4    0    0  0.92664799298E+03  0.78378635753E+03  0.12208213380E+04  0.17238293561E+04  0.90472938019E+02 0.  0.
         23    2    4    4    0    0 -0.33008315749E+02  0.25621719922E+03 -0.71790284638E+02  0.28213259558E+03  0.87796095814E+02 0.  0.
          2    1    3    3  502    0 -0.21074568481E+03 -0.26785297832E+03  0.42900868161E+03  0.54791186386E+03  0.00000000000E+00 0. -1.
         -1    1    3    3    0  502 -0.68289399242E+03 -0.77215057842E+03  0.10991721903E+04  0.15068975495E+04  0.00000000000E+00 0.  1.
         11    1    5    5    0    0  0.70637054297E+03  0.64168019598E+03  0.93537379346E+03  0.13362772734E+04  0.00000000000E+00 0.  1.
        -11    1    5    5    0    0  0.22027745001E+03  0.14210616155E+03  0.28544754453E+03  0.38755208271E+03  0.00000000000E+00 0. -1.
          3    1    6    6  503    0  0.26201184829E+02  0.41992029021E+02 -0.34937843572E+01  0.49618939094E+02  0.00000000000E+00 0. -1.
         -3    1    6    6    0  503 -0.59209500577E+02  0.21422517020E+03 -0.68296500280E+02  0.23251365649E+03  0.00000000000E+00 0.  1.
<mgrwt>
<rscale>  0 0.30532606E+04</rscale>
<asrwt>0</asrwt>
<pdfrwt beam="1">  1        2 0.10642765E+00 0.30532606E+04</pdfrwt>
<pdfrwt beam="2">  1       -1 0.51830640E+00 0.30532606E+04</pdfrwt>
<totfact> 0.45996622E-02</totfact>
</mgrwt>
</event>
<event>
12    6  0.1627636E-007  0.1700789E+04  0.7818608E-02  0.8760914E-01
         -1   -1    0    0    0  501 -0.00000000000E+00  0.00000000000E+00  0.60102237776E+03  0.60102237776E+03  0.00000000000E+00 0.  1.
          2   -1    0    0  501    0  0.00000000000E+00 -0.00000000000E+00 -0.12032350566E+04  0.12032350566E+04  0.00000000000E+00 0. -1.
         24    2    1    2    0    0 -0.29531346030E+03 -0.50512020381E+03 -0.40483645961E+03  0.71659724577E+03  0.85220851255E+02 0.  0.
        254    2    1    2    0    0  0.29531346030E+03  0.50512020381E+03 -0.19737621924E+03  0.10876601886E+04  0.89537190811E+03 0.  0.
         23    2    4    4    0    0  0.13898967339E+03 -0.23109970599E+03  0.51075862812E+02  0.28956207600E+03  0.92261848445E+02 0.  0.
         23    2    4    4    0    0  0.15632378691E+03  0.73621990980E+03 -0.24845208205E+03  0.79809811260E+03  0.93676455556E+02 0.  0.
          2    1    3    3  502    0 -0.58473236992E+01  0.29133583941E+01 -0.53783075031E+01  0.84619763161E+01  0.00000000000E+00 0. -1.
         -1    1    3    3    0  502 -0.28946613660E+03 -0.50803356220E+03 -0.39945815211E+03  0.70813526946E+03  0.00000000000E+00 0.  1.
         11    1    5    5    0    0  0.98775232033E+02 -0.22313286548E+03  0.44478508622E+02  0.24803862572E+03  0.00000000000E+00 0.  1.
        -11    1    5    5    0    0  0.40214441353E+02 -0.79668405168E+01  0.65973541909E+01  0.41523450284E+02  0.00000000000E+00 0. -1.
          3    1    6    6  503    0  0.90834205777E+02  0.60381349497E+03 -0.20555907040E+03  0.64427953644E+03  0.00000000000E+00 0. -1.
         -3    1    6    6    0  503  0.65489581137E+02  0.13240641483E+03 -0.42893011649E+02  0.15381857616E+03  0.00000000000E+00 0.  1.
<mgrwt>
<rscale>  0 0.17007895E+04</rscale>
<asrwt>0</asrwt>
<pdfrwt beam="1">  1        2 0.18511309E+00 0.17007895E+04</pdfrwt>
<pdfrwt beam="2">  1       -1 0.92464981E-01 0.17007895E+04</pdfrwt>
<totfact> 0.23276748E+01</totfact>
</mgrwt>
</event>
<event>
12    6  0.1627636E-007  0.1723609E+04  0.7818608E-02  0.8748013E-01
         -1   -1    0    0    0  501 -0.00000000000E+00  0.00000000000E+00  0.17088164372E+03  0.17088164372E+03  0.00000000000E+00 0.  1.
          2   -1    0    0  501    0  0.00000000000E+00 -0.00000000000E+00 -0.43463219733E+04  0.43463219733E+04  0.00000000000E+00 0. -1.
         24    2    1    2    0    0  0.37088470539E+03 -0.40871611435E+03 -0.75187182838E+03  0.93613369870E+03  0.80191824469E+02 0.  0.
        254    2    1    2    0    0 -0.37088470539E+03  0.40871611435E+03 -0.34235685012E+04  0.35810699183E+04  0.89366445082E+03 0.  0.
         23    2    4    4    0    0 -0.54247654822E+03  0.35926720268E+02 -0.25837493943E+04  0.26418960403E+04  0.91006706043E+02 0.  0.
         23    2    4    4    0    0  0.17159184284E+03  0.37278939409E+03 -0.83981910686E+03  0.93917387799E+03  0.91300317561E+02 0.  0.
          2    1    3    3  502    0  0.23348095145E+03 -0.20685962737E+03 -0.38647565106E+03  0.49665651006E+03  0.00000000000E+00 0. -1.
         -1    1    3    3    0  502  0.13740375393E+03 -0.20185648698E+03 -0.36539617732E+03  0.43947718864E+03  0.00000000000E+00 0.  1.
         11    1    5    5    0    0 -0.32189318288E+03  0.56002853827E+01 -0.17226654844E+04  0.17524905008E+04  0.00000000000E+00 0. -1.
        -11    1    5    5    0    0 -0.22058336534E+03  0.30326434886E+02 -0.86108390992E+03  0.88940553947E+03  0.00000000000E+00 0.  1.
          3    1    6    6  503    0  0.87088538078E+02  0.28054897251E+03 -0.55063821202E+03  0.62409500877E+03  0.00000000000E+00 0. -1.
         -3    1    6    6    0  503  0.84503304758E+02  0.92240421578E+02 -0.28918089485E+03  0.31507886922E+03  0.00000000000E+00 0.  1.
<mgrwt>
<rscale>  0 0.17236086E+04</rscale>
<asrwt>0</asrwt>
<pdfrwt beam="1">  1        2 0.66866492E+00 0.17236086E+04</pdfrwt>
<pdfrwt beam="2">  1       -1 0.26289484E-01 0.17236086E+04</pdfrwt>
<totfact> 0.24453465E+00</totfact>
</mgrwt>
</event>
<event>
12    6  0.1627636E-007  0.2190416E+04  0.7818608E-02  0.8522428E-01
         -1   -1    0    0    0  501 -0.00000000000E+00  0.00000000000E+00  0.62484508522E+03  0.62484508522E+03  0.00000000000E+00 0.  1.
          2   -1    0    0  501    0  0.00000000000E+00 -0.00000000000E+00 -0.19196443240E+04  0.19196443240E+04  0.00000000000E+00 0. -1.
         24    2    1    2    0    0  0.56194815742E+03  0.33296778971E+03 -0.12966136159E+04  0.14538937264E+04  0.77115614210E+02 0.  0.
        254    2    1    2    0    0 -0.56194815742E+03 -0.33296778971E+03  0.18143771881E+01  0.10905956828E+04  0.87335122990E+03 0.  0.
         23    2    4    4    0    0 -0.43003204984E+03 -0.27221889393E+02  0.37773277311E+03  0.58036479325E+03  0.92047000006E+02 0.  0.
         23    2    4    4    0    0 -0.13191610759E+03 -0.30574590032E+03 -0.37591839592E+03  0.51023088956E+03  0.90213664490E+02 0.  0.
          2    1    3    3  502    0  0.32089038480E+03  0.22123389071E+03 -0.82939365421E+03  0.91641088334E+03  0.00000000000E+00 0. -1.
         -1    1    3    3    0  502  0.24105777263E+03  0.11173389901E+03 -0.46721996174E+03  0.53748284306E+03  0.00000000000E+00 0.  1.
         11    1    5    5    0    0 -0.36233139601E+03  0.11700122461E+02  0.31000136994E+03  0.47699243470E+03  0.00000000000E+00 0. -1.
        -11    1    5    5    0    0 -0.67700653828E+02 -0.38922011854E+02  0.67731403171E+02  0.10337235854E+03  0.00000000000E+00 0.  1.
          3    1    6    6  503    0 -0.14119972389E+03 -0.25697693627E+03 -0.29976856545E+03  0.41932767693E+03  0.00000000000E+00 0. -1.
         -3    1    6    6    0  503  0.92836163024E+01 -0.48768964048E+02 -0.76149830469E+02  0.90903212630E+02  0.00000000000E+00 0.  1.
<mgrwt>
<rscale>  0 0.21904158E+04</rscale>
<asrwt>0</asrwt>
<pdfrwt beam="1">  1        2 0.29532990E+00 0.21904158E+04</pdfrwt>
<pdfrwt beam="2">  1       -1 0.96130013E-01 0.21904158E+04</pdfrwt>
<totfact> 0.80392072E+00</totfact>
</mgrwt>
</event>
<event>
12    6  0.1627636E-007  0.1890286E+04  0.7818608E-02  0.8659707E-01
          2   -1    0    0  501    0  0.00000000000E+00  0.00000000000E+00  0.18875966477E+04  0.18875966477E+04  0.00000000000E+00 0. -1.
         -1   -1    0    0    0  501 -0.00000000000E+00 -0.00000000000E+00 -0.47324480665E+03  0.47324480665E+03  0.00000000000E+00 0.  1.
         24    2    1    2    0    0 -0.32036765024E+03  0.97465846780E+02 -0.26229864079E+03  0.43290838083E+03  0.80461584762E+02 0.  0.
        254    2    1    2    0    0  0.32036765024E+03 -0.97465846780E+02  0.16766504819E+04  0.19279330736E+04  0.89086142305E+03 0.  0.
         23    2    4    4    0    0  0.13356220826E+03 -0.48492985340E+03  0.88813087415E+03  0.10247792948E+04  0.91653298938E+02 0.  0.
         23    2    4    4    0    0  0.18680544199E+03  0.38746400662E+03  0.78851960774E+03  0.90315377877E+03  0.94334228837E+02 0.  0.
          4    1    3    3  502    0 -0.39385961606E+02 -0.81502292255E+01 -0.54883992044E+02  0.68043609478E+02  0.00000000000E+00 0. -1.
         -1    1    3    3    0  502 -0.28098168864E+03  0.10561607601E+03 -0.20741464875E+03  0.36486477136E+03  0.00000000000E+00 0.  1.
         11    1    5    5    0    0  0.86810397857E+02 -0.40962551573E+03  0.77686654991E+03  0.88252520909E+03  0.00000000000E+00 0. -1.
        -11    1    5    5    0    0  0.46751810399E+02 -0.75304337678E+02  0.11126432425E+03  0.14225408570E+03  0.00000000000E+00 0.  1.
          3    1    6    6  503    0  0.14688968963E+03  0.36682802031E+03  0.71750111285E+03  0.81911368218E+03  0.00000000000E+00 0. -1.
         -3    1    6    6    0  503  0.39915752355E+02  0.20635986314E+02  0.71018494895E+02  0.84040096586E+02  0.00000000000E+00 0.  1.
<mgrwt>
<rscale>  0 0.18902860E+04</rscale>
<asrwt>0</asrwt>
<pdfrwt beam="1">  1        2 0.29039948E+00 0.18902860E+04</pdfrwt>
<pdfrwt beam="2">  1       -1 0.72806894E-01 0.18902860E+04</pdfrwt>
<totfact> 0.15662609E+01</totfact>
</mgrwt>
</event>
<event>
12    6  0.1627636E-007  0.1688278E+04  0.7818608E-02  0.8768078E-01
          2   -1    0    0  501    0  0.00000000000E+00  0.00000000000E+00  0.17778331230E+04  0.17778331230E+04  0.00000000000E+00 0. -1.
         -1   -1    0    0    0  501 -0.00000000000E+00 -0.00000000000E+00 -0.40080830510E+03  0.40080830510E+03  0.00000000000E+00 0.  1.
         24    2    1    2    0    0 -0.19723105951E+03 -0.55064031969E+03  0.30642133251E+03  0.66514124830E+03  0.80087418988E+02 0.  0.
        254    2    1    2    0    0  0.19723105951E+03  0.55064031969E+03  0.10706034854E+04  0.15135001798E+04  0.89576007879E+03 0.  0.
         23    2    4    4    0    0 -0.24894743210E+03 -0.73002277439E+02  0.42960609740E+03  0.50992671022E+03  0.90331026858E+02 0.  0.
         23    2    4    4    0    0  0.44617849161E+03  0.62364259713E+03  0.64099738798E+03  0.10035734696E+04  0.90976491844E+02 0.  0.
          4    1    3    3  502    0 -0.13015086073E+03 -0.41395327591E+03  0.19114523334E+03  0.47416564766E+03  0.00000000000E+00 0. -1.
         -1    1    3    3    0  502 -0.67080198780E+02 -0.13668704377E+03  0.11527609917E+03  0.19097560065E+03  0.00000000000E+00 0.  1.
         11    1    5    5    0    0 -0.23000593867E+03 -0.36635496763E+02  0.37831393997E+03  0.44425930336E+03  0.00000000000E+00 0.  1.
        -11    1    5    5    0    0 -0.18941493431E+02 -0.36366780676E+02  0.51292157433E+02  0.65667406864E+02  0.00000000000E+00 0. -1.
          4    1    6    6  503    0  0.31826671777E+03  0.40377585957E+03  0.47397841365E+03  0.69927404143E+03  0.00000000000E+00 0.  1.
         -4    1    6    6    0  503  0.12791177384E+03  0.21986673755E+03  0.16701897433E+03  0.30429942812E+03  0.00000000000E+00 0. -1.
<mgrwt>
<rscale>  0 0.16882776E+04</rscale>
<asrwt>0</asrwt>
<pdfrwt beam="1">  1        2 0.27351278E+00 0.16882776E+04</pdfrwt>
<pdfrwt beam="2">  1       -1 0.61662818E-01 0.16882776E+04</pdfrwt>
<totfact> 0.25688478E+01</totfact>
</mgrwt>
</event>
<event>
12    6  0.1627636E-007  0.2195853E+04  0.7818608E-02  0.8520156E-01
         -1   -1    0    0    0  501 -0.00000000000E+00  0.00000000000E+00  0.10527478231E+04  0.10527478231E+04  0.00000000000E+00 0.  1.
          2   -1    0    0  501    0  0.00000000000E+00 -0.00000000000E+00 -0.11450438779E+04  0.11450438779E+04  0.00000000000E+00 0. -1.
         24    2    1    2    0    0 -0.51251669537E+03  0.32006362900E+03 -0.72089235803E+03  0.94400396962E+03  0.79646802581E+02 0.  0.
        254    2    1    2    0    0  0.51251669537E+03 -0.32006362900E+03  0.62859630323E+03  0.12537877313E+04  0.90096407986E+03 0.  0.
         23    2    4    4    0    0  0.58930481567E+03 -0.44559243727E+03  0.73805299054E+03  0.10483280074E+04  0.91851011285E+02 0.  0.
         23    2    4    4    0    0 -0.76788120300E+02  0.12552880827E+03 -0.10945668731E+03  0.20545972397E+03  0.92623078384E+02 0.  0.
          2    1    3    3  502    0 -0.12644782013E+03  0.93695491773E+02 -0.24078053988E+03  0.28765111642E+03  0.00000000000E+00 0. -1.
         -1    1    3    3    0  502 -0.38606887524E+03  0.22636813723E+03 -0.48011181815E+03  0.65635285320E+03  0.00000000000E+00 0.  1.
         11    1    5    5    0    0  0.16632951890E+03 -0.10796786913E+03  0.14640735461E+03  0.24649073635E+03  0.00000000000E+00 0.  1.
        -11    1    5    5    0    0  0.42297529677E+03 -0.33762456815E+03  0.59164563593E+03  0.80183727103E+03  0.00000000000E+00 0. -1.
          3    1    6    6  503    0 -0.75911430161E+02  0.58602043545E+02 -0.27741673259E+02  0.99831584040E+02  0.00000000000E+00 0. -1.
         -3    1    6    6    0  503 -0.87669013904E+00  0.66926764728E+02 -0.81715014053E+02  0.10562813993E+03  0.00000000000E+00 0.  1.
<mgrwt>
<rscale>  0 0.21958529E+04</rscale>
<asrwt>0</asrwt>
<pdfrwt beam="1">  1        2 0.17616060E+00 0.21958529E+04</pdfrwt>
<pdfrwt beam="2">  1       -1 0.16196120E+00 0.21958529E+04</pdfrwt>
<totfact> 0.60194688E+00</totfact>
</mgrwt>
</event>
<event>
12    6  0.1627636E-007  0.1418064E+04  0.7818608E-02  0.8940846E-01
         -1   -1    0    0    0  501 -0.00000000000E+00  0.00000000000E+00  0.77171717271E+03  0.77171717271E+03  0.00000000000E+00 0.  1.
          2   -1    0    0  501    0  0.00000000000E+00 -0.00000000000E+00 -0.65143822308E+03  0.65143822308E+03  0.00000000000E+00 0. -1.
         24    2    1    2    0    0  0.17740864092E+03  0.23806900710E+03  0.33023357335E+03  0.45114090060E+03  0.79518684680E+02 0.  0.
        254    2    1    2    0    0 -0.17740864092E+03 -0.23806900710E+03 -0.20995462373E+03  0.97201449518E+03  0.90143250264E+03 0.  0.
         23    2    4    4    0    0  0.24059818822E+03 -0.19083377960E+03 -0.38993219213E+03  0.50517082481E+03  0.94050136494E+02 0.  0.
         23    2    4    4    0    0 -0.41800682913E+03 -0.47235227502E+02  0.17997756840E+03  0.46684367037E+03  0.92683393968E+02 0.  0.
          4    1    3    3  502    0 -0.83357187972E+01  0.69237768913E+01  0.11384410295E+02  0.15717114623E+02  0.00000000000E+00 0. -1.
         -3    1    3    3    0  502  0.18574435971E+03  0.23114523021E+03  0.31884916306E+03  0.43542378598E+03  0.00000000000E+00 0.  1.
         11    1    5    5    0    0  0.14741395340E+03 -0.16611461530E+03 -0.30054429148E+03  0.37370016084E+03  0.00000000000E+00 0. -1.
        -11    1    5    5    0    0  0.93184234821E+02 -0.24719164299E+02 -0.89387900654E+02  0.13147066398E+03  0.00000000000E+00 0.  1.
          4    1    6    6  503    0 -0.17780219464E+03  0.10280794742E+02  0.11302333875E+03  0.21093503801E+03  0.00000000000E+00 0. -1.
         -4    1    6    6    0  503 -0.24020463449E+03 -0.57516022244E+02  0.66954229654E+02  0.25590863236E+03  0.00000000000E+00 0.  1.
<mgrwt>
<rscale>  0 0.14180636E+04</rscale>
<asrwt>0</asrwt>
<pdfrwt beam="1">  1        2 0.10022127E+00 0.14180636E+04</pdfrwt>
<pdfrwt beam="2">  1       -1 0.11872572E+00 0.14180636E+04</pdfrwt>
<totfact> 0.31655099E+01</totfact>
</mgrwt>
</event>
<event>
12    6  0.1627636E-007  0.1147157E+04  0.7818608E-02  0.9160410E-01
         -1   -1    0    0    0  501 -0.00000000000E+00  0.00000000000E+00  0.37671684708E+03  0.37671684708E+03  0.00000000000E+00 0.  1.
          2   -1    0    0  501    0  0.00000000000E+00 -0.00000000000E+00 -0.87331480779E+03  0.87331480779E+03  0.00000000000E+00 0. -1.
         24    2    1    2    0    0  0.14303096042E+03 -0.37945890325E+02 -0.28311902288E+03  0.32968419582E+03  0.81471109135E+02 0.  0.
        254    2    1    2    0    0 -0.14303096042E+03  0.37945890325E+02 -0.21347893783E+03  0.92034745905E+03  0.88293173136E+03 0.  0.
         23    2    4    4    0    0 -0.37752651301E+03  0.13476704278E+03 -0.41345692786E+03  0.58454450064E+03  0.10028568283E+03 0.  0.
         23    2    4    4    0    0  0.23449555259E+03 -0.96821152454E+02  0.19997799003E+03  0.33580295841E+03  0.91705673953E+02 0.  0.
          2    1    3    3  502    0  0.78332987475E+02 -0.10897316386E+01 -0.21476656913E+03  0.22860866925E+03  0.00000000000E+00 0. -1.
         -1    1    3    3    0  502  0.64697972947E+02 -0.36856158686E+02 -0.68352453747E+02  0.10107552656E+03  0.00000000000E+00 0.  1.
         11    1    5    5    0    0 -0.63103964856E+02  0.36358394603E+02 -0.13404857086E+03  0.15255511328E+03  0.00000000000E+00 0. -1.
        -11    1    5    5    0    0 -0.31442254816E+03  0.98408648176E+02 -0.27940835701E+03  0.43198938736E+03  0.00000000000E+00 0.  1.
          2    1    6    6  503    0  0.15068495986E+03 -0.44955523658E+02  0.17264214642E+03  0.23352144860E+03  0.00000000000E+00 0. -1.
         -2    1    6    6    0  503  0.83810592730E+02 -0.51865628795E+02  0.27335843613E+02  0.10228150982E+03  0.00000000000E+00 0.  1.
<mgrwt>
<rscale>  0 0.11471572E+04</rscale>
<asrwt>0</asrwt>
<pdfrwt beam="1">  1        2 0.13435612E+00 0.11471572E+04</pdfrwt>
<pdfrwt beam="2">  1       -1 0.57956438E-01 0.11471572E+04</pdfrwt>
<totfact> 0.10419696E+02</totfact>
</mgrwt>
</event>
<event>
12    6  0.1627636E-007  0.1512599E+04  0.7818608E-02  0.8876117E-01
          2   -1    0    0  501    0  0.00000000000E+00  0.00000000000E+00  0.94080279602E+03  0.94080279602E+03  0.00000000000E+00 0. -1.
         -1   -1    0    0    0  501 -0.00000000000E+00 -0.00000000000E+00 -0.60797996804E+03  0.60797996804E+03  0.00000000000E+00 0.  1.
         24    2    1    2    0    0  0.38705715812E+03  0.29035862695E+03  0.33640439962E+02  0.49147898953E+03  0.79363354578E+02 0.  0.
        254    2    1    2    0    0 -0.38705715812E+03 -0.29035862695E+03  0.29918238802E+03  0.10573037745E+04  0.89121254167E+03 0.  0.
         23    2    4    4    0    0 -0.45820293537E+03 -0.54833742816E+03  0.28272817190E+03  0.77401285754E+03  0.92394909754E+02 0.  0.
         23    2    4    4    0    0  0.71145777251E+02  0.25797880121E+03  0.16454216119E+02  0.28329091699E+03  0.91477969608E+02 0.  0.
          4    1    3    3  502    0  0.31631068505E+03  0.25820394202E+03  0.40811651612E+01  0.40833611285E+03  0.00000000000E+00 0. -1.
         -3    1    3    3    0  502  0.70746473069E+02  0.32154684929E+02  0.29559274801E+02  0.83142876672E+02  0.00000000000E+00 0.  1.
         11    1    5    5    0    0  0.21537546274E+01 -0.95572462681E+01 -0.24775787703E+01  0.10105345704E+02  0.00000000000E+00 0.  1.
        -11    1    5    5    0    0 -0.46035669000E+03 -0.53878018189E+03  0.28520575067E+03  0.76390751184E+03  0.00000000000E+00 0. -1.
          1    1    6    6  503    0  0.16406536530E+02  0.20735575766E+03  0.68595252130E+01  0.20811688486E+03  0.00000000000E+00 0. -1.
         -1    1    6    6    0  503  0.54739240721E+02  0.50623043550E+02  0.95946909063E+01  0.75174032129E+02  0.00000000000E+00 0.  1.
<mgrwt>
<rscale>  0 0.15125994E+04</rscale>
<asrwt>0</asrwt>
<pdfrwt beam="1">  1        2 0.14473889E+00 0.15125994E+04</pdfrwt>
<pdfrwt beam="2">  1       -1 0.93535379E-01 0.15125994E+04</pdfrwt>
<totfact> 0.33635332E+01</totfact>
</mgrwt>
</event>
<event>
12    6  0.1627636E-007  0.1551559E+04  0.7818608E-02  0.8850873E-01
          2   -1    0    0  501    0  0.00000000000E+00  0.00000000000E+00  0.14414742902E+04  0.14414742902E+04  0.00000000000E+00 0. -1.
         -1   -1    0    0    0  501 -0.00000000000E+00 -0.00000000000E+00 -0.41751268818E+03  0.41751268818E+03  0.00000000000E+00 0.  1.
         24    2    1    2    0    0  0.42690284773E+03  0.12494513403E+03  0.62284283186E+03  0.76939041960E+03  0.78556327896E+02 0.  0.
        254    2    1    2    0    0 -0.42690284773E+03 -0.12494513403E+03  0.40111877018E+03  0.10895965588E+04  0.91020166186E+03 0.  0.
         23    2    4    4    0    0 -0.55308989469E+03 -0.18537979857E+03  0.59198545640E+03  0.83602157370E+03  0.90615615529E+02 0.  0.
         23    2    4    4    0    0  0.12618704696E+03  0.60434664537E+02 -0.19086668622E+03  0.25357498510E+03  0.91075033135E+02 0.  0.
          2    1    3    3  502    0  0.36882202419E+03  0.82225225828E+02  0.54611457623E+03  0.66410225392E+03  0.00000000000E+00 0. -1.
         -1    1    3    3    0  502  0.58080823538E+02  0.42719908204E+02  0.76728255630E+02  0.10528816568E+03  0.00000000000E+00 0.  1.
         11    1    5    5    0    0 -0.15740255592E+02  0.94481315620E+01  0.24083862786E+02  0.30282920645E+02  0.00000000000E+00 0.  1.
        -11    1    5    5    0    0 -0.53734963910E+03 -0.19482793013E+03  0.56790159361E+03  0.80573865305E+03  0.00000000000E+00 0. -1.
          4    1    6    6  503    0  0.55867647485E+02  0.51787553990E+02 -0.38091251103E+02  0.85170935150E+02  0.00000000000E+00 0. -1.
         -4    1    6    6    0  503  0.70319399477E+02  0.86471105466E+01 -0.15277543512E+03  0.16840404995E+03  0.00000000000E+00 0.  1.
<mgrwt>
<rscale>  0 0.15515590E+04</rscale>
<asrwt>0</asrwt>
<pdfrwt beam="1">  1        2 0.22176527E+00 0.15515590E+04</pdfrwt>
<pdfrwt beam="2">  1       -1 0.64232722E-01 0.15515590E+04</pdfrwt>
<totfact> 0.36939124E+01</totfact>
</mgrwt>
</event>
<event>
12    6  0.1627636E-007  0.1934435E+04  0.7818608E-02  0.8637903E-01
          2   -1    0    0  501    0  0.00000000000E+00  0.00000000000E+00  0.29092722998E+04  0.29092722998E+04  0.00000000000E+00 0. -1.
         -1   -1    0    0    0  501 -0.00000000000E+00 -0.00000000000E+00 -0.32156130842E+03  0.32156130842E+03  0.00000000000E+00 0.  1.
         24    2    1    2    0    0  0.17345850762E+03 -0.64789030051E+03  0.43319573042E+03  0.80245955488E+03  0.80206614452E+02 0.  0.
        254    2    1    2    0    0 -0.17345850762E+03  0.64789030051E+03  0.21545152610E+04  0.24283740533E+04  0.89733763872E+03 0.  0.
         23    2    4    4    0    0  0.60530299929E+02  0.60578636512E+03  0.62215120541E+03  0.87517738474E+03  0.90676871305E+02 0.  0.
         23    2    4    4    0    0 -0.23398880755E+03  0.42103935387E+02  0.15323640555E+04  0.15531966686E+04  0.88072635767E+02 0.  0.
          4    1    3    3  502    0  0.59592658792E+02 -0.16288068412E+03  0.15056888301E+03  0.22967888622E+03  0.00000000000E+00 0. -1.
         -3    1    3    3    0  502  0.11386584883E+03 -0.48500961639E+03  0.28262684741E+03  0.57278066866E+03  0.00000000000E+00 0.  1.
         11    1    5    5    0    0  0.41177760141E+02  0.52166910903E+03  0.57240899461E+03  0.77555549406E+03  0.00000000000E+00 0. -1.
        -11    1    5    5    0    0  0.19352539788E+02  0.84117256090E+02  0.49742210800E+02  0.99621890684E+02  0.00000000000E+00 0.  1.
          2    1    6    6  503    0 -0.14842678529E+03 -0.13150717957E+02  0.79663563355E+03  0.81045159302E+03  0.00000000000E+00 0. -1.
         -2    1    6    6    0  503 -0.85562022258E+02  0.55254653344E+02  0.73572842199E+03  0.74274507558E+03  0.00000000000E+00 0.  1.
<mgrwt>
<rscale>  0 0.19344347E+04</rscale>
<asrwt>0</asrwt>
<pdfrwt beam="1">  1        2 0.44758034E+00 0.19344347E+04</pdfrwt>
<pdfrwt beam="2">  1       -1 0.49470973E-01 0.19344347E+04</pdfrwt>
<totfact> 0.86549723E+00</totfact>
</mgrwt>
</event>
<event>
12    6  0.1627636E-007  0.1899874E+04  0.7818608E-02  0.8654919E-01
         -1   -1    0    0    0  501 -0.00000000000E+00  0.00000000000E+00  0.42791808696E+03  0.42791808696E+03  0.00000000000E+00 0.  1.
          2   -1    0    0  501    0  0.00000000000E+00 -0.00000000000E+00 -0.21087694639E+04  0.21087694639E+04  0.00000000000E+00 0. -1.
         24    2    1    2    0    0 -0.32544204573E+03 -0.32983734801E+03  0.11174380303E+03  0.48315550046E+03  0.79040235577E+02 0.  0.
        254    2    1    2    0    0  0.32544204573E+03  0.32983734801E+03 -0.17925951800E+04  0.20535320504E+04  0.88819547482E+03 0.  0.
         23    2    4    4    0    0  0.44750322440E+03  0.19154453058E+03 -0.37507002365E+03  0.62114001257E+03  0.90492814797E+02 0.  0.
         23    2    4    4    0    0 -0.12206117867E+03  0.13829281744E+03 -0.14175251564E+04  0.14323920379E+04  0.91353962947E+02 0.  0.
          4    1    3    3  502    0 -0.23296068118E+03 -0.25037015762E+03  0.11606068064E+03  0.36114536740E+03  0.00000000000E+00 0. -1.
         -3    1    3    3    0  502 -0.92481364555E+02 -0.79467190394E+02 -0.43168776155E+01  0.12201013307E+03  0.00000000000E+00 0.  1.
         11    1    5    5    0    0  0.94981563994E+02  0.81003888598E+02 -0.11070951037E+03  0.16685239930E+03  0.00000000000E+00 0.  1.
        -11    1    5    5    0    0  0.35252166040E+03  0.11054064198E+03 -0.26436051328E+03  0.45428761326E+03  0.00000000000E+00 0. -1.
          2    1    6    6  503    0 -0.11876437364E+03  0.91975096676E+02 -0.86741841487E+03  0.88032897335E+03  0.00000000000E+00 0. -1.
         -2    1    6    6    0  503 -0.32968050274E+01  0.46317720762E+02 -0.55010674148E+03  0.55206306452E+03  0.00000000000E+00 0.  1.
<mgrwt>
<rscale>  0 0.18998743E+04</rscale>
<asrwt>0</asrwt>
<pdfrwt beam="1">  1        2 0.32442608E+00 0.18998743E+04</pdfrwt>
<pdfrwt beam="2">  1       -1 0.65833550E-01 0.18998743E+04</pdfrwt>
<totfact> 0.14490093E+01</totfact>
</mgrwt>
</event>
<event>
12    6  0.1627636E-007  0.2720031E+04  0.7818608E-02  0.8328535E-01
          2   -1    0    0  501    0  0.00000000000E+00  0.00000000000E+00  0.29273308357E+04  0.29273308357E+04  0.00000000000E+00 0. -1.
         -1   -1    0    0    0  501 -0.00000000000E+00 -0.00000000000E+00 -0.63185268348E+03  0.63185268348E+03  0.00000000000E+00 0.  1.
         24    2    1    2    0    0 -0.16741775427E+03  0.72832725665E+03  0.22722054406E+04  0.23933387907E+04  0.81631520963E+02 0.  0.
        254    2    1    2    0    0  0.16741775427E+03 -0.72832725665E+03  0.23272711551E+02  0.11658447285E+04  0.89451831429E+03 0.  0.
         23    2    4    4    0    0  0.84943247127E+02 -0.91804700556E+03 -0.51198536589E+02  0.92804600542E+03  0.92857085734E+02 0.  0.
         23    2    4    4    0    0  0.82474507146E+02  0.18971974892E+03  0.74471248140E+02  0.23779872306E+03  0.90590498584E+02 0.  0.
          4    1    3    3  502    0 -0.16543418677E+03  0.72264568023E+03  0.22139189820E+04  0.23347424929E+04  0.00000000000E+00 0. -1.
         -3    1    3    3    0  502 -0.19835674996E+01  0.56815764182E+01  0.58286458676E+02  0.58596297798E+02  0.00000000000E+00 0.  1.
         11    1    5    5    0    0 -0.29579031321E+01 -0.31126820344E+02  0.14290124850E+02  0.34377838848E+02  0.00000000000E+00 0.  1.
        -11    1    5    5    0    0  0.87901150259E+02 -0.88692018522E+03 -0.65488661439E+02  0.89366816657E+03  0.00000000000E+00 0. -1.
          3    1    6    6  503    0  0.97782621578E+02  0.16639309313E+03  0.80733903035E+02  0.20920340729E+03  0.00000000000E+00 0. -1.
         -3    1    6    6    0  503 -0.15308114433E+02  0.23326655789E+02 -0.62626548953E+01  0.28595315773E+02  0.00000000000E+00 0.  1.
<mgrwt>
<rscale>  0 0.27200308E+04</rscale>
<asrwt>0</asrwt>
<pdfrwt beam="1">  1        2 0.45035858E+00 0.27200308E+04</pdfrwt>
<pdfrwt beam="2">  1       -1 0.97208107E-01 0.27200308E+04</pdfrwt>
<totfact> 0.19554008E+00</totfact>
</mgrwt>
</event>
<event>
12    6  0.1627636E-007  0.1776170E+04  0.7818608E-02  0.8719076E-01
          2   -1    0    0  501    0  0.00000000000E+00  0.00000000000E+00  0.29789666529E+04  0.29789666529E+04  0.00000000000E+00 0. -1.
         -1   -1    0    0    0  501 -0.00000000000E+00 -0.00000000000E+00 -0.26475443023E+03  0.26475443023E+03  0.00000000000E+00 0.  1.
         24    2    1    2    0    0  0.15651703647E+03 -0.31241478595E+02  0.21680039015E+04  0.21753154301E+04  0.79263427062E+02 0.  0.
        254    2    1    2    0    0 -0.15651703647E+03  0.31241478595E+02  0.54620832115E+03  0.10684056530E+04  0.90425300475E+03 0.  0.
         23    2    4    4    0    0 -0.44161500310E+03 -0.23632484751E+03  0.23732991748E+03  0.56157908398E+03  0.90400958615E+02 0.  0.
         23    2    4    4    0    0  0.28509796663E+03  0.26756632611E+03  0.30887840367E+03  0.50682656903E+03  0.92707676983E+02 0.  0.
          2    1    3    3  502    0  0.15084557462E+03 -0.40111802087E+02  0.21344255887E+04  0.21401252154E+04  0.00000000000E+00 0. -1.
         -1    1    3    3    0  502  0.56714618431E+01  0.88703234919E+01  0.33578312790E+02  0.35190214664E+02  0.00000000000E+00 0.  1.
         11    1    5    5    0    0 -0.42109421057E+03 -0.23500385434E+03  0.20664714183E+03  0.52464291376E+03  0.00000000000E+00 0.  1.
        -11    1    5    5    0    0 -0.20520792527E+02 -0.13209931706E+01  0.30682775649E+02  0.36936170219E+02  0.00000000000E+00 0. -1.
          1    1    6    6  503    0  0.15115718623E+02  0.12936008639E+02 -0.52905451985E+01  0.20586770934E+02  0.00000000000E+00 0. -1.
         -1    1    6    6    0  503  0.26998224801E+03  0.25463031747E+03  0.31416894887E+03  0.48623979809E+03  0.00000000000E+00 0.  1.
<mgrwt>
<rscale>  0 0.17761696E+04</rscale>
<asrwt>0</asrwt>
<pdfrwt beam="1">  1        2 0.45830254E+00 0.17761696E+04</pdfrwt>
<pdfrwt beam="2">  1       -1 0.40731453E-01 0.17761696E+04</pdfrwt>
<totfact> 0.11431759E+01</totfact>
</mgrwt>
</event>
<event>
12    6  0.1627636E-007  0.1475817E+04  0.7818608E-02  0.8900695E-01
          2   -1    0    0  501    0  0.00000000000E+00  0.00000000000E+00  0.96305874453E+03  0.96305874453E+03  0.00000000000E+00 0. -1.
         -1   -1    0    0    0  501 -0.00000000000E+00 -0.00000000000E+00 -0.56539562237E+03  0.56539562237E+03  0.00000000000E+00 0.  1.
         24    2    1    2    0    0  0.27823420647E+00  0.26999454462E+03  0.47921809786E+03  0.55584181333E+03  0.80081237462E+02 0.  0.
        254    2    1    2    0    0 -0.27823420647E+00 -0.26999454462E+03 -0.81554975693E+02  0.97261255357E+03  0.93082051640E+03 0.  0.
         23    2    4    4    0    0 -0.26850966208E+03  0.23481031395E+03  0.68844724898E+02  0.37451566301E+03  0.91044294286E+02 0.  0.
         23    2    4    4    0    0  0.26823142788E+03 -0.50480485857E+03 -0.15039970059E+03  0.59809689056E+03  0.91234732582E+02 0.  0.
          2    1    3    3  502    0 -0.27347175789E+02  0.19990424704E+03  0.38974940593E+03  0.43887831507E+03  0.00000000000E+00 0. -1.
         -1    1    3    3    0  502  0.27625409995E+02  0.70090297572E+02  0.89468691924E+02  0.11696349826E+03  0.00000000000E+00 0.  1.
         11    1    5    5    0    0 -0.16170141461E+03  0.19640627367E+03  0.41552703115E+02  0.25777780929E+03  0.00000000000E+00 0.  1.
        -11    1    5    5    0    0 -0.10680824747E+03  0.38404040275E+02  0.27292021783E+02  0.11673785372E+03  0.00000000000E+00 0. -1.
          2    1    6    6  503    0  0.10586322335E+03 -0.28424394597E+03 -0.10174886917E+03  0.31992885968E+03  0.00000000000E+00 0. -1.
         -2    1    6    6    0  503  0.16236820453E+03 -0.22056091259E+03 -0.48650831418E+02  0.27816803088E+03  0.00000000000E+00 0.  1.
<mgrwt>
<rscale>  0 0.14758173E+04</rscale>
<asrwt>0</asrwt>
<pdfrwt beam="1">  1        2 0.14816288E+00 0.14758173E+04</pdfrwt>
<pdfrwt beam="2">  1       -1 0.86983942E-01 0.14758173E+04</pdfrwt>
<totfact> 0.38286957E+01</totfact>
</mgrwt>
</event>
<event>
12    6  0.1627636E-007  0.1646094E+04  0.7818608E-02  0.8792721E-01
         -3   -1    0    0    0  501 -0.00000000000E+00  0.00000000000E+00  0.12488088167E+04  0.12488088167E+04  0.00000000000E+00 0.  1.
          4   -1    0    0  501    0  0.00000000000E+00 -0.00000000000E+00 -0.54244200631E+03  0.54244200631E+03  0.00000000000E+00 0. -1.
         24    2    1    2    0    0  0.10729923526E+03  0.22115991903E+03 -0.31579773778E+03  0.40818631330E+03  0.80392907094E+02 0.  0.
        254    2    1    2    0    0 -0.10729923526E+03 -0.22115991903E+03  0.10221645482E+04  0.13830645097E+04  0.89867805070E+03 0.  0.
         23    2    4    4    0    0  0.27557096675E+03 -0.39880018081E+03  0.45955565690E+03  0.67375704923E+03  0.88182864930E+02 0.  0.
         23    2    4    4    0    0 -0.38287020201E+03  0.17764026178E+03  0.56260889129E+03  0.70930746050E+03  0.91883920034E+02 0.  0.
          2    1    3    3  502    0  0.15652300690E+02  0.11875719783E+03 -0.12589386079E+03  0.17377436732E+03  0.00000000000E+00 0. -1.
         -1    1    3    3    0  502  0.91646934571E+02  0.10240272121E+03 -0.18990387699E+03  0.23441194599E+03  0.00000000000E+00 0.  1.
         11    1    5    5    0    0  0.10127721852E+03 -0.12746536867E+03  0.21148942831E+03  0.26689374944E+03  0.00000000000E+00 0.  1.
        -11    1    5    5    0    0  0.17429374824E+03 -0.27133481214E+03  0.24806622859E+03  0.40686329979E+03  0.00000000000E+00 0. -1.
          3    1    6    6  503    0 -0.15280907863E+03  0.75478557612E+02  0.30334348931E+03  0.34794381684E+03  0.00000000000E+00 0. -1.
         -3    1    6    6    0  503 -0.23006112339E+03  0.10216170417E+03  0.25926540198E+03  0.36136364366E+03  0.00000000000E+00 0.  1.
<mgrwt>
<rscale>  0 0.16460940E+04</rscale>
<asrwt>0</asrwt>
<pdfrwt beam="1">  1        4 0.83452616E-01 0.16460940E+04</pdfrwt>
<pdfrwt beam="2">  1       -3 0.19212443E+00 0.16460940E+04</pdfrwt>
<totfact> 0.45341100E-01</totfact>
</mgrwt>
</event>
<event>
12    6  0.1627636E-007  0.3543968E+04  0.7818608E-02  0.8103448E-01
          2   -1    0    0  501    0  0.00000000000E+00  0.00000000000E+00  0.11794186624E+04  0.11794186624E+04  0.00000000000E+00 0. -1.
         -1   -1    0    0    0  501 -0.00000000000E+00 -0.00000000000E+00 -0.26622674776E+04  0.26622674776E+04  0.00000000000E+00 0.  1.
         24    2    1    2    0    0  0.14254678050E+04 -0.12873231936E+03  0.21140372655E+03  0.14486697225E+04  0.73633933149E+02 0.  0.
        254    2    1    2    0    0 -0.14254678050E+04  0.12873231936E+03 -0.16942525417E+04  0.23930164176E+04  0.89861305723E+03 0.  0.
         23    2    4    4    0    0 -0.81281395882E+03  0.19181301014E+03 -0.34774985527E+03  0.90956404345E+03  0.94435294160E+02 0.  0.
         23    2    4    4    0    0 -0.61265384616E+03 -0.63080690779E+02 -0.13465026864E+04  0.14834523741E+04  0.90760966171E+02 0.  0.
          2    1    3    3  502    0  0.96071920811E+03 -0.72173665831E+02  0.17387241299E+03  0.97899032215E+03  0.00000000000E+00 0. -1.
         -1    1    3    3    0  502  0.46474859687E+03 -0.56558653529E+02  0.37531313562E+02  0.46967940031E+03  0.00000000000E+00 0.  1.
         11    1    5    5    0    0 -0.58343263718E+03  0.11950072106E+03 -0.20477937759E+03  0.62976873370E+03  0.00000000000E+00 0. -1.
        -11    1    5    5    0    0 -0.22938132164E+03  0.72312289077E+02 -0.14297047768E+03  0.27979530975E+03  0.00000000000E+00 0.  1.
          3    1    6    6  503    0 -0.31956790934E+03  0.10675639133E+02 -0.72401862361E+03  0.79147999677E+03  0.00000000000E+00 0. -1.
         -3    1    6    6    0  503 -0.29308593683E+03 -0.73756329913E+02 -0.62248406281E+03  0.69197237735E+03  0.00000000000E+00 0.  1.
<mgrwt>
<rscale>  0 0.35439684E+04</rscale>
<asrwt>0</asrwt>
<pdfrwt beam="1">  1        2 0.18144902E+00 0.35439684E+04</pdfrwt>
<pdfrwt beam="2">  1       -1 0.40957962E+00 0.35439684E+04</pdfrwt>
<totfact> 0.11169333E-01</totfact>
</mgrwt>
</event>
<event>
12    6  0.1627636E-007  0.1963904E+04  0.7818608E-02  0.8623685E-01
         -1   -1    0    0    0  501 -0.00000000000E+00  0.00000000000E+00  0.71844512400E+03  0.71844512400E+03  0.00000000000E+00 0.  1.
          2   -1    0    0  501    0  0.00000000000E+00 -0.00000000000E+00 -0.13421060762E+04  0.13421060762E+04  0.00000000000E+00 0. -1.
         24    2    1    2    0    0 -0.15456602624E+03  0.69100763822E+02  0.54360998767E+03  0.57489941707E+03  0.79573544779E+02 0.  0.
        254    2    1    2    0    0  0.15456602624E+03 -0.69100763822E+02 -0.11672709399E+04  0.14856517831E+04  0.90331290350E+03 0.  0.
         23    2    4    4    0    0  0.74997989467E+02 -0.19519834228E+03 -0.12652194885E+04  0.12855649561E+04  0.90387006692E+02 0.  0.
         23    2    4    4    0    0  0.79568036773E+02  0.12609757846E+03  0.97948548674E+02  0.20008682701E+03  0.90604350811E+02 0.  0.
          2    1    3    3  502    0 -0.74312476630E+02 -0.38513730832E+01  0.16384097747E+03  0.17994733439E+03  0.00000000000E+00 0. -1.
         -1    1    3    3    0  502 -0.80253549611E+02  0.72952136905E+02  0.37976901020E+03  0.39495208268E+03  0.00000000000E+00 0.  1.
         11    1    5    5    0    0  0.47939821095E+02 -0.10384885913E+03 -0.93201881170E+03  0.93901111673E+03  0.00000000000E+00 0.  1.
        -11    1    5    5    0    0  0.27058168372E+02 -0.91349483158E+02 -0.33320067683E+03  0.34655383938E+03  0.00000000000E+00 0. -1.
          3    1    6    6  503    0  0.36374869438E+02  0.11158143658E+03  0.10041036081E+03  0.15445319250E+03  0.00000000000E+00 0. -1.
         -3    1    6    6    0  503  0.43193167335E+02  0.14516141885E+02 -0.24618121367E+01  0.45633634511E+02  0.00000000000E+00 0.  1.
<mgrwt>
<rscale>  0 0.19639038E+04</rscale>
<asrwt>0</asrwt>
<pdfrwt beam="1">  1        2 0.20647786E+00 0.19639038E+04</pdfrwt>
<pdfrwt beam="2">  1       -1 0.11053002E+00 0.19639038E+04</pdfrwt>
<totfact> 0.12521941E+01</totfact>
</mgrwt>
</event>
<event>
12    6  0.1627636E-007  0.1071205E+04  0.7818608E-02  0.9233721E-01
          4   -1    0    0  501    0  0.00000000000E+00  0.00000000000E+00  0.54907797374E+03  0.54907797374E+03  0.00000000000E+00 0. -1.
         -3   -1    0    0    0  501 -0.00000000000E+00 -0.00000000000E+00 -0.52245804099E+03  0.52245804099E+03  0.00000000000E+00 0.  1.
         24    2    1    2    0    0 -0.10456838612E+03 -0.43653260781E+02  0.12156253726E+03  0.18435173523E+03  0.79799481598E+02 0.  0.
        254    2    1    2    0    0  0.10456838612E+03  0.43653260781E+02 -0.94942604500E+02  0.88718427950E+03  0.87478094006E+03 0.  0.
         23    2    4    4    0    0  0.33042449317E+03  0.15148089221E+03  0.25026665428E+03  0.45092328374E+03  0.92582952956E+02 0.  0.
         23    2    4    4    0    0 -0.22585610705E+03 -0.10782763143E+03 -0.34520925878E+03  0.43626099577E+03  0.92284586409E+02 0.  0.
          4    1    3    3  502    0 -0.11391523402E+03 -0.25708227152E+02  0.11259679422E+03  0.16222093439E+03  0.00000000000E+00 0. -1.
         -3    1    3    3    0  502  0.93468478981E+01 -0.17945033629E+02  0.89657430418E+01  0.22130800841E+02  0.00000000000E+00 0.  1.
         11    1    5    5    0    0  0.29740588968E+03  0.15651993775E+03  0.20163209651E+03  0.39192378911E+03  0.00000000000E+00 0. -1.
        -11    1    5    5    0    0  0.33018603496E+02 -0.50390455372E+01  0.48634557770E+02  0.58999494627E+02  0.00000000000E+00 0.  1.
          2    1    6    6  503    0 -0.53415131513E+02  0.97664203385E+01 -0.10370567754E+03  0.11706163673E+03  0.00000000000E+00 0.  1.
         -2    1    6    6    0  503 -0.17244097554E+03 -0.11759405177E+03 -0.24150358124E+03  0.31919935904E+03  0.00000000000E+00 0. -1.
<mgrwt>
<rscale>  0 0.10712053E+04</rscale>
<asrwt>0</asrwt>
<pdfrwt beam="1">  1        4 0.84473534E-01 0.10712053E+04</pdfrwt>
<pdfrwt beam="2">  1       -3 0.80378160E-01 0.10712053E+04</pdfrwt>
<totfact> 0.40036583E+00</totfact>
</mgrwt>
</event>
<event>
12    6  0.1627636E-007  0.1902604E+04  0.7818608E-02  0.8653562E-01
          2   -1    0    0  501    0  0.00000000000E+00  0.00000000000E+00  0.15017966586E+04  0.15017966586E+04  0.00000000000E+00 0. -1.
         -1   -1    0    0    0  501 -0.00000000000E+00 -0.00000000000E+00 -0.60259492790E+03  0.60259492790E+03  0.00000000000E+00 0.  1.
         24    2    1    2    0    0  0.23870321734E+03  0.42942164963E+03  0.95911309442E+03  0.10807162983E+04  0.81655437088E+02 0.  0.
        254    2    1    2    0    0 -0.23870321734E+03 -0.42942164963E+03 -0.59911363672E+02  0.10236752882E+04  0.89606893994E+03 0.  0.
         23    2    4    4    0    0  0.19565938571E+03  0.11094053326E+03  0.15982666984E+03  0.29048232061E+03  0.90802076291E+02 0.  0.
         23    2    4    4    0    0 -0.43436260305E+03 -0.54036218290E+03 -0.21973803351E+03  0.73319296763E+03  0.92870688492E+02 0.  0.
          4    1    3    3  502    0  0.24522307577E+03  0.41868186469E+03  0.92877872268E+03  0.10478829975E+04  0.00000000000E+00 0. -1.
         -3    1    3    3    0  502 -0.65198584268E+01  0.10739784947E+02  0.30334371733E+02  0.32833300825E+02  0.00000000000E+00 0.  1.
         11    1    5    5    0    0  0.17212410362E+03  0.87995059691E+02  0.16855098940E+03  0.25647470364E+03  0.00000000000E+00 0. -1.
        -11    1    5    5    0    0  0.23535282082E+02  0.22945473573E+02 -0.87243195620E+01  0.34007616970E+02  0.00000000000E+00 0.  1.
          2    1    6    6  503    0 -0.40273728744E+03 -0.52655923568E+03 -0.19591931223E+03  0.69126429698E+03  0.00000000000E+00 0. -1.
         -2    1    6    6    0  503 -0.31625315604E+02 -0.13802947219E+02 -0.23818721286E+02  0.41928670653E+02  0.00000000000E+00 0.  1.
<mgrwt>
<rscale>  0 0.19026035E+04</rscale>
<asrwt>0</asrwt>
<pdfrwt beam="1">  1        2 0.23104564E+00 0.19026035E+04</pdfrwt>
<pdfrwt beam="2">  1       -1 0.92706912E-01 0.19026035E+04</pdfrwt>
<totfact> 0.15281867E+01</totfact>
</mgrwt>
</event>
<event>
12    6  0.1627636E-007  0.1374015E+04  0.7818608E-02  0.8972846E-01
         -1   -1    0    0    0  501 -0.00000000000E+00  0.00000000000E+00  0.20931509862E+04  0.20931509862E+04  0.00000000000E+00 0.  1.
          2   -1    0    0  501    0  0.00000000000E+00 -0.00000000000E+00 -0.22548737324E+03  0.22548737324E+03  0.00000000000E+00 0. -1.
         24    2    1    2    0    0 -0.34884521173E+03 -0.11619024126E+01  0.87073476584E+03  0.94135530365E+03  0.79224008393E+02 0.  0.
        254    2    1    2    0    0  0.34884521173E+03  0.11619024126E+01  0.99692884712E+03  0.13772830558E+04  0.88393843552E+03 0.  0.
         23    2    4    4    0    0  0.60967502836E+03 -0.86274039254E+02  0.48519927008E+03  0.78908940234E+03  0.89982793531E+02 0.  0.
         23    2    4    4    0    0 -0.26082981664E+03  0.87435941667E+02  0.51172957704E+03  0.58819365346E+03  0.91800745154E+02 0.  0.
          4    1    3    3  502    0  0.23430762677E+01  0.55965273206E+01  0.98373551484E+01  0.11557883922E+02  0.00000000000E+00 0. -1.
         -3    1    3    3    0  502 -0.35118828799E+03 -0.67584297332E+01  0.86089741069E+03  0.92979741973E+03  0.00000000000E+00 0.  1.
         11    1    5    5    0    0  0.14090517393E+03  0.17941373562E+02  0.10742464277E+03  0.17809046802E+03  0.00000000000E+00 0.  1.
        -11    1    5    5    0    0  0.46876985443E+03 -0.10421541282E+03  0.37777462731E+03  0.61099893432E+03  0.00000000000E+00 0. -1.
          4    1    6    6  503    0 -0.61631153675E+02  0.64959971700E+02  0.15868727050E+03  0.18220825131E+03  0.00000000000E+00 0. -1.
         -4    1    6    6    0  503 -0.19919866296E+03  0.22475969966E+02  0.35304230654E+03  0.40598540215E+03  0.00000000000E+00 0.  1.
<mgrwt>
<rscale>  0 0.13740147E+04</rscale>
<asrwt>0</asrwt>
<pdfrwt beam="1">  1        2 0.34690367E-01 0.13740147E+04</pdfrwt>
<pdfrwt beam="2">  1       -1 0.32202322E+00 0.13740147E+04</pdfrwt>
<totfact> 0.40319904E+00</totfact>
</mgrwt>
</event>
<event>
12    6  0.1627636E-007  0.1941032E+04  0.7818608E-02  0.8634698E-01
         -1   -1    0    0    0  501 -0.00000000000E+00  0.00000000000E+00  0.35837447651E+03  0.35837447651E+03  0.00000000000E+00 0.  1.
          2   -1    0    0  501    0  0.00000000000E+00 -0.00000000000E+00 -0.26282586883E+04  0.26282586883E+04  0.00000000000E+00 0. -1.
         24    2    1    2    0    0  0.44962686805E+03 -0.99336348886E+02 -0.18204297382E+04  0.18795310171E+04  0.81488536336E+02 0.  0.
        254    2    1    2    0    0 -0.44962686805E+03  0.99336348886E+02 -0.44945447354E+03  0.11071021477E+04  0.90090721556E+03 0.  0.
         23    2    4    4    0    0 -0.20571251971E+03 -0.48439674692E+02 -0.68757746749E+03  0.72514602359E+03  0.91705718914E+02 0.  0.
         23    2    4    4    0    0 -0.24391434834E+03  0.14777602358E+03  0.23812299395E+03  0.38195612414E+03  0.88633842562E+02 0.  0.
          4    1    3    3  502    0  0.42223343667E+03 -0.70940472423E+02 -0.16712840319E+04  0.17252547466E+04  0.00000000000E+00 0. -1.
         -3    1    3    3    0  502  0.27393431381E+02 -0.28395876463E+02 -0.14914570639E+03  0.15427627043E+03  0.00000000000E+00 0.  1.
         11    1    5    5    0    0 -0.12040666207E+02  0.16786490517E+02 -0.29111949832E+02  0.35696912046E+02  0.00000000000E+00 0.  1.
        -11    1    5    5    0    0 -0.19367185350E+03 -0.65226165209E+02 -0.65846551766E+03  0.68944911155E+03  0.00000000000E+00 0. -1.
          2    1    6    6  503    0 -0.12194864022E+03  0.76802014351E+02  0.63618520362E+02  0.15753519096E+03  0.00000000000E+00 0.  1.
         -2    1    6    6    0  503 -0.12196570813E+03  0.70974009227E+02  0.17450447359E+03  0.22442093318E+03  0.00000000000E+00 0. -1.
<mgrwt>
<rscale>  0 0.19410315E+04</rscale>
<asrwt>0</asrwt>
<pdfrwt beam="1">  1        2 0.40434748E+00 0.19410315E+04</pdfrwt>
<pdfrwt beam="2">  1       -1 0.55134537E-01 0.19410315E+04</pdfrwt>
<totfact> 0.10360923E+01</totfact>
</mgrwt>
</event>
<event>
12    6  0.1627636E-007  0.1263369E+04  0.7818608E-02  0.9059129E-01
          2   -1    0    0  501    0  0.00000000000E+00  0.00000000000E+00  0.13038157496E+04  0.13038157496E+04  0.00000000000E+00 0. -1.
         -1   -1    0    0    0  501 -0.00000000000E+00 -0.00000000000E+00 -0.30604419480E+03  0.30604419480E+03  0.00000000000E+00 0.  1.
         24    2    1    2    0    0  0.74600113419E+02  0.10235677880E+03 -0.10212737359E+03  0.18162466639E+03  0.80718225427E+02 0.  0.
        254    2    1    2    0    0 -0.74600113419E+02 -0.10235677880E+03  0.10998989284E+04  0.14282352780E+04  0.90223958547E+03 0.  0.
         23    2    4    4    0    0  0.36622305955E+03 -0.21400097687E+03  0.65358215662E+03  0.78471267724E+03  0.93212675744E+02 0.  0.
         23    2    4    4    0    0 -0.44082317297E+03  0.11164419807E+03  0.44631677177E+03  0.64352260077E+03  0.90184145746E+02 0.  0.
          4    1    3    3  502    0  0.20438426473E+01 -0.13338863130E+02 -0.70723329406E+01  0.15235499847E+02  0.00000000000E+00 0. -1.
         -3    1    3    3    0  502  0.72556270772E+02  0.11569564193E+03 -0.95055040647E+02  0.16638916654E+03  0.00000000000E+00 0.  1.
         11    1    5    5    0    0  0.74093383332E+02 -0.38592439035E+01  0.10228764102E+03  0.12636251312E+03  0.00000000000E+00 0. -1.
        -11    1    5    5    0    0  0.29212967622E+03 -0.21014173297E+03  0.55129451560E+03  0.65835016412E+03  0.00000000000E+00 0.  1.
          4    1    6    6  503    0 -0.21307431413E+03  0.17487872157E+02  0.24613896632E+03  0.32602282091E+03  0.00000000000E+00 0.  1.
         -4    1    6    6    0  503 -0.22774885884E+03  0.94156325914E+02  0.20017780545E+03  0.31749977986E+03  0.00000000000E+00 0. -1.
<mgrwt>
<rscale>  0 0.12633689E+04</rscale>
<asrwt>0</asrwt>
<pdfrwt beam="1">  1        2 0.20058704E+00 0.12633689E+04</pdfrwt>
<pdfrwt beam="2">  1       -1 0.47083723E-01 0.12633689E+04</pdfrwt>
<totfact> 0.82833263E+01</totfact>
</mgrwt>
</event>
<event>
12    6  0.1627636E-007  0.2221034E+04  0.7818608E-02  0.8509724E-01
         -1   -1    0    0    0  501 -0.00000000000E+00  0.00000000000E+00  0.18735560115E+04  0.18735560115E+04  0.00000000000E+00 0.  1.
          2   -1    0    0  501    0  0.00000000000E+00 -0.00000000000E+00 -0.65823919638E+03  0.65823919638E+03  0.00000000000E+00 0. -1.
         24    2    1    2    0    0  0.58339605034E+03  0.87329633129E+02 -0.31037528243E+03  0.67140947598E+03  0.80501255386E+02 0.  0.
        254    2    1    2    0    0 -0.58339605034E+03 -0.87329633129E+02  0.15256920975E+04  0.18603857319E+04  0.88618354673E+03 0.  0.
         23    2    4    4    0    0 -0.24089080164E+03 -0.18520269319E+03  0.28347853999E+02  0.31850363357E+03  0.91173175296E+02 0.  0.
         23    2    4    4    0    0 -0.34250524870E+03  0.97873060058E+02  0.14973442435E+04  0.15418820983E+04  0.92041513107E+02 0.  0.
          4    1    3    3  502    0  0.18425240263E+03  0.52327539709E+02 -0.13324898981E+03  0.23332897928E+03  0.00000000000E+00 0. -1.
         -3    1    3    3    0  502  0.39914364771E+03  0.35002093420E+02 -0.17712629262E+03  0.43808049670E+03  0.00000000000E+00 0.  1.
         11    1    5    5    0    0 -0.37185080207E+02 -0.25247662230E+02 -0.28655126180E+02  0.53303760604E+02  0.00000000000E+00 0. -1.
        -11    1    5    5    0    0 -0.20370572143E+03 -0.15995503096E+03  0.57002980180E+02  0.26519987297E+03  0.00000000000E+00 0.  1.
          3    1    6    6  503    0 -0.12136058665E+01 -0.80360978507E+01  0.14858462924E+02  0.16935927147E+02  0.00000000000E+00 0. -1.
         -3    1    6    6    0  503 -0.34129164283E+03  0.10590915791E+03  0.14824857806E+04  0.15249461712E+04  0.00000000000E+00 0.  1.
<mgrwt>
<rscale>  0 0.22210340E+04</rscale>
<asrwt>0</asrwt>
<pdfrwt beam="1">  1        2 0.10126757E+00 0.22210340E+04</pdfrwt>
<pdfrwt beam="2">  1       -1 0.28823938E+00 0.22210340E+04</pdfrwt>
<totfact> 0.18148740E+00</totfact>
</mgrwt>
</event>
<event>
12    6  0.1627636E-007  0.1644716E+04  0.7818608E-02  0.8793539E-01
          2   -1    0    0  501    0  0.00000000000E+00  0.00000000000E+00  0.71062486913E+03  0.71062486913E+03  0.00000000000E+00 0. -1.
         -1   -1    0    0    0  501 -0.00000000000E+00 -0.00000000000E+00 -0.95165882236E+03  0.95165882236E+03  0.00000000000E+00 0.  1.
         24    2    1    2    0    0 -0.55274501832E+03 -0.64145363075E+02 -0.22158119507E+03  0.60425739965E+03  0.79919310203E+02 0.  0.
        254    2    1    2    0    0  0.55274501832E+03  0.64145363075E+02 -0.19452758159E+02  0.10580262918E+04  0.89966635013E+03 0.  0.
         23    2    4    4    0    0  0.73195758378E+03 -0.13445280748E+03 -0.11704190877E+03  0.75870462153E+03  0.89969063749E+02 0.  0.
         23    2    4    4    0    0 -0.17921256546E+03  0.19859817055E+03  0.97589150606E+02  0.29932167031E+03  0.92257482279E+02 0.  0.
          2    1    3    3  502    0 -0.44168394318E+03 -0.46591097025E+02 -0.20982515028E+03  0.49120467187E+03  0.00000000000E+00 0. -1.
         -1    1    3    3    0  502 -0.11106107514E+03 -0.17554266050E+02 -0.11756044791E+02  0.11305272778E+03  0.00000000000E+00 0.  1.
         11    1    5    5    0    0  0.30278384606E+03 -0.36682104455E+02 -0.88651826496E+02  0.31762049770E+03  0.00000000000E+00 0.  1.
        -11    1    5    5    0    0  0.42917373772E+03 -0.97770703021E+02 -0.28390082270E+02  0.44108412383E+03  0.00000000000E+00 0. -1.
          3    1    6    6  503    0 -0.14653938896E+03  0.16871456425E+03  0.40557895934E+02  0.22711965928E+03  0.00000000000E+00 0. -1.
         -3    1    6    6    0  503 -0.32673176502E+02  0.29883606302E+02  0.57031254672E+02  0.72202011037E+02  0.00000000000E+00 0.  1.
<mgrwt>
<rscale>  0 0.16447157E+04</rscale>
<asrwt>0</asrwt>
<pdfrwt beam="1">  1        2 0.10932690E+00 0.16447157E+04</pdfrwt>
<pdfrwt beam="2">  1       -1 0.14640905E+00 0.16447157E+04</pdfrwt>
<totfact> 0.16335767E+01</totfact>
</mgrwt>
</event>
<event>
12    6  0.1627636E-007  0.1690782E+04  0.7818608E-02  0.8766639E-01
          2   -1    0    0  501    0  0.00000000000E+00  0.00000000000E+00  0.12632614316E+04  0.12632614316E+04  0.00000000000E+00 0. -1.
         -1   -1    0    0    0  501 -0.00000000000E+00 -0.00000000000E+00 -0.56574674450E+03  0.56574674450E+03  0.00000000000E+00 0.  1.
         24    2    1    2    0    0 -0.77656933069E+02  0.48093379563E+03 -0.10193203379E+03  0.50404543051E+03  0.79647608106E+02 0.  0.
        254    2    1    2    0    0  0.77656933069E+02 -0.48093379563E+03  0.79944672088E+03  0.13249627456E+04  0.93759442329E+03 0.  0.
         23    2    4    4    0    0 -0.64725152622E+02 -0.17050643944E+03 -0.18709416187E+03  0.27690364243E+03  0.91703928535E+02 0.  0.
         23    2    4    4    0    0  0.14238208569E+03 -0.31042735619E+03  0.98654088275E+03  0.10480591031E+04  0.92342669110E+02 0.  0.
          2    1    3    3  502    0 -0.19425851153E+02  0.14357935422E+03 -0.67918620149E+02  0.16001666668E+03  0.00000000000E+00 0. -1.
         -1    1    3    3    0  502 -0.58231081916E+02  0.33735444141E+03 -0.34013413638E+02  0.34402876384E+03  0.00000000000E+00 0.  1.
         11    1    5    5    0    0 -0.43504997719E+02 -0.12936818956E+03 -0.75244899557E+02  0.15585444557E+03  0.00000000000E+00 0. -1.
        -11    1    5    5    0    0 -0.21220154903E+02 -0.41138249884E+02 -0.11184926232E+03  0.12104919685E+03  0.00000000000E+00 0.  1.
          3    1    6    6  503    0  0.12883064113E+03 -0.17547572594E+03  0.63368687262E+03  0.67003590726E+03  0.00000000000E+00 0. -1.
         -3    1    6    6    0  503  0.13551444557E+02 -0.13495163024E+03  0.35285401013E+03  0.37802319588E+03  0.00000000000E+00 0.  1.
<mgrwt>
<rscale>  0 0.16907821E+04</rscale>
<asrwt>0</asrwt>
<pdfrwt beam="1">  1        2 0.19434791E+00 0.16907821E+04</pdfrwt>
<pdfrwt beam="2">  1       -1 0.87037961E-01 0.16907821E+04</pdfrwt>
<totfact> 0.24523261E+01</totfact>
</mgrwt>
</event>
<event>
12    6  0.1627636E-007  0.2486535E+04  0.7818608E-02  0.8407798E-01
          2   -1    0    0  501    0  0.00000000000E+00  0.00000000000E+00  0.41313438186E+04  0.41313438186E+04  0.00000000000E+00 0. -1.
         -1   -1    0    0    0  501 -0.00000000000E+00 -0.00000000000E+00 -0.37414314481E+03  0.37414314481E+03  0.00000000000E+00 0.  1.
         24    2    1    2    0    0 -0.72368619216E+03 -0.34286323176E+03  0.29492933415E+04  0.30571096026E+04  0.79441851531E+02 0.  0.
        254    2    1    2    0    0  0.72368619216E+03  0.34286323176E+03  0.80790733227E+03  0.14483773608E+04  0.89655218546E+03 0.  0.
         23    2    4    4    0    0  0.62481016092E+03 -0.13189803452E+03  0.68278264742E+03  0.93927783445E+03  0.90916874031E+02 0.  0.
         23    2    4    4    0    0  0.98876031239E+02  0.47476126628E+03  0.12512468485E+03  0.50909952632E+03  0.91386057094E+02 0.  0.
          2    1    3    3  502    0 -0.61251153736E+03 -0.31841683407E+03  0.24903851366E+04  0.25842944477E+04  0.00000000000E+00 0. -1.
         -1    1    3    3    0  502 -0.11117465479E+03 -0.24446397693E+02  0.45890820489E+03  0.47281515494E+03  0.00000000000E+00 0.  1.
         11    1    5    5    0    0  0.36425144791E+01 -0.30456549942E+01  0.24910006039E+02  0.25358476431E+02  0.00000000000E+00 0. -1.
        -11    1    5    5    0    0  0.62116764644E+03 -0.12885237952E+03  0.65787264138E+03  0.91391935802E+03  0.00000000000E+00 0.  1.
          4    1    6    6  503    0  0.11305817458E+02  0.68996147716E+01 -0.71823345533E+01  0.15066921451E+02  0.00000000000E+00 0. -1.
         -4    1    6    6    0  503  0.87570213782E+02  0.46786165151E+03  0.13230701941E+03  0.49403260487E+03  0.00000000000E+00 0.  1.
<mgrwt>
<rscale>  0 0.24865349E+04</rscale>
<asrwt>0</asrwt>
<pdfrwt beam="1">  1        2 0.63559133E+00 0.24865349E+04</pdfrwt>
<pdfrwt beam="2">  1       -1 0.57560487E-01 0.24865349E+04</pdfrwt>
<totfact> 0.83019642E-01</totfact>
</mgrwt>
</event>
<event>
12    6  0.1627636E-007  0.1722979E+04  0.7818608E-02  0.8748366E-01
          2   -1    0    0  501    0  0.00000000000E+00  0.00000000000E+00  0.18173535853E+04  0.18173535853E+04  0.00000000000E+00 0. -1.
         -1   -1    0    0    0  501 -0.00000000000E+00 -0.00000000000E+00 -0.40837647603E+03  0.40837647603E+03  0.00000000000E+00 0.  1.
         24    2    1    2    0    0 -0.39230269948E+03  0.40661832423E+02 -0.11379510038E+03  0.41821713061E+03  0.80009067167E+02 0.  0.
        254    2    1    2    0    0  0.39230269948E+03 -0.40661832423E+02  0.15227722097E+04  0.18075129308E+04  0.89034431522E+03 0.  0.
         23    2    4    4    0    0  0.64410714425E+03 -0.17539464728E+03  0.10632392293E+04  0.12586661273E+04  0.90141364752E+02 0.  0.
         23    2    4    4    0    0 -0.25180444477E+03  0.13473281486E+03  0.45953298040E+03  0.54884680350E+03  0.92216288330E+02 0.  0.
          2    1    3    3  502    0  0.35192561770E+01  0.48128753374E+00  0.16977786052E+01  0.39369091838E+01  0.00000000000E+00 0. -1.
         -1    1    3    3    0  502 -0.39582195566E+03  0.40180544889E+02 -0.11549287899E+03  0.41428022142E+03  0.00000000000E+00 0.  1.
         11    1    5    5    0    0  0.39508422709E+01  0.53646278871E+01  0.22873833884E+02  0.23824371211E+02  0.00000000000E+00 0. -1.
        -11    1    5    5    0    0  0.64015630198E+03 -0.18075927517E+03  0.10403653954E+04  0.12348417560E+04  0.00000000000E+00 0.  1.
          1    1    6    6  503    0 -0.17675056068E+03  0.12898083504E+03  0.38549158152E+03  0.44326129532E+03  0.00000000000E+00 0. -1.
         -1    1    6    6    0  503 -0.75053884097E+02  0.57519798177E+01  0.74041398876E+02  0.10558550818E+03  0.00000000000E+00 0.  1.
<mgrwt>
<rscale>  0 0.17229793E+04</rscale>
<asrwt>0</asrwt>
<pdfrwt beam="1">  1        2 0.27959285E+00 0.17229793E+04</pdfrwt>
<pdfrwt beam="2">  1       -1 0.62827151E-01 0.17229793E+04</pdfrwt>
<totfact> 0.23461196E+01</totfact>
</mgrwt>
</event>
<event>
12    6  0.1627636E-007  0.1199231E+04  0.7818608E-02  0.9113530E-01
         -1   -1    0    0    0  501 -0.00000000000E+00  0.00000000000E+00  0.26384440519E+03  0.26384440519E+03  0.00000000000E+00 0.  1.
          2   -1    0    0  501    0  0.00000000000E+00 -0.00000000000E+00 -0.13626928724E+04  0.13626928724E+04  0.00000000000E+00 0. -1.
         24    2    1    2    0    0 -0.22529700710E+03 -0.49182642540E+02 -0.39743813500E+03  0.46649399775E+03  0.80510279182E+02 0.  0.
        254    2    1    2    0    0  0.22529700710E+03  0.49182642540E+02 -0.70141033226E+03  0.11600432799E+04  0.89473252052E+03 0.  0.
         23    2    4    4    0    0  0.41046415008E+03 -0.19340821103E+03 -0.90970054636E+02  0.47146156210E+03  0.90071633221E+02 0.  0.
         23    2    4    4    0    0 -0.18516714298E+03  0.24259085357E+03 -0.61044027763E+03  0.68858171778E+03  0.91489105592E+02 0.  0.
          4    1    3    3  502    0 -0.15580282317E+03 -0.21246085306E+02 -0.19410852752E+03  0.24980799888E+03  0.00000000000E+00 0. -1.
         -3    1    3    3    0  502 -0.69494183926E+02 -0.27936557234E+02 -0.20332960748E+03  0.21668599887E+03  0.00000000000E+00 0.  1.
         11    1    5    5    0    0  0.39986903306E+03 -0.19127668953E+03 -0.71220121466E+02  0.44894801621E+03  0.00000000000E+00 0. -1.
        -11    1    5    5    0    0  0.10595117017E+02 -0.21315214954E+01 -0.19749933170E+02  0.22513545894E+02  0.00000000000E+00 0.  1.
          1    1    6    6  503    0 -0.13910178715E+03  0.18028251154E+03 -0.53022317455E+03  0.57705086950E+03  0.00000000000E+00 0. -1.
         -1    1    6    6    0  503 -0.46065355827E+02  0.62308342024E+02 -0.80217103075E+02  0.11153084828E+03  0.00000000000E+00 0.  1.
<mgrwt>
<rscale>  0 0.11992312E+04</rscale>
<asrwt>0</asrwt>
<pdfrwt beam="1">  1        2 0.20964506E+00 0.11992312E+04</pdfrwt>
<pdfrwt beam="2">  1       -1 0.40591447E-01 0.11992312E+04</pdfrwt>
<totfact> 0.10131348E+02</totfact>
</mgrwt>
</event>
<event>
12    6  0.1627636E-007  0.1350849E+04  0.7818608E-02  0.8990186E-01
         -1   -1    0    0    0  501 -0.00000000000E+00  0.00000000000E+00  0.31377010880E+03  0.31377010880E+03  0.00000000000E+00 0.  1.
          2   -1    0    0  501    0  0.00000000000E+00 -0.00000000000E+00 -0.14539253329E+04  0.14539253329E+04  0.00000000000E+00 0. -1.
         24    2    1    2    0    0  0.20674471071E+01  0.28058875184E+03 -0.64598855007E+03  0.70891495872E+03  0.80776790433E+02 0.  0.
        254    2    1    2    0    0 -0.20674471071E+01 -0.28058875184E+03 -0.49416667407E+03  0.10587804830E+04  0.89335384225E+03 0.  0.
         23    2    4    4    0    0 -0.29609197172E+03 -0.26190306323E+03 -0.60703971242E+03  0.73039138905E+03  0.93331122861E+02 0.  0.
         23    2    4    4    0    0  0.29402452461E+03 -0.18685688605E+02  0.11287303835E+03  0.32838909397E+03  0.91101581855E+02 0.  0.
          4    1    3    3  502    0  0.13094483320E+02  0.27041221284E+03 -0.63503850066E+03  0.69033913960E+03  0.00000000000E+00 0. -1.
         -1    1    3    3    0  502 -0.11027036213E+02  0.10176539001E+02 -0.10950049412E+02  0.18575819115E+02  0.00000000000E+00 0.  1.
         11    1    5    5    0    0 -0.18893360204E+03 -0.19867488205E+03 -0.34804731990E+03  0.44306269492E+03  0.00000000000E+00 0.  1.
        -11    1    5    5    0    0 -0.10715836968E+03 -0.63228181180E+02 -0.25899239252E+03  0.28732869413E+03  0.00000000000E+00 0. -1.
          2    1    6    6  503    0  0.41628167289E+02  0.23936026252E+02  0.39312887237E+02  0.62059171502E+02  0.00000000000E+00 0. -1.
         -2    1    6    6    0  503  0.25239635732E+03 -0.42621714858E+02  0.73560151115E+02  0.26632992246E+03  0.00000000000E+00 0.  1.
<mgrwt>
<rscale>  0 0.13508491E+04</rscale>
<asrwt>0</asrwt>
<pdfrwt beam="1">  1        2 0.22368082E+00 0.13508491E+04</pdfrwt>
<pdfrwt beam="2">  1       -1 0.48272324E-01 0.13508491E+04</pdfrwt>
<totfact> 0.64375107E+01</totfact>
</mgrwt>
</event>
<event>
12    6  0.1627636E-007  0.1434228E+04  0.7818608E-02  0.8929409E-01
          2   -1    0    0  501    0  0.00000000000E+00  0.00000000000E+00  0.95543656288E+03  0.95543656288E+03  0.00000000000E+00 0. -1.
         -1   -1    0    0    0  501 -0.00000000000E+00 -0.00000000000E+00 -0.53823820153E+03  0.53823820153E+03  0.00000000000E+00 0.  1.
         24    2    1    2    0    0  0.28637986203E+03  0.61426923409E+02  0.45622137747E+03  0.54803742245E+03  0.80127266601E+02 0.  0.
        254    2    1    2    0    0 -0.28637986203E+03 -0.61426923409E+02 -0.39023016119E+02  0.94563734196E+03  0.89828753438E+03 0.  0.
         23    2    4    4    0    0  0.37449966069E+02  0.34497921698E+03 -0.17648206618E+03  0.39970776503E+03  0.90593695349E+02 0.  0.
         23    2    4    4    0    0 -0.32382982809E+03 -0.40640614039E+03  0.13745905006E+03  0.54592957692E+03  0.95458912671E+02 0.  0.
          2    1    3    3  502    0  0.23669918438E+03  0.57580956756E+02  0.42306034037E+03  0.48818246800E+03  0.00000000000E+00 0. -1.
         -1    1    3    3    0  502  0.49680677649E+02  0.38459666534E+01  0.33161037099E+02  0.59854954453E+02  0.00000000000E+00 0.  1.
         11    1    5    5    0    0  0.10656937577E+02  0.21799113451E+03 -0.62621433868E+02  0.22705758966E+03  0.00000000000E+00 0.  1.
        -11    1    5    5    0    0  0.26793028492E+02  0.12698808247E+03 -0.11386063231E+03  0.17265017537E+03  0.00000000000E+00 0. -1.
          2    1    6    6  503    0 -0.79440693054E+02 -0.52727829197E+02  0.48292307361E+02  0.10687934616E+03  0.00000000000E+00 0. -1.
         -2    1    6    6    0  503 -0.24438913504E+03 -0.35367831119E+03  0.89166742699E+02  0.43905023077E+03  0.00000000000E+00 0.  1.
<mgrwt>
<rscale>  0 0.14342280E+04</rscale>
<asrwt>0</asrwt>
<pdfrwt beam="1">  1        2 0.14699024E+00 0.14342280E+04</pdfrwt>
<pdfrwt beam="2">  1       -1 0.82805877E-01 0.14342280E+04</pdfrwt>
<totfact> 0.43231437E+01</totfact>
</mgrwt>
</event>
<event>
12    6  0.1627636E-007  0.1525429E+04  0.7818608E-02  0.8867717E-01
         -1   -1    0    0    0  501 -0.00000000000E+00  0.00000000000E+00  0.57527249336E+03  0.57527249336E+03  0.00000000000E+00 0.  1.
          2   -1    0    0  501    0  0.00000000000E+00 -0.00000000000E+00 -0.10112306651E+04  0.10112306651E+04  0.00000000000E+00 0. -1.
         24    2    1    2    0    0 -0.13932690245E+03  0.12850005116E+03 -0.61220735755E+03  0.64595783800E+03  0.80866748025E+02 0.  0.
        254    2    1    2    0    0  0.13932690245E+03 -0.12850005116E+03  0.17624918579E+03  0.94054532048E+03  0.90423308693E+03 0.  0.
         23    2    4    4    0    0 -0.21113257689E+03 -0.38671594763E+03  0.20550536116E+03  0.49461464849E+03  0.91022018582E+02 0.  0.
         23    2    4    4    0    0  0.35045947934E+03  0.25821589647E+03 -0.29256175364E+02  0.44593067199E+03  0.92200567086E+02 0.  0.
          2    1    3    3  502    0 -0.12794597604E+03  0.13718388493E+03 -0.52333399099E+03  0.55593889699E+03  0.00000000000E+00 0. -1.
         -1    1    3    3    0  502 -0.11380926416E+02 -0.86838337712E+01 -0.88873366563E+02  0.90018941003E+02  0.00000000000E+00 0.  1.
         11    1    5    5    0    0 -0.13375903132E+03 -0.31869487382E+03  0.14247684629E+03  0.37384161458E+03  0.00000000000E+00 0. -1.
        -11    1    5    5    0    0 -0.77373545567E+02 -0.68021073806E+02  0.63028514865E+02  0.12077303392E+03  0.00000000000E+00 0.  1.
          2    1    6    6  503    0  0.10271326914E+03  0.47310010602E+02  0.25681392414E+02  0.11596459234E+03  0.00000000000E+00 0.  1.
         -2    1    6    6    0  503  0.24774621021E+03  0.21090588587E+03 -0.54937567779E+02  0.32996607965E+03  0.00000000000E+00 0. -1.
<mgrwt>
<rscale>  0 0.15254287E+04</rscale>
<asrwt>0</asrwt>
<pdfrwt beam="1">  1        2 0.15557395E+00 0.15254287E+04</pdfrwt>
<pdfrwt beam="2">  1       -1 0.88503462E-01 0.15254287E+04</pdfrwt>
<totfact> 0.34171979E+01</totfact>
</mgrwt>
</event>
<event>
12    6  0.1627636E-007  0.1323915E+04  0.7818608E-02  0.9010813E-01
         -1   -1    0    0    0  501 -0.00000000000E+00  0.00000000000E+00  0.23708853121E+03  0.23708853121E+03  0.00000000000E+00 0.  1.
          2   -1    0    0  501    0  0.00000000000E+00 -0.00000000000E+00 -0.18482015920E+04  0.18482015920E+04  0.00000000000E+00 0. -1.
         24    2    1    2    0    0 -0.23065879591E+03  0.17096520759E+03 -0.12133434964E+03  0.32202892471E+03  0.80919846837E+02 0.  0.
        254    2    1    2    0    0  0.23065879591E+03 -0.17096520759E+03 -0.14897787112E+04  0.17632611985E+04  0.89845248267E+03 0.  0.
         23    2    4    4    0    0 -0.25990960792E+03  0.22701444922E+02 -0.13709375497E+03  0.30849693617E+03  0.91144402377E+02 0.  0.
         23    2    4    4    0    0  0.49056840382E+03 -0.19366665251E+03 -0.13526849562E+04  0.14547642624E+04  0.91751496778E+02 0.  0.
          4    1    3    3  502    0 -0.92056948762E+02  0.10776564657E+03 -0.31528174873E+02  0.14519621967E+03  0.00000000000E+00 0. -1.
         -3    1    3    3    0  502 -0.13860184714E+03  0.63199561017E+02 -0.89806174766E+02  0.17683270504E+03  0.00000000000E+00 0.  1.
         11    1    5    5    0    0 -0.11965371479E+03 -0.29699050061E+02 -0.38226143664E+02  0.12907471905E+03  0.00000000000E+00 0.  1.
        -11    1    5    5    0    0 -0.14025589312E+03  0.52400494983E+02 -0.98867611308E+02  0.17942221712E+03  0.00000000000E+00 0. -1.
          4    1    6    6  503    0  0.45762010719E+03 -0.19992806054E+03 -0.12962092653E+04  0.13890809376E+04  0.00000000000E+00 0.  1.
         -4    1    6    6    0  503  0.32948296631E+02  0.62614080278E+01 -0.56475690939E+02  0.65683324736E+02  0.00000000000E+00 0. -1.
<mgrwt>
<rscale>  0 0.13239145E+04</rscale>
<asrwt>0</asrwt>
<pdfrwt beam="1">  1        2 0.28433871E+00 0.13239145E+04</pdfrwt>
<pdfrwt beam="2">  1       -1 0.36475158E-01 0.13239145E+04</pdfrwt>
<totfact> 0.65170403E+01</totfact>
</mgrwt>
</event>
<event>
12    6  0.1627636E-007  0.2316554E+04  0.7818608E-02  0.8471423E-01
          2   -1    0    0  501    0  0.00000000000E+00  0.00000000000E+00  0.18055343060E+04  0.18055343060E+04  0.00000000000E+00 0. -1.
         -1   -1    0    0    0  501 -0.00000000000E+00 -0.00000000000E+00 -0.74305185417E+03  0.74305185417E+03  0.00000000000E+00 0.  1.
         24    2    1    2    0    0 -0.51802488902E+03 -0.33483169707E+03 -0.38656127505E+03  0.73236697678E+03  0.80434559093E+02 0.  0.
        254    2    1    2    0    0  0.51802488902E+03  0.33483169707E+03  0.14490437269E+04  0.18162191834E+04  0.90468908953E+03 0.  0.
         23    2    4    4    0    0  0.12902005938E+03  0.40366549140E+03  0.15463116905E+03  0.45989361959E+03  0.89439019576E+02 0.  0.
         23    2    4    4    0    0  0.38900482964E+03 -0.68833794330E+02  0.12944125578E+04  0.13563255638E+04  0.89734700371E+02 0.  0.
          4    1    3    3  502    0  0.19194834014E+01  0.30727231352E+00  0.12008890680E+01  0.22849436222E+01  0.00000000000E+00 0. -1.
         -3    1    3    3    0  502 -0.51994437242E+03 -0.33513896939E+03 -0.38776216411E+03  0.73008203315E+03  0.00000000000E+00 0.  1.
         11    1    5    5    0    0  0.13603034901E+03  0.31155152788E+03  0.13277700647E+03  0.36496348286E+03  0.00000000000E+00 0. -1.
        -11    1    5    5    0    0 -0.70102896240E+01  0.92113963526E+02  0.21854162574E+02  0.94930136727E+02  0.00000000000E+00 0.  1.
          1    1    6    6  503    0  0.38386783534E+03 -0.67743291748E+02  0.12935480490E+04  0.13510034137E+04  0.00000000000E+00 0. -1.
         -1    1    6    6    0  503  0.51369943039E+01 -0.10905025822E+01  0.86450875877E+00  0.53221501063E+01  0.00000000000E+00 0.  1.
<mgrwt>
<rscale>  0 0.23165540E+04</rscale>
<asrwt>0</asrwt>
<pdfrwt beam="1">  1        2 0.27777451E+00 0.23165540E+04</pdfrwt>
<pdfrwt beam="2">  1       -1 0.11431567E+00 0.23165540E+04</pdfrwt>
<totfact> 0.61490915E+00</totfact>
</mgrwt>
</event>
<event>
12    6  0.1627636E-007  0.2355718E+04  0.7818608E-02  0.8456271E-01
          2   -1    0    0  501    0  0.00000000000E+00  0.00000000000E+00  0.14552411506E+04  0.14552411506E+04  0.00000000000E+00 0. -1.
         -1   -1    0    0    0  501 -0.00000000000E+00 -0.00000000000E+00 -0.95334810469E+03  0.95334810469E+03  0.00000000000E+00 0.  1.
         24    2    1    2    0    0 -0.91343472237E+03 -0.22386907472E+03  0.59133396291E+03  0.11139020031E+04  0.81372368077E+02 0.  0.
        254    2    1    2    0    0  0.91343472237E+03  0.22386907472E+03 -0.89440917012E+02  0.12946872521E+04  0.88528811611E+03 0.  0.
         23    2    4    4    0    0  0.87181399117E+03  0.47591087320E+03  0.31120260296E+02  0.99783126170E+03  0.90266061181E+02 0.  0.
         23    2    4    4    0    0  0.41620731204E+02 -0.25204179848E+03 -0.12056117731E+03  0.29685599042E+03  0.91275013714E+02 0.  0.
          4    1    3    3  502    0 -0.88300682194E+03 -0.21306782106E+03  0.58653400908E+03  0.10812590290E+04  0.00000000000E+00 0. -1.
         -3    1    3    3    0  502 -0.30427900425E+02 -0.10801253661E+02  0.47999538230E+01  0.32642974154E+02  0.00000000000E+00 0.  1.
         11    1    5    5    0    0  0.30948059706E+03  0.12129833568E+03  0.26130318497E+01  0.33241292714E+03  0.00000000000E+00 0.  1.
        -11    1    5    5    0    0  0.56233339411E+03  0.35461253752E+03  0.28507228446E+02  0.66541833456E+03  0.00000000000E+00 0. -1.
          4    1    6    6  503    0  0.24846851850E+02 -0.75074360459E+01 -0.15033144107E+02  0.29995384054E+02  0.00000000000E+00 0.  1.
         -4    1    6    6    0  503  0.16773879354E+02 -0.24453436244E+03 -0.10552803320E+03  0.26686060637E+03  0.00000000000E+00 0. -1.
<mgrwt>
<rscale>  0 0.23557176E+04</rscale>
<asrwt>0</asrwt>
<pdfrwt beam="1">  1        2 0.22388325E+00 0.23557176E+04</pdfrwt>
<pdfrwt beam="2">  1       -1 0.14666894E+00 0.23557176E+04</pdfrwt>
<totfact> 0.51278697E+00</totfact>
</mgrwt>
</event>
<event>
12    6  0.1627636E-007  0.1284408E+04  0.7818608E-02  0.9042022E-01
          2   -1    0    0  501    0  0.00000000000E+00  0.00000000000E+00  0.20509790778E+04  0.20509790778E+04  0.00000000000E+00 0. -1.
         -1   -1    0    0    0  501 -0.00000000000E+00 -0.00000000000E+00 -0.20108739377E+03  0.20108739377E+03  0.00000000000E+00 0.  1.
         24    2    1    2    0    0  0.14383326958E+03 -0.27644490579E+03  0.34996972931E+03  0.47539489921E+03  0.80073112706E+02 0.  0.
        254    2    1    2    0    0 -0.14383326958E+03  0.27644490579E+03  0.14999219548E+04  0.17766715724E+04  0.89982565557E+03 0.  0.
         23    2    4    4    0    0  0.23760375569E+03  0.44471696181E+03  0.67255555448E+03  0.84586090940E+03  0.94450957362E+02 0.  0.
         23    2    4    4    0    0 -0.38143702527E+03 -0.16827205602E+03  0.82736640028E+03  0.93081066300E+03  0.89797778191E+02 0.  0.
          4    1    3    3  502    0  0.27754701511E+02 -0.14033014112E+02  0.15629369482E+02  0.34806983946E+02  0.00000000000E+00 0. -1.
         -3    1    3    3    0  502  0.11607856807E+03 -0.26241189168E+03  0.33434035983E+03  0.44058791526E+03  0.00000000000E+00 0.  1.
         11    1    5    5    0    0  0.23109136696E+03  0.43870674799E+03  0.62659868863E+03  0.79905741171E+03  0.00000000000E+00 0.  1.
        -11    1    5    5    0    0  0.65123887240E+01  0.60102138208E+01  0.45956865847E+02  0.46803497685E+02  0.00000000000E+00 0. -1.
          1    1    6    6  503    0 -0.18723690553E+03 -0.37620906989E+02  0.33416857991E+03  0.38489171365E+03  0.00000000000E+00 0. -1.
         -1    1    6    6    0  503 -0.19420011973E+03 -0.13065114903E+03  0.49319782037E+03  0.54591894936E+03  0.00000000000E+00 0.  1.
<mgrwt>
<rscale>  0 0.12844081E+04</rscale>
<asrwt>0</asrwt>
<pdfrwt beam="1">  1        2 0.31553523E+00 0.12844081E+04</pdfrwt>
<pdfrwt beam="2">  1       -1 0.30936524E-01 0.12844081E+04</pdfrwt>
<totfact> 0.67695926E+01</totfact>
</mgrwt>
</event>
<event>
12    6  0.1627636E-007  0.1995677E+04  0.7818608E-02  0.8608644E-01
          2   -1    0    0  501    0  0.00000000000E+00  0.00000000000E+00  0.17827029364E+04  0.17827029364E+04  0.00000000000E+00 0. -1.
         -1   -1    0    0    0  501 -0.00000000000E+00 -0.00000000000E+00 -0.55852366046E+03  0.55852366046E+03  0.00000000000E+00 0.  1.
         24    2    1    2    0    0  0.34678193967E+03  0.58867499980E+03  0.95060694498E+03  0.11748265978E+04  0.98833202373E+02 0.  0.
        254    2    1    2    0    0 -0.34678193967E+03 -0.58867499980E+03  0.27357233092E+03  0.11663999991E+04  0.90490395539E+03 0.  0.
         23    2    4    4    0    0 -0.22417834107E+03 -0.71861032391E+03  0.46474083716E+03  0.88927340997E+03  0.90368278240E+02 0.  0.
         23    2    4    4    0    0 -0.12260359860E+03  0.12993532411E+03 -0.19116850624E+03  0.27712658909E+03  0.91317674946E+02 0.  0.
          2    1    3    3  502    0  0.23279304203E+03  0.47687840830E+03  0.73325431444E+03  0.90513397150E+03  0.00000000000E+00 0. -1.
         -3    1    3    3    0  502  0.11398889764E+03  0.11179659150E+03  0.21735263054E+03  0.26969262626E+03  0.00000000000E+00 0.  1.
         11    1    5    5    0    0 -0.14343908926E+02 -0.17280957562E+03  0.10902592049E+03  0.20483053603E+03  0.00000000000E+00 0.  1.
        -11    1    5    5    0    0 -0.20983443214E+03 -0.54580074829E+03  0.35571491667E+03  0.68444287394E+03  0.00000000000E+00 0. -1.
          1    1    6    6  503    0 -0.77337572283E+02  0.12329231092E+03 -0.17716523339E+03  0.22928064450E+03  0.00000000000E+00 0. -1.
         -1    1    6    6    0  503 -0.45266026321E+02  0.66430131917E+01 -0.14003272851E+02  0.47845944590E+02  0.00000000000E+00 0.  1.
<mgrwt>
<rscale>  0 0.19956771E+04</rscale>
<asrwt>0</asrwt>
<pdfrwt beam="1">  1        2 0.27426199E+00 0.19956771E+04</pdfrwt>
<pdfrwt beam="2">  1       -1 0.85926718E-01 0.19956771E+04</pdfrwt>
<totfact> 0.12484516E+01</totfact>
</mgrwt>
</event>
<event>
12    6  0.1627636E-007  0.1480748E+04  0.7818608E-02  0.8897357E-01
         -1   -1    0    0    0  501 -0.00000000000E+00  0.00000000000E+00  0.61634797947E+03  0.61634797947E+03  0.00000000000E+00 0.  1.
          2   -1    0    0  501    0  0.00000000000E+00 -0.00000000000E+00 -0.88935710415E+03  0.88935710415E+03  0.00000000000E+00 0. -1.
         24    2    1    2    0    0  0.27042349304E+03  0.38608304664E+03 -0.67060312760E+02  0.48296852110E+03  0.81071094322E+02 0.  0.
        254    2    1    2    0    0 -0.27042349304E+03 -0.38608304664E+03 -0.20594881192E+03  0.10227365625E+04  0.88396050742E+03 0.  0.
         23    2    4    4    0    0 -0.43992631944E+02 -0.33349412571E+03 -0.51781838759E+03  0.62329415997E+03  0.84888419597E+02 0.  0.
         23    2    4    4    0    0 -0.22643086110E+03 -0.52588920925E+02  0.31186957566E+03  0.39944240254E+03  0.90857422727E+02 0.  0.
          2    1    3    3  502    0  0.18897776996E+03  0.25629889515E+03 -0.73475504959E+01  0.31852112597E+03  0.00000000000E+00 0. -1.
         -1    1    3    3    0  502  0.81445723084E+02  0.12978415149E+03 -0.59712762264E+02  0.16444739512E+03  0.00000000000E+00 0.  1.
         11    1    5    5    0    0  0.43764154929E+01  0.29824176494E+01 -0.22703843680E+01  0.57621586910E+01  0.00000000000E+00 0.  1.
        -11    1    5    5    0    0 -0.48369047437E+02 -0.33647654336E+03 -0.51554800322E+03  0.61753200128E+03  0.00000000000E+00 0. -1.
          4    1    6    6  503    0 -0.17725701740E+03 -0.55814232967E+02  0.29239662042E+03  0.34645499340E+03  0.00000000000E+00 0. -1.
         -4    1    6    6    0  503 -0.49173843704E+02  0.32253120421E+01  0.19472955247E+02  0.52987409150E+02  0.00000000000E+00 0.  1.
<mgrwt>
<rscale>  0 0.14807477E+04</rscale>
<asrwt>0</asrwt>
<pdfrwt beam="1">  1        2 0.13682417E+00 0.14807477E+04</pdfrwt>
<pdfrwt beam="2">  1       -1 0.94822767E-01 0.14807477E+04</pdfrwt>
<totfact> 0.35414588E+01</totfact>
</mgrwt>
</event>
<event>
12    6  0.1627636E-007  0.1515206E+04  0.7818608E-02  0.8874404E-01
          2   -1    0    0  501    0  0.00000000000E+00  0.00000000000E+00  0.32907834646E+04  0.32907834646E+04  0.00000000000E+00 0. -1.
         -1   -1    0    0    0  501 -0.00000000000E+00 -0.00000000000E+00 -0.17441504530E+03  0.17441504530E+03  0.00000000000E+00 0.  1.
         24    2    1    2    0    0 -0.47003445058E+03 -0.82330734103E+02  0.93488553485E+03  0.10529538639E+04  0.83607067782E+02 0.  0.
        254    2    1    2    0    0  0.47003445058E+03  0.82330734103E+02  0.21814828844E+04  0.24122446459E+04  0.91232994158E+03 0.  0.
         23    2    4    4    0    0  0.32852676251E+03  0.41242877897E+03  0.18101544355E+04  0.18875847880E+04  0.91048998517E+02 0.  0.
         23    2    4    4    0    0  0.14150768808E+03 -0.33009804487E+03  0.37132844889E+03  0.52465985790E+03  0.91618800071E+02 0.  0.
          4    1    3    3  502    0 -0.72416947475E+01 -0.35208242342E+01  0.15451293933E+01  0.81991323288E+01  0.00000000000E+00 0. -1.
         -3    1    3    3    0  502 -0.46279275584E+03 -0.78809909868E+02  0.93334040546E+03  0.10447547316E+04  0.00000000000E+00 0.  1.
         11    1    5    5    0    0  0.28658241584E+03  0.37760164362E+03  0.15147794583E+04  0.15872206178E+04  0.00000000000E+00 0. -1.
        -11    1    5    5    0    0  0.41944346663E+02  0.34827135350E+02  0.29537497729E+03  0.30036417027E+03  0.00000000000E+00 0.  1.
          2    1    6    6  503    0  0.23067531498E+02 -0.13035268744E+03  0.18194288540E+03  0.22500477257E+03  0.00000000000E+00 0. -1.
         -2    1    6    6    0  503  0.11844015658E+03 -0.19974535743E+03  0.18938556348E+03  0.29965508533E+03  0.00000000000E+00 0.  1.
<mgrwt>
<rscale>  0 0.15152058E+04</rscale>
<asrwt>0</asrwt>
<pdfrwt beam="1">  1        2 0.50627433E+00 0.15152058E+04</pdfrwt>
<pdfrwt beam="2">  1       -1 0.26833086E-01 0.15152058E+04</pdfrwt>
<totfact> 0.15557570E+01</totfact>
</mgrwt>
</event>
<event>
12    6  0.1627636E-007  0.2289695E+04  0.7818608E-02  0.8481995E-01
          2   -1    0    0  501    0  0.00000000000E+00  0.00000000000E+00  0.15098121209E+04  0.15098121209E+04  0.00000000000E+00 0. -1.
         -1   -1    0    0    0  501 -0.00000000000E+00 -0.00000000000E+00 -0.86810523478E+03  0.86810523478E+03  0.00000000000E+00 0.  1.
         24    2    1    2    0    0 -0.24492454899E+03 -0.10983455946E+03  0.12531412339E+04  0.12840839287E+04  0.80354955722E+02 0.  0.
        254    2    1    2    0    0  0.24492454899E+03  0.10983455946E+03 -0.61143434777E+03  0.10938334269E+04  0.86635324149E+03 0.  0.
         23    2    4    4    0    0 -0.16646629231E+03  0.13231406820E+02  0.13384215841E+03  0.23215394802E+03  0.89975750141E+02 0.  0.
         23    2    4    4    0    0  0.41139084130E+03  0.96603152644E+02 -0.74527650617E+03  0.86167947889E+03  0.92086156778E+02 0.  0.
          4    1    3    3  502    0 -0.22417096520E+03 -0.78085192094E+02  0.98100274369E+03  0.10093147685E+04  0.00000000000E+00 0. -1.
         -3    1    3    3    0  502 -0.20753583794E+02 -0.31749367370E+02  0.27213849016E+03  0.27476916020E+03  0.00000000000E+00 0.  1.
         11    1    5    5    0    0 -0.59397810495E+02 -0.26346586278E+02  0.87424352182E+02  0.10892777357E+03  0.00000000000E+00 0.  1.
        -11    1    5    5    0    0 -0.10706848181E+03  0.39577993098E+02  0.46417806225E+02  0.12322617445E+03  0.00000000000E+00 0. -1.
          2    1    6    6  503    0  0.32688056687E+03  0.41998781115E+02 -0.53108516715E+03  0.62503300503E+03  0.00000000000E+00 0. -1.
         -2    1    6    6    0  503  0.84510274432E+02  0.54604371529E+02 -0.21419133903E+03  0.23664647386E+03  0.00000000000E+00 0.  1.
<mgrwt>
<rscale>  0 0.22896950E+04</rscale>
<asrwt>0</asrwt>
<pdfrwt beam="1">  1        2 0.23227879E+00 0.22896950E+04</pdfrwt>
<pdfrwt beam="2">  1       -1 0.13355465E+00 0.22896950E+04</pdfrwt>
<totfact> 0.61343039E+00</totfact>
</mgrwt>
</event>
<event>
12    6  0.1627636E-007  0.2387215E+04  0.7818608E-02  0.8444306E-01
          2   -1    0    0  501    0  0.00000000000E+00  0.00000000000E+00  0.28076867477E+04  0.28076867477E+04  0.00000000000E+00 0. -1.
         -1   -1    0    0    0  501 -0.00000000000E+00 -0.00000000000E+00 -0.50742803430E+03  0.50742803430E+03  0.00000000000E+00 0.  1.
         24    2    1    2    0    0 -0.37322216316E+03  0.82289351188E+02 -0.32714614325E+03  0.50995198009E+03  0.83427229100E+02 0.  0.
        254    2    1    2    0    0  0.37322216316E+03 -0.82289351188E+02  0.26274048566E+04  0.28051628019E+04  0.90532631908E+03 0.  0.
         23    2    4    4    0    0  0.59898222996E+03 -0.18886751087E+03  0.22896086505E+04  0.23758697362E+04  0.89434795062E+02 0.  0.
         23    2    4    4    0    0 -0.22576006680E+03  0.10657815968E+03  0.33779620614E+03  0.42929306567E+03  0.88655216814E+02 0.  0.
          2    1    3    3  502    0 -0.29711422142E+03  0.61583874462E+02 -0.21109970966E+03  0.36963836595E+03  0.00000000000E+00 0. -1.
         -1    1    3    3    0  502 -0.76107941744E+02  0.20705476726E+02 -0.11604643359E+03  0.14031361414E+03  0.00000000000E+00 0.  1.
         11    1    5    5    0    0  0.14703824593E+02 -0.14111054419E+02  0.13819388372E+03  0.13968848847E+03  0.00000000000E+00 0.  1.
        -11    1    5    5    0    0  0.58427840537E+03 -0.17475645645E+03  0.21514147668E+04  0.22361812477E+04  0.00000000000E+00 0. -1.
          2    1    6    6  503    0 -0.22513735065E+03  0.11749110623E+03  0.32222056054E+03  0.41026464183E+03  0.00000000000E+00 0. -1.
         -2    1    6    6    0  503 -0.62271614756E+00 -0.10912946556E+02  0.15575645593E+02  0.19028423833E+02  0.00000000000E+00 0.  1.
<mgrwt>
<rscale>  0 0.23872151E+04</rscale>
<asrwt>0</asrwt>
<pdfrwt beam="1">  1        2 0.43195180E+00 0.23872151E+04</pdfrwt>
<pdfrwt beam="2">  1       -1 0.78065853E-01 0.23872151E+04</pdfrwt>
<totfact> 0.38499447E+00</totfact>
</mgrwt>
</event>
<event>
12    6  0.1627636E-007  0.2194921E+04  0.7818608E-02  0.8520545E-01
          2   -1    0    0  501    0  0.00000000000E+00  0.00000000000E+00  0.75113245038E+03  0.75113245038E+03  0.00000000000E+00 0. -1.
         -1   -1    0    0    0  501 -0.00000000000E+00 -0.00000000000E+00 -0.16034709798E+04  0.16034709798E+04  0.00000000000E+00 0.  1.
         24    2    1    2    0    0  0.10728098120E+03  0.73337686067E+03  0.19669153953E+03  0.77087236129E+03  0.78776944503E+02 0.  0.
        254    2    1    2    0    0 -0.10728098120E+03 -0.73337686067E+03 -0.10490300689E+04  0.15837310689E+04  0.92649294886E+03 0.  0.
         23    2    4    4    0    0 -0.16992075472E+02 -0.73834420646E+02 -0.88413204137E+03  0.89191200479E+03  0.89873830465E+02 0.  0.
         23    2    4    4    0    0 -0.90288905730E+02 -0.65954244002E+03 -0.16489802757E+03  0.69181906409E+03  0.90961207426E+02 0.  0.
          4    1    3    3  502    0  0.16111887579E+02  0.34094045345E+03  0.11155073107E+03  0.35908710827E+03  0.00000000000E+00 0. -1.
         -3    1    3    3    0  502  0.91169093623E+02  0.39243640722E+03  0.85140808459E+02  0.41178525302E+03  0.00000000000E+00 0.  1.
         11    1    5    5    0    0 -0.14472565268E+02 -0.94622640695E+02 -0.76332114636E+03  0.76929972816E+03  0.00000000000E+00 0.  1.
        -11    1    5    5    0    0 -0.25195102047E+01  0.20788220049E+02 -0.12081089502E+03  0.12261227663E+03  0.00000000000E+00 0. -1.
          3    1    6    6  503    0  0.16913349040E+02 -0.10834968608E+03 -0.15400593502E+02  0.11073795253E+03  0.00000000000E+00 0. -1.
         -3    1    6    6    0  503 -0.10720225477E+03 -0.55119275394E+03 -0.14949743407E+03  0.58108111156E+03  0.00000000000E+00 0.  1.
<mgrwt>
<rscale>  0 0.21949206E+04</rscale>
<asrwt>0</asrwt>
<pdfrwt beam="1">  1        2 0.11555884E+00 0.21949206E+04</pdfrwt>
<pdfrwt beam="2">  1       -1 0.24668784E+00 0.21949206E+04</pdfrwt>
<totfact> 0.28619000E+00</totfact>
</mgrwt>
</event>
<event>
12    6  0.1627636E-007  0.1422169E+04  0.7818608E-02  0.8937926E-01
          2   -1    0    0  501    0  0.00000000000E+00  0.00000000000E+00  0.17150838847E+04  0.17150838847E+04  0.00000000000E+00 0. -1.
         -1   -1    0    0    0  501 -0.00000000000E+00 -0.00000000000E+00 -0.29481996384E+03  0.29481996384E+03  0.00000000000E+00 0.  1.
         24    2    1    2    0    0 -0.22109928000E+02  0.25847554638E+03  0.89935065207E+03  0.93910062971E+03  0.76025918963E+02 0.  0.
        254    2    1    2    0    0  0.22109928000E+02 -0.25847554638E+03  0.52091326874E+03  0.10708032188E+04  0.89887176106E+03 0.  0.
         23    2    4    4    0    0 -0.22203251781E+03 -0.51345569707E+03  0.27500441448E+03  0.63107711007E+03  0.98466740827E+02 0.  0.
         23    2    4    4    0    0  0.24414244581E+03  0.25498015069E+03  0.24590885426E+03  0.43972610872E+03  0.90925656404E+02 0.  0.
          2    1    3    3  502    0 -0.19424268781E+02  0.26365436156E+03  0.88374014723E+03  0.92243567386E+03  0.00000000000E+00 0. -1.
         -1    1    3    3    0  502 -0.26856592185E+01 -0.51788151809E+01  0.15610504844E+02  0.16664955854E+02  0.00000000000E+00 0.  1.
         11    1    5    5    0    0 -0.19998285480E+03 -0.41407726345E+03  0.25978929392E+03  0.52815111432E+03  0.00000000000E+00 0. -1.
        -11    1    5    5    0    0 -0.22049663008E+02 -0.99378433621E+02  0.15215120566E+02  0.10292599575E+03  0.00000000000E+00 0.  1.
          3    1    6    6  503    0  0.87971609532E+02  0.11655328865E+03  0.52449363310E+02  0.15515994615E+03  0.00000000000E+00 0. -1.
         -3    1    6    6    0  503  0.15617083628E+03  0.13842686205E+03  0.19345949095E+03  0.28456616257E+03  0.00000000000E+00 0.  1.
<mgrwt>
<rscale>  0 0.14221687E+04</rscale>
<asrwt>0</asrwt>
<pdfrwt beam="1">  1        2 0.26385905E+00 0.14221687E+04</pdfrwt>
<pdfrwt beam="2">  1       -1 0.45356919E-01 0.14221687E+04</pdfrwt>
<totfact> 0.51386028E+01</totfact>
</mgrwt>
</event>
<event>
12    6  0.1627636E-007  0.1336506E+04  0.7818608E-02  0.9001106E-01
         -1   -1    0    0    0  501 -0.00000000000E+00  0.00000000000E+00  0.26879712015E+03  0.26879712015E+03  0.00000000000E+00 0.  1.
          2   -1    0    0  501    0  0.00000000000E+00 -0.00000000000E+00 -0.16613349640E+04  0.16613349640E+04  0.00000000000E+00 0. -1.
         24    2    1    2    0    0 -0.56896220842E+02 -0.31300049102E+03 -0.56502756885E+03  0.65348864194E+03  0.81146560377E+02 0.  0.
        254    2    1    2    0    0  0.56896220842E+02  0.31300049102E+03 -0.82751027497E+03  0.12766434422E+04  0.91860695402E+03 0.  0.
         23    2    4    4    0    0  0.23371911997E+03 -0.25176077451E+03 -0.19196562734E+03  0.40377647426E+03  0.90424136512E+02 0.  0.
         23    2    4    4    0    0 -0.17682289913E+03  0.56476126553E+03 -0.63554464763E+03  0.87286696793E+03  0.88080189958E+02 0.  0.
          4    1    3    3  502    0 -0.43212448847E+02 -0.27319328944E+03 -0.53336527884E+03  0.60081645267E+03  0.00000000000E+00 0. -1.
         -3    1    3    3    0  502 -0.13683771995E+02 -0.39807201578E+02 -0.31662290008E+02  0.52672189266E+02  0.00000000000E+00 0.  1.
         11    1    5    5    0    0  0.22485605711E+03 -0.24042618144E+03 -0.15449744065E+03  0.36364055646E+03  0.00000000000E+00 0.  1.
        -11    1    5    5    0    0  0.88630628612E+01 -0.11334593076E+02 -0.37468186691E+02  0.40135917796E+02  0.00000000000E+00 0. -1.
          4    1    6    6  503    0 -0.51377900111E+02  0.18374689438E+03 -0.26678379465E+03  0.32798811397E+03  0.00000000000E+00 0. -1.
         -4    1    6    6    0  503 -0.12544499901E+03  0.38101437115E+03 -0.36876085298E+03  0.54487885396E+03  0.00000000000E+00 0.  1.
<mgrwt>
<rscale>  0 0.13365060E+04</rscale>
<asrwt>0</asrwt>
<pdfrwt beam="1">  1        2 0.25558999E+00 0.13365060E+04</pdfrwt>
<pdfrwt beam="2">  1       -1 0.41353404E-01 0.13365060E+04</pdfrwt>
<totfact> 0.65762926E+01</totfact>
</mgrwt>
</event>
<event>
12    6  0.1627636E-007  0.3283780E+04  0.7818608E-02  0.8167035E-01
          2   -1    0    0  501    0  0.00000000000E+00  0.00000000000E+00  0.17267066058E+04  0.17267066058E+04  0.00000000000E+00 0. -1.
         -1   -1    0    0    0  501 -0.00000000000E+00 -0.00000000000E+00 -0.15612395890E+04  0.15612395890E+04  0.00000000000E+00 0.  1.
         24    2    1    2    0    0 -0.11609854302E+04 -0.40517777454E+03  0.97061550574E+03  0.15686426953E+04  0.80555864903E+02 0.  0.
        254    2    1    2    0    0  0.11609854302E+04  0.40517777454E+03 -0.80514848892E+03  0.17193034996E+04  0.89201134317E+03 0.  0.
         23    2    4    4    0    0  0.46916864609E+03  0.41289709287E+03  0.27360712970E+02  0.63214805984E+03  0.90880873489E+02 0.  0.
         23    2    4    4    0    0  0.69181678411E+03 -0.77193183254E+01 -0.83250920189E+03  0.10871554397E+04  0.10082325271E+03 0.  0.
          4    1    3    3  502    0 -0.99965985260E+03 -0.33672021155E+03  0.86388507953E+03  0.13634506784E+04  0.00000000000E+00 0. -1.
         -3    1    3    3    0  502 -0.16132557760E+03 -0.68457562988E+02  0.10673042620E+03  0.20519201689E+03  0.00000000000E+00 0.  1.
         11    1    5    5    0    0  0.21650990340E+03  0.14728867309E+03  0.42324918097E+02  0.26525815762E+03  0.00000000000E+00 0. -1.
        -11    1    5    5    0    0  0.25265874269E+03  0.26560841977E+03 -0.14964205127E+02  0.36688990222E+03  0.00000000000E+00 0.  1.
          1    1    6    6  503    0  0.11542916545E+03  0.13239885274E+02 -0.90080656981E+02  0.14701602484E+03  0.00000000000E+00 0. -1.
         -1    1    6    6    0  503  0.57638761866E+03 -0.20959203599E+02 -0.74242854491E+03  0.94013941490E+03  0.00000000000E+00 0.  1.
<mgrwt>
<rscale>  0 0.32837800E+04</rscale>
<asrwt>0</asrwt>
<pdfrwt beam="1">  1        2 0.26564717E+00 0.32837800E+04</pdfrwt>
<pdfrwt beam="2">  1       -1 0.24019070E+00 0.32837800E+04</pdfrwt>
<totfact> 0.72917972E-01</totfact>
</mgrwt>
</event>
<event>
12    6  0.1627636E-007  0.1377101E+04  0.7818608E-02  0.8970563E-01
          2   -1    0    0  501    0  0.00000000000E+00  0.00000000000E+00  0.61947363383E+03  0.61947363383E+03  0.00000000000E+00 0. -1.
         -1   -1    0    0    0  501 -0.00000000000E+00 -0.00000000000E+00 -0.76533000856E+03  0.76533000856E+03  0.00000000000E+00 0.  1.
         24    2    1    2    0    0  0.11036970655E+02  0.20547958767E+03  0.27256845256E+03  0.35080375156E+03  0.80162554260E+02 0.  0.
        254    2    1    2    0    0 -0.11036970655E+02 -0.20547958767E+03 -0.41842482729E+03  0.10339998908E+04  0.92289368970E+03 0.  0.
         23    2    4    4    0    0 -0.20616375951E+03 -0.50045429426E+03 -0.37962645128E+03  0.66730182287E+03  0.90650338763E+02 0.  0.
         23    2    4    4    0    0  0.19512678885E+03  0.29497470659E+03 -0.38798376009E+02  0.36669806797E+03  0.88755945231E+02 0.  0.
          2    1    3    3  502    0  0.95852476437E+01  0.14263433542E+03  0.24160403943E+03  0.28072930464E+03  0.00000000000E+00 0. -1.
         -1    1    3    3    0  502  0.14517230108E+01  0.62845252257E+02  0.30964413125E+02  0.70074446920E+02  0.00000000000E+00 0.  1.
         11    1    5    5    0    0 -0.10962128750E+02  0.55615491990E+00 -0.56850392551E+01  0.12361118330E+02  0.00000000000E+00 0.  1.
        -11    1    5    5    0    0 -0.19520163076E+03 -0.50101044918E+03 -0.37394141202E+03  0.65494070454E+03  0.00000000000E+00 0. -1.
          2    1    6    6  503    0  0.19705863154E+03  0.26453695567E+03 -0.19158167527E+02  0.33042236692E+03  0.00000000000E+00 0. -1.
         -2    1    6    6    0  503 -0.19318426833E+01  0.30437750923E+02 -0.19640208482E+02  0.36275701049E+02  0.00000000000E+00 0.  1.
<mgrwt>
<rscale>  0 0.13771010E+04</rscale>
<asrwt>0</asrwt>
<pdfrwt beam="1">  1        2 0.95303636E-01 0.13771010E+04</pdfrwt>
<pdfrwt beam="2">  1       -1 0.11774308E+00 0.13771010E+04</pdfrwt>
<totfact> 0.34473922E+01</totfact>
</mgrwt>
</event>
<event>
12    6  0.1627636E-007  0.2245147E+04  0.7818608E-02  0.8499869E-01
          2   -1    0    0  501    0  0.00000000000E+00  0.00000000000E+00  0.12317107943E+04  0.12317107943E+04  0.00000000000E+00 0. -1.
         -1   -1    0    0    0  501 -0.00000000000E+00 -0.00000000000E+00 -0.10231061311E+04  0.10231061311E+04  0.00000000000E+00 0.  1.
         24    2    1    2    0    0  0.47001671199E+03 -0.81586829494E+03  0.13238404403E+03  0.95433854457E+03  0.81729666016E+02 0.  0.
        254    2    1    2    0    0 -0.47001671199E+03  0.81586829494E+03  0.76220619175E+02  0.13004783809E+04  0.89379955927E+03 0.  0.
         23    2    4    4    0    0 -0.26668122309E+03  0.42810347465E+03 -0.39768809995E+03  0.64887079496E+03  0.92119617671E+02 0.  0.
         23    2    4    4    0    0 -0.20333548889E+03  0.38776482029E+03  0.47390871912E+03  0.65160758593E+03  0.91082902236E+02 0.  0.
          4    1    3    3  502    0  0.89380192859E+02 -0.14214512055E+03  0.54888152216E+02  0.17665436147E+03  0.00000000000E+00 0. -1.
         -3    1    3    3    0  502  0.38063651913E+03 -0.67372317439E+03  0.77495891819E+02  0.77768418310E+03  0.00000000000E+00 0.  1.
         11    1    5    5    0    0 -0.15320917963E+03  0.17827313324E+03 -0.22011407800E+03  0.32203193956E+03  0.00000000000E+00 0.  1.
        -11    1    5    5    0    0 -0.11347204346E+03  0.24983034140E+03 -0.17757402195E+03  0.32683885541E+03  0.00000000000E+00 0. -1.
          2    1    6    6  503    0 -0.74798091916E+01  0.40300258566E+02  0.85777088946E+02  0.95067172958E+02  0.00000000000E+00 0.  1.
         -2    1    6    6    0  503 -0.19585567970E+03  0.34746456172E+03  0.38813163018E+03  0.55654041297E+03  0.00000000000E+00 0. -1.
<mgrwt>
<rscale>  0 0.22451466E+04</rscale>
<asrwt>0</asrwt>
<pdfrwt beam="1">  1        2 0.18949397E+00 0.22451466E+04</pdfrwt>
<pdfrwt beam="2">  1       -1 0.15740094E+00 0.22451466E+04</pdfrwt>
<totfact> 0.57580165E+00</totfact>
</mgrwt>
</event>
<event>
12    6  0.1627636E-007  0.1705523E+04  0.7818608E-02  0.8758221E-01
         -1   -1    0    0    0  501 -0.00000000000E+00  0.00000000000E+00  0.97648456950E+03  0.97648456950E+03  0.00000000000E+00 0.  1.
          2   -1    0    0  501    0  0.00000000000E+00 -0.00000000000E+00 -0.74471440242E+03  0.74471440242E+03  0.00000000000E+00 0. -1.
         24    2    1    2    0    0 -0.15897019977E+03 -0.58092704022E+03 -0.20622762477E+01  0.60753938716E+03  0.79700084684E+02 0.  0.
        254    2    1    2    0    0  0.15897019977E+03  0.58092704022E+03  0.23383244333E+03  0.11136595848E+04  0.90709002239E+03 0.  0.
         23    2    4    4    0    0  0.47686142209E+02 -0.22788758982E+03 -0.28256947739E+02  0.25178659085E+03  0.91604096442E+02 0.  0.
         23    2    4    4    0    0  0.11128405756E+03  0.80881463004E+03  0.26208939107E+03  0.86187299392E+03  0.86999778750E+02 0.  0.
          2    1    3    3  502    0 -0.78615716283E+02 -0.17077822690E+03  0.19658330420E+02  0.18902931938E+03  0.00000000000E+00 0. -1.
         -1    1    3    3    0  502 -0.80354483488E+02 -0.41014881331E+03 -0.21720606668E+02  0.41851006778E+03  0.00000000000E+00 0.  1.
         11    1    5    5    0    0  0.27980449779E+00 -0.57070652380E+02  0.30904880140E+02  0.64901843349E+02  0.00000000000E+00 0. -1.
        -11    1    5    5    0    0  0.47406337711E+02 -0.17081693744E+03 -0.59161827879E+02  0.18688474750E+03  0.00000000000E+00 0.  1.
          1    1    6    6  503    0 -0.37866179610E+01  0.17501191056E+03  0.32675817641E+02  0.17807643407E+03  0.00000000000E+00 0. -1.
         -1    1    6    6    0  503  0.11507067552E+03  0.63380271947E+03  0.22941357343E+03  0.68379655984E+03  0.00000000000E+00 0.  1.
<mgrwt>
<rscale>  0 0.17055229E+04</rscale>
<asrwt>0</asrwt>
<pdfrwt beam="1">  1        2 0.11457145E+00 0.17055229E+04</pdfrwt>
<pdfrwt beam="2">  1       -1 0.15022840E+00 0.17055229E+04</pdfrwt>
<totfact> 0.14282218E+01</totfact>
</mgrwt>
</event>
<event>
12    6  0.1627636E-007  0.1303681E+04  0.7818608E-02  0.9026651E-01
          2   -1    0    0  501    0  0.00000000000E+00  0.00000000000E+00  0.25878487610E+04  0.25878487610E+04  0.00000000000E+00 0. -1.
         -1   -1    0    0    0  501 -0.00000000000E+00 -0.00000000000E+00 -0.16418885065E+03  0.16418885065E+03  0.00000000000E+00 0.  1.
         24    2    1    2    0    0 -0.25830750745E+03  0.23807910418E+02  0.68551175588E+03  0.73743024860E+03  0.81162917088E+02 0.  0.
        254    2    1    2    0    0  0.25830750745E+03 -0.23807910418E+02  0.17381481545E+04  0.20146073630E+04  0.98498438330E+03 0.  0.
         23    2    4    4    0    0 -0.22840363698E+03  0.18101196266E+03  0.15366709454E+03  0.34202096941E+03  0.91821650808E+02 0.  0.
         23    2    4    4    0    0  0.48671114443E+03 -0.20481987308E+03  0.15844810599E+04  0.16725863936E+04  0.90144863305E+02 0.  0.
          4    1    3    3  502    0 -0.20208796896E+03  0.20353144627E+01  0.43330898644E+03  0.47812170776E+03  0.00000000000E+00 0. -1.
         -3    1    3    3    0  502 -0.56219538486E+02  0.21772595955E+02  0.25220276944E+03  0.25930854084E+03  0.00000000000E+00 0.  1.
         11    1    5    5    0    0 -0.17153046515E+03  0.15252823373E+03  0.15737395683E+03  0.27830581174E+03  0.00000000000E+00 0. -1.
        -11    1    5    5    0    0 -0.56873171837E+02  0.28483728926E+02 -0.37068622953E+01  0.63715157666E+02  0.00000000000E+00 0.  1.
          3    1    6    6  503    0  0.44247950890E+03 -0.20083733586E+03  0.15054722177E+04  0.15819514372E+04  0.00000000000E+00 0. -1.
         -3    1    6    6    0  503  0.44231635532E+02 -0.39825372210E+01  0.79008842214E+02  0.90634956461E+02  0.00000000000E+00 0.  1.
<mgrwt>
<rscale>  0 0.13036808E+04</rscale>
<asrwt>0</asrwt>
<pdfrwt beam="1">  1        2 0.39813055E+00 0.13036808E+04</pdfrwt>
<pdfrwt beam="2">  1       -1 0.25259825E-01 0.13036808E+04</pdfrwt>
<totfact> 0.47783018E+01</totfact>
</mgrwt>
</event>
<event>
12    6  0.1627636E-007  0.1181278E+04  0.7818608E-02  0.9129403E-01
          2   -1    0    0  501    0  0.00000000000E+00  0.00000000000E+00  0.10086308433E+04  0.10086308433E+04  0.00000000000E+00 0. -1.
         -1   -1    0    0    0  501 -0.00000000000E+00 -0.00000000000E+00 -0.34586940442E+03  0.34586940442E+03  0.00000000000E+00 0.  1.
         24    2    1    2    0    0  0.23843819098E+03 -0.11991210784E+03  0.16005133284E+03  0.32432974343E+03  0.91332736762E+02 0.  0.
        254    2    1    2    0    0 -0.23843819098E+03  0.11991210784E+03  0.50271010607E+03  0.10301705043E+04  0.85866299135E+03 0.  0.
         23    2    4    4    0    0 -0.28085580952E+03  0.43793976367E+03  0.44722435475E+03  0.69163894713E+03  0.87656074271E+02 0.  0.
         23    2    4    4    0    0  0.42417618536E+02 -0.31802765583E+03  0.55485751324E+02  0.33853155720E+03  0.92650431114E+02 0.  0.
          2    1    3    3  502    0  0.22576073087E+03 -0.10247821280E+03  0.16997279691E+03  0.30060013871E+03  0.00000000000E+00 0. -1.
         -1    1    3    3    0  502  0.12677460113E+02 -0.17433895033E+02 -0.99214640697E+01  0.23729604721E+02  0.00000000000E+00 0.  1.
         11    1    5    5    0    0 -0.63072748284E+02  0.16918362048E+03  0.13231648415E+03  0.22385022000E+03  0.00000000000E+00 0. -1.
        -11    1    5    5    0    0 -0.21778306124E+03  0.26875614319E+03  0.31490787060E+03  0.46778872713E+03  0.00000000000E+00 0.  1.
          2    1    6    6  503    0 -0.25345364121E+02 -0.14632919258E+03  0.12691627424E+02  0.14904931228E+03  0.00000000000E+00 0. -1.
         -2    1    6    6    0  503  0.67762982656E+02 -0.17169846325E+03  0.42794123900E+02  0.18948224492E+03  0.00000000000E+00 0.  1.
<mgrwt>
<rscale>  0 0.11812782E+04</rscale>
<asrwt>0</asrwt>
<pdfrwt beam="1">  1        2 0.15517397E+00 0.11812782E+04</pdfrwt>
<pdfrwt beam="2">  1       -1 0.53210678E-01 0.11812782E+04</pdfrwt>
<totfact> 0.99804465E+01</totfact>
</mgrwt>
</event>
<event>
12    6  0.3685004E-007  0.2147976E+04  0.7818608E-02  0.8540399E-01
          2   -1    0    0  501    0  0.00000000000E+00  0.00000000000E+00  0.18911498011E+04  0.18911498011E+04  0.00000000000E+00 0. -1.
         -1   -1    0    0    0  501 -0.00000000000E+00 -0.00000000000E+00 -0.60992012478E+03  0.60992012478E+03  0.00000000000E+00 0.  1.
         24    2    1    2    0    0 -0.43952808840E+03 -0.30427429344E+03 -0.28870744413E+03  0.61281734696E+03  0.80158133077E+02 0.  0.
        254    2    1    2    0    0  0.43952808840E+03  0.30427429344E+03  0.15699371204E+04  0.18882525789E+04  0.90278870924E+03 0.  0.
         23    2    4    4    0    0  0.51552782888E+03  0.65205626550E+02  0.33623445977E+03  0.62574893291E+03  0.92127080833E+02 0.  0.
         23    2    4    4    0    0 -0.75999740477E+02  0.23906866689E+03  0.12337026607E+04  0.12625036460E+04  0.94675304061E+02 0.  0.
          2    1    3    3  502    0 -0.92808796327E+02 -0.61125230782E+02 -0.98824681292E+02  0.14871477447E+03  0.00000000000E+00 0. -1.
         -1    1    3    3    0  502 -0.34671929207E+03 -0.24314906266E+03 -0.18988276284E+03  0.46410257249E+03  0.00000000000E+00 0.  1.
         11    1    5    5    0    0  0.38270077657E+02 -0.13517636947E+01  0.23194190570E+00  0.38294645919E+02  0.00000000000E+00 0. -1.
        -11    1    5    5    0    0  0.47725775122E+03  0.66557390245E+02  0.33600251786E+03  0.58745428699E+03  0.00000000000E+00 0.  1.
          3    1    6    6  503    0  0.15136018293E+02  0.47424259323E+02  0.14487999664E+03  0.15319390604E+03  0.00000000000E+00 0. -1.
         -3    1    6    6    0  503 -0.91135758770E+02  0.19164440757E+03  0.10888226640E+04  0.11093097400E+04  0.00000000000E+00 0.  1.
<mgrwt>
<rscale>  0 0.21479761E+04</rscale>
<asrwt>0</asrwt>
<pdfrwt beam="1">  1        2 0.29094612E+00 0.21479761E+04</pdfrwt>
<pdfrwt beam="2">  1       -1 0.93833866E-01 0.21479761E+04</pdfrwt>
<totfact> 0.88348768E+00</totfact>
</mgrwt>
</event>
<event>
12    6  0.1627636E-007  0.1036651E+04  0.7818608E-02  0.9269236E-01
         -1   -1    0    0    0  501 -0.00000000000E+00  0.00000000000E+00  0.25432770269E+03  0.25432770269E+03  0.00000000000E+00 0.  1.
          2   -1    0    0  501    0  0.00000000000E+00 -0.00000000000E+00 -0.10563579411E+04  0.10563579411E+04  0.00000000000E+00 0. -1.
         24    2    1    2    0    0  0.51413104737E+02  0.18328900595E+02 -0.20632871777E+02  0.98230199996E+02  0.79020255997E+02 0.  0.
        254    2    1    2    0    0 -0.51413104737E+02 -0.18328900595E+02 -0.78139736667E+03  0.12124554438E+04  0.92546588415E+03 0.  0.
         23    2    4    4    0    0 -0.37666154693E+03 -0.20288780505E+03 -0.69087054456E+03  0.81779595697E+03  0.91927882223E+02 0.  0.
         23    2    4    4    0    0  0.32524844219E+03  0.18455890445E+03 -0.90526822111E+02  0.39465948687E+03  0.87820650727E+02 0.  0.
          4    1    3    3  502    0  0.17392474029E+02  0.20340583124E+01 -0.48348044175E+02  0.51421483075E+02  0.00000000000E+00 0. -1.
         -3    1    3    3    0  502  0.34020630707E+02  0.16294842282E+02  0.27715172398E+02  0.46808716921E+02  0.00000000000E+00 0.  1.
         11    1    5    5    0    0 -0.24485210588E+03 -0.95365552341E+02 -0.47635196400E+03  0.54402052896E+03  0.00000000000E+00 0. -1.
        -11    1    5    5    0    0 -0.13180944105E+03 -0.10752225271E+03 -0.21451858056E+03  0.27377542801E+03  0.00000000000E+00 0.  1.
          3    1    6    6  503    0  0.32748062459E+03  0.17693227055E+03 -0.96722937355E+02  0.38458277971E+03  0.00000000000E+00 0. -1.
         -3    1    6    6    0  503 -0.22321823974E+01  0.76266339074E+01  0.61961152433E+01  0.10076707157E+02  0.00000000000E+00 0.  1.
<mgrwt>
<rscale>  0 0.10366505E+04</rscale>
<asrwt>0</asrwt>
<pdfrwt beam="1">  1        2 0.16251660E+00 0.10366505E+04</pdfrwt>
<pdfrwt beam="2">  1       -1 0.39127340E-01 0.10366505E+04</pdfrwt>
<totfact> 0.16694213E+02</totfact>
</mgrwt>
</event>
<event>
12    6  0.1627636E-007  0.1763589E+04  0.7818608E-02  0.8725906E-01
         -1   -1    0    0    0  501 -0.00000000000E+00  0.00000000000E+00  0.44947110593E+03  0.44947110593E+03  0.00000000000E+00 0.  1.
          2   -1    0    0  501    0  0.00000000000E+00 -0.00000000000E+00 -0.17299474036E+04  0.17299474036E+04  0.00000000000E+00 0. -1.
         24    2    1    2    0    0  0.29007396487E+03  0.42736522401E+03 -0.96112803183E+03  0.10939449585E+04  0.78514577721E+02 0.  0.
        254    2    1    2    0    0 -0.29007396487E+03 -0.42736522401E+03 -0.31934826585E+03  0.10854735510E+04  0.89971416311E+03 0.  0.
         23    2    4    4    0    0 -0.39783858650E+02 -0.53600979431E+02  0.29670052615E+03  0.31708268405E+03  0.89746341987E+02 0.  0.
         23    2    4    4    0    0 -0.25029010622E+03 -0.37376424458E+03 -0.61604879201E+03  0.76839086698E+03  0.92539518705E+02 0.  0.
          4    1    3    3  502    0  0.23751908956E+03  0.29300752238E+03 -0.72451142443E+03  0.81681425686E+03  0.00000000000E+00 0. -1.
         -3    1    3    3    0  502  0.52554875307E+02  0.13435770163E+03 -0.23661660740E+03  0.27713070167E+03  0.00000000000E+00 0.  1.
         11    1    5    5    0    0 -0.38110978422E+02 -0.15043661550E+02  0.39194702776E+02  0.56700821465E+02  0.00000000000E+00 0.  1.
        -11    1    5    5    0    0 -0.16728802278E+01 -0.38557317881E+02  0.25750582338E+03  0.26038186259E+03  0.00000000000E+00 0. -1.
          1    1    6    6  503    0 -0.21283323027E+03 -0.33600198466E+03 -0.48679513773E+03  0.62862136753E+03  0.00000000000E+00 0. -1.
         -1    1    6    6    0  503 -0.37456875947E+02 -0.37762259918E+02 -0.12925365428E+03  0.13976949944E+03  0.00000000000E+00 0.  1.
<mgrwt>
<rscale>  0 0.17635888E+04</rscale>
<asrwt>0</asrwt>
<pdfrwt beam="1">  1        2 0.26614575E+00 0.17635888E+04</pdfrwt>
<pdfrwt beam="2">  1       -1 0.69149402E-01 0.17635888E+04</pdfrwt>
<totfact> 0.21533840E+01</totfact>
</mgrwt>
</event>
<event>
12    6  0.1627636E-007  0.2008181E+04  0.7818608E-02  0.8602806E-01
          2   -1    0    0  501    0  0.00000000000E+00  0.00000000000E+00  0.17214640953E+04  0.17214640953E+04  0.00000000000E+00 0. -1.
         -1   -1    0    0    0  501 -0.00000000000E+00 -0.00000000000E+00 -0.58566269090E+03  0.58566269090E+03  0.00000000000E+00 0.  1.
         24    2    1    2    0    0  0.58203844105E+03 -0.23236843738E+03  0.10268628851E+04  0.12056262767E+04  0.79520416055E+02 0.  0.
        254    2    1    2    0    0 -0.58203844105E+03  0.23236843738E+03  0.10893851924E+03  0.11015005095E+04  0.89926188283E+03 0.  0.
         23    2    4    4    0    0 -0.71241775237E+03  0.98084852638E+02  0.33252153583E+03  0.79786837908E+03  0.94147152550E+02 0.  0.
         23    2    4    4    0    0  0.13037931132E+03  0.13428358474E+03 -0.22358301659E+03  0.30363213042E+03  0.84689192751E+02 0.  0.
          2    1    3    3  502    0  0.55143780803E+03 -0.20062289179E+03  0.93799789779E+03  0.11064236336E+04  0.00000000000E+00 0. -1.
         -1    1    3    3    0  502  0.30600633020E+02 -0.31745545595E+02  0.88864987331E+02  0.99202643008E+02  0.00000000000E+00 0.  1.
         11    1    5    5    0    0 -0.55186131573E+00  0.75703377834E+01  0.22587715597E+01  0.79193821745E+01  0.00000000000E+00 0. -1.
        -11    1    5    5    0    0 -0.71186589105E+03  0.90514514855E+02  0.33026276427E+03  0.78994899690E+03  0.00000000000E+00 0.  1.
          4    1    6    6  503    0  0.11927676597E+02 -0.12090933586E+02 -0.21852093651E+02  0.27676237839E+02  0.00000000000E+00 0. -1.
         -4    1    6    6    0  503  0.11845163472E+03  0.14637451833E+03 -0.20173092294E+03  0.27595589259E+03  0.00000000000E+00 0.  1.
<mgrwt>
<rscale>  0 0.20081806E+04</rscale>
<asrwt>0</asrwt>
<pdfrwt beam="1">  1        2 0.26484063E+00 0.20081806E+04</pdfrwt>
<pdfrwt beam="2">  1       -1 0.90101953E-01 0.20081806E+04</pdfrwt>
<totfact> 0.12155576E+01</totfact>
</mgrwt>
</event>
<event>
12    6  0.1627636E-007  0.2429626E+04  0.7818608E-02  0.8428495E-01
         -1   -1    0    0    0  501 -0.00000000000E+00  0.00000000000E+00  0.97931336582E+03  0.97931336582E+03  0.00000000000E+00 0.  1.
          2   -1    0    0  501    0  0.00000000000E+00 -0.00000000000E+00 -0.15069438781E+04  0.15069438781E+04  0.00000000000E+00 0. -1.
         24    2    1    2    0    0 -0.14406322032E+03  0.10152372003E+04 -0.45989819395E+03  0.11265725890E+04  0.78731601405E+02 0.  0.
        254    2    1    2    0    0  0.14406322032E+03 -0.10152372003E+04 -0.67732318347E+02  0.13596846549E+04  0.89033359450E+03 0.  0.
         23    2    4    4    0    0  0.65723802431E+02 -0.28612588299E+03  0.38529495335E+03  0.49306999324E+03  0.92077022287E+02 0.  0.
         23    2    4    4    0    0  0.78339417885E+02 -0.72911131736E+03 -0.45302727170E+03  0.86661466169E+03  0.89704433914E+02 0.  0.
          4    1    3    3  502    0 -0.12441553589E+02  0.24481046192E+03 -0.13790218463E+03  0.28125427472E+03  0.00000000000E+00 0. -1.
         -3    1    3    3    0  502 -0.13162166673E+03  0.77042673842E+03 -0.32199600932E+03  0.84531831427E+03  0.00000000000E+00 0.  1.
         11    1    5    5    0    0  0.69596238092E+02 -0.28904798268E+03  0.35804135004E+03  0.46538798973E+03  0.00000000000E+00 0. -1.
        -11    1    5    5    0    0 -0.38724356608E+01  0.29220996958E+01  0.27253603315E+02  0.27682003508E+02  0.00000000000E+00 0.  1.
          4    1    6    6  503    0  0.46330396292E+02 -0.27726832428E+03 -0.22154493767E+03  0.35791952821E+03  0.00000000000E+00 0. -1.
         -4    1    6    6    0  503  0.32009021593E+02 -0.45184299308E+03 -0.23148233403E+03  0.50869513348E+03  0.00000000000E+00 0.  1.
<mgrwt>
<rscale>  0 0.24296257E+04</rscale>
<asrwt>0</asrwt>
<pdfrwt beam="1">  1        2 0.23183752E+00 0.24296257E+04</pdfrwt>
<pdfrwt beam="2">  1       -1 0.15066360E+00 0.24296257E+04</pdfrwt>
<totfact> 0.44315968E+00</totfact>
</mgrwt>
</event>
<event>
12    6  0.1633219E-007  0.1729363E+04  0.7818608E-02  0.8744792E-01
         -1   -1    0    0    0  501 -0.00000000000E+00  0.00000000000E+00  0.68985274146E+03  0.68985274146E+03  0.00000000000E+00 0.  1.
          2   -1    0    0  501    0  0.00000000000E+00 -0.00000000000E+00 -0.10838171069E+04  0.10838171069E+04  0.00000000000E+00 0. -1.
         24    2    1    2    0    0 -0.25184942093E+03 -0.41069437232E+03 -0.55228279179E+03  0.73715528220E+03  0.79269349040E+02 0.  0.
        254    2    1    2    0    0  0.25184942093E+03  0.41069437232E+03  0.15831842634E+03  0.10365145662E+04  0.90399099744E+03 0.  0.
         23    2    4    4    0    0  0.19279870827E+02 -0.77268878159E+02  0.41480514780E+03  0.43142304922E+03  0.87865486967E+02 0.  0.
         23    2    4    4    0    0  0.23256955010E+03  0.48796325047E+03 -0.25648672146E+03  0.60509151694E+03  0.90297154658E+02 0.  0.
          4    1    3    3  502    0 -0.19145629041E+03 -0.36282828890E+03 -0.44752750428E+03  0.60710851208E+03  0.00000000000E+00 0. -1.
         -3    1    3    3    0  502 -0.60393130524E+02 -0.47866083416E+02 -0.10475528751E+03  0.13004677012E+03  0.00000000000E+00 0.  1.
         11    1    5    5    0    0  0.35673572006E+02 -0.38059323516E+02  0.91405826841E+02  0.10524324694E+03  0.00000000000E+00 0. -1.
        -11    1    5    5    0    0 -0.16393701179E+02 -0.39209554643E+02  0.32339932096E+03  0.32617980227E+03  0.00000000000E+00 0.  1.
          4    1    6    6  503    0  0.54310581823E+02  0.15795063558E+03 -0.39002641058E+02  0.17152040283E+03  0.00000000000E+00 0. -1.
         -4    1    6    6    0  503  0.17825896828E+03  0.33001261490E+03 -0.21748408040E+03  0.43357111411E+03  0.00000000000E+00 0.  1.
<mgrwt>
<rscale>  0 0.17293631E+04</rscale>
<asrwt>0</asrwt>
<pdfrwt beam="1">  1        2 0.16674109E+00 0.17293631E+04</pdfrwt>
<pdfrwt beam="2">  1       -1 0.10613119E+00 0.17293631E+04</pdfrwt>
<totfact> 0.20049017E+01</totfact>
</mgrwt>
</event>
<event>
12    6  0.1627636E-007  0.2391049E+04  0.7818608E-02  0.8442862E-01
         -1   -1    0    0    0  501 -0.00000000000E+00  0.00000000000E+00  0.29904918870E+03  0.29904918870E+03  0.00000000000E+00 0.  1.
          2   -1    0    0  501    0  0.00000000000E+00 -0.00000000000E+00 -0.47794114508E+04  0.47794114508E+04  0.00000000000E+00 0. -1.
         24    2    1    2    0    0  0.10158251139E+04 -0.87556390518E+02 -0.22082592121E+04  0.24336355617E+04  0.81280475472E+02 0.  0.
        254    2    1    2    0    0 -0.10158251139E+04  0.87556390518E+02 -0.22721030500E+04  0.26448250779E+04  0.89055075035E+03 0.  0.
         23    2    4    4    0    0 -0.10844579865E+04  0.15270674537E+03 -0.14904988821E+04  0.18521705204E+04  0.97878724546E+02 0.  0.
         23    2    4    4    0    0  0.68632872600E+02 -0.65150354850E+02 -0.78160416797E+03  0.79265455744E+03  0.91875633886E+02 0.  0.
          4    1    3    3  502    0  0.92587171591E+03 -0.10042851159E+03 -0.19859918864E+04  0.21935104497E+04  0.00000000000E+00 0. -1.
         -3    1    3    3    0  502  0.89953397984E+02  0.12872121069E+02 -0.22226732570E+03  0.24012511194E+03  0.00000000000E+00 0.  1.
         11    1    5    5    0    0 -0.10703997021E+04  0.13870591958E+03 -0.14692437130E+04  0.18230940575E+04  0.00000000000E+00 0. -1.
        -11    1    5    5    0    0 -0.14058284407E+02  0.14000825785E+02 -0.21255169092E+02  0.29076462925E+02  0.00000000000E+00 0.  1.
          4    1    6    6  503    0  0.65196800930E+02 -0.58384733228E+02 -0.78000529486E+03  0.78489977700E+03  0.00000000000E+00 0. -1.
         -4    1    6    6    0  503  0.34360716698E+01 -0.67656216219E+01 -0.15988731121E+01  0.77547804404E+01  0.00000000000E+00 0.  1.
<mgrwt>
<rscale>  0 0.23910492E+04</rscale>
<asrwt>0</asrwt>
<pdfrwt beam="1">  1        2 0.73529407E+00 0.23910492E+04</pdfrwt>
<pdfrwt beam="2">  1       -1 0.46007567E-01 0.23910492E+04</pdfrwt>
<totfact> 0.30510874E-01</totfact>
</mgrwt>
</event>
<event>
12    6  0.1627636E-007  0.2248237E+04  0.7818608E-02  0.8498615E-01
         -1   -1    0    0    0  501 -0.00000000000E+00  0.00000000000E+00  0.60154230180E+03  0.60154230180E+03  0.00000000000E+00 0.  1.
          2   -1    0    0  501    0  0.00000000000E+00 -0.00000000000E+00 -0.21006701987E+04  0.21006701987E+04  0.00000000000E+00 0. -1.
         24    2    1    2    0    0 -0.45136726841E+03  0.36386251605E+02 -0.16416330127E+04  0.17048199743E+04  0.79973908488E+02 0.  0.
        254    2    1    2    0    0  0.45136726841E+03 -0.36386251605E+02  0.14250511579E+03  0.99739252622E+03  0.87717032157E+03 0.  0.
         23    2    4    4    0    0  0.37113444397E+03  0.53861321703E+02  0.48653182206E+03  0.62110234880E+03  0.91722932410E+02 0.  0.
         23    2    4    4    0    0  0.80232824437E+02 -0.90247573308E+02 -0.34402670626E+03  0.37629017743E+03  0.93048333678E+02 0.  0.
          2    1    3    3  502    0 -0.43354042113E+03  0.32728722849E+02 -0.16154511131E+04  0.16729347761E+04  0.00000000000E+00 0. -1.
         -3    1    3    3    0  502 -0.17826847280E+02  0.36575287558E+01 -0.26181899574E+02  0.31885198225E+02  0.00000000000E+00 0.  1.
         11    1    5    5    0    0  0.23060521850E+03  0.24787790626E+02  0.36792152601E+03  0.43492464941E+03  0.00000000000E+00 0.  1.
        -11    1    5    5    0    0  0.14052922547E+03  0.29073531078E+02  0.11861029605E+03  0.18617769939E+03  0.00000000000E+00 0. -1.
          2    1    6    6  503    0  0.27590598338E+02 -0.67871051480E+02 -0.28430919377E+03  0.29359740872E+03  0.00000000000E+00 0. -1.
         -2    1    6    6    0  503  0.52642226099E+02 -0.22376521828E+02 -0.59717512493E+02  0.82692768706E+02  0.00000000000E+00 0.  1.
<mgrwt>
<rscale>  0 0.22482366E+04</rscale>
<asrwt>0</asrwt>
<pdfrwt beam="1">  1        2 0.32318003E+00 0.22482366E+04</pdfrwt>
<pdfrwt beam="2">  1       -1 0.92544969E-01 0.22482366E+04</pdfrwt>
<totfact> 0.69061776E+00</totfact>
</mgrwt>
</event>
<event>
12    6  0.1627636E-007  0.1054315E+04  0.7818608E-02  0.9250900E-01
          2   -1    0    0  501    0  0.00000000000E+00  0.00000000000E+00  0.23408818801E+04  0.23408818801E+04  0.00000000000E+00 0. -1.
         -1   -1    0    0    0  501 -0.00000000000E+00 -0.00000000000E+00 -0.11871389173E+03  0.11871389173E+03  0.00000000000E+00 0.  1.
         24    2    1    2    0    0 -0.30460630635E+02 -0.10508074978E+03  0.64618477798E+03  0.66024168254E+03  0.79965605640E+02 0.  0.
        254    2    1    2    0    0  0.30460630635E+02  0.10508074978E+03  0.15759832104E+04  0.17993540893E+04  0.86138391279E+03 0.  0.
         23    2    4    4    0    0  0.34786475178E+03  0.16591674065E+03  0.13165590242E+04  0.13748188023E+04  0.90889078499E+02 0.  0.
         23    2    4    4    0    0 -0.31740412114E+03 -0.60835990871E+02  0.25942418620E+03  0.42453528700E+03  0.92102701477E+02 0.  0.
          4    1    3    3  502    0 -0.48977326732E+02 -0.59641659424E+02  0.50292984905E+03  0.50881660659E+03  0.00000000000E+00 0. -1.
         -3    1    3    3    0  502  0.18516696097E+02 -0.45439090355E+02  0.14325492893E+03  0.15142507596E+03  0.00000000000E+00 0.  1.
         11    1    5    5    0    0  0.32643863146E+03  0.12471343883E+03  0.11711663276E+04  0.12221890970E+04  0.00000000000E+00 0.  1.
        -11    1    5    5    0    0  0.21426120313E+02  0.41203301821E+02  0.14539269664E+03  0.15262970533E+03  0.00000000000E+00 0. -1.
          3    1    6    6  503    0 -0.31473315776E+03 -0.55906222665E+02  0.26602493191E+03  0.41587465747E+03  0.00000000000E+00 0.  1.
         -3    1    6    6    0  503 -0.26709633802E+01 -0.49297682055E+01 -0.66007457100E+01  0.86606295306E+01  0.00000000000E+00 0. -1.
<mgrwt>
<rscale>  0 0.10543153E+04</rscale>
<asrwt>0</asrwt>
<pdfrwt beam="1">  1        2 0.36013564E+00 0.10543153E+04</pdfrwt>
<pdfrwt beam="2">  1       -1 0.18263677E-01 0.10543153E+04</pdfrwt>
<totfact> 0.11684699E+02</totfact>
</mgrwt>
</event>
<event>
12    6  0.1627636E-007  0.1290424E+04  0.7818608E-02  0.9037193E-01
         -1   -1    0    0    0  501 -0.00000000000E+00  0.00000000000E+00  0.24879761847E+03  0.24879761847E+03  0.00000000000E+00 0.  1.
          2   -1    0    0  501    0  0.00000000000E+00 -0.00000000000E+00 -0.16732421318E+04  0.16732421318E+04  0.00000000000E+00 0. -1.
         24    2    1    2    0    0 -0.33534246591E+02  0.29586362824E+02  0.44860302674E+02  0.10262305448E+03  0.80741228591E+02 0.  0.
        254    2    1    2    0    0  0.33534246591E+02 -0.29586362824E+02 -0.14693048160E+04  0.18194166958E+04  0.10721103358E+04 0.  0.
         23    2    4    4    0    0  0.50078430730E+03 -0.20165045723E+03 -0.93466886099E+03  0.10833171616E+04  0.92316648658E+02 0.  0.
         23    2    4    4    0    0 -0.46725006071E+03  0.17206409440E+03 -0.53463595501E+03  0.73609953416E+03  0.89879074266E+02 0.  0.
          4    1    3    3  502    0 -0.15955312183E+02  0.36183143420E+02 -0.13131010208E+02  0.41667916719E+02  0.00000000000E+00 0. -1.
         -3    1    3    3    0  502 -0.17578934408E+02 -0.65967805961E+01  0.57991312883E+02  0.60955137757E+02  0.00000000000E+00 0.  1.
         11    1    5    5    0    0  0.31673247997E+02 -0.10147048364E+02 -0.11470518834E+03  0.11942963393E+03  0.00000000000E+00 0. -1.
        -11    1    5    5    0    0  0.46911105931E+03 -0.19150340886E+03 -0.81996367265E+03  0.96388752769E+03  0.00000000000E+00 0.  1.
          1    1    6    6  503    0 -0.14289202986E+03  0.34878777001E+02 -0.10579517877E+03  0.18118300454E+03  0.00000000000E+00 0. -1.
         -1    1    6    6    0  503 -0.32435803086E+03  0.13718531740E+03 -0.42884077623E+03  0.55491652963E+03  0.00000000000E+00 0.  1.
<mgrwt>
<rscale>  0 0.12904242E+04</rscale>
<asrwt>0</asrwt>
<pdfrwt beam="1">  1        2 0.25742187E+00 0.12904242E+04</pdfrwt>
<pdfrwt beam="2">  1       -1 0.38276556E-01 0.12904242E+04</pdfrwt>
<totfact> 0.74853035E+01</totfact>
</mgrwt>
</event>
<event>
12    6  0.1627636E-007  0.3293768E+04  0.7818608E-02  0.8164483E-01
          2   -1    0    0  501    0  0.00000000000E+00  0.00000000000E+00  0.18755235790E+04  0.18755235790E+04  0.00000000000E+00 0. -1.
         -1   -1    0    0    0  501 -0.00000000000E+00 -0.00000000000E+00 -0.14461167735E+04  0.14461167735E+04  0.00000000000E+00 0.  1.
         24    2    1    2    0    0  0.31996303512E+03 -0.13558177109E+04  0.81575549786E+03  0.16162306568E+04  0.78271927420E+02 0.  0.
        254    2    1    2    0    0 -0.31996303512E+03  0.13558177109E+04 -0.38634869230E+03  0.17054096957E+04  0.90473140159E+03 0.  0.
         23    2    4    4    0    0 -0.51365751337E+03  0.61777077824E+03  0.70251638794E+02  0.81170977113E+03  0.91938481144E+02 0.  0.
         23    2    4    4    0    0  0.19369447825E+03  0.73804693268E+03 -0.45660033109E+03  0.89369992455E+03  0.89358083235E+02 0.  0.
          4    1    3    3  502    0  0.22923645435E+03 -0.10701251182E+04  0.66639884814E+03  0.12813292104E+04  0.00000000000E+00 0. -1.
         -3    1    3    3    0  502  0.90726580774E+02 -0.28569259269E+03  0.14935664972E+03  0.33490144639E+03  0.00000000000E+00 0.  1.
         11    1    5    5    0    0 -0.10809536035E+03  0.18775993074E+03  0.36025563202E+02  0.21962750221E+03  0.00000000000E+00 0.  1.
        -11    1    5    5    0    0 -0.40556215303E+03  0.43001084749E+03  0.34226075593E+02  0.59208226893E+03  0.00000000000E+00 0. -1.
          4    1    6    6  503    0  0.46604101026E+02  0.30807872911E+03 -0.15247490334E+03  0.34689053275E+03  0.00000000000E+00 0. -1.
         -4    1    6    6    0  503  0.14709037723E+03  0.42996820357E+03 -0.30412542775E+03  0.54680939180E+03  0.00000000000E+00 0.  1.
<mgrwt>
<rscale>  0 0.32937675E+04</rscale>
<asrwt>0</asrwt>
<pdfrwt beam="1">  1        2 0.28854209E+00 0.32937675E+04</pdfrwt>
<pdfrwt beam="2">  1       -1 0.22247950E+00 0.32937675E+04</pdfrwt>
<totfact> 0.78901692E-01</totfact>
</mgrwt>
</event>
<event>
12    6  0.1627636E-007  0.2180182E+04  0.7818608E-02  0.8526722E-01
         -1   -1    0    0    0  501 -0.00000000000E+00  0.00000000000E+00  0.14203658386E+04  0.14203658386E+04  0.00000000000E+00 0.  1.
          2   -1    0    0  501    0  0.00000000000E+00 -0.00000000000E+00 -0.83661466477E+03  0.83661466477E+03  0.00000000000E+00 0. -1.
         24    2    1    2    0    0 -0.48438222672E+03 -0.62336229050E+03 -0.19881127578E+03  0.81807597662E+03  0.80719844952E+02 0.  0.
        254    2    1    2    0    0  0.48438222672E+03  0.62336229050E+03  0.78256244957E+03  0.14389045267E+04  0.91369336363E+03 0.  0.
         23    2    4    4    0    0  0.92712107763E+01 -0.18241558967E+03  0.34758292580E+03  0.40337177084E+03  0.92376904584E+02 0.  0.
         23    2    4    4    0    0  0.47511101595E+03  0.80577788017E+03  0.43497952377E+03  0.10355327559E+04  0.90069044253E+02 0.  0.
          4    1    3    3  502    0 -0.20917581511E+03 -0.29043407352E+03 -0.12936148338E+03  0.38057964485E+03  0.00000000000E+00 0. -1.
         -3    1    3    3    0  502 -0.27520641161E+03 -0.33292821697E+03 -0.69449792396E+02  0.43749633177E+03  0.00000000000E+00 0.  1.
         11    1    5    5    0    0 -0.30710541307E+02 -0.25964742398E+02  0.99993461170E+02  0.10777753695E+03  0.00000000000E+00 0. -1.
        -11    1    5    5    0    0  0.39981752083E+02 -0.15645084728E+03  0.24758946463E+03  0.29559423389E+03  0.00000000000E+00 0.  1.
          4    1    6    6  503    0  0.43307729602E+03  0.77215059382E+03  0.40113393841E+03  0.97194697407E+03  0.00000000000E+00 0.  1.
         -4    1    6    6    0  503  0.42033719928E+02  0.33627286348E+02  0.33845585360E+02  0.63585781795E+02  0.00000000000E+00 0. -1.
<mgrwt>
<rscale>  0 0.21801825E+04</rscale>
<asrwt>0</asrwt>
<pdfrwt beam="1">  1        2 0.12870995E+00 0.21801825E+04</pdfrwt>
<pdfrwt beam="2">  1       -1 0.21851782E+00 0.21801825E+04</pdfrwt>
<totfact> 0.38142226E+00</totfact>
</mgrwt>
</event>
<event>
12    6  0.1627636E-007  0.1849244E+04  0.7818608E-02  0.8680542E-01
          2   -1    0    0  501    0  0.00000000000E+00  0.00000000000E+00  0.16204585803E+04  0.16204585803E+04  0.00000000000E+00 0. -1.
         -1   -1    0    0    0  501 -0.00000000000E+00 -0.00000000000E+00 -0.52758248683E+03  0.52758248683E+03  0.00000000000E+00 0.  1.
         24    2    1    2    0    0 -0.54622359670E+03  0.43629447040E+03  0.30244736273E+03  0.76585083475E+03  0.79624188330E+02 0.  0.
        254    2    1    2    0    0  0.54622359670E+03 -0.43629447040E+03  0.79042873070E+03  0.13821902323E+04  0.89272570119E+03 0.  0.
         23    2    4    4    0    0  0.61037763475E+03  0.58440544806E+02  0.35203453421E+03  0.71182811483E+03  0.82430561773E+02 0.  0.
         23    2    4    4    0    0 -0.64154038046E+02 -0.49473501521E+03  0.43839419648E+03  0.67036211750E+03  0.91199896958E+02 0.  0.
          2    1    3    3  502    0 -0.51458424850E+03  0.43081332228E+03  0.29371078997E+03  0.73257292852E+03  0.00000000000E+00 0. -1.
         -1    1    3    3    0  502 -0.31639348199E+02  0.54811481214E+01  0.87365727619E+01  0.33277906226E+02  0.00000000000E+00 0.  1.
         11    1    5    5    0    0  0.49926759630E+03  0.25259492024E+02  0.31136947009E+03  0.58894577132E+03  0.00000000000E+00 0.  1.
        -11    1    5    5    0    0  0.11111003845E+03  0.33181052783E+02  0.40665064126E+02  0.12288234352E+03  0.00000000000E+00 0. -1.
          2    1    6    6  503    0 -0.15859103916E+02 -0.14076339114E+03  0.18199290270E+03  0.23062363299E+03  0.00000000000E+00 0. -1.
         -2    1    6    6    0  503 -0.48294934131E+02 -0.35397162406E+03  0.25640129379E+03  0.43973848451E+03  0.00000000000E+00 0.  1.
<mgrwt>
<rscale>  0 0.18492437E+04</rscale>
<asrwt>0</asrwt>
<pdfrwt beam="1">  1        2 0.24930132E+00 0.18492437E+04</pdfrwt>
<pdfrwt beam="2">  1       -1 0.81166538E-01 0.18492437E+04</pdfrwt>
<totfact> 0.17597066E+01</totfact>
</mgrwt>
</event>
<event>
12    6  0.1627636E-007  0.1700608E+04  0.7818608E-02  0.8761018E-01
         -1   -1    0    0    0  501 -0.00000000000E+00  0.00000000000E+00  0.27289063956E+03  0.27289063956E+03  0.00000000000E+00 0.  1.
          2   -1    0    0  501    0  0.00000000000E+00 -0.00000000000E+00 -0.26494746986E+04  0.26494746986E+04  0.00000000000E+00 0. -1.
         24    2    1    2    0    0 -0.53362061758E+03 -0.21267229372E+03 -0.12082947383E+04  0.13402914240E+04  0.80152720317E+02 0.  0.
        254    2    1    2    0    0  0.53362061758E+03  0.21267229372E+03 -0.11682893207E+04  0.15820739141E+04  0.89893129045E+03 0.  0.
         23    2    4    4    0    0  0.50881941372E+03 -0.18166903916E+03 -0.30214618647E+03  0.62565972598E+03  0.90867701350E+02 0.  0.
         23    2    4    4    0    0  0.24801203853E+02  0.39434133288E+03 -0.86614313423E+03  0.95641418816E+03  0.91673244818E+02 0.  0.
          4    1    3    3  502    0 -0.42595232040E+03 -0.20142388758E+03 -0.95855500692E+03  0.10680986205E+04  0.00000000000E+00 0. -1.
         -3    1    3    3    0  502 -0.10766829718E+03 -0.11248406141E+02 -0.24973973138E+03  0.27219280352E+03  0.00000000000E+00 0.  1.
         11    1    5    5    0    0  0.35681839975E+03 -0.11510106185E+03 -0.25405670896E+03  0.45289340490E+03  0.00000000000E+00 0.  1.
        -11    1    5    5    0    0  0.15200101398E+03 -0.66567977308E+02 -0.48089477513E+02  0.17276632108E+03  0.00000000000E+00 0. -1.
          1    1    6    6  503    0 -0.29871479209E+02  0.94850104733E+02 -0.25322981262E+03  0.27205548265E+03  0.00000000000E+00 0. -1.
         -1    1    6    6    0  503  0.54672683062E+02  0.29949122815E+03 -0.61291332161E+03  0.68435870551E+03  0.00000000000E+00 0.  1.
<mgrwt>
<rscale>  0 0.17006079E+04</rscale>
<asrwt>0</asrwt>
<pdfrwt beam="1">  1        2 0.40761149E+00 0.17006079E+04</pdfrwt>
<pdfrwt beam="2">  1       -1 0.41983175E-01 0.17006079E+04</pdfrwt>
<totfact> 0.17219063E+01</totfact>
</mgrwt>
</event>
<event>
12    6  0.1627636E-007  0.1456210E+04  0.7818608E-02  0.8914107E-01
         -1   -1    0    0    0  501 -0.00000000000E+00  0.00000000000E+00  0.10416848001E+04  0.10416848001E+04  0.00000000000E+00 0.  1.
          2   -1    0    0  501    0  0.00000000000E+00 -0.00000000000E+00 -0.50892236866E+03  0.50892236866E+03  0.00000000000E+00 0. -1.
         24    2    1    2    0    0  0.96104486625E+01 -0.41438141374E+03  0.31706357971E+03  0.52798040053E+03  0.80185241677E+02 0.  0.
        254    2    1    2    0    0 -0.96104486625E+01  0.41438141374E+03  0.21569885172E+03  0.10226267682E+04  0.90963464958E+03 0.  0.
         23    2    4    4    0    0  0.16360780691E+03  0.57776157396E+03  0.38212561801E+03  0.71772201627E+03  0.92352335441E+02 0.  0.
         23    2    4    4    0    0 -0.17321825557E+03 -0.16338016023E+03 -0.16642676629E+03  0.30490475197E+03  0.92581847143E+02 0.  0.
          4    1    3    3  502    0 -0.20482311167E+02 -0.10184964184E+03  0.47804835573E+02  0.11435985711E+03  0.00000000000E+00 0. -1.
         -3    1    3    3    0  502  0.30092759830E+02 -0.31253177190E+03  0.26925874414E+03  0.41362054342E+03  0.00000000000E+00 0.  1.
         11    1    5    5    0    0  0.17251055632E+03  0.53281331301E+03  0.33815592492E+03  0.65421659114E+03  0.00000000000E+00 0.  1.
        -11    1    5    5    0    0 -0.89027494125E+01  0.44948260952E+02  0.43969693095E+02  0.63505425127E+02  0.00000000000E+00 0. -1.
          4    1    6    6  503    0  0.11953432898E+01 -0.39260463603E+02 -0.41082597490E+02  0.56838302793E+02  0.00000000000E+00 0. -1.
         -4    1    6    6    0  503 -0.17441359886E+03 -0.12411969662E+03 -0.12534416880E+03  0.24806644918E+03  0.00000000000E+00 0.  1.
<mgrwt>
<rscale>  0 0.14562097E+04</rscale>
<asrwt>0</asrwt>
<pdfrwt beam="1">  1        2 0.78295749E-01 0.14562097E+04</pdfrwt>
<pdfrwt beam="2">  1       -1 0.16025920E+00 0.14562097E+04</pdfrwt>
<totfact> 0.19447901E+01</totfact>
</mgrwt>
</event>
<event>
12    6  0.1627636E-007  0.1989686E+04  0.7818608E-02  0.8611458E-01
          2   -1    0    0  501    0  0.00000000000E+00  0.00000000000E+00  0.37045759029E+04  0.37045759029E+04  0.00000000000E+00 0. -1.
         -1   -1    0    0    0  501 -0.00000000000E+00 -0.00000000000E+00 -0.26715943567E+03  0.26715943567E+03  0.00000000000E+00 0.  1.
         24    2    1    2    0    0  0.20509974878E+03 -0.74035879363E+03  0.10514990353E+04  0.13047045684E+04  0.80042109519E+02 0.  0.
        254    2    1    2    0    0 -0.20509974878E+03  0.74035879363E+03  0.23859174319E+04  0.26670307701E+04  0.91118279545E+03 0.  0.
         23    2    4    4    0    0 -0.51763331428E+03  0.33630617557E+03  0.16663897967E+04  0.17799105631E+04  0.10089879145E+03 0.  0.
         23    2    4    4    0    0  0.31253356549E+03  0.40405261806E+03  0.71952763518E+03  0.88712020707E+03  0.91249637149E+02 0.  0.
          2    1    3    3  502    0  0.16922300503E+03 -0.67000313287E+03  0.90984610823E+03  0.11425237696E+04  0.00000000000E+00 0. -1.
         -1    1    3    3    0  502  0.35876743756E+02 -0.70355660761E+02  0.14165292707E+03  0.16218079878E+03  0.00000000000E+00 0.  1.
         11    1    5    5    0    0 -0.47102370021E+03  0.27125773043E+03  0.14954253274E+04  0.15911445542E+04  0.00000000000E+00 0. -1.
        -11    1    5    5    0    0 -0.46609614072E+02  0.65048445144E+02  0.17096446933E+03  0.18876600889E+03  0.00000000000E+00 0.  1.
          1    1    6    6  503    0  0.18437455560E+03  0.30372938221E+03  0.46964267623E+03  0.58890555925E+03  0.00000000000E+00 0. -1.
         -1    1    6    6    0  503  0.12815900989E+03  0.10032323585E+03  0.24988495895E+03  0.29821464783E+03  0.00000000000E+00 0.  1.
<mgrwt>
<rscale>  0 0.19896858E+04</rscale>
<asrwt>0</asrwt>
<pdfrwt beam="1">  1        2 0.56993472E+00 0.19896858E+04</pdfrwt>
<pdfrwt beam="2">  1       -1 0.41101454E-01 0.19896858E+04</pdfrwt>
<totfact> 0.35787196E+00</totfact>
</mgrwt>
</event>
<event>
12    6  0.1627636E-007  0.2051659E+04  0.7818608E-02  0.8582842E-01
         -1   -1    0    0    0  501 -0.00000000000E+00  0.00000000000E+00  0.91777525015E+03  0.91777525015E+03  0.00000000000E+00 0.  1.
          2   -1    0    0  501    0  0.00000000000E+00 -0.00000000000E+00 -0.11466057944E+04  0.11466057944E+04  0.00000000000E+00 0. -1.
         24    2    1    2    0    0  0.51445427883E+03  0.62556345272E+03 -0.77060375969E+00  0.81379119944E+03  0.79137121950E+02 0.  0.
        254    2    1    2    0    0 -0.51445427883E+03 -0.62556345272E+03 -0.22805994045E+03  0.12505898451E+04  0.92518689234E+03 0.  0.
         23    2    4    4    0    0  0.57718485605E+02 -0.63465104656E+03 -0.56157058223E+02  0.64640803849E+03  0.92608652704E+02 0.  0.
         23    2    4    4    0    0 -0.57217276444E+03  0.90875938370E+01 -0.17190288223E+03  0.60418180658E+03  0.89558906629E+02 0.  0.
          2    1    3    3  502    0  0.49530043585E+03  0.60068945970E+03  0.14909152171E+02  0.77869932038E+03  0.00000000000E+00 0. -1.
         -3    1    3    3    0  502  0.19153842979E+02  0.24873993025E+02 -0.15679755931E+02  0.35091879059E+02  0.00000000000E+00 0.  1.
         11    1    5    5    0    0 -0.11630409757E+02 -0.37040670783E+03 -0.24729589501E+02  0.37141344649E+03  0.00000000000E+00 0. -1.
        -11    1    5    5    0    0  0.69348895363E+02 -0.26424433873E+03 -0.31427468722E+02  0.27499459200E+03  0.00000000000E+00 0.  1.
          3    1    6    6  503    0 -0.40195209998E+03  0.44460339767E+02 -0.13597326742E+03  0.42665084313E+03  0.00000000000E+00 0. -1.
         -3    1    6    6    0  503 -0.17022066446E+03 -0.35372745930E+02 -0.35929614812E+02  0.17753096345E+03  0.00000000000E+00 0.  1.
<mgrwt>
<rscale>  0 0.20516593E+04</rscale>
<asrwt>0</asrwt>
<pdfrwt beam="1">  1        2 0.17640089E+00 0.20516593E+04</pdfrwt>
<pdfrwt beam="2">  1       -1 0.14119619E+00 0.20516593E+04</pdfrwt>
<totfact> 0.88218263E+00</totfact>
</mgrwt>
</event>
<event>
12    6  0.1627636E-007  0.2483814E+04  0.7818608E-02  0.8408774E-01
          2   -1    0    0  501    0  0.00000000000E+00  0.00000000000E+00  0.27457139262E+04  0.27457139262E+04  0.00000000000E+00 0. -1.
         -1   -1    0    0    0  501 -0.00000000000E+00 -0.00000000000E+00 -0.56172403701E+03  0.56172403701E+03  0.00000000000E+00 0.  1.
         24    2    1    2    0    0 -0.16875784760E+03  0.50688906301E+03 -0.29496501892E+03  0.61504198727E+03  0.76528101979E+02 0.  0.
        254    2    1    2    0    0  0.16875784760E+03 -0.50688906301E+03  0.24789549081E+04  0.26923959760E+04  0.90463413682E+03 0.  0.
         23    2    4    4    0    0  0.47853093804E+03 -0.47604760003E+02  0.11461525194E+04  0.12461635782E+04  0.89442686584E+02 0.  0.
         23    2    4    4    0    0 -0.30977309044E+03 -0.45928430301E+03  0.13328023888E+04  0.14462323977E+04  0.91238710232E+02 0.  0.
          4    1    3    3  502    0 -0.54055069173E+02  0.17565047057E+03 -0.14356221754E+03  0.23320623624E+03  0.00000000000E+00 0. -1.
         -3    1    3    3    0  502 -0.11470277842E+03  0.33123859244E+03 -0.15140280138E+03  0.38183575103E+03  0.00000000000E+00 0.  1.
         11    1    5    5    0    0  0.59081006719E+02  0.15706528690E+02  0.20300043766E+03  0.21200575013E+03  0.00000000000E+00 0. -1.
        -11    1    5    5    0    0  0.41944993132E+03 -0.63311288693E+02  0.94315208171E+03  0.10341578281E+04  0.00000000000E+00 0.  1.
          1    1    6    6  503    0 -0.20696800601E+02 -0.49668750186E+01  0.32618097496E+02  0.38948269369E+02  0.00000000000E+00 0. -1.
         -1    1    6    6    0  503 -0.28907628984E+03 -0.45431742799E+03  0.13001842913E+04  0.14072841284E+04  0.00000000000E+00 0.  1.
<mgrwt>
<rscale>  0 0.24838144E+04</rscale>
<asrwt>0</asrwt>
<pdfrwt beam="1">  1        2 0.42241752E+00 0.24838144E+04</pdfrwt>
<pdfrwt beam="2">  1       -1 0.86419084E-01 0.24838144E+04</pdfrwt>
<totfact> 0.33443439E+00</totfact>
</mgrwt>
</event>
<event>
12    6  0.1809946E-007  0.3099751E+04  0.7818608E-02  0.8215806E-01
          2   -1    0    0  501    0  0.00000000000E+00  0.00000000000E+00  0.14303263786E+04  0.14303263786E+04  0.00000000000E+00 0. -1.
         -1   -1    0    0    0  501 -0.00000000000E+00 -0.00000000000E+00 -0.16794165906E+04  0.16794165906E+04  0.00000000000E+00 0.  1.
         24    2    1    2    0    0 -0.69887725273E+03  0.86494195498E+03  0.76385745182E+03  0.13514062157E+04  0.79161564878E+02 0.  0.
        254    2    1    2    0    0  0.69887725273E+03 -0.86494195498E+03 -0.10129476638E+04  0.17583367534E+04  0.91056640000E+03 0.  0.
         23    2    4    4    0    0  0.13549596738E+03 -0.62527217551E+03 -0.93162863547E+03  0.11340118831E+04  0.93416197102E+02 0.  0.
         23    2    4    4    0    0  0.56338128535E+03 -0.23966977947E+03 -0.81319028348E+02  0.62432487032E+03  0.91261620910E+02 0.  0.
          2    1    3    3  502    0 -0.66041952726E+03  0.82254573436E+03  0.70183709921E+03  0.12670085836E+04  0.00000000000E+00 0. -1.
         -1    1    3    3    0  502 -0.38457725472E+02  0.42396220622E+02  0.62020352609E+02  0.84397632130E+02  0.00000000000E+00 0.  1.
         11    1    5    5    0    0  0.30753450703E+02 -0.19622958481E+03 -0.21926545329E+03  0.29585328069E+03  0.00000000000E+00 0. -1.
        -11    1    5    5    0    0  0.10474251668E+03 -0.42904259069E+03 -0.71236318217E+03  0.83815860238E+03  0.00000000000E+00 0.  1.
          3    1    6    6  503    0  0.20540251432E+02 -0.33258044032E+01 -0.20399128892E+02  0.29139103682E+02  0.00000000000E+00 0. -1.
         -3    1    6    6    0  503  0.54284103392E+03 -0.23634397507E+03 -0.60919899456E+02  0.59518576664E+03  0.00000000000E+00 0.  1.
<mgrwt>
<rscale>  0 0.30997509E+04</rscale>
<asrwt>0</asrwt>
<pdfrwt beam="1">  1        2 0.22005021E+00 0.30997509E+04</pdfrwt>
<pdfrwt beam="2">  1       -1 0.25837178E+00 0.30997509E+04</pdfrwt>
<totfact> 0.82649106E-01</totfact>
</mgrwt>
</event>
<event>
12    6  0.1627636E-007  0.1205605E+04  0.7818608E-02  0.9107964E-01
          2   -1    0    0  501    0  0.00000000000E+00  0.00000000000E+00  0.15335539065E+04  0.15335539065E+04  0.00000000000E+00 0. -1.
         -1   -1    0    0    0  501 -0.00000000000E+00 -0.00000000000E+00 -0.23694700491E+03  0.23694700491E+03  0.00000000000E+00 0.  1.
         24    2    1    2    0    0 -0.11845349822E+01 -0.32320525508E+02  0.59789917610E+03  0.60440414708E+03  0.82309955277E+02 0.  0.
        254    2    1    2    0    0  0.11845349822E+01  0.32320525508E+02  0.69870772553E+03  0.11660967644E+04  0.93302902349E+03 0.  0.
         23    2    4    4    0    0 -0.42225751170E+03  0.14541398316E+03  0.20650759281E+03  0.50106568192E+03  0.94735415874E+02 0.  0.
         23    2    4    4    0    0  0.42344204668E+03 -0.11309345766E+03  0.49220013272E+03  0.66503108245E+03  0.88949833677E+02 0.  0.
          2    1    3    3  502    0 -0.12897454604E+02 -0.84562241125E+01  0.54483712198E+03  0.54505535641E+03  0.00000000000E+00 0. -1.
         -1    1    3    3    0  502  0.11712919622E+02 -0.23864301396E+02  0.53062054123E+02  0.59348790678E+02  0.00000000000E+00 0.  1.
         11    1    5    5    0    0 -0.10815984339E+02 -0.92278040609E+01 -0.23736141543E+01  0.14414295999E+02  0.00000000000E+00 0.  1.
        -11    1    5    5    0    0 -0.41144152736E+03  0.15464178723E+03  0.20888120697E+03  0.48665138592E+03  0.00000000000E+00 0. -1.
          2    1    6    6  503    0  0.23023221859E+03 -0.15549992747E+02  0.25758657657E+03  0.34583163705E+03  0.00000000000E+00 0. -1.
         -2    1    6    6    0  503  0.19320982810E+03 -0.97543464909E+02  0.23461355615E+03  0.31919944540E+03  0.00000000000E+00 0.  1.
<mgrwt>
<rscale>  0 0.12056053E+04</rscale>
<asrwt>0</asrwt>
<pdfrwt beam="1">  1        2 0.23593136E+00 0.12056053E+04</pdfrwt>
<pdfrwt beam="2">  1       -1 0.36453386E-01 0.12056053E+04</pdfrwt>
<totfact> 0.98450952E+01</totfact>
</mgrwt>
</event>
<event>
12    6  0.1627636E-007  0.1849428E+04  0.7818608E-02  0.8680447E-01
         -1   -1    0    0    0  501 -0.00000000000E+00  0.00000000000E+00  0.46066871166E+03  0.46066871166E+03  0.00000000000E+00 0.  1.
          2   -1    0    0  501    0  0.00000000000E+00 -0.00000000000E+00 -0.18562058835E+04  0.18562058835E+04  0.00000000000E+00 0. -1.
         24    2    1    2    0    0  0.22945687449E+02 -0.63491620191E+03 -0.18550978033E+03  0.66674216734E+03  0.80536644418E+02 0.  0.
        254    2    1    2    0    0 -0.22945687449E+02  0.63491620191E+03 -0.12100273915E+04  0.16501324278E+04  0.92473004336E+03 0.  0.
         23    2    4    4    0    0 -0.26124510986E+02  0.26469482839E+03  0.89809419485E+02  0.29546671853E+03  0.92135811077E+02 0.  0.
         23    2    4    4    0    0  0.31788235371E+01  0.37022137352E+03 -0.12998368109E+04  0.13546657092E+04  0.92029768996E+02 0.  0.
          2    1    3    3  502    0 -0.27569711127E+01 -0.11241086654E+02  0.69995995186E+01  0.13526171384E+02  0.00000000000E+00 0. -1.
         -1    1    3    3    0  502  0.25702658561E+02 -0.62367511525E+03 -0.19250937985E+03  0.65321599596E+03  0.00000000000E+00 0.  1.
         11    1    5    5    0    0  0.22797022197E+02  0.48209549511E+02 -0.61207139358E+01  0.53678003169E+02  0.00000000000E+00 0.  1.
        -11    1    5    5    0    0 -0.48921533183E+02  0.21648527888E+03  0.95930133420E+02  0.24178871536E+03  0.00000000000E+00 0. -1.
          2    1    6    6  503    0  0.28395213381E+02  0.28234574194E+03 -0.10781225424E+04  0.11148424205E+04  0.00000000000E+00 0. -1.
         -2    1    6    6    0  503 -0.25216389844E+02  0.87875631584E+02 -0.22171426852E+03  0.23982328872E+03  0.00000000000E+00 0.  1.
<mgrwt>
<rscale>  0 0.18494280E+04</rscale>
<asrwt>0</asrwt>
<pdfrwt beam="1">  1        2 0.28557014E+00 0.18494280E+04</pdfrwt>
<pdfrwt beam="2">  1       -1 0.70872109E-01 0.18494280E+04</pdfrwt>
<totfact> 0.17296428E+01</totfact>
</mgrwt>
</event>
<event>
12    6  0.1627636E-007  0.1858275E+04  0.7818608E-02  0.8675909E-01
         -1   -1    0    0    0  501 -0.00000000000E+00  0.00000000000E+00  0.75365233975E+03  0.75365233975E+03  0.00000000000E+00 0.  1.
          2   -1    0    0  501    0  0.00000000000E+00 -0.00000000000E+00 -0.11454838117E+04  0.11454838117E+04  0.00000000000E+00 0. -1.
         24    2    1    2    0    0  0.36164614125E+03  0.61610314243E+03 -0.83444438364E+02  0.72371899189E+03  0.80219644291E+02 0.  0.
        254    2    1    2    0    0 -0.36164614125E+03 -0.61610314243E+03 -0.30838703355E+03  0.11754171595E+04  0.88098349749E+03 0.  0.
         23    2    4    4    0    0  0.12018912620E+03 -0.21779046267E+03  0.22585294329E+03  0.34818448661E+03  0.91349729267E+02 0.  0.
         23    2    4    4    0    0 -0.48183526745E+03 -0.39831267976E+03 -0.53423997684E+03  0.82723267291E+03  0.89907321514E+02 0.  0.
          4    1    3    3  502    0  0.32124034492E+03  0.55254402073E+03 -0.99145770836E+02  0.64678446018E+03  0.00000000000E+00 0. -1.
         -3    1    3    3    0  502  0.40405796330E+02  0.63559121695E+02  0.15701332471E+02  0.76934531708E+02  0.00000000000E+00 0.  1.
         11    1    5    5    0    0  0.74246149933E+02 -0.10563564231E+03  0.59002749260E+02  0.14196022023E+03  0.00000000000E+00 0. -1.
        -11    1    5    5    0    0  0.45942976266E+02 -0.11215482035E+03  0.16685019403E+03  0.20622426638E+03  0.00000000000E+00 0.  1.
          2    1    6    6  503    0 -0.17623659966E+02 -0.42882321641E+02 -0.30491629870E+02  0.55490777540E+02  0.00000000000E+00 0. -1.
         -2    1    6    6    0  503 -0.46421160749E+03 -0.35543035812E+03 -0.50374834697E+03  0.77174189537E+03  0.00000000000E+00 0.  1.
<mgrwt>
<rscale>  0 0.18582751E+04</rscale>
<asrwt>0</asrwt>
<pdfrwt beam="1">  1        2 0.17622828E+00 0.18582751E+04</pdfrwt>
<pdfrwt beam="2">  1       -1 0.11594651E+00 0.18582751E+04</pdfrwt>
<totfact> 0.14736451E+01</totfact>
</mgrwt>
</event>
<event>
12    6  0.1627636E-007  0.1231561E+04  0.7818608E-02  0.9085671E-01
          2   -1    0    0  501    0  0.00000000000E+00  0.00000000000E+00  0.21198694259E+03  0.21198694259E+03  0.00000000000E+00 0. -1.
         -1   -1    0    0    0  501 -0.00000000000E+00 -0.00000000000E+00 -0.17887209287E+04  0.17887209287E+04  0.00000000000E+00 0.  1.
         24    2    1    2    0    0  0.20553200419E+03 -0.27244685354E+02 -0.61828764067E+03  0.65670093406E+03  0.77400468744E+02 0.  0.
        254    2    1    2    0    0 -0.20553200419E+03  0.27244685354E+02 -0.95844634548E+03  0.13440069373E+04  0.91910259091E+03 0.  0.
         23    2    4    4    0    0  0.18427038149E+02  0.40121319974E+03 -0.18529249861E+03  0.45184484808E+03  0.92297721072E+02 0.  0.
         23    2    4    4    0    0 -0.22395904234E+03 -0.37396851439E+03 -0.77315384687E+03  0.89216208918E+03  0.90422453213E+02 0.  0.
          4    1    3    3  502    0  0.33041934891E+02  0.24458209852E+02 -0.12371769675E+03  0.13036886891E+03  0.00000000000E+00 0. -1.
         -3    1    3    3    0  502  0.17249006930E+03 -0.51702895206E+02 -0.49456994392E+03  0.52633206515E+03  0.00000000000E+00 0.  1.
         11    1    5    5    0    0 -0.44344763877E+01  0.17091182322E+03 -0.12758024231E+03  0.21332424645E+03  0.00000000000E+00 0. -1.
        -11    1    5    5    0    0  0.22861514537E+02  0.23030137652E+03 -0.57712256306E+02  0.23852060163E+03  0.00000000000E+00 0.  1.
          4    1    6    6  503    0 -0.27099564855E+02 -0.57667994726E+02 -0.18769563134E+03  0.19821612965E+03  0.00000000000E+00 0. -1.
         -4    1    6    6    0  503 -0.19685947749E+03 -0.31630051966E+03 -0.58545821553E+03  0.69394595953E+03  0.00000000000E+00 0.  1.
<mgrwt>
<rscale>  0 0.12315608E+04</rscale>
<asrwt>0</asrwt>
<pdfrwt beam="1">  1        2 0.32613375E-01 0.12315608E+04</pdfrwt>
<pdfrwt beam="2">  1       -1 0.27518784E+00 0.12315608E+04</pdfrwt>
<totfact> 0.87846659E+00</totfact>
</mgrwt>
</event>
<event>
12    6  0.1627636E-007  0.1051253E+04  0.7818608E-02  0.9254051E-01
          2   -1    0    0  501    0  0.00000000000E+00  0.00000000000E+00  0.58581312311E+03  0.58581312311E+03  0.00000000000E+00 0. -1.
         -1   -1    0    0    0  501 -0.00000000000E+00 -0.00000000000E+00 -0.47162376072E+03  0.47162376072E+03  0.00000000000E+00 0.  1.
         24    2    1    2    0    0 -0.15304594110E+02 -0.95694137646E+02  0.78784538008E+02  0.14830587506E+03  0.79975187192E+02 0.  0.
        254    2    1    2    0    0  0.15304594110E+02  0.95694137646E+02  0.35404824386E+02  0.90913100877E+03  0.90325748873E+03 0.  0.
         23    2    4    4    0    0  0.13872673967E+03 -0.52852898939E+02 -0.39340169000E+03  0.43023949316E+03  0.91118574114E+02 0.  0.
         23    2    4    4    0    0 -0.12342214556E+03  0.14854703658E+03  0.42880651439E+03  0.47889151561E+03  0.90348264235E+02 0.  0.
          2    1    3    3  502    0 -0.14766553259E+02  0.83595254239E+01  0.27464133157E+02  0.32283298631E+02  0.00000000000E+00 0. -1.
         -1    1    3    3    0  502 -0.53804085167E+00 -0.10405366307E+03  0.51320404852E+02  0.11602257642E+03  0.00000000000E+00 0.  1.
         11    1    5    5    0    0  0.47896307584E+02 -0.43842814155E+02 -0.26410988770E+03  0.27197478084E+03  0.00000000000E+00 0. -1.
        -11    1    5    5    0    0  0.90830432090E+02 -0.90100847837E+01 -0.12929180230E+03  0.15826471231E+03  0.00000000000E+00 0.  1.
          3    1    6    6  503    0 -0.13198664651E+03  0.12541253641E+03  0.40738868565E+03  0.44622227683E+03  0.00000000000E+00 0. -1.
         -3    1    6    6    0  503  0.85645009466E+01  0.23134500171E+02  0.21417828744E+02  0.32669238784E+02  0.00000000000E+00 0.  1.
<mgrwt>
<rscale>  0 0.10512533E+04</rscale>
<asrwt>0</asrwt>
<pdfrwt beam="1">  1        2 0.90125095E-01 0.10512533E+04</pdfrwt>
<pdfrwt beam="2">  1       -1 0.72557502E-01 0.10512533E+04</pdfrwt>
<totfact> 0.11133767E+02</totfact>
</mgrwt>
</event>
<event>
12    6  0.1627636E-007  0.1646126E+04  0.7818608E-02  0.8792702E-01
         -1   -1    0    0    0  501 -0.00000000000E+00  0.00000000000E+00  0.46508967254E+03  0.46508967254E+03  0.00000000000E+00 0.  1.
          2   -1    0    0  501    0  0.00000000000E+00 -0.00000000000E+00 -0.14565630670E+04  0.14565630670E+04  0.00000000000E+00 0. -1.
         24    2    1    2    0    0 -0.41603870829E+03  0.22262281386E+03  0.39216517296E+02  0.48051501023E+03  0.81900035315E+02 0.  0.
        254    2    1    2    0    0  0.41603870829E+03 -0.22262281386E+03 -0.10306899118E+04  0.14411377293E+04  0.88989164320E+03 0.  0.
         23    2    4    4    0    0 -0.18845017959E+03  0.16128080208E+02  0.11572879843E+02  0.20962975661E+03  0.89649975728E+02 0.  0.
         23    2    4    4    0    0  0.60448888788E+03 -0.23875089407E+03 -0.10422627916E+04  0.12315079727E+04  0.88833299593E+02 0.  0.
          2    1    3    3  502    0 -0.39063514464E+03  0.20947980369E+03  0.56888939142E+02  0.44689367391E+03  0.00000000000E+00 0. -1.
         -1    1    3    3    0  502 -0.25403563654E+02  0.13143010167E+02 -0.17672421847E+02  0.33621336328E+02  0.00000000000E+00 0.  1.
         11    1    5    5    0    0 -0.58020824783E+02  0.46143133135E+02  0.15492805550E+02  0.75733954524E+02  0.00000000000E+00 0. -1.
        -11    1    5    5    0    0 -0.13042935481E+03 -0.30015052927E+02 -0.39199257069E+01  0.13389580208E+03  0.00000000000E+00 0.  1.
          4    1    6    6  503    0  0.39989751536E+03 -0.20093949597E+03 -0.69193554601E+03  0.82405673570E+03  0.00000000000E+00 0. -1.
         -4    1    6    6    0  503  0.20459137252E+03 -0.37811398096E+02 -0.35032724562E+03  0.40745123704E+03  0.00000000000E+00 0.  1.
<mgrwt>
<rscale>  0 0.16461257E+04</rscale>
<asrwt>0</asrwt>
<pdfrwt beam="1">  1        2 0.22408663E+00 0.16461257E+04</pdfrwt>
<pdfrwt beam="2">  1       -1 0.71552257E-01 0.16461257E+04</pdfrwt>
<totfact> 0.28847446E+01</totfact>
</mgrwt>
</event>
<event>
12    6  0.1627636E-007  0.2016435E+04  0.7818608E-02  0.8598975E-01
         -1   -1    0    0    0  501 -0.00000000000E+00  0.00000000000E+00  0.47267272892E+03  0.47267272892E+03  0.00000000000E+00 0.  1.
          2   -1    0    0  501    0  0.00000000000E+00 -0.00000000000E+00 -0.21505425505E+04  0.21505425505E+04  0.00000000000E+00 0. -1.
         24    2    1    2    0    0 -0.61891557803E+03  0.16297734708E+03 -0.39580840677E+02  0.64629668426E+03  0.80713398826E+02 0.  0.
        254    2    1    2    0    0  0.61891557803E+03 -0.16297734708E+03 -0.16382889809E+04  0.19769185951E+04  0.90255096172E+03 0.  0.
         23    2    4    4    0    0  0.69699911865E+03  0.16268657813E+03 -0.13282073588E+04  0.15117047173E+04  0.94030155558E+02 0.  0.
         23    2    4    4    0    0 -0.78083540626E+02 -0.32566392520E+03 -0.31008162207E+03  0.46521387785E+03  0.90107204478E+02 0.  0.
          4    1    3    3  502    0 -0.17359922245E+03  0.74480541846E+02 -0.35753439496E+02  0.19225594812E+03  0.00000000000E+00 0. -1.
         -3    1    3    3    0  502 -0.44531635557E+03  0.88496805232E+02 -0.38274011816E+01  0.45404073614E+03  0.00000000000E+00 0.  1.
         11    1    5    5    0    0  0.58403076436E+03  0.11357548430E+03 -0.11539730960E+04  0.12983240084E+04  0.00000000000E+00 0.  1.
        -11    1    5    5    0    0  0.11296835430E+03  0.49111093831E+02 -0.17423426277E+03  0.21338070890E+03  0.00000000000E+00 0. -1.
          3    1    6    6  503    0 -0.69658280170E+02 -0.23364180929E+03 -0.27198352878E+03  0.36526129137E+03  0.00000000000E+00 0. -1.
         -3    1    6    6    0  503 -0.84252604560E+01 -0.92022115913E+02 -0.38098093288E+02  0.99952586475E+02  0.00000000000E+00 0.  1.
<mgrwt>
<rscale>  0 0.20164353E+04</rscale>
<asrwt>0</asrwt>
<pdfrwt beam="1">  1        2 0.33085270E+00 0.20164353E+04</pdfrwt>
<pdfrwt beam="2">  1       -1 0.72718882E-01 0.20164353E+04</pdfrwt>
<totfact> 0.11088436E+01</totfact>
</mgrwt>
</event>
<event>
12    6  0.1627636E-007  0.2282638E+04  0.7818608E-02  0.8484798E-01
          2   -1    0    0  501    0  0.00000000000E+00  0.00000000000E+00  0.26259763567E+04  0.26259763567E+04  0.00000000000E+00 0. -1.
         -1   -1    0    0    0  501 -0.00000000000E+00 -0.00000000000E+00 -0.49604731734E+03  0.49604731734E+03  0.00000000000E+00 0.  1.
         24    2    1    2    0    0 -0.10032783094E+02 -0.20327866005E+03 -0.38516947788E+03  0.44249318582E+03  0.77600402299E+02 0.  0.
        254    2    1    2    0    0  0.10032783094E+02  0.20327866005E+03  0.25150985172E+04  0.26795304882E+04  0.90152105660E+03 0.  0.
         23    2    4    4    0    0  0.18061681273E+02 -0.16335222704E+03  0.21381201477E+04  0.21460135532E+04  0.82499877969E+02 0.  0.
         23    2    4    4    0    0 -0.80288981787E+01  0.36663088709E+03  0.37697836947E+03  0.53351693501E+03  0.89693691600E+02 0.  0.
          4    1    3    3  502    0 -0.24481682410E+02 -0.93674387506E+02 -0.11347041974E+03  0.14916360080E+03  0.00000000000E+00 0. -1.
         -3    1    3    3    0  502  0.14448899316E+02 -0.10960427254E+03 -0.27169905815E+03  0.29332958502E+03  0.00000000000E+00 0.  1.
         11    1    5    5    0    0  0.56903925612E+01 -0.23118038735E+02  0.91145333728E+02  0.94203482648E+02  0.00000000000E+00 0. -1.
        -11    1    5    5    0    0  0.12371288712E+02 -0.14023418831E+03  0.20469748140E+04  0.20518100705E+04  0.00000000000E+00 0.  1.
          4    1    6    6  503    0 -0.34925253316E+02  0.26184947147E+03  0.30541087800E+03  0.40380778030E+03  0.00000000000E+00 0.  1.
         -4    1    6    6    0  503  0.26896355138E+02  0.10478141563E+03  0.71567491473E+02  0.12970915471E+03  0.00000000000E+00 0. -1.
<mgrwt>
<rscale>  0 0.22826375E+04</rscale>
<asrwt>0</asrwt>
<pdfrwt beam="1">  1        2 0.40399636E+00 0.22826375E+04</pdfrwt>
<pdfrwt beam="2">  1       -1 0.76314973E-01 0.22826375E+04</pdfrwt>
<totfact> 0.52321521E+00</totfact>
</mgrwt>
</event>
<event>
12    6  0.1627636E-007  0.1797429E+04  0.7818608E-02  0.8707668E-01
         -1   -1    0    0    0  501 -0.00000000000E+00  0.00000000000E+00  0.26192447973E+03  0.26192447973E+03  0.00000000000E+00 0.  1.
          2   -1    0    0  501    0  0.00000000000E+00 -0.00000000000E+00 -0.30836672028E+04  0.30836672028E+04  0.00000000000E+00 0. -1.
         24    2    1    2    0    0  0.34312898421E+03  0.22464276591E+03 -0.20417290061E+04  0.20840790877E+04  0.80786368005E+02 0.  0.
        254    2    1    2    0    0 -0.34312898421E+03 -0.22464276591E+03 -0.78001371694E+03  0.12615125948E+04  0.90265760740E+03 0.  0.
         23    2    4    4    0    0  0.64130620860E+02 -0.28241326946E+03  0.71195810265E+02  0.31171342319E+03  0.90699633396E+02 0.  0.
         23    2    4    4    0    0 -0.40725960507E+03  0.57770503547E+02 -0.85120952720E+03  0.94979917163E+03  0.91449386149E+02 0.  0.
          2    1    3    3  502    0  0.25334787874E+03  0.12314364179E+03 -0.14377653521E+04  0.14651002396E+04  0.00000000000E+00 0. -1.
         -1    1    3    3    0  502  0.89781105468E+02  0.10149912412E+03 -0.60396365399E+03  0.61897884814E+03  0.00000000000E+00 0.  1.
         11    1    5    5    0    0  0.38399027131E+01 -0.58404776659E+00 -0.11287069676E+02  0.11936662285E+02  0.00000000000E+00 0.  1.
        -11    1    5    5    0    0  0.60290718147E+02 -0.28182922169E+03  0.82482879941E+02  0.29977676090E+03  0.00000000000E+00 0. -1.
          3    1    6    6  503    0 -0.29759534345E+03  0.65175433693E+02 -0.54366303330E+03  0.62320166831E+03  0.00000000000E+00 0. -1.
         -3    1    6    6    0  503 -0.10966426162E+03 -0.74049301458E+01 -0.30754649390E+03  0.32659750332E+03  0.00000000000E+00 0.  1.
<mgrwt>
<rscale>  0 0.17974292E+04</rscale>
<asrwt>0</asrwt>
<pdfrwt beam="1">  1        2 0.47441031E+00 0.17974292E+04</pdfrwt>
<pdfrwt beam="2">  1       -1 0.40296076E-01 0.17974292E+04</pdfrwt>
<totfact> 0.10002370E+01</totfact>
</mgrwt>
</event>
<event>
12    6  0.1627636E-007  0.2101059E+04  0.7818608E-02  0.8560777E-01
          2   -1    0    0  501    0  0.00000000000E+00  0.00000000000E+00  0.80013261384E+03  0.80013261384E+03  0.00000000000E+00 0. -1.
         -1   -1    0    0    0  501 -0.00000000000E+00 -0.00000000000E+00 -0.13792861154E+04  0.13792861154E+04  0.00000000000E+00 0.  1.
         24    2    1    2    0    0 -0.10594070061E+03 -0.80919376402E+03 -0.51528046743E+03  0.96844652046E+03  0.79729060600E+02 0.  0.
        254    2    1    2    0    0  0.10594070061E+03  0.80919376402E+03 -0.63873034126E+02  0.12109722088E+04  0.89238777790E+03 0.  0.
         23    2    4    4    0    0  0.10720210472E+03  0.66674986882E+03  0.34881352446E+03  0.76592162631E+03  0.94431901267E+02 0.  0.
         23    2    4    4    0    0 -0.12614041104E+01  0.14244389520E+03 -0.41268655859E+03  0.44505058246E+03  0.86417422346E+02 0.  0.
          2    1    3    3  502    0 -0.76294793673E+02 -0.44498560439E+03 -0.24279367309E+03  0.51262252326E+03  0.00000000000E+00 0. -1.
         -1    1    3    3    0  502 -0.29645906936E+02 -0.36420815963E+03 -0.27248679434E+03  0.45582399720E+03  0.00000000000E+00 0.  1.
         11    1    5    5    0    0 -0.91945671266E+01  0.14264212689E+03  0.49626788345E+02  0.15130807827E+03  0.00000000000E+00 0.  1.
        -11    1    5    5    0    0  0.11639667185E+03  0.52410774192E+03  0.29918673612E+03  0.61461354804E+03  0.00000000000E+00 0. -1.
          3    1    6    6  503    0  0.21196837891E+02  0.11951437822E+03 -0.23507519319E+03  0.26456254268E+03  0.00000000000E+00 0. -1.
         -3    1    6    6    0  503 -0.22458242001E+02  0.22929516986E+02 -0.17761136540E+03  0.18048803977E+03  0.00000000000E+00 0.  1.
<mgrwt>
<rscale>  0 0.21010586E+04</rscale>
<asrwt>0</asrwt>
<pdfrwt beam="1">  1        2 0.12309733E+00 0.21010586E+04</pdfrwt>
<pdfrwt beam="2">  1       -1 0.21219786E+00 0.21010586E+04</pdfrwt>
<totfact> 0.44977652E+00</totfact>
</mgrwt>
</event>
<event>
12    6  0.1627636E-007  0.1913549E+04  0.7818608E-02  0.8648141E-01
         -1   -1    0    0    0  501 -0.00000000000E+00  0.00000000000E+00  0.55837638691E+03  0.55837638691E+03  0.00000000000E+00 0.  1.
          2   -1    0    0  501    0  0.00000000000E+00 -0.00000000000E+00 -0.16394277715E+04  0.16394277715E+04  0.00000000000E+00 0. -1.
         24    2    1    2    0    0 -0.53707554926E+03 -0.27639907004E+03  0.54597250405E+02  0.61162408489E+03  0.79098482474E+02 0.  0.
        254    2    1    2    0    0  0.53707554926E+03  0.27639907004E+03 -0.11356486350E+04  0.15861800735E+04  0.92812866129E+03 0.  0.
         23    2    4    4    0    0  0.44198933091E+03  0.59609612501E+03 -0.65328199402E+03  0.99259422026E+03  0.88208636154E+02 0.  0.
         23    2    4    4    0    0  0.95086218356E+02 -0.31969705497E+03 -0.48236664096E+03  0.59358585325E+03  0.91755070600E+02 0.  0.
          4    1    3    3  502    0 -0.29689272551E+03 -0.11301357527E+03  0.46191919590E+02  0.32101565708E+03  0.00000000000E+00 0. -1.
         -3    1    3    3    0  502 -0.24018282375E+03 -0.16338549477E+03  0.84053308149E+01  0.29060842781E+03  0.00000000000E+00 0.  1.
         11    1    5    5    0    0  0.27657339379E+03  0.37918488448E+03 -0.46825991100E+03  0.66297915731E+03  0.00000000000E+00 0.  1.
        -11    1    5    5    0    0  0.16541593711E+03  0.21691124053E+03 -0.18502208302E+03  0.32961506295E+03  0.00000000000E+00 0. -1.
          1    1    6    6  503    0 -0.14089578593E+02 -0.28245774560E+02 -0.24502311623E+02  0.39958769755E+02  0.00000000000E+00 0. -1.
         -1    1    6    6    0  503  0.10917579695E+03 -0.29145128041E+03 -0.45786432934E+03  0.55362708349E+03  0.00000000000E+00 0.  1.
<mgrwt>
<rscale>  0 0.19135493E+04</rscale>
<asrwt>0</asrwt>
<pdfrwt beam="1">  1        2 0.25221966E+00 0.19135493E+04</pdfrwt>
<pdfrwt beam="2">  1       -1 0.85904059E-01 0.19135493E+04</pdfrwt>
<totfact> 0.15113522E+01</totfact>
</mgrwt>
</event>
<event>
12    6  0.1627636E-007  0.2978152E+04  0.7818608E-02  0.8249997E-01
          2   -1    0    0  501    0  0.00000000000E+00  0.00000000000E+00  0.11121094222E+04  0.11121094222E+04  0.00000000000E+00 0. -1.
         -1   -1    0    0    0  501 -0.00000000000E+00 -0.00000000000E+00 -0.19938212366E+04  0.19938212366E+04  0.00000000000E+00 0.  1.
         24    2    1    2    0    0 -0.11167016410E+04  0.45348667360E+03  0.23582437426E+03  0.12308393522E+04  0.81729169834E+02 0.  0.
        254    2    1    2    0    0  0.11167016410E+04 -0.45348667360E+03 -0.11175361886E+04  0.18750913066E+04  0.90244532077E+03 0.  0.
         23    2    4    4    0    0  0.10210924755E+03 -0.12608663882E+01 -0.65392271785E+03  0.66798059266E+03  0.90306494940E+02 0.  0.
         23    2    4    4    0    0  0.10145923935E+04 -0.45222580722E+03 -0.46361347077E+03  0.12071107139E+04  0.90955592452E+02 0.  0.
          2    1    3    3  502    0 -0.56648034545E+03  0.20258357207E+03  0.15018962506E+03  0.62007822807E+03  0.00000000000E+00 0. -1.
         -1    1    3    3    0  502 -0.55022129558E+03  0.25090310153E+03  0.85634749197E+02  0.61076112412E+03  0.00000000000E+00 0.  1.
         11    1    5    5    0    0  0.36608412662E+02  0.35855392574E+02 -0.15108874103E+03  0.15954182123E+03  0.00000000000E+00 0. -1.
        -11    1    5    5    0    0  0.65500834889E+02 -0.37116258962E+02 -0.50283397682E+03  0.50843877144E+03  0.00000000000E+00 0.  1.
          1    1    6    6  503    0  0.56822298444E+03 -0.28407860668E+03 -0.30271584042E+03  0.70371506652E+03  0.00000000000E+00 0. -1.
         -1    1    6    6    0  503  0.44636940904E+03 -0.16814720054E+03 -0.16089763035E+03  0.50339564741E+03  0.00000000000E+00 0.  1.
<mgrwt>
<rscale>  0 0.29781520E+04</rscale>
<asrwt>0</asrwt>
<pdfrwt beam="1">  1        2 0.17109376E+00 0.29781520E+04</pdfrwt>
<pdfrwt beam="2">  1       -1 0.30674172E+00 0.29781520E+04</pdfrwt>
<totfact> 0.62471803E-01</totfact>
</mgrwt>
</event>
<event>
12    6  0.1627636E-007  0.2111900E+04  0.7818608E-02  0.8556019E-01
         -1   -1    0    0    0  501 -0.00000000000E+00  0.00000000000E+00  0.48621887175E+03  0.48621887175E+03  0.00000000000E+00 0.  1.
          2   -1    0    0  501    0  0.00000000000E+00 -0.00000000000E+00 -0.22932679279E+04  0.22932679279E+04  0.00000000000E+00 0. -1.
         24    2    1    2    0    0  0.18359321154E+03  0.56023822692E+03 -0.15607658820E+04  0.16704745978E+04  0.83197986691E+02 0.  0.
        254    2    1    2    0    0 -0.18359321154E+03 -0.56023822692E+03 -0.24628317416E+03  0.11090122019E+04  0.90646529109E+03 0.  0.
         23    2    4    4    0    0 -0.30764461414E+03 -0.66052086004E+03  0.75181402974E+02  0.73858180150E+03  0.94434204531E+02 0.  0.
         23    2    4    4    0    0  0.12405140261E+03  0.10028263312E+03 -0.32146457713E+03  0.37043040044E+03  0.91835996357E+02 0.  0.
          4    1    3    3  502    0  0.16244740615E+03  0.53012473463E+03 -0.14055642087E+04  0.15109705949E+04  0.00000000000E+00 0. -1.
         -3    1    3    3    0  502  0.21145805390E+02  0.30113492290E+02 -0.15520167335E+03  0.15950400282E+03  0.00000000000E+00 0.  1.
         11    1    5    5    0    0 -0.30606693906E+03 -0.61875121170E+03  0.85337232286E+02  0.69556629905E+03  0.00000000000E+00 0.  1.
        -11    1    5    5    0    0 -0.15776750844E+01 -0.41769648346E+02 -0.10155829312E+02  0.43015502445E+02  0.00000000000E+00 0. -1.
          1    1    6    6  503    0  0.11599392473E+03  0.71357012030E+02 -0.30944584552E+03  0.33808748136E+03  0.00000000000E+00 0.  1.
         -1    1    6    6    0  503  0.80574778713E+01  0.28925621094E+02 -0.12018731610E+02  0.32342919083E+02  0.00000000000E+00 0. -1.
<mgrwt>
<rscale>  0 0.21118998E+04</rscale>
<asrwt>0</asrwt>
<pdfrwt beam="1">  1        2 0.35281044E+00 0.21118998E+04</pdfrwt>
<pdfrwt beam="2">  1       -1 0.74802905E-01 0.21118998E+04</pdfrwt>
<totfact> 0.86164279E+00</totfact>
</mgrwt>
</event>
<event>
12    6  0.1627636E-007  0.1922348E+04  0.7818608E-02  0.8643812E-01
          2   -1    0    0  501    0  0.00000000000E+00  0.00000000000E+00  0.20321291647E+04  0.20321291647E+04  0.00000000000E+00 0. -1.
         -1   -1    0    0    0  501 -0.00000000000E+00 -0.00000000000E+00 -0.45462434500E+03  0.45462434500E+03  0.00000000000E+00 0.  1.
         24    2    1    2    0    0 -0.35392848999E+03  0.40577988452E+03  0.12878518274E+04  0.13980337367E+04  0.77545528529E+02 0.  0.
        254    2    1    2    0    0  0.35392848999E+03 -0.40577988452E+03  0.28965299237E+03  0.10887197730E+04  0.90082695203E+03 0.  0.
         23    2    4    4    0    0 -0.78598075606E+02  0.13271578719E+03 -0.17579094288E+03  0.25096881320E+03  0.91059057464E+02 0.  0.
         23    2    4    4    0    0  0.43252656559E+03 -0.53849567171E+03  0.46544393525E+03  0.83775095984E+03  0.90176468384E+02 0.  0.
          4    1    3    3  502    0 -0.22784769667E+03  0.30861040078E+03  0.86650167179E+03  0.94761811905E+03  0.00000000000E+00 0. -1.
         -3    1    3    3    0  502 -0.12608079332E+03  0.97169483742E+02  0.42135015558E+03  0.45041561765E+03  0.00000000000E+00 0.  1.
         11    1    5    5    0    0 -0.88312855444E+02  0.11514049221E+03 -0.10973906872E+03  0.18193173607E+03  0.00000000000E+00 0.  1.
        -11    1    5    5    0    0  0.97147798388E+01  0.17575294974E+02 -0.66051874152E+02  0.69037077138E+02  0.00000000000E+00 0. -1.
          1    1    6    6  503    0  0.11513291597E+03 -0.18142917965E+03  0.18658483141E+03  0.28458045415E+03  0.00000000000E+00 0. -1.
         -1    1    6    6    0  503  0.31739364962E+03 -0.35706649206E+03  0.27885910384E+03  0.55317050569E+03  0.00000000000E+00 0.  1.
<mgrwt>
<rscale>  0 0.19223479E+04</rscale>
<asrwt>0</asrwt>
<pdfrwt beam="1">  1        2 0.31263525E+00 0.19223479E+04</pdfrwt>
<pdfrwt beam="2">  1       -1 0.69942208E-01 0.19223479E+04</pdfrwt>
<totfact> 0.14105481E+01</totfact>
</mgrwt>
</event>
<event>
12    6  0.1627636E-007  0.1433538E+04  0.7818608E-02  0.8929894E-01
          2   -1    0    0  501    0  0.00000000000E+00  0.00000000000E+00  0.13201294971E+04  0.13201294971E+04  0.00000000000E+00 0. -1.
         -1   -1    0    0    0  501 -0.00000000000E+00 -0.00000000000E+00 -0.38917218590E+03  0.38917218590E+03  0.00000000000E+00 0.  1.
         24    2    1    2    0    0  0.18303844456E+03  0.73477621628E+02 -0.17055733343E+03  0.27227772571E+03  0.78379352255E+02 0.  0.
        254    2    1    2    0    0 -0.18303844456E+03 -0.73477621628E+02  0.11015146447E+04  0.14370239573E+04  0.90155493925E+03 0.  0.
         23    2    4    4    0    0 -0.42485403941E+03  0.80195877675E+02  0.19601100295E+03  0.48291741589E+03  0.88637371880E+02 0.  0.
         23    2    4    4    0    0  0.24181559485E+03 -0.15367349930E+03  0.90550364172E+03  0.95410654145E+03  0.91061083653E+02 0.  0.
          2    1    3    3  502    0  0.33444967810E+02  0.42679870412E+01  0.18363543983E+01  0.33766163281E+02  0.00000000000E+00 0. -1.
         -1    1    3    3    0  502  0.14959347675E+03  0.69209634586E+02 -0.17239368783E+03  0.23851156242E+03  0.00000000000E+00 0.  1.
         11    1    5    5    0    0 -0.16377399756E+03  0.66616701680E+02  0.51253782469E+02  0.18408328940E+03  0.00000000000E+00 0. -1.
        -11    1    5    5    0    0 -0.26108004186E+03  0.13579175995E+02  0.14475722048E+03  0.29883412649E+03  0.00000000000E+00 0.  1.
          1    1    6    6  503    0  0.66191108680E+02  0.13370286994E+01  0.18600255178E+03  0.19743353257E+03  0.00000000000E+00 0. -1.
         -1    1    6    6    0  503  0.17562448617E+03 -0.15501052800E+03  0.71950108994E+03  0.75667300888E+03  0.00000000000E+00 0.  1.
<mgrwt>
<rscale>  0 0.14335378E+04</rscale>
<asrwt>0</asrwt>
<pdfrwt beam="1">  1        2 0.20309684E+00 0.14335378E+04</pdfrwt>
<pdfrwt beam="2">  1       -1 0.59872645E-01 0.14335378E+04</pdfrwt>
<totfact> 0.50368747E+01</totfact>
</mgrwt>
</event>
<event>
12    6  0.1627636E-007  0.2592055E+04  0.7818608E-02  0.8370905E-01
          2   -1    0    0  501    0  0.00000000000E+00  0.00000000000E+00  0.11938211196E+04  0.11938211196E+04  0.00000000000E+00 0. -1.
         -1   -1    0    0    0  501 -0.00000000000E+00 -0.00000000000E+00 -0.14069839655E+04  0.14069839655E+04  0.00000000000E+00 0.  1.
         24    2    1    2    0    0 -0.95495035221E+02 -0.49638973258E+03 -0.11188711252E+04  0.12303292104E+04  0.79468879837E+02 0.  0.
        254    2    1    2    0    0  0.95495035221E+02  0.49638973258E+03  0.90570827926E+03  0.13704758746E+04  0.89575363103E+03 0.  0.
         23    2    4    4    0    0  0.40688452103E+03  0.44853370831E+03  0.30105164644E+03  0.68240428128E+03  0.91137304894E+02 0.  0.
         23    2    4    4    0    0 -0.31138948581E+03  0.47856024263E+02  0.60465663281E+03  0.68807159336E+03  0.92624311319E+02 0.  0.
          2    1    3    3  502    0 -0.10103269175E+02 -0.96287885702E+01 -0.63012027898E+02  0.64539176298E+02  0.00000000000E+00 0. -1.
         -1    1    3    3    0  502 -0.85391766046E+02 -0.48676094401E+03 -0.10558590973E+04  0.11657900341E+04  0.00000000000E+00 0.  1.
         11    1    5    5    0    0  0.15014879084E+03  0.15023574508E+03  0.15359781122E+03  0.26212158649E+03  0.00000000000E+00 0. -1.
        -11    1    5    5    0    0  0.25673573019E+03  0.29829796324E+03  0.14745383522E+03  0.42028269480E+03  0.00000000000E+00 0.  1.
          2    1    6    6  503    0 -0.22637702472E+03  0.30771400204E+02  0.34045137818E+03  0.41000070402E+03  0.00000000000E+00 0. -1.
         -2    1    6    6    0  503 -0.85012461085E+02  0.17084624059E+02  0.26420525464E+03  0.27807088934E+03  0.00000000000E+00 0.  1.
<mgrwt>
<rscale>  0 0.25920549E+04</rscale>
<asrwt>0</asrwt>
<pdfrwt beam="1">  1        2 0.18366479E+00 0.25920549E+04</pdfrwt>
<pdfrwt beam="2">  1       -1 0.21645907E+00 0.25920549E+04</pdfrwt>
<totfact> 0.22400425E+00</totfact>
</mgrwt>
</event>
<event>
12    6  0.1627636E-007  0.1588176E+04  0.7818608E-02  0.8827845E-01
          2   -1    0    0  501    0  0.00000000000E+00  0.00000000000E+00  0.47510273591E+03  0.47510273591E+03  0.00000000000E+00 0. -1.
         -1   -1    0    0    0  501 -0.00000000000E+00 -0.00000000000E+00 -0.13272400429E+04  0.13272400429E+04  0.00000000000E+00 0.  1.
         24    2    1    2    0    0  0.39674478760E+03  0.24004242770E+03 -0.57778293720E+03  0.74523282967E+03  0.80697300585E+02 0.  0.
        254    2    1    2    0    0 -0.39674478760E+03 -0.24004242770E+03 -0.27435436982E+03  0.10571099492E+04  0.90949674590E+03 0.  0.
         23    2    4    4    0    0  0.20487853133E+03 -0.30130191255E+03 -0.23887591309E+03  0.44440024901E+03  0.87588951131E+02 0.  0.
         23    2    4    4    0    0 -0.60162331893E+03  0.61259484852E+02 -0.35478456730E+02  0.61270970015E+03  0.91929937477E+02 0.  0.
          2    1    3    3  502    0  0.23740354463E+02  0.42259711594E+02 -0.61034399942E+02  0.77940269632E+02  0.00000000000E+00 0. -1.
         -1    1    3    3    0  502  0.37300443313E+03  0.19778271610E+03 -0.51674853726E+03  0.66729256004E+03  0.00000000000E+00 0.  1.
         11    1    5    5    0    0  0.14150608386E+03 -0.25685569000E+03 -0.21421293210E+03  0.36316111787E+03  0.00000000000E+00 0.  1.
        -11    1    5    5    0    0  0.63372447469E+02 -0.44446222552E+02 -0.24662980993E+02  0.81239131142E+02  0.00000000000E+00 0. -1.
          3    1    6    6  503    0 -0.22362366633E+03 -0.52425278820E+01 -0.47682118820E+02  0.22871076209E+03  0.00000000000E+00 0. -1.
         -3    1    6    6    0  503 -0.37799965260E+03  0.66502012734E+02  0.12203662090E+02  0.38399893806E+03  0.00000000000E+00 0.  1.
<mgrwt>
<rscale>  0 0.15881755E+04</rscale>
<asrwt>0</asrwt>
<pdfrwt beam="1">  1        2 0.73092729E-01 0.15881755E+04</pdfrwt>
<pdfrwt beam="2">  1       -1 0.20419078E+00 0.15881755E+04</pdfrwt>
<totfact> 0.10096223E+01</totfact>
</mgrwt>
</event>
<event>
12    6  0.1627636E-007  0.1180566E+04  0.7818608E-02  0.9130039E-01
          2   -1    0    0  501    0  0.00000000000E+00  0.00000000000E+00  0.20353805511E+04  0.20353805511E+04  0.00000000000E+00 0. -1.
         -1   -1    0    0    0  501 -0.00000000000E+00 -0.00000000000E+00 -0.17118875543E+03  0.17118875543E+03  0.00000000000E+00 0.  1.
         24    2    1    2    0    0  0.65670310640E+02  0.37024818665E+02 -0.59038011994E+02  0.12437176660E+03  0.79368901784E+02 0.  0.
        254    2    1    2    0    0 -0.65670310640E+02 -0.37024818665E+02  0.19232298076E+04  0.20821975399E+04  0.79438672905E+03 0.  0.
         23    2    4    4    0    0 -0.25612112596E+03  0.57207723657E+02  0.19727165677E+03  0.34078061154E+03  0.91348584158E+02 0.  0.
         23    2    4    4    0    0  0.19045081532E+03 -0.94232542322E+02  0.17259581509E+04  0.17414169284E+04  0.91924397026E+02 0.  0.
          2    1    3    3  502    0 -0.17071032900E+02  0.75971973639E+01 -0.22521524803E+02  0.29263572091E+02  0.00000000000E+00 0. -1.
         -1    1    3    3    0  502  0.82741343539E+02  0.29427621301E+02 -0.36516487191E+02  0.95108194509E+02  0.00000000000E+00 0.  1.
         11    1    5    5    0    0 -0.14332863015E+03 -0.13635407513E+02  0.90326025864E+02  0.16996414771E+03  0.00000000000E+00 0. -1.
        -11    1    5    5    0    0 -0.11279249581E+03  0.70843131170E+02  0.10694563091E+03  0.17081646383E+03  0.00000000000E+00 0.  1.
          2    1    6    6  503    0  0.83557639628E+02 -0.55950212322E+01  0.89782318785E+03  0.90172038906E+03  0.00000000000E+00 0. -1.
         -2    1    6    6    0  503  0.10689317569E+03 -0.88637521090E+02  0.82813496301E+03  0.83969653930E+03  0.00000000000E+00 0.  1.
<mgrwt>
<rscale>  0 0.11805664E+04</rscale>
<asrwt>0</asrwt>
<pdfrwt beam="1">  1        2 0.31313545E+00 0.11805664E+04</pdfrwt>
<pdfrwt beam="2">  1       -1 0.26336733E-01 0.11805664E+04</pdfrwt>
<totfact> 0.92171738E+01</totfact>
</mgrwt>
</event>
<event>
12    6  0.1627636E-007  0.1098620E+04  0.7818608E-02  0.9206538E-01
          2   -1    0    0  501    0  0.00000000000E+00  0.00000000000E+00  0.78648073002E+03  0.78648073002E+03  0.00000000000E+00 0. -1.
         -1   -1    0    0    0  501 -0.00000000000E+00 -0.00000000000E+00 -0.38366011856E+03  0.38366011856E+03  0.00000000000E+00 0.  1.
         24    2    1    2    0    0  0.10694732292E+03 -0.36561474898E+02  0.20105828808E+02  0.14006476074E+03  0.80246006273E+02 0.  0.
        254    2    1    2    0    0 -0.10694732292E+03  0.36561474898E+02  0.38271478266E+03  0.10300760878E+04  0.94963765224E+03 0.  0.
         23    2    4    4    0    0  0.12943005974E+03  0.41328643089E+03  0.12371965324E+02  0.44414442974E+03  0.97741468265E+02 0.  0.
         23    2    4    4    0    0 -0.23637738266E+03 -0.37672495600E+03  0.37034281733E+03  0.58593165810E+03  0.91466639315E+02 0.  0.
          2    1    3    3  502    0 -0.26045422363E+01 -0.17777205515E+02  0.22618007304E+02  0.28885756535E+02  0.00000000000E+00 0. -1.
         -1    1    3    3    0  502  0.10955186515E+03 -0.18784269383E+02 -0.25121784963E+01  0.11117900420E+03  0.00000000000E+00 0.  1.
         11    1    5    5    0    0  0.11647215401E+03  0.41022323881E+03  0.70030884549E+00  0.42643798934E+03  0.00000000000E+00 0. -1.
        -11    1    5    5    0    0  0.12957905736E+02  0.30631920845E+01  0.11671656479E+02  0.17706440404E+02  0.00000000000E+00 0.  1.
          1    1    6    6  503    0 -0.17988234776E+03 -0.22141522241E+03  0.19867643170E+03  0.34764160319E+03  0.00000000000E+00 0. -1.
         -1    1    6    6    0  503 -0.56495034896E+02 -0.15530973358E+03  0.17166638563E+03  0.23829005491E+03  0.00000000000E+00 0.  1.
<mgrwt>
<rscale>  0 0.10986197E+04</rscale>
<asrwt>0</asrwt>
<pdfrwt beam="1">  1        2 0.12099704E+00 0.10986197E+04</pdfrwt>
<pdfrwt beam="2">  1       -1 0.59024634E-01 0.10986197E+04</pdfrwt>
<totfact> 0.11620455E+02</totfact>
</mgrwt>
</event>
<event>
12    6  0.1627636E-007  0.1486352E+04  0.7818608E-02  0.8893579E-01
          2   -1    0    0  501    0  0.00000000000E+00  0.00000000000E+00  0.10955024152E+04  0.10955024152E+04  0.00000000000E+00 0. -1.
         -1   -1    0    0    0  501 -0.00000000000E+00 -0.00000000000E+00 -0.50416219665E+03  0.50416219665E+03  0.00000000000E+00 0.  1.
         24    2    1    2    0    0 -0.37300789410E+03  0.24919039899E+03  0.68683060503E+02  0.46053638611E+03  0.78394235297E+02 0.  0.
        254    2    1    2    0    0  0.37300789410E+03 -0.24919039899E+03  0.52265715803E+03  0.11391282257E+04  0.90731023678E+03 0.  0.
         23    2    4    4    0    0  0.61621746584E+03 -0.33508539938E+03  0.49508310209E+03  0.86388672397E+03  0.95847815757E+02 0.  0.
         23    2    4    4    0    0 -0.24320957175E+03  0.85895000395E+02  0.27574055933E+02  0.27524150174E+03  0.92025587942E+02 0.  0.
          4    1    3    3  502    0 -0.27871838487E+03  0.22386479945E+03  0.60366458066E+02  0.36255136981E+03  0.00000000000E+00 0. -1.
         -3    1    3    3    0  502 -0.94289509230E+02  0.25325599538E+02  0.83166024363E+01  0.97985016298E+02  0.00000000000E+00 0.  1.
         11    1    5    5    0    0  0.18703427471E+03 -0.15337568992E+03  0.17066684587E+03  0.29602887436E+03  0.00000000000E+00 0.  1.
        -11    1    5    5    0    0  0.42918319113E+03 -0.18170970946E+03  0.32441625622E+03  0.56785784961E+03  0.00000000000E+00 0. -1.
          1    1    6    6  503    0 -0.14608867862E+03  0.55723706335E+02  0.61524749186E+02  0.16802478458E+03  0.00000000000E+00 0. -1.
         -1    1    6    6    0  503 -0.97120893125E+02  0.30171294061E+02 -0.33950693254E+02  0.10721671716E+03  0.00000000000E+00 0.  1.
<mgrwt>
<rscale>  0 0.14863525E+04</rscale>
<asrwt>0</asrwt>
<pdfrwt beam="1">  1        2 0.16853883E+00 0.14863525E+04</pdfrwt>
<pdfrwt beam="2">  1       -1 0.77563415E-01 0.14863525E+04</pdfrwt>
<totfact> 0.40298669E+01</totfact>
</mgrwt>
</event>
<event>
12    6  0.1627636E-007  0.1695911E+04  0.7818608E-02  0.8763700E-01
          2   -1    0    0  501    0  0.00000000000E+00  0.00000000000E+00  0.79780168141E+03  0.79780168141E+03  0.00000000000E+00 0. -1.
         -1   -1    0    0    0  501 -0.00000000000E+00 -0.00000000000E+00 -0.90126272900E+03  0.90126272900E+03  0.00000000000E+00 0.  1.
         24    2    1    2    0    0 -0.27900812291E+03  0.23573117971E+03  0.44616107705E+03  0.58230541761E+03  0.81272202961E+02 0.  0.
        254    2    1    2    0    0  0.27900812291E+03 -0.23573117971E+03 -0.54962212464E+03  0.11167589928E+04  0.90091700304E+03 0.  0.
         23    2    4    4    0    0  0.50084124545E+03  0.11805902038E+03 -0.41634583128E+03  0.66814078148E+03  0.91040470215E+02 0.  0.
         23    2    4    4    0    0 -0.22183312254E+03 -0.35379020009E+03 -0.13327629336E+03  0.44861821132E+03  0.95489733573E+02 0.  0.
          2    1    3    3  502    0 -0.17376039980E+03  0.11564184952E+03  0.20130385355E+03  0.28998095688E+03  0.00000000000E+00 0. -1.
         -1    1    3    3    0  502 -0.10524772311E+03  0.12008933019E+03  0.24485722349E+03  0.29232446073E+03  0.00000000000E+00 0.  1.
         11    1    5    5    0    0  0.48471783304E+03  0.12990389605E+03 -0.39301546499E+03  0.63740689955E+03  0.00000000000E+00 0.  1.
        -11    1    5    5    0    0  0.16123412410E+02 -0.11844875664E+02 -0.23330366292E+02  0.30733881931E+02  0.00000000000E+00 0. -1.
          4    1    6    6  503    0 -0.29213812703E+02 -0.17177512779E+02 -0.34604186627E+02  0.48435147673E+02  0.00000000000E+00 0. -1.
         -4    1    6    6    0  503 -0.19261930984E+03 -0.33661268731E+03 -0.98672106732E+02  0.40018306365E+03  0.00000000000E+00 0.  1.
<mgrwt>
<rscale>  0 0.16959115E+04</rscale>
<asrwt>0</asrwt>
<pdfrwt beam="1">  1        2 0.12273872E+00 0.16959115E+04</pdfrwt>
<pdfrwt beam="2">  1       -1 0.13865580E+00 0.16959115E+04</pdfrwt>
<totfact> 0.16151320E+01</totfact>
</mgrwt>
</event>
<event>
12    6  0.1627636E-007  0.1681101E+04  0.7818608E-02  0.8772217E-01
          2   -1    0    0  501    0  0.00000000000E+00  0.00000000000E+00  0.18416431247E+04  0.18416431247E+04  0.00000000000E+00 0. -1.
         -1   -1    0    0    0  501 -0.00000000000E+00 -0.00000000000E+00 -0.38363823978E+03  0.38363823978E+03  0.00000000000E+00 0.  1.
         24    2    1    2    0    0 -0.15599812389E+03  0.44263845729E+03  0.10260914499E+04  0.11311465027E+04  0.79777994702E+02 0.  0.
        254    2    1    2    0    0  0.15599812389E+03 -0.44263845729E+03  0.43191343507E+03  0.10941348618E+04  0.88899812260E+03 0.  0.
         23    2    4    4    0    0 -0.21364954934E+03 -0.35905777913E+03  0.54056171770E+03  0.68926932438E+03  0.91195461522E+02 0.  0.
         23    2    4    4    0    0  0.36964767322E+03 -0.83580678156E+02 -0.10864828263E+03  0.40486553747E+03  0.92122321023E+02 0.  0.
          4    1    3    3  502    0 -0.85211336205E+02  0.33165542206E+03  0.78561261321E+03  0.85699677294E+03  0.00000000000E+00 0. -1.
         -3    1    3    3    0  502 -0.70786787682E+02  0.11098303523E+03  0.24047883669E+03  0.27414972973E+03  0.00000000000E+00 0.  1.
         11    1    5    5    0    0  0.31638895791E+01 -0.49696045894E+01 -0.18640334535E+01  0.61791413448E+01  0.00000000000E+00 0. -1.
        -11    1    5    5    0    0 -0.21681343892E+03 -0.35408817454E+03  0.54242575115E+03  0.68309018304E+03  0.00000000000E+00 0.  1.
          4    1    6    6  503    0 -0.52942922643E+01 -0.32183557817E+01 -0.40361004181E+01  0.73944202682E+01  0.00000000000E+00 0. -1.
         -4    1    6    6    0  503  0.37494196549E+03 -0.80362322374E+02 -0.10461218221E+03  0.39747111720E+03  0.00000000000E+00 0.  1.
<mgrwt>
<rscale>  0 0.16811005E+04</rscale>
<asrwt>0</asrwt>
<pdfrwt beam="1">  1        2 0.28332971E+00 0.16811005E+04</pdfrwt>
<pdfrwt beam="2">  1       -1 0.59021269E-01 0.16811005E+04</pdfrwt>
<totfact> 0.25840114E+01</totfact>
</mgrwt>
</event>
<event>
12    6  0.1627636E-007  0.1940635E+04  0.7818608E-02  0.8634890E-01
         -1   -1    0    0    0  501 -0.00000000000E+00  0.00000000000E+00  0.50008555126E+03  0.50008555126E+03  0.00000000000E+00 0.  1.
          2   -1    0    0  501    0  0.00000000000E+00 -0.00000000000E+00 -0.18827108105E+04  0.18827108105E+04  0.00000000000E+00 0. -1.
         24    2    1    2    0    0  0.12649226973E+03  0.69708099188E+02 -0.14560742556E+04  0.14653824729E+04  0.79586685380E+02 0.  0.
        254    2    1    2    0    0 -0.12649226973E+03 -0.69708099188E+02  0.73448996396E+02  0.91741388889E+03  0.90299168051E+03 0.  0.
         23    2    4    4    0    0 -0.24959508059E+02  0.11913921510E+03 -0.37924147076E+03  0.40838133450E+03  0.90189198958E+02 0.  0.
         23    2    4    4    0    0 -0.10153276167E+03 -0.18884731429E+03  0.45269046716E+03  0.50903255439E+03  0.90627107235E+02 0.  0.
          2    1    3    3  502    0  0.13284693188E+03  0.52896804020E+02 -0.11629485865E+04  0.11717063600E+04  0.00000000000E+00 0. -1.
         -1    1    3    3    0  502 -0.63546621515E+01  0.16811295168E+02 -0.29312566910E+03  0.29367611285E+03  0.00000000000E+00 0.  1.
         11    1    5    5    0    0  0.95733672557E+01  0.28705805452E+02 -0.19870446526E+02  0.36200929165E+02  0.00000000000E+00 0. -1.
        -11    1    5    5    0    0 -0.34532875315E+02  0.90433409647E+02 -0.35937102424E+03  0.37218040534E+03  0.00000000000E+00 0.  1.
          2    1    6    6  503    0  0.31290325044E+01 -0.85872165933E+02  0.17053400785E+03  0.19095985850E+03  0.00000000000E+00 0. -1.
         -2    1    6    6    0  503 -0.10466179417E+03 -0.10297514835E+03  0.28215645931E+03  0.31807269589E+03  0.00000000000E+00 0.  1.
<mgrwt>
<rscale>  0 0.19406354E+04</rscale>
<asrwt>0</asrwt>
<pdfrwt beam="1">  1        2 0.28964782E+00 0.19406354E+04</pdfrwt>
<pdfrwt beam="2">  1       -1 0.76936239E-01 0.19406354E+04</pdfrwt>
<totfact> 0.13984120E+01</totfact>
</mgrwt>
</event>
<event>
12    6  0.1627636E-007  0.1390318E+04  0.7818608E-02  0.8960857E-01
         -1   -1    0    0    0  501 -0.00000000000E+00  0.00000000000E+00  0.32472010784E+03  0.32472010784E+03  0.00000000000E+00 0.  1.
          2   -1    0    0  501    0  0.00000000000E+00 -0.00000000000E+00 -0.14881920248E+04  0.14881920248E+04  0.00000000000E+00 0. -1.
         24    2    1    2    0    0  0.14345120197E+03  0.51402367943E+02 -0.75894698823E+03  0.77827336109E+03  0.80550871265E+02 0.  0.
        254    2    1    2    0    0 -0.14345120197E+03 -0.51402367943E+02 -0.40452492875E+03  0.10346387716E+04  0.94000878660E+03 0.  0.
         23    2    4    4    0    0 -0.30938908841E+03  0.29339388866E+03  0.43215508255E+02  0.43887065943E+03  0.94542549281E+02 0.  0.
         23    2    4    4    0    0  0.16593788644E+03 -0.34479625660E+03 -0.44774043701E+03  0.59576811215E+03  0.89712339164E+02 0.  0.
          2    1    3    3  502    0  0.10818492634E+03  0.17663030237E+02 -0.35908346000E+03  0.37544226210E+03  0.00000000000E+00 0. -1.
         -1    1    3    3    0  502  0.35266275633E+02  0.33739337707E+02 -0.39986352823E+03  0.40283109899E+03  0.00000000000E+00 0.  1.
         11    1    5    5    0    0 -0.29796513763E+03  0.25168804766E+03  0.55378835458E+02  0.39395039281E+03  0.00000000000E+00 0.  1.
        -11    1    5    5    0    0 -0.11423950785E+02  0.41705840996E+02 -0.12163327204E+02  0.44920266622E+02  0.00000000000E+00 0. -1.
          4    1    6    6  503    0  0.76830701556E+02 -0.14986337669E+03 -0.26561874906E+03  0.31450804159E+03  0.00000000000E+00 0. -1.
         -4    1    6    6    0  503  0.89107184884E+02 -0.19493287991E+03 -0.18212168795E+03  0.28126007055E+03  0.00000000000E+00 0.  1.
<mgrwt>
<rscale>  0 0.13903178E+04</rscale>
<asrwt>0</asrwt>
<pdfrwt beam="1">  1        2 0.22895262E+00 0.13903178E+04</pdfrwt>
<pdfrwt beam="2">  1       -1 0.49956940E-01 0.13903178E+04</pdfrwt>
<totfact> 0.57511658E+01</totfact>
</mgrwt>
</event>
<event>
12    6  0.1627636E-007  0.1299846E+04  0.7818608E-02  0.9029687E-01
          2   -1    0    0  501    0  0.00000000000E+00  0.00000000000E+00  0.22670367613E+04  0.22670367613E+04  0.00000000000E+00 0. -1.
         -1   -1    0    0    0  501 -0.00000000000E+00 -0.00000000000E+00 -0.18632248626E+03  0.18632248626E+03  0.00000000000E+00 0.  1.
         24    2    1    2    0    0  0.13678246309E+03  0.85797807053E+02 -0.47757269715E+01  0.18060455859E+03  0.80774334477E+02 0.  0.
        254    2    1    2    0    0 -0.13678246309E+03 -0.85797807053E+02  0.20854900020E+04  0.22727546890E+04  0.88886141883E+03 0.  0.
         23    2    4    4    0    0  0.21673293480E+03  0.15162742861E+03  0.15840767684E+04  0.16086452071E+04  0.92066019920E+02 0.  0.
         23    2    4    4    0    0 -0.35351539789E+03 -0.23742523566E+03  0.50141323362E+03  0.66410948188E+03  0.91007109651E+02 0.  0.
          4    1    3    3  502    0  0.38905067869E+02  0.65768296109E+01  0.30460753239E+02  0.49846930512E+02  0.00000000000E+00 0. -1.
         -3    1    3    3    0  502  0.97877395220E+02  0.79220977442E+02 -0.35236480210E+02  0.13075762807E+03  0.00000000000E+00 0.  1.
         11    1    5    5    0    0  0.12521247651E+03  0.43694481821E+02  0.60268972020E+03  0.61710798961E+03  0.00000000000E+00 0. -1.
        -11    1    5    5    0    0  0.91520458291E+02  0.10793294679E+03  0.98138704818E+03  0.99153721747E+03  0.00000000000E+00 0.  1.
          4    1    6    6  503    0 -0.35324676154E+03 -0.21939592469E+03  0.49044607085E+03  0.64300481702E+03  0.00000000000E+00 0. -1.
         -4    1    6    6    0  503 -0.26863634950E+00 -0.18029310969E+02  0.10967162772E+02  0.21104664858E+02  0.00000000000E+00 0.  1.
<mgrwt>
<rscale>  0 0.12998460E+04</rscale>
<asrwt>0</asrwt>
<pdfrwt beam="1">  1        2 0.34877487E+00 0.12998460E+04</pdfrwt>
<pdfrwt beam="2">  1       -1 0.28664999E-01 0.12998460E+04</pdfrwt>
<totfact> 0.58549981E+01</totfact>
</mgrwt>
</event>
<event>
12    6  0.1627636E-007  0.1598909E+04  0.7818608E-02  0.8821218E-01
          2   -1    0    0  501    0  0.00000000000E+00  0.00000000000E+00  0.36368356138E+04  0.36368356138E+04  0.00000000000E+00 0. -1.
         -1   -1    0    0    0  501 -0.00000000000E+00 -0.00000000000E+00 -0.17573732256E+03  0.17573732256E+03  0.00000000000E+00 0.  1.
         24    2    1    2    0    0  0.35236441484E+03  0.20372004323E+03  0.20274116522E+04  0.20696086989E+04  0.84968360452E+02 0.  0.
        254    2    1    2    0    0 -0.35236441484E+03 -0.20372004323E+03  0.14336866390E+04  0.17429642374E+04  0.90377232597E+03 0.  0.
         23    2    4    4    0    0 -0.24412583026E+03  0.34182998764E+03  0.66499009179E+03  0.79063655236E+03  0.80306751223E+02 0.  0.
         23    2    4    4    0    0 -0.10823858458E+03 -0.54555003088E+03  0.76869654723E+03  0.95232768507E+03  0.81812044662E+02 0.  0.
          4    1    3    3  502    0  0.29944013825E+03  0.14354892800E+03  0.17305185683E+04  0.17620911458E+04  0.00000000000E+00 0. -1.
         -3    1    3    3    0  502  0.52924276595E+02  0.60171115237E+02  0.29689308390E+03  0.30751755304E+03  0.00000000000E+00 0.  1.
         11    1    5    5    0    0 -0.11870178963E+03  0.16715901845E+03  0.39904935739E+03  0.44863419613E+03  0.00000000000E+00 0.  1.
        -11    1    5    5    0    0 -0.12542404064E+03  0.17467096919E+03  0.26594073441E+03  0.34200235623E+03  0.00000000000E+00 0. -1.
          3    1    6    6  503    0 -0.10481366020E+03 -0.54099767913E+03  0.73761364770E+03  0.92072704178E+03  0.00000000000E+00 0. -1.
         -3    1    6    6    0  503 -0.34249243821E+01 -0.45523517430E+01  0.31082899522E+02  0.31600643286E+02  0.00000000000E+00 0.  1.
<mgrwt>
<rscale>  0 0.15989093E+04</rscale>
<asrwt>0</asrwt>
<pdfrwt beam="1">  1        2 0.55951312E+00 0.15989093E+04</pdfrwt>
<pdfrwt beam="2">  1       -1 0.27036514E-01 0.15989093E+04</pdfrwt>
<totfact> 0.87979692E+00</totfact>
</mgrwt>
</event>
<event>
12    6  0.1627636E-007  0.1016226E+04  0.7818608E-02  0.9290925E-01
         -1   -1    0    0    0  501 -0.00000000000E+00  0.00000000000E+00  0.40341395316E+03  0.40341395316E+03  0.00000000000E+00 0.  1.
          2   -1    0    0  501    0  0.00000000000E+00 -0.00000000000E+00 -0.63998474153E+03  0.63998474153E+03  0.00000000000E+00 0. -1.
         24    2    1    2    0    0 -0.17688824987E+03 -0.71641636491E+02 -0.12548889448E+02  0.20793431065E+03  0.81591824948E+02 0.  0.
        254    2    1    2    0    0  0.17688824987E+03  0.71641636491E+02 -0.22402189893E+03  0.83546438404E+03  0.78191620318E+03 0.  0.
         23    2    4    4    0    0  0.10102842616E+03 -0.25552149098E+03 -0.35913655375E+03  0.46212717378E+03  0.95312566101E+02 0.  0.
         23    2    4    4    0    0  0.75859823705E+02  0.32716312747E+03  0.13511465483E+03  0.37333721027E+03  0.91292265793E+02 0.  0.
          2    1    3    3  502    0 -0.14999817208E+02 -0.25442334655E+02  0.21042493097E+02  0.36264216863E+02  0.00000000000E+00 0. -1.
         -1    1    3    3    0  502 -0.16188843266E+03 -0.46199301835E+02 -0.33591382545E+02  0.17167009379E+03  0.00000000000E+00 0.  1.
         11    1    5    5    0    0  0.73215355575E+02 -0.25239186205E+03 -0.32692955315E+03  0.41945807066E+03  0.00000000000E+00 0. -1.
        -11    1    5    5    0    0  0.27813070588E+02 -0.31296289287E+01 -0.32207000607E+02  0.42669103118E+02  0.00000000000E+00 0.  1.
          3    1    6    6  503    0  0.73118008059E+02  0.29656849954E+03  0.14873345738E+03  0.33973630858E+03  0.00000000000E+00 0. -1.
         -3    1    6    6    0  503  0.27418156453E+01  0.30594627933E+02 -0.13618802557E+02  0.33600901692E+02  0.00000000000E+00 0.  1.
<mgrwt>
<rscale>  0 0.10162259E+04</rscale>
<asrwt>0</asrwt>
<pdfrwt beam="1">  1        2 0.98459190E-01 0.10162259E+04</pdfrwt>
<pdfrwt beam="2">  1       -1 0.62063686E-01 0.10162259E+04</pdfrwt>
<totfact> 0.13756297E+02</totfact>
</mgrwt>
</event>
<event>
12    6  0.1627636E-007  0.1440474E+04  0.7818608E-02  0.8925031E-01
          2   -1    0    0  501    0  0.00000000000E+00  0.00000000000E+00  0.22686225479E+04  0.22686225479E+04  0.00000000000E+00 0. -1.
         -1   -1    0    0    0  501 -0.00000000000E+00 -0.00000000000E+00 -0.22865916374E+03  0.22865916374E+03  0.00000000000E+00 0.  1.
         24    2    1    2    0    0 -0.68206903483E+02  0.32480732086E+03  0.11208830759E+04  0.11717064371E+04  0.79781750532E+02 0.  0.
        254    2    1    2    0    0  0.68206903483E+02 -0.32480732086E+03  0.91908030829E+03  0.13255752745E+04  0.89570598852E+03 0.  0.
         23    2    4    4    0    0  0.40951565124E+03  0.13119642079E+02  0.62661068526E+03  0.75397845491E+03  0.89260102925E+02 0.  0.
         23    2    4    4    0    0 -0.34130874775E+03 -0.33792696294E+03  0.29246962304E+03  0.57159681958E+03  0.10246048107E+03 0.  0.
          2    1    3    3  502    0 -0.53615045000E+02  0.15307168946E+03  0.66040465529E+03  0.68002928165E+03  0.00000000000E+00 0. -1.
         -1    1    3    3    0  502 -0.14591858483E+02  0.17173563139E+03  0.46047842057E+03  0.49167715549E+03  0.00000000000E+00 0.  1.
         11    1    5    5    0    0  0.28144707040E+02  0.14263299800E+02  0.19723755309E+02  0.37210116622E+02  0.00000000000E+00 0.  1.
        -11    1    5    5    0    0  0.38137094420E+03 -0.11436577203E+01  0.60688692995E+03  0.71676833829E+03  0.00000000000E+00 0. -1.
          1    1    6    6  503    0 -0.24707162228E+03 -0.28156417092E+03  0.18437440083E+03  0.41751250109E+03  0.00000000000E+00 0. -1.
         -1    1    6    6    0  503 -0.94237125471E+02 -0.56362792011E+02  0.10809522220E+03  0.15408431849E+03  0.00000000000E+00 0.  1.
<mgrwt>
<rscale>  0 0.14404740E+04</rscale>
<asrwt>0</asrwt>
<pdfrwt beam="1">  1        2 0.34901884E+00 0.14404740E+04</pdfrwt>
<pdfrwt beam="2">  1       -1 0.35178334E-01 0.14404740E+04</pdfrwt>
<totfact> 0.40211866E+01</totfact>
</mgrwt>
</event>
<event>
12    6  0.1627636E-007  0.3332776E+04  0.7818608E-02  0.8154605E-01
          2   -1    0    0  501    0  0.00000000000E+00  0.00000000000E+00  0.23342709559E+04  0.23342709559E+04  0.00000000000E+00 0. -1.
         -1   -1    0    0    0  501 -0.00000000000E+00 -0.00000000000E+00 -0.11895999192E+04  0.11895999192E+04  0.00000000000E+00 0.  1.
         24    2    1    2    0    0 -0.10436262240E+04 -0.11238231620E+04  0.33872114205E+03  0.15725819076E+04  0.78406946228E+02 0.  0.
        254    2    1    2    0    0  0.10436262240E+04  0.11238231620E+04  0.80594989468E+03  0.19512889675E+04  0.89768547227E+03 0.  0.
         23    2    4    4    0    0 -0.39090883367E+01  0.16357574223E+03  0.44482966341E+03  0.48226389564E+03  0.89065881054E+02 0.  0.
         23    2    4    4    0    0  0.10475353123E+04  0.96024741973E+03  0.36112023126E+03  0.14690250718E+04  0.90672501918E+02 0.  0.
          2    1    3    3  502    0 -0.33331255120E+03 -0.35795004396E+03  0.14560398395E+03  0.51031951844E+03  0.00000000000E+00 0. -1.
         -1    1    3    3    0  502 -0.71031367279E+03 -0.76587311801E+03  0.19311715810E+03  0.10622623891E+04  0.00000000000E+00 0.  1.
         11    1    5    5    0    0  0.87264299319E+01  0.49091971332E+02  0.48582408262E+02  0.69616252564E+02  0.00000000000E+00 0. -1.
        -11    1    5    5    0    0 -0.12635518269E+02  0.11448377090E+03  0.39624725515E+03  0.41264764308E+03  0.00000000000E+00 0.  1.
          2    1    6    6  503    0  0.77845924725E+03  0.66935159787E+03  0.23542420591E+03  0.10533066590E+04  0.00000000000E+00 0.  1.
         -2    1    6    6    0  503  0.26907606508E+03  0.29089582186E+03  0.12569602535E+03  0.41571841283E+03  0.00000000000E+00 0. -1.
<mgrwt>
<rscale>  0 0.33327757E+04</rscale>
<asrwt>0</asrwt>
<pdfrwt beam="1">  1        2 0.35911861E+00 0.33327757E+04</pdfrwt>
<pdfrwt beam="2">  1       -1 0.18301537E+00 0.33327757E+04</pdfrwt>
<totfact> 0.81266058E-01</totfact>
</mgrwt>
</event>
<event>
12    6  0.1627636E-007  0.2212819E+04  0.7818608E-02  0.8513111E-01
         -3   -1    0    0    0  501 -0.00000000000E+00  0.00000000000E+00  0.19391751544E+04  0.19391751544E+04  0.00000000000E+00 0.  1.
          4   -1    0    0  501    0  0.00000000000E+00 -0.00000000000E+00 -0.63126935620E+03  0.63126935620E+03  0.00000000000E+00 0. -1.
         24    2    1    2    0    0 -0.25400986219E+02  0.60414147546E+03 -0.26961604268E+03  0.66727438801E+03  0.83247618265E+02 0.  0.
        254    2    1    2    0    0  0.25400986219E+02 -0.60414147546E+03  0.15775218408E+04  0.19031701225E+04  0.87627006373E+03 0.  0.
         23    2    4    4    0    0 -0.60154439813E+02 -0.77630956368E+03  0.14655769776E+04  0.16622165226E+04  0.93663201941E+02 0.  0.
         23    2    4    4    0    0  0.85555426033E+02  0.17216808822E+03  0.11194486319E+03  0.24095359993E+03  0.92549464612E+02 0.  0.
          2    1    3    3  502    0 -0.34619105650E+02  0.56151274664E+03 -0.22810716290E+03  0.60706500877E+03  0.00000000000E+00 0. -1.
         -1    1    3    3    0  502  0.92181194308E+01  0.42628728826E+02 -0.41508879782E+02  0.60209379236E+02  0.00000000000E+00 0.  1.
         11    1    5    5    0    0 -0.21472155167E+02 -0.45912074120E+02  0.67967171732E+02  0.84785071981E+02  0.00000000000E+00 0. -1.
        -11    1    5    5    0    0 -0.38682284646E+02 -0.73039748956E+03  0.13976098059E+04  0.15774314506E+04  0.00000000000E+00 0.  1.
          4    1    6    6  503    0 -0.80661589255E+01  0.75977052302E+02  0.59510909016E+02  0.96845875948E+02  0.00000000000E+00 0. -1.
         -4    1    6    6    0  503  0.93621584958E+02  0.96191035915E+02  0.52433954178E+02  0.14410772398E+03  0.00000000000E+00 0.  1.
<mgrwt>
<rscale>  0 0.22128189E+04</rscale>
<asrwt>0</asrwt>
<pdfrwt beam="1">  1        4 0.97118363E-01 0.22128189E+04</pdfrwt>
<pdfrwt beam="2">  1       -3 0.29833464E+00 0.22128189E+04</pdfrwt>
<totfact> 0.71822579E-02</totfact>
</mgrwt>
</event>
<event>
12    6  0.1627636E-007  0.1882702E+04  0.7818608E-02  0.8663515E-01
         -1   -1    0    0    0  501 -0.00000000000E+00  0.00000000000E+00  0.41640961596E+03  0.41640961596E+03  0.00000000000E+00 0.  1.
          2   -1    0    0  501    0  0.00000000000E+00 -0.00000000000E+00 -0.21280529988E+04  0.21280529988E+04  0.00000000000E+00 0. -1.
         24    2    1    2    0    0 -0.67888285124E+03  0.10341023997E+03 -0.10054612710E+04  0.12199268691E+04  0.75455915142E+02 0.  0.
        254    2    1    2    0    0  0.67888285124E+03 -0.10341023997E+03 -0.70618211181E+03  0.13245357456E+04  0.88550898521E+03 0.  0.
         23    2    4    4    0    0  0.83959025234E+03  0.93851501526E+02 -0.51786929826E+03  0.99507296361E+03  0.90893875872E+02 0.  0.
         23    2    4    4    0    0 -0.16070740110E+03 -0.19726174150E+03 -0.18831281356E+03  0.32946278199E+03  0.91350673468E+02 0.  0.
          2    1    3    3  502    0 -0.62327576012E+03  0.11420643604E+03 -0.93565105577E+03  0.11300259649E+04  0.00000000000E+00 0. -1.
         -1    1    3    3    0  502 -0.55607091120E+02 -0.10796196072E+02 -0.69810215222E+02  0.89900904233E+02  0.00000000000E+00 0.  1.
         11    1    5    5    0    0  0.41538860892E+03  0.91020052061E+02 -0.24742379232E+03  0.49198666578E+03  0.00000000000E+00 0. -1.
        -11    1    5    5    0    0  0.42420164342E+03  0.28314494651E+01 -0.27044550594E+03  0.50308629783E+03  0.00000000000E+00 0.  1.
          1    1    6    6  503    0 -0.11438813763E+03 -0.17974401811E+03 -0.11826645688E+03  0.24367911872E+03  0.00000000000E+00 0. -1.
         -1    1    6    6    0  503 -0.46319263463E+02 -0.17517723387E+02 -0.70046356680E+02  0.85783663273E+02  0.00000000000E+00 0.  1.
<mgrwt>
<rscale>  0 0.18827020E+04</rscale>
<asrwt>0</asrwt>
<pdfrwt beam="1">  1        2 0.32739276E+00 0.18827020E+04</pdfrwt>
<pdfrwt beam="2">  1       -1 0.64063019E-01 0.18827020E+04</pdfrwt>
<totfact> 0.14955528E+01</totfact>
</mgrwt>
</event>
<event>
12    6  0.1627636E-007  0.4647050E+04  0.7818608E-02  0.7885387E-01
         -1   -1    0    0    0  501 -0.00000000000E+00  0.00000000000E+00  0.23028113622E+04  0.23028113622E+04  0.00000000000E+00 0.  1.
          2   -1    0    0  501    0  0.00000000000E+00 -0.00000000000E+00 -0.23444249119E+04  0.23444249119E+04  0.00000000000E+00 0. -1.
         24    2    1    2    0    0 -0.10092379643E+04  0.12943985034E+04  0.14985227756E+04  0.22247774538E+04  0.10017712380E+03 0.  0.
        254    2    1    2    0    0  0.10092379643E+04 -0.12943985034E+04 -0.15401363253E+04  0.24224588202E+04  0.89568860733E+03 0.  0.
         23    2    4    4    0    0  0.78109616426E+03 -0.13928385996E+04 -0.12550257278E+04  0.20331573648E+04  0.92351017990E+02 0.  0.
         23    2    4    4    0    0  0.22814180002E+03  0.98440096246E+02 -0.28511059749E+03  0.38930145538E+03  0.92349536518E+02 0.  0.
          2    1    3    3  502    0 -0.10924271762E+03  0.16530723224E+03  0.22138224084E+03  0.29710359968E+03  0.00000000000E+00 0. -1.
         -1    1    3    3    0  502 -0.89999524666E+03  0.11290912711E+04  0.12771405348E+04  0.19276738542E+04  0.00000000000E+00 0.  1.
         11    1    5    5    0    0  0.39387846563E+03 -0.62054692588E+03 -0.54805275288E+03  0.91683180183E+03  0.00000000000E+00 0.  1.
        -11    1    5    5    0    0  0.38721769863E+03 -0.77229167371E+03 -0.70697297489E+03  0.11163255630E+04  0.00000000000E+00 0. -1.
          4    1    6    6  503    0  0.14595082999E+02 -0.14713665402E+01  0.49762741556E+01  0.15490147569E+02  0.00000000000E+00 0. -1.
         -4    1    6    6    0  503  0.21354671702E+03  0.99911462786E+02 -0.29008687164E+03  0.37381130781E+03  0.00000000000E+00 0.  1.
<mgrwt>
<rscale>  0 0.46470500E+04</rscale>
<asrwt>0</asrwt>
<pdfrwt beam="1">  1        2 0.36068076E+00 0.46470500E+04</pdfrwt>
<pdfrwt beam="2">  1       -1 0.35427867E+00 0.46470500E+04</pdfrwt>
<totfact> 0.53025813E-02</totfact>
</mgrwt>
</event>
<event>
12    6  0.1627636E-007  0.1475303E+04  0.7818608E-02  0.8901044E-01
         -1   -1    0    0    0  501 -0.00000000000E+00  0.00000000000E+00  0.63425380476E+03  0.63425380476E+03  0.00000000000E+00 0.  1.
          2   -1    0    0  501    0  0.00000000000E+00 -0.00000000000E+00 -0.85790543445E+03  0.85790543445E+03  0.00000000000E+00 0. -1.
         24    2    1    2    0    0  0.12363168532E+03  0.43255940255E+03 -0.10983790095E+03  0.46997817615E+03  0.80141694683E+02 0.  0.
        254    2    1    2    0    0 -0.12363168532E+03 -0.43255940255E+03 -0.11381372874E+03  0.10221810631E+04  0.91077336944E+03 0.  0.
         23    2    4    4    0    0 -0.37397972292E+03 -0.47908251532E+03 -0.31022997746E+03  0.68839834763E+03  0.90932702936E+02 0.  0.
         23    2    4    4    0    0  0.25034803760E+03  0.46523112775E+02  0.19641624872E+03  0.33378271543E+03  0.89403682267E+02 0.  0.
          4    1    3    3  502    0  0.11716569981E+03  0.33661827165E+03 -0.11257109162E+03  0.37378056757E+03  0.00000000000E+00 0. -1.
         -3    1    3    3    0  502  0.64659855077E+01  0.95941130897E+02  0.27331906703E+01  0.96197608585E+02  0.00000000000E+00 0.  1.
         11    1    5    5    0    0 -0.19499739370E+03 -0.31908594319E+03 -0.17519053271E+03  0.41295465301E+03  0.00000000000E+00 0. -1.
        -11    1    5    5    0    0 -0.17898232923E+03 -0.15999657213E+03 -0.13503944475E+03  0.27544369462E+03  0.00000000000E+00 0.  1.
          3    1    6    6  503    0  0.10723754753E+03  0.63388468418E+02  0.75445623327E+02  0.14563664239E+03  0.00000000000E+00 0. -1.
         -3    1    6    6    0  503  0.14311049008E+03 -0.16865355643E+02  0.12097062539E+03  0.18814607303E+03  0.00000000000E+00 0.  1.
<mgrwt>
<rscale>  0 0.14753031E+04</rscale>
<asrwt>0</asrwt>
<pdfrwt beam="1">  1        2 0.13198545E+00 0.14753031E+04</pdfrwt>
<pdfrwt beam="2">  1       -1 0.97577509E-01 0.14753031E+04</pdfrwt>
<totfact> 0.34912354E+01</totfact>
</mgrwt>
</event>
<event>
12    6  0.1627636E-007  0.1676218E+04  0.7818608E-02  0.8775045E-01
          2   -1    0    0  501    0  0.00000000000E+00  0.00000000000E+00  0.14920085086E+04  0.14920085086E+04  0.00000000000E+00 0. -1.
         -3   -1    0    0    0  501 -0.00000000000E+00 -0.00000000000E+00 -0.47079277457E+03  0.47079277457E+03  0.00000000000E+00 0.  1.
         24    2    1    2    0    0  0.42066758234E+03 -0.12324037379E+03 -0.84870970832E+02  0.45356472767E+03  0.79802731391E+02 0.  0.
        254    2    1    2    0    0 -0.42066758234E+03  0.12324037379E+03  0.11060867049E+04  0.15092365555E+04  0.92855682496E+03 0.  0.
         23    2    4    4    0    0  0.62580736265E+01  0.32964411323E+03  0.93680756263E+03  0.99774286831E+03  0.95801967619E+02 0.  0.
         23    2    4    4    0    0 -0.42692565596E+03 -0.20640373943E+03  0.16927914224E+03  0.51149368718E+03  0.90013024908E+02 0.  0.
          4    1    3    3  502    0  0.14762508300E+03 -0.14739048118E+02 -0.55055322169E+02  0.15824504153E+03  0.00000000000E+00 0. -1.
         -3    1    3    3    0  502  0.27304249934E+03 -0.10850132568E+03 -0.29815648662E+02  0.29531968614E+03  0.00000000000E+00 0.  1.
         11    1    5    5    0    0  0.43435707432E+01  0.30127698234E+03  0.91030216398E+03  0.95887262785E+03  0.00000000000E+00 0.  1.
        -11    1    5    5    0    0  0.19145028833E+01  0.28367130884E+02  0.26505398645E+02  0.38870240458E+02  0.00000000000E+00 0. -1.
          3    1    6    6  503    0 -0.24277576469E+03 -0.67459745494E+02  0.86830976625E+02  0.26651549239E+03  0.00000000000E+00 0. -1.
         -3    1    6    6    0  503 -0.18414989128E+03 -0.13894399394E+03  0.82448165610E+02  0.24497819479E+03  0.00000000000E+00 0.  1.
<mgrwt>
<rscale>  0 0.16762182E+04</rscale>
<asrwt>0</asrwt>
<pdfrwt beam="1">  1        2 0.22953977E+00 0.16762182E+04</pdfrwt>
<pdfrwt beam="2">  1       -3 0.72429658E-01 0.16762182E+04</pdfrwt>
<totfact> 0.14133083E+01</totfact>
</mgrwt>
</event>
<event>
12    6  0.1627636E-007  0.1403807E+04  0.7818608E-02  0.8951067E-01
          2   -1    0    0  501    0  0.00000000000E+00  0.00000000000E+00  0.14929874226E+04  0.14929874226E+04  0.00000000000E+00 0. -1.
         -1   -1    0    0    0  501 -0.00000000000E+00 -0.00000000000E+00 -0.32998862531E+03  0.32998862531E+03  0.00000000000E+00 0.  1.
         24    2    1    2    0    0 -0.39857236572E+03 -0.84102313615E+02  0.39320783614E+03  0.57161172863E+03  0.78704739564E+02 0.  0.
        254    2    1    2    0    0  0.39857236572E+03  0.84102313615E+02  0.76979096117E+03  0.12513643193E+04  0.89855517685E+03 0.  0.
         23    2    4    4    0    0  0.16670713265E+03  0.34702476337E+03  0.79460741691E+03  0.88757513308E+03  0.90394775145E+02 0.  0.
         23    2    4    4    0    0  0.23186523307E+03 -0.26292244975E+03 -0.24816455744E+02  0.36378918622E+03  0.94005396890E+02 0.  0.
          2    1    3    3  502    0 -0.32569392567E+02 -0.18844487296E+02  0.12908917257E+02  0.39780902181E+02  0.00000000000E+00 0. -1.
         -1    1    3    3    0  502 -0.36600297315E+03 -0.65257826319E+02  0.38029891889E+03  0.53183082645E+03  0.00000000000E+00 0.  1.
         11    1    5    5    0    0  0.87838433955E+02  0.18539063746E+03  0.52325019401E+03  0.56202850859E+03  0.00000000000E+00 0. -1.
        -11    1    5    5    0    0  0.78868698692E+02  0.16163412590E+03  0.27135722290E+03  0.32554662448E+03  0.00000000000E+00 0.  1.
          4    1    6    6  503    0  0.20168753682E+03 -0.25823159593E+03 -0.56038918678E+01  0.32770844245E+03  0.00000000000E+00 0. -1.
         -4    1    6    6    0  503  0.30177696249E+02 -0.46908538179E+01 -0.19212563876E+02  0.36080743772E+02  0.00000000000E+00 0.  1.
<mgrwt>
<rscale>  0 0.14038075E+04</rscale>
<asrwt>0</asrwt>
<pdfrwt beam="1">  1        2 0.22969037E+00 0.14038075E+04</pdfrwt>
<pdfrwt beam="2">  1       -1 0.50767482E-01 0.14038075E+04</pdfrwt>
<totfact> 0.55370546E+01</totfact>
</mgrwt>
</event>
<event>
12    6  0.1627636E-007  0.1467766E+04  0.7818608E-02  0.8906176E-01
          2   -1    0    0  501    0  0.00000000000E+00  0.00000000000E+00  0.54280643379E+03  0.54280643379E+03  0.00000000000E+00 0. -1.
         -1   -1    0    0    0  501 -0.00000000000E+00 -0.00000000000E+00 -0.99222092250E+03  0.99222092250E+03  0.00000000000E+00 0.  1.
         24    2    1    2    0    0 -0.12817822355E+03 -0.31334157523E+03  0.17360550048E+03  0.38872764028E+03  0.79735241633E+02 0.  0.
        254    2    1    2    0    0  0.12817822355E+03  0.31334157523E+03 -0.62301998920E+03  0.11462997160E+04  0.90068670037E+03 0.  0.
         23    2    4    4    0    0 -0.60225529556E+02 -0.28841326506E+03 -0.10686941004E+03  0.32635099083E+03  0.90964677426E+02 0.  0.
         23    2    4    4    0    0  0.18840375311E+03  0.60175484030E+03 -0.51615057916E+03  0.81994872518E+03  0.91102302653E+02 0.  0.
          4    1    3    3  502    0 -0.13144229532E+01 -0.79107517548E+02  0.59206846581E+02  0.98818913789E+02  0.00000000000E+00 0. -1.
         -3    1    3    3    0  502 -0.12686380060E+03 -0.23423405768E+03  0.11439865390E+03  0.28990872649E+03  0.00000000000E+00 0.  1.
         11    1    5    5    0    0 -0.45038081913E+02 -0.59120296035E+02 -0.50151865179E+02  0.89659621941E+02  0.00000000000E+00 0. -1.
        -11    1    5    5    0    0 -0.15187447643E+02 -0.22929296903E+03 -0.56717544856E+02  0.23669136889E+03  0.00000000000E+00 0.  1.
          1    1    6    6  503    0  0.11709939758E+03  0.36848672140E+03 -0.25820091686E+03  0.46493273301E+03  0.00000000000E+00 0. -1.
         -1    1    6    6    0  503  0.71304355533E+02  0.23326811890E+03 -0.25794966230E+03  0.35501599217E+03  0.00000000000E+00 0.  1.
<mgrwt>
<rscale>  0 0.14677655E+04</rscale>
<asrwt>0</asrwt>
<pdfrwt beam="1">  1        2 0.83508682E-01 0.14677655E+04</pdfrwt>
<pdfrwt beam="2">  1       -1 0.15264937E+00 0.14677655E+04</pdfrwt>
<totfact> 0.20598233E+01</totfact>
</mgrwt>
</event>
<event>
12    6  0.1627636E-007  0.2265511E+04  0.7818608E-02  0.8491645E-01
         -1   -1    0    0    0  501 -0.00000000000E+00  0.00000000000E+00  0.51522582280E+03  0.51522582280E+03  0.00000000000E+00 0.  1.
          2   -1    0    0  501    0  0.00000000000E+00 -0.00000000000E+00 -0.24904326874E+04  0.24904326874E+04  0.00000000000E+00 0. -1.
         24    2    1    2    0    0 -0.19937892673E+03 -0.46898512510E+03 -0.19269196519E+04  0.19947574659E+04  0.79617828685E+02 0.  0.
        254    2    1    2    0    0  0.19937892673E+03  0.46898512510E+03 -0.48287212662E+02  0.10109010443E+04  0.87171684768E+03 0.  0.
         23    2    4    4    0    0 -0.32061128482E+02 -0.23960193005E+03  0.17779828888E+02  0.25701887207E+03  0.85472670739E+02 0.  0.
         23    2    4    4    0    0  0.23144005521E+03  0.70858705515E+03 -0.66067041550E+02  0.75388217225E+03  0.91177638596E+02 0.  0.
          4    1    3    3  502    0 -0.15980283106E+03 -0.27812917149E+03 -0.12178860962E+04  0.12594202333E+04  0.00000000000E+00 0. -1.
         -3    1    3    3    0  502 -0.39576095675E+02 -0.19085595361E+03 -0.70903355574E+03  0.73533723253E+03  0.00000000000E+00 0.  1.
         11    1    5    5    0    0  0.10666318865E+01 -0.69334132503E+02 -0.32267999739E+02  0.76482569522E+02  0.00000000000E+00 0. -1.
        -11    1    5    5    0    0 -0.33127760368E+02 -0.17026779755E+03  0.50047828627E+02  0.18053630255E+03  0.00000000000E+00 0.  1.
          4    1    6    6  503    0  0.49504112000E+02  0.14444398756E+03  0.23198262950E+02  0.15444378282E+03  0.00000000000E+00 0. -1.
         -4    1    6    6    0  503  0.18193594321E+03  0.56414306759E+03 -0.89265304499E+02  0.59943838943E+03  0.00000000000E+00 0.  1.
<mgrwt>
<rscale>  0 0.22655112E+04</rscale>
<asrwt>0</asrwt>
<pdfrwt beam="1">  1        2 0.38314349E+00 0.22655112E+04</pdfrwt>
<pdfrwt beam="2">  1       -1 0.79265511E-01 0.22655112E+04</pdfrwt>
<totfact> 0.58025872E+00</totfact>
</mgrwt>
</event>
<event>
12    6  0.1627636E-007  0.2406012E+04  0.7818608E-02  0.8437256E-01
         -1   -1    0    0    0  501 -0.00000000000E+00  0.00000000000E+00  0.45217070206E+03  0.45217070206E+03  0.00000000000E+00 0.  1.
          2   -1    0    0  501    0  0.00000000000E+00 -0.00000000000E+00 -0.32006135617E+04  0.32006135617E+04  0.00000000000E+00 0. -1.
         24    2    1    2    0    0  0.48800998735E+03  0.60070373313E+03 -0.22215562435E+04  0.23537834381E+04  0.77366707765E+02 0.  0.
        254    2    1    2    0    0 -0.48800998735E+03 -0.60070373313E+03 -0.52688661614E+03  0.12990008257E+04  0.90044151180E+03 0.  0.
         23    2    4    4    0    0  0.20168313957E+03 -0.24121870786E+03 -0.38131546363E+03  0.50261626909E+03  0.91427989902E+02 0.  0.
         23    2    4    4    0    0 -0.68969312692E+03 -0.35948502527E+03 -0.14557115250E+03  0.79638455662E+03  0.90173770396E+02 0.  0.
          2    1    3    3  502    0  0.45916345266E+03  0.57697406458E+03 -0.21520931304E+04  0.22749142817E+04  0.00000000000E+00 0. -1.
         -3    1    3    3    0  502  0.28846534690E+02  0.23729668556E+02 -0.69463113183E+02  0.78869156369E+02  0.00000000000E+00 0.  1.
         11    1    5    5    0    0  0.18496549316E+03 -0.22469348639E+03 -0.29999690480E+03  0.41796834733E+03  0.00000000000E+00 0.  1.
        -11    1    5    5    0    0  0.16717646405E+02 -0.16525221477E+02 -0.81318558835E+02  0.84647921754E+02  0.00000000000E+00 0. -1.
          2    1    6    6  503    0 -0.37453650469E+03 -0.22128113746E+03 -0.42180974901E+02  0.43706083075E+03  0.00000000000E+00 0.  1.
         -2    1    6    6    0  503 -0.31515662224E+03 -0.13820388781E+03 -0.10339017760E+03  0.35932372587E+03  0.00000000000E+00 0. -1.
<mgrwt>
<rscale>  0 0.24060122E+04</rscale>
<asrwt>0</asrwt>
<pdfrwt beam="1">  1        2 0.49240209E+00 0.24060122E+04</pdfrwt>
<pdfrwt beam="2">  1       -1 0.69564723E-01 0.24060122E+04</pdfrwt>
<totfact> 0.27705046E+00</totfact>
</mgrwt>
</event>
<event>
12    6  0.1627636E-007  0.3067696E+04  0.7818608E-02  0.8224660E-01
          2   -1    0    0  501    0  0.00000000000E+00  0.00000000000E+00  0.23868671830E+04  0.23868671830E+04  0.00000000000E+00 0. -1.
         -1   -1    0    0    0  501 -0.00000000000E+00 -0.00000000000E+00 -0.98568120964E+03  0.98568120964E+03  0.00000000000E+00 0.  1.
         24    2    1    2    0    0 -0.31266904689E+03  0.59718124902E+03  0.19874664113E+04  0.21001822895E+04  0.79721615915E+02 0.  0.
        254    2    1    2    0    0  0.31266904689E+03 -0.59718124902E+03 -0.58628043790E+03  0.12723661032E+04  0.90598199297E+03 0.  0.
         23    2    4    4    0    0  0.20518233764E+03 -0.72634546343E+03 -0.71253416775E+03  0.10417581979E+04  0.88756288819E+02 0.  0.
         23    2    4    4    0    0  0.10748670925E+03  0.12916421441E+03  0.12625372984E+03  0.23060790526E+03  0.94885271357E+02 0.  0.
          2    1    3    3  502    0 -0.13501671736E+03  0.25474668132E+03  0.73006786645E+03  0.78493596887E+03  0.00000000000E+00 0. -1.
         -1    1    3    3    0  502 -0.17765232953E+03  0.34243456770E+03  0.12573985449E+04  0.13152463206E+04  0.00000000000E+00 0.  1.
         11    1    5    5    0    0  0.15276242364E+03 -0.57182672630E+03 -0.60481155875E+03  0.84623825521E+03  0.00000000000E+00 0. -1.
        -11    1    5    5    0    0  0.52419913998E+02 -0.15451873713E+03 -0.10772260900E+03  0.19551994271E+03  0.00000000000E+00 0.  1.
          3    1    6    6  503    0  0.33467106764E+02  0.11031921625E+03  0.88912988971E+02  0.14558810500E+03  0.00000000000E+00 0. -1.
         -3    1    6    6    0  503  0.74019602488E+02  0.18844998159E+02  0.37340740874E+02  0.85019800265E+02  0.00000000000E+00 0.  1.
<mgrwt>
<rscale>  0 0.30676963E+04</rscale>
<asrwt>0</asrwt>
<pdfrwt beam="1">  1        2 0.36721033E+00 0.30676963E+04</pdfrwt>
<pdfrwt beam="2">  1       -1 0.15164326E+00 0.30676963E+04</pdfrwt>
<totfact> 0.13257896E+00</totfact>
</mgrwt>
</event>
<event>
12    6  0.1627636E-007  0.2110764E+04  0.7818608E-02  0.8556517E-01
         -1   -1    0    0    0  501 -0.00000000000E+00  0.00000000000E+00  0.64877230033E+03  0.64877230033E+03  0.00000000000E+00 0.  1.
          2   -1    0    0  501    0  0.00000000000E+00 -0.00000000000E+00 -0.17168284437E+04  0.17168284437E+04  0.00000000000E+00 0. -1.
         24    2    1    2    0    0  0.88266073652E+02  0.48259736037E+03  0.32619759251E+03  0.59462147791E+03  0.80490500297E+02 0.  0.
        254    2    1    2    0    0 -0.88266073652E+02 -0.48259736037E+03 -0.13942537359E+04  0.17709792661E+04  0.97556802379E+03 0.  0.
         23    2    4    4    0    0  0.29318607405E+03 -0.55281277511E+03 -0.55674598220E+03  0.84246968210E+03  0.90714046490E+02 0.  0.
         23    2    4    4    0    0 -0.38145214771E+03  0.70215414738E+02 -0.83750775368E+03  0.92850958402E+03  0.10136500722E+03 0.  0.
          4    1    3    3  502    0  0.24801708598E+01  0.77900335379E+01 -0.48235632588E+01  0.94922406484E+01  0.00000000000E+00 0. -1.
         -3    1    3    3    0  502  0.85785902792E+02  0.47480732683E+03  0.33102115577E+03  0.58512923726E+03  0.00000000000E+00 0.  1.
         11    1    5    5    0    0  0.40555450807E+02 -0.13347078850E+03 -0.89620321358E+02  0.16580409516E+03  0.00000000000E+00 0. -1.
        -11    1    5    5    0    0  0.25263062325E+03 -0.41934198661E+03 -0.46712566084E+03  0.67666558694E+03  0.00000000000E+00 0.  1.
          2    1    6    6  503    0 -0.94865315511E+02  0.61279702128E+02 -0.27045470527E+03  0.29308766194E+03  0.00000000000E+00 0. -1.
         -2    1    6    6    0  503 -0.28658683219E+03  0.89357126096E+01 -0.56705304841E+03  0.63542192208E+03  0.00000000000E+00 0.  1.
<mgrwt>
<rscale>  0 0.21107636E+04</rscale>
<asrwt>0</asrwt>
<pdfrwt beam="1">  1        2 0.26412745E+00 0.21107636E+04</pdfrwt>
<pdfrwt beam="2">  1       -1 0.99811124E-01 0.21107636E+04</pdfrwt>
<totfact> 0.96333233E+00</totfact>
</mgrwt>
</event>
<event>
12    6  0.1627636E-007  0.2426035E+04  0.7818608E-02  0.8429820E-01
         -1   -1    0    0    0  501 -0.00000000000E+00  0.00000000000E+00  0.13707394653E+04  0.13707394653E+04  0.00000000000E+00 0.  1.
          2   -1    0    0  501    0  0.00000000000E+00 -0.00000000000E+00 -0.10734438492E+04  0.10734438492E+04  0.00000000000E+00 0. -1.
         24    2    1    2    0    0 -0.44984995142E+03 -0.55045772648E+03  0.90967133163E+03  0.11572319550E+04  0.79468099006E+02 0.  0.
        254    2    1    2    0    0  0.44984995142E+03  0.55045772648E+03 -0.61237571554E+03  0.12869513594E+04  0.88083545406E+03 0.  0.
         23    2    4    4    0    0  0.27051546896E+03  0.23397901877E+03  0.18000274004E+03  0.41033192484E+03  0.89702296202E+02 0.  0.
         23    2    4    4    0    0  0.17933448245E+03  0.31647870771E+03 -0.79237845558E+03  0.87661943460E+03  0.90985642950E+02 0.  0.
          2    1    3    3  502    0 -0.61263956378E+02 -0.67886538590E+02  0.78307644527E+02  0.12039078729E+03  0.00000000000E+00 0. -1.
         -1    1    3    3    0  502 -0.38858599504E+03 -0.48257118789E+03  0.83136368710E+03  0.10368411678E+04  0.00000000000E+00 0.  1.
         11    1    5    5    0    0  0.19757137686E+03  0.21037119174E+03  0.11825375038E+03  0.31188850050E+03  0.00000000000E+00 0.  1.
        -11    1    5    5    0    0  0.72944092107E+02  0.23607827032E+02  0.61748989659E+02  0.98443424333E+02  0.00000000000E+00 0. -1.
          3    1    6    6  503    0  0.12573813637E+03  0.25528152827E+03 -0.52530136440E+03  0.59742803839E+03  0.00000000000E+00 0. -1.
         -3    1    6    6    0  503  0.53596346085E+02  0.61197179433E+02 -0.26707709118E+03  0.27919139621E+03  0.00000000000E+00 0.  1.
<mgrwt>
<rscale>  0 0.24260353E+04</rscale>
<asrwt>0</asrwt>
<pdfrwt beam="1">  1        2 0.16514521E+00 0.24260353E+04</pdfrwt>
<pdfrwt beam="2">  1       -1 0.21088299E+00 0.24260353E+04</pdfrwt>
<totfact> 0.29351589E+00</totfact>
</mgrwt>
</event>
<event>
12    6  0.1627636E-007  0.3163144E+04  0.7818608E-02  0.8198619E-01
         -1   -1    0    0    0  501 -0.00000000000E+00  0.00000000000E+00  0.14526699047E+04  0.14526699047E+04  0.00000000000E+00 0.  1.
          2   -1    0    0  501    0  0.00000000000E+00 -0.00000000000E+00 -0.17219120743E+04  0.17219120743E+04  0.00000000000E+00 0. -1.
         24    2    1    2    0    0  0.33691910011E+03  0.46133933018E+03  0.12204602288E+04  0.13498928520E+04  0.79618366723E+02 0.  0.
        254    2    1    2    0    0 -0.33691910011E+03 -0.46133933018E+03 -0.14897023984E+04  0.18246891270E+04  0.88539749085E+03 0.  0.
         23    2    4    4    0    0 -0.12113935795E+03 -0.42528565091E+03 -0.15199926225E+04  0.15857726126E+04  0.93565898126E+02 0.  0.
         23    2    4    4    0    0 -0.21577974216E+03 -0.36053679266E+02  0.30290224129E+02  0.23891651444E+03  0.91119911527E+02 0.  0.
          4    1    3    3  502    0  0.88711276046E+02  0.18574322828E+03  0.42636776215E+03  0.47345507278E+03  0.00000000000E+00 0. -1.
         -3    1    3    3    0  502  0.24820782407E+03  0.27559610190E+03  0.79409246665E+03  0.87643777926E+03  0.00000000000E+00 0.  1.
         11    1    5    5    0    0 -0.33476296791E+02 -0.42803901194E+02 -0.11817012854E+03  0.13006542847E+03  0.00000000000E+00 0. -1.
        -11    1    5    5    0    0 -0.87663061158E+02 -0.38248174972E+03 -0.14018224940E+04  0.14557071841E+04  0.00000000000E+00 0.  1.
          3    1    6    6  503    0 -0.79262120198E+02  0.27026905618E+02  0.28688755492E+02  0.88521082332E+02  0.00000000000E+00 0. -1.
         -3    1    6    6    0  503 -0.13651762196E+03 -0.63080584884E+02  0.16014686366E+01  0.15039543211E+03  0.00000000000E+00 0.  1.
<mgrwt>
<rscale>  0 0.31631439E+04</rscale>
<asrwt>0</asrwt>
<pdfrwt beam="1">  1        2 0.26490955E+00 0.31631439E+04</pdfrwt>
<pdfrwt beam="2">  1       -1 0.22348768E+00 0.31631439E+04</pdfrwt>
<totfact> 0.95597613E-01</totfact>
</mgrwt>
</event>
<event>
12    6  0.1627636E-007  0.2038673E+04  0.7818608E-02  0.8588750E-01
         -1   -1    0    0    0  501 -0.00000000000E+00  0.00000000000E+00  0.55719588322E+03  0.55719588322E+03  0.00000000000E+00 0.  1.
          2   -1    0    0  501    0  0.00000000000E+00 -0.00000000000E+00 -0.18647777719E+04  0.18647777719E+04  0.00000000000E+00 0. -1.
         24    2    1    2    0    0 -0.46047898470E+03 -0.54021671752E+03 -0.10171469995E+04  0.12429389643E+04  0.80213796825E+02 0.  0.
        254    2    1    2    0    0  0.46047898470E+03  0.54021671752E+03 -0.29043488920E+03  0.11790346908E+04  0.89548611381E+03 0.  0.
         23    2    4    4    0    0  0.30412233136E+03 -0.20300520577E+03 -0.82143014594E+02  0.38583683409E+03  0.91766451897E+02 0.  0.
         23    2    4    4    0    0  0.15635665335E+03  0.74322192329E+03 -0.20829187460E+03  0.79319785672E+03  0.94610277306E+02 0.  0.
          2    1    3    3  502    0 -0.36293845413E+03 -0.40183057636E+03 -0.82524270244E+03  0.98702464585E+03  0.00000000000E+00 0. -1.
         -3    1    3    3    0  502 -0.97540530571E+02 -0.13838614116E+03 -0.19190429705E+03  0.25591431847E+03  0.00000000000E+00 0.  1.
         11    1    5    5    0    0  0.10242280456E+03 -0.32802299519E+02  0.56656188617E+01  0.10769642977E+03  0.00000000000E+00 0. -1.
        -11    1    5    5    0    0  0.20169952679E+03 -0.17020290625E+03 -0.87808633456E+02  0.27814040432E+03  0.00000000000E+00 0.  1.
          4    1    6    6  503    0  0.56669787071E+02  0.32137130312E+03 -0.13693071912E+03  0.35389405346E+03  0.00000000000E+00 0. -1.
         -4    1    6    6    0  503  0.99686866278E+02  0.42185062018E+03 -0.71361155488E+02  0.43930380327E+03  0.00000000000E+00 0.  1.
<mgrwt>
<rscale>  0 0.20386726E+04</rscale>
<asrwt>0</asrwt>
<pdfrwt beam="1">  1        2 0.28688888E+00 0.20386726E+04</pdfrwt>
<pdfrwt beam="2">  1       -1 0.85722445E-01 0.20386726E+04</pdfrwt>
<totfact> 0.11258549E+01</totfact>
</mgrwt>
</event>
<event>
12    6  0.1627636E-007  0.1641815E+04  0.7818608E-02  0.8795263E-01
          2   -1    0    0  501    0  0.00000000000E+00  0.00000000000E+00  0.22271525919E+04  0.22271525919E+04  0.00000000000E+00 0. -1.
         -1   -1    0    0    0  501 -0.00000000000E+00 -0.00000000000E+00 -0.30257879204E+03  0.30257879204E+03  0.00000000000E+00 0.  1.
         24    2    1    2    0    0  0.35235800278E+01  0.46382931020E+03  0.11752521177E+04  0.12660443526E+04  0.80627029784E+02 0.  0.
        254    2    1    2    0    0 -0.35235800278E+01 -0.46382931020E+03  0.74932168214E+03  0.12636870313E+04  0.90568862487E+03 0.  0.
         23    2    4    4    0    0 -0.35732228307E+03 -0.48335248932E+03  0.63618835738E+03  0.88089794425E+03  0.99683093896E+02 0.  0.
         23    2    4    4    0    0  0.35379870304E+03  0.19523179123E+02  0.11313332477E+03  0.38278908709E+03  0.90408291805E+02 0.  0.
          2    1    3    3  502    0  0.58688214362E+01  0.34427576602E+03  0.95889025589E+03  0.10188379503E+04  0.00000000000E+00 0. -1.
         -1    1    3    3    0  502 -0.23452414084E+01  0.11955354418E+03  0.21636186181E+03  0.24720640228E+03  0.00000000000E+00 0.  1.
         11    1    5    5    0    0 -0.20977941754E+02 -0.29821950438E+02  0.81962428238E+02  0.89706534940E+02  0.00000000000E+00 0.  1.
        -11    1    5    5    0    0 -0.33634434131E+03 -0.45353053888E+03  0.55422592914E+03  0.79119140931E+03  0.00000000000E+00 0. -1.
          3    1    6    6  503    0  0.34626993335E+03  0.48755347682E+01  0.11759599791E+03  0.36572593059E+03  0.00000000000E+00 0. -1.
         -3    1    6    6    0  503  0.75287696856E+01  0.14647644354E+02 -0.44626731395E+01  0.17063156498E+02  0.00000000000E+00 0.  1.
<mgrwt>
<rscale>  0 0.16418150E+04</rscale>
<asrwt>0</asrwt>
<pdfrwt beam="1">  1        2 0.34263885E+00 0.16418150E+04</pdfrwt>
<pdfrwt beam="2">  1       -1 0.46550585E-01 0.16418150E+04</pdfrwt>
<totfact> 0.24959162E+01</totfact>
</mgrwt>
</event>
<event>
12    6  0.1627636E-007  0.2789611E+04  0.7818608E-02  0.8306501E-01
          2   -1    0    0  501    0  0.00000000000E+00  0.00000000000E+00  0.18614178852E+04  0.18614178852E+04  0.00000000000E+00 0. -1.
         -1   -1    0    0    0  501 -0.00000000000E+00 -0.00000000000E+00 -0.10451612287E+04  0.10451612287E+04  0.00000000000E+00 0.  1.
         24    2    1    2    0    0  0.49260557079E+03  0.92234292328E+03 -0.33116615330E+03  0.10995354463E+04  0.77009479755E+02 0.  0.
        254    2    1    2    0    0 -0.49260557079E+03 -0.92234292328E+03  0.11474228098E+04  0.18070436676E+04  0.92490593890E+03 0.  0.
         23    2    4    4    0    0 -0.36370117712E+03 -0.54957700328E+03  0.85628553725E+02  0.67075058857E+03  0.90888250516E+02 0.  0.
         23    2    4    4    0    0 -0.12890439368E+03 -0.37276592000E+03  0.10617942561E+04  0.11362930791E+04  0.90466267121E+02 0.  0.
          2    1    3    3  502    0  0.89811268760E+02  0.17410837926E+03 -0.94026355267E+02  0.21730335296E+03  0.00000000000E+00 0. -1.
         -1    1    3    3    0  502  0.40279430203E+03  0.74823454402E+03 -0.23713979803E+03  0.88223209329E+03  0.00000000000E+00 0.  1.
         11    1    5    5    0    0 -0.34366883959E+03 -0.52825890324E+03  0.62201943904E+02  0.63327310221E+03  0.00000000000E+00 0.  1.
        -11    1    5    5    0    0 -0.20032337526E+02 -0.21318100042E+02  0.23426609820E+02  0.37477486360E+02  0.00000000000E+00 0. -1.
          1    1    6    6  503    0 -0.72710939168E+02 -0.31285165718E+03  0.80629089390E+03  0.86791015990E+03  0.00000000000E+00 0. -1.
         -1    1    6    6    0  503 -0.56193454507E+02 -0.59914262823E+02  0.25550336218E+03  0.26838291917E+03  0.00000000000E+00 0.  1.
<mgrwt>
<rscale>  0 0.27896106E+04</rscale>
<asrwt>0</asrwt>
<pdfrwt beam="1">  1        2 0.28637198E+00 0.27896106E+04</pdfrwt>
<pdfrwt beam="2">  1       -1 0.16079404E+00 0.27896106E+04</pdfrwt>
<totfact> 0.22786519E+00</totfact>
</mgrwt>
</event>
<event>
12    6  0.1627636E-007  0.1773576E+04  0.7818608E-02  0.8720479E-01
          2   -1    0    0  501    0  0.00000000000E+00  0.00000000000E+00  0.30344276134E+04  0.30344276134E+04  0.00000000000E+00 0. -1.
         -1   -1    0    0    0  501 -0.00000000000E+00 -0.00000000000E+00 -0.25915699830E+03  0.25915699830E+03  0.00000000000E+00 0.  1.
         24    2    1    2    0    0  0.32208287544E+03 -0.92440610257E+02  0.20938715785E+04  0.21220175791E+04  0.79860965386E+02 0.  0.
        254    2    1    2    0    0 -0.32208287544E+03  0.92440610257E+02  0.68139903655E+03  0.11715670325E+04  0.89217824432E+03 0.  0.
         23    2    4    4    0    0  0.17091225798E+03  0.21274534293E+03  0.57842705509E+03  0.64570555112E+03  0.88804390766E+02 0.  0.
         23    2    4    4    0    0 -0.49299513342E+03 -0.12030473268E+03  0.10297198146E+03  0.52586148141E+03  0.91704080564E+02 0.  0.
          2    1    3    3  502    0  0.23394551670E+03 -0.28752445628E+02  0.14207871772E+04  0.14402060307E+04  0.00000000000E+00 0. -1.
         -1    1    3    3    0  502  0.88137358740E+02 -0.63688164629E+02  0.67308440127E+03  0.68181154842E+03  0.00000000000E+00 0.  1.
         11    1    5    5    0    0  0.13608933609E+02  0.66880256859E+02  0.19133518109E+03  0.20314360279E+03  0.00000000000E+00 0. -1.
        -11    1    5    5    0    0  0.15730332437E+03  0.14586508608E+03  0.38709187400E+03  0.44256194833E+03  0.00000000000E+00 0.  1.
          4    1    6    6  503    0 -0.17497237237E+03 -0.18844804137E+02  0.73605697978E+02  0.19075706149E+03  0.00000000000E+00 0.  1.
         -4    1    6    6    0  503 -0.31802276105E+03 -0.10145992854E+03  0.29366283482E+02  0.33510441992E+03  0.00000000000E+00 0. -1.
<mgrwt>
<rscale>  0 0.17735762E+04</rscale>
<asrwt>0</asrwt>
<pdfrwt beam="1">  1        2 0.46683499E+00 0.17735762E+04</pdfrwt>
<pdfrwt beam="2">  1       -1 0.39870309E-01 0.17735762E+04</pdfrwt>
<totfact> 0.10979600E+01</totfact>
</mgrwt>
</event>
<event>
12    6  0.1627636E-007  0.1167959E+04  0.7818608E-02  0.9141374E-01
          2   -1    0    0  501    0  0.00000000000E+00  0.00000000000E+00  0.28017363430E+04  0.28017363430E+04  0.00000000000E+00 0. -1.
         -1   -1    0    0    0  501 -0.00000000000E+00 -0.00000000000E+00 -0.12172158988E+03  0.12172158988E+03  0.00000000000E+00 0.  1.
         24    2    1    2    0    0 -0.62207485787E+01 -0.53186864508E+02  0.10967394893E+04  0.11008534997E+04  0.78570861007E+02 0.  0.
        254    2    1    2    0    0  0.62207485787E+01  0.53186864508E+02  0.15832752639E+04  0.18226044332E+04  0.90125402549E+03 0.  0.
         23    2    4    4    0    0 -0.31893808490E+02 -0.18753409142E+03  0.15463152844E+04  0.15604678245E+04  0.88219170982E+02 0.  0.
         23    2    4    4    0    0  0.38114557069E+02  0.24072095593E+03  0.36959979499E+02  0.26213660871E+03  0.89164249880E+02 0.  0.
          4    1    3    3  502    0 -0.20096777084E+02 -0.39500045658E+02  0.10383818476E+04  0.10393271840E+04  0.00000000000E+00 0. -1.
         -3    1    3    3    0  502  0.13876028505E+02 -0.13686818850E+02  0.58357641705E+02  0.61526315693E+02  0.00000000000E+00 0.  1.
         11    1    5    5    0    0  0.29145758549E+02 -0.80627641147E+02  0.56691161179E+03  0.57335771324E+03  0.00000000000E+00 0. -1.
        -11    1    5    5    0    0 -0.61039567039E+02 -0.10690645028E+03  0.97940367257E+03  0.98711011124E+03  0.00000000000E+00 0.  1.
          2    1    6    6  503    0 -0.22210869228E+02  0.50901356784E+02 -0.12471640762E+02  0.56919352224E+02  0.00000000000E+00 0. -1.
         -2    1    6    6    0  503  0.60325426296E+02  0.18981959915E+03  0.49431620261E+02  0.20521725648E+03  0.00000000000E+00 0.  1.
<mgrwt>
<rscale>  0 0.11679586E+04</rscale>
<asrwt>0</asrwt>
<pdfrwt beam="1">  1        2 0.43103631E+00 0.11679586E+04</pdfrwt>
<pdfrwt beam="2">  1       -1 0.18726400E-01 0.11679586E+04</pdfrwt>
<totfact> 0.60029307E+01</totfact>
</mgrwt>
</event>
<event>
12    6  0.1627636E-007  0.1946775E+04  0.7818608E-02  0.8631917E-01
          2   -1    0    0  501    0  0.00000000000E+00  0.00000000000E+00  0.23391650563E+04  0.23391650563E+04  0.00000000000E+00 0. -1.
         -1   -1    0    0    0  501 -0.00000000000E+00 -0.00000000000E+00 -0.40505208697E+03  0.40505208697E+03  0.00000000000E+00 0.  1.
         24    2    1    2    0    0 -0.24808443386E+03 -0.31812891860E+03  0.16701726081E+04  0.17206288157E+04  0.91296688476E+02 0.  0.
        254    2    1    2    0    0  0.24808443386E+03  0.31812891860E+03  0.26394036124E+03  0.10235883276E+04  0.90294886618E+03 0.  0.
         23    2    4    4    0    0 -0.20822322702E+03  0.20606871217E+03  0.41964852420E+03  0.51976525252E+03  0.90718286260E+02 0.  0.
         23    2    4    4    0    0  0.45630766088E+03  0.11206020643E+03 -0.15570816296E+03  0.50382307508E+03  0.93906803373E+02 0.  0.
          2    1    3    3  502    0 -0.15361836219E+03 -0.25809964935E+03  0.11525806677E+04  0.11910735601E+04  0.00000000000E+00 0. -1.
         -1    1    3    3    0  502 -0.94466071667E+02 -0.60029269252E+02  0.51759194046E+03  0.52955525556E+03  0.00000000000E+00 0.  1.
         11    1    5    5    0    0 -0.17942728133E+03  0.17856200810E+03  0.29402501045E+03  0.38798098767E+03  0.00000000000E+00 0.  1.
        -11    1    5    5    0    0 -0.28795945696E+02  0.27506704068E+02  0.12562351375E+03  0.13178426485E+03  0.00000000000E+00 0. -1.
          1    1    6    6  503    0  0.95941087489E+02  0.33124537859E+02  0.45655350587E+01  0.10160104029E+03  0.00000000000E+00 0. -1.
         -1    1    6    6    0  503  0.36036657339E+03  0.78935668575E+02 -0.16027369802E+03  0.40222203479E+03  0.00000000000E+00 0.  1.
<mgrwt>
<rscale>  0 0.19467755E+04</rscale>
<asrwt>0</asrwt>
<pdfrwt beam="1">  1        2 0.35987154E+00 0.19467755E+04</pdfrwt>
<pdfrwt beam="2">  1       -1 0.62315707E-01 0.19467755E+04</pdfrwt>
<totfact> 0.11953550E+01</totfact>
</mgrwt>
</event>
<event>
12    6  0.1627636E-007  0.3632540E+04  0.7818608E-02  0.8083078E-01
          2   -1    0    0  501    0  0.00000000000E+00  0.00000000000E+00  0.14267116064E+04  0.14267116064E+04  0.00000000000E+00 0. -1.
         -1   -1    0    0    0  501 -0.00000000000E+00 -0.00000000000E+00 -0.23121958927E+04  0.23121958927E+04  0.00000000000E+00 0.  1.
         24    2    1    2    0    0  0.18385192903E+03  0.52033029901E+03 -0.20798214529E+04  0.21533212385E+04  0.81178373957E+02 0.  0.
        254    2    1    2    0    0 -0.18385192903E+03 -0.52033029901E+03  0.11943371666E+04  0.15855862606E+04  0.88492788996E+03 0.  0.
         23    2    4    4    0    0 -0.31626813517E+03 -0.89471726521E+01  0.64800328931E+02  0.33530802226E+03  0.90148776681E+02 0.  0.
         23    2    4    4    0    0  0.13241620614E+03 -0.51138312636E+03  0.11295368376E+04  0.12502782383E+04  0.91079372408E+02 0.  0.
          2    1    3    3  502    0  0.43765230920E+02  0.11807650488E+03 -0.35462431404E+03  0.37631882833E+03  0.00000000000E+00 0. -1.
         -1    1    3    3    0  502  0.14008669811E+03  0.40225379413E+03 -0.17251971388E+04  0.17770024101E+04  0.00000000000E+00 0.  1.
         11    1    5    5    0    0 -0.31219925397E+03 -0.12107691089E+02  0.45984852555E+02  0.31579990030E+03  0.00000000000E+00 0. -1.
        -11    1    5    5    0    0 -0.40688811972E+01  0.31605184373E+01  0.18815476376E+02  0.19508121956E+02  0.00000000000E+00 0.  1.
          2    1    6    6  503    0  0.37649094180E+02 -0.54511175091E+02  0.19081743771E+03  0.20199063601E+03  0.00000000000E+00 0. -1.
         -2    1    6    6    0  503  0.94767111957E+02 -0.45687195127E+03  0.93871939993E+03  0.10482876023E+04  0.00000000000E+00 0.  1.
<mgrwt>
<rscale>  0 0.36325400E+04</rscale>
<asrwt>0</asrwt>
<pdfrwt beam="1">  1        2 0.21949410E+00 0.36325400E+04</pdfrwt>
<pdfrwt beam="2">  1       -1 0.35572244E+00 0.36325400E+04</pdfrwt>
<totfact> 0.18400790E-01</totfact>
</mgrwt>
</event>
<event>
12    6  0.1627636E-007  0.1698609E+04  0.7818608E-02  0.8762158E-01
         -1   -1    0    0    0  501 -0.00000000000E+00  0.00000000000E+00  0.26238740970E+03  0.26238740970E+03  0.00000000000E+00 0.  1.
          2   -1    0    0  501    0  0.00000000000E+00 -0.00000000000E+00 -0.27490578176E+04  0.27490578176E+04  0.00000000000E+00 0. -1.
         24    2    1    2    0    0  0.15202421912E+03 -0.52606293603E+02 -0.19143530528E+04  0.19227297178E+04  0.79140202208E+02 0.  0.
        254    2    1    2    0    0 -0.15202421912E+03  0.52606293603E+02 -0.57231735510E+03  0.10887155095E+04  0.91207210261E+03 0.  0.
         23    2    4    4    0    0 -0.24408891643E+03  0.25953564605E+03 -0.71669718837E+03  0.80546401479E+03  0.90439309025E+02 0.  0.
         23    2    4    4    0    0  0.92064697309E+02 -0.20692935245E+03  0.14437983327E+03  0.28325149471E+03  0.89945581361E+02 0.  0.
          2    1    3    3  502    0  0.88580170200E+02 -0.42370314412E+02 -0.72205140977E+03  0.72869741899E+03  0.00000000000E+00 0. -1.
         -1    1    3    3    0  502  0.63444048925E+02 -0.10235979191E+02 -0.11923016430E+04  0.11940322988E+04  0.00000000000E+00 0.  1.
         11    1    5    5    0    0 -0.25146872422E+03  0.25046547323E+03 -0.68161666993E+03  0.76848601631E+03  0.00000000000E+00 0. -1.
        -11    1    5    5    0    0  0.73798077842E+01  0.90701728251E+01 -0.35080518435E+02  0.36977998481E+02  0.00000000000E+00 0.  1.
          3    1    6    6  503    0  0.91640969751E+02 -0.95843493865E+02  0.78893969636E+02  0.15429938787E+03  0.00000000000E+00 0. -1.
         -3    1    6    6    0  503  0.42372755801E+00 -0.11108585859E+03  0.65485863631E+02  0.12895210684E+03  0.00000000000E+00 0.  1.
<mgrwt>
<rscale>  0 0.16986090E+04</rscale>
<asrwt>0</asrwt>
<pdfrwt beam="1">  1        2 0.42293197E+00 0.16986090E+04</pdfrwt>
<pdfrwt beam="2">  1       -1 0.40367294E-01 0.16986090E+04</pdfrwt>
<totfact> 0.16157369E+01</totfact>
</mgrwt>
</event>
<event>
12    6  0.1627636E-007  0.1117581E+04  0.7818608E-02  0.9188224E-01
         -1   -1    0    0    0  501 -0.00000000000E+00  0.00000000000E+00  0.11517143542E+03  0.11517143542E+03  0.00000000000E+00 0.  1.
          2   -1    0    0  501    0  0.00000000000E+00 -0.00000000000E+00 -0.27111472426E+04  0.27111472426E+04  0.00000000000E+00 0. -1.
         24    2    1    2    0    0 -0.68342191553E+02  0.90358238563E+02 -0.88256988888E+03  0.89345516236E+03  0.80605533101E+02 0.  0.
        254    2    1    2    0    0  0.68342191553E+02 -0.90358238563E+02 -0.17134059183E+04  0.19328635156E+04  0.88733661191E+03 0.  0.
         23    2    4    4    0    0 -0.26461504328E+03 -0.18562308653E+03 -0.14497352719E+04  0.14880765480E+04  0.90346016194E+02 0.  0.
         23    2    4    4    0    0  0.33295723484E+03  0.95264847965E+02 -0.26367064635E+03  0.44478696763E+03  0.91527729900E+02 0.  0.
          4    1    3    3  502    0 -0.82676579394E+02  0.70418019082E+02 -0.59430736858E+03  0.60414846068E+03  0.00000000000E+00 0. -1.
         -3    1    3    3    0  502  0.14334387841E+02  0.19940219481E+02 -0.28826252030E+03  0.28930670168E+03  0.00000000000E+00 0.  1.
         11    1    5    5    0    0 -0.23018410901E+03 -0.12914528019E+03 -0.10363018009E+04  0.10693851738E+04  0.00000000000E+00 0. -1.
        -11    1    5    5    0    0 -0.34430934270E+02 -0.56477806340E+02 -0.41343347105E+03  0.41869137420E+03  0.00000000000E+00 0.  1.
          3    1    6    6  503    0  0.32244553842E+03  0.80930722153E+02 -0.26737871220E+03  0.42662897554E+03  0.00000000000E+00 0. -1.
         -3    1    6    6    0  503  0.10511696418E+02  0.14334125813E+02  0.37080658499E+01  0.18157992090E+02  0.00000000000E+00 0.  1.
<mgrwt>
<rscale>  0 0.11175808E+04</rscale>
<asrwt>0</asrwt>
<pdfrwt beam="1">  1        2 0.41709954E+00 0.11175808E+04</pdfrwt>
<pdfrwt beam="2">  1       -1 0.17718684E-01 0.11175808E+04</pdfrwt>
<totfact> 0.74833750E+01</totfact>
</mgrwt>
</event>
<event>
12    6  0.1627636E-007  0.1422911E+04  0.7818608E-02  0.8937399E-01
         -1   -1    0    0    0  501 -0.00000000000E+00  0.00000000000E+00  0.67844825476E+03  0.67844825476E+03  0.00000000000E+00 0.  1.
          2   -1    0    0  501    0  0.00000000000E+00 -0.00000000000E+00 -0.74606883652E+03  0.74606883652E+03  0.00000000000E+00 0. -1.
         24    2    1    2    0    0 -0.18030433679E+03  0.54199537653E+01 -0.40369653879E+03  0.44918750787E+03  0.79116951618E+02 0.  0.
        254    2    1    2    0    0  0.18030433679E+03 -0.54199537653E+01  0.33607595703E+03  0.97532958341E+03  0.89765345074E+03 0.  0.
         23    2    4    4    0    0  0.41832829075E+03 -0.19593990705E+03  0.43628371330E+03  0.64200098263E+03  0.91819263746E+02 0.  0.
         23    2    4    4    0    0 -0.23802395395E+03  0.19051995328E+03 -0.10020775627E+03  0.33332860078E+03  0.90072784059E+02 0.  0.
          2    1    3    3  502    0 -0.17072717324E+03  0.19823814973E+02 -0.39276652253E+03  0.42872636091E+03  0.00000000000E+00 0. -1.
         -1    1    3    3    0  502 -0.95771635561E+01 -0.14403861208E+02 -0.10930016260E+02  0.20461146960E+02  0.00000000000E+00 0.  1.
         11    1    5    5    0    0  0.96038910683E+02 -0.49733389690E+02  0.53417734236E+02  0.12062477667E+03  0.00000000000E+00 0.  1.
        -11    1    5    5    0    0  0.32228938007E+03 -0.14620651736E+03  0.38286597906E+03  0.52137620596E+03  0.00000000000E+00 0. -1.
          4    1    6    6  503    0 -0.14361072956E+03  0.66212615093E+02 -0.75683169178E+02  0.17531712449E+03  0.00000000000E+00 0. -1.
         -4    1    6    6    0  503 -0.94413224393E+02  0.12430733819E+03 -0.24524587091E+02  0.15801147629E+03  0.00000000000E+00 0.  1.
<mgrwt>
<rscale>  0 0.14229112E+04</rscale>
<asrwt>0</asrwt>
<pdfrwt beam="1">  1        2 0.11477982E+00 0.14229112E+04</pdfrwt>
<pdfrwt beam="2">  1       -1 0.10437665E+00 0.14229112E+04</pdfrwt>
<totfact> 0.36182774E+01</totfact>
</mgrwt>
</event>
<event>
12    6  0.1627636E-007  0.2907868E+04  0.7818608E-02  0.8270540E-01
         -1   -1    0    0    0  501 -0.00000000000E+00  0.00000000000E+00  0.18284823228E+04  0.18284823228E+04  0.00000000000E+00 0.  1.
          2   -1    0    0  501    0  0.00000000000E+00 -0.00000000000E+00 -0.11561085838E+04  0.11561085838E+04  0.00000000000E+00 0. -1.
         24    2    1    2    0    0 -0.12071795563E+04 -0.71431569774E+02  0.83544342412E+03  0.14719885323E+04  0.79997338786E+02 0.  0.
        254    2    1    2    0    0  0.12071795563E+04  0.71431569774E+02 -0.16306968511E+03  0.15126023742E+04  0.89386199717E+03 0.  0.
         23    2    4    4    0    0  0.73591387871E+02  0.23634511928E+03 -0.24561466643E+03  0.36052896151E+03  0.91541574977E+02 0.  0.
         23    2    4    4    0    0  0.11335881684E+04 -0.16491354950E+03  0.82544981312E+02  0.11520734127E+04  0.90779182278E+02 0.  0.
          2    1    3    3  502    0 -0.82210066461E+03 -0.64240818627E+02  0.61005427311E+03  0.10257400264E+04  0.00000000000E+00 0. -1.
         -1    1    3    3    0  502 -0.38507889165E+03 -0.71907511474E+01  0.22538915101E+03  0.44624850598E+03  0.00000000000E+00 0.  1.
         11    1    5    5    0    0 -0.21355577694E+02  0.34310414098E+02 -0.31894544523E+02  0.51483270920E+02  0.00000000000E+00 0.  1.
        -11    1    5    5    0    0  0.94946965565E+02  0.20203470518E+03 -0.21372012190E+03  0.30904569059E+03  0.00000000000E+00 0. -1.
          3    1    6    6  503    0  0.61578833177E+03 -0.11320942799E+03  0.83841437205E+02  0.63169694531E+03  0.00000000000E+00 0. -1.
         -3    1    6    6    0  503  0.51779983662E+03 -0.51704121515E+02 -0.12964558925E+01  0.52037646737E+03  0.00000000000E+00 0.  1.
<mgrwt>
<rscale>  0 0.29078680E+04</rscale>
<asrwt>0</asrwt>
<pdfrwt beam="1">  1        2 0.17786286E+00 0.29078680E+04</pdfrwt>
<pdfrwt beam="2">  1       -1 0.28130497E+00 0.29078680E+04</pdfrwt>
<totfact> 0.86344288E-01</totfact>
</mgrwt>
</event>
<event>
12    6  0.1627636E-007  0.3580152E+04  0.7818608E-02  0.8095053E-01
          2   -1    0    0  501    0  0.00000000000E+00  0.00000000000E+00  0.22141551707E+04  0.22141551707E+04  0.00000000000E+00 0. -1.
         -1   -1    0    0    0  501 -0.00000000000E+00 -0.00000000000E+00 -0.14472210292E+04  0.14472210292E+04  0.00000000000E+00 0.  1.
         24    2    1    2    0    0 -0.15253892769E+04  0.69770098155E+03  0.32923296679E+03  0.17112195808E+04  0.79240150022E+02 0.  0.
        254    2    1    2    0    0  0.15253892769E+04 -0.69770098155E+03  0.43770117470E+03  0.19501566192E+04  0.89326894891E+03 0.  0.
         23    2    4    4    0    0  0.98487689741E+03 -0.17725337425E+03 -0.11870974458E+03  0.10117393637E+04  0.90129211993E+02 0.  0.
         23    2    4    4    0    0  0.54051237953E+03 -0.52044760730E+03  0.55641091928E+03  0.93841725547E+03  0.89523683529E+02 0.  0.
          2    1    3    3  502    0 -0.11533888767E+04  0.53176000877E+03  0.21467922154E+03  0.12880845376E+04  0.00000000000E+00 0. -1.
         -1    1    3    3    0  502 -0.37200040027E+03  0.16594097278E+03  0.11455374525E+03  0.42313504322E+03  0.00000000000E+00 0.  1.
         11    1    5    5    0    0  0.67611682368E+03 -0.80936612033E+02 -0.93343628490E+02  0.68731195785E+03  0.00000000000E+00 0.  1.
        -11    1    5    5    0    0  0.30876007373E+03 -0.96316762220E+02 -0.25366116087E+02  0.32442740584E+03  0.00000000000E+00 0. -1.
          1    1    6    6  503    0  0.50963711655E+03 -0.45951186939E+03  0.52023056204E+03  0.86111612826E+03  0.00000000000E+00 0.  1.
         -1    1    6    6    0  503  0.30875262983E+02 -0.60935737903E+02  0.36180357241E+02  0.77301127211E+02  0.00000000000E+00 0. -1.
<mgrwt>
<rscale>  0 0.35801519E+04</rscale>
<asrwt>0</asrwt>
<pdfrwt beam="1">  1        2 0.34063926E+00 0.35801519E+04</pdfrwt>
<pdfrwt beam="2">  1       -1 0.22264939E+00 0.35801519E+04</pdfrwt>
<totfact> 0.49717361E-01</totfact>
</mgrwt>
</event>
<event>
12    6  0.1627636E-007  0.1234609E+04  0.7818608E-02  0.9083091E-01
          2   -1    0    0  501    0  0.00000000000E+00  0.00000000000E+00  0.18798919825E+04  0.18798919825E+04  0.00000000000E+00 0. -1.
         -1   -1    0    0    0  501 -0.00000000000E+00 -0.00000000000E+00 -0.20270567740E+03  0.20270567740E+03  0.00000000000E+00 0.  1.
         24    2    1    2    0    0  0.26671158929E+03  0.92210220516E+02  0.25747214323E+03  0.39049571946E+03  0.80976575304E+02 0.  0.
        254    2    1    2    0    0 -0.26671158929E+03 -0.92210220516E+02  0.14197141619E+04  0.16921019405E+04  0.87634632355E+03 0.  0.
         23    2    4    4    0    0 -0.34827685969E+03 -0.83807372262E+02  0.15030284019E+04  0.15478205573E+04  0.91288848368E+02 0.  0.
         23    2    4    4    0    0  0.81565270398E+02 -0.84028482545E+01 -0.83314240024E+02  0.14428138321E+03  0.84571589531E+02 0.  0.
          2    1    3    3  502    0  0.11474438942E+03  0.26804799390E+02  0.57979653291E+02  0.13132559678E+03  0.00000000000E+00 0. -1.
         -1    1    3    3    0  502  0.15196719988E+03  0.65405421126E+02  0.19949248994E+03  0.25917012269E+03  0.00000000000E+00 0.  1.
         11    1    5    5    0    0 -0.22053781396E+03 -0.77189467826E+01  0.86658903768E+03  0.89424441276E+03  0.00000000000E+00 0.  1.
        -11    1    5    5    0    0 -0.12773904573E+03 -0.76088425479E+02  0.63643936424E+03  0.65357614450E+03  0.00000000000E+00 0. -1.
          1    1    6    6  503    0  0.62593689559E+02  0.31119914518E+02 -0.68851740763E+02  0.98117181259E+02  0.00000000000E+00 0. -1.
         -1    1    6    6    0  503  0.18971580839E+02 -0.39522762772E+02 -0.14462499261E+02  0.46164201949E+02  0.00000000000E+00 0.  1.
<mgrwt>
<rscale>  0 0.12346089E+04</rscale>
<asrwt>0</asrwt>
<pdfrwt beam="1">  1        2 0.28921414E+00 0.12346089E+04</pdfrwt>
<pdfrwt beam="2">  1       -1 0.31185490E-01 0.12346089E+04</pdfrwt>
<totfact> 0.83319197E+01</totfact>
</mgrwt>
</event>
<event>
12    6  0.1627636E-007  0.1484259E+04  0.7818608E-02  0.8894989E-01
          2   -1    0    0  501    0  0.00000000000E+00  0.00000000000E+00  0.19346432287E+04  0.19346432287E+04  0.00000000000E+00 0. -1.
         -1   -1    0    0    0  501 -0.00000000000E+00 -0.00000000000E+00 -0.28468088022E+03  0.28468088022E+03  0.00000000000E+00 0.  1.
         24    2    1    2    0    0 -0.11925139406E+03  0.45326725262E+03  0.57635167945E+03  0.74711135174E+03  0.79511107501E+02 0.  0.
        254    2    1    2    0    0  0.11925139406E+03 -0.45326725262E+03  0.10736106691E+04  0.14722127572E+04  0.89168292372E+03 0.  0.
         23    2    4    4    0    0 -0.25548394954E+03 -0.14900390681E+03  0.19602984019E+02  0.30957065922E+03  0.89305673668E+02 0.  0.
         23    2    4    4    0    0  0.37473534360E+03 -0.30426334581E+03  0.10540076850E+04  0.11626420980E+04  0.88327156196E+02 0.  0.
          4    1    3    3  502    0 -0.59526222141E+02  0.33717850453E+03  0.44979978291E+03  0.56528980155E+03  0.00000000000E+00 0. -1.
         -3    1    3    3    0  502 -0.59725171920E+02  0.11608874810E+03  0.12655189654E+03  0.18182155019E+03  0.00000000000E+00 0.  1.
         11    1    5    5    0    0 -0.13161904398E+03 -0.61212949949E+02  0.52257408199E+02  0.15427713600E+03  0.00000000000E+00 0.  1.
        -11    1    5    5    0    0 -0.12386490556E+03 -0.87790956866E+02 -0.32654424180E+02  0.15529352322E+03  0.00000000000E+00 0. -1.
          4    1    6    6  503    0  0.20706695472E+03 -0.16856624103E+03  0.68526085667E+03  0.73544118937E+03  0.00000000000E+00 0. -1.
         -4    1    6    6    0  503  0.16766838888E+03 -0.13569710477E+03  0.36874682838E+03  0.42720090861E+03  0.00000000000E+00 0.  1.
<mgrwt>
<rscale>  0 0.14842587E+04</rscale>
<asrwt>0</asrwt>
<pdfrwt beam="1">  1        2 0.29763741E+00 0.14842587E+04</pdfrwt>
<pdfrwt beam="2">  1       -1 0.43797060E-01 0.14842587E+04</pdfrwt>
<totfact> 0.41245583E+01</totfact>
</mgrwt>
</event>
<event>
12    6  0.1627636E-007  0.2538324E+04  0.7818608E-02  0.8389458E-01
         -1   -1    0    0    0  501 -0.00000000000E+00  0.00000000000E+00  0.44710085116E+03  0.44710085116E+03  0.00000000000E+00 0.  1.
          2   -1    0    0  501    0  0.00000000000E+00 -0.00000000000E+00 -0.36027045974E+04  0.36027045974E+04  0.00000000000E+00 0. -1.
         24    2    1    2    0    0 -0.42421085476E+02  0.43815912866E+03  0.24713559353E+03  0.51248670417E+03  0.88224995530E+02 0.  0.
        254    2    1    2    0    0  0.42421085476E+02 -0.43815912866E+03 -0.34027393397E+04  0.35373187443E+04  0.86035220375E+03 0.  0.
         23    2    4    4    0    0  0.34448312350E+03 -0.52427703428E+03 -0.23995661389E+04  0.24821592335E+04  0.98294327277E+02 0.  0.
         23    2    4    4    0    0 -0.30206203802E+03  0.86117905621E+02 -0.10031732009E+04  0.10551595108E+04  0.91363854240E+02 0.  0.
          2    1    3    3  502    0  0.25145146588E+02  0.10106996333E+03  0.43184955704E+02  0.11274908551E+03  0.00000000000E+00 0. -1.
         -3    1    3    3    0  502 -0.67566232064E+02  0.33708916533E+03  0.20395063783E+03  0.39973761866E+03  0.00000000000E+00 0.  1.
         11    1    5    5    0    0  0.87483831135E+02 -0.10484170363E+03 -0.38820062281E+03  0.41151540322E+03  0.00000000000E+00 0.  1.
        -11    1    5    5    0    0  0.25699929237E+03 -0.41943533065E+03 -0.20113655161E+04  0.20706438303E+04  0.00000000000E+00 0. -1.
          2    1    6    6  503    0 -0.27136029816E+03  0.44931444948E+02 -0.81884324623E+03  0.86380524892E+03  0.00000000000E+00 0. -1.
         -2    1    6    6    0  503 -0.30701739868E+02  0.41186460672E+02 -0.18432995462E+03  0.19135426189E+03  0.00000000000E+00 0.  1.
<mgrwt>
<rscale>  0 0.25383241E+04</rscale>
<asrwt>0</asrwt>
<pdfrwt beam="1">  1        2 0.55426227E+00 0.25383241E+04</pdfrwt>
<pdfrwt beam="2">  1       -1 0.68784744E-01 0.25383241E+04</pdfrwt>
<totfact> 0.14882414E+00</totfact>
</mgrwt>
</event>
<event>
12    6  0.1627636E-007  0.2236379E+04  0.7818608E-02  0.8503437E-01
          2   -1    0    0  501    0  0.00000000000E+00  0.00000000000E+00  0.10430555147E+04  0.10430555147E+04  0.00000000000E+00 0. -1.
         -1   -1    0    0    0  501 -0.00000000000E+00 -0.00000000000E+00 -0.11987359592E+04  0.11987359592E+04  0.00000000000E+00 0.  1.
         24    2    1    2    0    0  0.38592876437E+03  0.22569663370E+03  0.75878300100E+03  0.88442277795E+03  0.81068032665E+02 0.  0.
        254    2    1    2    0    0 -0.38592876437E+03 -0.22569663370E+03 -0.91446344554E+03  0.13573686960E+04  0.89795679289E+03 0.  0.
         23    2    4    4    0    0 -0.12110961179E+03 -0.38309944248E+03 -0.26177724871E+02  0.41273473731E+03  0.90730200092E+02 0.  0.
         23    2    4    4    0    0 -0.26481915258E+03  0.15740280878E+03 -0.88828572067E+03  0.94463395864E+03  0.91525769508E+02 0.  0.
          2    1    3    3  502    0  0.12334659859E+03  0.11574317733E+03  0.30405648826E+03  0.34793852120E+03  0.00000000000E+00 0. -1.
         -1    1    3    3    0  502  0.26258216577E+03  0.10995345637E+03  0.45472651274E+03  0.53648425675E+03  0.00000000000E+00 0.  1.
         11    1    5    5    0    0  0.11655111090E+02 -0.53792545344E+02 -0.16802640441E+02  0.57548312529E+02  0.00000000000E+00 0. -1.
        -11    1    5    5    0    0 -0.13276472288E+03 -0.32930689714E+03 -0.93750844298E+01  0.35518642479E+03  0.00000000000E+00 0.  1.
          1    1    6    6  503    0 -0.14698935862E+03  0.13527670717E+03 -0.60123069130E+03  0.63354873783E+03  0.00000000000E+00 0.  1.
         -1    1    6    6    0  503 -0.11782979396E+03  0.22126101611E+02 -0.28705502938E+03  0.31108522081E+03  0.00000000000E+00 0. -1.
<mgrwt>
<rscale>  0 0.22363794E+04</rscale>
<asrwt>0</asrwt>
<pdfrwt beam="1">  1        2 0.16047008E+00 0.22363794E+04</pdfrwt>
<pdfrwt beam="2">  1       -1 0.18442092E+00 0.22363794E+04</pdfrwt>
<totfact> 0.47547202E+00</totfact>
</mgrwt>
</event>
<event>
12    6  0.1627636E-007  0.1248243E+04  0.7818608E-02  0.9071647E-01
         -1   -1    0    0    0  501 -0.00000000000E+00  0.00000000000E+00  0.38851587758E+03  0.38851587758E+03  0.00000000000E+00 0.  1.
          2   -1    0    0  501    0  0.00000000000E+00 -0.00000000000E+00 -0.10026041224E+04  0.10026041224E+04  0.00000000000E+00 0. -1.
         24    2    1    2    0    0  0.73752632468E+02 -0.10366570343E+03 -0.46219500316E+03  0.48604168923E+03  0.80164043439E+02 0.  0.
        254    2    1    2    0    0 -0.73752632468E+02  0.10366570343E+03 -0.15189324171E+03  0.90507831079E+03  0.88312465877E+03 0.  0.
         23    2    4    4    0    0  0.32229833969E+03  0.23079502144E+02 -0.31242601559E+03  0.46053999625E+03  0.10039018747E+03 0.  0.
         23    2    4    4    0    0 -0.39605097216E+03  0.80586201288E+02  0.16053277388E+03  0.44453831455E+03  0.92157654187E+02 0.  0.
          4    1    3    3  502    0  0.77985752337E+02 -0.10166407917E+03 -0.33358102801E+03  0.35734250350E+03  0.00000000000E+00 0. -1.
         -3    1    3    3    0  502 -0.42331198690E+01 -0.20016242632E+01 -0.12861397515E+03  0.12869918572E+03  0.00000000000E+00 0.  1.
         11    1    5    5    0    0  0.24340365957E+03  0.47765726840E+02 -0.27330642610E+03  0.36908441948E+03  0.00000000000E+00 0.  1.
        -11    1    5    5    0    0  0.78894680113E+02 -0.24686224696E+02 -0.39119589494E+02  0.91455576769E+02  0.00000000000E+00 0. -1.
          2    1    6    6  503    0 -0.58061968958E+01 -0.12114429420E+02  0.49450363387E+01  0.14315191474E+02  0.00000000000E+00 0. -1.
         -2    1    6    6    0  503 -0.39024477526E+03  0.92700630708E+02  0.15558773754E+03  0.43022312307E+03  0.00000000000E+00 0.  1.
<mgrwt>
<rscale>  0 0.12482430E+04</rscale>
<asrwt>0</asrwt>
<pdfrwt beam="1">  1        2 0.15424679E+00 0.12482430E+04</pdfrwt>
<pdfrwt beam="2">  1       -1 0.59771674E-01 0.12482430E+04</pdfrwt>
<totfact> 0.79898322E+01</totfact>
</mgrwt>
</event>
<event>
12    6  0.1627636E-007  0.2372207E+04  0.7818608E-02  0.8449983E-01
         -1   -1    0    0    0  501 -0.00000000000E+00  0.00000000000E+00  0.13551756140E+04  0.13551756140E+04  0.00000000000E+00 0.  1.
          2   -1    0    0  501    0  0.00000000000E+00 -0.00000000000E+00 -0.10381248343E+04  0.10381248343E+04  0.00000000000E+00 0. -1.
         24    2    1    2    0    0 -0.31672846242E+03 -0.55802858715E+03  0.92446079250E+03  0.11281979516E+04  0.80560772961E+02 0.  0.
        254    2    1    2    0    0  0.31672846242E+03  0.55802858715E+03 -0.60741001274E+03  0.12651024967E+04  0.90544164951E+03 0.  0.
         23    2    4    4    0    0  0.58075520400E+03  0.24946677988E+03 -0.55415359989E+03  0.84552538021E+03  0.91195806196E+02 0.  0.
         23    2    4    4    0    0 -0.26402674157E+03  0.30856180726E+03 -0.53256412844E+02  0.41957711651E+03  0.91039562975E+02 0.  0.
          4    1    3    3  502    0 -0.56102383740E+02 -0.97163509539E+02  0.21997749818E+03  0.24693789655E+03  0.00000000000E+00 0. -1.
         -3    1    3    3    0  502 -0.26062607868E+03 -0.46086507761E+03  0.70448329432E+03  0.88126005505E+03  0.00000000000E+00 0.  1.
         11    1    5    5    0    0  0.50152662271E+03  0.18684336048E+03 -0.43777187304E+03  0.69143590264E+03  0.00000000000E+00 0.  1.
        -11    1    5    5    0    0  0.79228581293E+02  0.62623419408E+02 -0.11638172685E+03  0.15408947757E+03  0.00000000000E+00 0. -1.
          3    1    6    6  503    0 -0.77520319502E+02  0.55264683744E+02  0.18400292074E+02  0.96964714992E+02  0.00000000000E+00 0. -1.
         -3    1    6    6    0  503 -0.18650642207E+03  0.25329712352E+03 -0.71656704918E+02  0.32261240152E+03  0.00000000000E+00 0.  1.
<mgrwt>
<rscale>  0 0.23722070E+04</rscale>
<asrwt>0</asrwt>
<pdfrwt beam="1">  1        2 0.15971151E+00 0.23722070E+04</pdfrwt>
<pdfrwt beam="2">  1       -1 0.20848856E+00 0.23722070E+04</pdfrwt>
<totfact> 0.32215373E+00</totfact>
</mgrwt>
</event>
<event>
12    6  0.1627636E-007  0.2023262E+04  0.7818608E-02  0.8595822E-01
          2   -1    0    0  501    0  0.00000000000E+00  0.00000000000E+00  0.12884497918E+04  0.12884497918E+04  0.00000000000E+00 0. -1.
         -1   -1    0    0    0  501 -0.00000000000E+00 -0.00000000000E+00 -0.79428573389E+03  0.79428573389E+03  0.00000000000E+00 0.  1.
         24    2    1    2    0    0 -0.68844869161E+03 -0.21974017438E+03 -0.17467303603E+03  0.74767093921E+03  0.79081088818E+02 0.  0.
        254    2    1    2    0    0  0.68844869161E+03  0.21974017438E+03  0.66883709397E+03  0.13350645865E+04  0.90155812163E+03 0.  0.
         23    2    4    4    0    0  0.54726298918E+03 -0.22525971101E+03  0.61180830942E+03  0.85630463852E+03  0.93324754231E+02 0.  0.
         23    2    4    4    0    0  0.14118570243E+03  0.44499988539E+03  0.57028784551E+02  0.47875994799E+03  0.89445541882E+02 0.  0.
          2    1    3    3  502    0 -0.26801248489E+03 -0.52001341505E+02 -0.44071647575E+02  0.27654500844E+03  0.00000000000E+00 0. -1.
         -1    1    3    3    0  502 -0.42043620673E+03 -0.16773883287E+03 -0.13060138845E+03  0.47112593077E+03  0.00000000000E+00 0.  1.
         11    1    5    5    0    0  0.11140627976E+03 -0.65448109181E+02  0.87694405992E+02  0.15615736617E+03  0.00000000000E+00 0. -1.
        -11    1    5    5    0    0  0.43585670942E+03 -0.15981160183E+03  0.52411390343E+03  0.70014727236E+03  0.00000000000E+00 0.  1.
          4    1    6    6  503    0  0.54738393999E+02  0.73096194086E+02 -0.70906102845E+01  0.91594880433E+02  0.00000000000E+00 0. -1.
         -4    1    6    6    0  503  0.86447308432E+02  0.37190369130E+03  0.64119394836E+02  0.38716506756E+03  0.00000000000E+00 0.  1.
<mgrwt>
<rscale>  0 0.20232620E+04</rscale>
<asrwt>0</asrwt>
<pdfrwt beam="1">  1        2 0.19822304E+00 0.20232620E+04</pdfrwt>
<pdfrwt beam="2">  1       -1 0.12219781E+00 0.20232620E+04</pdfrwt>
<totfact> 0.10508160E+01</totfact>
</mgrwt>
</event>
<event>
12    6  0.1627636E-007  0.2583419E+04  0.7818608E-02  0.8373855E-01
         -3   -1    0    0    0  501 -0.00000000000E+00  0.00000000000E+00  0.16174355425E+04  0.16174355425E+04  0.00000000000E+00 0.  1.
          4   -1    0    0  501    0  0.00000000000E+00 -0.00000000000E+00 -0.10315792228E+04  0.10315792228E+04  0.00000000000E+00 0. -1.
         24    2    1    2    0    0  0.53532766811E+03  0.81805188678E+03 -0.33432403434E+03  0.10364416417E+04  0.81572758875E+02 0.  0.
        254    2    1    2    0    0 -0.53532766811E+03 -0.81805188678E+03  0.92018035397E+03  0.16125731236E+04  0.89323882221E+03 0.  0.
         23    2    4    4    0    0 -0.14172628842E+03  0.18496447985E+02  0.61109844136E+03  0.63367075283E+03  0.87572019114E+02 0.  0.
         23    2    4    4    0    0 -0.39360137969E+03 -0.83654833476E+03  0.30908191260E+03  0.97890237080E+03  0.89347973501E+02 0.  0.
          2    1    3    3  502    0  0.53152902214E+03  0.80662954679E+03 -0.31978052227E+03  0.10175627300E+04  0.00000000000E+00 0. -1.
         -1    1    3    3    0  502  0.37986459631E+01  0.11422339989E+02 -0.14543512068E+02  0.18878911654E+02  0.00000000000E+00 0.  1.
         11    1    5    5    0    0 -0.35349186277E+02  0.25275892059E+02  0.71700372548E+02  0.83841392602E+02  0.00000000000E+00 0. -1.
        -11    1    5    5    0    0 -0.10637710214E+03 -0.67794440734E+01  0.53939806882E+03  0.54982936022E+03  0.00000000000E+00 0.  1.
          1    1    6    6  503    0 -0.75446379305E+02 -0.13447372985E+03  0.85598243044E+02  0.17635872358E+03  0.00000000000E+00 0. -1.
         -1    1    6    6    0  503 -0.31815500038E+03 -0.70207460491E+03  0.22348366956E+03  0.80254364722E+03  0.00000000000E+00 0.  1.
<mgrwt>
<rscale>  0 0.25834186E+04</rscale>
<asrwt>0</asrwt>
<pdfrwt beam="1">  1        4 0.15870449E+00 0.25834186E+04</pdfrwt>
<pdfrwt beam="2">  1       -3 0.24883624E+00 0.25834186E+04</pdfrwt>
<totfact> 0.38360576E-02</totfact>
</mgrwt>
</event>
<event>
12    6  0.1627636E-007  0.1402985E+04  0.7818608E-02  0.8951661E-01
         -1   -1    0    0    0  501 -0.00000000000E+00  0.00000000000E+00  0.82333177214E+03  0.82333177214E+03  0.00000000000E+00 0.  1.
          2   -1    0    0  501    0  0.00000000000E+00 -0.00000000000E+00 -0.59768330102E+03  0.59768330102E+03  0.00000000000E+00 0. -1.
         24    2    1    2    0    0 -0.21648667773E+03 -0.12351609147E+03  0.39530279620E+03  0.47426861845E+03  0.80893233828E+02 0.  0.
        254    2    1    2    0    0  0.21648667773E+03  0.12351609147E+03 -0.16965432508E+03  0.94674645471E+03  0.89745392806E+03 0.  0.
         23    2    4    4    0    0  0.57790578575E+02  0.49837709498E+03 -0.14080710331E+03  0.52888898017E+03  0.90429161405E+02 0.  0.
         23    2    4    4    0    0  0.15869609915E+03 -0.37486100351E+03 -0.28847221770E+02  0.41785747454E+03  0.89819168269E+02 0.  0.
          4    1    3    3  502    0 -0.41177479441E+01  0.48495626353E+01 -0.12401656016E+01  0.64816754473E+01  0.00000000000E+00 0. -1.
         -3    1    3    3    0  502 -0.21236892979E+03 -0.12836565411E+03  0.39654296180E+03  0.46778694300E+03  0.00000000000E+00 0.  1.
         11    1    5    5    0    0  0.29204278179E+02  0.40638769682E+03 -0.80715588746E+02  0.41535389279E+03  0.00000000000E+00 0. -1.
        -11    1    5    5    0    0  0.28586300396E+02  0.91989398161E+02 -0.60091514561E+02  0.11353508738E+03  0.00000000000E+00 0.  1.
          1    1    6    6  503    0  0.12762565341E+03 -0.34793363701E+03 -0.45725901978E+02  0.37341261532E+03  0.00000000000E+00 0. -1.
         -1    1    6    6    0  503  0.31070445746E+02 -0.26927366497E+02  0.16878680207E+02  0.44444859218E+02  0.00000000000E+00 0.  1.
<mgrwt>
<rscale>  0 0.14029849E+04</rscale>
<asrwt>0</asrwt>
<pdfrwt beam="1">  1        2 0.91951276E-01 0.14029849E+04</pdfrwt>
<pdfrwt beam="2">  1       -1 0.12666643E+00 0.14029849E+04</pdfrwt>
<totfact> 0.30010025E+01</totfact>
</mgrwt>
</event>
<event>
12    6  0.1627636E-007  0.2013115E+04  0.7818608E-02  0.8600514E-01
         -1   -1    0    0    0  501 -0.00000000000E+00  0.00000000000E+00  0.11867264533E+04  0.11867264533E+04  0.00000000000E+00 0.  1.
          2   -1    0    0  501    0  0.00000000000E+00 -0.00000000000E+00 -0.85374158866E+03  0.85374158866E+03  0.00000000000E+00 0. -1.
         24    2    1    2    0    0  0.13839631402E+03 -0.14490888577E+02  0.93415316861E+03  0.94790011187E+03  0.80678089252E+02 0.  0.
        254    2    1    2    0    0 -0.13839631402E+03  0.14490888577E+02 -0.60116830399E+03  0.10925679301E+04  0.90163064860E+03 0.  0.
         23    2    4    4    0    0 -0.18109436633E+03  0.19496291796E+03 -0.77387208556E+03  0.82389789230E+03  0.95519753063E+02 0.  0.
         23    2    4    4    0    0  0.42698052310E+02 -0.18047202938E+03  0.17270378157E+03  0.26867003776E+03  0.89239654657E+02 0.  0.
          4    1    3    3  502    0  0.69891656138E+02 -0.47145279924E+02  0.53404719877E+03  0.54066064359E+03  0.00000000000E+00 0. -1.
         -3    1    3    3    0  502  0.68504657884E+02  0.32654391347E+02  0.40010596984E+03  0.40723946828E+03  0.00000000000E+00 0.  1.
         11    1    5    5    0    0 -0.15749393308E+03  0.15743953395E+03 -0.72251853820E+03  0.75605858494E+03  0.00000000000E+00 0. -1.
        -11    1    5    5    0    0 -0.23600433248E+02  0.37523384011E+02 -0.51353547360E+02  0.67839307363E+02  0.00000000000E+00 0.  1.
          3    1    6    6  503    0  0.48313452950E+02 -0.15782363812E+03  0.18000353669E+03  0.24422072743E+03  0.00000000000E+00 0. -1.
         -3    1    6    6    0  503 -0.56154006398E+01 -0.22648391263E+02 -0.72997551183E+01  0.24449310337E+02  0.00000000000E+00 0.  1.
<mgrwt>
<rscale>  0 0.20131147E+04</rscale>
<asrwt>0</asrwt>
<pdfrwt beam="1">  1        2 0.13134486E+00 0.20131147E+04</pdfrwt>
<pdfrwt beam="2">  1       -1 0.18257330E+00 0.20131147E+04</pdfrwt>
<totfact> 0.66635647E+00</totfact>
</mgrwt>
</event>
<event>
12    6  0.1627636E-007  0.1154851E+04  0.7818608E-02  0.9153320E-01
         -1   -1    0    0    0  501 -0.00000000000E+00  0.00000000000E+00  0.29098070086E+03  0.29098070086E+03  0.00000000000E+00 0.  1.
          2   -1    0    0  501    0  0.00000000000E+00 -0.00000000000E+00 -0.11458500382E+04  0.11458500382E+04  0.00000000000E+00 0. -1.
         24    2    1    2    0    0  0.90975081976E+02 -0.57273594049E+02  0.60345318686E+02  0.14689480347E+03  0.79873623203E+02 0.  0.
        254    2    1    2    0    0 -0.90975081976E+02  0.57273594049E+02 -0.91521465604E+03  0.12899359356E+04  0.90264063791E+03 0.  0.
         23    2    4    4    0    0 -0.18425635100E+03  0.41709788088E+02 -0.10681765978E+04  0.10888925080E+04  0.94844822722E+02 0.  0.
         23    2    4    4    0    0  0.93281269024E+02  0.15563805960E+02  0.15296194181E+03  0.20104342764E+03  0.89874784832E+02 0.  0.
          2    1    3    3  502    0  0.76316894575E+02 -0.22903899748E+02  0.46349897173E+01  0.79814410672E+02  0.00000000000E+00 0. -1.
         -1    1    3    3    0  502  0.14658187400E+02 -0.34369694301E+02  0.55710328968E+02  0.67080392798E+02  0.00000000000E+00 0.  1.
         11    1    5    5    0    0 -0.99991768961E+02 -0.17271101018E+02 -0.67025745215E+03  0.67789504863E+03  0.00000000000E+00 0. -1.
        -11    1    5    5    0    0 -0.84264582039E+02  0.58980889106E+02 -0.39791914570E+03  0.41099745933E+03  0.00000000000E+00 0.  1.
          1    1    6    6  503    0  0.18002887952E+02  0.45437573973E+02  0.67086012044E+02  0.83001265744E+02  0.00000000000E+00 0. -1.
         -1    1    6    6    0  503  0.75278381072E+02 -0.29873768013E+02  0.85875929763E+02  0.11804216189E+03  0.00000000000E+00 0.  1.
<mgrwt>
<rscale>  0 0.11548511E+04</rscale>
<asrwt>0</asrwt>
<pdfrwt beam="1">  1        2 0.17628462E+00 0.11548511E+04</pdfrwt>
<pdfrwt beam="2">  1       -1 0.44766262E-01 0.11548511E+04</pdfrwt>
<totfact> 0.11387404E+02</totfact>
</mgrwt>
</event>
<event>
12    6  0.1627636E-007  0.3566635E+04  0.7818608E-02  0.8098177E-01
          2   -1    0    0  501    0  0.00000000000E+00  0.00000000000E+00  0.19766044253E+04  0.19766044253E+04  0.00000000000E+00 0. -1.
         -1   -1    0    0    0  501 -0.00000000000E+00 -0.00000000000E+00 -0.16089319308E+04  0.16089319308E+04  0.00000000000E+00 0.  1.
         24    2    1    2    0    0 -0.78607781603E+03 -0.88062076765E+03 -0.10130687470E+04  0.15575743063E+04  0.79486881291E+02 0.  0.
        254    2    1    2    0    0  0.78607781603E+03  0.88062076765E+03  0.13807412415E+04  0.20279620497E+04  0.90153892309E+03 0.  0.
         23    2    4    4    0    0  0.51424437912E+03  0.10289878984E+04  0.98479943800E+03  0.15169997113E+04  0.90525215357E+02 0.  0.
         23    2    4    4    0    0  0.27183343691E+03 -0.14836713076E+03  0.39594180354E+03  0.51096233840E+03  0.91686294266E+02 0.  0.
          4    1    3    3  502    0 -0.15729537106E+03 -0.14471282048E+03 -0.15468402461E+03  0.26383855222E+03  0.00000000000E+00 0. -1.
         -3    1    3    3    0  502 -0.62878244497E+03 -0.73590794717E+03 -0.85838472238E+03  0.12937357541E+04  0.00000000000E+00 0.  1.
         11    1    5    5    0    0  0.29210188723E+03  0.55883944506E+03  0.48217299712E+03  0.79379836044E+03  0.00000000000E+00 0.  1.
        -11    1    5    5    0    0  0.22214249189E+03  0.47014845335E+03  0.50262644087E+03  0.72320135091E+03  0.00000000000E+00 0. -1.
          4    1    6    6  503    0  0.15874697079E+03 -0.90198895486E+02  0.15926686453E+03  0.24228573135E+03  0.00000000000E+00 0. -1.
         -4    1    6    6    0  503  0.11308646612E+03 -0.58168235276E+02  0.23667493901E+03  0.26867660704E+03  0.00000000000E+00 0.  1.
<mgrwt>
<rscale>  0 0.35666354E+04</rscale>
<asrwt>0</asrwt>
<pdfrwt beam="1">  1        2 0.30409299E+00 0.35666354E+04</pdfrwt>
<pdfrwt beam="2">  1       -1 0.24752799E+00 0.35666354E+04</pdfrwt>
<totfact> 0.46316202E-01</totfact>
</mgrwt>
</event>
<event>
12    6  0.1627636E-007  0.1252702E+04  0.7818608E-02  0.9067937E-01
          2   -1    0    0  501    0  0.00000000000E+00  0.00000000000E+00  0.43805181103E+03  0.43805181103E+03  0.00000000000E+00 0. -1.
         -1   -1    0    0    0  501 -0.00000000000E+00 -0.00000000000E+00 -0.89559188840E+03  0.89559188840E+03  0.00000000000E+00 0.  1.
         24    2    1    2    0    0  0.21812657794E+03  0.32634366045E+02 -0.32134538821E+03  0.39648004573E+03  0.72728002057E+02 0.  0.
        254    2    1    2    0    0 -0.21812657794E+03 -0.32634366045E+02 -0.13619468916E+03  0.93716365371E+03  0.90060119621E+03 0.  0.
         23    2    4    4    0    0 -0.37085847317E+03  0.33486281190E+03 -0.69116851740E+01  0.50869452173E+03  0.95148489885E+02 0.  0.
         23    2    4    4    0    0  0.15273189522E+03 -0.36749717795E+03 -0.12928300398E+03  0.42846913198E+03  0.92143878375E+02 0.  0.
          4    1    3    3  502    0  0.15702795618E+03 -0.77256400793E+01 -0.19541471724E+03  0.25080744856E+03  0.00000000000E+00 0. -1.
         -3    1    3    3    0  502  0.61098621764E+02  0.40360006124E+02 -0.12593067097E+03  0.14567259717E+03  0.00000000000E+00 0.  1.
         11    1    5    5    0    0 -0.28379047519E+03  0.26903107604E+03  0.33091635336E+02  0.39244083632E+03  0.00000000000E+00 0.  1.
        -11    1    5    5    0    0 -0.87067997979E+02  0.65831735868E+02 -0.40003320510E+02  0.11625368541E+03  0.00000000000E+00 0. -1.
          1    1    6    6  503    0  0.13148568603E+03 -0.25503904709E+03 -0.55376934448E+02  0.29223279426E+03  0.00000000000E+00 0. -1.
         -1    1    6    6    0  503  0.21246209188E+02 -0.11245813086E+03 -0.73906069533E+02  0.13623633772E+03  0.00000000000E+00 0.  1.
<mgrwt>
<rscale>  0 0.12527021E+04</rscale>
<asrwt>0</asrwt>
<pdfrwt beam="1">  1        2 0.67392587E-01 0.12527021E+04</pdfrwt>
<pdfrwt beam="2">  1       -1 0.13778337E+00 0.12527021E+04</pdfrwt>
<totfact> 0.35267020E+01</totfact>
</mgrwt>
</event>
<event>
12    6  0.1627636E-007  0.1991006E+04  0.7818608E-02  0.8610837E-01
          2   -1    0    0  501    0  0.00000000000E+00  0.00000000000E+00  0.17327939554E+04  0.17327939554E+04  0.00000000000E+00 0. -1.
         -1   -1    0    0    0  501 -0.00000000000E+00 -0.00000000000E+00 -0.57192377961E+03  0.57192377961E+03  0.00000000000E+00 0.  1.
         24    2    1    2    0    0  0.61447935774E+03 -0.46386509151E+03  0.64253834924E+03  0.10059753116E+04  0.79844180462E+02 0.  0.
        254    2    1    2    0    0 -0.61447935774E+03  0.46386509151E+03  0.51833182656E+03  0.12987424234E+04  0.90846480157E+03 0.  0.
         23    2    4    4    0    0 -0.77510171138E+03  0.13222775891E+03  0.23969196602E+03  0.82742175433E+03  0.94380494595E+02 0.  0.
         23    2    4    4    0    0  0.16062235364E+03  0.33163733260E+03  0.27863986054E+03  0.47132066906E+03  0.93381691672E+02 0.  0.
          2    1    3    3  502    0  0.55284647345E+03 -0.38434898380E+03  0.55330824677E+03  0.87150064859E+03  0.00000000000E+00 0. -1.
         -1    1    3    3    0  502  0.61632884280E+02 -0.79516107716E+02  0.89230102478E+02  0.13447466304E+03  0.00000000000E+00 0.  1.
         11    1    5    5    0    0 -0.31210484787E+03  0.89532884152E+02  0.67743629259E+02  0.33168474899E+03  0.00000000000E+00 0.  1.
        -11    1    5    5    0    0 -0.46299686351E+03  0.42694874760E+02  0.17194833676E+03  0.49573700534E+03  0.00000000000E+00 0. -1.
          2    1    6    6  503    0  0.16992020129E+03  0.32418840976E+03  0.27755858353E+03  0.45935799451E+03  0.00000000000E+00 0. -1.
         -2    1    6    6    0  503 -0.92978476505E+01  0.74489228377E+01  0.10812770079E+01  0.11962674548E+02  0.00000000000E+00 0.  1.
<mgrwt>
<rscale>  0 0.19910058E+04</rscale>
<asrwt>0</asrwt>
<pdfrwt beam="1">  1        2 0.26658368E+00 0.19910058E+04</pdfrwt>
<pdfrwt beam="2">  1       -1 0.87988274E-01 0.19910058E+04</pdfrwt>
<totfact> 0.12641130E+01</totfact>
</mgrwt>
</event>
<event>
12    6  0.1627636E-007  0.1937419E+04  0.7818608E-02  0.8636451E-01
          2   -1    0    0  501    0  0.00000000000E+00  0.00000000000E+00  0.22492970968E+04  0.22492970968E+04  0.00000000000E+00 0. -1.
         -1   -1    0    0    0  501 -0.00000000000E+00 -0.00000000000E+00 -0.41719635905E+03  0.41719635905E+03  0.00000000000E+00 0.  1.
         24    2    1    2    0    0 -0.27322851237E+03 -0.12266527752E+02  0.16757762855E+04  0.16998873310E+04  0.81157201437E+02 0.  0.
        254    2    1    2    0    0  0.27322851237E+03  0.12266527752E+02  0.15632445223E+03  0.96660612484E+03  0.91383027884E+03 0.  0.
         23    2    4    4    0    0 -0.24173069151E+03 -0.25584914606E+03  0.10166942634E+03  0.37774739693E+03  0.91999515662E+02 0.  0.
         23    2    4    4    0    0  0.51495920388E+03  0.26811567381E+03  0.54655025888E+02  0.58885872790E+03  0.81843957460E+02 0.  0.
          4    1    3    3  502    0 -0.10570279212E+03 -0.13662075955E+02  0.43575816601E+03  0.44860329003E+03  0.00000000000E+00 0. -1.
         -3    1    3    3    0  502 -0.16752572025E+03  0.13955482031E+01  0.12400181195E+04  0.12512840410E+04  0.00000000000E+00 0.  1.
         11    1    5    5    0    0 -0.76262826456E-02 -0.98868510316E+01  0.21541806770E+02  0.23702306226E+02  0.00000000000E+00 0.  1.
        -11    1    5    5    0    0 -0.24172306522E+03 -0.24596229503E+03  0.80127619573E+02  0.35404509071E+03  0.00000000000E+00 0. -1.
          1    1    6    6  503    0  0.11144461065E+03  0.53555028612E+02  0.45511698433E+02  0.13175491273E+03  0.00000000000E+00 0. -1.
         -1    1    6    6    0  503  0.40351459322E+03  0.21456064520E+03  0.91433274557E+01  0.45710381518E+03  0.00000000000E+00 0.  1.
<mgrwt>
<rscale>  0 0.19374195E+04</rscale>
<asrwt>0</asrwt>
<pdfrwt beam="1">  1        2 0.34604570E+00 0.19374195E+04</pdfrwt>
<pdfrwt beam="2">  1       -1 0.64184057E-01 0.19374195E+04</pdfrwt>
<totfact> 0.12677480E+01</totfact>
</mgrwt>
</event>
<event>
12    6  0.1627636E-007  0.3813135E+04  0.7818608E-02  0.8043342E-01
         -1   -1    0    0    0  501 -0.00000000000E+00  0.00000000000E+00  0.32358554998E+04  0.32358554998E+04  0.00000000000E+00 0.  1.
          2   -1    0    0  501    0  0.00000000000E+00 -0.00000000000E+00 -0.11233502302E+04  0.11233502302E+04  0.00000000000E+00 0. -1.
         24    2    1    2    0    0 -0.15206089484E+04  0.96455124592E+03  0.94769034867E+03  0.20364810522E+04  0.80792321215E+02 0.  0.
        254    2    1    2    0    0  0.15206089484E+04 -0.96455124592E+03  0.11648149209E+04  0.23227246778E+04  0.89198960143E+03 0.  0.
         23    2    4    4    0    0  0.19984452265E+03  0.15619794796E+03  0.10373219803E+03  0.28940284563E+03  0.93048406604E+02 0.  0.
         23    2    4    4    0    0  0.13207644257E+04 -0.11207491939E+04  0.10610827229E+04  0.20333218322E+04  0.89463425911E+02 0.  0.
          2    1    3    3  502    0 -0.86758030085E+02  0.72536144929E+02  0.45319665415E+02  0.12182906131E+03  0.00000000000E+00 0. -1.
         -1    1    3    3    0  502 -0.14338509183E+04  0.89201510099E+03  0.90237068326E+03  0.19146519909E+04  0.00000000000E+00 0.  1.
         11    1    5    5    0    0  0.16740602221E+03  0.16605930189E+03  0.84878098451E+02  0.25060877800E+03  0.00000000000E+00 0.  1.
        -11    1    5    5    0    0  0.32438500449E+02 -0.98613539287E+01  0.18854099577E+02  0.38794067633E+02  0.00000000000E+00 0. -1.
          3    1    6    6  503    0  0.28822072315E+03 -0.28203854031E+03  0.27616872243E+03  0.48875974335E+03  0.00000000000E+00 0. -1.
         -3    1    6    6    0  503  0.10325437026E+04 -0.83871065357E+03  0.78491400049E+03  0.15445620888E+04  0.00000000000E+00 0.  1.
<mgrwt>
<rscale>  0 0.38131347E+04</rscale>
<asrwt>0</asrwt>
<pdfrwt beam="1">  1        2 0.17282311E+00 0.38131347E+04</pdfrwt>
<pdfrwt beam="2">  1       -1 0.49782392E+00 0.38131347E+04</pdfrwt>
<totfact> 0.29619172E-02</totfact>
</mgrwt>
</event>
<event>
12    6  0.1627636E-007  0.1979118E+04  0.7818608E-02  0.8616447E-01
          2   -1    0    0  501    0  0.00000000000E+00  0.00000000000E+00  0.20229011721E+04  0.20229011721E+04  0.00000000000E+00 0. -1.
         -1   -1    0    0    0  501 -0.00000000000E+00 -0.00000000000E+00 -0.48407042246E+03  0.48407042246E+03  0.00000000000E+00 0.  1.
         24    2    1    2    0    0  0.69163672498E+02  0.63402107620E+03  0.11885422403E+04  0.13519646600E+04  0.91703034168E+02 0.  0.
        254    2    1    2    0    0 -0.69163672498E+02 -0.63402107620E+03  0.35028850933E+03  0.11550069345E+04  0.89697973235E+03 0.  0.
         23    2    4    4    0    0  0.38818686865E+03 -0.43076739163E+03  0.24284136198E+03  0.63533192293E+03  0.91788531539E+02 0.  0.
         23    2    4    4    0    0 -0.45735054115E+03 -0.20325368457E+03  0.10744714736E+03  0.51967501154E+03  0.89641789116E+02 0.  0.
          2    1    3    3  502    0  0.19100747233E+02  0.18117075529E+03  0.43175416214E+03  0.46861427383E+03  0.00000000000E+00 0. -1.
         -1    1    3    3    0  502  0.50062925265E+02  0.45285032092E+03  0.75678807811E+03  0.88335038621E+03  0.00000000000E+00 0.  1.
         11    1    5    5    0    0  0.21072500176E+03 -0.29863058414E+03  0.16177401088E+03  0.39969498714E+03  0.00000000000E+00 0. -1.
        -11    1    5    5    0    0  0.17746186689E+03 -0.13213680749E+03  0.81067351101E+02  0.23563693579E+03  0.00000000000E+00 0.  1.
          3    1    6    6  503    0 -0.39208769127E+03 -0.17599349886E+03  0.58674798645E+02  0.43376168720E+03  0.00000000000E+00 0. -1.
         -3    1    6    6    0  503 -0.65262849883E+02 -0.27260185714E+02  0.48772348711E+02  0.85913324338E+02  0.00000000000E+00 0.  1.
<mgrwt>
<rscale>  0 0.19791176E+04</rscale>
<asrwt>0</asrwt>
<pdfrwt beam="1">  1        2 0.31121556E+00 0.19791176E+04</pdfrwt>
<pdfrwt beam="2">  1       -1 0.74472374E-01 0.19791176E+04</pdfrwt>
<totfact> 0.12473399E+01</totfact>
</mgrwt>
</event>
<event>
12    6  0.1627636E-007  0.2216216E+04  0.7818608E-02  0.8511709E-01
          2   -1    0    0  501    0  0.00000000000E+00  0.00000000000E+00  0.21813761399E+04  0.21813761399E+04  0.00000000000E+00 0. -1.
         -1   -1    0    0    0  501 -0.00000000000E+00 -0.00000000000E+00 -0.56290298016E+03  0.56290298016E+03  0.00000000000E+00 0.  1.
         24    2    1    2    0    0 -0.47999402618E+03  0.47621138483E+03 -0.11449327367E+03  0.69068907806E+03  0.82286965156E+02 0.  0.
        254    2    1    2    0    0  0.47999402618E+03 -0.47621138483E+03  0.17329664334E+04  0.20535900420E+04  0.86999301899E+03 0.  0.
         23    2    4    4    0    0 -0.21644332200E+03 -0.38995087979E+02  0.62962290005E+03  0.67462493917E+03  0.10161438755E+03 0.  0.
         23    2    4    4    0    0  0.69643734817E+03 -0.43721629685E+03  0.11033435334E+04  0.13789651028E+04  0.89413265639E+02 0.  0.
          2    1    3    3  502    0 -0.16719547408E+03  0.16650560613E+03 -0.40970748858E+00  0.23596315663E+03  0.00000000000E+00 0. -1.
         -1    1    3    3    0  502 -0.31279855209E+03  0.30970577870E+03 -0.11408356618E+03  0.45472592143E+03  0.00000000000E+00 0.  1.
         11    1    5    5    0    0 -0.16082704987E+03  0.32607959329E+01  0.52284418154E+03  0.54703017369E+03  0.00000000000E+00 0. -1.
        -11    1    5    5    0    0 -0.55616272123E+02 -0.42255883912E+02  0.10677871852E+03  0.12759476548E+03  0.00000000000E+00 0.  1.
          3    1    6    6  503    0  0.61483021795E+03 -0.40015956270E+03  0.10213061587E+04  0.12574617857E+04  0.00000000000E+00 0. -1.
         -3    1    6    6    0  503  0.81607130223E+02 -0.37056734148E+02  0.82037374610E+02  0.12150331716E+03  0.00000000000E+00 0.  1.
<mgrwt>
<rscale>  0 0.22162158E+04</rscale>
<asrwt>0</asrwt>
<pdfrwt beam="1">  1        2 0.33559632E+00 0.22162158E+04</pdfrwt>
<pdfrwt beam="2">  1       -1 0.86600460E-01 0.22162158E+04</pdfrwt>
<totfact> 0.72234757E+00</totfact>
</mgrwt>
</event>
<event>
12    6  0.1627636E-007  0.1324042E+04  0.7818608E-02  0.9010714E-01
         -3   -1    0    0    0  501 -0.00000000000E+00  0.00000000000E+00  0.20770719351E+03  0.20770719351E+03  0.00000000000E+00 0.  1.
          2   -1    0    0  501    0  0.00000000000E+00 -0.00000000000E+00 -0.21100468682E+04  0.21100468682E+04  0.00000000000E+00 0. -1.
         24    2    1    2    0    0 -0.17585690945E+03  0.29585307989E+03 -0.59437402471E+03  0.69083458549E+03  0.74278164890E+02 0.  0.
        254    2    1    2    0    0  0.17585690945E+03 -0.29585307989E+03 -0.13079656500E+04  0.16269194763E+04  0.90423345610E+03 0.  0.
         23    2    4    4    0    0 -0.35132778004E+03 -0.18931764548E+02 -0.44454481496E+03  0.57410593277E+03  0.90487064282E+02 0.  0.
         23    2    4    4    0    0  0.52718468949E+03 -0.27692131534E+03 -0.86342083506E+03  0.10528135435E+04  0.91168564779E+02 0.  0.
          2    1    3    3  502    0 -0.87731306547E+02  0.15734350540E+03 -0.38251313545E+03  0.42281208548E+03  0.00000000000E+00 0. -1.
         -1    1    3    3    0  502 -0.88125602903E+02  0.13850957448E+03 -0.21186088926E+03  0.26802250001E+03  0.00000000000E+00 0.  1.
         11    1    5    5    0    0 -0.16974373146E+03 -0.51014456643E+02 -0.19062107934E+03  0.26029176907E+03  0.00000000000E+00 0.  1.
        -11    1    5    5    0    0 -0.18158404858E+03  0.32082692095E+02 -0.25392373562E+03  0.31381416371E+03  0.00000000000E+00 0. -1.
          4    1    6    6  503    0  0.13715636038E+03 -0.97908153613E+02 -0.30598652754E+03  0.34932166948E+03  0.00000000000E+00 0. -1.
         -4    1    6    6    0  503  0.39002832911E+03 -0.17901316173E+03 -0.55743430753E+03  0.70349187400E+03  0.00000000000E+00 0.  1.
<mgrwt>
<rscale>  0 0.13240422E+04</rscale>
<asrwt>0</asrwt>
<pdfrwt beam="1">  1        2 0.32462260E+00 0.13240422E+04</pdfrwt>
<pdfrwt beam="2">  1       -3 0.31954952E-01 0.13240422E+04</pdfrwt>
<totfact> 0.35343609E+01</totfact>
</mgrwt>
</event>
<event>
12    6  0.1627636E-007  0.2021148E+04  0.7818608E-02  0.8596797E-01
         -1   -1    0    0    0  501 -0.00000000000E+00  0.00000000000E+00  0.86605871728E+03  0.86605871728E+03  0.00000000000E+00 0.  1.
          2   -1    0    0  501    0  0.00000000000E+00 -0.00000000000E+00 -0.11792035819E+04  0.11792035819E+04  0.00000000000E+00 0. -1.
         24    2    1    2    0    0  0.12333936912E+03 -0.77145552677E+03 -0.34253951266E+03  0.85887140119E+03  0.99852572705E+02 0.  0.
        254    2    1    2    0    0 -0.12333936912E+03  0.77145552677E+03  0.29394648057E+02  0.11863908980E+04  0.89235816111E+03 0.  0.
         23    2    4    4    0    0  0.31291431588E+03  0.38765784745E+03  0.24108540809E+03  0.56128597972E+03  0.93411997399E+02 0.  0.
         23    2    4    4    0    0 -0.43625368500E+03  0.38379767932E+03 -0.21169076004E+03  0.62510491826E+03  0.91242778474E+02 0.  0.
          2    1    3    3  502    0  0.73830531387E+02 -0.67535367833E+03 -0.30076276949E+03  0.74297495363E+03  0.00000000000E+00 0. -1.
         -1    1    3    3    0  502  0.49508837729E+02 -0.96101848439E+02 -0.41776743171E+02  0.11589644756E+03  0.00000000000E+00 0.  1.
         11    1    5    5    0    0  0.15469464009E+02  0.41019393176E+02 -0.19654340174E+01  0.43883457750E+02  0.00000000000E+00 0. -1.
        -11    1    5    5    0    0  0.29744485187E+03  0.34663845428E+03  0.24305084211E+03  0.51740252197E+03  0.00000000000E+00 0.  1.
          2    1    6    6  503    0 -0.50075623033E+02  0.85919378984E+02 -0.49834880341E+02  0.11123499002E+03  0.00000000000E+00 0. -1.
         -2    1    6    6    0  503 -0.38617806196E+03  0.29787830034E+03 -0.16185587969E+03  0.51386992823E+03  0.00000000000E+00 0.  1.
<mgrwt>
<rscale>  0 0.20211477E+04</rscale>
<asrwt>0</asrwt>
<pdfrwt beam="1">  1        2 0.18141594E+00 0.20211477E+04</pdfrwt>
<pdfrwt beam="2">  1       -1 0.13323980E+00 0.20211477E+04</pdfrwt>
<totfact> 0.98211167E+00</totfact>
</mgrwt>
</event>
<event>
12    6  0.1627636E-007  0.1569118E+04  0.7818608E-02  0.8839748E-01
          2   -1    0    0  501    0  0.00000000000E+00  0.00000000000E+00  0.18303557443E+04  0.18303557443E+04  0.00000000000E+00 0. -1.
         -1   -1    0    0    0  501 -0.00000000000E+00 -0.00000000000E+00 -0.33629135029E+03  0.33629135029E+03  0.00000000000E+00 0.  1.
         24    2    1    2    0    0 -0.44140630995E+03  0.26643738656E+03  0.28804644892E+03  0.59575182193E+03  0.78237236521E+02 0.  0.
        254    2    1    2    0    0  0.44140630995E+03 -0.26643738656E+03  0.12060179451E+04  0.15708952727E+04  0.86452545502E+03 0.  0.
         23    2    4    4    0    0  0.15657768381E+03 -0.46635858971E+03  0.10755352122E+04  0.11861694915E+04  0.90637544714E+02 0.  0.
         23    2    4    4    0    0  0.28482862614E+03  0.19992120315E+03  0.13048273291E+03  0.38472578122E+03  0.99460290629E+02 0.  0.
          4    1    3    3  502    0 -0.42444482593E+03  0.26181021643E+03  0.29177316339E+03  0.57777987033E+03  0.00000000000E+00 0. -1.
         -3    1    3    3    0  502 -0.16961484014E+02  0.46271701280E+01 -0.37267144709E+01  0.17971951594E+02  0.00000000000E+00 0.  1.
         11    1    5    5    0    0  0.14988706275E+03 -0.31871632946E+03  0.77369824834E+03  0.85009129493E+03  0.00000000000E+00 0.  1.
        -11    1    5    5    0    0  0.66906210567E+01 -0.14764226025E+03  0.30183696388E+03  0.33607819653E+03  0.00000000000E+00 0. -1.
          3    1    6    6  503    0  0.13443275783E+03  0.85249240336E+02  0.11212925352E+03  0.19471150159E+03  0.00000000000E+00 0. -1.
         -3    1    6    6    0  503  0.15039586831E+03  0.11467196281E+03  0.18353479396E+02  0.19001427964E+03  0.00000000000E+00 0.  1.
<mgrwt>
<rscale>  0 0.15691180E+04</rscale>
<asrwt>0</asrwt>
<pdfrwt beam="1">  1        2 0.28159319E+00 0.15691180E+04</pdfrwt>
<pdfrwt beam="2">  1       -1 0.51737132E-01 0.15691180E+04</pdfrwt>
<totfact> 0.34172669E+01</totfact>
</mgrwt>
</event>
<event>
12    6  0.1627636E-007  0.1363141E+04  0.7818608E-02  0.8980940E-01
          2   -1    0    0  501    0  0.00000000000E+00  0.00000000000E+00  0.72254625803E+03  0.72254625803E+03  0.00000000000E+00 0. -1.
         -1   -1    0    0    0  501 -0.00000000000E+00 -0.00000000000E+00 -0.64291812295E+03  0.64291812295E+03  0.00000000000E+00 0.  1.
         24    2    1    2    0    0 -0.11995931885E+03 -0.97546078893E+02  0.36775501758E+03  0.40630339413E+03  0.77027394069E+02 0.  0.
        254    2    1    2    0    0  0.11995931885E+03  0.97546078893E+02 -0.28812688250E+03  0.95916098684E+03  0.90170240244E+03 0.  0.
         23    2    4    4    0    0  0.15626963183E+03  0.21892683253E+03  0.26242402368E+03  0.38684990313E+03  0.91854904661E+02 0.  0.
         23    2    4    4    0    0 -0.36310312977E+02 -0.12138075364E+03 -0.55055090619E+03  0.57231108371E+03  0.91552990399E+02 0.  0.
          2    1    3    3  502    0 -0.12844758939E+03 -0.92866247855E+02  0.36162152845E+03  0.39483294322E+03  0.00000000000E+00 0. -1.
         -1    1    3    3    0  502  0.84882705357E+01 -0.46798310377E+01  0.61334891344E+01  0.11470450915E+02  0.00000000000E+00 0.  1.
         11    1    5    5    0    0  0.93175815765E+00  0.90116348448E+01  0.48313023002E+02  0.49155121071E+02  0.00000000000E+00 0. -1.
        -11    1    5    5    0    0  0.15533787367E+03  0.20991519769E+03  0.21411100068E+03  0.33769478206E+03  0.00000000000E+00 0.  1.
          3    1    6    6  503    0  0.24907571292E+02 -0.79951812254E+01 -0.68185851753E+02  0.73031639786E+02  0.00000000000E+00 0. -1.
         -3    1    6    6    0  503 -0.61217884269E+02 -0.11338557242E+03 -0.48236505443E+03  0.49927944392E+03  0.00000000000E+00 0.  1.
<mgrwt>
<rscale>  0 0.13631406E+04</rscale>
<asrwt>0</asrwt>
<pdfrwt beam="1">  1        2 0.11116096E+00 0.13631406E+04</pdfrwt>
<pdfrwt beam="2">  1       -1 0.98910480E-01 0.13631406E+04</pdfrwt>
<totfact> 0.42880073E+01</totfact>
</mgrwt>
</event>
<event>
12    6  0.1627636E-007  0.1556261E+04  0.7818608E-02  0.8847878E-01
          2   -1    0    0  501    0  0.00000000000E+00  0.00000000000E+00  0.16308875685E+04  0.16308875685E+04  0.00000000000E+00 0. -1.
         -1   -1    0    0    0  501 -0.00000000000E+00 -0.00000000000E+00 -0.37126229106E+03  0.37126229106E+03  0.00000000000E+00 0.  1.
         24    2    1    2    0    0  0.27095062908E+01 -0.23583087473E+03 -0.13790759423E+03  0.28453444115E+03  0.79484594445E+02 0.  0.
        254    2    1    2    0    0 -0.27095062908E+01  0.23583087473E+03  0.13975328717E+04  0.17176154184E+04  0.97029946680E+03 0.  0.
         23    2    4    4    0    0  0.32016342890E+03 -0.20706825976E+03  0.32686612106E+03  0.51118670687E+03  0.95333639266E+02 0.  0.
         23    2    4    4    0    0 -0.32287293520E+03  0.44289913450E+03  0.10706667506E+04  0.12064287116E+04  0.93468548431E+02 0.  0.
          4    1    3    3  502    0  0.37769134048E+02 -0.72103092078E+02 -0.47641025589E+02  0.94313470369E+02  0.00000000000E+00 0. -1.
         -3    1    3    3    0  502 -0.35059627757E+02 -0.16372778266E+03 -0.90266568638E+02  0.19022097078E+03  0.00000000000E+00 0.  1.
         11    1    5    5    0    0  0.17360508406E+02  0.59404916376E+01  0.35877995582E+02  0.40297732691E+02  0.00000000000E+00 0. -1.
        -11    1    5    5    0    0  0.30280292050E+03 -0.21300875140E+03  0.29098812547E+03  0.47088897418E+03  0.00000000000E+00 0.  1.
          4    1    6    6  503    0 -0.26373028881E+02  0.79033846538E+02  0.11850867018E+03  0.14486611218E+03  0.00000000000E+00 0. -1.
         -4    1    6    6    0  503 -0.29649990631E+03  0.36386528796E+03  0.95215808045E+03  0.10615625994E+04  0.00000000000E+00 0.  1.
<mgrwt>
<rscale>  0 0.15562610E+04</rscale>
<asrwt>0</asrwt>
<pdfrwt beam="1">  1        2 0.25090578E+00 0.15562610E+04</pdfrwt>
<pdfrwt beam="2">  1       -1 0.57117276E-01 0.15562610E+04</pdfrwt>
<totfact> 0.36458166E+01</totfact>
</mgrwt>
</event>
<event>
12    6  0.1627636E-007  0.2283888E+04  0.7818608E-02  0.8484301E-01
          2   -1    0    0  501    0  0.00000000000E+00  0.00000000000E+00  0.12696066990E+04  0.12696066990E+04  0.00000000000E+00 0. -1.
         -1   -1    0    0    0  501 -0.00000000000E+00 -0.00000000000E+00 -0.10271185597E+04  0.10271185597E+04  0.00000000000E+00 0.  1.
         24    2    1    2    0    0  0.76433416726E+03 -0.30027959476E+03  0.46650031162E+03  0.94768930606E+03  0.78217170899E+02 0.  0.
        254    2    1    2    0    0 -0.76433416726E+03  0.30027959476E+03 -0.22401217231E+03  0.13490359526E+04  0.10465858750E+04 0.  0.
         23    2    4    4    0    0 -0.19740946597E+03  0.61329819992E+03  0.20407610443E+02  0.65096133305E+03  0.90713875902E+02 0.  0.
         23    2    4    4    0    0 -0.56692470129E+03 -0.31301860516E+03 -0.24441978275E+03  0.69807461956E+03  0.90459273518E+02 0.  0.
          2    1    3    3  502    0  0.66275708203E+03 -0.26019748164E+03  0.37225803656E+03  0.80344615564E+03  0.00000000000E+00 0. -1.
         -1    1    3    3    0  502  0.10157708522E+03 -0.40082113122E+02  0.94242275061E+02  0.14424315042E+03  0.00000000000E+00 0.  1.
         11    1    5    5    0    0 -0.12397855254E+03  0.25697383869E+03  0.30987390484E+02  0.28699556378E+03  0.00000000000E+00 0. -1.
        -11    1    5    5    0    0 -0.73430913432E+02  0.35632436123E+03 -0.10579780040E+02  0.36396576927E+03  0.00000000000E+00 0.  1.
          1    1    6    6  503    0 -0.56666610899E+03 -0.30770008084E+03 -0.23326314437E+03  0.68571241300E+03  0.00000000000E+00 0. -1.
         -1    1    6    6    0  503 -0.25859229986E+00 -0.53185243201E+01 -0.11156638385E+02  0.12362206557E+02  0.00000000000E+00 0.  1.
<mgrwt>
<rscale>  0 0.22838884E+04</rscale>
<asrwt>0</asrwt>
<pdfrwt beam="1">  1        2 0.19532411E+00 0.22838884E+04</pdfrwt>
<pdfrwt beam="2">  1       -1 0.15801824E+00 0.22838884E+04</pdfrwt>
<totfact> 0.53920608E+00</totfact>
</mgrwt>
</event>
<event>
12    6  0.1627636E-007  0.2772876E+04  0.7818608E-02  0.8311739E-01
          2   -1    0    0  501    0  0.00000000000E+00  0.00000000000E+00  0.27856772049E+04  0.27856772049E+04  0.00000000000E+00 0. -1.
         -1   -1    0    0    0  501 -0.00000000000E+00 -0.00000000000E+00 -0.69003325952E+03  0.69003325952E+03  0.00000000000E+00 0.  1.
         24    2    1    2    0    0  0.85897302363E+03  0.38505339226E+03 -0.73368117034E+02  0.94767979430E+03  0.81322455124E+02 0.  0.
        254    2    1    2    0    0 -0.85897302363E+03 -0.38505339226E+03  0.21690120624E+04  0.25280306702E+04  0.89455294534E+03 0.  0.
         23    2    4    4    0    0 -0.53450288410E+02  0.32822904488E+02  0.11701474424E+04  0.11753693812E+04  0.91180419527E+02 0.  0.
         23    2    4    4    0    0 -0.80552273522E+03 -0.41787629675E+03  0.99886462001E+03  0.13526612889E+04  0.92057357765E+02 0.  0.
          2    1    3    3  502    0  0.40854266197E+02  0.17500655551E+01 -0.93995491712E+01  0.41958137715E+02  0.00000000000E+00 0. -1.
         -1    1    3    3    0  502  0.81811875743E+03  0.38330332670E+03 -0.63968567863E+02  0.90572165658E+03  0.00000000000E+00 0.  1.
         11    1    5    5    0    0  0.90715956919E+01  0.37132275890E+02  0.23171335282E+03  0.23484500769E+03  0.00000000000E+00 0. -1.
        -11    1    5    5    0    0 -0.62521884102E+02 -0.43093714018E+01  0.93843408962E+03  0.94052437354E+03  0.00000000000E+00 0.  1.
          3    1    6    6  503    0 -0.37585007322E+03 -0.16471862064E+03  0.50625603941E+03  0.65168295893E+03  0.00000000000E+00 0. -1.
         -3    1    6    6    0  503 -0.42967266200E+03 -0.25315767611E+03  0.49260858060E+03  0.70097833000E+03  0.00000000000E+00 0.  1.
<mgrwt>
<rscale>  0 0.27728757E+04</rscale>
<asrwt>0</asrwt>
<pdfrwt beam="1">  1        2 0.42856572E+00 0.27728757E+04</pdfrwt>
<pdfrwt beam="2">  1       -1 0.10615896E+00 0.27728757E+04</pdfrwt>
<totfact> 0.19397583E+00</totfact>
</mgrwt>
</event>
<event>
12    6  0.1627636E-007  0.1273586E+04  0.7818608E-02  0.9050778E-01
          2   -1    0    0  501    0  0.00000000000E+00  0.00000000000E+00  0.14428905067E+04  0.14428905067E+04  0.00000000000E+00 0. -1.
         -1   -1    0    0    0  501 -0.00000000000E+00 -0.00000000000E+00 -0.28103662630E+03  0.28103662630E+03  0.00000000000E+00 0.  1.
         24    2    1    2    0    0 -0.36213889255E+02 -0.23679045522E+03  0.58529813758E+03  0.63733849010E+03  0.79027056365E+02 0.  0.
        254    2    1    2    0    0  0.36213889255E+02  0.23679045522E+03  0.57655574282E+03  0.10865886429E+04  0.88931276212E+03 0.  0.
         23    2    4    4    0    0 -0.35131924533E+03  0.17175796757E+02  0.51052855872E+03  0.62655886325E+03  0.90644248100E+02 0.  0.
         23    2    4    4    0    0  0.38753313459E+03  0.21961465847E+03  0.66027184098E+02  0.46002977966E+03  0.94102500088E+02 0.  0.
          2    1    3    3  502    0  0.12843812816E+02 -0.16329564179E+03  0.38775845115E+03  0.42093591744E+03  0.00000000000E+00 0. -1.
         -1    1    3    3    0  502 -0.49057702071E+02 -0.73494813433E+02  0.19753968644E+03  0.21640257266E+03  0.00000000000E+00 0.  1.
         11    1    5    5    0    0 -0.10501924100E+03  0.44127562757E+02  0.18844614000E+03  0.22020043246E+03  0.00000000000E+00 0.  1.
        -11    1    5    5    0    0 -0.24630000433E+03 -0.26951766000E+02  0.32208241872E+03  0.40635843079E+03  0.00000000000E+00 0. -1.
          2    1    6    6  503    0  0.32753634107E+03  0.14465892622E+03  0.65599004342E+02  0.36401852841E+03  0.00000000000E+00 0. -1.
         -2    1    6    6    0  503  0.59996793511E+02  0.74955732248E+02  0.42817975626E+00  0.96011251249E+02  0.00000000000E+00 0.  1.
<mgrwt>
<rscale>  0 0.12735856E+04</rscale>
<asrwt>0</asrwt>
<pdfrwt beam="1">  1        2 0.22198315E+00 0.12735856E+04</pdfrwt>
<pdfrwt beam="2">  1       -1 0.43236405E-01 0.12735856E+04</pdfrwt>
<totfact> 0.80719492E+01</totfact>
</mgrwt>
</event>
<event>
12    6  0.1627636E-007  0.2563030E+04  0.7818608E-02  0.8380868E-01
         -1   -1    0    0    0  501 -0.00000000000E+00  0.00000000000E+00  0.61286977226E+03  0.61286977226E+03  0.00000000000E+00 0.  1.
          2   -1    0    0  501    0  0.00000000000E+00 -0.00000000000E+00 -0.26796578392E+04  0.26796578392E+04  0.00000000000E+00 0. -1.
         24    2    1    2    0    0  0.75008724328E+03  0.69953771538E+03 -0.14793739147E+04  0.18019210757E+04  0.79928065547E+02 0.  0.
        254    2    1    2    0    0 -0.75008724328E+03 -0.69953771538E+03 -0.58741415222E+03  0.14906065358E+04  0.90822275382E+03 0.  0.
         23    2    4    4    0    0  0.17012669273E+03 -0.30458367694E+03 -0.10327215875E+03  0.37441512791E+03  0.88358595499E+02 0.  0.
         23    2    4    4    0    0 -0.92021393601E+03 -0.39495403844E+03 -0.48414199347E+03  0.11161914079E+04  0.93313496858E+02 0.  0.
          4    1    3    3  502    0  0.70844200977E+03  0.66669066647E+03 -0.14295069536E+04  0.17291201972E+04  0.00000000000E+00 0. -1.
         -3    1    3    3    0  502  0.41645233507E+02  0.32847048906E+02 -0.49866961087E+02  0.72800878455E+02  0.00000000000E+00 0.  1.
         11    1    5    5    0    0  0.17432954240E+03 -0.30366703567E+03 -0.10947732422E+03  0.36686474678E+03  0.00000000000E+00 0. -1.
        -11    1    5    5    0    0 -0.42028496777E+01 -0.91664126160E+00  0.62051654736E+01  0.75503811275E+01  0.00000000000E+00 0.  1.
          2    1    6    6  503    0 -0.58178922123E+03 -0.29769117851E+03 -0.32117873420E+03  0.72818576957E+03  0.00000000000E+00 0. -1.
         -2    1    6    6    0  503 -0.33842471477E+03 -0.97262859935E+02 -0.16296325927E+03  0.38800563832E+03  0.00000000000E+00 0.  1.
<mgrwt>
<rscale>  0 0.25630305E+04</rscale>
<asrwt>0</asrwt>
<pdfrwt beam="1">  1        2 0.41225505E+00 0.25630305E+04</pdfrwt>
<pdfrwt beam="2">  1       -1 0.94287658E-01 0.25630305E+04</pdfrwt>
<totfact> 0.29997355E+00</totfact>
</mgrwt>
</event>
<event>
12    6  0.1627636E-007  0.1430154E+04  0.7818608E-02  0.8932276E-01
         -1   -1    0    0    0  501 -0.00000000000E+00  0.00000000000E+00  0.49950537273E+03  0.49950537273E+03  0.00000000000E+00 0.  1.
          2   -1    0    0  501    0  0.00000000000E+00 -0.00000000000E+00 -0.10236829189E+04  0.10236829189E+04  0.00000000000E+00 0. -1.
         24    2    1    2    0    0 -0.54272674597E+02  0.43189256208E+02 -0.61538546370E+03  0.62465274895E+03  0.81737095510E+02 0.  0.
        254    2    1    2    0    0  0.54272674597E+02 -0.43189256208E+02  0.91207917543E+02  0.89853554266E+03  0.89119941772E+03 0.  0.
         23    2    4    4    0    0 -0.15702575026E+03 -0.41006403949E+03  0.11889478630E+03  0.46372896375E+03  0.89994326955E+02 0.  0.
         23    2    4    4    0    0  0.21129842485E+03  0.36687478329E+03 -0.27686868762E+02  0.43480657891E+03  0.95110816448E+02 0.  0.
          2    1    3    3  502    0 -0.47643830822E+02  0.58912836866E+02 -0.32290667670E+03  0.33167661784E+03  0.00000000000E+00 0. -1.
         -1    1    3    3    0  502 -0.66288437746E+01 -0.15723580659E+02 -0.29247878700E+03  0.29297613111E+03  0.00000000000E+00 0.  1.
         11    1    5    5    0    0 -0.23435660691E+02 -0.16779347578E+03  0.23294014275E+02  0.17101605717E+03  0.00000000000E+00 0. -1.
        -11    1    5    5    0    0 -0.13359008956E+03 -0.24227056371E+03  0.95600772029E+02  0.29271290659E+03  0.00000000000E+00 0.  1.
          3    1    6    6  503    0  0.51876182831E+02  0.18328228335E+03 -0.42441246411E+01  0.19052964686E+03  0.00000000000E+00 0. -1.
         -3    1    6    6    0  503  0.15942224202E+03  0.18359249993E+03 -0.23442744120E+02  0.24427693205E+03  0.00000000000E+00 0.  1.
<mgrwt>
<rscale>  0 0.14301540E+04</rscale>
<asrwt>0</asrwt>
<pdfrwt beam="1">  1        2 0.15748968E+00 0.14301540E+04</pdfrwt>
<pdfrwt beam="2">  1       -1 0.76846980E-01 0.14301540E+04</pdfrwt>
<totfact> 0.45791266E+01</totfact>
</mgrwt>
</event>
<event>
12    6  0.1627636E-007  0.1772681E+04  0.7818608E-02  0.8720964E-01
         -1   -1    0    0    0  501 -0.00000000000E+00  0.00000000000E+00  0.20451725839E+04  0.20451725839E+04  0.00000000000E+00 0.  1.
          2   -1    0    0  501    0  0.00000000000E+00 -0.00000000000E+00 -0.38412377888E+03  0.38412377888E+03  0.00000000000E+00 0. -1.
         24    2    1    2    0    0 -0.38215303853E+03 -0.52878101799E+03  0.56588998668E+03  0.86730197420E+03  0.79567126213E+02 0.  0.
        254    2    1    2    0    0  0.38215303853E+03  0.52878101799E+03  0.10951588183E+04  0.15619943885E+04  0.90266456821E+03 0.  0.
         23    2    4    4    0    0  0.32305449699E+03 -0.18602200943E+03  0.47067087146E+03  0.60667914917E+03  0.86948978006E+02 0.  0.
         23    2    4    4    0    0  0.59098541540E+02  0.71480302742E+03  0.62448794683E+03  0.95531523937E+03  0.90587003571E+02 0.  0.
          2    1    3    3  502    0 -0.20803281156E+03 -0.24055855594E+03  0.23727623333E+03  0.39679475857E+03  0.00000000000E+00 0. -1.
         -1    1    3    3    0  502 -0.17412022698E+03 -0.28822246205E+03  0.32861375335E+03  0.47050721563E+03  0.00000000000E+00 0.  1.
         11    1    5    5    0    0  0.61953644976E+02 -0.18053300474E+02  0.13389689833E+03  0.14863564568E+03  0.00000000000E+00 0. -1.
        -11    1    5    5    0    0  0.26110085202E+03 -0.16796870895E+03  0.33677397313E+03  0.45804350349E+03  0.00000000000E+00 0.  1.
          1    1    6    6  503    0  0.44753448987E+02  0.12463572555E+03  0.12255535155E+03  0.18043488984E+03  0.00000000000E+00 0. -1.
         -1    1    6    6    0  503  0.14345092554E+02  0.59016730187E+03  0.50193259529E+03  0.77488034953E+03  0.00000000000E+00 0.  1.
<mgrwt>
<rscale>  0 0.17726809E+04</rscale>
<asrwt>0</asrwt>
<pdfrwt beam="1">  1        2 0.59095967E-01 0.17726809E+04</pdfrwt>
<pdfrwt beam="2">  1       -1 0.31464193E+00 0.17726809E+04</pdfrwt>
<totfact> 0.23928296E+00</totfact>
</mgrwt>
</event>
<event>
12    6  0.1627636E-007  0.1834623E+04  0.7818608E-02  0.8688101E-01
         -1   -1    0    0    0  501 -0.00000000000E+00  0.00000000000E+00  0.10129357055E+04  0.10129357055E+04  0.00000000000E+00 0.  1.
          2   -1    0    0  501    0  0.00000000000E+00 -0.00000000000E+00 -0.83071474914E+03  0.83071474914E+03  0.00000000000E+00 0. -1.
         24    2    1    2    0    0  0.17287481953E+03 -0.13650690096E+03  0.72758094385E+03  0.76422194867E+03  0.78366572895E+02 0.  0.
        254    2    1    2    0    0 -0.17287481953E+03  0.13650690096E+03 -0.54535998753E+03  0.10794285059E+04  0.90511244946E+03 0.  0.
         23    2    4    4    0    0  0.29709286816E+03 -0.14741159174E+03 -0.34820480365E+03  0.48931196063E+03  0.90472425896E+02 0.  0.
         23    2    4    4    0    0 -0.46996768768E+03  0.28391849270E+03 -0.19715518388E+03  0.59011654529E+03  0.88814596361E+02 0.  0.
          2    1    3    3  502    0 -0.77123309899E+01 -0.82526344451E+01  0.22627214942E+02  0.25289857268E+02  0.00000000000E+00 0. -1.
         -1    1    3    3    0  502  0.18058715052E+03 -0.12825426652E+03  0.70495372891E+03  0.73893209141E+03  0.00000000000E+00 0.  1.
         11    1    5    5    0    0  0.33030032019E+01 -0.74697022879E+01 -0.40965651733E+02  0.41771891319E+02  0.00000000000E+00 0.  1.
        -11    1    5    5    0    0  0.29378986496E+03 -0.13994188945E+03 -0.30723915191E+03  0.44754006931E+03  0.00000000000E+00 0. -1.
          3    1    6    6  503    0 -0.46318532342E+03  0.27505013367E+03 -0.20509397942E+03  0.57641717554E+03  0.00000000000E+00 0. -1.
         -3    1    6    6    0  503 -0.67823642696E+01  0.88683590238E+01  0.79387955405E+01  0.13699369748E+02  0.00000000000E+00 0.  1.
<mgrwt>
<rscale>  0 0.18346233E+04</rscale>
<asrwt>0</asrwt>
<pdfrwt beam="1">  1        2 0.12780227E+00 0.18346233E+04</pdfrwt>
<pdfrwt beam="2">  1       -1 0.15583626E+00 0.18346233E+04</pdfrwt>
<totfact> 0.11064269E+01</totfact>
</mgrwt>
</event>
<event>
12    6  0.1627636E-007  0.1217572E+04  0.7818608E-02  0.9097613E-01
         -1   -1    0    0    0  501 -0.00000000000E+00  0.00000000000E+00  0.13400872420E+04  0.13400872420E+04  0.00000000000E+00 0.  1.
          2   -1    0    0  501    0  0.00000000000E+00 -0.00000000000E+00 -0.27656440053E+03  0.27656440053E+03  0.00000000000E+00 0. -1.
         24    2    1    2    0    0  0.23014607855E+03 -0.98936612902E+02  0.20286461467E+03  0.33253405287E+03  0.81665008351E+02 0.  0.
        254    2    1    2    0    0 -0.23014607855E+03  0.98936612902E+02  0.86065822677E+03  0.12841175896E+04  0.91949427940E+03 0.  0.
         23    2    4    4    0    0 -0.36783155186E+03  0.19738548228E+03  0.97257225610E+03  0.10622254490E+04  0.90360566803E+02 0.  0.
         23    2    4    4    0    0  0.13768547331E+03 -0.98448869383E+02 -0.11191402933E+03  0.22189214062E+03  0.89788098672E+02 0.  0.
          4    1    3    3  502    0  0.15735421638E+03 -0.93221533866E+02  0.10654032199E+03  0.21166351598E+03  0.00000000000E+00 0. -1.
         -3    1    3    3    0  502  0.72791862166E+02 -0.57150790353E+01  0.96324292684E+02  0.12087053689E+03  0.00000000000E+00 0.  1.
         11    1    5    5    0    0 -0.61376621157E+02  0.70880573173E+02  0.17610107174E+03  0.19950622233E+03  0.00000000000E+00 0. -1.
        -11    1    5    5    0    0 -0.30645493070E+03  0.12650490911E+03  0.79647118436E+03  0.86271922668E+03  0.00000000000E+00 0.  1.
          2    1    6    6  503    0  0.13765089486E+03 -0.83307065470E+02 -0.66637020924E+02  0.17415030454E+03  0.00000000000E+00 0. -1.
         -2    1    6    6    0  503  0.34578443482E-01 -0.15141803913E+02 -0.45277008408E+02  0.47741836075E+02  0.00000000000E+00 0.  1.
<mgrwt>
<rscale>  0 0.12175721E+04</rscale>
<asrwt>0</asrwt>
<pdfrwt beam="1">  1        2 0.42548370E-01 0.12175721E+04</pdfrwt>
<pdfrwt beam="2">  1       -1 0.20616726E+00 0.12175721E+04</pdfrwt>
<totfact> 0.18548042E+01</totfact>
</mgrwt>
</event>
<event>
12    6  0.1627636E-007  0.2297553E+04  0.7818608E-02  0.8478886E-01
          2   -1    0    0  501    0  0.00000000000E+00  0.00000000000E+00  0.16076550842E+04  0.16076550842E+04  0.00000000000E+00 0. -1.
         -1   -1    0    0    0  501 -0.00000000000E+00 -0.00000000000E+00 -0.82087742848E+03  0.82087742848E+03  0.00000000000E+00 0.  1.
         24    2    1    2    0    0  0.22418458189E+03  0.78959499739E+03  0.88779631450E+03  0.12119675286E+04  0.83450630176E+02 0.  0.
        254    2    1    2    0    0 -0.22418458189E+03 -0.78959499739E+03 -0.10101865880E+03  0.12165649841E+04  0.89224806211E+03 0.  0.
         23    2    4    4    0    0  0.31506484841E+03 -0.43456012708E+03  0.50764425616E+02  0.54691469337E+03  0.91816622510E+02 0.  0.
         23    2    4    4    0    0 -0.53924943030E+03 -0.35503487032E+03 -0.15178308442E+03  0.66965029068E+03  0.92486214520E+02 0.  0.
          2    1    3    3  502    0  0.22202457616E+03  0.78983279858E+03  0.88879023149E+03  0.12095779585E+04  0.00000000000E+00 0. -1.
         -1    1    3    3    0  502  0.21600057310E+01 -0.23780119001E+00 -0.99391699746E+00  0.23895700788E+01  0.00000000000E+00 0.  1.
         11    1    5    5    0    0  0.59929377337E+02 -0.39474684284E+02 -0.10898057713E+02  0.72584768576E+02  0.00000000000E+00 0.  1.
        -11    1    5    5    0    0  0.25513547107E+03 -0.39508544279E+03  0.61662483329E+02  0.47432992479E+03  0.00000000000E+00 0. -1.
          1    1    6    6  503    0 -0.33377013773E+03 -0.22360765688E+03 -0.48123735649E+02  0.40462177770E+03  0.00000000000E+00 0. -1.
         -1    1    6    6    0  503 -0.20547929257E+03 -0.13142721343E+03 -0.10365934877E+03  0.26502851298E+03  0.00000000000E+00 0.  1.
<mgrwt>
<rscale>  0 0.22975533E+04</rscale>
<asrwt>0</asrwt>
<pdfrwt beam="1">  1        2 0.24733155E+00 0.22975533E+04</pdfrwt>
<pdfrwt beam="2">  1       -1 0.12628883E+00 0.22975533E+04</pdfrwt>
<totfact> 0.62206565E+00</totfact>
</mgrwt>
</event>
<event>
12    6  0.1627636E-007  0.2662172E+04  0.7818608E-02  0.8347384E-01
          2   -1    0    0  501    0  0.00000000000E+00  0.00000000000E+00  0.32132384325E+04  0.32132384325E+04  0.00000000000E+00 0. -1.
         -1   -1    0    0    0  501 -0.00000000000E+00 -0.00000000000E+00 -0.55140309878E+03  0.55140309878E+03  0.00000000000E+00 0.  1.
         24    2    1    2    0    0 -0.37771372147E+03 -0.96975183337E+03  0.40136518993E+03  0.11184609309E+04  0.82307743506E+02 0.  0.
        254    2    1    2    0    0  0.37771372147E+03  0.96975183337E+03  0.22604701438E+04  0.26461806004E+04  0.89970007500E+03 0.  0.
         23    2    4    4    0    0  0.54716305795E+03  0.27819025093E+03  0.13525218601E+04  0.14884474899E+04  0.96867540370E+02 0.  0.
         23    2    4    4    0    0 -0.16944933648E+03  0.69156158244E+03  0.90794828371E+03  0.11577331105E+04  0.94896624147E+02 0.  0.
          2    1    3    3  502    0 -0.92097481901E+02 -0.20027960462E+03  0.52377945666E+02  0.22657739382E+03  0.00000000000E+00 0. -1.
         -1    1    3    3    0  502 -0.28561623957E+03 -0.76947222875E+03  0.34898724426E+03  0.89188353712E+03  0.00000000000E+00 0.  1.
         11    1    5    5    0    0  0.25446855207E+03  0.85846613981E+02  0.52004742670E+03  0.58529754070E+03  0.00000000000E+00 0.  1.
        -11    1    5    5    0    0  0.29269450588E+03  0.19234363695E+03  0.83247443339E+03  0.90314994918E+03  0.00000000000E+00 0. -1.
          1    1    6    6  503    0 -0.62186532408E+02  0.10576627654E+03  0.14840813817E+03  0.19255816146E+03  0.00000000000E+00 0. -1.
         -1    1    6    6    0  503 -0.10726280407E+03  0.58579530590E+03  0.75954014553E+03  0.96517494902E+03  0.00000000000E+00 0.  1.
<mgrwt>
<rscale>  0 0.26621718E+04</rscale>
<asrwt>0</asrwt>
<pdfrwt beam="1">  1        2 0.49434436E+00 0.26621718E+04</pdfrwt>
<pdfrwt beam="2">  1       -1 0.84831248E-01 0.26621718E+04</pdfrwt>
<totfact> 0.17485685E+00</totfact>
</mgrwt>
</event>
<event>
12    6  0.1627636E-007  0.2042791E+04  0.7818608E-02  0.8586872E-01
          2   -1    0    0  501    0  0.00000000000E+00  0.00000000000E+00  0.28168631620E+04  0.28168631620E+04  0.00000000000E+00 0. -1.
         -1   -1    0    0    0  501 -0.00000000000E+00 -0.00000000000E+00 -0.37035847477E+03  0.37035847477E+03  0.00000000000E+00 0.  1.
         24    2    1    2    0    0 -0.41829907872E+03  0.69970328979E+03  0.11228430568E+04  0.13898829404E+04  0.80244905030E+02 0.  0.
        254    2    1    2    0    0  0.41829907872E+03 -0.69970328979E+03  0.13236616304E+04  0.17973386963E+04  0.90210169307E+03 0.  0.
         23    2    4    4    0    0  0.21069651945E+03 -0.55413015246E+03  0.13952522929E+04  0.15186432741E+04  0.89973240727E+02 0.  0.
         23    2    4    4    0    0  0.20760255927E+03 -0.14557313733E+03 -0.71590662496E+02  0.27869542224E+03  0.90860081961E+02 0.  0.
          4    1    3    3  502    0 -0.34700767089E+03  0.62908553836E+03  0.99827093094E+03  0.12299218633E+04  0.00000000000E+00 0. -1.
         -3    1    3    3    0  502 -0.71291407829E+02  0.70617751425E+02  0.12457212591E+03  0.15996107714E+03  0.00000000000E+00 0.  1.
         11    1    5    5    0    0  0.13466648261E+03 -0.26695393584E+03  0.78242596026E+03  0.83760960399E+03  0.00000000000E+00 0. -1.
        -11    1    5    5    0    0  0.76030036841E+02 -0.28717621662E+03  0.61282633260E+03  0.68103367011E+03  0.00000000000E+00 0.  1.
          4    1    6    6  503    0  0.21577226144E+03 -0.13102598658E+03 -0.69825486580E+02  0.26191807219E+03  0.00000000000E+00 0. -1.
         -4    1    6    6    0  503 -0.81697021709E+01 -0.14547150753E+02 -0.17651759160E+01  0.16777350047E+02  0.00000000000E+00 0.  1.
<mgrwt>
<rscale>  0 0.20427914E+04</rscale>
<asrwt>0</asrwt>
<pdfrwt beam="1">  1        2 0.43336355E+00 0.20427914E+04</pdfrwt>
<pdfrwt beam="2">  1       -1 0.56978229E-01 0.20427914E+04</pdfrwt>
<totfact> 0.74324319E+00</totfact>
</mgrwt>
</event>
<event>
12    6  0.1627636E-007  0.2500340E+04  0.7818608E-02  0.8402865E-01
          2   -1    0    0  501    0  0.00000000000E+00  0.00000000000E+00  0.14190693766E+04  0.14190693766E+04  0.00000000000E+00 0. -1.
         -1   -1    0    0    0  501 -0.00000000000E+00 -0.00000000000E+00 -0.11013728573E+04  0.11013728573E+04  0.00000000000E+00 0.  1.
         24    2    1    2    0    0  0.74773022198E+03  0.40685779915E+03  0.81641611726E+03  0.11822477218E+04  0.80874258185E+02 0.  0.
        254    2    1    2    0    0 -0.74773022198E+03 -0.40685779915E+03 -0.49871959791E+03  0.13381945120E+04  0.90410705182E+03 0.  0.
         23    2    4    4    0    0 -0.71919113443E+03 -0.60477084812E+03 -0.19670009346E+03  0.96445520049E+03  0.92191324989E+02 0.  0.
         23    2    4    4    0    0 -0.28539087549E+02  0.19791304897E+03 -0.30201950445E+03  0.37373931156E+03  0.92093634226E+02 0.  0.
          2    1    3    3  502    0  0.71401838672E+03  0.38970234071E+03  0.75333379156E+03  0.11086938137E+04  0.00000000000E+00 0. -1.
         -1    1    3    3    0  502  0.33711835263E+02  0.17155458438E+02  0.63082325701E+02  0.73553908169E+02  0.00000000000E+00 0.  1.
         11    1    5    5    0    0 -0.42493359237E+03 -0.41323500281E+03 -0.11085310183E+03  0.60300923348E+03  0.00000000000E+00 0.  1.
        -11    1    5    5    0    0 -0.29425754206E+03 -0.19153584531E+03 -0.85846991629E+02  0.36144596701E+03  0.00000000000E+00 0. -1.
          1    1    6    6  503    0 -0.35023687260E+02  0.28767345662E+02 -0.10260856024E+03  0.11217279296E+03  0.00000000000E+00 0. -1.
         -1    1    6    6    0  503  0.64845997106E+01  0.16914570331E+03 -0.19941094421E+03  0.26156651860E+03  0.00000000000E+00 0.  1.
<mgrwt>
<rscale>  0 0.25003396E+04</rscale>
<asrwt>0</asrwt>
<pdfrwt beam="1">  1        2 0.21831836E+00 0.25003396E+04</pdfrwt>
<pdfrwt beam="2">  1       -1 0.16944198E+00 0.25003396E+04</pdfrwt>
<totfact> 0.35615740E+00</totfact>
</mgrwt>
</event>
<event>
12    6  0.1627636E-007  0.1856786E+04  0.7818608E-02  0.8676671E-01
          2   -1    0    0  501    0  0.00000000000E+00  0.00000000000E+00  0.68795726444E+03  0.68795726444E+03  0.00000000000E+00 0. -1.
         -1   -1    0    0    0  501 -0.00000000000E+00 -0.00000000000E+00 -0.12528585387E+04  0.12528585387E+04  0.00000000000E+00 0.  1.
         24    2    1    2    0    0  0.20797791627E+03  0.29159297336E+03  0.40459380148E+03  0.54623793327E+03  0.79990373037E+02 0.  0.
        254    2    1    2    0    0 -0.20797791627E+03 -0.29159297336E+03 -0.96949507570E+03  0.13945778698E+04  0.93629346758E+03 0.  0.
         23    2    4    4    0    0 -0.40318065512E+03 -0.51584994730E+03 -0.79999790010E+03  0.10375807903E+04  0.89002513113E+02 0.  0.
         23    2    4    4    0    0  0.19520273885E+03  0.22425697394E+03 -0.16949717560E+03  0.35699707958E+03  0.10159883206E+03 0.  0.
          2    1    3    3  502    0  0.15778668605E+03  0.26796458649E+03  0.33225846785E+03  0.45507949566E+03  0.00000000000E+00 0. -1.
         -1    1    3    3    0  502  0.50191230222E+02  0.23628386870E+02  0.72335333630E+02  0.91158437616E+02  0.00000000000E+00 0.  1.
         11    1    5    5    0    0 -0.81280114594E+02 -0.55613382999E+02 -0.10389682136E+03  0.14315674935E+03  0.00000000000E+00 0. -1.
        -11    1    5    5    0    0 -0.32190054053E+03 -0.46023656430E+03 -0.69610107874E+03  0.89442404090E+03  0.00000000000E+00 0.  1.
          2    1    6    6  503    0  0.64204877358E+02  0.44675843376E+02 -0.93899909355E+02  0.12221043423E+03  0.00000000000E+00 0. -1.
         -2    1    6    6    0  503  0.13099786149E+03  0.17958113056E+03 -0.75597266245E+02  0.23478664535E+03  0.00000000000E+00 0.  1.
<mgrwt>
<rscale>  0 0.18567855E+04</rscale>
<asrwt>0</asrwt>
<pdfrwt beam="1">  1        2 0.10583958E+00 0.18567855E+04</pdfrwt>
<pdfrwt beam="2">  1       -1 0.19274747E+00 0.18567855E+04</pdfrwt>
<totfact> 0.75958215E+00</totfact>
</mgrwt>
</event>
<event>
12    6  0.1627636E-007  0.1867799E+04  0.7818608E-02  0.8671053E-01
         -1   -1    0    0    0  501 -0.00000000000E+00  0.00000000000E+00  0.54792544629E+03  0.54792544629E+03  0.00000000000E+00 0.  1.
          2   -1    0    0  501    0  0.00000000000E+00 -0.00000000000E+00 -0.15917644788E+04  0.15917644788E+04  0.00000000000E+00 0. -1.
         24    2    1    2    0    0 -0.24740606528E+03  0.52069943373E+03 -0.88555948386E+03  0.10597007044E+04  0.80076975842E+02 0.  0.
        254    2    1    2    0    0  0.24740606528E+03 -0.52069943373E+03 -0.15827954866E+03  0.10799892207E+04  0.89943684594E+03 0.  0.
         23    2    4    4    0    0 -0.50268235737E+02 -0.69611582898E+03 -0.15926873540E+03  0.72189523566E+03  0.93070179507E+02 0.  0.
         23    2    4    4    0    0  0.29767430102E+03  0.17541639525E+03  0.98918674541E+00  0.35809398502E+03  0.94071368687E+02 0.  0.
          4    1    3    3  502    0 -0.21612268832E+03  0.49082955277E+03 -0.79040441558E+03  0.95517632218E+03  0.00000000000E+00 0. -1.
         -3    1    3    3    0  502 -0.31283376961E+02  0.29869880954E+02 -0.95155068284E+02  0.10452438224E+03  0.00000000000E+00 0.  1.
         11    1    5    5    0    0 -0.44751451061E+02 -0.69706710694E+03 -0.15772916029E+03  0.71608919273E+03  0.00000000000E+00 0.  1.
        -11    1    5    5    0    0 -0.55167846762E+01  0.95127795920E+00 -0.15395751090E+01  0.58060429240E+01  0.00000000000E+00 0. -1.
          3    1    6    6  503    0  0.11761709355E+03  0.12339351999E+03  0.64703350836E+01  0.17059193037E+03  0.00000000000E+00 0.  1.
         -3    1    6    6    0  503  0.18005720747E+03  0.52022875263E+02 -0.54811483381E+01  0.18750205465E+03  0.00000000000E+00 0. -1.
<mgrwt>
<rscale>  0 0.18677990E+04</rscale>
<asrwt>0</asrwt>
<pdfrwt beam="1">  1        2 0.24488684E+00 0.18677990E+04</pdfrwt>
<pdfrwt beam="2">  1       -1 0.84296224E-01 0.18677990E+04</pdfrwt>
<totfact> 0.16806895E+01</totfact>
</mgrwt>
</event>
<event>
12    6  0.1627636E-007  0.1412284E+04  0.7818608E-02  0.8944974E-01
          2   -1    0    0  501    0  0.00000000000E+00  0.00000000000E+00  0.61707419651E+03  0.61707419651E+03  0.00000000000E+00 0. -1.
         -1   -1    0    0    0  501 -0.00000000000E+00 -0.00000000000E+00 -0.80806595701E+03  0.80806595701E+03  0.00000000000E+00 0.  1.
         24    2    1    2    0    0  0.22185846079E+03 -0.23391934311E+02 -0.40260192078E+03  0.46723237276E+03  0.80308307972E+02 0.  0.
        254    2    1    2    0    0 -0.22185846079E+03  0.23391934311E+02  0.21161016027E+03  0.95790778075E+03  0.90721557376E+03 0.  0.
         23    2    4    4    0    0 -0.10744503346E+03 -0.42992663857E+03  0.52546901745E+02  0.45568739247E+03  0.92241384477E+02 0.  0.
         23    2    4    4    0    0 -0.11441342733E+03  0.45331857288E+03  0.15906325853E+03  0.50222038828E+03  0.91301902075E+02 0.  0.
          2    1    3    3  502    0  0.25301462760E+02 -0.27054182072E+02 -0.38368550977E+02  0.53331402470E+02  0.00000000000E+00 0. -1.
         -1    1    3    3    0  502  0.19655699803E+03  0.36622477607E+01 -0.36423336980E+03  0.41390097029E+03  0.00000000000E+00 0.  1.
         11    1    5    5    0    0  0.33675528452E+01 -0.15659105145E+03  0.33218273996E+02  0.16011106000E+03  0.00000000000E+00 0.  1.
        -11    1    5    5    0    0 -0.11081258630E+03 -0.27333558712E+03  0.19328627750E+02  0.29557633247E+03  0.00000000000E+00 0. -1.
          1    1    6    6  503    0 -0.86352627060E+01  0.17066422598E+03  0.27873215509E+02  0.17314087309E+03  0.00000000000E+00 0. -1.
         -1    1    6    6    0  503 -0.10577816463E+03  0.28265434690E+03  0.13119004302E+03  0.32907951519E+03  0.00000000000E+00 0.  1.
<mgrwt>
<rscale>  0 0.14122842E+04</rscale>
<asrwt>0</asrwt>
<pdfrwt beam="1">  1        2 0.94934492E-01 0.14122842E+04</pdfrwt>
<pdfrwt beam="2">  1       -1 0.12431784E+00 0.14122842E+04</pdfrwt>
<totfact> 0.30224644E+01</totfact>
</mgrwt>
</event>
<event>
12    6  0.1627636E-007  0.1949677E+04  0.7818608E-02  0.8630517E-01
          2   -1    0    0  501    0  0.00000000000E+00  0.00000000000E+00  0.77668939358E+03  0.77668939358E+03  0.00000000000E+00 0. -1.
         -1   -1    0    0    0  501 -0.00000000000E+00 -0.00000000000E+00 -0.12235389487E+04  0.12235389487E+04  0.00000000000E+00 0.  1.
         24    2    1    2    0    0  0.31393763317E+03  0.63247052553E+03 -0.47894023359E+03  0.85675466031E+03  0.77903770369E+02 0.  0.
        254    2    1    2    0    0 -0.31393763317E+03 -0.63247052553E+03  0.32090678491E+02  0.11434736819E+04  0.89884728763E+03 0.  0.
         23    2    4    4    0    0 -0.33958964483E+03 -0.61008654885E+03  0.36803702022E+03  0.79450263544E+03  0.90865095120E+02 0.  0.
         23    2    4    4    0    0  0.25652011662E+02 -0.22383976685E+02 -0.33594634173E+03  0.34897104650E+03  0.88100957198E+02 0.  0.
          4    1    3    3  502    0  0.22401260747E+03  0.40425862872E+03 -0.34921460755E+03  0.57927327690E+03  0.00000000000E+00 0. -1.
         -3    1    3    3    0  502  0.89925025696E+02  0.22821189681E+03 -0.12972562603E+03  0.27748138341E+03  0.00000000000E+00 0.  1.
         11    1    5    5    0    0 -0.15941903265E+03 -0.25610492793E+03  0.20723018658E+03  0.36598977077E+03  0.00000000000E+00 0. -1.
        -11    1    5    5    0    0 -0.18017061218E+03 -0.35398162092E+03  0.16080683364E+03  0.42851286467E+03  0.00000000000E+00 0.  1.
          4    1    6    6  503    0  0.53697937241E+02 -0.31785729041E+02 -0.26198847499E+03  0.26931721456E+03  0.00000000000E+00 0. -1.
         -4    1    6    6    0  503 -0.28045925579E+02  0.94017523561E+01 -0.73957866747E+02  0.79653831940E+02  0.00000000000E+00 0.  1.
<mgrwt>
<rscale>  0 0.19496766E+04</rscale>
<asrwt>0</asrwt>
<pdfrwt beam="1">  1        2 0.11949068E+00 0.19496766E+04</pdfrwt>
<pdfrwt beam="2">  1       -1 0.18823676E+00 0.19496766E+04</pdfrwt>
<totfact> 0.69344408E+00</totfact>
</mgrwt>
</event>
<event>
12    6  0.1627636E-007  0.2228557E+04  0.7818608E-02  0.8506635E-01
          2   -1    0    0  501    0  0.00000000000E+00  0.00000000000E+00  0.67250849636E+03  0.67250849636E+03  0.00000000000E+00 0. -1.
         -1   -1    0    0    0  501 -0.00000000000E+00 -0.00000000000E+00 -0.18462461374E+04  0.18462461374E+04  0.00000000000E+00 0.  1.
         24    2    1    2    0    0 -0.84429546527E+03  0.25310440923E+03 -0.75019335122E+03  0.11602499732E+04  0.80580776653E+02 0.  0.
        254    2    1    2    0    0  0.84429546527E+03 -0.25310440923E+03 -0.42354428985E+03  0.13585046605E+04  0.94299972034E+03 0.  0.
         23    2    4    4    0    0  0.99980477712E+03 -0.34376386204E+02 -0.36816828420E+03  0.10698033162E+04  0.90221514201E+02 0.  0.
         23    2    4    4    0    0 -0.15550931185E+03 -0.21872802302E+03 -0.55376005643E+02  0.28870134430E+03  0.90867321269E+02 0.  0.
          4    1    3    3  502    0 -0.82551651047E+03  0.25828737529E+03 -0.72667273349E+03  0.11297093161E+04  0.00000000000E+00 0. -1.
         -3    1    3    3    0  502 -0.18778954796E+02 -0.51829660597E+01 -0.23520617730E+02  0.30540657144E+02  0.00000000000E+00 0.  1.
         11    1    5    5    0    0  0.92669651771E+03 -0.94970213983E+01 -0.33083124368E+03  0.98402537627E+03  0.00000000000E+00 0. -1.
        -11    1    5    5    0    0  0.73108259409E+02 -0.24879364805E+02 -0.37337040519E+02  0.85777939948E+02  0.00000000000E+00 0.  1.
          2    1    6    6  503    0 -0.67037584725E+02 -0.16853487005E+03 -0.41217173239E+02  0.18600240740E+03  0.00000000000E+00 0. -1.
         -2    1    6    6    0  503 -0.88471727126E+02 -0.50193152968E+02 -0.14158832404E+02  0.10269893690E+03  0.00000000000E+00 0.  1.
<mgrwt>
<rscale>  0 0.22285567E+04</rscale>
<asrwt>0</asrwt>
<pdfrwt beam="1">  1        2 0.10346285E+00 0.22285567E+04</pdfrwt>
<pdfrwt beam="2">  1       -1 0.28403786E+00 0.22285567E+04</pdfrwt>
<totfact> 0.18799033E+00</totfact>
</mgrwt>
</event>
<event>
12    6  0.1627636E-007  0.1431317E+04  0.7818608E-02  0.8931457E-01
         -1   -1    0    0    0  501 -0.00000000000E+00  0.00000000000E+00  0.71597743743E+03  0.71597743743E+03  0.00000000000E+00 0.  1.
          2   -1    0    0  501    0  0.00000000000E+00 -0.00000000000E+00 -0.71533942695E+03  0.71533942695E+03  0.00000000000E+00 0. -1.
         24    2    1    2    0    0 -0.28655595548E+03  0.10873146259E+03 -0.29438233760E+03  0.43228341689E+03  0.79190562886E+02 0.  0.
        254    2    1    2    0    0  0.28655595548E+03 -0.10873146259E+03  0.29502034809E+03  0.99903344749E+03  0.90393250680E+03 0.  0.
         23    2    4    4    0    0  0.21827517234E+03  0.23815058808E+03 -0.19385660344E+03  0.38856951655E+03  0.95111161452E+02 0.  0.
         23    2    4    4    0    0  0.68280783138E+02 -0.34688205067E+03  0.48887695154E+03  0.61046393094E+03  0.93145664463E+02 0.  0.
          2    1    3    3  502    0 -0.26021147894E+03  0.96518400184E+02 -0.22573039698E+03  0.35774296285E+03  0.00000000000E+00 0. -1.
         -1    1    3    3    0  502 -0.26344476534E+02  0.12213062407E+02 -0.68651940628E+02  0.74540454045E+02  0.00000000000E+00 0.  1.
         11    1    5    5    0    0  0.84667820374E+02  0.12586178578E+03 -0.13867890461E+03  0.20552777796E+03  0.00000000000E+00 0. -1.
        -11    1    5    5    0    0  0.13360735196E+03  0.11228880230E+03 -0.55177698835E+02  0.18304173860E+03  0.00000000000E+00 0.  1.
          4    1    6    6  503    0  0.67394080601E+02 -0.20623767096E+03  0.35640245490E+03  0.41725130183E+03  0.00000000000E+00 0. -1.
         -4    1    6    6    0  503  0.88670253692E+00 -0.14064437972E+03  0.13247449664E+03  0.19321262911E+03  0.00000000000E+00 0.  1.
<mgrwt>
<rscale>  0 0.14313167E+04</rscale>
<asrwt>0</asrwt>
<pdfrwt beam="1">  1        2 0.11005222E+00 0.14313167E+04</pdfrwt>
<pdfrwt beam="2">  1       -1 0.11015038E+00 0.14313167E+04</pdfrwt>
<totfact> 0.33642197E+01</totfact>
</mgrwt>
</event>
<event>
12    6  0.1627636E-007  0.1305367E+04  0.7818608E-02  0.9025320E-01
         -1   -1    0    0    0  501 -0.00000000000E+00  0.00000000000E+00  0.22416371955E+03  0.22416371955E+03  0.00000000000E+00 0.  1.
          2   -1    0    0  501    0  0.00000000000E+00 -0.00000000000E+00 -0.19003768323E+04  0.19003768323E+04  0.00000000000E+00 0. -1.
         24    2    1    2    0    0  0.82610601034E+01  0.30177663762E+03 -0.64025040929E+03  0.71237145936E+03  0.80094477835E+02 0.  0.
        254    2    1    2    0    0 -0.82610601034E+01 -0.30177663762E+03 -0.10359627035E+04  0.14121690925E+04  0.91096950482E+03 0.  0.
         23    2    4    4    0    0  0.34521365692E+03  0.12961301831E+03 -0.29440112997E+03  0.48005846267E+03  0.88386078222E+02 0.  0.
         23    2    4    4    0    0 -0.35347471702E+03 -0.43138965593E+03 -0.74156157349E+03  0.93211062982E+03  0.88742594780E+02 0.  0.
          2    1    3    3  502    0  0.97520459232E+01  0.23981470261E+03 -0.57124096347E+03  0.61961474509E+03  0.00000000000E+00 0. -1.
         -1    1    3    3    0  502 -0.14909858199E+01  0.61961935010E+02 -0.69009445828E+02  0.92756714271E+02  0.00000000000E+00 0.  1.
         11    1    5    5    0    0  0.14163937043E+02  0.11706346537E+02  0.42688309370E+01  0.18864744350E+02  0.00000000000E+00 0. -1.
        -11    1    5    5    0    0  0.33104971987E+03  0.11790667177E+03 -0.29866996090E+03  0.46119371832E+03  0.00000000000E+00 0.  1.
          3    1    6    6  503    0 -0.50465044804E+02 -0.39629303394E+02 -0.13150643985E+03  0.14632548021E+03  0.00000000000E+00 0. -1.
         -3    1    6    6    0  503 -0.30300967222E+03 -0.39176035254E+03 -0.61005513363E+03  0.78578514961E+03  0.00000000000E+00 0.  1.
<mgrwt>
<rscale>  0 0.13053667E+04</rscale>
<asrwt>0</asrwt>
<pdfrwt beam="1">  1        2 0.29236567E+00 0.13053667E+04</pdfrwt>
<pdfrwt beam="2">  1       -1 0.34486725E-01 0.13053667E+04</pdfrwt>
<totfact> 0.67532842E+01</totfact>
</mgrwt>
</event>
<event>
12    6  0.1627636E-007  0.2074053E+04  0.7818608E-02  0.8572760E-01
         -1   -1    0    0    0  501 -0.00000000000E+00  0.00000000000E+00  0.49338037355E+03  0.49338037355E+03  0.00000000000E+00 0.  1.
          2   -1    0    0  501    0  0.00000000000E+00 -0.00000000000E+00 -0.21797065008E+04  0.21797065008E+04  0.00000000000E+00 0. -1.
         24    2    1    2    0    0  0.26328341394E+03 -0.57851361507E+03 -0.13913871494E+04  0.15317208350E+04  0.78831200093E+02 0.  0.
        254    2    1    2    0    0 -0.26328341394E+03  0.57851361507E+03 -0.29493897786E+03  0.11413660393E+04  0.90096130670E+03 0.  0.
         23    2    4    4    0    0  0.18806293237E+03  0.38540490115E+03  0.16091207942E+03  0.46521053503E+03  0.81385135200E+02 0.  0.
         23    2    4    4    0    0 -0.45134634630E+03  0.19310871391E+03 -0.45585105728E+03  0.67615550429E+03  0.91550968582E+02 0.  0.
          4    1    3    3  502    0  0.18894354987E+03 -0.42149731748E+03 -0.10903024977E+04  0.11841111392E+04  0.00000000000E+00 0. -1.
         -3    1    3    3    0  502  0.74339864064E+02 -0.15701629759E+03 -0.30108465173E+03  0.34760969579E+03  0.00000000000E+00 0.  1.
         11    1    5    5    0    0  0.19235367502E+03  0.34182996816E+03  0.15114989996E+03  0.42034980157E+03  0.00000000000E+00 0.  1.
        -11    1    5    5    0    0 -0.42907426517E+01  0.43574932998E+02  0.97621794603E+01  0.44860733455E+02  0.00000000000E+00 0. -1.
          2    1    6    6  503    0 -0.16575977579E+03  0.31552155730E+02 -0.18778439285E+03  0.25245756079E+03  0.00000000000E+00 0.  1.
         -2    1    6    6    0  503 -0.28558657051E+03  0.16155655818E+03 -0.26806666443E+03  0.42369794350E+03  0.00000000000E+00 0. -1.
<mgrwt>
<rscale>  0 0.20740534E+04</rscale>
<asrwt>0</asrwt>
<pdfrwt beam="1">  1        2 0.33533947E+00 0.20740534E+04</pdfrwt>
<pdfrwt beam="2">  1       -1 0.75904672E-01 0.20740534E+04</pdfrwt>
<totfact> 0.97161669E+00</totfact>
</mgrwt>
</event>
<event>
12    6  0.1627636E-007  0.1169334E+04  0.7818608E-02  0.9140131E-01
          2   -1    0    0  501    0  0.00000000000E+00  0.00000000000E+00  0.19322533892E+04  0.19322533892E+04  0.00000000000E+00 0. -1.
         -1   -1    0    0    0  501 -0.00000000000E+00 -0.00000000000E+00 -0.17691013907E+03  0.17691013907E+03  0.00000000000E+00 0.  1.
         24    2    1    2    0    0 -0.33808786343E+00 -0.58150941594E+02 -0.33306417475E+02  0.10372324430E+03  0.79167844814E+02 0.  0.
        254    2    1    2    0    0  0.33808786343E+00  0.58150941594E+02  0.17886496676E+04  0.20054402839E+04  0.90506433627E+03 0.  0.
         23    2    4    4    0    0  0.80773443020E+01 -0.24239196041E+03  0.84475900464E+02  0.27272762597E+03  0.91788203202E+02 0.  0.
         23    2    4    4    0    0 -0.77392564385E+01  0.30054290200E+03  0.17041737671E+04  0.17327126580E+04  0.87743914368E+02 0.  0.
          2    1    3    3  502    0  0.17104402947E+02 -0.59251336975E+02  0.47420145386E+01  0.61852794888E+02  0.00000000000E+00 0. -1.
         -1    1    3    3    0  502 -0.17442490811E+02  0.11003953819E+01 -0.38048432014E+02  0.41870449417E+02  0.00000000000E+00 0.  1.
         11    1    5    5    0    0  0.21659991014E+02 -0.73973808745E+01  0.14755914237E+02  0.27232580845E+02  0.00000000000E+00 0. -1.
        -11    1    5    5    0    0 -0.13582646712E+02 -0.23499457953E+03  0.69719986227E+02  0.24549504513E+03  0.00000000000E+00 0.  1.
          2    1    6    6  503    0  0.24642632049E+02  0.23525568802E+03  0.14062201922E+04  0.14259760612E+04  0.00000000000E+00 0.  1.
         -2    1    6    6    0  503 -0.32381888488E+02  0.65287213980E+02  0.29795357490E+03  0.30673659679E+03  0.00000000000E+00 0. -1.
<mgrwt>
<rscale>  0 0.11693335E+04</rscale>
<asrwt>0</asrwt>
<pdfrwt beam="1">  1        2 0.29726974E+00 0.11693335E+04</pdfrwt>
<pdfrwt beam="2">  1       -1 0.27216946E-01 0.11693335E+04</pdfrwt>
<totfact> 0.99374946E+01</totfact>
</mgrwt>
</event>
<event>
12    6  0.1627636E-007  0.1161171E+04  0.7818608E-02  0.9147539E-01
         -1   -1    0    0    0  501 -0.00000000000E+00  0.00000000000E+00  0.29767998720E+03  0.29767998720E+03  0.00000000000E+00 0.  1.
          2   -1    0    0  501    0  0.00000000000E+00 -0.00000000000E+00 -0.11323556017E+04  0.11323556017E+04  0.00000000000E+00 0. -1.
         24    2    1    2    0    0  0.79127012585E+02 -0.16197092086E+03 -0.32431260059E+03  0.37930264864E+03  0.78715773777E+02 0.  0.
        254    2    1    2    0    0 -0.79127012585E+02  0.16197092086E+03 -0.51036301394E+03  0.10507329403E+04  0.90059627053E+03 0.  0.
         23    2    4    4    0    0 -0.18948309263E+03 -0.22583289674E+03 -0.55363080719E+03  0.63374354864E+03  0.90661320997E+02 0.  0.
         23    2    4    4    0    0  0.11035608005E+03  0.38780381760E+03  0.43267793249E+02  0.41698939165E+03  0.97148265402E+02 0.  0.
          4    1    3    3  502    0  0.16495562314E+02 -0.11944146056E+03 -0.21113885399E+03  0.24314189631E+03  0.00000000000E+00 0. -1.
         -3    1    3    3    0  502  0.62631450271E+02 -0.42529460296E+02 -0.11317374660E+03  0.13616075234E+03  0.00000000000E+00 0.  1.
         11    1    5    5    0    0 -0.10096308455E+03 -0.14840249066E+03 -0.41366562661E+03  0.45092803673E+03  0.00000000000E+00 0.  1.
        -11    1    5    5    0    0 -0.88520008088E+02 -0.77430406076E+02 -0.13996518059E+03  0.18281551191E+03  0.00000000000E+00 0. -1.
          2    1    6    6  503    0  0.27728191685E+01  0.15566235078E+03  0.41504146464E+02  0.16112433134E+03  0.00000000000E+00 0.  1.
         -2    1    6    6    0  503  0.10758326088E+03  0.23214146682E+03  0.17636467847E+01  0.25586506031E+03  0.00000000000E+00 0. -1.
<mgrwt>
<rscale>  0 0.11611711E+04</rscale>
<asrwt>0</asrwt>
<pdfrwt beam="1">  1        2 0.17420855E+00 0.11611711E+04</pdfrwt>
<pdfrwt beam="2">  1       -1 0.45796921E-01 0.11611711E+04</pdfrwt>
<totfact> 0.11117616E+02</totfact>
</mgrwt>
</event>
<event>
12    6  0.1627636E-007  0.1379757E+04  0.7818608E-02  0.8968603E-01
          2   -1    0    0  501    0  0.00000000000E+00  0.00000000000E+00  0.25129182071E+04  0.25129182071E+04  0.00000000000E+00 0. -1.
         -1   -1    0    0    0  501 -0.00000000000E+00 -0.00000000000E+00 -0.18939433431E+03  0.18939433431E+03  0.00000000000E+00 0.  1.
         24    2    1    2    0    0 -0.73415565986E+02 -0.17931521132E+03  0.13531982297E+04  0.13693147391E+04  0.79584015686E+02 0.  0.
        254    2    1    2    0    0  0.73415565986E+02  0.17931521132E+03  0.97032564311E+03  0.13329978023E+04  0.89320070362E+03 0.  0.
         23    2    4    4    0    0  0.44399044814E+02  0.34155637040E+03  0.11947824046E+02  0.35634358948E+03  0.90586830838E+02 0.  0.
         23    2    4    4    0    0  0.29016521172E+02 -0.16224115908E+03  0.95837781906E+03  0.97665421283E+03  0.90560781568E+02 0.  0.
          4    1    3    3  502    0 -0.89514025521E+02 -0.15774140523E+03  0.11236319692E+04  0.11381756955E+04  0.00000000000E+00 0. -1.
         -3    1    3    3    0  502  0.16098459535E+02 -0.21573806089E+02  0.22956626051E+03  0.23113904359E+03  0.00000000000E+00 0.  1.
         11    1    5    5    0    0  0.44386344064E+02  0.32905207880E+03  0.31084149713E+02  0.33348409627E+03  0.00000000000E+00 0. -1.
        -11    1    5    5    0    0  0.12700749711E-01  0.12504291601E+02 -0.19136325666E+02  0.22859493209E+02  0.00000000000E+00 0.  1.
          4    1    6    6  503    0  0.15220703418E+01 -0.13883739860E+03  0.57272737383E+03  0.58931721906E+03  0.00000000000E+00 0. -1.
         -4    1    6    6    0  503  0.27494450830E+02 -0.23403760488E+02  0.38565044523E+03  0.38733699376E+03  0.00000000000E+00 0.  1.
<mgrwt>
<rscale>  0 0.13797572E+04</rscale>
<asrwt>0</asrwt>
<pdfrwt beam="1">  1        2 0.38660278E+00 0.13797572E+04</pdfrwt>
<pdfrwt beam="2">  1       -1 0.29137592E-01 0.13797572E+04</pdfrwt>
<totfact> 0.40956015E+01</totfact>
</mgrwt>
</event>
<event>
12    6  0.1627636E-007  0.1493792E+04  0.7818608E-02  0.8888592E-01
          2   -1    0    0  501    0  0.00000000000E+00  0.00000000000E+00  0.55719407018E+03  0.55719407018E+03  0.00000000000E+00 0. -1.
         -1   -1    0    0    0  501 -0.00000000000E+00 -0.00000000000E+00 -0.10011833048E+04  0.10011833048E+04  0.00000000000E+00 0.  1.
         24    2    1    2    0    0 -0.90841971800E+02 -0.98624550432E+02  0.32879731772E+03  0.36415758698E+03  0.80771320553E+02 0.  0.
        254    2    1    2    0    0  0.90841971800E+02  0.98624550432E+02 -0.77278655237E+03  0.11942197880E+04  0.90054582383E+03 0.  0.
         23    2    4    4    0    0 -0.17936145947E+03  0.42190276054E+03 -0.30573894897E+03  0.55876868546E+03  0.92594095023E+02 0.  0.
         23    2    4    4    0    0  0.27020343127E+03 -0.32327821011E+03 -0.46704760340E+03  0.63545110258E+03  0.90254886418E+02 0.  0.
          2    1    3    3  502    0 -0.58998290984E+02 -0.76185409841E+02  0.13135178529E+03  0.16290582099E+03  0.00000000000E+00 0. -1.
         -1    1    3    3    0  502 -0.31843680816E+02 -0.22439140591E+02  0.19744553243E+03  0.20125176599E+03  0.00000000000E+00 0.  1.
         11    1    5    5    0    0 -0.47698268533E+02  0.56288557869E+02 -0.20055175192E+02  0.76457417037E+02  0.00000000000E+00 0. -1.
        -11    1    5    5    0    0 -0.13166319094E+03  0.36561420267E+03 -0.28568377378E+03  0.48231126842E+03  0.00000000000E+00 0.  1.
          3    1    6    6  503    0  0.15122101148E+02 -0.12565950299E+02 -0.60890306151E+02  0.63986017482E+02  0.00000000000E+00 0. -1.
         -3    1    6    6    0  503  0.25508133012E+03 -0.31071225981E+03 -0.40615729725E+03  0.57146508509E+03  0.00000000000E+00 0.  1.
<mgrwt>
<rscale>  0 0.14937917E+04</rscale>
<asrwt>0</asrwt>
<pdfrwt beam="1">  1        2 0.85722166E-01 0.14937917E+04</pdfrwt>
<pdfrwt beam="2">  1       -1 0.15402820E+00 0.14937917E+04</pdfrwt>
<totfact> 0.19444573E+01</totfact>
</mgrwt>
</event>
<event>
12    6  0.1627636E-007  0.1612609E+04  0.7818608E-02  0.8812839E-01
          2   -1    0    0  501    0  0.00000000000E+00  0.00000000000E+00  0.32499003805E+04  0.32499003805E+04  0.00000000000E+00 0. -1.
         -1   -1    0    0    0  501 -0.00000000000E+00 -0.00000000000E+00 -0.20004509185E+03  0.20004509185E+03  0.00000000000E+00 0.  1.
         24    2    1    2    0    0 -0.32705668935E+03 -0.42521948447E+03  0.78517633389E+03  0.95547829506E+03  0.93054871029E+02 0.  0.
        254    2    1    2    0    0  0.32705668935E+03  0.42521948447E+03  0.22646789547E+04  0.24944671773E+04  0.89767368367E+03 0.  0.
         23    2    4    4    0    0 -0.22900501891E+03  0.38746290340E+03  0.12683860327E+04  0.13489907146E+04  0.91662533425E+02 0.  0.
         23    2    4    4    0    0  0.55606170826E+03  0.37756581074E+02  0.99629292208E+03  0.11454764627E+04  0.94268537220E+02 0.  0.
          4    1    3    3  502    0 -0.41660963215E+02 -0.78579177729E+02  0.19130919373E+03  0.21097281965E+03  0.00000000000E+00 0. -1.
         -3    1    3    3    0  502 -0.28539572614E+03 -0.34664030674E+03  0.59386714016E+03  0.74450547541E+03  0.00000000000E+00 0.  1.
         11    1    5    5    0    0 -0.13318837166E+03  0.26158955451E+03  0.93461154766E+03  0.97962594003E+03  0.00000000000E+00 0.  1.
        -11    1    5    5    0    0 -0.95816647254E+02  0.12587334889E+03  0.33377448501E+03  0.36936477457E+03  0.00000000000E+00 0. -1.
          3    1    6    6  503    0  0.50656945807E+03  0.53289872434E+02  0.93850444453E+03  0.10678216231E+04  0.00000000000E+00 0. -1.
         -3    1    6    6    0  503  0.49492250195E+02 -0.15533291360E+02  0.57788477547E+02  0.77654839560E+02  0.00000000000E+00 0.  1.
<mgrwt>
<rscale>  0 0.16126086E+04</rscale>
<asrwt>0</asrwt>
<pdfrwt beam="1">  1        2 0.49998463E+00 0.16126086E+04</pdfrwt>
<pdfrwt beam="2">  1       -1 0.30776170E-01 0.16126086E+04</pdfrwt>
<totfact> 0.12904694E+01</totfact>
</mgrwt>
</event>
<event>
12    6  0.1627636E-007  0.1632491E+04  0.7818608E-02  0.8800833E-01
         -1   -1    0    0    0  501 -0.00000000000E+00  0.00000000000E+00  0.37780003825E+03  0.37780003825E+03  0.00000000000E+00 0.  1.
          2   -1    0    0  501    0  0.00000000000E+00 -0.00000000000E+00 -0.17635166336E+04  0.17635166336E+04  0.00000000000E+00 0. -1.
         24    2    1    2    0    0 -0.19132843819E+03 -0.52083572028E+03 -0.58558979358E+03  0.81075245890E+03  0.80794334472E+02 0.  0.
        254    2    1    2    0    0  0.19132843819E+03  0.52083572028E+03 -0.80012680174E+03  0.13305642129E+04  0.90681961109E+03 0.  0.
         23    2    4    4    0    0 -0.34084604537E+01 -0.22152207909E+03 -0.33448240985E+02  0.24199016144E+03  0.91415558194E+02 0.  0.
         23    2    4    4    0    0  0.19473689864E+03  0.74235779937E+03 -0.76667856075E+03  0.10885740515E+04  0.90442733605E+02 0.  0.
          2    1    3    3  502    0 -0.12121652983E+03 -0.34082763530E+03 -0.43534963341E+03  0.56602670201E+03  0.00000000000E+00 0. -1.
         -1    1    3    3    0  502 -0.70111908356E+02 -0.18000808498E+03 -0.15024016018E+03  0.24472575688E+03  0.00000000000E+00 0.  1.
         11    1    5    5    0    0  0.61435756249E+01  0.59056860059E+01 -0.10028589016E+02  0.13160290510E+02  0.00000000000E+00 0. -1.
        -11    1    5    5    0    0 -0.95520360785E+01 -0.22742776510E+03 -0.23419651969E+02  0.22882987093E+03  0.00000000000E+00 0.  1.
          2    1    6    6  503    0  0.22314997809E+02  0.29771793656E+02 -0.57950932652E+02  0.68866751194E+02  0.00000000000E+00 0. -1.
         -2    1    6    6    0  503  0.17242190083E+03  0.71258600571E+03 -0.70872762810E+03  0.10197073003E+04  0.00000000000E+00 0.  1.
<mgrwt>
<rscale>  0 0.16324909E+04</rscale>
<asrwt>0</asrwt>
<pdfrwt beam="1">  1        2 0.27131025E+00 0.16324909E+04</pdfrwt>
<pdfrwt beam="2">  1       -1 0.58123082E-01 0.16324909E+04</pdfrwt>
<totfact> 0.29543880E+01</totfact>
</mgrwt>
</event>
<event>
12    6  0.1627636E-007  0.1851793E+04  0.7818608E-02  0.8679231E-01
         -1   -1    0    0    0  501 -0.00000000000E+00  0.00000000000E+00  0.20662023014E+04  0.20662023014E+04  0.00000000000E+00 0.  1.
          2   -1    0    0  501    0  0.00000000000E+00 -0.00000000000E+00 -0.41490834603E+03  0.41490834603E+03  0.00000000000E+00 0. -1.
         24    2    1    2    0    0  0.35243465861E+03 -0.61132462054E+03  0.63139557465E+03  0.95020370951E+03  0.79364586722E+02 0.  0.
        254    2    1    2    0    0 -0.35243465861E+03  0.61132462054E+03  0.10198983808E+04  0.15309069380E+04  0.89752736190E+03 0.  0.
         23    2    4    4    0    0  0.25630967117E+02  0.23566090664E+03  0.95319738426E+03  0.98639784184E+03  0.90567321026E+02 0.  0.
         23    2    4    4    0    0 -0.37806562572E+03  0.37566371389E+03  0.66700996499E+02  0.54450909611E+03  0.89354851727E+02 0.  0.
          4    1    3    3  502    0  0.19297655276E+03 -0.32272708124E+03  0.28378045540E+03  0.47108817195E+03  0.00000000000E+00 0. -1.
         -3    1    3    3    0  502  0.15945810584E+03 -0.28859753930E+03  0.34761511924E+03  0.47911553757E+03  0.00000000000E+00 0.  1.
         11    1    5    5    0    0  0.17931746602E+02  0.80633375047E+02  0.51363787320E+03  0.52023759331E+03  0.00000000000E+00 0. -1.
        -11    1    5    5    0    0  0.76992205158E+01  0.15502753160E+03  0.43955951107E+03  0.46616024854E+03  0.00000000000E+00 0.  1.
          1    1    6    6  503    0 -0.25164635237E+03  0.30321619604E+03  0.60635640952E+02  0.39867609554E+03  0.00000000000E+00 0. -1.
         -1    1    6    6    0  503 -0.12641927335E+03  0.72447517851E+02  0.60653555467E+01  0.14583300057E+03  0.00000000000E+00 0.  1.
<mgrwt>
<rscale>  0 0.18517933E+04</rscale>
<asrwt>0</asrwt>
<pdfrwt beam="1">  1        2 0.63832055E-01 0.18517933E+04</pdfrwt>
<pdfrwt beam="2">  1       -1 0.31787727E+00 0.18517933E+04</pdfrwt>
<totfact> 0.20748702E+00</totfact>
</mgrwt>
</event>
<event>
12    6  0.1627636E-007  0.1690032E+04  0.7818608E-02  0.8767070E-01
         -1   -1    0    0    0  501 -0.00000000000E+00  0.00000000000E+00  0.99003091488E+03  0.99003091488E+03  0.00000000000E+00 0.  1.
          2   -1    0    0  501    0  0.00000000000E+00 -0.00000000000E+00 -0.72124188167E+03  0.72124188167E+03  0.00000000000E+00 0. -1.
         24    2    1    2    0    0 -0.14832968435E+03  0.45508848817E+03 -0.28724862016E+03  0.56397261811E+03  0.80287713098E+02 0.  0.
        254    2    1    2    0    0  0.14832968435E+03 -0.45508848817E+03  0.55603765337E+03  0.11473001784E+04  0.88205022542E+03 0.  0.
         23    2    4    4    0    0  0.28254529726E+03 -0.67138098478E+03  0.40788033032E+03  0.83965644869E+03  0.89846069645E+02 0.  0.
         23    2    4    4    0    0 -0.13421561291E+03  0.21629249661E+03  0.14815732305E+03  0.30764372975E+03  0.88869551845E+02 0.  0.
          4    1    3    3  502    0 -0.11180102935E+03  0.40564305427E+03 -0.22789459351E+03  0.47852032704E+03  0.00000000000E+00 0. -1.
         -3    1    3    3    0  502 -0.36528655002E+02  0.49445433896E+02 -0.59354026650E+02  0.85452291069E+02  0.00000000000E+00 0.  1.
         11    1    5    5    0    0  0.25250275075E+01 -0.10251301731E+02 -0.47153534400E+01  0.11562850391E+02  0.00000000000E+00 0. -1.
        -11    1    5    5    0    0  0.28002026975E+03 -0.66112968305E+03  0.41259568376E+03  0.82809359830E+03  0.00000000000E+00 0.  1.
          2    1    6    6  503    0 -0.44374240632E+02  0.16828861241E+02  0.88081472222E+01  0.48268698551E+02  0.00000000000E+00 0. -1.
         -2    1    6    6    0  503 -0.89841372276E+02  0.19946363537E+03  0.13934917583E+03  0.25937503120E+03  0.00000000000E+00 0.  1.
<mgrwt>
<rscale>  0 0.16900317E+04</rscale>
<asrwt>0</asrwt>
<pdfrwt beam="1">  1        2 0.11096029E+00 0.16900317E+04</pdfrwt>
<pdfrwt beam="2">  1       -1 0.15231245E+00 0.16900317E+04</pdfrwt>
<totfact> 0.14357083E+01</totfact>
</mgrwt>
</event>
<event>
12    6  0.1627636E-007  0.3254205E+04  0.7818608E-02  0.8174647E-01
         -1   -1    0    0    0  501 -0.00000000000E+00  0.00000000000E+00  0.12048681513E+04  0.12048681513E+04  0.00000000000E+00 0.  1.
          2   -1    0    0  501    0  0.00000000000E+00 -0.00000000000E+00 -0.21973047202E+04  0.21973047202E+04  0.00000000000E+00 0. -1.
         24    2    1    2    0    0  0.52130469400E+03 -0.13964059074E+04 -0.23122540151E+03  0.15107861438E+04  0.85449070978E+02 0.  0.
        254    2    1    2    0    0 -0.52130469400E+03  0.13964059074E+04 -0.76121116733E+03  0.18913867277E+04  0.88101831423E+03 0.  0.
         23    2    4    4    0    0 -0.13172470530E+03  0.53015093778E+03 -0.75514942697E+03  0.93683827278E+03  0.94888763715E+02 0.  0.
         23    2    4    4    0    0 -0.38957998871E+03  0.86625496966E+03 -0.60617403628E+01  0.95454845489E+03  0.94634919430E+02 0.  0.
          4    1    3    3  502    0  0.10292584284E+03 -0.20790152357E+03 -0.15925008564E+02  0.23253038194E+03  0.00000000000E+00 0. -1.
         -3    1    3    3    0  502  0.41837885116E+03 -0.11885043839E+04 -0.21530039294E+03  0.12782557619E+04  0.00000000000E+00 0.  1.
         11    1    5    5    0    0  0.10421984056E+02  0.85865569673E+02 -0.14444724819E+03  0.16836425190E+03  0.00000000000E+00 0. -1.
        -11    1    5    5    0    0 -0.14214668935E+03  0.44428536811E+03 -0.61070217878E+03  0.76847402089E+03  0.00000000000E+00 0.  1.
          4    1    6    6  503    0 -0.10182244631E+03  0.33003288309E+03  0.13954162600E+02  0.34566491454E+03  0.00000000000E+00 0. -1.
         -4    1    6    6    0  503 -0.28775754240E+03  0.53622208657E+03 -0.20015902963E+02  0.60888354035E+03  0.00000000000E+00 0.  1.
<mgrwt>
<rscale>  0 0.32542050E+04</rscale>
<asrwt>0</asrwt>
<pdfrwt beam="1">  1        2 0.33804687E+00 0.32542050E+04</pdfrwt>
<pdfrwt beam="2">  1       -1 0.18536433E+00 0.32542050E+04</pdfrwt>
<totfact> 0.94107569E-01</totfact>
</mgrwt>
</event>
<event>
12    6  0.1627636E-007  0.2433258E+04  0.7818608E-02  0.8427156E-01
          2   -1    0    0  501    0  0.00000000000E+00  0.00000000000E+00  0.23091695541E+04  0.23091695541E+04  0.00000000000E+00 0. -1.
         -1   -1    0    0    0  501 -0.00000000000E+00 -0.00000000000E+00 -0.64100358050E+03  0.64100358050E+03  0.00000000000E+00 0.  1.
         24    2    1    2    0    0  0.74272964285E+03  0.59688219689E+03  0.19673509699E+03  0.97630421476E+03  0.80929240903E+02 0.  0.
        254    2    1    2    0    0 -0.74272964285E+03 -0.59688219689E+03  0.14714308766E+04  0.19738689199E+04  0.90726733036E+03 0.  0.
         23    2    4    4    0    0  0.51596035222E+02 -0.46212829026E+03  0.75683701159E+03  0.89286291018E+03  0.90427909212E+02 0.  0.
         23    2    4    4    0    0 -0.79432567807E+03 -0.13475390663E+03  0.71459386504E+03  0.10810060097E+04  0.93902623949E+02 0.  0.
          4    1    3    3  502    0  0.32243244663E+03  0.26807785121E+03  0.46258568177E+02  0.42186285933E+03  0.00000000000E+00 0. -1.
         -3    1    3    3    0  502  0.42029719622E+03  0.32880434567E+03  0.15047652881E+03  0.55444135543E+03  0.00000000000E+00 0.  1.
         11    1    5    5    0    0  0.53401220159E+02 -0.46397276220E+03  0.75775740533E+03  0.89012285653E+03  0.00000000000E+00 0.  1.
        -11    1    5    5    0    0 -0.18051849369E+01  0.18444719427E+01 -0.92039374178E+00  0.27400536571E+01  0.00000000000E+00 0. -1.
          1    1    6    6  503    0 -0.28831690048E+03 -0.26369347358E+02  0.20516164546E+03  0.35484261067E+03  0.00000000000E+00 0. -1.
         -1    1    6    6    0  503 -0.50600877759E+03 -0.10838455927E+03  0.50943221958E+03  0.72616339899E+03  0.00000000000E+00 0.  1.
<mgrwt>
<rscale>  0 0.24332579E+04</rscale>
<asrwt>0</asrwt>
<pdfrwt beam="1">  1        2 0.35525685E+00 0.24332579E+04</pdfrwt>
<pdfrwt beam="2">  1       -1 0.98615937E-01 0.24332579E+04</pdfrwt>
<totfact> 0.44959542E+00</totfact>
</mgrwt>
</event>
<event>
12    6  0.1627636E-007  0.1054674E+04  0.7818608E-02  0.9250532E-01
         -1   -1    0    0    0  501 -0.00000000000E+00  0.00000000000E+00  0.13888312284E+03  0.13888312284E+03  0.00000000000E+00 0.  1.
          2   -1    0    0  501    0  0.00000000000E+00 -0.00000000000E+00 -0.20022894313E+04  0.20022894313E+04  0.00000000000E+00 0. -1.
         24    2    1    2    0    0 -0.60567052050E+02 -0.74871146930E+02 -0.16488527906E+03  0.21128639201E+03  0.90447375646E+02 0.  0.
        254    2    1    2    0    0  0.60567052050E+02  0.74871146930E+02 -0.16985210294E+04  0.19298861621E+04  0.91116016979E+03 0.  0.
         23    2    4    4    0    0  0.59939471133E+02  0.48417560227E+03 -0.91651283208E+03  0.10426767753E+04  0.95709625497E+02 0.  0.
         23    2    4    4    0    0  0.62758091671E+00 -0.40930445534E+03 -0.78200819731E+03  0.88720938678E+03  0.89850677887E+02 0.  0.
          4    1    3    3  502    0 -0.83118990847E+02 -0.70252040170E+02 -0.13078959631E+03  0.17014709604E+03  0.00000000000E+00 0. -1.
         -3    1    3    3    0  502  0.22551938798E+02 -0.46191067599E+01 -0.34095682751E+02  0.41139295972E+02  0.00000000000E+00 0.  1.
         11    1    5    5    0    0  0.55143663910E+02  0.45543343827E+03 -0.89729930283E+03  0.10077730296E+04  0.00000000000E+00 0.  1.
        -11    1    5    5    0    0  0.47958072232E+01  0.28742164005E+02 -0.19213529244E+02  0.34903745710E+02  0.00000000000E+00 0. -1.
          1    1    6    6  503    0 -0.69458216814E+01 -0.59721890040E+02 -0.59763874242E+02  0.84774225170E+02  0.00000000000E+00 0. -1.
         -1    1    6    6    0  503  0.75734025981E+01 -0.34958256530E+03 -0.72224432306E+03  0.80243516161E+03  0.00000000000E+00 0.  1.
<mgrwt>
<rscale>  0 0.10546738E+04</rscale>
<asrwt>0</asrwt>
<pdfrwt beam="1">  1        2 0.30804452E+00 0.10546738E+04</pdfrwt>
<pdfrwt beam="2">  1       -1 0.21366635E-01 0.10546738E+04</pdfrwt>
<totfact> 0.13864076E+02</totfact>
</mgrwt>
</event>
<event>
12    6  0.1627636E-007  0.2645773E+04  0.7818608E-02  0.8352817E-01
         -1   -1    0    0    0  501 -0.00000000000E+00  0.00000000000E+00  0.55379745437E+03  0.55379745437E+03  0.00000000000E+00 0.  1.
          2   -1    0    0  501    0  0.00000000000E+00 -0.00000000000E+00 -0.31600514536E+04  0.31600514536E+04  0.00000000000E+00 0. -1.
         24    2    1    2    0    0  0.82434154744E+03 -0.78948313013E+03 -0.15036131147E+04  0.18895274486E+04  0.81479942226E+02 0.  0.
        254    2    1    2    0    0 -0.82434154744E+03  0.78948313013E+03 -0.11026408846E+04  0.18243214593E+04  0.89972732929E+03 0.  0.
         23    2    4    4    0    0 -0.69972337669E+03  0.97662886112E+03 -0.97769300419E+03  0.15512140092E+04  0.83453914156E+02 0.  0.
         23    2    4    4    0    0 -0.12461817075E+03 -0.18714573099E+03 -0.12494788036E+03  0.27310745008E+03  0.91774143277E+02 0.  0.
          4    1    3    3  502    0  0.61956262908E+03 -0.57248578013E+03 -0.11628892036E+04  0.14366311703E+04  0.00000000000E+00 0. -1.
         -3    1    3    3    0  502  0.20477891835E+03 -0.21699735000E+03 -0.34072391110E+03  0.45289627830E+03  0.00000000000E+00 0.  1.
         11    1    5    5    0    0 -0.47635754880E+03  0.63913489388E+03 -0.60080240174E+03  0.99818507944E+03  0.00000000000E+00 0. -1.
        -11    1    5    5    0    0 -0.22336582788E+03  0.33749396723E+03 -0.37689060246E+03  0.55302892981E+03  0.00000000000E+00 0.  1.
          3    1    6    6  503    0 -0.45038098604E+02 -0.95838385108E+02 -0.10722033483E+03  0.15069713530E+03  0.00000000000E+00 0. -1.
         -3    1    6    6    0  503 -0.79580072141E+02 -0.91307345879E+02 -0.17727545530E+02  0.12241031478E+03  0.00000000000E+00 0.  1.
<mgrwt>
<rscale>  0 0.26457728E+04</rscale>
<asrwt>0</asrwt>
<pdfrwt beam="1">  1        2 0.48616176E+00 0.26457728E+04</pdfrwt>
<pdfrwt beam="2">  1       -1 0.85199609E-01 0.26457728E+04</pdfrwt>
<totfact> 0.18786148E+00</totfact>
</mgrwt>
</event>
<event>
12    6  0.1627636E-007  0.2287288E+04  0.7818608E-02  0.8482950E-01
          2   -1    0    0  501    0  0.00000000000E+00  0.00000000000E+00  0.16748829862E+04  0.16748829862E+04  0.00000000000E+00 0. -1.
         -1   -1    0    0    0  501 -0.00000000000E+00 -0.00000000000E+00 -0.78090350323E+03  0.78090350323E+03  0.00000000000E+00 0.  1.
         24    2    1    2    0    0  0.60749294490E+00  0.98323817214E+03  0.50423682025E+03  0.11079284904E+04  0.80579753520E+02 0.  0.
        254    2    1    2    0    0 -0.60749294490E+00 -0.98323817214E+03  0.38974266269E+03  0.13478579990E+04  0.83550234601E+03 0.  0.
         23    2    4    4    0    0 -0.33547298321E+03 -0.42331459739E+03  0.41675297061E+03  0.68823717034E+03  0.90829473747E+02 0.  0.
         23    2    4    4    0    0  0.33486549027E+03 -0.55992357476E+03 -0.27010307917E+02  0.65962082868E+03  0.93385088527E+02 0.  0.
          2    1    3    3  502    0  0.22228289763E+02  0.90724086476E+03  0.46510529428E+03  0.10197563524E+04  0.00000000000E+00 0. -1.
         -1    1    3    3    0  502 -0.21620796818E+02  0.75997307385E+02  0.39131525966E+02  0.88172137941E+02  0.00000000000E+00 0.  1.
         11    1    5    5    0    0 -0.32870595432E+03 -0.39404357779E+03  0.36986079332E+03  0.63254640307E+03  0.00000000000E+00 0.  1.
        -11    1    5    5    0    0 -0.67670288927E+01 -0.29271019601E+02  0.46892177288E+02  0.55690767272E+02  0.00000000000E+00 0. -1.
          1    1    6    6  503    0  0.82695663417E+02 -0.18130069810E+03  0.28640051544E+02  0.20131758103E+03  0.00000000000E+00 0. -1.
         -1    1    6    6    0  503  0.25216982685E+03 -0.37862287666E+03 -0.55650359461E+02  0.45830324765E+03  0.00000000000E+00 0.  1.
<mgrwt>
<rscale>  0 0.22872883E+04</rscale>
<asrwt>0</asrwt>
<pdfrwt beam="1">  1        2 0.25767430E+00 0.22872883E+04</pdfrwt>
<pdfrwt beam="2">  1       -1 0.12013900E+00 0.22872883E+04</pdfrwt>
<totfact> 0.64615357E+00</totfact>
</mgrwt>
</event>
<event>
12    6  0.1627636E-007  0.1783293E+04  0.7818608E-02  0.8715235E-01
         -1   -1    0    0    0  501 -0.00000000000E+00  0.00000000000E+00  0.52000627446E+03  0.52000627446E+03  0.00000000000E+00 0.  1.
          2   -1    0    0  501    0  0.00000000000E+00 -0.00000000000E+00 -0.15288928631E+04  0.15288928631E+04  0.00000000000E+00 0. -1.
         24    2    1    2    0    0 -0.36045075981E+03  0.31725840615E+03  0.14522403060E+03  0.50794396856E+03  0.79620409502E+02 0.  0.
        254    2    1    2    0    0  0.36045075981E+03 -0.31725840615E+03 -0.11541106192E+04  0.15409551690E+04  0.90110702188E+03 0.  0.
         23    2    4    4    0    0  0.12381854652E+03  0.50916972200E+02 -0.10744910856E+04  0.10867216735E+04  0.92246041150E+02 0.  0.
         23    2    4    4    0    0  0.23663221329E+03 -0.36817537835E+03 -0.79619533594E+02  0.45423349545E+03  0.91874287281E+02 0.  0.
          4    1    3    3  502    0 -0.20850475208E+02  0.47344523712E+02  0.26842716974E+02  0.58281881374E+02  0.00000000000E+00 0. -1.
         -1    1    3    3    0  502 -0.33960028460E+03  0.26991388244E+03  0.11838131363E+03  0.44966208718E+03  0.00000000000E+00 0.  1.
         11    1    5    5    0    0 -0.93494347799E+01  0.18258952583E+01 -0.24432744574E+03  0.24451308056E+03  0.00000000000E+00 0. -1.
        -11    1    5    5    0    0  0.13316798130E+03  0.49091076942E+02 -0.83016363989E+03  0.84220859297E+03  0.00000000000E+00 0.  1.
          3    1    6    6  503    0  0.74141661058E+02 -0.69161796632E+02  0.11206947381E+02  0.10200948822E+03  0.00000000000E+00 0. -1.
         -3    1    6    6    0  503  0.16249055223E+03 -0.29901358172E+03 -0.90826480975E+02  0.35222400722E+03  0.00000000000E+00 0.  1.
<mgrwt>
<rscale>  0 0.17832934E+04</rscale>
<asrwt>0</asrwt>
<pdfrwt beam="1">  1        2 0.23521428E+00 0.17832934E+04</pdfrwt>
<pdfrwt beam="2">  1       -1 0.80000967E-01 0.17832934E+04</pdfrwt>
<totfact> 0.20541324E+01</totfact>
</mgrwt>
</event>
<event>
12    6  0.1627636E-007  0.1445467E+04  0.7818608E-02  0.8921549E-01
          2   -1    0    0  501    0  0.00000000000E+00  0.00000000000E+00  0.11412304300E+04  0.11412304300E+04  0.00000000000E+00 0. -1.
         -1   -1    0    0    0  501 -0.00000000000E+00 -0.00000000000E+00 -0.45770211053E+03  0.45770211053E+03  0.00000000000E+00 0.  1.
         24    2    1    2    0    0  0.25069394048E+03  0.37657843255E+02 -0.18264191057E+03  0.32223109295E+03  0.78798761490E+02 0.  0.
        254    2    1    2    0    0 -0.25069394048E+03 -0.37657843255E+02  0.86617023005E+03  0.12767014476E+04  0.90302278703E+03 0.  0.
         23    2    4    4    0    0 -0.42341254267E+03 -0.34386690613E+03  0.65150604813E+03  0.85449515363E+03  0.90438965076E+02 0.  0.
         23    2    4    4    0    0  0.17271860219E+03  0.30620906287E+03  0.21466418191E+03  0.42220629396E+03  0.92637670162E+02 0.  0.
          4    1    3    3  502    0  0.93165747086E+02 -0.91549205972E+01 -0.30982263303E+02  0.98608162140E+02  0.00000000000E+00 0. -1.
         -3    1    3    3    0  502  0.15752819340E+03  0.46812763852E+02 -0.15165964726E+03  0.22362293081E+03  0.00000000000E+00 0.  1.
         11    1    5    5    0    0 -0.56265519476E+02 -0.18815819909E+02  0.44473430251E+02  0.74146677330E+02  0.00000000000E+00 0.  1.
        -11    1    5    5    0    0 -0.36714702319E+03 -0.32505108622E+03  0.60703261788E+03  0.78034847630E+03  0.00000000000E+00 0. -1.
          3    1    6    6  503    0  0.16071865283E+03  0.23992537388E+03  0.13771233722E+03  0.31993649092E+03  0.00000000000E+00 0. -1.
         -3    1    6    6    0  503  0.11999949354E+02  0.66283688994E+02  0.76951844699E+02  0.10226980304E+03  0.00000000000E+00 0.  1.
<mgrwt>
<rscale>  0 0.14454668E+04</rscale>
<asrwt>0</asrwt>
<pdfrwt beam="1">  1        2 0.17557391E+00 0.14454668E+04</pdfrwt>
<pdfrwt beam="2">  1       -1 0.70415710E-01 0.14454668E+04</pdfrwt>
<totfact> 0.46351210E+01</totfact>
</mgrwt>
</event>
<event>
12    6  0.1627636E-007  0.1412677E+04  0.7818608E-02  0.8944693E-01
         -1   -1    0    0    0  501 -0.00000000000E+00  0.00000000000E+00  0.20270381905E+03  0.20270381905E+03  0.00000000000E+00 0.  1.
          2   -1    0    0  501    0  0.00000000000E+00 -0.00000000000E+00 -0.24612970631E+04  0.24612970631E+04  0.00000000000E+00 0. -1.
         24    2    1    2    0    0  0.28659185589E+03  0.22618641175E+03 -0.31135561906E+03  0.48679586684E+03  0.82053090887E+02 0.  0.
        254    2    1    2    0    0 -0.28659185589E+03 -0.22618641175E+03 -0.19472376250E+04  0.21772050154E+04  0.90287990667E+03 0.  0.
         23    2    4    4    0    0 -0.18376104269E+03 -0.52262876426E+03 -0.75322645675E+03  0.93938447646E+03  0.90466310980E+02 0.  0.
         23    2    4    4    0    0 -0.10283081320E+03  0.29644235251E+03 -0.11940111683E+04  0.12378205389E+04  0.89915360505E+02 0.  0.
          2    1    3    3  502    0 -0.17676601140E+01  0.14651188914E+02 -0.23322774605E+02  0.27599524890E+02  0.00000000000E+00 0. -1.
         -1    1    3    3    0  502  0.28835951601E+03  0.21153522283E+03 -0.28803284446E+03  0.45919634195E+03  0.00000000000E+00 0.  1.
         11    1    5    5    0    0 -0.67103703234E+02 -0.93947309320E+02 -0.18543515860E+03  0.21843809641E+03  0.00000000000E+00 0.  1.
        -11    1    5    5    0    0 -0.11665733946E+03 -0.42868145494E+03 -0.56779129815E+03  0.72094638005E+03  0.00000000000E+00 0. -1.
          3    1    6    6  503    0 -0.11316466057E+03  0.20359312553E+03 -0.84258761321E+03  0.87419121884E+03  0.00000000000E+00 0. -1.
         -3    1    6    6    0  503  0.10333847370E+02  0.92849226981E+02 -0.35142355507E+03  0.36362932006E+03  0.00000000000E+00 0.  1.
<mgrwt>
<rscale>  0 0.14126773E+04</rscale>
<asrwt>0</asrwt>
<pdfrwt beam="1">  1        2 0.37866107E+00 0.14126773E+04</pdfrwt>
<pdfrwt beam="2">  1       -1 0.31185204E-01 0.14126773E+04</pdfrwt>
<totfact> 0.38813058E+01</totfact>
</mgrwt>
</event>
<event>
12    6  0.1627636E-007  0.1236023E+04  0.7818608E-02  0.9081897E-01
         -1   -1    0    0    0  501 -0.00000000000E+00  0.00000000000E+00  0.23680141296E+03  0.23680141296E+03  0.00000000000E+00 0.  1.
          2   -1    0    0  501    0  0.00000000000E+00 -0.00000000000E+00 -0.16129052729E+04  0.16129052729E+04  0.00000000000E+00 0. -1.
         24    2    1    2    0    0 -0.17550321312E+03 -0.13880208853E+03 -0.60297437915E+03  0.64813949428E+03  0.80245277384E+02 0.  0.
        254    2    1    2    0    0  0.17550321312E+03  0.13880208853E+03 -0.77312948080E+03  0.12015671916E+04  0.89216989650E+03 0.  0.
         23    2    4    4    0    0 -0.81882890439E+02 -0.92155012879E+02  0.14799763902E+03  0.21345606400E+03  0.91993673475E+02 0.  0.
         23    2    4    4    0    0  0.25738610356E+03  0.23095710141E+03 -0.92112711982E+03  0.98811112758E+03  0.91102363258E+02 0.  0.
          4    1    3    3  502    0 -0.18366141148E+03 -0.13473689062E+03 -0.58837390103E+03  0.63092740563E+03  0.00000000000E+00 0. -1.
         -3    1    3    3    0  502  0.81581983587E+01 -0.40651979118E+01 -0.14600478120E+02  0.17212088655E+02  0.00000000000E+00 0.  1.
         11    1    5    5    0    0 -0.10091113917E+03 -0.65513122737E+02  0.12467027604E+03  0.17325618311E+03  0.00000000000E+00 0. -1.
        -11    1    5    5    0    0  0.19028248730E+02 -0.26641890143E+02  0.23327362980E+02  0.40199880892E+02  0.00000000000E+00 0.  1.
          2    1    6    6  503    0  0.65879786238E+02  0.57511102892E+02 -0.13718586962E+03  0.16268877040E+03  0.00000000000E+00 0.  1.
         -2    1    6    6    0  503  0.19150631732E+03  0.17344599852E+03 -0.78394125020E+03  0.82542235719E+03  0.00000000000E+00 0. -1.
<mgrwt>
<rscale>  0 0.12360231E+04</rscale>
<asrwt>0</asrwt>
<pdfrwt beam="1">  1        2 0.24813926E+00 0.12360231E+04</pdfrwt>
<pdfrwt beam="2">  1       -1 0.36430988E-01 0.12360231E+04</pdfrwt>
<totfact> 0.88785684E+01</totfact>
</mgrwt>
</event>
<event>
12    6  0.1627636E-007  0.2052680E+04  0.7818608E-02  0.8582380E-01
          2   -1    0    0  501    0  0.00000000000E+00  0.00000000000E+00  0.33091515346E+04  0.33091515346E+04  0.00000000000E+00 0. -1.
         -1   -1    0    0    0  501 -0.00000000000E+00 -0.00000000000E+00 -0.31832137863E+03  0.31832137863E+03  0.00000000000E+00 0.  1.
         24    2    1    2    0    0  0.19167743638E+01 -0.32015662482E+02 -0.24906626499E+03  0.26390426246E+03  0.81134325177E+02 0.  0.
        254    2    1    2    0    0 -0.19167743638E+01  0.32015662482E+02  0.32398964209E+04  0.33635686508E+04  0.90312600075E+03 0.  0.
         23    2    4    4    0    0  0.42731215771E+02 -0.21229593164E+03  0.29927988382E+04  0.30020513616E+04  0.92584944721E+02 0.  0.
         23    2    4    4    0    0 -0.44647990135E+02  0.24431159413E+03  0.24709758271E+03  0.36151728918E+03  0.89196059043E+02 0.  0.
          4    1    3    3  502    0  0.30919227040E+02  0.10084945469E+02 -0.62436223031E+02  0.70398768968E+02  0.00000000000E+00 0. -1.
         -1    1    3    3    0  502 -0.29002452676E+02 -0.42100607951E+02 -0.18663004196E+03  0.19350549350E+03  0.00000000000E+00 0.  1.
         11    1    5    5    0    0 -0.18073225709E+02 -0.12688734540E+03  0.18603237981E+04  0.18647336737E+04  0.00000000000E+00 0.  1.
        -11    1    5    5    0    0  0.60804441480E+02 -0.85408586242E+02  0.11324750401E+04  0.11373176879E+04  0.00000000000E+00 0. -1.
          1    1    6    6  503    0  0.18598169842E+02  0.13893261152E+03  0.14578073868E+03  0.20223794459E+03  0.00000000000E+00 0. -1.
         -1    1    6    6    0  503 -0.63246159977E+02  0.10537898261E+03  0.10131684403E+03  0.15927934459E+03  0.00000000000E+00 0.  1.
<mgrwt>
<rscale>  0 0.20526799E+04</rscale>
<asrwt>0</asrwt>
<pdfrwt beam="1">  1        2 0.50910021E+00 0.20526799E+04</pdfrwt>
<pdfrwt beam="2">  1       -1 0.48972522E-01 0.20526799E+04</pdfrwt>
<totfact> 0.48465885E+00</totfact>
</mgrwt>
</event>
<event>
12    6  0.1627636E-007  0.1178552E+04  0.7818608E-02  0.9131840E-01
          2   -1    0    0  501    0  0.00000000000E+00  0.00000000000E+00  0.15422864510E+04  0.15422864510E+04  0.00000000000E+00 0. -1.
         -1   -1    0    0    0  501 -0.00000000000E+00 -0.00000000000E+00 -0.22515009112E+03  0.22515009112E+03  0.00000000000E+00 0.  1.
         24    2    1    2    0    0  0.97191353668E+02 -0.17903860290E+03  0.83974639923E+02  0.23411138231E+03  0.79091204432E+02 0.  0.
        254    2    1    2    0    0 -0.97191353668E+02  0.17903860290E+03  0.12331617199E+04  0.15333251598E+04  0.88819887277E+03 0.  0.
         23    2    4    4    0    0  0.11374335031E+03  0.49062032512E+03  0.82492291812E+03  0.97057201642E+03  0.88692531006E+02 0.  0.
         23    2    4    4    0    0 -0.21093470398E+03 -0.31158172222E+03  0.40823880181E+03  0.56275314337E+03  0.91954130465E+02 0.  0.
          4    1    3    3  502    0  0.33535879757E+02 -0.31704841543E+02 -0.11236269612E+02  0.47498483799E+02  0.00000000000E+00 0. -1.
         -3    1    3    3    0  502  0.63655473910E+02 -0.14733376136E+03  0.95210909536E+02  0.18661289851E+03  0.00000000000E+00 0.  1.
         11    1    5    5    0    0  0.74349726619E+01  0.48491441056E+00  0.37129858467E+01  0.83246756313E+01  0.00000000000E+00 0.  1.
        -11    1    5    5    0    0  0.10630837765E+03  0.49013541071E+03  0.82120993227E+03  0.96224734079E+03  0.00000000000E+00 0. -1.
          4    1    6    6  503    0 -0.19886960541E+03 -0.30613418984E+03  0.35990437815E+03  0.51263868715E+03  0.00000000000E+00 0. -1.
         -4    1    6    6    0  503 -0.12065098570E+02 -0.54475323758E+01  0.48334423661E+02  0.50114456229E+02  0.00000000000E+00 0.  1.
<mgrwt>
<rscale>  0 0.11785515E+04</rscale>
<asrwt>0</asrwt>
<pdfrwt beam="1">  1        2 0.23727483E+00 0.11785515E+04</pdfrwt>
<pdfrwt beam="2">  1       -1 0.34638476E-01 0.11785515E+04</pdfrwt>
<totfact> 0.10689129E+02</totfact>
</mgrwt>
</event>
<event>
12    6  0.1627636E-007  0.2226470E+04  0.7818608E-02  0.8507491E-01
          2   -1    0    0  501    0  0.00000000000E+00  0.00000000000E+00  0.12492542089E+04  0.12492542089E+04  0.00000000000E+00 0. -1.
         -1   -1    0    0    0  501 -0.00000000000E+00 -0.00000000000E+00 -0.99202547493E+03  0.99202547493E+03  0.00000000000E+00 0.  1.
         24    2    1    2    0    0  0.97576262261E+02 -0.18942238575E+03  0.10163301403E+04  0.10418560561E+04  0.84469641272E+02 0.  0.
        254    2    1    2    0    0 -0.97576262261E+02  0.18942238575E+03 -0.75910140629E+03  0.11994236278E+04  0.90386952970E+03 0.  0.
         23    2    4    4    0    0  0.13334027352E+03  0.49433458107E+03 -0.31898801511E+03  0.61008611776E+03  0.91134026084E+02 0.  0.
         23    2    4    4    0    0 -0.23091653578E+03 -0.30491219531E+03 -0.44011339117E+03  0.58933751005E+03  0.85586274075E+02 0.  0.
          2    1    3    3  502    0  0.78946208772E+02 -0.10163626922E+03  0.74600149531E+03  0.75702091524E+03  0.00000000000E+00 0. -1.
         -1    1    3    3    0  502  0.18630053490E+02 -0.87786116533E+02  0.27032864499E+03  0.28483514083E+03  0.00000000000E+00 0.  1.
         11    1    5    5    0    0  0.10104736620E+03  0.20299932710E+03 -0.13136872831E+03  0.26206304546E+03  0.00000000000E+00 0. -1.
        -11    1    5    5    0    0  0.32292907320E+02  0.29133525397E+03 -0.18761928680E+03  0.34802307229E+03  0.00000000000E+00 0.  1.
          4    1    6    6  503    0 -0.20809515927E+03 -0.22779879473E+03 -0.31764402878E+03  0.44282458741E+03  0.00000000000E+00 0. -1.
         -4    1    6    6    0  503 -0.22821376510E+02 -0.77113400587E+02 -0.12246936239E+03  0.14651292264E+03  0.00000000000E+00 0.  1.
<mgrwt>
<rscale>  0 0.22264699E+04</rscale>
<asrwt>0</asrwt>
<pdfrwt beam="1">  1        2 0.19219295E+00 0.22264699E+04</pdfrwt>
<pdfrwt beam="2">  1       -1 0.15261930E+00 0.22264699E+04</pdfrwt>
<totfact> 0.61280957E+00</totfact>
</mgrwt>
</event>
<event>
12    6  0.1627636E-007  0.3012647E+04  0.7818608E-02  0.8240129E-01
         -1   -1    0    0    0  501 -0.00000000000E+00  0.00000000000E+00  0.11219709289E+04  0.11219709289E+04  0.00000000000E+00 0.  1.
          2   -1    0    0  501    0  0.00000000000E+00 -0.00000000000E+00 -0.20223427565E+04  0.20223427565E+04  0.00000000000E+00 0. -1.
         24    2    1    2    0    0 -0.26338284066E+03 -0.38590055224E+03  0.93488298979E+03  0.10481645765E+04  0.79705820964E+02 0.  0.
        254    2    1    2    0    0  0.26338284066E+03  0.38590055224E+03 -0.18352548174E+04  0.20961491089E+04  0.89854943372E+03 0.  0.
         23    2    4    4    0    0  0.19827521068E+02  0.23247199242E+02  0.83057910726E+02  0.12622068596E+03  0.89997123093E+02 0.  0.
         23    2    4    4    0    0  0.24355531960E+03  0.36265335300E+03 -0.19183127282E+04  0.19699284230E+04  0.99285549488E+02 0.  0.
          4    1    3    3  502    0 -0.11597815236E+03 -0.10871065617E+03  0.28188165883E+03  0.32361428920E+03  0.00000000000E+00 0. -1.
         -3    1    3    3    0  502 -0.14740468830E+03 -0.27718989607E+03  0.65300133096E+03  0.72455028732E+03  0.00000000000E+00 0.  1.
         11    1    5    5    0    0  0.45645165717E+02  0.36393985179E+02  0.29686615246E+02  0.65492735745E+02  0.00000000000E+00 0. -1.
        -11    1    5    5    0    0 -0.25817644649E+02 -0.13146785937E+02  0.53371295481E+02  0.60727950212E+02  0.00000000000E+00 0.  1.
          3    1    6    6  503    0  0.12414219064E+03  0.16691015584E+03 -0.11282531369E+04  0.11472686801E+04  0.00000000000E+00 0. -1.
         -3    1    6    6    0  503  0.11941312895E+03  0.19574319716E+03 -0.79005959132E+03  0.82265974281E+03  0.00000000000E+00 0.  1.
<mgrwt>
<rscale>  0 0.30126465E+04</rscale>
<asrwt>0</asrwt>
<pdfrwt beam="1">  1        2 0.31112965E+00 0.30126465E+04</pdfrwt>
<pdfrwt beam="2">  1       -1 0.17261091E+00 0.30126465E+04</pdfrwt>
<totfact> 0.14869237E+00</totfact>
</mgrwt>
</event>
<event>
12    6  0.1627636E-007  0.1303370E+04  0.7818608E-02  0.9026897E-01
         -1   -1    0    0    0  501 -0.00000000000E+00  0.00000000000E+00  0.29778576344E+03  0.29778576344E+03  0.00000000000E+00 0.  1.
          2   -1    0    0  501    0  0.00000000000E+00 -0.00000000000E+00 -0.14261699074E+04  0.14261699074E+04  0.00000000000E+00 0. -1.
         24    2    1    2    0    0  0.28831210330E+03  0.17011750590E+03 -0.31839153860E+03  0.46861719709E+03  0.78517965007E+02 0.  0.
        254    2    1    2    0    0 -0.28831210330E+03 -0.17011750590E+03 -0.80999260532E+03  0.12553384737E+04  0.89873401415E+03 0.  0.
         23    2    4    4    0    0  0.20706946029E+03 -0.18305667489E+03 -0.67378348104E+03  0.73364970901E+03  0.88714196135E+02 0.  0.
         23    2    4    4    0    0 -0.49538156359E+03  0.12939168985E+02 -0.13620912428E+03  0.52168876471E+03  0.89643326835E+02 0.  0.
          2    1    3    3  502    0  0.24035114200E+02 -0.63429627456E+01 -0.13763427646E+02  0.28413937276E+02  0.00000000000E+00 0. -1.
         -1    1    3    3    0  502  0.26427698910E+03  0.17646046865E+03 -0.30462811096E+03  0.44020325981E+03  0.00000000000E+00 0.  1.
         11    1    5    5    0    0  0.43298424695E+02 -0.26716151780E+02 -0.55885132496E+02  0.75575487964E+02  0.00000000000E+00 0. -1.
        -11    1    5    5    0    0  0.16377103560E+03 -0.15634052311E+03 -0.61789834854E+03  0.65807422104E+03  0.00000000000E+00 0.  1.
          1    1    6    6  503    0 -0.32826814139E+03  0.15439416391E+02 -0.13300482694E+03  0.35452592602E+03  0.00000000000E+00 0. -1.
         -1    1    6    6    0  503 -0.16711342220E+03 -0.25002474064E+01 -0.32042973352E+01  0.16716283869E+03  0.00000000000E+00 0.  1.
<mgrwt>
<rscale>  0 0.13033696E+04</rscale>
<asrwt>0</asrwt>
<pdfrwt beam="1">  1        2 0.21941075E+00 0.13033696E+04</pdfrwt>
<pdfrwt beam="2">  1       -1 0.45813195E-01 0.13033696E+04</pdfrwt>
<totfact> 0.73916946E+01</totfact>
</mgrwt>
</event>
<event>
12    6  0.1627636E-007  0.1814408E+04  0.7818608E-02  0.8698675E-01
         -1   -1    0    0    0  501 -0.00000000000E+00  0.00000000000E+00  0.23743407461E+03  0.23743407461E+03  0.00000000000E+00 0.  1.
          2   -1    0    0  501    0  0.00000000000E+00 -0.00000000000E+00 -0.34663064313E+04  0.34663064313E+04  0.00000000000E+00 0. -1.
         24    2    1    2    0    0  0.91431403919E+02  0.60888932491E+03 -0.18658387050E+04  0.19664391252E+04  0.80142674540E+02 0.  0.
        254    2    1    2    0    0 -0.91431403919E+02 -0.60888932491E+03 -0.13630336516E+04  0.17373013807E+04  0.88388315985E+03 0.  0.
         23    2    4    4    0    0  0.99139481252E+02  0.18230218283E+03 -0.14433116357E+03  0.26903497854E+03  0.92117383235E+02 0.  0.
         23    2    4    4    0    0 -0.19057088517E+03 -0.79119150774E+03 -0.12187024881E+04  0.14682664022E+04  0.90935191629E+02 0.  0.
          4    1    3    3  502    0  0.40110285340E+02  0.45634509125E+03 -0.14448228896E+04  0.15157086988E+04  0.00000000000E+00 0. -1.
         -1    1    3    3    0  502  0.51321118578E+02  0.15254423366E+03 -0.42101581543E+03  0.45073042640E+03  0.00000000000E+00 0.  1.
         11    1    5    5    0    0  0.79097547531E+02  0.18861233288E+03 -0.12100670469E+03  0.23764186651E+03  0.00000000000E+00 0. -1.
        -11    1    5    5    0    0  0.20041933721E+02 -0.63101500477E+01 -0.23324458882E+02  0.31393112032E+02  0.00000000000E+00 0.  1.
          3    1    6    6  503    0 -0.19864449605E+03 -0.77571592438E+03 -0.11829945942E+04  0.14285205777E+04  0.00000000000E+00 0. -1.
         -3    1    6    6    0  503  0.80736108756E+01 -0.15475583356E+02 -0.35707893902E+02  0.39745824431E+02  0.00000000000E+00 0.  1.
<mgrwt>
<rscale>  0 0.18144082E+04</rscale>
<asrwt>0</asrwt>
<pdfrwt beam="1">  1        2 0.53327789E+00 0.18144082E+04</pdfrwt>
<pdfrwt beam="2">  1       -1 0.36528320E-01 0.18144082E+04</pdfrwt>
<totfact> 0.66703685E+00</totfact>
</mgrwt>
</event>
<event>
12    6  0.1627636E-007  0.1136175E+04  0.7818608E-02  0.9170634E-01
          2   -1    0    0  501    0  0.00000000000E+00  0.00000000000E+00  0.63183491123E+03  0.63183491123E+03  0.00000000000E+00 0. -1.
         -1   -1    0    0    0  501 -0.00000000000E+00 -0.00000000000E+00 -0.51077132806E+03  0.51077132806E+03  0.00000000000E+00 0.  1.
         24    2    1    2    0    0  0.39437427882E+02  0.15068127522E+03 -0.10175753081E+03  0.20127684093E+03  0.76795925684E+02 0.  0.
        254    2    1    2    0    0 -0.39437427882E+02 -0.15068127522E+03  0.22282111397E+03  0.94132939835E+03  0.90121674971E+03 0.  0.
         23    2    4    4    0    0  0.27841837379E+03  0.22528414605E+03  0.23970211133E+03  0.44063357914E+03  0.91821084547E+02 0.  0.
         23    2    4    4    0    0 -0.31785580167E+03 -0.37596542127E+03 -0.16880997359E+02  0.50069581921E+03  0.89604836137E+02 0.  0.
          4    1    3    3  502    0  0.24696341476E+02  0.88980353828E+01 -0.19868252577E+00  0.26251167416E+02  0.00000000000E+00 0. -1.
         -3    1    3    3    0  502  0.14741086406E+02  0.14178323984E+03 -0.10155884828E+03  0.17502567352E+03  0.00000000000E+00 0.  1.
         11    1    5    5    0    0  0.13467058911E+03  0.14098101626E+03  0.83045373084E+02  0.21191589961E+03  0.00000000000E+00 0.  1.
        -11    1    5    5    0    0  0.14374778467E+03  0.84303129785E+02  0.15665673825E+03  0.22871767953E+03  0.00000000000E+00 0. -1.
          1    1    6    6  503    0 -0.31488941976E+03 -0.34627915270E+03 -0.36453836597E+01  0.46805756813E+03  0.00000000000E+00 0. -1.
         -1    1    6    6    0  503 -0.29663819147E+01 -0.29686268570E+02 -0.13235613699E+02  0.32638251075E+02  0.00000000000E+00 0.  1.
<mgrwt>
<rscale>  0 0.11361746E+04</rscale>
<asrwt>0</asrwt>
<pdfrwt beam="1">  1        2 0.97205371E-01 0.11361746E+04</pdfrwt>
<pdfrwt beam="2">  1       -1 0.78580204E-01 0.11361746E+04</pdfrwt>
<totfact> 0.85457291E+01</totfact>
</mgrwt>
</event>
<event>
12    6  0.1627636E-007  0.2712326E+04  0.7818608E-02  0.8331017E-01
          2   -1    0    0  501    0  0.00000000000E+00  0.00000000000E+00  0.19709534365E+04  0.19709534365E+04  0.00000000000E+00 0. -1.
         -1   -1    0    0    0  501 -0.00000000000E+00 -0.00000000000E+00 -0.93314120469E+03  0.93314120469E+03  0.00000000000E+00 0.  1.
         24    2    1    2    0    0  0.37382212070E+03 -0.11264369222E+04  0.45275890034E+03  0.12726996372E+04  0.78553339293E+02 0.  0.
        254    2    1    2    0    0 -0.37382212070E+03  0.11264369222E+04  0.58505333148E+03  0.16313950040E+04  0.95423222570E+03 0.  0.
         23    2    4    4    0    0 -0.28844307446E+03 -0.15222547538E+01  0.36796785012E+03  0.47609973086E+03  0.89827003418E+02 0.  0.
         23    2    4    4    0    0 -0.85379046246E+02  0.11279591770E+04  0.21708548136E+03  0.11552952731E+04  0.89440345095E+02 0.  0.
          2    1    3    3  502    0  0.12318739993E+02 -0.97990141283E+01  0.64036859261E+01  0.16993505417E+02  0.00000000000E+00 0. -1.
         -1    1    3    3    0  502  0.36150338071E+03 -0.11166379081E+04  0.44635521441E+03  0.12557061318E+04  0.00000000000E+00 0.  1.
         11    1    5    5    0    0 -0.93113302289E+00 -0.97352576071E+01  0.33832719580E+02  0.35217824515E+02  0.00000000000E+00 0.  1.
        -11    1    5    5    0    0 -0.28751194143E+03  0.82130028533E+01  0.33413513054E+03  0.44088190635E+03  0.00000000000E+00 0. -1.
          3    1    6    6  503    0 -0.11676797226E+02  0.64570441048E+03  0.99010532383E+02  0.65335566029E+03  0.00000000000E+00 0. -1.
         -3    1    6    6    0  503 -0.73702249020E+02  0.48225476650E+03  0.11807494897E+03  0.50193961280E+03  0.00000000000E+00 0.  1.
<mgrwt>
<rscale>  0 0.27123258E+04</rscale>
<asrwt>0</asrwt>
<pdfrwt beam="1">  1        2 0.30322360E+00 0.27123258E+04</pdfrwt>
<pdfrwt beam="2">  1       -1 0.14356019E+00 0.27123258E+04</pdfrwt>
<totfact> 0.27128186E+00</totfact>
</mgrwt>
</event>
<event>
12    6  0.1627636E-007  0.1192224E+04  0.7818608E-02  0.9119690E-01
         -3   -1    0    0    0  501 -0.00000000000E+00  0.00000000000E+00  0.34943479471E+03  0.34943479471E+03  0.00000000000E+00 0.  1.
          2   -1    0    0  501    0  0.00000000000E+00 -0.00000000000E+00 -0.10169264450E+04  0.10169264450E+04  0.00000000000E+00 0. -1.
         24    2    1    2    0    0 -0.13279686428E+03  0.55325012972E+02 -0.37075588329E+03  0.40562655515E+03  0.79856828276E+02 0.  0.
        254    2    1    2    0    0  0.13279686428E+03 -0.55325012972E+02 -0.29673576701E+03  0.96073468457E+03  0.90236531100E+03 0.  0.
         23    2    4    4    0    0  0.46752417948E+03  0.16397702013E+03 -0.16970915433E+03  0.53138324186E+03  0.89997950787E+02 0.  0.
         23    2    4    4    0    0 -0.33472731520E+03 -0.21930203310E+03 -0.12702661268E+03  0.42935144271E+03  0.89839544565E+02 0.  0.
          2    1    3    3  502    0 -0.96378234978E+02  0.13547381268E+01 -0.25808107959E+03  0.27549309090E+03  0.00000000000E+00 0. -1.
         -1    1    3    3    0  502 -0.36418629300E+02  0.53970274845E+02 -0.11267480371E+03  0.13013346425E+03  0.00000000000E+00 0.  1.
         11    1    5    5    0    0  0.65950188794E+02  0.36577399224E+02  0.43608640341E+01  0.75540390992E+02  0.00000000000E+00 0.  1.
        -11    1    5    5    0    0  0.40157399068E+03  0.12739962090E+03 -0.17407001836E+03  0.45584285087E+03  0.00000000000E+00 0. -1.
          2    1    6    6  503    0 -0.30578517405E+03 -0.16401380235E+03 -0.98284198022E+02  0.36064509370E+03  0.00000000000E+00 0. -1.
         -2    1    6    6    0  503 -0.28942141145E+02 -0.55288230750E+02 -0.28742414656E+02  0.68706349007E+02  0.00000000000E+00 0.  1.
<mgrwt>
<rscale>  0 0.11922239E+04</rscale>
<asrwt>0</asrwt>
<pdfrwt beam="1">  1        2 0.15645022E+00 0.11922239E+04</pdfrwt>
<pdfrwt beam="2">  1       -3 0.53759200E-01 0.11922239E+04</pdfrwt>
<totfact> 0.52803946E+01</totfact>
</mgrwt>
</event>
<event>
12    6  0.1627636E-007  0.1642873E+04  0.7818608E-02  0.8794634E-01
         -1   -1    0    0    0  501 -0.00000000000E+00  0.00000000000E+00  0.39188192025E+03  0.39188192025E+03  0.00000000000E+00 0.  1.
          2   -1    0    0  501    0  0.00000000000E+00 -0.00000000000E+00 -0.17218406297E+04  0.17218406297E+04  0.00000000000E+00 0. -1.
         24    2    1    2    0    0 -0.98620235814E+02  0.27805308987E+03 -0.10977536415E+04  0.11394966021E+04  0.79686743065E+02 0.  0.
        254    2    1    2    0    0  0.98620235814E+02 -0.27805308987E+03 -0.23220506787E+03  0.97422594779E+03  0.89897582398E+03 0.  0.
         23    2    4    4    0    0  0.26496138703E+03  0.18290577392E+03 -0.32600360873E+03  0.46714320320E+03  0.91023956383E+02 0.  0.
         23    2    4    4    0    0 -0.16634115121E+03 -0.46095886379E+03  0.93798540863E+02  0.50708274459E+03  0.90456016419E+02 0.  0.
          2    1    3    3  502    0 -0.27235848357E+02  0.18973909242E+03 -0.66244126168E+03  0.68961666149E+03  0.00000000000E+00 0. -1.
         -3    1    3    3    0  502 -0.71384387457E+02  0.88313997451E+02 -0.43531237986E+03  0.44987994063E+03  0.00000000000E+00 0.  1.
         11    1    5    5    0    0  0.56429139556E+02 -0.84078296395E+00 -0.61351024883E+02  0.83360080141E+02  0.00000000000E+00 0. -1.
        -11    1    5    5    0    0  0.20853224747E+03  0.18374655688E+03 -0.26465258385E+03  0.38378312305E+03  0.00000000000E+00 0.  1.
          1    1    6    6  503    0 -0.76328449321E+01 -0.29944332268E+02 -0.16053476793E+02  0.34822944647E+02  0.00000000000E+00 0. -1.
         -1    1    6    6    0  503 -0.15870830628E+03 -0.43101453152E+03  0.10985201766E+03  0.47225979995E+03  0.00000000000E+00 0.  1.
<mgrwt>
<rscale>  0 0.16428734E+04</rscale>
<asrwt>0</asrwt>
<pdfrwt beam="1">  1        2 0.26489856E+00 0.16428734E+04</pdfrwt>
<pdfrwt beam="2">  1       -1 0.60289525E-01 0.16428734E+04</pdfrwt>
<totfact> 0.28965359E+01</totfact>
</mgrwt>
</event>
<event>
12    6  0.1627636E-007  0.2413281E+04  0.7818608E-02  0.8434548E-01
          2   -1    0    0  501    0  0.00000000000E+00  0.00000000000E+00  0.14279511437E+04  0.14279511437E+04  0.00000000000E+00 0. -1.
         -1   -1    0    0    0  501 -0.00000000000E+00 -0.00000000000E+00 -0.10196299608E+04  0.10196299608E+04  0.00000000000E+00 0.  1.
         24    2    1    2    0    0  0.62312317950E+03 -0.30005829498E+03  0.10033351873E+04  0.12210785226E+04  0.77677428449E+02 0.  0.
        254    2    1    2    0    0 -0.62312317950E+03  0.30005829498E+03 -0.59501400442E+03  0.12265025819E+04  0.81972522265E+03 0.  0.
         23    2    4    4    0    0  0.27115211947E+01 -0.30148698220E+01 -0.50983542808E+03  0.52022961942E+03  0.10339367198E+03 0.  0.
         23    2    4    4    0    0 -0.62583470070E+03  0.30307316480E+03 -0.85178576339E+02  0.70627296245E+03  0.89686631108E+02 0.  0.
          4    1    3    3  502    0  0.45391719755E+03 -0.19630865283E+03  0.76478660139E+03  0.91075597998E+03  0.00000000000E+00 0. -1.
         -3    1    3    3    0  502  0.16920598195E+03 -0.10374964215E+03  0.23854858595E+03  0.31032254258E+03  0.00000000000E+00 0.  1.
         11    1    5    5    0    0  0.46461996035E+02 -0.14043452442E+02 -0.15202027482E+03  0.15958101262E+03  0.00000000000E+00 0. -1.
        -11    1    5    5    0    0 -0.43750474840E+02  0.11028582620E+02 -0.35781515326E+03  0.36064860680E+03  0.00000000000E+00 0.  1.
          4    1    6    6  503    0 -0.43314691323E+03  0.19954958189E+03 -0.99112453581E+02  0.48709297114E+03  0.00000000000E+00 0. -1.
         -4    1    6    6    0  503 -0.19268778747E+03  0.10352358291E+03  0.13933877242E+02  0.21917999131E+03  0.00000000000E+00 0.  1.
<mgrwt>
<rscale>  0 0.24132814E+04</rscale>
<asrwt>0</asrwt>
<pdfrwt beam="1">  1        2 0.21968479E+00 0.24132814E+04</pdfrwt>
<pdfrwt beam="2">  1       -1 0.15686615E+00 0.24132814E+04</pdfrwt>
<totfact> 0.44072240E+00</totfact>
</mgrwt>
</event>
<event>
12    6  0.1627636E-007  0.1536449E+04  0.7818608E-02  0.8860570E-01
          4   -1    0    0  501    0  0.00000000000E+00  0.00000000000E+00  0.14709492101E+04  0.14709492101E+04  0.00000000000E+00 0. -1.
         -3   -1    0    0    0  501 -0.00000000000E+00 -0.00000000000E+00 -0.40121660003E+03  0.40121660003E+03  0.00000000000E+00 0.  1.
         24    2    1    2    0    0  0.30494309155E+03  0.36756224350E+03  0.11840271703E+03  0.49882693674E+03  0.81956192512E+02 0.  0.
        254    2    1    2    0    0 -0.30494309155E+03 -0.36756224350E+03  0.95132989306E+03  0.13733388734E+04  0.86772046414E+03 0.  0.
         23    2    4    4    0    0  0.28792797785E+03 -0.19968929099E+03  0.28040070373E+03  0.45779699746E+03  0.90416828477E+02 0.  0.
         23    2    4    4    0    0 -0.59287106939E+03 -0.16787295251E+03  0.67092918933E+03  0.91554187596E+03  0.91616136284E+02 0.  0.
          4    1    3    3  502    0  0.86673040465E+02  0.14488236109E+03  0.72156089482E+02  0.18360178579E+03  0.00000000000E+00 0. -1.
         -3    1    3    3    0  502  0.21827005108E+03  0.22267988241E+03  0.46246627550E+02  0.31522515095E+03  0.00000000000E+00 0.  1.
         11    1    5    5    0    0  0.88015752421E+02 -0.11481615240E+03  0.10964230493E+03  0.18152398342E+03  0.00000000000E+00 0.  1.
        -11    1    5    5    0    0  0.19991222543E+03 -0.84873138589E+02  0.17075839880E+03  0.27627301405E+03  0.00000000000E+00 0. -1.
          2    1    6    6  503    0 -0.32838630911E+02  0.95997015668E+01  0.51504931506E+02  0.61832741486E+02  0.00000000000E+00 0.  1.
         -2    1    6    6    0  503 -0.56003243848E+03 -0.17747265408E+03  0.61942425782E+03  0.85370913447E+03  0.00000000000E+00 0. -1.
<mgrwt>
<rscale>  0 0.15364495E+04</rscale>
<asrwt>0</asrwt>
<pdfrwt beam="1">  1        4 0.22629988E+00 0.15364495E+04</pdfrwt>
<pdfrwt beam="2">  1       -3 0.61725631E-01 0.15364495E+04</pdfrwt>
<totfact> 0.50128067E-01</totfact>
</mgrwt>
</event>
<event>
12    6  0.1627636E-007  0.1442966E+04  0.7818608E-02  0.8923291E-01
         -1   -1    0    0    0  501 -0.00000000000E+00  0.00000000000E+00  0.54025768107E+03  0.54025768107E+03  0.00000000000E+00 0.  1.
          2   -1    0    0  501    0  0.00000000000E+00 -0.00000000000E+00 -0.96349914039E+03  0.96349914039E+03  0.00000000000E+00 0. -1.
         24    2    1    2    0    0  0.28282299478E+03  0.18684307135E+03  0.15770563479E+03  0.38222533749E+03  0.79535914445E+02 0.  0.
        254    2    1    2    0    0 -0.28282299478E+03 -0.18684307135E+03 -0.58094709411E+03  0.11215314840E+04  0.89745983960E+03 0.  0.
         23    2    4    4    0    0  0.40467327447E+02 -0.21980882476E+03 -0.71788788093E+03  0.75744494507E+03  0.91685937821E+02 0.  0.
         23    2    4    4    0    0 -0.32329032223E+03  0.32965753404E+02  0.13694078681E+03  0.36408653890E+03  0.90569616172E+02 0.  0.
          2    1    3    3  502    0  0.78928170775E+02  0.68906589327E+02  0.12499001696E+02  0.10551776740E+03  0.00000000000E+00 0. -1.
         -1    1    3    3    0  502  0.20389482401E+03  0.11793648202E+03  0.14520663309E+03  0.27670757009E+03  0.00000000000E+00 0.  1.
         11    1    5    5    0    0 -0.17325921394E+02 -0.12438685894E+03 -0.30732380113E+03  0.33199427250E+03  0.00000000000E+00 0.  1.
        -11    1    5    5    0    0  0.57793248842E+02 -0.95421965819E+02 -0.41056407980E+03  0.42545067257E+03  0.00000000000E+00 0. -1.
          1    1    6    6  503    0 -0.32735201874E+03  0.36931088192E+02  0.12784754683E+03  0.35336701130E+03  0.00000000000E+00 0. -1.
         -1    1    6    6    0  503  0.40616965099E+01 -0.39653347877E+01  0.90932399885E+01  0.10719527602E+02  0.00000000000E+00 0.  1.
<mgrwt>
<rscale>  0 0.14429661E+04</rscale>
<asrwt>0</asrwt>
<pdfrwt beam="1">  1        2 0.14823064E+00 0.14429661E+04</pdfrwt>
<pdfrwt beam="2">  1       -1 0.83116567E-01 0.14429661E+04</pdfrwt>
<totfact> 0.42336126E+01</totfact>
</mgrwt>
</event>
<event>
12    6  0.1627636E-007  0.1362093E+04  0.7818608E-02  0.8981724E-01
         -1   -1    0    0    0  501 -0.00000000000E+00  0.00000000000E+00  0.37167149203E+03  0.37167149203E+03  0.00000000000E+00 0.  1.
          2   -1    0    0  501    0  0.00000000000E+00 -0.00000000000E+00 -0.12479417394E+04  0.12479417394E+04  0.00000000000E+00 0. -1.
         24    2    1    2    0    0  0.19054857631E+03 -0.22071252093E+02  0.13212630703E+03  0.24683961049E+03  0.81710049534E+02 0.  0.
        254    2    1    2    0    0 -0.19054857631E+03  0.22071252093E+02 -0.10083965544E+04  0.13727736209E+04  0.91150858652E+03 0.  0.
         23    2    4    4    0    0 -0.32093294742E+03  0.35405820251E+03 -0.83417232730E+03  0.96539445516E+03  0.88248597310E+02 0.  0.
         23    2    4    4    0    0  0.13038437111E+03 -0.33198695041E+03 -0.17422422709E+03  0.40737916576E+03  0.91587575101E+02 0.  0.
          4    1    3    3  502    0  0.11329817186E+03 -0.36105888113E+01  0.29617098196E+02  0.11716093463E+03  0.00000000000E+00 0. -1.
         -3    1    3    3    0  502  0.77250404448E+02 -0.18460663282E+02  0.10250920883E+03  0.12967867585E+03  0.00000000000E+00 0.  1.
         11    1    5    5    0    0 -0.28846006280E+03  0.28729700710E+03 -0.65192130199E+03  0.76860273360E+03  0.00000000000E+00 0. -1.
        -11    1    5    5    0    0 -0.32472884625E+02  0.66761195410E+02 -0.18225102531E+03  0.19679172156E+03  0.00000000000E+00 0.  1.
          1    1    6    6  503    0  0.13223979837E+03 -0.29258291527E+03 -0.12561422539E+03  0.34477682666E+03  0.00000000000E+00 0. -1.
         -1    1    6    6    0  503 -0.18554272548E+01 -0.39404035145E+02 -0.48610001692E+02  0.62602339098E+02  0.00000000000E+00 0.  1.
<mgrwt>
<rscale>  0 0.13620930E+04</rscale>
<asrwt>0</asrwt>
<pdfrwt beam="1">  1        2 0.19199104E+00 0.13620930E+04</pdfrwt>
<pdfrwt beam="2">  1       -1 0.57180230E-01 0.13620930E+04</pdfrwt>
<totfact> 0.61113092E+01</totfact>
</mgrwt>
</event>
<event>
12    6  0.1627636E-007  0.1980166E+04  0.7818608E-02  0.8615950E-01
         -1   -1    0    0    0  501 -0.00000000000E+00  0.00000000000E+00  0.10880969629E+04  0.10880969629E+04  0.00000000000E+00 0.  1.
          2   -1    0    0  501    0  0.00000000000E+00 -0.00000000000E+00 -0.90089811394E+03  0.90089811394E+03  0.00000000000E+00 0. -1.
         24    2    1    2    0    0  0.32740035477E+03  0.24030155227E+01  0.80201313161E+03  0.86982508843E+03  0.78573878599E+02 0.  0.
        254    2    1    2    0    0 -0.32740035477E+03 -0.24030155227E+01 -0.61481428266E+03  0.11191699884E+04  0.87598407176E+03 0.  0.
         23    2    4    4    0    0 -0.29344205368E+03 -0.41139700462E+03 -0.30162911625E+03  0.59531885532E+03  0.89825839571E+02 0.  0.
         23    2    4    4    0    0 -0.33958301092E+02  0.40899398910E+03 -0.31318516641E+03  0.52385113308E+03  0.88914632281E+02 0.  0.
          2    1    3    3  502    0  0.13498533736E+03  0.38271447219E+02  0.30808055019E+03  0.33852528765E+03  0.00000000000E+00 0. -1.
         -1    1    3    3    0  502  0.19241501741E+03 -0.35868431697E+02  0.49393258142E+03  0.53129980077E+03  0.00000000000E+00 0.  1.
         11    1    5    5    0    0 -0.28901116051E+03 -0.41552200366E+03 -0.29318948194E+03  0.58493252495E+03  0.00000000000E+00 0. -1.
        -11    1    5    5    0    0 -0.44308931688E+01  0.41249990385E+01 -0.84396343064E+01  0.10386330371E+02  0.00000000000E+00 0.  1.
          1    1    6    6  503    0 -0.31952829825E+01  0.23738802069E+03 -0.23049107156E+03  0.33089184980E+03  0.00000000000E+00 0. -1.
         -1    1    6    6    0  503 -0.30763018110E+02  0.17160596841E+03 -0.82694094857E+02  0.19295928327E+03  0.00000000000E+00 0.  1.
<mgrwt>
<rscale>  0 0.19801662E+04</rscale>
<asrwt>0</asrwt>
<pdfrwt beam="1">  1        2 0.13859971E+00 0.19801662E+04</pdfrwt>
<pdfrwt beam="2">  1       -1 0.16739953E+00 0.19801662E+04</pdfrwt>
<totfact> 0.79957442E+00</totfact>
</mgrwt>
</event>
<event>
12    6  0.1627636E-007  0.1920505E+04  0.7818608E-02  0.8644716E-01
          2   -1    0    0  501    0  0.00000000000E+00  0.00000000000E+00  0.33963026333E+04  0.33963026333E+04  0.00000000000E+00 0. -1.
         -1   -1    0    0    0  501 -0.00000000000E+00 -0.00000000000E+00 -0.27149679399E+03  0.27149679399E+03  0.00000000000E+00 0.  1.
         24    2    1    2    0    0  0.64929036995E+03 -0.17599918175E+03  0.60282132088E+03  0.90693408324E+03  0.81130696663E+02 0.  0.
        254    2    1    2    0    0 -0.64929036995E+03  0.17599918175E+03  0.25219845184E+04  0.27608653440E+04  0.89967651979E+03 0.  0.
         23    2    4    4    0    0 -0.57823397858E+03 -0.28180228295E+03  0.15268570097E+04  0.16593567028E+04  0.91680306502E+02 0.  0.
         23    2    4    4    0    0 -0.71056391371E+02  0.45780146470E+03  0.99512750873E+03  0.11015086412E+04  0.91713336736E+02 0.  0.
          4    1    3    3  502    0  0.15931551616E+03 -0.34953470254E+02  0.19362374689E+03  0.25316661339E+03  0.00000000000E+00 0. -1.
         -1    1    3    3    0  502  0.48997485379E+03 -0.14104571149E+03  0.40919757399E+03  0.65376746985E+03  0.00000000000E+00 0.  1.
         11    1    5    5    0    0 -0.48948706420E+03 -0.27089475434E+03  0.12850473855E+04  0.14015449821E+04  0.00000000000E+00 0. -1.
        -11    1    5    5    0    0 -0.88746914385E+02 -0.10907528615E+02  0.24180962416E+03  0.25781172070E+03  0.00000000000E+00 0.  1.
          2    1    6    6  503    0 -0.30287113414E+02  0.39995007095E+03  0.86157078939E+03  0.95035866577E+03  0.00000000000E+00 0. -1.
         -2    1    6    6    0  503 -0.40769277957E+02  0.57851393753E+02  0.13355671934E+03  0.15114997541E+03  0.00000000000E+00 0.  1.
<mgrwt>
<rscale>  0 0.19205054E+04</rscale>
<asrwt>0</asrwt>
<pdfrwt beam="1">  1        2 0.52250807E+00 0.19205054E+04</pdfrwt>
<pdfrwt beam="2">  1       -1 0.41768740E-01 0.19205054E+04</pdfrwt>
<totfact> 0.57737862E+00</totfact>
</mgrwt>
</event>
<event>
12    6  0.1627636E-007  0.1740560E+04  0.7818608E-02  0.8738564E-01
          2   -1    0    0  501    0  0.00000000000E+00  0.00000000000E+00  0.10072165199E+04  0.10072165199E+04  0.00000000000E+00 0. -1.
         -1   -1    0    0    0  501 -0.00000000000E+00 -0.00000000000E+00 -0.75196034866E+03  0.75196034866E+03  0.00000000000E+00 0.  1.
         24    2    1    2    0    0  0.31412626365E+03 -0.10992761348E+02  0.64490193246E+03  0.72257512526E+03  0.86140343828E+02 0.  0.
        254    2    1    2    0    0 -0.31412626365E+03  0.10992761348E+02 -0.38964576124E+03  0.10366017433E+04  0.90770215632E+03 0.  0.
         23    2    4    4    0    0 -0.18366584779E+03 -0.16303018687E+03  0.24504097508E+03  0.35935889357E+03  0.93710988927E+02 0.  0.
         23    2    4    4    0    0 -0.13046041586E+03  0.17402294822E+03 -0.63468673632E+03  0.67724284971E+03  0.92340227418E+02 0.  0.
          4    1    3    3  502    0  0.21557754079E+03  0.14595993600E+01  0.52051341644E+03  0.56339153634E+03  0.00000000000E+00 0. -1.
         -3    1    3    3    0  502  0.98548722855E+02 -0.12452360708E+02  0.12438851603E+03  0.15918358892E+03  0.00000000000E+00 0.  1.
         11    1    5    5    0    0 -0.11702905341E+03 -0.13170185744E+03  0.21940762609E+03  0.28139098241E+03  0.00000000000E+00 0. -1.
        -11    1    5    5    0    0 -0.66636794383E+02 -0.31328329423E+02  0.25633348989E+02  0.77967911159E+02  0.00000000000E+00 0.  1.
          4    1    6    6  503    0 -0.12954595331E+03  0.18439443890E+03 -0.61472104778E+03  0.65472546132E+03  0.00000000000E+00 0. -1.
         -4    1    6    6    0  503 -0.91446254868E+00 -0.10371490682E+02 -0.19965688544E+02  0.22517388386E+02  0.00000000000E+00 0.  1.
<mgrwt>
<rscale>  0 0.17405595E+04</rscale>
<asrwt>0</asrwt>
<pdfrwt beam="1">  1        2 0.15495639E+00 0.17405595E+04</pdfrwt>
<pdfrwt beam="2">  1       -1 0.11568621E+00 0.17405595E+04</pdfrwt>
<totfact> 0.18250885E+01</totfact>
</mgrwt>
</event>
<event>
12    6  0.1627636E-007  0.2266485E+04  0.7818608E-02  0.8491254E-01
         -1   -1    0    0    0  501 -0.00000000000E+00  0.00000000000E+00  0.35922878990E+03  0.35922878990E+03  0.00000000000E+00 0.  1.
          2   -1    0    0  501    0  0.00000000000E+00 -0.00000000000E+00 -0.35749867093E+04  0.35749867093E+04  0.00000000000E+00 0. -1.
         24    2    1    2    0    0  0.63129455849E+02 -0.61654456562E+03 -0.26055077206E+04  0.26794069480E+04  0.80240768454E+02 0.  0.
        254    2    1    2    0    0 -0.63129455849E+02  0.61654456562E+03 -0.61025019877E+03  0.12548085512E+04  0.90444826583E+03 0.  0.
         23    2    4    4    0    0 -0.40863720594E+03  0.24536426920E+03 -0.55380737900E+03  0.73627055588E+03  0.90574432089E+02 0.  0.
         23    2    4    4    0    0  0.34550775009E+03  0.37118029642E+03 -0.56442819773E+02  0.51853799536E+03  0.92441564782E+02 0.  0.
          4    1    3    3  502    0  0.34118249175E+00 -0.35704161440E+03 -0.14187551741E+04  0.14629918233E+04  0.00000000000E+00 0. -1.
         -3    1    3    3    0  502  0.62788273357E+02 -0.25950295122E+03 -0.11867525465E+04  0.12164151247E+04  0.00000000000E+00 0.  1.
         11    1    5    5    0    0 -0.10211266633E+03  0.10626845673E+03 -0.19286338679E+03  0.24272673418E+03  0.00000000000E+00 0.  1.
        -11    1    5    5    0    0 -0.30652453961E+03  0.13909581247E+03 -0.36094399220E+03  0.49354382170E+03  0.00000000000E+00 0. -1.
          1    1    6    6  503    0  0.15016649174E+03  0.21387874142E+03 -0.58179764169E+02  0.26772929655E+03  0.00000000000E+00 0. -1.
         -1    1    6    6    0  503  0.19534125835E+03  0.15730155500E+03  0.17369443960E+01  0.25080869881E+03  0.00000000000E+00 0.  1.
<mgrwt>
<rscale>  0 0.22664846E+04</rscale>
<asrwt>0</asrwt>
<pdfrwt beam="1">  1        2 0.54999796E+00 0.22664846E+04</pdfrwt>
<pdfrwt beam="2">  1       -1 0.55265968E-01 0.22664846E+04</pdfrwt>
<totfact> 0.24714123E+00</totfact>
</mgrwt>
</event>
<event>
12    6  0.1627636E-007  0.3423046E+04  0.7818608E-02  0.8132273E-01
         -1   -1    0    0    0  501 -0.00000000000E+00  0.00000000000E+00  0.14101521707E+04  0.14101521707E+04  0.00000000000E+00 0.  1.
          2   -1    0    0  501    0  0.00000000000E+00 -0.00000000000E+00 -0.20773010982E+04  0.20773010982E+04  0.00000000000E+00 0. -1.
         24    2    1    2    0    0 -0.14301982333E+04  0.29207914956E+03  0.33183815805E+03  0.14989798780E+04  0.77761787022E+02 0.  0.
        254    2    1    2    0    0  0.14301982333E+04 -0.29207914956E+03 -0.99898708551E+03  0.19884733908E+04  0.90844593288E+03 0.  0.
         23    2    4    4    0    0  0.44679019782E+03 -0.16231076719E+03 -0.85358664775E+03  0.98177266802E+03  0.96442420399E+02 0.  0.
         23    2    4    4    0    0  0.98340803547E+03 -0.12976838237E+03 -0.14540043776E+03  0.10067007228E+04  0.91508801423E+02 0.  0.
          2    1    3    3  502    0 -0.38417695577E+01 -0.13719174337E+01 -0.26027645889E+01  0.48389807072E+01  0.00000000000E+00 0. -1.
         -1    1    3    3    0  502 -0.14263564637E+04  0.29345106699E+03  0.33444092264E+03  0.14941408973E+04  0.00000000000E+00 0.  1.
         11    1    5    5    0    0  0.33638880609E+02 -0.42634251973E+02 -0.81062621504E+02  0.97572549086E+02  0.00000000000E+00 0.  1.
        -11    1    5    5    0    0  0.41315131721E+03 -0.11967651522E+03 -0.77252402624E+03  0.88420011893E+03  0.00000000000E+00 0. -1.
          1    1    6    6  503    0  0.62627502589E+03 -0.12525854351E+03 -0.10519070338E+03  0.64728293262E+03  0.00000000000E+00 0. -1.
         -1    1    6    6    0  503  0.35713300957E+03 -0.45098388548E+01 -0.40209734386E+02  0.35941779020E+03  0.00000000000E+00 0.  1.
<mgrwt>
<rscale>  0 0.34230458E+04</rscale>
<asrwt>0</asrwt>
<pdfrwt beam="1">  1        2 0.31958478E+00 0.34230458E+04</pdfrwt>
<pdfrwt beam="2">  1       -1 0.21694649E+00 0.34230458E+04</pdfrwt>
<totfact> 0.65642923E-01</totfact>
</mgrwt>
</event>
<event>
12    6  0.1627636E-007  0.1560405E+04  0.7818608E-02  0.8845249E-01
         -1   -1    0    0    0  501 -0.00000000000E+00  0.00000000000E+00  0.79872039491E+03  0.79872039491E+03  0.00000000000E+00 0.  1.
          2   -1    0    0  501    0  0.00000000000E+00 -0.00000000000E+00 -0.76211426297E+03  0.76211426297E+03  0.00000000000E+00 0. -1.
         24    2    1    2    0    0 -0.36235219773E+03 -0.31083514790E+03 -0.10543585223E+03  0.49490337834E+03  0.76779102548E+02 0.  0.
        254    2    1    2    0    0  0.36235219773E+03  0.31083514790E+03  0.14204198417E+03  0.10659312795E+04  0.94239904662E+03 0.  0.
         23    2    4    4    0    0  0.27408810296E+03  0.30449301719E+03 -0.35691935652E+03  0.55116810886E+03  0.92490926350E+02 0.  0.
         23    2    4    4    0    0  0.88264094766E+02  0.63421307040E+01  0.49896134069E+03  0.51476317068E+03  0.90487177776E+02 0.  0.
          2    1    3    3  502    0 -0.33871063208E+03 -0.30901771564E+03 -0.91943700123E+02  0.46762216035E+03  0.00000000000E+00 0. -1.
         -1    1    3    3    0  502 -0.23641565653E+02 -0.18174322638E+01 -0.13492152106E+02  0.27281217990E+02  0.00000000000E+00 0.  1.
         11    1    5    5    0    0  0.10917198197E+03  0.18997675365E+03 -0.18006293595E+03  0.28360597575E+03  0.00000000000E+00 0.  1.
        -11    1    5    5    0    0  0.16491612099E+03  0.11451626354E+03 -0.17685642057E+03  0.26756213311E+03  0.00000000000E+00 0. -1.
          1    1    6    6  503    0  0.85222382161E+02  0.12847307602E+02  0.50011766162E+03  0.50748949072E+03  0.00000000000E+00 0. -1.
         -1    1    6    6    0  503  0.30417126048E+01 -0.65051768978E+01 -0.11563209284E+01  0.72736799580E+01  0.00000000000E+00 0.  1.
<mgrwt>
<rscale>  0 0.15604053E+04</rscale>
<asrwt>0</asrwt>
<pdfrwt beam="1">  1        2 0.11724835E+00 0.15604053E+04</pdfrwt>
<pdfrwt beam="2">  1       -1 0.12288006E+00 0.15604053E+04</pdfrwt>
<totfact> 0.23557397E+01</totfact>
</mgrwt>
</event>
<event>
12    6  0.1627636E-007  0.1451484E+04  0.7818608E-02  0.8917372E-01
         -1   -1    0    0    0  501 -0.00000000000E+00  0.00000000000E+00  0.33940136394E+03  0.33940136394E+03  0.00000000000E+00 0.  1.
          2   -1    0    0  501    0  0.00000000000E+00 -0.00000000000E+00 -0.15518542212E+04  0.15518542212E+04  0.00000000000E+00 0. -1.
         24    2    1    2    0    0 -0.38431594327E+02 -0.33420236008E+03 -0.75327612747E+03  0.83015197193E+03  0.92515768219E+02 0.  0.
        254    2    1    2    0    0  0.38431594327E+02  0.33420236008E+03 -0.45917672984E+03  0.10611036132E+04  0.89550511104E+03 0.  0.
         23    2    4    4    0    0  0.28367079400E+03 -0.15188415488E+03  0.13560701524E+02  0.33429492289E+03  0.89617447948E+02 0.  0.
         23    2    4    4    0    0 -0.24523919967E+03  0.48608651496E+03 -0.47273743137E+03  0.72680869036E+03  0.91366450525E+02 0.  0.
          2    1    3    3  502    0 -0.31352598820E+02 -0.31272431591E+03 -0.73988154364E+03  0.80386826149E+03  0.00000000000E+00 0. -1.
         -1    1    3    3    0  502 -0.70789955063E+01 -0.21478044170E+02 -0.13394583827E+02  0.26283710443E+02  0.00000000000E+00 0.  1.
         11    1    5    5    0    0  0.26478052082E+03 -0.11111452786E+03  0.24043736496E+02  0.28815493015E+03  0.00000000000E+00 0. -1.
        -11    1    5    5    0    0  0.18890273180E+02 -0.40769627019E+02 -0.10483034972E+02  0.46139992743E+02  0.00000000000E+00 0.  1.
          1    1    6    6  503    0 -0.59998670247E+02  0.21775164825E+03 -0.18573250076E+03  0.29242466139E+03  0.00000000000E+00 0. -1.
         -1    1    6    6    0  503 -0.18524052942E+03  0.26833486670E+03 -0.28700493061E+03  0.43438402897E+03  0.00000000000E+00 0.  1.
<mgrwt>
<rscale>  0 0.14514840E+04</rscale>
<asrwt>0</asrwt>
<pdfrwt beam="1">  1        2 0.23874680E+00 0.14514840E+04</pdfrwt>
<pdfrwt beam="2">  1       -1 0.52215595E-01 0.14514840E+04</pdfrwt>
<totfact> 0.48432475E+01</totfact>
</mgrwt>
</event>
<event>
12    6  0.1627636E-007  0.1675568E+04  0.7818608E-02  0.8775423E-01
          2   -1    0    0  501    0  0.00000000000E+00  0.00000000000E+00  0.23351820336E+04  0.23351820336E+04  0.00000000000E+00 0. -1.
         -1   -1    0    0    0  501 -0.00000000000E+00 -0.00000000000E+00 -0.30056852657E+03  0.30056852657E+03  0.00000000000E+00 0.  1.
         24    2    1    2    0    0  0.42347311408E+03 -0.25677989406E+03  0.20483695924E+03  0.54193021155E+03  0.80403867913E+02 0.  0.
        254    2    1    2    0    0 -0.42347311408E+03  0.25677989406E+03  0.18297765477E+04  0.20938203486E+04  0.88923340306E+03 0.  0.
         23    2    4    4    0    0  0.22305156003E+03 -0.71210025123E+02  0.73944989561E+03  0.78113518364E+03  0.92537348705E+02 0.  0.
         23    2    4    4    0    0 -0.64652467411E+03  0.32798991918E+03  0.10903266521E+04  0.13126851649E+04  0.93587352608E+02 0.  0.
          4    1    3    3  502    0  0.13317172380E+03 -0.79590898461E+02  0.24799038009E+02  0.15711273476E+03  0.00000000000E+00 0. -1.
         -3    1    3    3    0  502  0.29030139028E+03 -0.17718899560E+03  0.18003792123E+03  0.38481747679E+03  0.00000000000E+00 0.  1.
         11    1    5    5    0    0  0.10981341787E+03 -0.56372342028E+02  0.51140372375E+03  0.52608991281E+03  0.00000000000E+00 0.  1.
        -11    1    5    5    0    0  0.11323814216E+03 -0.14837683095E+02  0.22804617185E+03  0.25504527084E+03  0.00000000000E+00 0. -1.
          1    1    6    6  503    0 -0.31561273414E+03  0.15037306291E+03  0.60847148758E+03  0.70175566061E+03  0.00000000000E+00 0. -1.
         -1    1    6    6    0  503 -0.33091193998E+03  0.17761685627E+03  0.48185516455E+03  0.61092950433E+03  0.00000000000E+00 0.  1.
<mgrwt>
<rscale>  0 0.16755682E+04</rscale>
<asrwt>0</asrwt>
<pdfrwt beam="1">  1        2 0.35925876E+00 0.16755682E+04</pdfrwt>
<pdfrwt beam="2">  1       -1 0.46241313E-01 0.16755682E+04</pdfrwt>
<totfact> 0.21897704E+01</totfact>
</mgrwt>
</event>
<event>
12    6  0.1627636E-007  0.4495072E+04  0.7818608E-02  0.7911500E-01
          2   -1    0    0  501    0  0.00000000000E+00  0.00000000000E+00  0.30178115139E+04  0.30178115139E+04  0.00000000000E+00 0. -1.
         -1   -1    0    0    0  501 -0.00000000000E+00 -0.00000000000E+00 -0.16738680982E+04  0.16738680982E+04  0.00000000000E+00 0.  1.
         24    2    1    2    0    0  0.17175559969E+04 -0.13046478983E+04  0.60471149034E+03  0.22413519600E+04  0.76667338152E+02 0.  0.
        254    2    1    2    0    0 -0.17175559969E+04  0.13046478983E+04  0.73923192539E+03  0.24503276521E+04  0.89751714314E+03 0.  0.
         23    2    4    4    0    0 -0.11277801267E+04  0.31958438358E+03  0.47831911341E+03  0.12693274936E+04  0.91547361832E+02 0.  0.
         23    2    4    4    0    0 -0.58977587023E+03  0.98506351469E+03  0.26091281198E+03  0.11810001585E+04  0.92196387232E+02 0.  0.
          2    1    3    3  502    0  0.53791163994E+03 -0.42925768724E+03  0.16008325834E+03  0.70656757924E+03  0.00000000000E+00 0. -1.
         -1    1    3    3    0  502  0.11796443570E+04 -0.87539021103E+03  0.44462823201E+03  0.15347843807E+04  0.00000000000E+00 0.  1.
         11    1    5    5    0    0 -0.84903254801E+03  0.25535084776E+03  0.32137756712E+03  0.94305029754E+03  0.00000000000E+00 0.  1.
        -11    1    5    5    0    0 -0.27874757869E+03  0.64233535822E+02  0.15694154628E+03  0.32627719611E+03  0.00000000000E+00 0. -1.
          3    1    6    6  503    0 -0.40750516149E+03  0.60427232776E+03  0.18655520503E+03  0.75233526254E+03  0.00000000000E+00 0. -1.
         -3    1    6    6    0  503 -0.18227070874E+03  0.38079118693E+03  0.74357606955E+02  0.42866489595E+03  0.00000000000E+00 0.  1.
<mgrwt>
<rscale>  0 0.44950722E+04</rscale>
<asrwt>0</asrwt>
<pdfrwt beam="1">  1        2 0.46427869E+00 0.44950722E+04</pdfrwt>
<pdfrwt beam="2">  1       -1 0.25751817E+00 0.44950722E+04</pdfrwt>
<totfact> 0.90942481E-02</totfact>
</mgrwt>
</event>
<event>
12    6  0.1627636E-007  0.1335081E+04  0.7818608E-02  0.9002199E-01
          2   -1    0    0  501    0  0.00000000000E+00  0.00000000000E+00  0.89271112144E+03  0.89271112144E+03  0.00000000000E+00 0. -1.
         -1   -1    0    0    0  501 -0.00000000000E+00 -0.00000000000E+00 -0.49916521759E+03  0.49916521759E+03  0.00000000000E+00 0.  1.
         24    2    1    2    0    0  0.54512180467E+02  0.38468350584E+02  0.47577445464E+03  0.49006892895E+03  0.96720378498E+02 0.  0.
        254    2    1    2    0    0 -0.54512180467E+02 -0.38468350584E+02 -0.82228550792E+02  0.90180741007E+03  0.89556891331E+03 0.  0.
         23    2    4    4    0    0  0.14045037205E+03  0.30841113810E+03 -0.27921558910E+03  0.44856521849E+03  0.91682457073E+02 0.  0.
         23    2    4    4    0    0 -0.19496255251E+03 -0.34687948868E+03  0.19698703831E+03  0.45324219158E+03  0.91042926243E+02 0.  0.
          4    1    3    3  502    0  0.33021574321E+02 -0.15661700896E+02  0.34477379045E+03  0.34670546553E+03  0.00000000000E+00 0. -1.
         -3    1    3    3    0  502  0.21490606146E+02  0.54130051479E+02  0.13100066419E+03  0.14336346342E+03  0.00000000000E+00 0.  1.
         11    1    5    5    0    0 -0.45878162875E+00  0.56320753794E+02 -0.79529344924E+02  0.97453345210E+02  0.00000000000E+00 0. -1.
        -11    1    5    5    0    0  0.14090915367E+03  0.25209038430E+03 -0.19968624417E+03  0.35111187328E+03  0.00000000000E+00 0.  1.
          1    1    6    6  503    0 -0.79409519254E+02 -0.66881408859E+02  0.33855752771E+02  0.10920259427E+03  0.00000000000E+00 0. -1.
         -1    1    6    6    0  503 -0.11555303326E+03 -0.27999807982E+03  0.16313128553E+03  0.34403959731E+03  0.00000000000E+00 0.  1.
<mgrwt>
<rscale>  0 0.13350810E+04</rscale>
<asrwt>0</asrwt>
<pdfrwt beam="1">  1        2 0.13734017E+00 0.13350810E+04</pdfrwt>
<pdfrwt beam="2">  1       -1 0.76794648E-01 0.13350810E+04</pdfrwt>
<totfact> 0.56321750E+01</totfact>
</mgrwt>
</event>
<event>
12    6  0.1627636E-007  0.2058990E+04  0.7818608E-02  0.8579527E-01
          2   -1    0    0  501    0  0.00000000000E+00  0.00000000000E+00  0.12608891161E+04  0.12608891161E+04  0.00000000000E+00 0. -1.
         -1   -1    0    0    0  501 -0.00000000000E+00 -0.00000000000E+00 -0.84056569261E+03  0.84056569261E+03  0.00000000000E+00 0.  1.
         24    2    1    2    0    0 -0.68176922501E+03  0.18503603698E+03 -0.27497200063E+03  0.76232608674E+03  0.80522358658E+02 0.  0.
        254    2    1    2    0    0  0.68176922501E+03 -0.18503603698E+03  0.69529542410E+03  0.13391287219E+04  0.90043455954E+03 0.  0.
         23    2    4    4    0    0  0.28501143996E+03  0.20689408284E+03 -0.87050162708E+02  0.37395395944E+03  0.90703641192E+02 0.  0.
         23    2    4    4    0    0  0.39675778505E+03 -0.39193011983E+03  0.78234558681E+03  0.96517476251E+03  0.92042089099E+02 0.  0.
          4    1    3    3  502    0 -0.45482390019E+03  0.13614494159E+03 -0.22251370696E+03  0.52432106108E+03  0.00000000000E+00 0. -1.
         -3    1    3    3    0  502 -0.22694532482E+03  0.48891095398E+02 -0.52458293664E+02  0.23800502566E+03  0.00000000000E+00 0.  1.
         11    1    5    5    0    0  0.27072360327E+03  0.19939440771E+03 -0.10261061950E+03  0.35153710819E+03  0.00000000000E+00 0. -1.
        -11    1    5    5    0    0  0.14287836689E+02  0.74996751327E+01  0.15560456796E+02  0.22416851252E+02  0.00000000000E+00 0.  1.
          1    1    6    6  503    0  0.24917205598E+03 -0.30257199472E+03  0.56568610041E+03  0.68821311355E+03  0.00000000000E+00 0. -1.
         -1    1    6    6    0  503  0.14758572907E+03 -0.89358125111E+02  0.21665948640E+03  0.27696164896E+03  0.00000000000E+00 0.  1.
<mgrwt>
<rscale>  0 0.20589902E+04</rscale>
<asrwt>0</asrwt>
<pdfrwt beam="1">  1        2 0.19398294E+00 0.20589902E+04</pdfrwt>
<pdfrwt beam="2">  1       -1 0.12931780E+00 0.20589902E+04</pdfrwt>
<totfact> 0.94414882E+00</totfact>
</mgrwt>
</event>
<event>
12    6  0.1627636E-007  0.3144196E+04  0.7818608E-02  0.8203712E-01
          2   -1    0    0  501    0  0.00000000000E+00  0.00000000000E+00  0.19335928838E+04  0.19335928838E+04  0.00000000000E+00 0. -1.
         -1   -1    0    0    0  501 -0.00000000000E+00 -0.00000000000E+00 -0.12781865810E+04  0.12781865810E+04  0.00000000000E+00 0.  1.
         24    2    1    2    0    0 -0.42338996632E+03  0.24146154288E+03 -0.10965945688E+04  0.12026466521E+04  0.79224878064E+02 0.  0.
        254    2    1    2    0    0  0.42338996632E+03 -0.24146154288E+03  0.17520008717E+04  0.20091328127E+04  0.85413398498E+03 0.  0.
         23    2    4    4    0    0  0.14956898870E+03 -0.51846563108E+03  0.73857392064E+03  0.91955085873E+03  0.94365526254E+02 0.  0.
         23    2    4    4    0    0  0.27382097762E+03  0.27700408820E+03  0.10134269510E+04  0.10895819539E+04  0.91899165357E+02 0.  0.
          4    1    3    3  502    0 -0.66598554568E+02  0.23489435103E+02 -0.10532636532E+03  0.12680995333E+03  0.00000000000E+00 0. -1.
         -3    1    3    3    0  502 -0.35679141175E+03  0.21797210777E+03 -0.99126820348E+03  0.10758366988E+04  0.00000000000E+00 0.  1.
         11    1    5    5    0    0  0.11901980736E+03 -0.27181874777E+03  0.44561554686E+03  0.53537310521E+03  0.00000000000E+00 0. -1.
        -11    1    5    5    0    0  0.30549181343E+02 -0.24664688331E+03  0.29295837378E+03  0.38417775352E+03  0.00000000000E+00 0.  1.
          2    1    6    6  503    0  0.44634931640E+02  0.12291488607E+02  0.77145231777E+02  0.89970798599E+02  0.00000000000E+00 0.  1.
         -2    1    6    6    0  503  0.22918604598E+03  0.26471259959E+03  0.93628171926E+03  0.99961115534E+03  0.00000000000E+00 0. -1.
<mgrwt>
<rscale>  0 0.31441962E+04</rscale>
<asrwt>0</asrwt>
<pdfrwt beam="1">  1        2 0.29747583E+00 0.31441962E+04</pdfrwt>
<pdfrwt beam="2">  1       -1 0.19664409E+00 0.31441962E+04</pdfrwt>
<totfact> 0.11115332E+00</totfact>
</mgrwt>
</event>
<event>
12    6  0.1627636E-007  0.1874147E+04  0.7818608E-02  0.8667833E-01
         -1   -1    0    0    0  501 -0.00000000000E+00  0.00000000000E+00  0.53219691914E+03  0.53219691914E+03  0.00000000000E+00 0.  1.
          2   -1    0    0  501    0  0.00000000000E+00 -0.00000000000E+00 -0.16499650525E+04  0.16499650525E+04  0.00000000000E+00 0. -1.
         24    2    1    2    0    0  0.15263407391E+03  0.55495374350E+03 -0.93141934683E+03  0.10979663545E+04  0.81959123655E+02 0.  0.
        254    2    1    2    0    0 -0.15263407391E+03 -0.55495374350E+03 -0.18634878650E+03  0.10841956171E+04  0.89971298093E+03 0.  0.
         23    2    4    4    0    0 -0.37327485307E+03  0.70156741403E+02 -0.13361864487E+03  0.41312066014E+03  0.92512989798E+02 0.  0.
         23    2    4    4    0    0  0.22064077916E+03 -0.62511048490E+03 -0.52730141630E+02  0.67107495701E+03  0.90086948655E+02 0.  0.
          2    1    3    3  502    0  0.15133788878E+03  0.42636066643E+03 -0.74065887085E+03  0.86790675618E+03  0.00000000000E+00 0. -1.
         -1    1    3    3    0  502  0.12961851226E+01  0.12859307707E+03 -0.19076047598E+03  0.23005959828E+03  0.00000000000E+00 0.  1.
         11    1    5    5    0    0 -0.25446896178E+03  0.69024785739E+02 -0.51379912793E+02  0.26862384294E+03  0.00000000000E+00 0.  1.
        -11    1    5    5    0    0 -0.11880589128E+03  0.11319556639E+01 -0.82238732076E+02  0.14449681720E+03  0.00000000000E+00 0. -1.
          3    1    6    6  503    0  0.29808074915E+02 -0.13161141016E+03 -0.43846445186E+02  0.14188937723E+03  0.00000000000E+00 0.  1.
         -3    1    6    6    0  503  0.19083270424E+03 -0.49349907474E+03 -0.88836964441E+01  0.52918557977E+03  0.00000000000E+00 0. -1.
<mgrwt>
<rscale>  0 0.18741465E+04</rscale>
<asrwt>0</asrwt>
<pdfrwt beam="1">  1        2 0.25384078E+00 0.18741465E+04</pdfrwt>
<pdfrwt beam="2">  1       -1 0.81876449E-01 0.18741465E+04</pdfrwt>
<totfact> 0.16594314E+01</totfact>
</mgrwt>
</event>
<event>
12    6  0.1627636E-007  0.1420803E+04  0.7818608E-02  0.8938897E-01
         -1   -1    0    0    0  501 -0.00000000000E+00  0.00000000000E+00  0.14346882453E+03  0.14346882453E+03  0.00000000000E+00 0.  1.
          2   -1    0    0  501    0  0.00000000000E+00 -0.00000000000E+00 -0.35176297654E+04  0.35176297654E+04  0.00000000000E+00 0. -1.
         24    2    1    2    0    0  0.12797018477E+03 -0.14601792590E+03 -0.19962674275E+04  0.20072766744E+04  0.79864901139E+02 0.  0.
        254    2    1    2    0    0 -0.12797018477E+03  0.14601792590E+03 -0.13778935133E+04  0.16538219155E+04  0.89377781992E+03 0.  0.
         23    2    4    4    0    0 -0.40024790823E+03  0.35293572362E+03 -0.66273959586E+03  0.85616348313E+03  0.95026969169E+02 0.  0.
         23    2    4    4    0    0  0.27227772346E+03 -0.20691779773E+03 -0.71515391747E+03  0.79765843241E+03  0.88677592560E+02 0.  0.
          4    1    3    3  502    0  0.74043088718E+02 -0.12640630935E+03 -0.16264139620E+04  0.16329982578E+04  0.00000000000E+00 0. -1.
         -3    1    3    3    0  502  0.53927096049E+02 -0.19611616547E+02 -0.36985346549E+03  0.37427841659E+03  0.00000000000E+00 0.  1.
         11    1    5    5    0    0 -0.39904450240E+03  0.35527992066E+03 -0.66474944123E+03  0.85284943368E+03  0.00000000000E+00 0. -1.
        -11    1    5    5    0    0 -0.12034058302E+01 -0.23441970380E+01  0.20098453654E+01  0.33140494471E+01  0.00000000000E+00 0.  1.
          4    1    6    6  503    0  0.20508403007E+03 -0.14201871947E+03 -0.42461043072E+03  0.49246603329E+03  0.00000000000E+00 0. -1.
         -4    1    6    6    0  503  0.67193693388E+02 -0.64899078256E+02 -0.29054348675E+03  0.30519239912E+03  0.00000000000E+00 0.  1.
<mgrwt>
<rscale>  0 0.14208029E+04</rscale>
<asrwt>0</asrwt>
<pdfrwt beam="1">  1        2 0.54117376E+00 0.14208029E+04</pdfrwt>
<pdfrwt beam="2">  1       -1 0.22072129E-01 0.14208029E+04</pdfrwt>
<totfact> 0.15406660E+01</totfact>
</mgrwt>
</event>
<event>
12    6  0.1627636E-007  0.1877115E+04  0.7818608E-02  0.8666332E-01
         -1   -1    0    0    0  501 -0.00000000000E+00  0.00000000000E+00  0.11174686436E+04  0.11174686436E+04  0.00000000000E+00 0.  1.
          2   -1    0    0  501    0  0.00000000000E+00 -0.00000000000E+00 -0.78829055449E+03  0.78829055449E+03  0.00000000000E+00 0. -1.
         24    2    1    2    0    0 -0.70544518296E+03  0.88866164386E+02  0.11655563490E+02  0.71572566543E+03  0.81100398606E+02 0.  0.
        254    2    1    2    0    0  0.70544518296E+03 -0.88866164386E+02  0.31752252567E+03  0.11900335327E+04  0.89989396783E+03 0.  0.
         23    2    4    4    0    0 -0.57449939450E+02 -0.32451744235E+03  0.12722566496E+03  0.36417372333E+03  0.88453745021E+02 0.  0.
         23    2    4    4    0    0  0.76289512241E+03  0.23565127797E+03  0.19029686071E+03  0.82585980938E+03  0.91055131331E+02 0.  0.
          2    1    3    3  502    0 -0.47564766401E+03  0.88118482644E+02  0.33446246637E+02  0.48489609060E+03  0.00000000000E+00 0. -1.
         -1    1    3    3    0  502 -0.22979751895E+03  0.74768174117E+00 -0.21790683147E+02  0.23082957483E+03  0.00000000000E+00 0.  1.
         11    1    5    5    0    0 -0.53688646501E+01 -0.73303389978E+02  0.69602883308E+02  0.10122634565E+03  0.00000000000E+00 0. -1.
        -11    1    5    5    0    0 -0.52081074800E+02 -0.25121405237E+03  0.57622781654E+02  0.26294737768E+03  0.00000000000E+00 0.  1.
          4    1    6    6  503    0  0.51120586072E+02  0.12800885898E+02 -0.98840404609E+01  0.53617825916E+02  0.00000000000E+00 0. -1.
         -4    1    6    6    0  503  0.71177453634E+03  0.22285039207E+03  0.20018090117E+03  0.77224198346E+03  0.00000000000E+00 0.  1.
<mgrwt>
<rscale>  0 0.18771148E+04</rscale>
<asrwt>0</asrwt>
<pdfrwt beam="1">  1        2 0.12127547E+00 0.18771148E+04</pdfrwt>
<pdfrwt beam="2">  1       -1 0.17191825E+00 0.18771148E+04</pdfrwt>
<totfact> 0.89616923E+00</totfact>
</mgrwt>
</event>
<event>
12    6  0.1627636E-007  0.1811644E+04  0.7818608E-02  0.8700132E-01
          2   -1    0    0  501    0  0.00000000000E+00  0.00000000000E+00  0.10513717944E+04  0.10513717944E+04  0.00000000000E+00 0. -1.
         -1   -1    0    0    0  501 -0.00000000000E+00 -0.00000000000E+00 -0.78042213369E+03  0.78042213369E+03  0.00000000000E+00 0.  1.
         24    2    1    2    0    0 -0.25626775703E+03  0.62977345726E+03  0.47970202232E+02  0.68622137352E+03  0.79440936646E+02 0.  0.
        254    2    1    2    0    0  0.25626775703E+03 -0.62977345726E+03  0.22297945845E+03  0.11455725545E+04  0.89461101494E+03 0.  0.
         23    2    4    4    0    0  0.36905002840E+03 -0.13002216534E+03  0.42691756822E+03  0.58669570116E+03  0.94072040309E+02 0.  0.
         23    2    4    4    0    0 -0.11278227137E+03 -0.49975129192E+03 -0.20393810978E+03  0.55887685337E+03  0.91002143403E+02 0.  0.
          2    1    3    3  502    0 -0.17446954347E+03  0.37933553395E+03  0.63358884586E+02  0.42231435823E+03  0.00000000000E+00 0. -1.
         -1    1    3    3    0  502 -0.81798213561E+02  0.25043792331E+03 -0.15388682354E+02  0.26390701529E+03  0.00000000000E+00 0.  1.
         11    1    5    5    0    0  0.23001040954E+03 -0.41976871407E+02  0.20890695850E+03  0.31354260243E+03  0.00000000000E+00 0. -1.
        -11    1    5    5    0    0  0.13903961886E+03 -0.88045293931E+02  0.21801060972E+03  0.27315309873E+03  0.00000000000E+00 0.  1.
          2    1    6    6  503    0 -0.11217470315E+03 -0.32622047646E+03 -0.15760813881E+03  0.37926677776E+03  0.00000000000E+00 0. -1.
         -2    1    6    6    0  503 -0.60756821735E+00 -0.17353081546E+03 -0.46329970963E+02  0.17961007561E+03  0.00000000000E+00 0.  1.
<mgrwt>
<rscale>  0 0.18116444E+04</rscale>
<asrwt>0</asrwt>
<pdfrwt beam="1">  1        2 0.16174951E+00 0.18116444E+04</pdfrwt>
<pdfrwt beam="2">  1       -1 0.12006494E+00 0.18116444E+04</pdfrwt>
<totfact> 0.15541951E+01</totfact>
</mgrwt>
</event>
<event>
12    6  0.1627636E-007  0.1511794E+04  0.7818608E-02  0.8876648E-01
          2   -1    0    0  501    0  0.00000000000E+00  0.00000000000E+00  0.47842201997E+03  0.47842201997E+03  0.00000000000E+00 0. -1.
         -1   -1    0    0    0  501 -0.00000000000E+00 -0.00000000000E+00 -0.11943018127E+04  0.11943018127E+04  0.00000000000E+00 0.  1.
         24    2    1    2    0    0  0.42692739534E+03 -0.24846225986E+02 -0.49355636302E+03  0.65787256259E+03  0.79461243968E+02 0.  0.
        254    2    1    2    0    0 -0.42692739534E+03  0.24846225986E+02 -0.22232342971E+03  0.10148512701E+04  0.89309073287E+03 0.  0.
         23    2    4    4    0    0 -0.56691804080E+03  0.22487785983E+03  0.72713812306E+02  0.62099193795E+03  0.91529075534E+02 0.  0.
         23    2    4    4    0    0  0.13999064546E+03 -0.20003163385E+03 -0.29503724202E+03  0.39385933213E+03  0.92022627491E+02 0.  0.
          2    1    3    3  502    0  0.37453025754E+03 -0.11108071628E+02 -0.38894633926E+03  0.54006995648E+03  0.00000000000E+00 0. -1.
         -3    1    3    3    0  502  0.52397137796E+02 -0.13738154358E+02 -0.10461002376E+03  0.11780260611E+03  0.00000000000E+00 0.  1.
         11    1    5    5    0    0 -0.32135553781E+02  0.12281068175E+02 -0.17294623900E+02  0.38504836946E+02  0.00000000000E+00 0.  1.
        -11    1    5    5    0    0 -0.53478248702E+03  0.21259679166E+03  0.90008436207E+02  0.58248710100E+03  0.00000000000E+00 0. -1.
          3    1    6    6  503    0  0.86130151560E+02 -0.16757389049E+03 -0.26232153396E+03  0.32297368153E+03  0.00000000000E+00 0. -1.
         -3    1    6    6    0  503  0.53860493901E+02 -0.32457743361E+02 -0.32715708060E+02  0.70885650602E+02  0.00000000000E+00 0.  1.
<mgrwt>
<rscale>  0 0.15117940E+04</rscale>
<asrwt>0</asrwt>
<pdfrwt beam="1">  1        2 0.73603388E-01 0.15117940E+04</pdfrwt>
<pdfrwt beam="2">  1       -1 0.18373874E+00 0.15117940E+04</pdfrwt>
<totfact> 0.13996573E+01</totfact>
</mgrwt>
</event>
<event>
12    6  0.1627636E-007  0.1229328E+04  0.7818608E-02  0.9087566E-01
          2   -1    0    0  501    0  0.00000000000E+00  0.00000000000E+00  0.34521919205E+03  0.34521919205E+03  0.00000000000E+00 0. -1.
         -1   -1    0    0    0  501 -0.00000000000E+00 -0.00000000000E+00 -0.10944120410E+04  0.10944120410E+04  0.00000000000E+00 0.  1.
         24    2    1    2    0    0  0.11676586534E+03 -0.17225544503E+03  0.35870751572E+02  0.22520410251E+03  0.78255806931E+02 0.  0.
        254    2    1    2    0    0 -0.11676586534E+03  0.17225544503E+03 -0.78506360054E+03  0.12144271306E+04  0.90288548162E+03 0.  0.
         23    2    4    4    0    0 -0.36957332204E+02  0.51496267175E+03 -0.28657356513E+03  0.59762644157E+03  0.92089943691E+02 0.  0.
         23    2    4    4    0    0 -0.79808533135E+02 -0.34270722673E+03 -0.49849003541E+03  0.61680068900E+03  0.90183864023E+02 0.  0.
          4    1    3    3  502    0  0.54479083921E+02 -0.35478753575E+02  0.37206325059E+02  0.74906763143E+02  0.00000000000E+00 0. -1.
         -3    1    3    3    0  502  0.62286781418E+02 -0.13677669145E+03 -0.13355734868E+01  0.15029733936E+03  0.00000000000E+00 0.  1.
         11    1    5    5    0    0 -0.60125529588E+02  0.21288358978E+03 -0.13022101753E+03  0.25669440102E+03  0.00000000000E+00 0.  1.
        -11    1    5    5    0    0  0.23168197384E+02  0.30207908197E+03 -0.15635254760E+03  0.34093204055E+03  0.00000000000E+00 0. -1.
          2    1    6    6  503    0 -0.53219190593E+02 -0.65155015013E+02 -0.12633932465E+03  0.15178630763E+03  0.00000000000E+00 0. -1.
         -2    1    6    6    0  503 -0.26589342542E+02 -0.27755221171E+03 -0.37215071076E+03  0.46501438137E+03  0.00000000000E+00 0.  1.
<mgrwt>
<rscale>  0 0.12293283E+04</rscale>
<asrwt>0</asrwt>
<pdfrwt beam="1">  1        2 0.53110645E-01 0.12293283E+04</pdfrwt>
<pdfrwt beam="2">  1       -1 0.16837108E+00 0.12293283E+04</pdfrwt>
<totfact> 0.26772747E+01</totfact>
</mgrwt>
</event>
<event>
12    6  0.1627636E-007  0.1436141E+04  0.7818608E-02  0.8928065E-01
          2   -1    0    0  501    0  0.00000000000E+00  0.00000000000E+00  0.61715208747E+03  0.61715208747E+03  0.00000000000E+00 0. -1.
         -3   -1    0    0    0  501 -0.00000000000E+00 -0.00000000000E+00 -0.83549144033E+03  0.83549144033E+03  0.00000000000E+00 0.  1.
         24    2    1    2    0    0 -0.34429853470E+03  0.24181840842E+03  0.36780785085E+02  0.42954126327E+03  0.78327817835E+02 0.  0.
        254    2    1    2    0    0  0.34429853470E+03 -0.24181840842E+03 -0.25512013794E+03  0.10231022645E+04  0.89701412211E+03 0.  0.
         23    2    4    4    0    0  0.10691767069E+03 -0.56304067354E+03 -0.17226670334E+03  0.60531278446E+03  0.91003085576E+02 0.  0.
         23    2    4    4    0    0  0.23738086401E+03  0.32122226512E+03 -0.82853434597E+02  0.41778948007E+03  0.90277017146E+02 0.  0.
          2    1    3    3  502    0 -0.31942909519E+03  0.23352427317E+03  0.52217483827E+02  0.39911802594E+03  0.00000000000E+00 0. -1.
         -1    1    3    3    0  502 -0.24869439511E+02  0.82941352477E+01 -0.15436698742E+02  0.30423237322E+02  0.00000000000E+00 0.  1.
         11    1    5    5    0    0  0.10146999558E+03 -0.44657418225E+03 -0.17061697072E+03  0.48870728555E+03  0.00000000000E+00 0. -1.
        -11    1    5    5    0    0  0.54476751159E+01 -0.11646649130E+03 -0.16497326204E+01  0.11660549891E+03  0.00000000000E+00 0.  1.
          3    1    6    6  503    0  0.88065371232E+02  0.11640625627E+03  0.13587671376E+02  0.14659655836E+03  0.00000000000E+00 0. -1.
         -3    1    6    6    0  503  0.14931549278E+03  0.20481600885E+03 -0.96441105973E+02  0.27119292171E+03  0.00000000000E+00 0.  1.
<mgrwt>
<rscale>  0 0.14361411E+04</rscale>
<asrwt>0</asrwt>
<pdfrwt beam="1">  1        2 0.94946475E-01 0.14361411E+04</pdfrwt>
<pdfrwt beam="2">  1       -3 0.12853714E+00 0.14361411E+04</pdfrwt>
<totfact> 0.13979289E+01</totfact>
</mgrwt>
</event>
<event>
12    6  0.1627636E-007  0.1203153E+04  0.7818608E-02  0.9110101E-01
          2   -1    0    0  501    0  0.00000000000E+00  0.00000000000E+00  0.22941661316E+04  0.22941661316E+04  0.00000000000E+00 0. -1.
         -1   -1    0    0    0  501 -0.00000000000E+00 -0.00000000000E+00 -0.15774537539E+03  0.15774537539E+03  0.00000000000E+00 0.  1.
         24    2    1    2    0    0  0.40028653742E+02  0.18887308789E+03  0.13620927782E+03  0.24936789387E+03  0.79724793367E+02 0.  0.
        254    2    1    2    0    0 -0.40028653742E+02 -0.18887308789E+03  0.20002114784E+04  0.22025436131E+04  0.90170786454E+03 0.  0.
         23    2    4    4    0    0 -0.25406522704E+03  0.23205613283E+03  0.13354834047E+04  0.13821152442E+04  0.91254783798E+02 0.  0.
         23    2    4    4    0    0  0.21403657329E+03 -0.42092922072E+03  0.66472807365E+03  0.82042836891E+03  0.90808771896E+02 0.  0.
          2    1    3    3  502    0  0.44842601541E+02  0.63927781469E+02  0.24893724906E+02  0.81959244117E+02  0.00000000000E+00 0. -1.
         -1    1    3    3    0  502 -0.48139477995E+01  0.12494530642E+03  0.11131555292E+03  0.16740864975E+03  0.00000000000E+00 0.  1.
         11    1    5    5    0    0 -0.82424471405E+02  0.97878921404E+02  0.66255656331E+03  0.67480017510E+03  0.00000000000E+00 0. -1.
        -11    1    5    5    0    0 -0.17164075563E+03  0.13417721142E+03  0.67292684144E+03  0.70731506911E+03  0.00000000000E+00 0.  1.
          3    1    6    6  503    0  0.12308482533E+03 -0.32989595699E+03  0.48009814409E+03  0.59537840456E+03  0.00000000000E+00 0. -1.
         -3    1    6    6    0  503  0.90951747964E+02 -0.91033263735E+02  0.18462992956E+03  0.22504996435E+03  0.00000000000E+00 0.  1.
<mgrwt>
<rscale>  0 0.12031527E+04</rscale>
<asrwt>0</asrwt>
<pdfrwt beam="1">  1        2 0.35294861E+00 0.12031527E+04</pdfrwt>
<pdfrwt beam="2">  1       -1 0.24268521E-01 0.12031527E+04</pdfrwt>
<totfact> 0.75958852E+01</totfact>
</mgrwt>
</event>
<event>
12    6  0.1627636E-007  0.1998139E+04  0.7818608E-02  0.8607491E-01
         -1   -1    0    0    0  501 -0.00000000000E+00  0.00000000000E+00  0.42892366049E+03  0.42892366049E+03  0.00000000000E+00 0.  1.
          2   -1    0    0  501    0  0.00000000000E+00 -0.00000000000E+00 -0.23270798885E+04  0.23270798885E+04  0.00000000000E+00 0. -1.
         24    2    1    2    0    0 -0.51949117440E+03 -0.26293799460E+02  0.72283693314E+02  0.53132328994E+03  0.80728321792E+02 0.  0.
        254    2    1    2    0    0  0.51949117440E+03  0.26293799460E+02 -0.19704399213E+04  0.22246802590E+04  0.89219186684E+03 0.  0.
         23    2    4    4    0    0  0.21681289420E+03  0.19933978388E+03 -0.17999615246E+04  0.18261146721E+04  0.89939563646E+02 0.  0.
         23    2    4    4    0    0  0.30267828020E+03 -0.17304598442E+03 -0.17047839674E+03  0.39856558695E+03  0.90733617352E+02 0.  0.
          2    1    3    3  502    0 -0.11383168654E+03  0.27382340270E+02  0.11584093851E+02  0.11765048512E+03  0.00000000000E+00 0. -1.
         -1    1    3    3    0  502 -0.40565948786E+03 -0.53676139730E+02  0.60699599463E+02  0.41367280482E+03  0.00000000000E+00 0.  1.
         11    1    5    5    0    0  0.42178351508E+02 -0.26326739895E+00 -0.28718210871E+03  0.29026306381E+03  0.00000000000E+00 0.  1.
        -11    1    5    5    0    0  0.17463454270E+03  0.19960305128E+03 -0.15127794159E+04  0.15358516083E+04  0.00000000000E+00 0. -1.
          4    1    6    6  503    0  0.24636875066E+03 -0.16292139549E+03 -0.10965811520E+03  0.31506482609E+03  0.00000000000E+00 0. -1.
         -4    1    6    6    0  503  0.56309529536E+02 -0.10124588934E+02 -0.60820281537E+02  0.83500760858E+02  0.00000000000E+00 0.  1.
<mgrwt>
<rscale>  0 0.19981388E+04</rscale>
<asrwt>0</asrwt>
<pdfrwt beam="1">  1        2 0.35801228E+00 0.19981388E+04</pdfrwt>
<pdfrwt beam="2">  1       -1 0.65988257E-01 0.19981388E+04</pdfrwt>
<totfact> 0.10775377E+01</totfact>
</mgrwt>
</event>
<event>
12    6  0.1627636E-007  0.1733473E+04  0.7818608E-02  0.8742500E-01
          2   -1    0    0  501    0  0.00000000000E+00  0.00000000000E+00  0.19274457693E+04  0.19274457693E+04  0.00000000000E+00 0. -1.
         -1   -1    0    0    0  501 -0.00000000000E+00 -0.00000000000E+00 -0.38975532185E+03  0.38975532185E+03  0.00000000000E+00 0.  1.
         24    2    1    2    0    0  0.10956461686E+03 -0.53179717863E+03  0.10019044446E+04  0.11423235289E+04  0.79233100251E+02 0.  0.
        254    2    1    2    0    0 -0.10956461686E+03  0.53179717863E+03  0.53578600287E+03  0.11748775622E+04  0.89356477152E+03 0.  0.
         23    2    4    4    0    0 -0.11758215216E+03 -0.13113660834E+03  0.46120558093E+03  0.50161169550E+03  0.88776869906E+02 0.  0.
         23    2    4    4    0    0  0.80175352989E+01  0.66293378697E+03  0.74580421940E+02  0.67326586673E+03  0.90438936297E+02 0.  0.
          2    1    3    3  502    0  0.90958256431E+02 -0.50609065956E+03  0.96655713750E+03  0.10948213828E+04  0.00000000000E+00 0. -1.
         -1    1    3    3    0  502  0.18606360430E+02 -0.25706519066E+02  0.35347307089E+02  0.47502146155E+02  0.00000000000E+00 0.  1.
         11    1    5    5    0    0 -0.47346272650E+02 -0.87004772639E+02  0.34431416129E+03  0.35827886019E+03  0.00000000000E+00 0.  1.
        -11    1    5    5    0    0 -0.70235879509E+02 -0.44131835697E+02  0.11689141964E+03  0.14333283531E+03  0.00000000000E+00 0. -1.
          3    1    6    6  503    0  0.45718036253E+02  0.23424386291E+03  0.20650784356E+02  0.23955538199E+03  0.00000000000E+00 0. -1.
         -3    1    6    6    0  503 -0.37700500954E+02  0.42868992406E+03  0.53929637584E+02  0.43371048474E+03  0.00000000000E+00 0.  1.
<mgrwt>
<rscale>  0 0.17334731E+04</rscale>
<asrwt>0</asrwt>
<pdfrwt beam="1">  1        2 0.29653011E+00 0.17334731E+04</pdfrwt>
<pdfrwt beam="2">  1       -1 0.59962358E-01 0.17334731E+04</pdfrwt>
<totfact> 0.22348815E+01</totfact>
</mgrwt>
</event>
<event>
12    6  0.1627636E-007  0.1438728E+04  0.7818608E-02  0.8926253E-01
          2   -1    0    0  501    0  0.00000000000E+00  0.00000000000E+00  0.14659284130E+04  0.14659284130E+04  0.00000000000E+00 0. -1.
         -1   -1    0    0    0  501 -0.00000000000E+00 -0.00000000000E+00 -0.35300798697E+03  0.35300798697E+03  0.00000000000E+00 0.  1.
         24    2    1    2    0    0  0.10609468089E+03 -0.95307659357E+02 -0.14832423759E+03  0.22051483242E+03  0.79291113099E+02 0.  0.
        254    2    1    2    0    0 -0.10609468089E+03  0.95307659357E+02  0.12612446637E+04  0.15984215676E+04  0.97153166437E+03 0.  0.
         23    2    4    4    0    0 -0.16926185396E+03  0.47491058775E+03  0.10022185872E+04  0.11255954551E+04  0.91287406651E+02 0.  0.
         23    2    4    4    0    0  0.63167173066E+02 -0.37960292839E+03  0.25902607651E+03  0.47282611246E+03  0.91550801818E+02 0.  0.
          4    1    3    3  502    0  0.21582217906E+02 -0.60225221113E+02 -0.29257566035E+02  0.70348237776E+02  0.00000000000E+00 0. -1.
         -3    1    3    3    0  502  0.84512462986E+02 -0.35082438244E+02 -0.11906667155E+03  0.15016659465E+03  0.00000000000E+00 0.  1.
         11    1    5    5    0    0 -0.89204759563E+02  0.22847163018E+03  0.58671248019E+03  0.63591533189E+03  0.00000000000E+00 0. -1.
        -11    1    5    5    0    0 -0.80057094395E+02  0.24643895757E+03  0.41550610697E+03  0.48968012324E+03  0.00000000000E+00 0.  1.
          2    1    6    6  503    0  0.15277048017E+02 -0.30494818581E+03  0.18274446871E+03  0.35584030838E+03  0.00000000000E+00 0. -1.
         -2    1    6    6    0  503  0.47890125049E+02 -0.74654742587E+02  0.76281607802E+02  0.11698580408E+03  0.00000000000E+00 0.  1.
<mgrwt>
<rscale>  0 0.14387278E+04</rscale>
<asrwt>0</asrwt>
<pdfrwt beam="1">  1        2 0.22552745E+00 0.14387278E+04</pdfrwt>
<pdfrwt beam="2">  1       -1 0.54308922E-01 0.14387278E+04</pdfrwt>
<totfact> 0.50253255E+01</totfact>
</mgrwt>
</event>
<event>
12    6  0.1894183E-007  0.1806415E+04  0.7818608E-02  0.8702895E-01
         -1   -1    0    0    0  501 -0.00000000000E+00  0.00000000000E+00  0.64023750460E+03  0.64023750460E+03  0.00000000000E+00 0.  1.
          2   -1    0    0  501    0  0.00000000000E+00 -0.00000000000E+00 -0.12741898082E+04  0.12741898082E+04  0.00000000000E+00 0. -1.
         24    2    1    2    0    0 -0.62466977284E+03 -0.16839002517E+03 -0.44658837345E+03  0.79007771938E+03  0.78829573684E+02 0.  0.
        254    2    1    2    0    0  0.62466977284E+03  0.16839002517E+03 -0.18736393015E+03  0.11243495934E+04  0.90027175910E+03 0.  0.
         23    2    4    4    0    0  0.29196268168E+03 -0.19951252540E+03  0.26176154093E+03  0.44897187614E+03  0.89494055520E+02 0.  0.
         23    2    4    4    0    0  0.33270709116E+03  0.36790255057E+03 -0.44912547108E+03  0.67537771728E+03  0.91515446782E+02 0.  0.
          2    1    3    3  502    0 -0.33210855105E+03 -0.78899223119E+02 -0.18928308299E+03  0.39031943660E+03  0.00000000000E+00 0. -1.
         -1    1    3    3    0  502 -0.29256122179E+03 -0.89490802052E+02 -0.25730529046E+03  0.39975828278E+03  0.00000000000E+00 0.  1.
         11    1    5    5    0    0  0.12124790641E+03 -0.81650017897E+02  0.55287820154E+02  0.15628347094E+03  0.00000000000E+00 0. -1.
        -11    1    5    5    0    0  0.17071477527E+03 -0.11786250750E+03  0.20647372077E+03  0.29268840520E+03  0.00000000000E+00 0.  1.
          1    1    6    6  503    0 -0.18931086150E+01  0.15595229618E+02 -0.35098296590E+01  0.16097016844E+02  0.00000000000E+00 0. -1.
         -1    1    6    6    0  503  0.33460019978E+03  0.35230732095E+03 -0.44561564142E+03  0.65928070043E+03  0.00000000000E+00 0.  1.
<mgrwt>
<rscale>  0 0.18064153E+04</rscale>
<asrwt>0</asrwt>
<pdfrwt beam="1">  1        2 0.19602920E+00 0.18064153E+04</pdfrwt>
<pdfrwt beam="2">  1       -1 0.98498078E-01 0.18064153E+04</pdfrwt>
<totfact> 0.18168378E+01</totfact>
</mgrwt>
</event>
<event>
12    6  0.1627636E-007  0.1912558E+04  0.7818608E-02  0.8648630E-01
          2   -1    0    0  501    0  0.00000000000E+00  0.00000000000E+00  0.18406475380E+04  0.18406475380E+04  0.00000000000E+00 0. -1.
         -1   -1    0    0    0  501 -0.00000000000E+00 -0.00000000000E+00 -0.49681971812E+03  0.49681971812E+03  0.00000000000E+00 0.  1.
         24    2    1    2    0    0 -0.27355317801E+03  0.27223106949E+03  0.13040983889E+04  0.13623963052E+04  0.80684496966E+02 0.  0.
        254    2    1    2    0    0  0.27355317801E+03 -0.27223106949E+03  0.39729431022E+02  0.97507095098E+03  0.89456348873E+03 0.  0.
         23    2    4    4    0    0  0.28996364809E+03 -0.38232067609E+03  0.37102103212E+03  0.61371719042E+03  0.93510250586E+02 0.  0.
         23    2    4    4    0    0 -0.16410470081E+02  0.11008960660E+03 -0.33129160109E+03  0.36135376056E+03  0.91833492302E+02 0.  0.
          4    1    3    3  502    0 -0.23449941137E+03  0.21485234386E+03  0.95821255589E+03  0.10096151771E+04  0.00000000000E+00 0. -1.
         -3    1    3    3    0  502 -0.39053766635E+02  0.57378725626E+02  0.34588583302E+03  0.35278112808E+03  0.00000000000E+00 0.  1.
         11    1    5    5    0    0  0.39632702603E+01 -0.36731989918E+02  0.49686462281E+02  0.61916808126E+02  0.00000000000E+00 0.  1.
        -11    1    5    5    0    0  0.28600037783E+03 -0.34558868617E+03  0.32133456983E+03  0.55180038229E+03  0.00000000000E+00 0. -1.
          1    1    6    6  503    0 -0.47943882679E+02  0.54895292785E+02 -0.23441161061E+03  0.24548098143E+03  0.00000000000E+00 0. -1.
         -1    1    6    6    0  503  0.31533412598E+02  0.55194313812E+02 -0.96879990486E+02  0.11587277913E+03  0.00000000000E+00 0.  1.
<mgrwt>
<rscale>  0 0.19125585E+04</rscale>
<asrwt>0</asrwt>
<pdfrwt beam="1">  1        2 0.28317654E+00 0.19125585E+04</pdfrwt>
<pdfrwt beam="2">  1       -1 0.76433804E-01 0.19125585E+04</pdfrwt>
<totfact> 0.14996438E+01</totfact>
</mgrwt>
</event>
<event>
12    6  0.1627636E-007  0.1099868E+04  0.7818608E-02  0.9205321E-01
          2   -1    0    0  501    0  0.00000000000E+00  0.00000000000E+00  0.73888500690E+03  0.73888500690E+03  0.00000000000E+00 0. -1.
         -1   -1    0    0    0  501 -0.00000000000E+00 -0.00000000000E+00 -0.40930218578E+03  0.40930218578E+03  0.00000000000E+00 0.  1.
         24    2    1    2    0    0  0.15829426193E+02 -0.15726057194E+03  0.12829875130E+03  0.21925107959E+03  0.81418720768E+02 0.  0.
        254    2    1    2    0    0 -0.15829426193E+02  0.15726057194E+03  0.20128406982E+03  0.92893611310E+03  0.89298687965E+03 0.  0.
         23    2    4    4    0    0  0.29342028113E+03  0.56862319486E+02 -0.22415986741E+03  0.38492687186E+03  0.92694475367E+02 0.  0.
         23    2    4    4    0    0 -0.30924970732E+03  0.10039825246E+03  0.42544393723E+03  0.54400924124E+03  0.96064146545E+02 0.  0.
          4    1    3    3  502    0  0.67074398492E+01 -0.16524566681E+03  0.12252035571E+03  0.20582117897E+03  0.00000000000E+00 0. -1.
         -3    1    3    3    0  502  0.91219863436E+01  0.79850948682E+01  0.57783955988E+01  0.13429900618E+02  0.00000000000E+00 0.  1.
         11    1    5    5    0    0  0.16644184114E+03  0.78638520461E+02 -0.13057772542E+03  0.22569325590E+03  0.00000000000E+00 0.  1.
        -11    1    5    5    0    0  0.12697843999E+03 -0.21776200975E+02 -0.93582141990E+02  0.15923361596E+03  0.00000000000E+00 0. -1.
          1    1    6    6  503    0 -0.94563340941E+02  0.33916571593E+02  0.66386705281E+02  0.12041492398E+03  0.00000000000E+00 0. -1.
         -1    1    6    6    0  503 -0.21468636638E+03  0.66481680866E+02  0.35905723195E+03  0.42359431726E+03  0.00000000000E+00 0.  1.
<mgrwt>
<rscale>  0 0.10998677E+04</rscale>
<asrwt>0</asrwt>
<pdfrwt beam="1">  1        2 0.11367462E+00 0.10998677E+04</pdfrwt>
<pdfrwt beam="2">  1       -1 0.62969567E-01 0.10998677E+04</pdfrwt>
<totfact> 0.11089484E+02</totfact>
</mgrwt>
</event>
<event>
12    6  0.1627636E-007  0.1873949E+04  0.7818608E-02  0.8667933E-01
          2   -1    0    0  501    0  0.00000000000E+00  0.00000000000E+00  0.19297633039E+04  0.19297633039E+04  0.00000000000E+00 0. -1.
         -1   -1    0    0    0  501 -0.00000000000E+00 -0.00000000000E+00 -0.45493745693E+03  0.45493745693E+03  0.00000000000E+00 0.  1.
         24    2    1    2    0    0 -0.23165333322E+03  0.30404347219E+02  0.13419190684E+04  0.13644636537E+04  0.80165983183E+02 0.  0.
        254    2    1    2    0    0  0.23165333322E+03 -0.30404347219E+02  0.13290677853E+03  0.10202371071E+04  0.98419096313E+03 0.  0.
         23    2    4    4    0    0  0.30866857867E+03  0.37858548632E+03 -0.13563748601E+03  0.51570860418E+03  0.94628615651E+02 0.  0.
         23    2    4    4    0    0 -0.77015245455E+02 -0.40898983354E+03  0.26854426454E+03  0.50452850297E+03  0.96067457115E+02 0.  0.
          4    1    3    3  502    0 -0.23500797807E+03  0.32729936167E+02  0.12420412182E+04  0.12645024263E+04  0.00000000000E+00 0. -1.
         -3    1    3    3    0  502  0.33546448530E+01 -0.23255889480E+01  0.99877850255E+02  0.99961227371E+02  0.00000000000E+00 0.  1.
         11    1    5    5    0    0  0.89531411388E+02  0.18342362976E+03 -0.55681649389E+02  0.21156688696E+03  0.00000000000E+00 0.  1.
        -11    1    5    5    0    0  0.21913716729E+03  0.19516185656E+03 -0.79955836623E+02  0.30414171722E+03  0.00000000000E+00 0. -1.
          2    1    6    6  503    0 -0.67046665275E+02 -0.11984550507E+03  0.97724294320E+02  0.16854743579E+03  0.00000000000E+00 0. -1.
         -2    1    6    6    0  503 -0.99685801801E+01 -0.28914432847E+03  0.17081997022E+03  0.33598106718E+03  0.00000000000E+00 0.  1.
<mgrwt>
<rscale>  0 0.18739494E+04</rscale>
<asrwt>0</asrwt>
<pdfrwt beam="1">  1        2 0.29688666E+00 0.18739494E+04</pdfrwt>
<pdfrwt beam="2">  1       -1 0.69990379E-01 0.18739494E+04</pdfrwt>
<totfact> 0.16122865E+01</totfact>
</mgrwt>
</event>
<event>
12    6  0.1627636E-007  0.1453804E+04  0.7818608E-02  0.8915767E-01
         -1   -1    0    0    0  501 -0.00000000000E+00  0.00000000000E+00  0.36818193673E+03  0.36818193673E+03  0.00000000000E+00 0.  1.
          2   -1    0    0  501    0  0.00000000000E+00 -0.00000000000E+00 -0.14351239543E+04  0.14351239543E+04  0.00000000000E+00 0. -1.
         24    2    1    2    0    0  0.24259768941E+03  0.23852299445E+03 -0.70205862385E+03  0.78414229634E+03  0.79031460823E+02 0.  0.
        254    2    1    2    0    0 -0.24259768941E+03 -0.23852299445E+03 -0.36488339369E+03  0.10191635947E+04  0.88871124888E+03 0.  0.
         23    2    4    4    0    0 -0.44014796856E+03 -0.32580635293E+03 -0.50080639272E+03  0.74775791261E+03  0.91950198758E+02 0.  0.
         23    2    4    4    0    0  0.19755027915E+03  0.87283358474E+02  0.13592299903E+03  0.27140568205E+03  0.92420155408E+02 0.  0.
          2    1    3    3  502    0  0.19696573900E+03  0.14297485700E+03 -0.48795999733E+03  0.54529099668E+03  0.00000000000E+00 0. -1.
         -1    1    3    3    0  502  0.45631950413E+02  0.95548137453E+02 -0.21409862652E+03  0.23885129966E+03  0.00000000000E+00 0.  1.
         11    1    5    5    0    0 -0.18161330478E+03 -0.12226675127E+03 -0.26063783583E+03  0.34038894284E+03  0.00000000000E+00 0.  1.
        -11    1    5    5    0    0 -0.25853466377E+03 -0.20353960166E+03 -0.24016855689E+03  0.40736896977E+03  0.00000000000E+00 0. -1.
          1    1    6    6  503    0  0.75651228842E+02  0.10077177181E+01  0.84589707671E+02  0.11348807234E+03  0.00000000000E+00 0. -1.
         -1    1    6    6    0  503  0.12189905031E+03  0.86275640756E+02  0.51333291354E+02  0.15791760970E+03  0.00000000000E+00 0.  1.
<mgrwt>
<rscale>  0 0.14538043E+04</rscale>
<asrwt>0</asrwt>
<pdfrwt beam="1">  1        2 0.22078830E+00 0.14538043E+04</pdfrwt>
<pdfrwt beam="2">  1       -1 0.56643375E-01 0.14538043E+04</pdfrwt>
<totfact> 0.48156129E+01</totfact>
</mgrwt>
</event>
<event>
12    6  0.1627636E-007  0.1851917E+04  0.7818608E-02  0.8679168E-01
         -1   -1    0    0    0  501 -0.00000000000E+00  0.00000000000E+00  0.63498207204E+03  0.63498207204E+03  0.00000000000E+00 0.  1.
          2   -1    0    0  501    0  0.00000000000E+00 -0.00000000000E+00 -0.13502727037E+04  0.13502727037E+04  0.00000000000E+00 0. -1.
         24    2    1    2    0    0 -0.32597333104E+03  0.48426060062E+03  0.14508353439E+03  0.60699026754E+03  0.81369595480E+02 0.  0.
        254    2    1    2    0    0  0.32597333104E+03 -0.48426060062E+03 -0.86037416607E+03  0.13782645082E+04  0.90476649315E+03 0.  0.
         23    2    4    4    0    0 -0.86399295272E+02  0.18361083133E+03 -0.41964239180E+03  0.47342629705E+03  0.82794602127E+02 0.  0.
         23    2    4    4    0    0  0.41237262631E+03 -0.66787143195E+03 -0.44073177427E+03  0.90483821117E+03  0.91565599414E+02 0.  0.
          4    1    3    3  502    0 -0.51465735431E+02  0.12701221529E+03  0.54253904356E+02  0.14739169208E+03  0.00000000000E+00 0. -1.
         -3    1    3    3    0  502 -0.27450759561E+03  0.35724838533E+03  0.90829630039E+02  0.45959857545E+03  0.00000000000E+00 0.  1.
         11    1    5    5    0    0 -0.27694558445E+02  0.23182571957E+02 -0.14950131913E+03  0.15380203065E+03  0.00000000000E+00 0.  1.
        -11    1    5    5    0    0 -0.58704736827E+02  0.16042825937E+03 -0.27014107266E+03  0.31962426640E+03  0.00000000000E+00 0. -1.
          1    1    6    6  503    0  0.30821476649E+03 -0.50369387459E+03 -0.37535491198E+03  0.69971077706E+03  0.00000000000E+00 0. -1.
         -1    1    6    6    0  503  0.10415785982E+03 -0.16417755736E+03 -0.65376862295E+02  0.20512743412E+03  0.00000000000E+00 0.  1.
<mgrwt>
<rscale>  0 0.18519168E+04</rscale>
<asrwt>0</asrwt>
<pdfrwt beam="1">  1        2 0.20773426E+00 0.18519168E+04</pdfrwt>
<pdfrwt beam="2">  1       -1 0.97689551E-01 0.18519168E+04</pdfrwt>
<totfact> 0.16651766E+01</totfact>
</mgrwt>
</event>
<event>
12    6  0.1627636E-007  0.1690395E+04  0.7818608E-02  0.8766862E-01
         -1   -1    0    0    0  501 -0.00000000000E+00  0.00000000000E+00  0.87618450360E+03  0.87618450360E+03  0.00000000000E+00 0.  1.
          2   -1    0    0  501    0  0.00000000000E+00 -0.00000000000E+00 -0.81530612849E+03  0.81530612849E+03  0.00000000000E+00 0. -1.
         24    2    1    2    0    0  0.57786726964E+03 -0.22650368373E+03  0.62829592440E+02  0.62914020794E+03  0.81457617803E+02 0.  0.
        254    2    1    2    0    0 -0.57786726964E+03  0.22650368373E+03 -0.19512173288E+01  0.10623504242E+04  0.86217754342E+03 0.  0.
         23    2    4    4    0    0 -0.24866147383E+03 -0.32117688100E+03  0.27485606759E+02  0.41609622800E+03  0.85985434326E+02 0.  0.
         23    2    4    4    0    0 -0.32920579581E+03  0.54768056473E+03 -0.29436824088E+02  0.64625419615E+03  0.91910295695E+02 0.  0.
          4    1    3    3  502    0  0.74679259610E+02 -0.30558064062E+01 -0.19873027738E+01  0.74768169304E+02  0.00000000000E+00 0. -1.
         -3    1    3    3    0  502  0.50318801003E+03 -0.22344787733E+03  0.64816895214E+02  0.55437203864E+03  0.00000000000E+00 0.  1.
         11    1    5    5    0    0 -0.23180936602E+02 -0.33972327450E+02  0.30067150020E+02  0.50946131987E+02  0.00000000000E+00 0. -1.
        -11    1    5    5    0    0 -0.22548053723E+03 -0.28720455355E+03 -0.25815432613E+01  0.36515009601E+03  0.00000000000E+00 0.  1.
          4    1    6    6  503    0 -0.21965442788E+03  0.44057292899E+03 -0.26761858865E+02  0.49302005084E+03  0.00000000000E+00 0.  1.
         -4    1    6    6    0  503 -0.10955136793E+03  0.10710763574E+03 -0.26749652223E+01  0.15323414531E+03  0.00000000000E+00 0. -1.
<mgrwt>
<rscale>  0 0.16903947E+04</rscale>
<asrwt>0</asrwt>
<pdfrwt beam="1">  1        2 0.12543171E+00 0.16903947E+04</pdfrwt>
<pdfrwt beam="2">  1       -1 0.13479762E+00 0.16903947E+04</pdfrwt>
<totfact> 0.16884026E+01</totfact>
</mgrwt>
</event>
<event>
12    6  0.1627636E-007  0.1635287E+04  0.7818608E-02  0.8799159E-01
          2   -1    0    0  501    0  0.00000000000E+00  0.00000000000E+00  0.19971468416E+04  0.19971468416E+04  0.00000000000E+00 0. -1.
         -1   -1    0    0    0  501 -0.00000000000E+00 -0.00000000000E+00 -0.33474781893E+03  0.33474781893E+03  0.00000000000E+00 0.  1.
         24    2    1    2    0    0  0.65054679209E+02 -0.54432465219E+03  0.79245100821E+03  0.96688166861E+03  0.79750375588E+02 0.  0.
        254    2    1    2    0    0 -0.65054679209E+02  0.54432465219E+03  0.86994801445E+03  0.13650129919E+04  0.89773575285E+03 0.  0.
         23    2    4    4    0    0 -0.13647152806E+03  0.39475601037E+03  0.10308892215E+04  0.11166265687E+04  0.98313383211E+02 0.  0.
         23    2    4    4    0    0  0.71416848848E+02  0.14956864182E+03 -0.16094120705E+03  0.24838642316E+03  0.91228275048E+02 0.  0.
          2    1    3    3  502    0  0.19673891110E+02 -0.40184647761E+03  0.61386196647E+03  0.73395787852E+03  0.00000000000E+00 0. -1.
         -1    1    3    3    0  502  0.45380788099E+02 -0.14247817458E+03  0.17858904174E+03  0.23292379009E+03  0.00000000000E+00 0.  1.
         11    1    5    5    0    0 -0.75985344250E+02  0.13510952565E+03  0.48399541901E+03  0.50821247730E+03  0.00000000000E+00 0.  1.
        -11    1    5    5    0    0 -0.60486183806E+02  0.25964648472E+03  0.54689380249E+03  0.60841409144E+03  0.00000000000E+00 0. -1.
          2    1    6    6  503    0  0.84288970417E+02  0.12878127264E+03 -0.16258399080E+03  0.22388122025E+03  0.00000000000E+00 0. -1.
         -2    1    6    6    0  503 -0.12872121569E+02  0.20787369185E+02  0.16427837490E+01  0.24505202912E+02  0.00000000000E+00 0.  1.
<mgrwt>
<rscale>  0 0.16352866E+04</rscale>
<asrwt>0</asrwt>
<pdfrwt beam="1">  1        2 0.30725335E+00 0.16352866E+04</pdfrwt>
<pdfrwt beam="2">  1       -1 0.51499666E-01 0.16352866E+04</pdfrwt>
<totfact> 0.27712917E+01</totfact>
</mgrwt>
</event>
<event>
12    6  0.1627636E-007  0.2922217E+04  0.7818608E-02  0.8266298E-01
          2   -1    0    0  501    0  0.00000000000E+00  0.00000000000E+00  0.12680877528E+04  0.12680877528E+04  0.00000000000E+00 0. -1.
         -1   -1    0    0    0  501 -0.00000000000E+00 -0.00000000000E+00 -0.16835098512E+04  0.16835098512E+04  0.00000000000E+00 0.  1.
         24    2    1    2    0    0 -0.12694890453E+04 -0.20840956681E+03  0.12689612499E+03  0.12951206469E+04  0.78726614289E+02 0.  0.
        254    2    1    2    0    0  0.12694890453E+04  0.20840956681E+03 -0.54231822335E+03  0.16564769572E+04  0.89149866548E+03 0.  0.
         23    2    4    4    0    0  0.12661424969E+04  0.36512214799E+03 -0.29848285075E+03  0.13542013574E+04  0.91314285847E+02 0.  0.
         23    2    4    4    0    0  0.33465483601E+01 -0.15671258118E+03 -0.24383537260E+03  0.30227559972E+03  0.85701906439E+02 0.  0.
          4    1    3    3  502    0 -0.55991286619E+03 -0.95883784334E+02  0.95145365775E+02  0.57597635234E+03  0.00000000000E+00 0. -1.
         -3    1    3    3    0  502 -0.70957617910E+03 -0.11252578248E+03  0.31750759218E+02  0.71914429455E+03  0.00000000000E+00 0.  1.
         11    1    5    5    0    0  0.11195634849E+03  0.49050632580E+02 -0.49613498882E+02  0.13191545699E+03  0.00000000000E+00 0. -1.
        -11    1    5    5    0    0  0.11541861484E+04  0.31607151541E+03 -0.24886935186E+03  0.12222859004E+04  0.00000000000E+00 0.  1.
          3    1    6    6  503    0 -0.95999119754E+01 -0.19411494513E+02  0.55052283120E+00  0.21662583054E+02  0.00000000000E+00 0. -1.
         -3    1    6    6    0  503  0.12946460335E+02 -0.13730108667E+03 -0.24438589543E+03  0.28061301666E+03  0.00000000000E+00 0.  1.
<mgrwt>
<rscale>  0 0.29222171E+04</rscale>
<asrwt>0</asrwt>
<pdfrwt beam="1">  1        2 0.19509043E+00 0.29222171E+04</pdfrwt>
<pdfrwt beam="2">  1       -1 0.25900151E+00 0.29222171E+04</pdfrwt>
<totfact> 0.10315586E+00</totfact>
</mgrwt>
</event>
<event>
12    6  0.1627636E-007  0.2291466E+04  0.7818608E-02  0.8481294E-01
         -1   -1    0    0    0  501 -0.00000000000E+00  0.00000000000E+00  0.59922928938E+03  0.59922928938E+03  0.00000000000E+00 0.  1.
          2   -1    0    0  501    0  0.00000000000E+00 -0.00000000000E+00 -0.21906540888E+04  0.21906540888E+04  0.00000000000E+00 0. -1.
         24    2    1    2    0    0  0.50977527570E+03  0.75338498758E+03 -0.29412875683E+03  0.95934471958E+03  0.79817254794E+02 0.  0.
        254    2    1    2    0    0 -0.50977527570E+03 -0.75338498758E+03 -0.12972960426E+04  0.18305386586E+04  0.91675241333E+03 0.  0.
         23    2    4    4    0    0  0.58565801627E+02 -0.51285147320E+03 -0.10239633287E+04  0.11500293038E+04  0.87292120592E+02 0.  0.
         23    2    4    4    0    0 -0.56834107732E+03 -0.24053351438E+03 -0.27333271388E+03  0.68050935484E+03  0.86684818914E+02 0.  0.
          2    1    3    3  502    0  0.36518478790E+03  0.56207475746E+03 -0.18161969759E+03  0.69445926939E+03  0.00000000000E+00 0. -1.
         -1    1    3    3    0  502  0.14459048779E+03  0.19131023012E+03 -0.11250905924E+03  0.26488545018E+03  0.00000000000E+00 0.  1.
         11    1    5    5    0    0 -0.89584233402E+01 -0.15058884646E+03 -0.36658868964E+03  0.39641458273E+03  0.00000000000E+00 0. -1.
        -11    1    5    5    0    0  0.67524224967E+02 -0.36226262673E+03 -0.65737463909E+03  0.75361472106E+03  0.00000000000E+00 0.  1.
          4    1    6    6  503    0 -0.45982406720E+03 -0.15868937852E+03 -0.19877407970E+03  0.52548227980E+03  0.00000000000E+00 0. -1.
         -4    1    6    6    0  503 -0.10851701013E+03 -0.81844135866E+02 -0.74558634189E+02  0.15502707504E+03  0.00000000000E+00 0.  1.
<mgrwt>
<rscale>  0 0.22914660E+04</rscale>
<asrwt>0</asrwt>
<pdfrwt beam="1">  1        2 0.33702371E+00 0.22914660E+04</pdfrwt>
<pdfrwt beam="2">  1       -1 0.92189121E-01 0.22914660E+04</pdfrwt>
<totfact> 0.61788756E+00</totfact>
</mgrwt>
</event>
<event>
12    6  0.1627636E-007  0.2255531E+04  0.7818608E-02  0.8495664E-01
         -1   -1    0    0    0  501 -0.00000000000E+00  0.00000000000E+00  0.65964843031E+03  0.65964843031E+03  0.00000000000E+00 0.  1.
          2   -1    0    0  501    0  0.00000000000E+00 -0.00000000000E+00 -0.19280793801E+04  0.19280793801E+04  0.00000000000E+00 0. -1.
         24    2    1    2    0    0 -0.82887200114E+03  0.36018420752E+03 -0.84662057556E+03  0.12409350506E+04  0.79949629306E+02 0.  0.
        254    2    1    2    0    0  0.82887200114E+03 -0.36018420752E+03 -0.42181037426E+03  0.13467927598E+04  0.90507750414E+03 0.  0.
         23    2    4    4    0    0  0.51492320677E+03 -0.37949350431E+03  0.17182224733E+03  0.66871258528E+03  0.92154263865E+02 0.  0.
         23    2    4    4    0    0  0.31394879437E+03  0.19309296793E+02 -0.59363262158E+03  0.67808017456E+03  0.91958356317E+02 0.  0.
          2    1    3    3  502    0 -0.40290618078E+03  0.19491351108E+03 -0.46765676762E+03  0.64732335012E+03  0.00000000000E+00 0. -1.
         -1    1    3    3    0  502 -0.42596582036E+03  0.16527069644E+03 -0.37896380794E+03  0.59361170048E+03  0.00000000000E+00 0.  1.
         11    1    5    5    0    0  0.84962504753E+02 -0.32615935653E+02  0.46656189011E+02  0.10227035956E+03  0.00000000000E+00 0. -1.
        -11    1    5    5    0    0  0.42996070202E+03 -0.34687756866E+03  0.12516605831E+03  0.56644222571E+03  0.00000000000E+00 0.  1.
          2    1    6    6  503    0  0.20917979384E+03  0.11637394859E+02 -0.47776520349E+03  0.52168113324E+03  0.00000000000E+00 0.  1.
         -2    1    6    6    0  503  0.10476900053E+03  0.76719019335E+01 -0.11586741809E+03  0.15639904132E+03  0.00000000000E+00 0. -1.
<mgrwt>
<rscale>  0 0.22555306E+04</rscale>
<asrwt>0</asrwt>
<pdfrwt beam="1">  1        2 0.29662759E+00 0.22555306E+04</pdfrwt>
<pdfrwt beam="2">  1       -1 0.10148437E+00 0.22555306E+04</pdfrwt>
<totfact> 0.69901704E+00</totfact>
</mgrwt>
</event>
<event>
12    6  0.1627636E-007  0.2951509E+04  0.7818608E-02  0.8257715E-01
         -1   -1    0    0    0  501 -0.00000000000E+00  0.00000000000E+00  0.15840543285E+04  0.15840543285E+04  0.00000000000E+00 0.  1.
          2   -1    0    0  501    0  0.00000000000E+00 -0.00000000000E+00 -0.13748593018E+04  0.13748593018E+04  0.00000000000E+00 0. -1.
         24    2    1    2    0    0  0.43929444508E+03  0.10777695870E+04  0.76119291568E+03  0.13930388449E+04  0.81090543802E+02 0.  0.
        254    2    1    2    0    0 -0.43929444508E+03 -0.10777695870E+04 -0.55199788894E+03  0.15658747854E+04  0.89033436533E+03 0.  0.
         23    2    4    4    0    0 -0.89950814963E+02 -0.82719179640E+03 -0.71111217685E+03  0.10984135887E+04  0.92165431242E+02 0.  0.
         23    2    4    4    0    0 -0.34934363012E+03 -0.25057779061E+03  0.15911428792E+03  0.46746119668E+03  0.91500889274E+02 0.  0.
          2    1    3    3  502    0  0.13297818841E+03  0.33734905703E+03  0.19325528277E+03  0.41089559402E+03  0.00000000000E+00 0. -1.
         -1    1    3    3    0  502  0.30631625667E+03  0.74042052998E+03  0.56793763291E+03  0.98214325085E+03  0.00000000000E+00 0.  1.
         11    1    5    5    0    0 -0.84067783106E+02 -0.69544807579E+03 -0.63866167091E+03  0.94794733406E+03  0.00000000000E+00 0.  1.
        -11    1    5    5    0    0 -0.58830318565E+01 -0.13174372061E+03 -0.72450505949E+02  0.15046625468E+03  0.00000000000E+00 0. -1.
          1    1    6    6  503    0 -0.13926658656E+02 -0.21924265858E+02 -0.98267808103E+01  0.27770323654E+02  0.00000000000E+00 0. -1.
         -1    1    6    6    0  503 -0.33541697146E+03 -0.22865352475E+03  0.16894106873E+03  0.43969087303E+03  0.00000000000E+00 0.  1.
<mgrwt>
<rscale>  0 0.29515093E+04</rscale>
<asrwt>0</asrwt>
<pdfrwt beam="1">  1        2 0.21151682E+00 0.29515093E+04</pdfrwt>
<pdfrwt beam="2">  1       -1 0.24370067E+00 0.29515093E+04</pdfrwt>
<totfact> 0.11225719E+00</totfact>
</mgrwt>
</event>
<event>
12    6  0.1627636E-007  0.1909725E+04  0.7818608E-02  0.8650031E-01
          2   -1    0    0  501    0  0.00000000000E+00  0.00000000000E+00  0.32248616398E+04  0.32248616398E+04  0.00000000000E+00 0. -1.
         -1   -1    0    0    0  501 -0.00000000000E+00 -0.00000000000E+00 -0.28272926847E+03  0.28272926847E+03  0.00000000000E+00 0.  1.
         24    2    1    2    0    0 -0.15631737478E+03  0.71719571902E+03  0.10113348994E+04  0.12517226471E+04  0.72155980651E+02 0.  0.
        254    2    1    2    0    0  0.15631737478E+03 -0.71719571902E+03  0.19307974719E+04  0.22558682611E+04  0.90672923906E+03 0.  0.
         23    2    4    4    0    0  0.39951649613E+03 -0.61226740179E+01  0.67870830386E+03  0.79281070077E+03  0.90845625705E+02 0.  0.
         23    2    4    4    0    0 -0.24319912136E+03 -0.71107304501E+03  0.12520891680E+04  0.14630575603E+04  0.89662992341E+02 0.  0.
          4    1    3    3  502    0 -0.44759846443E+02  0.14384561983E+03  0.25387603559E+03  0.29520848166E+03  0.00000000000E+00 0. -1.
         -3    1    3    3    0  502 -0.11155752833E+03  0.57335009919E+03  0.75745886382E+03  0.95651416547E+03  0.00000000000E+00 0.  1.
         11    1    5    5    0    0  0.44191842047E+02 -0.27497523060E+02  0.11324235440E+03  0.12463090912E+03  0.00000000000E+00 0.  1.
        -11    1    5    5    0    0  0.35532465409E+03  0.21374849042E+02  0.56546594946E+03  0.66817979165E+03  0.00000000000E+00 0. -1.
          4    1    6    6  503    0 -0.15209722657E+03 -0.41326065519E+03  0.64887884560E+03  0.78419493222E+03  0.00000000000E+00 0. -1.
         -4    1    6    6    0  503 -0.91101894783E+02 -0.29781238982E+03  0.60321032243E+03  0.67886262811E+03  0.00000000000E+00 0.  1.
<mgrwt>
<rscale>  0 0.19097254E+04</rscale>
<asrwt>0</asrwt>
<pdfrwt beam="1">  1        2 0.49613254E+00 0.19097254E+04</pdfrwt>
<pdfrwt beam="2">  1       -1 0.43496813E-01 0.19097254E+04</pdfrwt>
<totfact> 0.69737935E+00</totfact>
</mgrwt>
</event>
<event>
12    6  0.1627636E-007  0.1480388E+04  0.7818608E-02  0.8897600E-01
         -1   -1    0    0    0  501 -0.00000000000E+00  0.00000000000E+00  0.75169405137E+03  0.75169405137E+03  0.00000000000E+00 0.  1.
          2   -1    0    0  501    0  0.00000000000E+00 -0.00000000000E+00 -0.72886979228E+03  0.72886979228E+03  0.00000000000E+00 0. -1.
         24    2    1    2    0    0  0.87034224724E+02  0.10355229523E+03 -0.43074687639E+03  0.45805034271E+03  0.77260667959E+02 0.  0.
        254    2    1    2    0    0 -0.87034224724E+02 -0.10355229523E+03  0.45357113547E+03  0.10225135009E+04  0.90637136460E+03 0.  0.
         23    2    4    4    0    0 -0.59275080428E+02 -0.49536816495E+03  0.19309688717E+03  0.54266555248E+03  0.91084246742E+02 0.  0.
         23    2    4    4    0    0 -0.27759144296E+02  0.39181586972E+03  0.26047424830E+03  0.47984794847E+03  0.90094249372E+02 0.  0.
          4    1    3    3  502    0  0.58736599319E+02  0.11075012297E+03 -0.32478723186E+03  0.34814124119E+03  0.00000000000E+00 0. -1.
         -3    1    3    3    0  502  0.28297625405E+02 -0.71978277370E+01 -0.10595964453E+03  0.10990910152E+03  0.00000000000E+00 0.  1.
         11    1    5    5    0    0  0.55274223082E+01 -0.16200035650E+03  0.10026544702E+03  0.19059860380E+03  0.00000000000E+00 0. -1.
        -11    1    5    5    0    0 -0.64802502736E+02 -0.33336780845E+03  0.92831440147E+02  0.35206694868E+03  0.00000000000E+00 0.  1.
          1    1    6    6  503    0 -0.35132316887E+02  0.27676493485E+03  0.13662130876E+03  0.31064206228E+03  0.00000000000E+00 0. -1.
         -1    1    6    6    0  503  0.73731725915E+01  0.11505093487E+03  0.12385293954E+03  0.16920588619E+03  0.00000000000E+00 0.  1.
<mgrwt>
<rscale>  0 0.14803879E+04</rscale>
<asrwt>0</asrwt>
<pdfrwt beam="1">  1        2 0.11213381E+00 0.14803879E+04</pdfrwt>
<pdfrwt beam="2">  1       -1 0.11564524E+00 0.14803879E+04</pdfrwt>
<totfact> 0.29129823E+01</totfact>
</mgrwt>
</event>
<event>
12    6  0.1627636E-007  0.1861781E+04  0.7818608E-02  0.8674118E-01
         -1   -1    0    0    0  501 -0.00000000000E+00  0.00000000000E+00  0.80970905711E+03  0.80970905711E+03  0.00000000000E+00 0.  1.
          2   -1    0    0  501    0  0.00000000000E+00 -0.00000000000E+00 -0.10702079228E+04  0.10702079228E+04  0.00000000000E+00 0. -1.
         24    2    1    2    0    0  0.13690060234E+03  0.62928080285E+03 -0.40451585703E+03  0.76457397785E+03  0.78766650621E+02 0.  0.
        254    2    1    2    0    0 -0.13690060234E+03 -0.62928080285E+03  0.14401699137E+03  0.11153430020E+04  0.89917351753E+03 0.  0.
         23    2    4    4    0    0 -0.33315683849E+03  0.13957999042E+02 -0.14699355562E+03  0.37620944093E+03  0.93477982842E+02 0.  0.
         23    2    4    4    0    0  0.19625623615E+03 -0.64323880190E+03  0.29101054699E+03  0.73913356111E+03  0.96739941125E+02 0.  0.
          4    1    3    3  502    0  0.40223346019E+02  0.22209942195E+03 -0.18590432266E+03  0.29241492435E+03  0.00000000000E+00 0. -1.
         -3    1    3    3    0  502  0.96677256321E+02  0.40718138090E+03 -0.21861153437E+03  0.47215905350E+03  0.00000000000E+00 0.  1.
         11    1    5    5    0    0 -0.29937725053E+03 -0.17577052293E+02 -0.12295944124E+03  0.32412145114E+03  0.00000000000E+00 0. -1.
        -11    1    5    5    0    0 -0.33779587969E+02  0.31535051334E+02 -0.24034114376E+02  0.52087989785E+02  0.00000000000E+00 0.  1.
          1    1    6    6  503    0  0.15980356793E+03 -0.40459699484E+03  0.15346289539E+03  0.46128816245E+03  0.00000000000E+00 0. -1.
         -1    1    6    6    0  503  0.36452668223E+02 -0.23864180705E+03  0.13754765160E+03  0.27784539866E+03  0.00000000000E+00 0.  1.
<mgrwt>
<rscale>  0 0.18617809E+04</rscale>
<asrwt>0</asrwt>
<pdfrwt beam="1">  1        2 0.16464737E+00 0.18617809E+04</pdfrwt>
<pdfrwt beam="2">  1       -1 0.12457062E+00 0.18617809E+04</pdfrwt>
<totfact> 0.13751967E+01</totfact>
</mgrwt>
</event>
<event>
12    6  0.1627636E-007  0.4057107E+04  0.7818608E-02  0.7993124E-01
          2   -1    0    0  501    0  0.00000000000E+00  0.00000000000E+00  0.17501046827E+04  0.17501046827E+04  0.00000000000E+00 0. -1.
         -1   -1    0    0    0  501 -0.00000000000E+00 -0.00000000000E+00 -0.23513046813E+04  0.23513046813E+04  0.00000000000E+00 0.  1.
         24    2    1    2    0    0  0.14366344839E+04 -0.54347180033E+03 -0.14672846341E+04  0.21263382259E+04  0.95445353273E+02 0.  0.
        254    2    1    2    0    0 -0.14366344839E+04  0.54347180033E+03  0.86608463559E+03  0.19750711381E+04  0.88967587713E+03 0.  0.
         23    2    4    4    0    0 -0.37235288124E+03  0.19041920025E+03  0.72403606838E+03  0.84110026070E+03  0.91188158434E+02 0.  0.
         23    2    4    4    0    0 -0.10642816027E+04  0.35305260008E+03  0.14204856721E+03  0.11339708774E+04  0.91491459158E+02 0.  0.
          2    1    3    3  502    0  0.15444884404E+03 -0.68151168919E+02 -0.20262112377E+03  0.26373158144E+03  0.00000000000E+00 0. -1.
         -1    1    3    3    0  502  0.12821856399E+04 -0.47532063141E+03 -0.12646635103E+04  0.18626066445E+04  0.00000000000E+00 0.  1.
         11    1    5    5    0    0  0.15799868696E+01 -0.51510507208E+01  0.15624168568E+02  0.16527078553E+02  0.00000000000E+00 0.  1.
        -11    1    5    5    0    0 -0.37393286811E+03  0.19557025097E+03  0.70841189981E+03  0.82457318214E+03  0.00000000000E+00 0. -1.
          3    1    6    6  503    0 -0.10472937496E+04  0.35432928974E+03  0.14893422321E+03  0.11155961842E+04  0.00000000000E+00 0. -1.
         -3    1    6    6    0  503 -0.16987853114E+02 -0.12766896595E+01 -0.68856559974E+01  0.18374693152E+02  0.00000000000E+00 0.  1.
<mgrwt>
<rscale>  0 0.40571070E+04</rscale>
<asrwt>0</asrwt>
<pdfrwt beam="1">  1        2 0.26924688E+00 0.40571070E+04</pdfrwt>
<pdfrwt beam="2">  1       -1 0.36173918E+00 0.40571070E+04</pdfrwt>
<totfact> 0.10666944E-01</totfact>
</mgrwt>
</event>
<event>
12    6  0.1627636E-007  0.2266274E+04  0.7818608E-02  0.8491339E-01
         -1   -1    0    0    0  501 -0.00000000000E+00  0.00000000000E+00  0.41093063565E+03  0.41093063565E+03  0.00000000000E+00 0.  1.
          2   -1    0    0  501    0  0.00000000000E+00 -0.00000000000E+00 -0.31246133819E+04  0.31246133819E+04  0.00000000000E+00 0. -1.
         24    2    1    2    0    0 -0.46848057214E+03 -0.34240137165E+03 -0.22390132757E+04  0.23142065150E+04  0.75223662618E+02 0.  0.
        254    2    1    2    0    0  0.46848057214E+03  0.34240137165E+03 -0.47466947054E+03  0.12213375026E+04  0.96417915510E+03 0.  0.
         23    2    4    4    0    0  0.43900615921E+03 -0.25460796531E+03 -0.26842337108E+03  0.58148345194E+03  0.92305335271E+02 0.  0.
         23    2    4    4    0    0  0.29474412926E+02  0.59700933696E+03 -0.20624609946E+03  0.63985405062E+03  0.97912527851E+02 0.  0.
          4    1    3    3  502    0 -0.24700557639E+03 -0.21455440280E+03 -0.13556569743E+04  0.13945792120E+04  0.00000000000E+00 0. -1.
         -1    1    3    3    0  502 -0.22147499574E+03 -0.12784696885E+03 -0.88335630137E+03  0.91962730296E+03  0.00000000000E+00 0.  1.
         11    1    5    5    0    0  0.14584200513E+03 -0.42004276260E+02 -0.56848996736E+02  0.16206806630E+03  0.00000000000E+00 0. -1.
        -11    1    5    5    0    0  0.29316415408E+03 -0.21260368905E+03 -0.21157437434E+03  0.41941538564E+03  0.00000000000E+00 0.  1.
          1    1    6    6  503    0 -0.31634155256E+02  0.22782933281E+03 -0.10037487972E+03  0.25096223051E+03  0.00000000000E+00 0. -1.
         -1    1    6    6    0  503  0.61108568182E+02  0.36918000415E+03 -0.10587121975E+03  0.38889182010E+03  0.00000000000E+00 0.  1.
<mgrwt>
<rscale>  0 0.22662739E+04</rscale>
<asrwt>0</asrwt>
<pdfrwt beam="1">  1        2 0.48070974E+00 0.22662739E+04</pdfrwt>
<pdfrwt beam="2">  1       -1 0.63220099E-01 0.22662739E+04</pdfrwt>
<totfact> 0.38139376E+00</totfact>
</mgrwt>
</event>
<event>
12    6  0.1627636E-007  0.1768929E+04  0.7818608E-02  0.8723000E-01
         -1   -1    0    0    0  501 -0.00000000000E+00  0.00000000000E+00  0.43264486758E+03  0.43264486758E+03  0.00000000000E+00 0.  1.
          2   -1    0    0  501    0  0.00000000000E+00 -0.00000000000E+00 -0.18081279027E+04  0.18081279027E+04  0.00000000000E+00 0. -1.
         24    2    1    2    0    0  0.41167190333E+03 -0.20043808823E+03 -0.11216516914E+04  0.12146315416E+04  0.87052179043E+02 0.  0.
        254    2    1    2    0    0 -0.41167190333E+03  0.20043808823E+03 -0.25383134372E+03  0.10261412286E+04  0.88254534551E+03 0.  0.
         23    2    4    4    0    0 -0.56483520215E+03  0.34282075088E+03  0.23288257724E+02  0.66675488284E+03  0.86341519673E+02 0.  0.
         23    2    4    4    0    0  0.15316329882E+03 -0.14238266265E+03 -0.27711960144E+03  0.35938634581E+03  0.92905615140E+02 0.  0.
          2    1    3    3  502    0  0.36582892953E+03 -0.15792960643E+03 -0.10227216080E+04  0.10976028671E+04  0.00000000000E+00 0. -1.
         -1    1    3    3    0  502  0.45842973802E+02 -0.42508481798E+02 -0.98930083370E+02  0.11702867455E+03  0.00000000000E+00 0.  1.
         11    1    5    5    0    0 -0.55637388715E+03  0.31979844600E+03  0.24444187137E+02  0.64219970932E+03  0.00000000000E+00 0. -1.
        -11    1    5    5    0    0 -0.84613149950E+01  0.23022304883E+02 -0.11559294122E+01  0.24555173515E+02  0.00000000000E+00 0.  1.
          4    1    6    6  503    0 -0.11934394852E+02 -0.32311726998E+01 -0.21282157346E+02  0.24613014419E+02  0.00000000000E+00 0.  1.
         -4    1    6    6    0  503  0.16509769367E+03 -0.13915148995E+03 -0.25583744409E+03  0.33477333139E+03  0.00000000000E+00 0. -1.
<mgrwt>
<rscale>  0 0.17689288E+04</rscale>
<asrwt>0</asrwt>
<pdfrwt beam="1">  1        2 0.27817353E+00 0.17689288E+04</pdfrwt>
<pdfrwt beam="2">  1       -1 0.66560748E-01 0.17689288E+04</pdfrwt>
<totfact> 0.21052205E+01</totfact>
</mgrwt>
</event>
<event>
12    6  0.1627636E-007  0.2041073E+04  0.7818608E-02  0.8587655E-01
         -1   -1    0    0    0  501 -0.00000000000E+00  0.00000000000E+00  0.24298027400E+04  0.24298027400E+04  0.00000000000E+00 0.  1.
          2   -1    0    0  501    0  0.00000000000E+00 -0.00000000000E+00 -0.42863365126E+03  0.42863365126E+03  0.00000000000E+00 0. -1.
         24    2    1    2    0    0  0.45853281071E+03 -0.20232441760E+03  0.17288842098E+04  0.18018128544E+04  0.79381628865E+02 0.  0.
        254    2    1    2    0    0 -0.45853281071E+03  0.20232441760E+03  0.27228487897E+03  0.10566235369E+04  0.88945305378E+03 0.  0.
         23    2    4    4    0    0 -0.64040370189E+03 -0.78111920199E+02  0.27980124234E+03  0.70919105998E+03  0.91895869767E+02 0.  0.
         23    2    4    4    0    0  0.18187089117E+03  0.28043633780E+03 -0.75163633707E+01  0.34743247688E+03  0.94505394862E+02 0.  0.
          2    1    3    3  502    0  0.17730466021E+03 -0.78272153711E+02  0.81072866579E+03  0.83357329739E+03  0.00000000000E+00 0. -1.
         -1    1    3    3    0  502  0.28122815051E+03 -0.12405226389E+03  0.91815554396E+03  0.96823955699E+03  0.00000000000E+00 0.  1.
         11    1    5    5    0    0 -0.20548842223E+03 -0.66640724616E+02  0.10689592074E+03  0.24102534249E+03  0.00000000000E+00 0. -1.
        -11    1    5    5    0    0 -0.43491527965E+03 -0.11471195584E+02  0.17290532159E+03  0.46816571750E+03  0.00000000000E+00 0.  1.
          3    1    6    6  503    0  0.67356856100E+02  0.16573680184E+03 -0.37017936178E+02  0.18269088961E+03  0.00000000000E+00 0. -1.
         -3    1    6    6    0  503  0.11451403507E+03  0.11469953596E+03  0.29501572807E+02  0.16474158727E+03  0.00000000000E+00 0.  1.
<mgrwt>
<rscale>  0 0.20410735E+04</rscale>
<asrwt>0</asrwt>
<pdfrwt beam="1">  1        2 0.65943640E-01 0.20410735E+04</pdfrwt>
<pdfrwt beam="2">  1       -1 0.37381580E+00 0.20410735E+04</pdfrwt>
<totfact> 0.83923520E-01</totfact>
</mgrwt>
</event>
<event>
12    6  0.1627636E-007  0.2887109E+04  0.7818608E-02  0.8276723E-01
          2   -1    0    0  501    0  0.00000000000E+00  0.00000000000E+00  0.27400320184E+04  0.27400320184E+04  0.00000000000E+00 0. -1.
         -1   -1    0    0    0  501 -0.00000000000E+00 -0.00000000000E+00 -0.76052034706E+03  0.76052034706E+03  0.00000000000E+00 0.  1.
         24    2    1    2    0    0  0.93183497295E+03  0.89960820555E+03  0.71750122097E+03  0.14829037631E+04  0.81143258062E+02 0.  0.
        254    2    1    2    0    0 -0.93183497295E+03 -0.89960820555E+03  0.12620104503E+04  0.20176486023E+04  0.89477604195E+03 0.  0.
         23    2    4    4    0    0 -0.63288957511E+03 -0.40715210065E+03  0.12154377430E+04  0.14324561184E+04  0.91211713356E+02 0.  0.
         23    2    4    4    0    0 -0.29894539784E+03 -0.49245610491E+03  0.46572707352E+02  0.58519248391E+03  0.91650750197E+02 0.  0.
          4    1    3    3  502    0  0.51195833148E+03  0.48685849986E+03  0.34546254701E+03  0.78643302540E+03  0.00000000000E+00 0. -1.
         -1    1    3    3    0  502  0.41987664147E+03  0.41274970570E+03  0.37203867396E+03  0.69647073774E+03  0.00000000000E+00 0.  1.
         11    1    5    5    0    0 -0.10740759137E+03 -0.49277975803E+02  0.14061571381E+03  0.18367767571E+03  0.00000000000E+00 0. -1.
        -11    1    5    5    0    0 -0.52548198374E+03 -0.35787412485E+03  0.10748220292E+04  0.12487784427E+04  0.00000000000E+00 0.  1.
          2    1    6    6  503    0 -0.33876541583E+02 -0.11255226932E+03 -0.12506593710E+02  0.11820341909E+03  0.00000000000E+00 0. -1.
         -2    1    6    6    0  503 -0.26506885626E+03 -0.37990383558E+03  0.59079301063E+02  0.46698906482E+03  0.00000000000E+00 0.  1.
<mgrwt>
<rscale>  0 0.28871094E+04</rscale>
<asrwt>0</asrwt>
<pdfrwt beam="1">  1        2 0.42154338E+00 0.28871094E+04</pdfrwt>
<pdfrwt beam="2">  1       -1 0.11700313E+00 0.28871094E+04</pdfrwt>
<totfact> 0.16241655E+00</totfact>
</mgrwt>
</event>
<event>
12    6  0.1627636E-007  0.2588398E+04  0.7818608E-02  0.8372153E-01
          2   -1    0    0  501    0  0.00000000000E+00  0.00000000000E+00  0.10304004839E+04  0.10304004839E+04  0.00000000000E+00 0. -1.
         -1   -1    0    0    0  501 -0.00000000000E+00 -0.00000000000E+00 -0.16255338562E+04  0.16255338562E+04  0.00000000000E+00 0.  1.
         24    2    1    2    0    0 -0.32612173717E+02 -0.11170187159E+04  0.13013466749E+02  0.11203900305E+04  0.79436166822E+02 0.  0.
        254    2    1    2    0    0  0.32612173717E+02  0.11170187159E+04 -0.60814683902E+03  0.15355443096E+04  0.85980194432E+03 0.  0.
         23    2    4    4    0    0  0.43517294547E+03  0.62616619505E+03 -0.33743862584E+03  0.83870053779E+03  0.89967603035E+02 0.  0.
         23    2    4    4    0    0 -0.40256077175E+03  0.49085252087E+03 -0.27070821318E+03  0.69684377185E+03  0.96524263687E+02 0.  0.
          4    1    3    3  502    0  0.77047719639E+01 -0.86793064829E+03  0.12866137631E+02  0.86806020024E+03  0.00000000000E+00 0. -1.
         -3    1    3    3    0  502 -0.40316945681E+02 -0.24908806763E+03  0.14732911806E+00  0.25232983029E+03  0.00000000000E+00 0.  1.
         11    1    5    5    0    0  0.40973661213E+03  0.58107908320E+03 -0.28802207683E+03  0.76713343624E+03  0.00000000000E+00 0. -1.
        -11    1    5    5    0    0  0.25436333333E+02  0.45087111847E+02 -0.49416549015E+02  0.71567101553E+02  0.00000000000E+00 0.  1.
          1    1    6    6  503    0 -0.25944567239E+03  0.36996832813E+03 -0.16070657138E+03  0.47959902296E+03  0.00000000000E+00 0. -1.
         -1    1    6    6    0  503 -0.14311509936E+03  0.12088419274E+03 -0.11000164180E+03  0.21724474889E+03  0.00000000000E+00 0.  1.
<mgrwt>
<rscale>  0 0.25883979E+04</rscale>
<asrwt>0</asrwt>
<pdfrwt beam="1">  1        2 0.15852315E+00 0.25883979E+04</pdfrwt>
<pdfrwt beam="2">  1       -1 0.25008213E+00 0.25883979E+04</pdfrwt>
<totfact> 0.16927395E+00</totfact>
</mgrwt>
</event>
<event>
12    6  0.1627636E-007  0.2573528E+04  0.7818608E-02  0.8377249E-01
         -1   -1    0    0    0  501 -0.00000000000E+00  0.00000000000E+00  0.66429905266E+03  0.66429905266E+03  0.00000000000E+00 0.  1.
          2   -1    0    0  501    0  0.00000000000E+00 -0.00000000000E+00 -0.24924935447E+04  0.24924935447E+04  0.00000000000E+00 0. -1.
         24    2    1    2    0    0  0.24580964896E+03  0.36830735888E+03 -0.20636542329E+04  0.21121871162E+04  0.81196838953E+02 0.  0.
        254    2    1    2    0    0 -0.24580964896E+03 -0.36830735888E+03  0.23545974086E+03  0.10446054812E+04  0.91634416440E+03 0.  0.
         23    2    4    4    0    0 -0.20428295164E+03 -0.52289377806E+03 -0.17176303716E+03  0.59504682504E+03  0.97101779560E+02 0.  0.
         23    2    4    4    0    0 -0.41526697327E+02  0.15458641918E+03  0.40722277802E+03  0.44955865615E+03  0.10320449019E+03 0.  0.
          4    1    3    3  502    0  0.24555505837E+03  0.36302061732E+03 -0.19602117042E+04  0.20086092653E+04  0.00000000000E+00 0. -1.
         -3    1    3    3    0  502  0.25459059645E+00  0.52867415588E+01 -0.10344252871E+03  0.10357785091E+03  0.00000000000E+00 0.  1.
         11    1    5    5    0    0 -0.19991377247E+03 -0.42330869421E+03 -0.12274189069E+03  0.48396419160E+03  0.00000000000E+00 0. -1.
        -11    1    5    5    0    0 -0.43691791675E+01 -0.99585083844E+02 -0.49021146469E+02  0.11108263344E+03  0.00000000000E+00 0.  1.
          3    1    6    6  503    0  0.11576971748E+02  0.12706561052E+03  0.31235983075E+03  0.33741422542E+03  0.00000000000E+00 0. -1.
         -3    1    6    6    0  503 -0.53103669075E+02  0.27520808657E+02  0.94862947273E+02  0.11214443073E+03  0.00000000000E+00 0.  1.
<mgrwt>
<rscale>  0 0.25735276E+04</rscale>
<asrwt>0</asrwt>
<pdfrwt beam="1">  1        2 0.38346054E+00 0.25735276E+04</pdfrwt>
<pdfrwt beam="2">  1       -1 0.10219986E+00 0.25735276E+04</pdfrwt>
<totfact> 0.32128016E+00</totfact>
</mgrwt>
</event>
<event>
12    6  0.1627636E-007  0.2215524E+04  0.7818608E-02  0.8511994E-01
         -1   -1    0    0    0  501 -0.00000000000E+00  0.00000000000E+00  0.57572508675E+03  0.57572508675E+03  0.00000000000E+00 0.  1.
          2   -1    0    0  501    0  0.00000000000E+00 -0.00000000000E+00 -0.21314634465E+04  0.21314634465E+04  0.00000000000E+00 0. -1.
         24    2    1    2    0    0  0.19781273206E+03 -0.66059309558E+03 -0.13576955009E+04  0.15249187080E+04  0.80789096006E+02 0.  0.
        254    2    1    2    0    0 -0.19781273206E+03  0.66059309558E+03 -0.19804285880E+03  0.11822698252E+04  0.93969561598E+03 0.  0.
         23    2    4    4    0    0  0.29295030484E+03  0.14922795805E+03 -0.30769413013E+03  0.45939528371E+03  0.90991672191E+02 0.  0.
         23    2    4    4    0    0 -0.49076303690E+03  0.51136513753E+03  0.10965127133E+03  0.72287454146E+03  0.90451860709E+02 0.  0.
          2    1    3    3  502    0  0.88319964869E+02 -0.29567406604E+03 -0.69676716826E+03  0.76204203053E+03  0.00000000000E+00 0. -1.
         -1    1    3    3    0  502  0.10949276719E+03 -0.36491902955E+03 -0.66092833264E+03  0.76287667751E+03  0.00000000000E+00 0.  1.
         11    1    5    5    0    0  0.11796681527E+03  0.11069113497E+03 -0.13846860629E+03  0.21293720152E+03  0.00000000000E+00 0.  1.
        -11    1    5    5    0    0  0.17498348957E+03  0.38536823086E+02 -0.16922552384E+03  0.24645808219E+03  0.00000000000E+00 0. -1.
          3    1    6    6  503    0 -0.32400541173E+02  0.74778110477E+02  0.13025398136E+02  0.82530127053E+02  0.00000000000E+00 0. -1.
         -3    1    6    6    0  503 -0.45836249573E+03  0.43658702706E+03  0.96625873195E+02  0.64034441440E+03  0.00000000000E+00 0.  1.
<mgrwt>
<rscale>  0 0.22155243E+04</rscale>
<asrwt>0</asrwt>
<pdfrwt beam="1">  1        2 0.32791746E+00 0.22155243E+04</pdfrwt>
<pdfrwt beam="2">  1       -1 0.88573090E-01 0.22155243E+04</pdfrwt>
<totfact> 0.73343132E+00</totfact>
</mgrwt>
</event>
<event>
12    6  0.1627636E-007  0.1653903E+04  0.7818608E-02  0.8788101E-01
          2   -1    0    0  501    0  0.00000000000E+00  0.00000000000E+00  0.94874904518E+03  0.94874904518E+03  0.00000000000E+00 0. -1.
         -1   -1    0    0    0  501 -0.00000000000E+00 -0.00000000000E+00 -0.72079022263E+03  0.72079022263E+03  0.00000000000E+00 0.  1.
         24    2    1    2    0    0 -0.57863485005E+03  0.28931867299E+02  0.84648087088E+02  0.59089807126E+03  0.79623422006E+02 0.  0.
        254    2    1    2    0    0  0.57863485005E+03 -0.28931867299E+02  0.14331073546E+03  0.10786411965E+04  0.89848401285E+03 0.  0.
         23    2    4    4    0    0  0.79351944957E+02  0.10070564809E+03  0.44626129939E+03  0.47332992130E+03  0.91944050038E+02 0.  0.
         23    2    4    4    0    0  0.49928290509E+03 -0.12963751539E+03 -0.30295056393E+03  0.60531127524E+03  0.92376355407E+02 0.  0.
          2    1    3    3  502    0 -0.17096363549E+03  0.31102379690E+02  0.54464668689E+02  0.18210525203E+03  0.00000000000E+00 0. -1.
         -1    1    3    3    0  502 -0.40767121456E+03 -0.21705123908E+01  0.30183418399E+02  0.40879281923E+03  0.00000000000E+00 0.  1.
         11    1    5    5    0    0  0.40109350273E+02  0.11815744275E+02  0.49274112016E+02  0.64624375487E+02  0.00000000000E+00 0. -1.
        -11    1    5    5    0    0  0.39242594684E+02  0.88889903819E+02  0.39698718738E+03  0.40870554581E+03  0.00000000000E+00 0.  1.
          2    1    6    6  503    0  0.43594998437E+02  0.56472921566E+01 -0.50969850136E+02  0.67307810990E+02  0.00000000000E+00 0. -1.
         -2    1    6    6    0  503  0.45568790665E+03 -0.13528480755E+03 -0.25198071379E+03  0.53800346425E+03  0.00000000000E+00 0.  1.
<mgrwt>
<rscale>  0 0.16539033E+04</rscale>
<asrwt>0</asrwt>
<pdfrwt beam="1">  1        2 0.14596139E+00 0.16539033E+04</pdfrwt>
<pdfrwt beam="2">  1       -1 0.11089080E+00 0.16539033E+04</pdfrwt>
<totfact> 0.22198271E+01</totfact>
</mgrwt>
</event>
<event>
12    6  0.1627636E-007  0.2064200E+04  0.7818608E-02  0.8577179E-01
          2   -1    0    0  501    0  0.00000000000E+00  0.00000000000E+00  0.13973193809E+04  0.13973193809E+04  0.00000000000E+00 0. -1.
         -1   -1    0    0    0  501 -0.00000000000E+00 -0.00000000000E+00 -0.76233876334E+03  0.76233876334E+03  0.00000000000E+00 0.  1.
         24    2    1    2    0    0  0.36886739626E+03 -0.49387632387E+03 -0.33072888035E+03  0.70438925902E+03  0.82496403713E+02 0.  0.
        254    2    1    2    0    0 -0.36886739626E+03  0.49387632387E+03  0.96570949793E+03  0.14552688852E+04  0.89734927126E+03 0.  0.
         23    2    4    4    0    0  0.27336502399E+03  0.27644349696E+03  0.43033922132E+03  0.58690486796E+03  0.90089040862E+02 0.  0.
         23    2    4    4    0    0 -0.64223242024E+03  0.21743282691E+03  0.53537027662E+03  0.86836401727E+03  0.87722389269E+02 0.  0.
          4    1    3    3  502    0  0.22993871546E+03 -0.32409019856E+03 -0.16890884781E+03  0.43178289514E+03  0.00000000000E+00 0. -1.
         -3    1    3    3    0  502  0.13892868080E+03 -0.16978612531E+03 -0.16182003254E+03  0.27260636388E+03  0.00000000000E+00 0.  1.
         11    1    5    5    0    0  0.25239372395E+02  0.17401894072E+02  0.79263014205E+02  0.84985159040E+02  0.00000000000E+00 0.  1.
        -11    1    5    5    0    0  0.24812565159E+03  0.25904160289E+03  0.35107620711E+03  0.50191970892E+03  0.00000000000E+00 0. -1.
          1    1    6    6  503    0 -0.15960944204E+02  0.14538400846E+02  0.36384461290E+02  0.42307751801E+02  0.00000000000E+00 0.  1.
         -1    1    6    6    0  503 -0.62627147604E+03  0.20289442607E+03  0.49898581533E+03  0.82605626547E+03  0.00000000000E+00 0. -1.
<mgrwt>
<rscale>  0 0.20642003E+04</rscale>
<asrwt>0</asrwt>
<pdfrwt beam="1">  1        2 0.21497221E+00 0.20642003E+04</pdfrwt>
<pdfrwt beam="2">  1       -1 0.11728289E+00 0.20642003E+04</pdfrwt>
<totfact> 0.10013267E+01</totfact>
</mgrwt>
</event>
<event>
12    6  0.1627636E-007  0.1902862E+04  0.7818608E-02  0.8653433E-01
         -1   -1    0    0    0  501 -0.00000000000E+00  0.00000000000E+00  0.60314779484E+03  0.60314779484E+03  0.00000000000E+00 0.  1.
          2   -1    0    0  501    0  0.00000000000E+00 -0.00000000000E+00 -0.15008281709E+04  0.15008281709E+04  0.00000000000E+00 0. -1.
         24    2    1    2    0    0  0.45804762047E+03  0.21277443472E+03 -0.93209261269E+03  0.10628245684E+04  0.75623024242E+02 0.  0.
        254    2    1    2    0    0 -0.45804762047E+03 -0.21277443472E+03  0.34412236673E+02  0.10411513973E+04  0.90979747605E+03 0.  0.
         23    2    4    4    0    0 -0.89509411787E+02 -0.74108591739E+02 -0.41240720878E+03  0.43775427140E+03  0.89694359411E+02 0.  0.
         23    2    4    4    0    0 -0.36853820868E+03 -0.13866584299E+03  0.44681944545E+03  0.60339712592E+03  0.96911544558E+02 0.  0.
          2    1    3    3  502    0  0.61699456642E+02  0.30476304250E+02 -0.79860885582E+02  0.10542006031E+03  0.00000000000E+00 0. -1.
         -1    1    3    3    0  502  0.39634816383E+03  0.18229813047E+03 -0.85223172711E+03  0.95740450805E+03  0.00000000000E+00 0.  1.
         11    1    5    5    0    0 -0.64836499012E+01 -0.34293205618E+02 -0.23787797681E+03  0.24042461088E+03  0.00000000000E+00 0. -1.
        -11    1    5    5    0    0 -0.83025761886E+02 -0.39815386120E+02 -0.17452923197E+03  0.19732966052E+03  0.00000000000E+00 0.  1.
          1    1    6    6  503    0 -0.21131890841E+03 -0.92672728145E+02  0.19058617843E+03  0.29927747493E+03  0.00000000000E+00 0. -1.
         -1    1    6    6    0  503 -0.15721930028E+03 -0.45993114840E+02  0.25623326702E+03  0.30411965099E+03  0.00000000000E+00 0.  1.
<mgrwt>
<rscale>  0 0.19028623E+04</rscale>
<asrwt>0</asrwt>
<pdfrwt beam="1">  1        2 0.23089664E+00 0.19028623E+04</pdfrwt>
<pdfrwt beam="2">  1       -1 0.92791969E-01 0.19028623E+04</pdfrwt>
<totfact> 0.15269573E+01</totfact>
</mgrwt>
</event>
<event>
12    6  0.1627636E-007  0.1892326E+04  0.7818608E-02  0.8658685E-01
         -1   -1    0    0    0  501 -0.00000000000E+00  0.00000000000E+00  0.36875686900E+03  0.36875686900E+03  0.00000000000E+00 0.  1.
          2   -1    0    0  501    0  0.00000000000E+00 -0.00000000000E+00 -0.24276832564E+04  0.24276832564E+04  0.00000000000E+00 0. -1.
         24    2    1    2    0    0  0.68444378319E+03  0.12968483657E+03 -0.49212801053E+03  0.85690012899E+03  0.82500928159E+02 0.  0.
        254    2    1    2    0    0 -0.68444378319E+03 -0.12968483657E+03 -0.15667983769E+04  0.19395399964E+04  0.90646389598E+03 0.  0.
         23    2    4    4    0    0 -0.52788457431E+03  0.48432374175E+02 -0.24246154572E+03  0.59097281480E+03  0.97228843546E+02 0.  0.
         23    2    4    4    0    0 -0.15655920888E+03 -0.17811721074E+03 -0.13243368312E+04  0.13485671816E+04  0.92351904797E+02 0.  0.
          2    1    3    3  502    0 -0.92769157908E+00 -0.26201925724E+01 -0.49493990357E+01  0.56764928959E+01  0.00000000000E+00 0. -1.
         -1    1    3    3    0  502  0.68537147477E+03  0.13230502914E+03 -0.48717861149E+03  0.85122363610E+03  0.00000000000E+00 0.  1.
         11    1    5    5    0    0 -0.30064832879E+02 -0.37577858154E+01 -0.41972411213E+02  0.51765803706E+02  0.00000000000E+00 0.  1.
        -11    1    5    5    0    0 -0.49781974143E+03  0.52190159990E+02 -0.20048913450E+03  0.53920701109E+03  0.00000000000E+00 0. -1.
          2    1    6    6  503    0 -0.14556664299E+03 -0.13317155884E+03 -0.88091724259E+03  0.90273999575E+03  0.00000000000E+00 0.  1.
         -2    1    6    6    0  503 -0.10992565887E+02 -0.44945651905E+02 -0.44341958856E+03  0.44582718586E+03  0.00000000000E+00 0. -1.
<mgrwt>
<rscale>  0 0.18923265E+04</rscale>
<asrwt>0</asrwt>
<pdfrwt beam="1">  1        2 0.37348975E+00 0.18923265E+04</pdfrwt>
<pdfrwt beam="2">  1       -1 0.56731824E-01 0.18923265E+04</pdfrwt>
<totfact> 0.12868897E+01</totfact>
</mgrwt>
</event>
<event>
12    6  0.1627636E-007  0.2906432E+04  0.7818608E-02  0.8270966E-01
         -1   -1    0    0    0  501 -0.00000000000E+00  0.00000000000E+00  0.11007853448E+04  0.11007853448E+04  0.00000000000E+00 0.  1.
          2   -1    0    0  501    0  0.00000000000E+00 -0.00000000000E+00 -0.19184820801E+04  0.19184820801E+04  0.00000000000E+00 0. -1.
         24    2    1    2    0    0  0.35106965704E+03  0.20850262833E+03 -0.16630777444E+04  0.17148595101E+04  0.90511354337E+02 0.  0.
        254    2    1    2    0    0 -0.35106965704E+03 -0.20850262833E+03  0.84538100915E+03  0.13044079148E+04  0.90558694084E+03 0.  0.
         23    2    4    4    0    0  0.14570021469E+03  0.90805006260E+02 -0.78029721213E+02  0.21003377123E+03  0.92474028472E+02 0.  0.
         23    2    4    4    0    0 -0.49676987173E+03 -0.29930763459E+03  0.92341073036E+03  0.10943741436E+04  0.92747094718E+02 0.  0.
          4    1    3    3  502    0  0.34933037056E+03  0.20340335410E+03 -0.16602939597E+04  0.17087950915E+04  0.00000000000E+00 0. -1.
         -3    1    3    3    0  502  0.17392864777E+01  0.50992742318E+01 -0.27837847362E+01  0.60644185706E+01  0.00000000000E+00 0.  1.
         11    1    5    5    0    0  0.12059003613E+03  0.23097928596E+02 -0.48347586445E+02  0.13195817608E+03  0.00000000000E+00 0.  1.
        -11    1    5    5    0    0  0.25110178553E+02  0.67707077664E+02 -0.29682134768E+02  0.78075595144E+02  0.00000000000E+00 0. -1.
          4    1    6    6  503    0 -0.30567993438E+03 -0.22686917359E+03  0.55351371405E+03  0.67177918683E+03  0.00000000000E+00 0. -1.
         -4    1    6    6    0  503 -0.19108993735E+03 -0.72438460997E+02  0.36989701631E+03  0.42259495674E+03  0.00000000000E+00 0.  1.
<mgrwt>
<rscale>  0 0.29064321E+04</rscale>
<asrwt>0</asrwt>
<pdfrwt beam="1">  1        2 0.29515109E+00 0.29064321E+04</pdfrwt>
<pdfrwt beam="2">  1       -1 0.16935159E+00 0.29064321E+04</pdfrwt>
<totfact> 0.18107910E+00</totfact>
</mgrwt>
</event>
<event>
12    6  0.1627636E-007  0.2236016E+04  0.7818608E-02  0.8503585E-01
         -1   -1    0    0    0  501 -0.00000000000E+00  0.00000000000E+00  0.89622184855E+03  0.89622184855E+03  0.00000000000E+00 0.  1.
          2   -1    0    0  501    0  0.00000000000E+00 -0.00000000000E+00 -0.13946796411E+04  0.13946796411E+04  0.00000000000E+00 0. -1.
         24    2    1    2    0    0 -0.73342231146E+03  0.12365531069E+03 -0.79017078065E+03  0.10880089335E+04  0.78706124360E+02 0.  0.
        254    2    1    2    0    0  0.73342231146E+03 -0.12365531069E+03  0.29171298805E+03  0.12028925562E+04  0.89925252931E+03 0.  0.
         23    2    4    4    0    0  0.40535867491E+03  0.37384103471E+03  0.20422650441E+03  0.59487754194E+03  0.89989167365E+02 0.  0.
         23    2    4    4    0    0  0.32806363655E+03 -0.49749634540E+03  0.87486483649E+02  0.60801501423E+03  0.83066295178E+02 0.  0.
          4    1    3    3  502    0 -0.56537960472E+03  0.81916292779E+02 -0.55994947342E+03  0.79994236620E+03  0.00000000000E+00 0. -1.
         -3    1    3    3    0  502 -0.16804270674E+03  0.41739017910E+02 -0.23022130722E+03  0.28806656732E+03  0.00000000000E+00 0.  1.
         11    1    5    5    0    0  0.25937051591E+03  0.28400429157E+03  0.11395212541E+03  0.40114410010E+03  0.00000000000E+00 0.  1.
        -11    1    5    5    0    0  0.14598815900E+03  0.89836743136E+02  0.90274378991E+02  0.19373344184E+03  0.00000000000E+00 0. -1.
          3    1    6    6  503    0  0.10621407435E+03 -0.21732062154E+03  0.62151368979E+02  0.24974481937E+03  0.00000000000E+00 0. -1.
         -3    1    6    6    0  503  0.22184956220E+03 -0.28017572386E+03  0.25335114669E+02  0.35827019486E+03  0.00000000000E+00 0.  1.
<mgrwt>
<rscale>  0 0.22360164E+04</rscale>
<asrwt>0</asrwt>
<pdfrwt beam="1">  1        2 0.21456610E+00 0.22360164E+04</pdfrwt>
<pdfrwt beam="2">  1       -1 0.13788029E+00 0.22360164E+04</pdfrwt>
<totfact> 0.66012154E+00</totfact>
</mgrwt>
</event>
<event>
12    6  0.1627636E-007  0.2436688E+04  0.7818608E-02  0.8425894E-01
         -1   -1    0    0    0  501 -0.00000000000E+00  0.00000000000E+00  0.61578468400E+03  0.61578468400E+03  0.00000000000E+00 0.  1.
          2   -1    0    0  501    0  0.00000000000E+00 -0.00000000000E+00 -0.24105217535E+04  0.24105217535E+04  0.00000000000E+00 0. -1.
         24    2    1    2    0    0 -0.68202349733E+03  0.62254082524E+03 -0.15466396277E+03  0.93971352542E+03  0.80171307102E+02 0.  0.
        254    2    1    2    0    0  0.68202349733E+03 -0.62254082524E+03 -0.16400731067E+04  0.20865929121E+04  0.90073140020E+03 0.  0.
         23    2    4    4    0    0  0.43481516651E+03 -0.26926915497E+03 -0.15515821189E+04  0.16364304658E+04  0.94485399666E+02 0.  0.
         23    2    4    4    0    0  0.24720833082E+03 -0.35327167027E+03 -0.88490987782E+02  0.45016244627E+03  0.94354338912E+02 0.  0.
          4    1    3    3  502    0 -0.49503708792E+03  0.48238364565E+03 -0.14235733098E+03  0.70570624887E+03  0.00000000000E+00 0. -1.
         -3    1    3    3    0  502 -0.18698640942E+03  0.14015717958E+03 -0.12306631793E+02  0.23400727656E+03  0.00000000000E+00 0.  1.
         11    1    5    5    0    0  0.18044152158E+02 -0.37428409047E+02 -0.16380295608E+03  0.16899078570E+03  0.00000000000E+00 0. -1.
        -11    1    5    5    0    0  0.41677101436E+03 -0.23184074592E+03 -0.13877791629E+04  0.14674396801E+04  0.00000000000E+00 0.  1.
          1    1    6    6  503    0  0.10149804909E+03 -0.14224787258E+03  0.11011144008E+02  0.17509299390E+03  0.00000000000E+00 0. -1.
         -1    1    6    6    0  503  0.14571028173E+03 -0.21102379769E+03 -0.99502131790E+02  0.27506945236E+03  0.00000000000E+00 0.  1.
<mgrwt>
<rscale>  0 0.24366882E+04</rscale>
<asrwt>0</asrwt>
<pdfrwt beam="1">  1        2 0.37084950E+00 0.24366882E+04</pdfrwt>
<pdfrwt beam="2">  1       -1 0.94736104E-01 0.24366882E+04</pdfrwt>
<totfact> 0.43075122E+00</totfact>
</mgrwt>
</event>
<event>
12    6  0.1627636E-007  0.1166184E+04  0.7818608E-02  0.9142981E-01
         -3   -1    0    0    0  501 -0.00000000000E+00  0.00000000000E+00  0.10854549509E+03  0.10854549509E+03  0.00000000000E+00 0.  1.
          2   -1    0    0  501    0  0.00000000000E+00 -0.00000000000E+00 -0.31322939964E+04  0.31322939964E+04  0.00000000000E+00 0. -1.
         24    2    1    2    0    0 -0.24012319358E+03 -0.73976198816E+01 -0.10722058477E+04  0.11016405847E+04  0.79200536837E+02 0.  0.
        254    2    1    2    0    0  0.24012319358E+03  0.73976198816E+01 -0.19515426536E+04  0.21391989068E+04  0.84257899408E+03 0.  0.
         23    2    4    4    0    0  0.19163277953E+03  0.40096029288E+03 -0.82728884788E+03  0.94375411637E+03  0.93662776410E+02 0.  0.
         23    2    4    4    0    0  0.48490414045E+02 -0.39356267300E+03 -0.11242538057E+04  0.11954447904E+04  0.88874796854E+02 0.  0.
          4    1    3    3  502    0 -0.19030376325E+03 -0.14031043873E+02 -0.95868948340E+03  0.97749573814E+03  0.00000000000E+00 0. -1.
         -3    1    3    3    0  502 -0.49819430328E+02  0.66334239915E+01 -0.11351636433E+03  0.12414484654E+03  0.00000000000E+00 0.  1.
         11    1    5    5    0    0  0.14591785232E+03  0.20027709435E+03 -0.42884184503E+03  0.49528604079E+03  0.00000000000E+00 0.  1.
        -11    1    5    5    0    0  0.45714927217E+02  0.20068319853E+03 -0.39844700285E+03  0.44846807559E+03  0.00000000000E+00 0. -1.
          3    1    6    6  503    0  0.44631964219E+02 -0.22783263727E+03 -0.53250718744E+03  0.58091619663E+03  0.00000000000E+00 0. -1.
         -3    1    6    6    0  503  0.38584498257E+01 -0.16573003573E+03 -0.59174661827E+03  0.61452859381E+03  0.00000000000E+00 0.  1.
<mgrwt>
<rscale>  0 0.11661842E+04</rscale>
<asrwt>0</asrwt>
<pdfrwt beam="1">  1        2 0.48189138E+00 0.11661842E+04</pdfrwt>
<pdfrwt beam="2">  1       -3 0.16699307E-01 0.11661842E+04</pdfrwt>
<totfact> 0.29981285E+01</totfact>
</mgrwt>
</event>
<event>
12    6  0.1627636E-007  0.1987295E+04  0.7818608E-02  0.8612584E-01
          4   -1    0    0  501    0  0.00000000000E+00  0.00000000000E+00  0.27436578100E+04  0.27436578100E+04  0.00000000000E+00 0. -1.
         -3   -1    0    0    0  501 -0.00000000000E+00 -0.00000000000E+00 -0.35986105159E+03  0.35986105159E+03  0.00000000000E+00 0.  1.
         24    2    1    2    0    0 -0.73160205379E+02  0.46047451914E+03 -0.44559527309E+02  0.47175467289E+03  0.56371282496E+02 0.  0.
        254    2    1    2    0    0  0.73160205379E+02 -0.46047451914E+03  0.24283562857E+04  0.26317641887E+04  0.90104344850E+03 0.  0.
         23    2    4    4    0    0  0.37740375261E+02 -0.67720417595E+03  0.21921659941E+04  0.22964168515E+04  0.88931313691E+02 0.  0.
         23    2    4    4    0    0  0.35419830118E+02  0.21672965681E+03  0.23619029159E+03  0.33534733712E+03  0.91900349089E+02 0.  0.
          4    1    3    3  502    0 -0.45132515618E+02  0.14639661740E+03 -0.29912648777E+02  0.15608869309E+03  0.00000000000E+00 0. -1.
         -3    1    3    3    0  502 -0.28027689761E+02  0.31407790174E+03 -0.14646878532E+02  0.31566597981E+03  0.00000000000E+00 0.  1.
         11    1    5    5    0    0  0.28283278699E+02 -0.64144040280E+03  0.21231737853E+04  0.22181326959E+04  0.00000000000E+00 0. -1.
        -11    1    5    5    0    0  0.94570965617E+01 -0.35763773150E+02  0.68992208799E+02  0.78284155615E+02  0.00000000000E+00 0.  1.
          3    1    6    6  503    0  0.46004738631E+02  0.15871799907E+03  0.11734494841E+03  0.20267628407E+03  0.00000000000E+00 0. -1.
         -3    1    6    6    0  503 -0.10584908513E+02  0.58011657739E+02  0.11884534318E+03  0.13267105305E+03  0.00000000000E+00 0.  1.
<mgrwt>
<rscale>  0 0.19872952E+04</rscale>
<asrwt>0</asrwt>
<pdfrwt beam="1">  1        4 0.42210119E+00 0.19872952E+04</pdfrwt>
<pdfrwt beam="2">  1       -3 0.55363241E-01 0.19872952E+04</pdfrwt>
<totfact> 0.32578524E-02</totfact>
</mgrwt>
</event>
<event>
12    6  0.1627636E-007  0.1601357E+04  0.7818608E-02  0.8819715E-01
          2   -1    0    0  501    0  0.00000000000E+00  0.00000000000E+00  0.23128547846E+04  0.23128547846E+04  0.00000000000E+00 0. -1.
         -1   -1    0    0    0  501 -0.00000000000E+00 -0.00000000000E+00 -0.27718395080E+03  0.27718395080E+03  0.00000000000E+00 0.  1.
         24    2    1    2    0    0 -0.25210979291E+03  0.38262321843E+03  0.21977609347E+03  0.51464952343E+03  0.81257158088E+02 0.  0.
        254    2    1    2    0    0  0.25210979291E+03 -0.38262321843E+03  0.18158947403E+04  0.20753892120E+04  0.89431918139E+03 0.  0.
         23    2    4    4    0    0  0.37135632642E+03 -0.61618714026E+03  0.12501525907E+04  0.14452166027E+04  0.90429065276E+02 0.  0.
         23    2    4    4    0    0 -0.11924653351E+03  0.23356392183E+03  0.56574214965E+03  0.63017260923E+03  0.91002726308E+02 0.  0.
          4    1    3    3  502    0 -0.94805013751E+01  0.25852064430E+02 -0.52588746958E+01  0.28033282089E+02  0.00000000000E+00 0. -1.
         -3    1    3    3    0  502 -0.24262929154E+03  0.35677115400E+03  0.22503496817E+03  0.48661624134E+03  0.00000000000E+00 0.  1.
         11    1    5    5    0    0  0.10160501850E+03 -0.22518494597E+03  0.36673561820E+03  0.44218418485E+03  0.00000000000E+00 0.  1.
        -11    1    5    5    0    0  0.26975130792E+03 -0.39100219429E+03  0.88341697247E+03  0.10030324179E+04  0.00000000000E+00 0. -1.
          2    1    6    6  503    0 -0.10061082888E+03  0.17963544880E+03  0.34132227702E+03  0.39861300800E+03  0.00000000000E+00 0. -1.
         -2    1    6    6    0  503 -0.18635704625E+02  0.53928473024E+02  0.22441987263E+03  0.23155960123E+03  0.00000000000E+00 0.  1.
<mgrwt>
<rscale>  0 0.16013572E+04</rscale>
<asrwt>0</asrwt>
<pdfrwt beam="1">  1        2 0.35582380E+00 0.16013572E+04</pdfrwt>
<pdfrwt beam="2">  1       -1 0.42643686E-01 0.16013572E+04</pdfrwt>
<totfact> 0.26383344E+01</totfact>
</mgrwt>
</event>
<event>
12    6  0.1627636E-007  0.1695348E+04  0.7818608E-02  0.8764022E-01
          2   -1    0    0  501    0  0.00000000000E+00  0.00000000000E+00  0.98901603537E+03  0.98901603537E+03  0.00000000000E+00 0. -1.
         -3   -1    0    0    0  501 -0.00000000000E+00 -0.00000000000E+00 -0.72653099776E+03  0.72653099776E+03  0.00000000000E+00 0.  1.
         24    2    1    2    0    0  0.49644956044E+03  0.30045413742E+03  0.25084131205E+03  0.63709083484E+03  0.78920930383E+02 0.  0.
        254    2    1    2    0    0 -0.49644956044E+03 -0.30045413742E+03  0.11643725566E+02  0.10784561983E+04  0.90895398153E+03 0.  0.
         23    2    4    4    0    0 -0.30351124489E+03  0.18500968545E+03 -0.29036807322E+03  0.46826816803E+03  0.92810558448E+02 0.  0.
         23    2    4    4    0    0 -0.19293831555E+03 -0.48546382287E+03  0.30201179878E+03  0.61018803026E+03  0.90653123225E+02 0.  0.
          4    1    3    3  502    0  0.22448115786E+03  0.12661389689E+03  0.69824695802E+02  0.26701752239E+03  0.00000000000E+00 0. -1.
         -3    1    3    3    0  502  0.27196840258E+03  0.17384024053E+03  0.18101661625E+03  0.37007331245E+03  0.00000000000E+00 0.  1.
         11    1    5    5    0    0 -0.21827367483E+03  0.16693462038E+03 -0.18371658282E+03  0.33054855529E+03  0.00000000000E+00 0.  1.
        -11    1    5    5    0    0 -0.85237570059E+02  0.18075065072E+02 -0.10665149040E+03  0.13771961273E+03  0.00000000000E+00 0. -1.
          4    1    6    6  503    0 -0.18912992631E+02 -0.14661491913E+03  0.10506556554E+03  0.18136264462E+03  0.00000000000E+00 0. -1.
         -4    1    6    6    0  503 -0.17402532292E+03 -0.33884890374E+03  0.19694623324E+03  0.42882538564E+03  0.00000000000E+00 0.  1.
<mgrwt>
<rscale>  0 0.16953475E+04</rscale>
<asrwt>0</asrwt>
<pdfrwt beam="1">  1        2 0.15215631E+00 0.16953475E+04</pdfrwt>
<pdfrwt beam="2">  1       -3 0.11177400E+00 0.16953475E+04</pdfrwt>
<totfact> 0.10356899E+01</totfact>
</mgrwt>
</event>
<event>
12    6  0.1627636E-007  0.1113217E+04  0.7818608E-02  0.9192404E-01
         -1   -1    0    0    0  501 -0.00000000000E+00  0.00000000000E+00  0.20636167026E+03  0.20636167026E+03  0.00000000000E+00 0.  1.
          2   -1    0    0  501    0  0.00000000000E+00 -0.00000000000E+00 -0.15013121159E+04  0.15013121159E+04  0.00000000000E+00 0. -1.
         24    2    1    2    0    0  0.33877387017E+02  0.25527369651E+01  0.44300284468E+02  0.95433850439E+02  0.77400974080E+02 0.  0.
        254    2    1    2    0    0 -0.33877387017E+02 -0.25527369651E+01 -0.13392507301E+04  0.16122399357E+04  0.89697876141E+03 0.  0.
         23    2    4    4    0    0  0.36667267028E+03  0.21316397029E+03 -0.66185991803E+03  0.79128586825E+03  0.90482312325E+02 0.  0.
         23    2    4    4    0    0 -0.40055005730E+03 -0.21571670725E+03 -0.67739081203E+03  0.82095406743E+03  0.90184380114E+02 0.  0.
          4    1    3    3  502    0 -0.59766300243E+01 -0.22260416652E+02  0.42624095917E+02  0.48456782897E+02  0.00000000000E+00 0. -1.
         -3    1    3    3    0  502  0.39854017042E+02  0.24813153617E+02  0.16761885508E+01  0.46977067542E+02  0.00000000000E+00 0.  1.
         11    1    5    5    0    0  0.85819324593E+02  0.11956517202E+02 -0.16082544019E+03  0.18268206532E+03  0.00000000000E+00 0. -1.
        -11    1    5    5    0    0  0.28085334569E+03  0.20120745308E+03 -0.50103447784E+03  0.60860380293E+03  0.00000000000E+00 0.  1.
          3    1    6    6  503    0 -0.37164232600E+03 -0.19839808859E+03 -0.57261355873E+03  0.71089106597E+03  0.00000000000E+00 0. -1.
         -3    1    6    6    0  503 -0.28907731294E+02 -0.17318618658E+02 -0.10477725331E+03  0.11006300146E+03  0.00000000000E+00 0.  1.
<mgrwt>
<rscale>  0 0.11132175E+04</rscale>
<asrwt>0</asrwt>
<pdfrwt beam="1">  1        2 0.23097110E+00 0.11132175E+04</pdfrwt>
<pdfrwt beam="2">  1       -1 0.31747948E-01 0.11132175E+04</pdfrwt>
<totfact> 0.13217361E+02</totfact>
</mgrwt>
</event>
<event>
12    6  0.1627636E-007  0.1215509E+04  0.7818608E-02  0.9099389E-01
         -1   -1    0    0    0  501 -0.00000000000E+00  0.00000000000E+00  0.24093273680E+03  0.24093273680E+03  0.00000000000E+00 0.  1.
          2   -1    0    0  501    0  0.00000000000E+00 -0.00000000000E+00 -0.15330654674E+04  0.15330654674E+04  0.00000000000E+00 0. -1.
         24    2    1    2    0    0 -0.12236146150E+03  0.21537426147E+02  0.45975048353E+02  0.15482954470E+03  0.80139221715E+02 0.  0.
        254    2    1    2    0    0  0.12236146150E+03 -0.21537426147E+02 -0.13381077789E+04  0.16191686595E+04  0.90318244659E+03 0.  0.
         23    2    4    4    0    0  0.12329896922E+03 -0.35537693709E+03 -0.11734696742E+04  0.12358067896E+04  0.93230583966E+02 0.  0.
         23    2    4    4    0    0 -0.93750772710E+00  0.33383951094E+03 -0.16463810479E+03  0.38336186991E+03  0.91711066755E+02 0.  0.
          2    1    3    3  502    0 -0.11374589237E+02  0.31089308784E+02 -0.27985340513E+01  0.33222856497E+02  0.00000000000E+00 0. -1.
         -1    1    3    3    0  502 -0.11098687226E+03 -0.95518826363E+01  0.48773582404E+02  0.12160668820E+03  0.00000000000E+00 0.  1.
         11    1    5    5    0    0  0.10935562176E+03 -0.25176401677E+03 -0.95408233364E+03  0.99278238880E+03  0.00000000000E+00 0. -1.
        -11    1    5    5    0    0  0.13943347467E+02 -0.10361292032E+03 -0.21938734051E+03  0.24302440078E+03  0.00000000000E+00 0.  1.
          2    1    6    6  503    0  0.14440713271E+02  0.29872718387E+03 -0.17099205033E+03  0.34450652513E+03  0.00000000000E+00 0. -1.
         -2    1    6    6    0  503 -0.15378220998E+02  0.35112327076E+02  0.63539455477E+01  0.38855344777E+02  0.00000000000E+00 0.  1.
<mgrwt>
<rscale>  0 0.12155092E+04</rscale>
<asrwt>0</asrwt>
<pdfrwt beam="1">  1        2 0.23585624E+00 0.12155092E+04</pdfrwt>
<pdfrwt beam="2">  1       -1 0.37066573E-01 0.12155092E+04</pdfrwt>
<totfact> 0.95526410E+01</totfact>
</mgrwt>
</event>
<event>
12    6  0.1627636E-007  0.2734464E+04  0.7818608E-02  0.8323908E-01
         -1   -1    0    0    0  501 -0.00000000000E+00  0.00000000000E+00  0.15264649852E+04  0.15264649852E+04  0.00000000000E+00 0.  1.
          2   -1    0    0  501    0  0.00000000000E+00 -0.00000000000E+00 -0.12246095114E+04  0.12246095114E+04  0.00000000000E+00 0. -1.
         24    2    1    2    0    0  0.11001666829E+03 -0.66357710133E+03  0.11115563839E+04  0.13017327644E+04  0.80699185927E+02 0.  0.
        254    2    1    2    0    0 -0.11001666829E+03  0.66357710133E+03 -0.80970091013E+03  0.14493417323E+04  0.99626184124E+03 0.  0.
         23    2    4    4    0    0 -0.83068385767E+02  0.87167994002E+03 -0.37282464393E+03  0.95633350956E+03  0.94070674671E+02 0.  0.
         23    2    4    4    0    0 -0.26948282523E+02 -0.20810283868E+03 -0.43687626620E+03  0.49300822271E+03  0.90350618668E+02 0.  0.
          4    1    3    3  502    0 -0.42518407409E+01 -0.67717382388E+01  0.31440019892E+02  0.32440860644E+02  0.00000000000E+00 0. -1.
         -3    1    3    3    0  502  0.11426850903E+03 -0.65680536309E+03  0.10801163640E+04  0.12692919038E+04  0.00000000000E+00 0.  1.
         11    1    5    5    0    0 -0.79663701893E+02  0.82487303964E+03 -0.37443509446E+03  0.90937532234E+03  0.00000000000E+00 0.  1.
        -11    1    5    5    0    0 -0.34046838741E+01  0.46806900380E+02  0.16104505299E+01  0.46958187214E+02  0.00000000000E+00 0. -1.
          4    1    6    6  503    0  0.20099266498E+02 -0.40488892572E+02 -0.15723748959E+03  0.16360610951E+03  0.00000000000E+00 0. -1.
         -4    1    6    6    0  503 -0.47047549021E+02 -0.16761394611E+03 -0.27963877661E+03  0.32940211320E+03  0.00000000000E+00 0.  1.
<mgrwt>
<rscale>  0 0.27344641E+04</rscale>
<asrwt>0</asrwt>
<pdfrwt beam="1">  1        2 0.18840146E+00 0.27344641E+04</pdfrwt>
<pdfrwt beam="2">  1       -1 0.23484077E+00 0.27344641E+04</pdfrwt>
<totfact> 0.16002901E+00</totfact>
</mgrwt>
</event>
<event>
12    6  0.1627636E-007  0.2473009E+04  0.7818608E-02  0.8412665E-01
          2   -1    0    0  501    0  0.00000000000E+00  0.00000000000E+00  0.88386523452E+03  0.88386523452E+03  0.00000000000E+00 0. -1.
         -1   -1    0    0    0  501 -0.00000000000E+00 -0.00000000000E+00 -0.17298383195E+04  0.17298383195E+04  0.00000000000E+00 0.  1.
         24    2    1    2    0    0  0.10784258064E+04  0.10284729548E+03 -0.25812276511E+03  0.11165477120E+04  0.80446536676E+02 0.  0.
        254    2    1    2    0    0 -0.10784258064E+04 -0.10284729548E+03 -0.58785031988E+03  0.14971558420E+04  0.84989871782E+03 0.  0.
         23    2    4    4    0    0 -0.15692008579E+03 -0.23575365351E+03 -0.46728665127E+03  0.55395078728E+03  0.91109614216E+02 0.  0.
         23    2    4    4    0    0 -0.92150572061E+03  0.13290635802E+03 -0.12056366861E+03  0.94320505472E+03  0.90902606932E+02 0.  0.
          4    1    3    3  502    0  0.85449308510E+03  0.51402222325E+02 -0.21724254064E+03  0.88317322333E+03  0.00000000000E+00 0. -1.
         -3    1    3    3    0  502  0.22393272130E+03  0.51445073157E+02 -0.40880224470E+02  0.23337448869E+03  0.00000000000E+00 0.  1.
         11    1    5    5    0    0 -0.10251740976E+03 -0.19940753114E+03 -0.40852110074E+03  0.46600715931E+03  0.00000000000E+00 0.  1.
        -11    1    5    5    0    0 -0.54402676033E+02 -0.36346122370E+02 -0.58765550528E+02  0.87943627966E+02  0.00000000000E+00 0. -1.
          2    1    6    6  503    0 -0.85894457340E+02  0.18392170812E+02  0.14523285527E+02  0.89034013564E+02  0.00000000000E+00 0. -1.
         -2    1    6    6    0  503 -0.83561126327E+03  0.11451418721E+03 -0.13508695414E+03  0.85417104116E+03  0.00000000000E+00 0.  1.
<mgrwt>
<rscale>  0 0.24730095E+04</rscale>
<asrwt>0</asrwt>
<pdfrwt beam="1">  1        2 0.13597927E+00 0.24730095E+04</pdfrwt>
<pdfrwt beam="2">  1       -1 0.26612897E+00 0.24730095E+04</pdfrwt>
<totfact> 0.16782147E+00</totfact>
</mgrwt>
</event>
<event>
12    6  0.1627636E-007  0.2980341E+04  0.7818608E-02  0.8249367E-01
          2   -1    0    0  501    0  0.00000000000E+00  0.00000000000E+00  0.15482347746E+04  0.15482347746E+04  0.00000000000E+00 0. -1.
         -1   -1    0    0    0  501 -0.00000000000E+00 -0.00000000000E+00 -0.14342838230E+04  0.14342838230E+04  0.00000000000E+00 0.  1.
         24    2    1    2    0    0  0.11430382189E+04 -0.21337530580E+02 -0.67287226145E+03  0.13290271228E+04  0.81020694324E+02 0.  0.
        254    2    1    2    0    0 -0.11430382189E+04  0.21337530580E+02  0.78682321307E+03  0.16534914747E+04  0.89886129538E+03 0.  0.
         23    2    4    4    0    0 -0.62202394941E+03 -0.13308419995E+03  0.88546209415E+03  0.10939575467E+04  0.89859867917E+02 0.  0.
         23    2    4    4    0    0 -0.52101426949E+03  0.15442173053E+03 -0.98638881072E+02  0.55953392805E+03  0.89703109841E+02 0.  0.
          2    1    3    3  502    0  0.27250965036E+03  0.22903375884E+01 -0.20035818114E+03  0.33824570350E+03  0.00000000000E+00 0. -1.
         -1    1    3    3    0  502  0.87052856854E+03 -0.23627868168E+02 -0.47251408031E+03  0.99078141933E+03  0.00000000000E+00 0.  1.
         11    1    5    5    0    0 -0.41244372073E+03 -0.12703003242E+03  0.56418280531E+03  0.71031590839E+03  0.00000000000E+00 0.  1.
        -11    1    5    5    0    0 -0.20958022869E+03 -0.60541675359E+01  0.32127928883E+03  0.38364163830E+03  0.00000000000E+00 0. -1.
          1    1    6    6  503    0 -0.23149021387E+03  0.46933253868E+02 -0.82808651799E+02  0.25029527013E+03  0.00000000000E+00 0. -1.
         -1    1    6    6    0  503 -0.28952405562E+03  0.10748847666E+03 -0.15830229273E+02  0.30923865793E+03  0.00000000000E+00 0.  1.
<mgrwt>
<rscale>  0 0.29803410E+04</rscale>
<asrwt>0</asrwt>
<pdfrwt beam="1">  1        2 0.23818997E+00 0.29803410E+04</pdfrwt>
<pdfrwt beam="2">  1       -1 0.22065905E+00 0.29803410E+04</pdfrwt>
<totfact> 0.12679950E+00</totfact>
</mgrwt>
</event>
<event>
12    6  0.1627636E-007  0.3018408E+04  0.7818608E-02  0.8238494E-01
         -1   -1    0    0    0  501 -0.00000000000E+00  0.00000000000E+00  0.85146955631E+03  0.85146955631E+03  0.00000000000E+00 0.  1.
          2   -1    0    0  501    0  0.00000000000E+00 -0.00000000000E+00 -0.26750180365E+04  0.26750180365E+04  0.00000000000E+00 0. -1.
         24    2    1    2    0    0  0.71550334944E+03  0.11685618838E+04 -0.70651422993E+03  0.15437045059E+04  0.79870676436E+02 0.  0.
        254    2    1    2    0    0 -0.71550334944E+03 -0.11685618838E+04 -0.11170342503E+04  0.19827830869E+04  0.89787601268E+03 0.  0.
         23    2    4    4    0    0 -0.35663501414E+03 -0.83307482252E+03 -0.11680982511E+04  0.14811981297E+04  0.91061418376E+02 0.  0.
         23    2    4    4    0    0 -0.35886833530E+03 -0.33548706132E+03  0.51064000801E+02  0.50158495728E+03  0.87417886013E+02 0.  0.
          4    1    3    3  502    0  0.31932636178E+03  0.51158656747E+03 -0.26687796662E+03  0.65948009099E+03  0.00000000000E+00 0. -1.
         -3    1    3    3    0  502  0.39617698767E+03  0.65697531637E+03 -0.43963626331E+03  0.88422441490E+03  0.00000000000E+00 0.  1.
         11    1    5    5    0    0 -0.49403488890E+02 -0.56036775523E+02 -0.10973427987E+03  0.13274952770E+03  0.00000000000E+00 0. -1.
        -11    1    5    5    0    0 -0.30723152525E+03 -0.77703804700E+03 -0.10583639712E+04  0.13484486020E+04  0.00000000000E+00 0.  1.
          3    1    6    6  503    0 -0.22252114777E+01 -0.22603853710E+01 -0.92511976625E+01  0.97798551286E+01  0.00000000000E+00 0. -1.
         -3    1    6    6    0  503 -0.35664312383E+03 -0.33322667595E+03  0.60315198463E+02  0.49180510215E+03  0.00000000000E+00 0.  1.
<mgrwt>
<rscale>  0 0.30184078E+04</rscale>
<asrwt>0</asrwt>
<pdfrwt beam="1">  1        2 0.41154123E+00 0.30184078E+04</pdfrwt>
<pdfrwt beam="2">  1       -1 0.13099532E+00 0.30184078E+04</pdfrwt>
<totfact> 0.13272571E+00</totfact>
</mgrwt>
</event>
<event>
12    6  0.1627636E-007  0.1518337E+04  0.7818608E-02  0.8872350E-01
          2   -1    0    0  501    0  0.00000000000E+00  0.00000000000E+00  0.13612903018E+04  0.13612903018E+04  0.00000000000E+00 0. -1.
         -1   -1    0    0    0  501 -0.00000000000E+00 -0.00000000000E+00 -0.42337561373E+03  0.42337561373E+03  0.00000000000E+00 0.  1.
         24    2    1    2    0    0  0.44366835077E+03  0.10613474956E+03  0.42101390172E+03  0.62586412368E+03  0.79668094806E+02 0.  0.
        254    2    1    2    0    0 -0.44366835077E+03 -0.10613474956E+03  0.51690078634E+03  0.11588017918E+04  0.93141235729E+03 0.  0.
         23    2    4    4    0    0 -0.80908145439E+02 -0.48738384944E+03  0.27806476713E+03  0.57378957159E+03  0.88460799525E+02 0.  0.
         23    2    4    4    0    0 -0.36276020533E+03  0.38124909988E+03  0.23883601922E+03  0.58501222025E+03  0.90833975147E+02 0.  0.
          2    1    3    3  502    0  0.42189508491E+02  0.35501217135E+02  0.57765445425E+02  0.79856982975E+02  0.00000000000E+00 0. -1.
         -1    1    3    3    0  502  0.40147884228E+03  0.70633532428E+02  0.36324845629E+03  0.54600714070E+03  0.00000000000E+00 0.  1.
         11    1    5    5    0    0 -0.92352743766E+02 -0.45441145928E+03  0.27411921564E+03  0.53866515387E+03  0.00000000000E+00 0. -1.
        -11    1    5    5    0    0  0.11444598327E+02 -0.32972390161E+02  0.39455514842E+01  0.35124417722E+02  0.00000000000E+00 0.  1.
          1    1    6    6  503    0 -0.28772438003E+03  0.34675354748E+03  0.18946575100E+03  0.48879506171E+03  0.00000000000E+00 0. -1.
         -1    1    6    6    0  503 -0.75035825300E+02  0.34495552402E+02  0.49370268222E+02  0.96217158544E+02  0.00000000000E+00 0.  1.
<mgrwt>
<rscale>  0 0.15183374E+04</rscale>
<asrwt>0</asrwt>
<pdfrwt beam="1">  1        2 0.20942927E+00 0.15183374E+04</pdfrwt>
<pdfrwt beam="2">  1       -1 0.65134711E-01 0.15183374E+04</pdfrwt>
<totfact> 0.40029017E+01</totfact>
</mgrwt>
</event>
<event>
12    6  0.1627636E-007  0.1652342E+04  0.7818608E-02  0.8789022E-01
          2   -1    0    0  501    0  0.00000000000E+00  0.00000000000E+00  0.70283850363E+03  0.70283850363E+03  0.00000000000E+00 0. -1.
         -1   -1    0    0    0  501 -0.00000000000E+00 -0.00000000000E+00 -0.97114523202E+03  0.97114523202E+03  0.00000000000E+00 0.  1.
         24    2    1    2    0    0 -0.56637666978E+03  0.44751435492E+02 -0.14982583946E+03  0.59629255028E+03  0.10164546374E+03 0.  0.
        254    2    1    2    0    0  0.56637666978E+03 -0.44751435492E+02 -0.11848088893E+03  0.10776911854E+04  0.90807232472E+03 0.  0.
         23    2    4    4    0    0  0.23667437897E+03  0.10562157116E+03  0.37143523444E+03  0.46212763385E+03  0.91799447885E+02 0.  0.
         23    2    4    4    0    0  0.32970229081E+03 -0.15037300665E+03 -0.48991612337E+03  0.61556355152E+03  0.87092114041E+02 0.  0.
          4    1    3    3  502    0 -0.38755530948E+03  0.18565088403E+02 -0.54025261431E+02  0.39174291223E+03  0.00000000000E+00 0. -1.
         -3    1    3    3    0  502 -0.17882136030E+03  0.26186347088E+02 -0.95800578029E+02  0.20454963805E+03  0.00000000000E+00 0.  1.
         11    1    5    5    0    0  0.21228282692E+03  0.75599871977E+02  0.25943699465E+03  0.34363773577E+03  0.00000000000E+00 0. -1.
        -11    1    5    5    0    0  0.24391552050E+02  0.30021699183E+02  0.11199823978E+03  0.11848989808E+03  0.00000000000E+00 0.  1.
          2    1    6    6  503    0  0.34247228909E+02 -0.48302231811E+02 -0.63204528519E+02  0.86607105431E+02  0.00000000000E+00 0.  1.
         -2    1    6    6    0  503  0.29545506190E+03 -0.10207077484E+03 -0.42671159485E+03  0.52895644609E+03  0.00000000000E+00 0. -1.
<mgrwt>
<rscale>  0 0.16523417E+04</rscale>
<asrwt>0</asrwt>
<pdfrwt beam="1">  1        2 0.10812900E+00 0.16523417E+04</pdfrwt>
<pdfrwt beam="2">  1       -1 0.14940696E+00 0.16523417E+04</pdfrwt>
<totfact> 0.15680338E+01</totfact>
</mgrwt>
</event>
<event>
12    6  0.1627636E-007  0.1253339E+04  0.7818608E-02  0.9067409E-01
          2   -1    0    0  501    0  0.00000000000E+00  0.00000000000E+00  0.20190812387E+04  0.20190812387E+04  0.00000000000E+00 0. -1.
         -1   -1    0    0    0  501 -0.00000000000E+00 -0.00000000000E+00 -0.19450173041E+03  0.19450173041E+03  0.00000000000E+00 0.  1.
         24    2    1    2    0    0 -0.28578479960E+03 -0.80140315264E+02  0.53034825048E+03  0.61312347611E+03  0.80967329001E+02 0.  0.
        254    2    1    2    0    0  0.28578479960E+03  0.80140315264E+02  0.12942312578E+04  0.16004594930E+04  0.89349908684E+03 0.  0.
         23    2    4    4    0    0  0.32680105508E+02 -0.82040639056E+02  0.12792194389E+04  0.12856831824E+04  0.93702811363E+02 0.  0.
         23    2    4    4    0    0  0.25310469409E+03  0.16218095432E+03  0.15011818948E+02  0.31477631064E+03  0.92163566104E+02 0.  0.
          2    1    3    3  502    0 -0.26552938008E+03 -0.80217585795E+02  0.52218476458E+03  0.59128473777E+03  0.00000000000E+00 0. -1.
         -1    1    3    3    0  502 -0.20255419517E+02  0.77270531030E-01  0.81634858960E+01  0.21838738345E+02  0.00000000000E+00 0.  1.
         11    1    5    5    0    0 -0.30616474845E+02 -0.37810007452E+02  0.36886263186E+03  0.37205726223E+03  0.00000000000E+00 0. -1.
        -11    1    5    5    0    0  0.63296580353E+02 -0.44230631604E+02  0.91035680701E+03  0.91362592012E+03  0.00000000000E+00 0.  1.
          4    1    6    6  503    0  0.10527936250E+03  0.50670058822E+02 -0.36799906482E+02  0.12249666178E+03  0.00000000000E+00 0.  1.
         -4    1    6    6    0  503  0.14782533159E+03  0.11151089550E+03  0.51811725430E+02  0.19227964886E+03  0.00000000000E+00 0. -1.
<mgrwt>
<rscale>  0 0.12533392E+04</rscale>
<asrwt>0</asrwt>
<pdfrwt beam="1">  1        2 0.31062787E+00 0.12533392E+04</pdfrwt>
<pdfrwt beam="2">  1       -1 0.29923345E-01 0.12533392E+04</pdfrwt>
<totfact> 0.74939566E+01</totfact>
</mgrwt>
</event>
<event>
12    6  0.1627636E-007  0.2273717E+04  0.7818608E-02  0.8488357E-01
          2   -1    0    0  501    0  0.00000000000E+00  0.00000000000E+00  0.28066719449E+04  0.28066719449E+04  0.00000000000E+00 0. -1.
         -1   -1    0    0    0  501 -0.00000000000E+00 -0.00000000000E+00 -0.46049115742E+03  0.46049115742E+03  0.00000000000E+00 0.  1.
         24    2    1    2    0    0 -0.44541299827E+02  0.42105537172E+03  0.22195990548E+04  0.22610021131E+04  0.78987582948E+02 0.  0.
        254    2    1    2    0    0  0.44541299827E+02 -0.42105537172E+03  0.12658173271E+03  0.10061609892E+04  0.90391672605E+03 0.  0.
         23    2    4    4    0    0  0.25931248105E+03 -0.36141333691E+03  0.42563402640E+03  0.62237759243E+03  0.91252288762E+02 0.  0.
         23    2    4    4    0    0 -0.21477118122E+03 -0.59642034809E+02 -0.29905229369E+03  0.38378339675E+03  0.90407901548E+02 0.  0.
          4    1    3    3  502    0 -0.54859914633E+02  0.33259387100E+03  0.16079817619E+04  0.16429344600E+04  0.00000000000E+00 0. -1.
         -3    1    3    3    0  502  0.10318614806E+02  0.88461500716E+02  0.61161729291E+03  0.61806765318E+03  0.00000000000E+00 0.  1.
         11    1    5    5    0    0  0.10835626944E+03 -0.18179607974E+03  0.25963906078E+03  0.33496766652E+03  0.00000000000E+00 0.  1.
        -11    1    5    5    0    0  0.15095621160E+03 -0.17961725717E+03  0.16599496562E+03  0.28740992590E+03  0.00000000000E+00 0. -1.
          4    1    6    6  503    0 -0.42445573082E+02  0.24171981560E+02 -0.64322845290E+02  0.80767195030E+02  0.00000000000E+00 0. -1.
         -4    1    6    6    0  503 -0.17232560814E+03 -0.83814016368E+02 -0.23472944840E+03  0.30301620172E+03  0.00000000000E+00 0.  1.
<mgrwt>
<rscale>  0 0.22737173E+04</rscale>
<asrwt>0</asrwt>
<pdfrwt beam="1">  1        2 0.43179567E+00 0.22737173E+04</pdfrwt>
<pdfrwt beam="2">  1       -1 0.70844795E-01 0.22737173E+04</pdfrwt>
<totfact> 0.47690006E+00</totfact>
</mgrwt>
</event>
<event>
12    6  0.1627636E-007  0.1692548E+04  0.7818608E-02  0.8765626E-01
          2   -1    0    0  501    0  0.00000000000E+00  0.00000000000E+00  0.12272158590E+04  0.12272158590E+04  0.00000000000E+00 0. -1.
         -1   -1    0    0    0  501 -0.00000000000E+00 -0.00000000000E+00 -0.58358092042E+03  0.58358092042E+03  0.00000000000E+00 0.  1.
         24    2    1    2    0    0 -0.49063439123E+03 -0.12420886508E+03 -0.11900927679E+03  0.52616983780E+03  0.80879801116E+02 0.  0.
        254    2    1    2    0    0  0.49063439123E+03  0.12420886508E+03  0.76264421535E+03  0.12846269416E+04  0.90138240046E+03 0.  0.
         23    2    4    4    0    0 -0.22737033057E+03 -0.11590346222E+03  0.23779981749E+03  0.35903244827E+03  0.84998034868E+02 0.  0.
         23    2    4    4    0    0  0.71800472180E+03  0.24011232731E+03  0.52484439786E+03  0.92559449333E+03  0.89882222201E+02 0.  0.
          4    1    3    3  502    0 -0.17807169864E+03 -0.11478811784E+02 -0.62855475480E+02  0.18918801171E+03  0.00000000000E+00 0. -1.
         -3    1    3    3    0  502 -0.31256269258E+03 -0.11273005330E+03 -0.56153801305E+02  0.33698182609E+03  0.00000000000E+00 0.  1.
         11    1    5    5    0    0 -0.21645606732E+03 -0.11621769747E+03  0.24417972754E+03  0.34638637621E+03  0.00000000000E+00 0. -1.
        -11    1    5    5    0    0 -0.10914263251E+02  0.31423524251E+00 -0.63799100527E+01  0.12646072054E+02  0.00000000000E+00 0.  1.
          1    1    6    6  503    0  0.68752066896E+03  0.24440102949E+03  0.51559395849E+03  0.89345042588E+03  0.00000000000E+00 0. -1.
         -1    1    6    6    0  503  0.30484052839E+02 -0.42887021874E+01  0.92504393658E+01  0.32144067453E+02  0.00000000000E+00 0.  1.
<mgrwt>
<rscale>  0 0.16925481E+04</rscale>
<asrwt>0</asrwt>
<pdfrwt beam="1">  1        2 0.18880244E+00 0.16925481E+04</pdfrwt>
<pdfrwt beam="2">  1       -1 0.89781680E-01 0.16925481E+04</pdfrwt>
<totfact> 0.24057853E+01</totfact>
</mgrwt>
</event>
<event>
12    6  0.1627636E-007  0.2693656E+04  0.7818608E-02  0.8337066E-01
         -1   -1    0    0    0  501 -0.00000000000E+00  0.00000000000E+00  0.10661527125E+04  0.10661527125E+04  0.00000000000E+00 0.  1.
          2   -1    0    0  501    0  0.00000000000E+00 -0.00000000000E+00 -0.17013941206E+04  0.17013941206E+04  0.00000000000E+00 0. -1.
         24    2    1    2    0    0  0.21000720613E+03 -0.86831586462E+02 -0.14896653355E+04  0.15090047123E+04  0.79684746537E+02 0.  0.
        254    2    1    2    0    0 -0.21000720613E+03  0.86831586462E+02  0.85442392749E+03  0.12585421207E+04  0.89568145607E+03 0.  0.
         23    2    4    4    0    0  0.62009545889E+02  0.39566725961E+03  0.15399764905E+03  0.44083320642E+03  0.10109834750E+03 0.  0.
         23    2    4    4    0    0 -0.27201675202E+03 -0.30883567315E+03  0.70042627844E+03  0.81770891431E+03  0.93157450684E+02 0.  0.
          2    1    3    3  502    0  0.13632966668E+03 -0.71638727245E+02 -0.11952292511E+04  0.12051103053E+04  0.00000000000E+00 0. -1.
         -1    1    3    3    0  502  0.73677539451E+02 -0.15192859217E+02 -0.29443608442E+03  0.30389440699E+03  0.00000000000E+00 0.  1.
         11    1    5    5    0    0 -0.23174240711E+02  0.17454128693E+03  0.63455603370E+02  0.18715854209E+03  0.00000000000E+00 0. -1.
        -11    1    5    5    0    0  0.85183786600E+02  0.22112597267E+03  0.90542045676E+02  0.25367466434E+03  0.00000000000E+00 0.  1.
          4    1    6    6  503    0 -0.69386460223E+02 -0.14560412414E+03  0.28696693792E+03  0.32918849507E+03  0.00000000000E+00 0. -1.
         -4    1    6    6    0  503 -0.20263029180E+03 -0.16323154901E+03  0.41345934052E+03  0.48852041924E+03  0.00000000000E+00 0.  1.
<mgrwt>
<rscale>  0 0.26936562E+04</rscale>
<asrwt>0</asrwt>
<pdfrwt beam="1">  1        2 0.26175294E+00 0.26936562E+04</pdfrwt>
<pdfrwt beam="2">  1       -1 0.16402349E+00 0.26936562E+04</pdfrwt>
<totfact> 0.26658940E+00</totfact>
</mgrwt>
</event>
<event>
12    6  0.1627636E-007  0.1796988E+04  0.7818608E-02  0.8707903E-01
         -1   -1    0    0    0  501 -0.00000000000E+00  0.00000000000E+00  0.36046619983E+03  0.36046619983E+03  0.00000000000E+00 0.  1.
          2   -1    0    0  501    0  0.00000000000E+00 -0.00000000000E+00 -0.22395761978E+04  0.22395761978E+04  0.00000000000E+00 0. -1.
         24    2    1    2    0    0  0.14684473053E+02 -0.61716312262E+03 -0.11154181618E+04  0.12775060873E+04  0.82208112033E+02 0.  0.
        254    2    1    2    0    0 -0.14684473053E+02  0.61716312262E+03 -0.76369183619E+03  0.13225363104E+04  0.88587308230E+03 0.  0.
         23    2    4    4    0    0  0.12801895947E+03  0.80491650302E+03 -0.53767184465E+03  0.98069474385E+03  0.91606425896E+02 0.  0.
         23    2    4    4    0    0 -0.14270343253E+03 -0.18775338040E+03 -0.22601999154E+03  0.34184156653E+03  0.10077211185E+03 0.  0.
          2    1    3    3  502    0  0.34764647935E+02 -0.56528104650E+03 -0.10330576615E+04  0.11781168763E+04  0.00000000000E+00 0. -1.
         -1    1    3    3    0  502 -0.20080174882E+02 -0.51882076124E+02 -0.82360500334E+02  0.99389210991E+02  0.00000000000E+00 0.  1.
         11    1    5    5    0    0  0.73959791804E+02  0.53994704249E+03 -0.40796054309E+03  0.68076770209E+03  0.00000000000E+00 0.  1.
        -11    1    5    5    0    0  0.54059167670E+02  0.26496946053E+03 -0.12971130156E+03  0.29992704176E+03  0.00000000000E+00 0. -1.
          3    1    6    6  503    0 -0.23252045432E+02 -0.61566629206E+02 -0.12390874214E+03  0.14030140351E+03  0.00000000000E+00 0. -1.
         -3    1    6    6    0  503 -0.11945138710E+03 -0.12618675119E+03 -0.10211124940E+03  0.20154016302E+03  0.00000000000E+00 0.  1.
<mgrwt>
<rscale>  0 0.17969881E+04</rscale>
<asrwt>0</asrwt>
<pdfrwt beam="1">  1        2 0.34455019E+00 0.17969881E+04</pdfrwt>
<pdfrwt beam="2">  1       -1 0.55456338E-01 0.17969881E+04</pdfrwt>
<totfact> 0.17348110E+01</totfact>
</mgrwt>
</event>
<event>
12    6  0.1627636E-007  0.1435704E+04  0.7818608E-02  0.8928372E-01
         -1   -1    0    0    0  501 -0.00000000000E+00  0.00000000000E+00  0.13133104134E+04  0.13133104134E+04  0.00000000000E+00 0.  1.
          2   -1    0    0  501    0  0.00000000000E+00 -0.00000000000E+00 -0.39237594955E+03  0.39237594955E+03  0.00000000000E+00 0. -1.
         24    2    1    2    0    0 -0.24569786713E+02  0.14814472380E+03 -0.19800685717E+03  0.26065056348E+03  0.78622306917E+02 0.  0.
        254    2    1    2    0    0  0.24569786713E+02 -0.14814472380E+03  0.11189413210E+04  0.14450357995E+04  0.90196909496E+03 0.  0.
         23    2    4    4    0    0 -0.38239685360E+03 -0.89434379093E+02  0.86583159721E+03  0.95440836028E+03  0.83696485182E+02 0.  0.
         23    2    4    4    0    0  0.40696664032E+03 -0.58710344705E+02  0.25310972381E+03  0.49062743919E+03  0.87074685753E+02 0.  0.
          4    1    3    3  502    0 -0.27891362816E+02  0.15678454993E+03 -0.17949634845E+03  0.23995470890E+03  0.00000000000E+00 0. -1.
         -3    1    3    3    0  502  0.33215761030E+01 -0.86398261337E+01 -0.18510508723E+02  0.20695854576E+02  0.00000000000E+00 0.  1.
         11    1    5    5    0    0 -0.56955679354E+02  0.68006367796E-01  0.19945212310E+03  0.20742493448E+03  0.00000000000E+00 0. -1.
        -11    1    5    5    0    0 -0.32544117425E+03 -0.89502385461E+02  0.66637947412E+03  0.74698342580E+03  0.00000000000E+00 0.  1.
          1    1    6    6  503    0  0.11423071255E+03  0.21681374701E+02  0.80425616713E+02  0.14137544880E+03  0.00000000000E+00 0. -1.
         -1    1    6    6    0  503  0.29273592776E+03 -0.80391719407E+02  0.17268410709E+03  0.34925199040E+03  0.00000000000E+00 0.  1.
<mgrwt>
<rscale>  0 0.14357039E+04</rscale>
<asrwt>0</asrwt>
<pdfrwt beam="1">  1        2 0.60365531E-01 0.14357039E+04</pdfrwt>
<pdfrwt beam="2">  1       -1 0.20204775E+00 0.14357039E+04</pdfrwt>
<totfact> 0.13150837E+01</totfact>
</mgrwt>
</event>
<event>
12    6  0.1627636E-007  0.3055565E+04  0.7818608E-02  0.8228040E-01
         -1   -1    0    0    0  501 -0.00000000000E+00  0.00000000000E+00  0.58287729148E+03  0.58287729148E+03  0.00000000000E+00 0.  1.
          2   -1    0    0  501    0  0.00000000000E+00 -0.00000000000E+00 -0.40044774664E+04  0.40044774664E+04  0.00000000000E+00 0. -1.
         24    2    1    2    0    0 -0.10215508037E+04 -0.33831791427E+03 -0.28690149851E+04  0.30651424202E+04  0.76328338785E+02 0.  0.
        254    2    1    2    0    0  0.10215508037E+04  0.33831791427E+03 -0.55258518985E+03  0.15222123378E+04  0.92398861115E+03 0.  0.
         23    2    4    4    0    0 -0.10673428881E+03  0.90976687430E+01  0.10247044201E+03  0.17355251458E+03  0.90251359254E+02 0.  0.
         23    2    4    4    0    0  0.11282850925E+04  0.32922024553E+03 -0.65505563186E+03  0.13486598232E+04  0.91499823924E+02 0.  0.
          4    1    3    3  502    0 -0.78323836218E+03 -0.26332812966E+03 -0.22902025958E+04  0.24347139392E+04  0.00000000000E+00 0. -1.
         -3    1    3    3    0  502 -0.23831244153E+03 -0.74989784612E+02 -0.57881238935E+03  0.63042848100E+03  0.00000000000E+00 0.  1.
         11    1    5    5    0    0 -0.18981907939E+02 -0.36237356357E+02  0.36047644400E+02  0.54524228482E+02  0.00000000000E+00 0. -1.
        -11    1    5    5    0    0 -0.87752380868E+02  0.45335025100E+02  0.66422797614E+02  0.11902828610E+03  0.00000000000E+00 0.  1.
          2    1    6    6  503    0  0.71782811492E+03  0.24809314630E+03 -0.39559818604E+03  0.85634416948E+03  0.00000000000E+00 0. -1.
         -2    1    6    6    0  503  0.41045697760E+03  0.81127099229E+02 -0.25945744582E+03  0.49231565370E+03  0.00000000000E+00 0.  1.
<mgrwt>
<rscale>  0 0.30555647E+04</rscale>
<asrwt>0</asrwt>
<pdfrwt beam="1">  1        2 0.61607347E+00 0.30555647E+04</pdfrwt>
<pdfrwt beam="2">  1       -1 0.89673427E-01 0.30555647E+04</pdfrwt>
<totfact> 0.39951418E-01</totfact>
</mgrwt>
</event>
<event>
12    6  0.1627636E-007  0.1775671E+04  0.7818608E-02  0.8719345E-01
         -1   -1    0    0    0  501 -0.00000000000E+00  0.00000000000E+00  0.10691440065E+04  0.10691440065E+04  0.00000000000E+00 0.  1.
          2   -1    0    0  501    0  0.00000000000E+00 -0.00000000000E+00 -0.73727380268E+03  0.73727380268E+03  0.00000000000E+00 0. -1.
         24    2    1    2    0    0 -0.11601183466E+03  0.46688577908E+03  0.57327693725E+03  0.75294690481E+03  0.82713470417E+02 0.  0.
        254    2    1    2    0    0  0.11601183466E+03 -0.46688577908E+03 -0.24140673344E+03  0.10534709044E+04  0.90558415340E+03 0.  0.
         23    2    4    4    0    0  0.19075293210E+03  0.23034532631E+03 -0.20441750563E+02  0.31265849258E+03  0.88835901296E+02 0.  0.
         23    2    4    4    0    0 -0.74741097440E+02 -0.69723110539E+03 -0.22096498288E+03  0.74081241178E+03  0.90884871228E+02 0.  0.
          4    1    3    3  502    0  0.52316710604E+01  0.12986399781E+03  0.15422855365E+03  0.20168905540E+03  0.00000000000E+00 0. -1.
         -3    1    3    3    0  502 -0.12124350572E+03  0.33702178127E+03  0.41904838361E+03  0.55125784941E+03  0.00000000000E+00 0.  1.
         11    1    5    5    0    0  0.15249319776E+03  0.15728698658E+03 -0.50609650393E+02  0.22484374179E+03  0.00000000000E+00 0. -1.
        -11    1    5    5    0    0  0.38259734344E+02  0.73058339733E+02  0.30167899830E+02  0.87814750793E+02  0.00000000000E+00 0.  1.
          3    1    6    6  503    0 -0.88513247773E+02 -0.49991315091E+03 -0.18120739589E+03  0.53905832135E+03  0.00000000000E+00 0. -1.
         -3    1    6    6    0  503  0.13772150333E+02 -0.19731795447E+03 -0.39757586992E+02  0.20175409043E+03  0.00000000000E+00 0.  1.
<mgrwt>
<rscale>  0 0.17756710E+04</rscale>
<asrwt>0</asrwt>
<pdfrwt beam="1">  1        2 0.11342674E+00 0.17756710E+04</pdfrwt>
<pdfrwt beam="2">  1       -1 0.16448369E+00 0.17756710E+04</pdfrwt>
<totfact> 0.11195317E+01</totfact>
</mgrwt>
</event>
<event>
12    6  0.1627636E-007  0.1547647E+04  0.7818608E-02  0.8853372E-01
          2   -1    0    0  501    0  0.00000000000E+00  0.00000000000E+00  0.24922657572E+04  0.24922657572E+04  0.00000000000E+00 0. -1.
         -1   -1    0    0    0  501 -0.00000000000E+00 -0.00000000000E+00 -0.24026453499E+03  0.24026453499E+03  0.00000000000E+00 0.  1.
         24    2    1    2    0    0 -0.15728761030E+02  0.53703815013E+01  0.16239974024E+04  0.16260594255E+04  0.80158950646E+02 0.  0.
        254    2    1    2    0    0  0.15728761030E+02 -0.53703815013E+01  0.62800381977E+03  0.11064708666E+04  0.91083079996E+03 0.  0.
         23    2    4    4    0    0 -0.12289850981E+03  0.39126707520E+03  0.50854767452E+03  0.65982028318E+03  0.92455940766E+02 0.  0.
         23    2    4    4    0    0  0.13862727084E+03 -0.39663745670E+03  0.11945614525E+03  0.44665058346E+03  0.93210411373E+02 0.  0.
          4    1    3    3  502    0 -0.24885600146E+02  0.28048678881E+01  0.16007013424E+04  0.16008972322E+04  0.00000000000E+00 0. -1.
         -3    1    3    3    0  502  0.91568391152E+01  0.25655136132E+01  0.23296060007E+02  0.25162193357E+02  0.00000000000E+00 0.  1.
         11    1    5    5    0    0 -0.10320497940E+03  0.30109036906E+03  0.32799376296E+03  0.45704112140E+03  0.00000000000E+00 0.  1.
        -11    1    5    5    0    0 -0.19693530419E+02  0.90176706143E+02  0.18055391156E+03  0.20277916178E+03  0.00000000000E+00 0. -1.
          3    1    6    6  503    0  0.10038137053E+03 -0.24072368376E+03  0.29099984860E+02  0.26243307831E+03  0.00000000000E+00 0. -1.
         -3    1    6    6    0  503  0.38245900314E+02 -0.15591377294E+03  0.90356160390E+02  0.18421750515E+03  0.00000000000E+00 0.  1.
<mgrwt>
<rscale>  0 0.15476473E+04</rscale>
<asrwt>0</asrwt>
<pdfrwt beam="1">  1        2 0.38342548E+00 0.15476473E+04</pdfrwt>
<pdfrwt beam="2">  1       -1 0.36963776E-01 0.15476473E+04</pdfrwt>
<totfact> 0.27185456E+01</totfact>
</mgrwt>
</event>
<event>
12    6  0.1627636E-007  0.1629249E+04  0.7818608E-02  0.8802778E-01
          2   -1    0    0  501    0  0.00000000000E+00  0.00000000000E+00  0.15479376469E+04  0.15479376469E+04  0.00000000000E+00 0. -1.
         -1   -1    0    0    0  501 -0.00000000000E+00 -0.00000000000E+00 -0.42870783171E+03  0.42870783171E+03  0.00000000000E+00 0.  1.
         24    2    1    2    0    0 -0.20752150984E+02  0.54765966024E+03  0.23054074948E+03  0.60001009324E+03  0.80630760847E+02 0.  0.
        254    2    1    2    0    0  0.20752150984E+02 -0.54765966024E+03  0.88868906575E+03  0.13766353854E+04  0.89721512111E+03 0.  0.
         23    2    4    4    0    0 -0.41399711738E+02 -0.51695493914E+03  0.10519904807E+04  0.11763958673E+04  0.90922603021E+02 0.  0.
         23    2    4    4    0    0  0.62151862723E+02 -0.30704721101E+02 -0.16330141496E+03  0.20023951816E+03  0.92859455987E+02 0.  0.
          2    1    3    3  502    0  0.25120398869E+01  0.74737906241E+02  0.62898161203E+02  0.97715114780E+02  0.00000000000E+00 0. -1.
         -1    1    3    3    0  502 -0.23264190871E+02  0.47292175400E+03  0.16764258827E+03  0.50229497846E+03  0.00000000000E+00 0.  1.
         11    1    5    5    0    0 -0.45249007529E+02 -0.49782017327E+03  0.95987112681E+03  0.10822314806E+04  0.00000000000E+00 0. -1.
        -11    1    5    5    0    0  0.38492957903E+01 -0.19134765871E+02  0.92119353902E+02  0.94164386614E+02  0.00000000000E+00 0.  1.
          3    1    6    6  503    0  0.44564680765E+02  0.28583070258E+02 -0.89141852222E+02  0.10367869836E+03  0.00000000000E+00 0. -1.
         -3    1    6    6    0  503  0.17587181957E+02 -0.59287791359E+02 -0.74159562741E+02  0.96560819794E+02  0.00000000000E+00 0.  1.
<mgrwt>
<rscale>  0 0.16292489E+04</rscale>
<asrwt>0</asrwt>
<pdfrwt beam="1">  1        2 0.23814425E+00 0.16292489E+04</pdfrwt>
<pdfrwt beam="2">  1       -1 0.65955052E-01 0.16292489E+04</pdfrwt>
<totfact> 0.30296019E+01</totfact>
</mgrwt>
</event>
<event>
12    6  0.1627636E-007  0.1769343E+04  0.7818608E-02  0.8722775E-01
         -1   -1    0    0    0  501 -0.00000000000E+00  0.00000000000E+00  0.40581372867E+03  0.40581372867E+03  0.00000000000E+00 0.  1.
          2   -1    0    0  501    0  0.00000000000E+00 -0.00000000000E+00 -0.19285782083E+04  0.19285782083E+04  0.00000000000E+00 0. -1.
         24    2    1    2    0    0 -0.94117714150E+01 -0.39115642838E+03  0.12319722408E+03  0.41784329389E+03  0.79520622000E+02 0.  0.
        254    2    1    2    0    0  0.94117714150E+01  0.39115642838E+03 -0.16459617037E+04  0.19165486431E+04  0.90048700066E+03 0.  0.
         23    2    4    4    0    0  0.42954131227E+03  0.79136203945E+02 -0.65440079031E+03  0.79189396981E+03  0.89929902447E+02 0.  0.
         23    2    4    4    0    0 -0.42012954085E+03  0.31202022444E+03 -0.99156091343E+03  0.11246546733E+04  0.88258923541E+02 0.  0.
          2    1    3    3  502    0 -0.37863043606E+02 -0.11012992892E+03  0.43949265554E+02  0.12447388987E+03  0.00000000000E+00 0. -1.
         -1    1    3    3    0  502  0.28451272191E+02 -0.28102649946E+03  0.79247958524E+02  0.29336940402E+03  0.00000000000E+00 0.  1.
         11    1    5    5    0    0  0.33864764935E+03  0.64607831983E+02 -0.57450125520E+03  0.67000604071E+03  0.00000000000E+00 0.  1.
        -11    1    5    5    0    0  0.90893662921E+02  0.14528371962E+02 -0.79899535109E+02  0.12188792911E+03  0.00000000000E+00 0. -1.
          3    1    6    6  503    0 -0.24307083508E+03  0.23306786655E+03 -0.63936225690E+03  0.72262587611E+03  0.00000000000E+00 0. -1.
         -3    1    6    6    0  503 -0.17705870577E+03  0.78952357889E+02 -0.35219865653E+03  0.40202879719E+03  0.00000000000E+00 0.  1.
<mgrwt>
<rscale>  0 0.17693428E+04</rscale>
<asrwt>0</asrwt>
<pdfrwt beam="1">  1        2 0.29670434E+00 0.17693428E+04</pdfrwt>
<pdfrwt beam="2">  1       -1 0.62432880E-01 0.17693428E+04</pdfrwt>
<totfact> 0.20532921E+01</totfact>
</mgrwt>
</event>
<event>
12    6  0.1627636E-007  0.2330027E+04  0.7818608E-02  0.8466175E-01
          2   -1    0    0  501    0  0.00000000000E+00  0.00000000000E+00  0.12941330509E+04  0.12941330509E+04  0.00000000000E+00 0. -1.
         -1   -1    0    0    0  501 -0.00000000000E+00 -0.00000000000E+00 -0.10487762690E+04  0.10487762690E+04  0.00000000000E+00 0.  1.
         24    2    1    2    0    0  0.86262091500E+03 -0.40249278856E+03 -0.16495204469E+03  0.96900608748E+03  0.75155390355E+02 0.  0.
        254    2    1    2    0    0 -0.86262091500E+03  0.40249278856E+03  0.41030882651E+03  0.13739032324E+04  0.90174357281E+03 0.  0.
         23    2    4    4    0    0 -0.84616109594E+03  0.56913237432E+03  0.52754437720E+03  0.11518617518E+04  0.92639978821E+02 0.  0.
         23    2    4    4    0    0 -0.16459819052E+02 -0.16663958576E+03 -0.11723555068E+03  0.22204148057E+03  0.86709673981E+02 0.  0.
          2    1    3    3  502    0  0.13229504613E+03 -0.53761736748E+02  0.12281843958E+01  0.14280690461E+03  0.00000000000E+00 0. -1.
         -1    1    3    3    0  502  0.73032586887E+03 -0.34873105181E+03 -0.16618022909E+03  0.82619918287E+03  0.00000000000E+00 0.  1.
         11    1    5    5    0    0 -0.13181153284E+03  0.12571917670E+03  0.74581531691E+02  0.19682986676E+03  0.00000000000E+00 0.  1.
        -11    1    5    5    0    0 -0.71434956310E+03  0.44341319762E+03  0.45296284550E+03  0.95503188509E+03  0.00000000000E+00 0. -1.
          1    1    6    6  503    0  0.16509205273E+02 -0.37707103021E+02 -0.69275832860E+02  0.80582383282E+02  0.00000000000E+00 0. -1.
         -1    1    6    6    0  503 -0.32969024325E+02 -0.12893248274E+03 -0.47959717824E+02  0.14145909728E+03  0.00000000000E+00 0.  1.
<mgrwt>
<rscale>  0 0.23300266E+04</rscale>
<asrwt>0</asrwt>
<pdfrwt beam="1">  1        2 0.19909739E+00 0.23300266E+04</pdfrwt>
<pdfrwt beam="2">  1       -1 0.16135020E+00 0.23300266E+04</pdfrwt>
<totfact> 0.49023553E+00</totfact>
</mgrwt>
</event>
<event>
12    6  0.1627636E-007  0.2971459E+04  0.7818608E-02  0.8251928E-01
          2   -1    0    0  501    0  0.00000000000E+00  0.00000000000E+00  0.14759256391E+04  0.14759256391E+04  0.00000000000E+00 0. -1.
         -1   -1    0    0    0  501 -0.00000000000E+00 -0.00000000000E+00 -0.14955985808E+04  0.14955985808E+04  0.00000000000E+00 0.  1.
         24    2    1    2    0    0 -0.61209443875E+03 -0.24364269547E+03 -0.11850763436E+04  0.13581224075E+04  0.77904869446E+02 0.  0.
        254    2    1    2    0    0  0.61209443875E+03  0.24364269547E+03  0.11654034019E+04  0.16134018124E+04  0.90048817543E+03 0.  0.
         23    2    4    4    0    0  0.16335143279E+03  0.44757479073E+03  0.19925778990E+03  0.52441953776E+03  0.91133423374E+02 0.  0.
         23    2    4    4    0    0  0.44874300596E+03 -0.20393209526E+03  0.96614561200E+03  0.10889822747E+04  0.97398490914E+02 0.  0.
          4    1    3    3  502    0 -0.22915723064E+03 -0.10763877570E+03 -0.38548178058E+03  0.46118905619E+03  0.00000000000E+00 0. -1.
         -3    1    3    3    0  502 -0.38293720811E+03 -0.13600391977E+03 -0.79959456299E+03  0.89693335132E+03  0.00000000000E+00 0.  1.
         11    1    5    5    0    0  0.16879651568E+03  0.37925545861E+03  0.18468313522E+03  0.45435099541E+03  0.00000000000E+00 0.  1.
        -11    1    5    5    0    0 -0.54450828866E+01  0.68319332111E+02  0.14574654686E+02  0.70068542350E+02  0.00000000000E+00 0. -1.
          1    1    6    6  503    0  0.11370529073E+03 -0.74350515092E+02  0.18828978461E+03  0.23218513136E+03  0.00000000000E+00 0. -1.
         -1    1    6    6    0  503  0.33503771523E+03 -0.12958158016E+03  0.77785582739E+03  0.85679714329E+03  0.00000000000E+00 0.  1.
<mgrwt>
<rscale>  0 0.29714591E+04</rscale>
<asrwt>0</asrwt>
<pdfrwt beam="1">  1        2 0.22706548E+00 0.29714591E+04</pdfrwt>
<pdfrwt beam="2">  1       -1 0.23009209E+00 0.29714591E+04</pdfrwt>
<totfact> 0.12063219E+00</totfact>
</mgrwt>
</event>
<event>
12    6  0.1627636E-007  0.1433652E+04  0.7818608E-02  0.8929814E-01
         -1   -1    0    0    0  501 -0.00000000000E+00  0.00000000000E+00  0.19706781206E+04  0.19706781206E+04  0.00000000000E+00 0.  1.
          2   -1    0    0  501    0  0.00000000000E+00 -0.00000000000E+00 -0.26074233255E+03  0.26074233255E+03  0.00000000000E+00 0. -1.
         24    2    1    2    0    0 -0.75165275562E+02 -0.16449062169E+03 -0.87660227779E+02  0.20997930006E+03  0.60827688151E+02 0.  0.
        254    2    1    2    0    0  0.75165275562E+02  0.16449062169E+03  0.17975960159E+04  0.20214411531E+04  0.90673365217E+03 0.  0.
         23    2    4    4    0    0  0.35196756480E+02  0.30134776405E+03  0.12433703528E+03  0.33956036474E+03  0.88273758236E+02 0.  0.
         23    2    4    4    0    0  0.39968519083E+02 -0.13685714236E+03  0.16732589806E+04  0.16818807884E+04  0.92736240415E+02 0.  0.
          4    1    3    3  502    0 -0.76135909464E+02 -0.11372229507E+03 -0.46257497445E+02  0.14446173602E+03  0.00000000000E+00 0. -1.
         -3    1    3    3    0  502  0.97063390185E+00 -0.50768326626E+02 -0.41402730334E+02  0.65517564040E+02  0.00000000000E+00 0.  1.
         11    1    5    5    0    0 -0.42130940997E+01  0.22439879754E+03  0.11617076301E+03  0.25272161893E+03  0.00000000000E+00 0.  1.
        -11    1    5    5    0    0  0.39409850579E+02  0.76948966512E+02  0.81662722742E+01  0.86838745804E+02  0.00000000000E+00 0. -1.
          2    1    6    6  503    0 -0.19274996721E+02 -0.82862790775E+02  0.10594012382E+04  0.10628117195E+04  0.00000000000E+00 0. -1.
         -2    1    6    6    0  503  0.59243515803E+02 -0.53994351583E+02  0.61385774241E+03  0.61906906891E+03  0.00000000000E+00 0.  1.
<mgrwt>
<rscale>  0 0.14336516E+04</rscale>
<asrwt>0</asrwt>
<pdfrwt beam="1">  1        2 0.40114206E-01 0.14336516E+04</pdfrwt>
<pdfrwt beam="2">  1       -1 0.30318124E+00 0.14336516E+04</pdfrwt>
<totfact> 0.45133534E+00</totfact>
</mgrwt>
</event>
<event>
12    6  0.1627636E-007  0.3206625E+04  0.7818608E-02  0.8187070E-01
          2   -1    0    0  501    0  0.00000000000E+00  0.00000000000E+00  0.23498417898E+04  0.23498417898E+04  0.00000000000E+00 0. -1.
         -1   -1    0    0    0  501 -0.00000000000E+00 -0.00000000000E+00 -0.10939509680E+04  0.10939509680E+04  0.00000000000E+00 0.  1.
         24    2    1    2    0    0  0.96085282057E+03 -0.41936194223E+03  0.16933642936E+04  0.19931854049E+04  0.78758150808E+02 0.  0.
        254    2    1    2    0    0 -0.96085282057E+03  0.41936194223E+03 -0.43747347172E+03  0.14506073528E+04  0.90209537869E+03 0.  0.
         23    2    4    4    0    0 -0.13032535696E+03 -0.18128346642E+03  0.13459444526E+03  0.27297893099E+03  0.80953308797E+02 0.  0.
         23    2    4    4    0    0 -0.83052746361E+03  0.60064540865E+03 -0.57206791698E+03  0.11776284218E+04  0.94848424119E+02 0.  0.
          2    1    3    3  502    0  0.29061347081E+03 -0.10317890583E+03  0.55304232693E+03  0.63321235885E+03  0.00000000000E+00 0. -1.
         -1    1    3    3    0  502  0.67023934976E+03 -0.31618303641E+03  0.11403219666E+04  0.13599730461E+04  0.00000000000E+00 0.  1.
         11    1    5    5    0    0 -0.72262770599E+02 -0.65515957686E+02  0.98290533316E+02  0.13847482683E+03  0.00000000000E+00 0.  1.
        -11    1    5    5    0    0 -0.58062586360E+02 -0.11576750873E+03  0.36303911947E+02  0.13450410416E+03  0.00000000000E+00 0. -1.
          3    1    6    6  503    0 -0.50542647216E+03  0.32894556116E+03 -0.37702469807E+03  0.71120230871E+03  0.00000000000E+00 0. -1.
         -3    1    6    6    0  503 -0.32510099145E+03  0.27169984749E+03 -0.19504321891E+03  0.46642611313E+03  0.00000000000E+00 0.  1.
<mgrwt>
<rscale>  0 0.32066255E+04</rscale>
<asrwt>0</asrwt>
<pdfrwt beam="1">  1        2 0.36151412E+00 0.32066255E+04</pdfrwt>
<pdfrwt beam="2">  1       -1 0.16830015E+00 0.32066255E+04</pdfrwt>
<totfact> 0.10289204E+00</totfact>
</mgrwt>
</event>
<event>
12    6  0.1627636E-007  0.2100516E+04  0.7818608E-02  0.8561016E-01
         -1   -1    0    0    0  501 -0.00000000000E+00  0.00000000000E+00  0.14156090280E+04  0.14156090280E+04  0.00000000000E+00 0.  1.
          2   -1    0    0  501    0  0.00000000000E+00 -0.00000000000E+00 -0.77919946269E+03  0.77919946269E+03  0.00000000000E+00 0. -1.
         24    2    1    2    0    0 -0.58935199928E+03 -0.41438107518E+03 -0.22107090916E+03  0.75773387307E+03  0.78998867060E+02 0.  0.
        254    2    1    2    0    0  0.58935199928E+03  0.41438107518E+03  0.85748047446E+03  0.14370746176E+04  0.90047944894E+03 0.  0.
         23    2    4    4    0    0  0.42028184142E+03 -0.94077153305E+02  0.76964961870E+03  0.88683050264E+03  0.92846474592E+02 0.  0.
         23    2    4    4    0    0  0.16907015787E+03  0.50845822849E+03  0.87830855764E+02  0.55024411497E+03  0.89105771074E+02 0.  0.
          4    1    3    3  502    0 -0.38543645209E+03 -0.26834926909E+03 -0.10440983947E+03  0.48111745281E+03  0.00000000000E+00 0. -1.
         -3    1    3    3    0  502 -0.20391554720E+03 -0.14603180609E+03 -0.11666106969E+03  0.27661642027E+03  0.00000000000E+00 0.  1.
         11    1    5    5    0    0  0.39891648525E+03 -0.10946910860E+03  0.71185349126E+03  0.82331843230E+03  0.00000000000E+00 0. -1.
        -11    1    5    5    0    0  0.21365356166E+02  0.15391955291E+02  0.57796127442E+02  0.63512070342E+02  0.00000000000E+00 0.  1.
          4    1    6    6  503    0  0.14326916901E+03  0.29653997521E+03  0.63197623236E+02  0.33534452622E+03  0.00000000000E+00 0. -1.
         -4    1    6    6    0  503  0.25800988854E+02  0.21191825328E+03  0.24633232528E+02  0.21489958875E+03  0.00000000000E+00 0.  1.
<mgrwt>
<rscale>  0 0.21005159E+04</rscale>
<asrwt>0</asrwt>
<pdfrwt beam="1">  1        2 0.11987684E+00 0.21005159E+04</pdfrwt>
<pdfrwt beam="2">  1       -1 0.21778600E+00 0.21005159E+04</pdfrwt>
<totfact> 0.42714909E+00</totfact>
</mgrwt>
</event>
<event>
12    6  0.1627636E-007  0.2205532E+04  0.7818608E-02  0.8516129E-01
          2   -1    0    0  501    0  0.00000000000E+00  0.00000000000E+00  0.37637230462E+04  0.37637230462E+04  0.00000000000E+00 0. -1.
         -1   -1    0    0    0  501 -0.00000000000E+00 -0.00000000000E+00 -0.32310901040E+03  0.32310901040E+03  0.00000000000E+00 0.  1.
         24    2    1    2    0    0  0.52307830692E+03 -0.12183382225E+03  0.28215299913E+04  0.28732817931E+04  0.79135169290E+02 0.  0.
        254    2    1    2    0    0 -0.52307830692E+03  0.12183382225E+03  0.61908404448E+03  0.12135502635E+04  0.89497753746E+03 0.  0.
         23    2    4    4    0    0 -0.28500668925E+03 -0.27699105448E+03 -0.31009497483E+02  0.40940041981E+03  0.93243003090E+02 0.  0.
         23    2    4    4    0    0 -0.23807161767E+03  0.39882487673E+03  0.65009354196E+03  0.80414984371E+03  0.91082272757E+02 0.  0.
          4    1    3    3  502    0  0.41891704434E+03 -0.99487359235E+02  0.24115980230E+04  0.24497335057E+04  0.00000000000E+00 0. -1.
         -3    1    3    3    0  502  0.10416126258E+03 -0.22346463011E+02  0.40993196839E+03  0.42354828738E+03  0.00000000000E+00 0.  1.
         11    1    5    5    0    0 -0.19445095277E+03 -0.21292842075E+03 -0.60471624916E+02  0.29462943304E+03  0.00000000000E+00 0. -1.
        -11    1    5    5    0    0 -0.90555736481E+02 -0.64062633739E+02  0.29462127433E+02  0.11477098677E+03  0.00000000000E+00 0.  1.
          3    1    6    6  503    0 -0.10162804915E+02  0.34135176566E+01  0.44875543673E+02  0.46138369352E+02  0.00000000000E+00 0. -1.
         -3    1    6    6    0  503 -0.22790881276E+03  0.39541135907E+03  0.60521799829E+03  0.75801147436E+03  0.00000000000E+00 0.  1.
<mgrwt>
<rscale>  0 0.22055320E+04</rscale>
<asrwt>0</asrwt>
<pdfrwt beam="1">  1        2 0.57903429E+00 0.22055320E+04</pdfrwt>
<pdfrwt beam="2">  1       -1 0.49709081E-01 0.22055320E+04</pdfrwt>
<totfact> 0.22189912E+00</totfact>
</mgrwt>
</event>
<event>
12    6  0.1627636E-007  0.1871799E+04  0.7818608E-02  0.8669023E-01
         -1   -1    0    0    0  501 -0.00000000000E+00  0.00000000000E+00  0.19800136600E+04  0.19800136600E+04  0.00000000000E+00 0.  1.
          2   -1    0    0  501    0  0.00000000000E+00 -0.00000000000E+00 -0.44237460813E+03  0.44237460813E+03  0.00000000000E+00 0. -1.
         24    2    1    2    0    0  0.49112082732E+03  0.23023767189E+03 -0.45981589798E+02  0.55051663098E+03  0.82129177505E+02 0.  0.
        254    2    1    2    0    0 -0.49112082732E+03 -0.23023767189E+03  0.15836206417E+04  0.18718716372E+04  0.83775893708E+03 0.  0.
         23    2    4    4    0    0 -0.36514732989E+03 -0.43800594290E+03  0.14863828293E+04  0.15945272133E+04  0.89450211209E+02 0.  0.
         23    2    4    4    0    0 -0.12597349743E+03  0.20776827101E+03  0.97237812402E+02  0.27734442384E+03  0.91802836464E+02 0.  0.
          4    1    3    3  502    0  0.46226972206E+03  0.20890877578E+03 -0.62312197850E+02  0.51109586433E+03  0.00000000000E+00 0. -1.
         -3    1    3    3    0  502  0.28851105261E+02  0.21328896108E+02  0.16330608052E+02  0.39420766651E+02  0.00000000000E+00 0.  1.
         11    1    5    5    0    0 -0.21720975907E+03 -0.30119077875E+03  0.10538201478E+04  0.11173329264E+04  0.00000000000E+00 0.  1.
        -11    1    5    5    0    0 -0.14793757082E+03 -0.13681516415E+03  0.43256268152E+03  0.47719428690E+03  0.00000000000E+00 0. -1.
          1    1    6    6  503    0 -0.13959826636E+02  0.10932582558E+03  0.48974144267E+02  0.12060464214E+03  0.00000000000E+00 0. -1.
         -1    1    6    6    0  503 -0.11201367080E+03  0.98442445430E+02  0.48263668135E+02  0.15673978171E+03  0.00000000000E+00 0.  1.
<mgrwt>
<rscale>  0 0.18717989E+04</rscale>
<asrwt>0</asrwt>
<pdfrwt beam="1">  1        2 0.68057633E-01 0.18717989E+04</pdfrwt>
<pdfrwt beam="2">  1       -1 0.30461748E+00 0.18717989E+04</pdfrwt>
<totfact> 0.23477518E+00</totfact>
</mgrwt>
</event>
<event>
12    6  0.1627636E-007  0.1225668E+04  0.7818608E-02  0.9090681E-01
          2   -1    0    0  501    0  0.00000000000E+00  0.00000000000E+00  0.15916684497E+04  0.15916684497E+04  0.00000000000E+00 0. -1.
         -3   -1    0    0    0  501 -0.00000000000E+00 -0.00000000000E+00 -0.23595713765E+03  0.23595713765E+03  0.00000000000E+00 0.  1.
         24    2    1    2    0    0  0.11311550949E+03  0.18402326957E+03  0.56721608994E+03  0.61221674237E+03  0.80097220398E+02 0.  0.
        254    2    1    2    0    0 -0.11311550949E+03 -0.18402326957E+03  0.78849522214E+03  0.12154088450E+04  0.89935213514E+03 0.  0.
         23    2    4    4    0    0 -0.89850010831E+02  0.34172868103E+03  0.46900646747E+03  0.59363220761E+03  0.87066730208E+02 0.  0.
         23    2    4    4    0    0 -0.23265498657E+02 -0.52575195059E+03  0.31948875467E+03  0.62177663740E+03  0.87044387945E+02 0.  0.
          2    1    3    3  502    0  0.38202673330E+02  0.83749658818E+02  0.34609813115E+03  0.35813037568E+03  0.00000000000E+00 0. -1.
         -1    1    3    3    0  502  0.74912836158E+02  0.10027361075E+03  0.22111795880E+03  0.25408636669E+03  0.00000000000E+00 0.  1.
         11    1    5    5    0    0 -0.10113105443E+03  0.32723825307E+03  0.42423538450E+03  0.54524125478E+03  0.00000000000E+00 0. -1.
        -11    1    5    5    0    0  0.11281043599E+02  0.14490427954E+02  0.44771082963E+02  0.48390952838E+02  0.00000000000E+00 0.  1.
          3    1    6    6  503    0 -0.55030698519E+02 -0.30549962011E+03  0.17318728994E+03  0.35546059285E+03  0.00000000000E+00 0. -1.
         -3    1    6    6    0  503  0.31765199863E+02 -0.22025233048E+03  0.14630146473E+03  0.26631604455E+03  0.00000000000E+00 0.  1.
<mgrwt>
<rscale>  0 0.12256680E+04</rscale>
<asrwt>0</asrwt>
<pdfrwt beam="1">  1        2 0.24487206E+00 0.12256680E+04</pdfrwt>
<pdfrwt beam="2">  1       -3 0.36301099E-01 0.12256680E+04</pdfrwt>
<totfact> 0.53691334E+01</totfact>
</mgrwt>
</event>
<event>
12    6  0.1627636E-007  0.3338990E+04  0.7818608E-02  0.8153045E-01
         -1   -1    0    0    0  501 -0.00000000000E+00  0.00000000000E+00  0.79257405785E+03  0.79257405785E+03  0.00000000000E+00 0.  1.
          2   -1    0    0  501    0  0.00000000000E+00 -0.00000000000E+00 -0.35166601124E+04  0.35166601124E+04  0.00000000000E+00 0. -1.
         24    2    1    2    0    0  0.15350888440E+03  0.60441914131E+03  0.56706981414E+03  0.84659142408E+03  0.79128940697E+02 0.  0.
        254    2    1    2    0    0 -0.15350888440E+03 -0.60441914131E+03 -0.32911558686E+04  0.34626427461E+04  0.87709769100E+03 0.  0.
         23    2    4    4    0    0  0.32930506762E+03 -0.29360367765E+03 -0.19414580334E+04  0.19930184483E+04  0.90654799753E+02 0.  0.
         23    2    4    4    0    0 -0.48281395203E+03 -0.31081546366E+03 -0.13496978353E+04  0.14696242978E+04  0.91628410198E+02 0.  0.
          2    1    3    3  502    0  0.95773424755E+02  0.25027607587E+03  0.21087133024E+03  0.34099469345E+03  0.00000000000E+00 0. -1.
         -1    1    3    3    0  502  0.57735459649E+02  0.35414306543E+03  0.35619848390E+03  0.50559673063E+03  0.00000000000E+00 0.  1.
         11    1    5    5    0    0  0.13742910990E+03 -0.17940719051E+03 -0.90628181305E+03  0.93403448808E+03  0.00000000000E+00 0.  1.
        -11    1    5    5    0    0  0.19187595773E+03 -0.11419648714E+03 -0.10351762203E+04  0.10589839602E+04  0.00000000000E+00 0. -1.
          3    1    6    6  503    0 -0.46851653435E+03 -0.28943771637E+03 -0.12373365407E+04  0.13543572828E+04  0.00000000000E+00 0. -1.
         -3    1    6    6    0  503 -0.14297417674E+02 -0.21377747283E+02 -0.11236129455E+03  0.11526701499E+03  0.00000000000E+00 0.  1.
<mgrwt>
<rscale>  0 0.33389900E+04</rscale>
<asrwt>0</asrwt>
<pdfrwt beam="1">  1        2 0.54102463E+00 0.33389900E+04</pdfrwt>
<pdfrwt beam="2">  1       -1 0.12193447E+00 0.33389900E+04</pdfrwt>
<totfact> 0.44456947E-01</totfact>
</mgrwt>
</event>
<event>
12    6  0.1627636E-007  0.2045715E+04  0.7818608E-02  0.8585541E-01
          2   -1    0    0  501    0  0.00000000000E+00  0.00000000000E+00  0.20300967602E+04  0.20300967602E+04  0.00000000000E+00 0. -1.
         -1   -1    0    0    0  501 -0.00000000000E+00 -0.00000000000E+00 -0.51536338131E+03  0.51536338131E+03  0.00000000000E+00 0.  1.
         24    2    1    2    0    0  0.73807815781E+02  0.44261456601E+03 -0.24856009346E+03  0.51921453381E+03  0.80289254224E+02 0.  0.
        254    2    1    2    0    0 -0.73807815781E+02 -0.44261456601E+03  0.17632934723E+04  0.20262456077E+04  0.89169061076E+03 0.  0.
         23    2    4    4    0    0 -0.15574693219E+03  0.18206716556E+03  0.16593257198E+03  0.30668131796E+03  0.95468595257E+02 0.  0.
         23    2    4    4    0    0  0.81939116413E+02 -0.62468173157E+03  0.15973609004E+04  0.17195642897E+04  0.91641780391E+02 0.  0.
          4    1    3    3  502    0  0.97160856245E+01  0.78206657788E+01  0.29879073446E+01  0.12825471663E+02  0.00000000000E+00 0. -1.
         -3    1    3    3    0  502  0.64091730156E+02  0.43479390023E+03 -0.25154800081E+03  0.50638906215E+03  0.00000000000E+00 0.  1.
         11    1    5    5    0    0 -0.96903886119E+02  0.52580897369E+02  0.10396724926E+03  0.15153977310E+03  0.00000000000E+00 0. -1.
        -11    1    5    5    0    0 -0.58843046074E+02  0.12948626819E+03  0.61965322711E+02  0.15514154485E+03  0.00000000000E+00 0.  1.
          3    1    6    6  503    0 -0.22591172842E+01  0.27531056861E+01  0.75574874956E+01  0.83545687543E+01  0.00000000000E+00 0. -1.
         -3    1    6    6    0  503  0.84198233697E+02 -0.62743483725E+03  0.15898034129E+04  0.17112097210E+04  0.00000000000E+00 0.  1.
<mgrwt>
<rscale>  0 0.20457151E+04</rscale>
<asrwt>0</asrwt>
<pdfrwt beam="1">  1        2 0.31232257E+00 0.20457151E+04</pdfrwt>
<pdfrwt beam="2">  1       -1 0.79286675E-01 0.20457151E+04</pdfrwt>
<totfact> 0.10769827E+01</totfact>
</mgrwt>
</event>
<event>
12    6  0.1627636E-007  0.1740355E+04  0.7818608E-02  0.8738678E-01
          2   -1    0    0  501    0  0.00000000000E+00  0.00000000000E+00  0.15549771223E+04  0.15549771223E+04  0.00000000000E+00 0. -1.
         -1   -1    0    0    0  501 -0.00000000000E+00 -0.00000000000E+00 -0.48695795192E+03  0.48695795192E+03  0.00000000000E+00 0.  1.
         24    2    1    2    0    0  0.57719965885E+03  0.24391036345E+03  0.44950092560E+03  0.77748849666E+03  0.98922033667E+02 0.  0.
        254    2    1    2    0    0 -0.57719965885E+03 -0.24391036345E+03  0.61851824474E+03  0.12644465775E+04  0.90752885175E+03 0.  0.
         23    2    4    4    0    0 -0.24212416872E+03 -0.19524833310E+03 -0.19516398587E+03  0.37834421689E+03  0.91155583588E+02 0.  0.
         23    2    4    4    0    0 -0.33507549013E+03 -0.48662030345E+02  0.81368223060E+03  0.88610236062E+03  0.91951312252E+02 0.  0.
          2    1    3    3  502    0  0.55949381974E+03  0.23020826773E+03  0.45165355598E+03  0.75499676522E+03  0.00000000000E+00 0. -1.
         -1    1    3    3    0  502  0.17705839105E+02  0.13702095719E+02 -0.21526303790E+01  0.22491731437E+02  0.00000000000E+00 0.  1.
         11    1    5    5    0    0 -0.21875647968E+03 -0.16425747161E+03 -0.20049638024E+03  0.33916620243E+03  0.00000000000E+00 0. -1.
        -11    1    5    5    0    0 -0.23367689043E+02 -0.30990861495E+02  0.53323943788E+01  0.39178014463E+02  0.00000000000E+00 0.  1.
          4    1    6    6  503    0 -0.26283495102E+03 -0.59998933430E+00  0.64260572800E+03  0.69427998179E+03  0.00000000000E+00 0. -1.
         -4    1    6    6    0  503 -0.72240539114E+02 -0.48062041011E+02  0.17107650260E+03  0.19182237883E+03  0.00000000000E+00 0.  1.
<mgrwt>
<rscale>  0 0.17403545E+04</rscale>
<asrwt>0</asrwt>
<pdfrwt beam="1">  1        2 0.23922725E+00 0.17403545E+04</pdfrwt>
<pdfrwt beam="2">  1       -1 0.74916609E-01 0.17403545E+04</pdfrwt>
<totfact> 0.22891697E+01</totfact>
</mgrwt>
</event>
<event>
12    6  0.1627636E-007  0.2374746E+04  0.7818608E-02  0.8449019E-01
         -1   -1    0    0    0  501 -0.00000000000E+00  0.00000000000E+00  0.54527756594E+03  0.54527756594E+03  0.00000000000E+00 0.  1.
          2   -1    0    0  501    0  0.00000000000E+00 -0.00000000000E+00 -0.25855714990E+04  0.25855714990E+04  0.00000000000E+00 0. -1.
         24    2    1    2    0    0 -0.76485805198E+03 -0.48254983790E+03 -0.26987698514E+03  0.94709644767E+03  0.79346760068E+02 0.  0.
        254    2    1    2    0    0  0.76485805198E+03  0.48254983790E+03 -0.17704169479E+04  0.21837526173E+04  0.90362444534E+03 0.  0.
         23    2    4    4    0    0  0.40229123242E+03 -0.99788414958E+02 -0.12440033551E+04  0.13144310180E+04  0.91589246475E+02 0.  0.
         23    2    4    4    0    0  0.36256681956E+03  0.58233825286E+03 -0.52641359281E+03  0.86932159929E+03  0.89645038347E+02 0.  0.
          2    1    3    3  502    0 -0.33273288334E+03 -0.20369399671E+03 -0.15718381053E+03  0.42060571351E+03  0.00000000000E+00 0. -1.
         -1    1    3    3    0  502 -0.43212516865E+03 -0.27885584119E+03 -0.11269317461E+03  0.52649073415E+03  0.00000000000E+00 0.  1.
         11    1    5    5    0    0  0.39470091296E+03 -0.92834112672E+02 -0.11407967998E+04  0.12107123200E+04  0.00000000000E+00 0.  1.
        -11    1    5    5    0    0  0.75903194584E+01 -0.69543022857E+01 -0.10320655527E+03  0.10371869803E+03  0.00000000000E+00 0. -1.
          2    1    6    6  503    0  0.52906683137E+02  0.40909653638E+02 -0.66975141253E+02  0.94648752909E+02  0.00000000000E+00 0. -1.
         -2    1    6    6    0  503  0.30966013642E+03  0.54142859922E+03 -0.45943845156E+03  0.77467284638E+03  0.00000000000E+00 0.  1.
<mgrwt>
<rscale>  0 0.23747456E+04</rscale>
<asrwt>0</asrwt>
<pdfrwt beam="1">  1        2 0.39778024E+00 0.23747456E+04</pdfrwt>
<pdfrwt beam="2">  1       -1 0.83888855E-01 0.23747456E+04</pdfrwt>
<totfact> 0.44808879E+00</totfact>
</mgrwt>
</event>
<event>
12    6  0.1627636E-007  0.1193334E+04  0.7818608E-02  0.9118712E-01
          2   -1    0    0  501    0  0.00000000000E+00  0.00000000000E+00  0.22204352809E+04  0.22204352809E+04  0.00000000000E+00 0. -1.
         -1   -1    0    0    0  501 -0.00000000000E+00 -0.00000000000E+00 -0.16033402118E+03  0.16033402118E+03  0.00000000000E+00 0.  1.
         24    2    1    2    0    0  0.18459811092E+03  0.13706208411E+03  0.23373795776E+03  0.33719248618E+03  0.78758252792E+02 0.  0.
        254    2    1    2    0    0 -0.18459811092E+03 -0.13706208411E+03  0.18263633020E+04  0.20435768159E+04  0.88754764055E+03 0.  0.
         23    2    4    4    0    0  0.15548466521E+03  0.53826492157E+02  0.15394528125E+04  0.15511127737E+04  0.94673662333E+02 0.  0.
         23    2    4    4    0    0 -0.34008277614E+03 -0.19088857627E+03  0.28691048947E+03  0.49246404224E+03  0.90046991929E+02 0.  0.
          2    1    3    3  502    0 -0.37608725002E+01 -0.40777595887E+00  0.21659117794E+02  0.21986992218E+02  0.00000000000E+00 0. -1.
         -1    1    3    3    0  502  0.18835898342E+03  0.13746986007E+03  0.21207883997E+03  0.31520549397E+03  0.00000000000E+00 0.  1.
         11    1    5    5    0    0  0.26080951715E+02  0.82572804466E+01  0.68273700773E+02  0.73550642009E+02  0.00000000000E+00 0. -1.
        -11    1    5    5    0    0  0.12940371350E+03  0.45569211710E+02  0.14711791117E+04  0.14775621316E+04  0.00000000000E+00 0.  1.
          4    1    6    6  503    0 -0.12706492260E+03 -0.87889036955E+02  0.63483399083E+02  0.16703328810E+03  0.00000000000E+00 0. -1.
         -4    1    6    6    0  503 -0.21301785353E+03 -0.10299953931E+03  0.22342709039E+03  0.32543075414E+03  0.00000000000E+00 0.  1.
<mgrwt>
<rscale>  0 0.11933337E+04</rscale>
<asrwt>0</asrwt>
<pdfrwt beam="1">  1        2 0.34160540E+00 0.11933337E+04</pdfrwt>
<pdfrwt beam="2">  1       -1 0.24666774E-01 0.11933337E+04</pdfrwt>
<totfact> 0.81315855E+01</totfact>
</mgrwt>
</event>
<event>
12    6  0.1627636E-007  0.2310053E+04  0.7818608E-02  0.8473968E-01
         -1   -1    0    0    0  501 -0.00000000000E+00  0.00000000000E+00  0.10442767961E+04  0.10442767961E+04  0.00000000000E+00 0.  1.
          2   -1    0    0  501    0  0.00000000000E+00 -0.00000000000E+00 -0.12775220148E+04  0.12775220148E+04  0.00000000000E+00 0. -1.
         24    2    1    2    0    0 -0.27205810076E+03  0.90248321367E+03  0.16134243716E+03  0.95931912074E+03  0.75962044758E+02 0.  0.
        254    2    1    2    0    0  0.27205810076E+03 -0.90248321367E+03 -0.39458765589E+03  0.13624796901E+04  0.90119916039E+03 0.  0.
         23    2    4    4    0    0 -0.29448356111E+03 -0.50631027627E+03 -0.81983461541E+02  0.59832206115E+03  0.90539147732E+02 0.  0.
         23    2    4    4    0    0  0.56654166187E+03 -0.39617293740E+03 -0.31260419435E+03  0.76415762898E+03  0.91066177218E+02 0.  0.
          4    1    3    3  502    0 -0.17682945078E+03  0.51675939588E+03  0.61253157959E+02  0.54960065252E+03  0.00000000000E+00 0. -1.
         -3    1    3    3    0  502 -0.95228649981E+02  0.38572381779E+03  0.10008927920E+03  0.40971846822E+03  0.00000000000E+00 0.  1.
         11    1    5    5    0    0 -0.23636265786E+03 -0.32219438795E+03 -0.53531530016E+02  0.40316517008E+03  0.00000000000E+00 0. -1.
        -11    1    5    5    0    0 -0.58120903253E+02 -0.18411588832E+03 -0.28451931525E+02  0.19515689107E+03  0.00000000000E+00 0.  1.
          4    1    6    6  503    0  0.21726918487E+03 -0.19965775300E+03 -0.10827106168E+03  0.31431153307E+03  0.00000000000E+00 0. -1.
         -4    1    6    6    0  503  0.34927247701E+03 -0.19651518440E+03 -0.20433313267E+03  0.44984609590E+03  0.00000000000E+00 0.  1.
<mgrwt>
<rscale>  0 0.23100533E+04</rscale>
<asrwt>0</asrwt>
<pdfrwt beam="1">  1        2 0.19654185E+00 0.23100533E+04</pdfrwt>
<pdfrwt beam="2">  1       -1 0.16065797E+00 0.23100533E+04</pdfrwt>
<totfact> 0.50827511E+00</totfact>
</mgrwt>
</event>
<event>
12    6  0.1627636E-007  0.1856225E+04  0.7818608E-02  0.8676958E-01
         -1   -1    0    0    0  501 -0.00000000000E+00  0.00000000000E+00  0.54519060086E+03  0.54519060086E+03  0.00000000000E+00 0.  1.
          2   -1    0    0  501    0  0.00000000000E+00 -0.00000000000E+00 -0.15799839662E+04  0.15799839662E+04  0.00000000000E+00 0. -1.
         24    2    1    2    0    0  0.44495912574E+03 -0.53961110870E+03 -0.26107961333E+03  0.75082520482E+03  0.80044684277E+02 0.  0.
        254    2    1    2    0    0 -0.44495912574E+03  0.53961110870E+03 -0.77371375199E+03  0.13743493622E+04  0.89500526659E+03 0.  0.
         23    2    4    4    0    0 -0.80106582402E+02 -0.17439567853E+03  0.55725753556E+02  0.21741704544E+03  0.85638162082E+02 0.  0.
         23    2    4    4    0    0 -0.36485254334E+03  0.71400678723E+03 -0.82943950555E+03  0.11569323168E+04  0.87174661840E+02 0.  0.
          2    1    3    3  502    0  0.62441246010E+02 -0.46160702139E+02 -0.47128821191E+02  0.90834164344E+02  0.00000000000E+00 0. -1.
         -1    1    3    3    0  502  0.38251787973E+03 -0.49345040656E+03 -0.21395079214E+03  0.65999104048E+03  0.00000000000E+00 0.  1.
         11    1    5    5    0    0 -0.53815662600E+02 -0.15776541910E+03  0.16724470069E+02  0.16752838835E+03  0.00000000000E+00 0. -1.
        -11    1    5    5    0    0 -0.26290919802E+02 -0.16630259436E+02  0.39001283488E+02  0.49888657094E+02  0.00000000000E+00 0.  1.
          3    1    6    6  503    0 -0.57421595912E+01  0.10110847778E+02 -0.41849696064E+00  0.11635152739E+02  0.00000000000E+00 0. -1.
         -3    1    6    6    0  503 -0.35911038375E+03  0.70389593945E+03 -0.82902100859E+03  0.11452971640E+04  0.00000000000E+00 0.  1.
<mgrwt>
<rscale>  0 0.18562246E+04</rscale>
<asrwt>0</asrwt>
<pdfrwt beam="1">  1        2 0.24307446E+00 0.18562246E+04</pdfrwt>
<pdfrwt beam="2">  1       -1 0.83875477E-01 0.18562246E+04</pdfrwt>
<totfact> 0.17266640E+01</totfact>
</mgrwt>
</event>
<event>
12    6  0.1627636E-007  0.1635781E+04  0.7818608E-02  0.8798863E-01
          2   -1    0    0  501    0  0.00000000000E+00  0.00000000000E+00  0.27410580485E+04  0.27410580485E+04  0.00000000000E+00 0. -1.
         -1   -1    0    0    0  501 -0.00000000000E+00 -0.00000000000E+00 -0.24404623127E+03  0.24404623127E+03  0.00000000000E+00 0.  1.
         24    2    1    2    0    0 -0.42666459507E+03  0.36730051653E+03  0.81733085756E+03  0.99566842721E+03  0.79834454321E+02 0.  0.
        254    2    1    2    0    0  0.42666459507E+03 -0.36730051653E+03  0.16796809597E+04  0.19894358525E+04  0.90530356180E+03 0.  0.
         23    2    4    4    0    0  0.21010518674E+03 -0.61988819505E+03  0.13920729599E+04  0.15404720298E+04  0.82349165598E+02 0.  0.
         23    2    4    4    0    0  0.21655940834E+03  0.25258767851E+03  0.28760799978E+03  0.44896382276E+03  0.90286432708E+02 0.  0.
          4    1    3    3  502    0 -0.64789542015E+02  0.43017283818E+02  0.72318357792E+02  0.10619847614E+03  0.00000000000E+00 0. -1.
         -3    1    3    3    0  502 -0.36187505306E+03  0.32428323271E+03  0.74501249977E+03  0.88946995107E+03  0.00000000000E+00 0.  1.
         11    1    5    5    0    0  0.99425701326E+02 -0.20994616713E+03  0.42655101466E+03  0.48570426319E+03  0.00000000000E+00 0. -1.
        -11    1    5    5    0    0  0.11067948541E+03 -0.40994202792E+03  0.96552194522E+03  0.10547677666E+04  0.00000000000E+00 0.  1.
          3    1    6    6  503    0  0.32285934940E+02  0.10111927821E+03  0.84655917953E+02  0.13577228902E+03  0.00000000000E+00 0. -1.
         -3    1    6    6    0  503  0.18427347340E+03  0.15146840031E+03  0.20295208183E+03  0.31319153374E+03  0.00000000000E+00 0.  1.
<mgrwt>
<rscale>  0 0.16357810E+04</rscale>
<asrwt>0</asrwt>
<pdfrwt beam="1">  1        2 0.42170122E+00 0.16357810E+04</pdfrwt>
<pdfrwt beam="2">  1       -1 0.37545576E-01 0.16357810E+04</pdfrwt>
<totfact> 0.18746784E+01</totfact>
</mgrwt>
</event>
<event>
12    6  0.1627636E-007  0.1400396E+04  0.7818608E-02  0.8953532E-01
          2   -1    0    0  501    0  0.00000000000E+00  0.00000000000E+00  0.44144012671E+03  0.44144012671E+03  0.00000000000E+00 0. -1.
         -1   -1    0    0    0  501 -0.00000000000E+00 -0.00000000000E+00 -0.11106316620E+04  0.11106316620E+04  0.00000000000E+00 0.  1.
         24    2    1    2    0    0  0.18876305567E+03  0.25168046678E+03  0.78169826141E+02  0.33338413991E+03  0.77845452545E+02 0.  0.
        254    2    1    2    0    0 -0.18876305567E+03 -0.25168046678E+03 -0.74736136143E+03  0.12186876488E+04  0.90976702085E+03 0.  0.
         23    2    4    4    0    0 -0.50866119911E+03 -0.32290438759E+03 -0.57267413383E+03  0.83623408740E+03  0.91259664542E+02 0.  0.
         23    2    4    4    0    0  0.31989814344E+03  0.71223920803E+02 -0.17468722760E+03  0.38245356140E+03  0.91364271298E+02 0.  0.
          2    1    3    3  502    0  0.11482715093E+03  0.91591492379E+02  0.47701724341E+02  0.15443357981E+03  0.00000000000E+00 0. -1.
         -1    1    3    3    0  502  0.73935904737E+02  0.16008897440E+03  0.30468101800E+02  0.17895056011E+03  0.00000000000E+00 0.  1.
         11    1    5    5    0    0 -0.17547047790E+03 -0.16372220801E+03 -0.21756682689E+03  0.32392927341E+03  0.00000000000E+00 0.  1.
        -11    1    5    5    0    0 -0.33319072120E+03 -0.15918217957E+03 -0.35510730693E+03  0.51230481398E+03  0.00000000000E+00 0. -1.
          2    1    6    6  503    0  0.12923042495E+03 -0.16535138641E+02 -0.63746244572E+02  0.14504308753E+03  0.00000000000E+00 0. -1.
         -2    1    6    6    0  503  0.19066771849E+03  0.87759059445E+02 -0.11094098303E+03  0.23741047387E+03  0.00000000000E+00 0.  1.
<mgrwt>
<rscale>  0 0.14003962E+04</rscale>
<asrwt>0</asrwt>
<pdfrwt beam="1">  1        2 0.67913866E-01 0.14003962E+04</pdfrwt>
<pdfrwt beam="2">  1       -1 0.17086641E+00 0.14003962E+04</pdfrwt>
<totfact> 0.19190640E+01</totfact>
</mgrwt>
</event>
<event>
12    6  0.1627636E-007  0.1481453E+04  0.7818608E-02  0.8896881E-01
          2   -1    0    0  501    0  0.00000000000E+00  0.00000000000E+00  0.11624987700E+04  0.11624987700E+04  0.00000000000E+00 0. -1.
         -1   -1    0    0    0  501 -0.00000000000E+00 -0.00000000000E+00 -0.47197963905E+03  0.47197963905E+03  0.00000000000E+00 0.  1.
         24    2    1    2    0    0  0.12568338989E+03 -0.38381159243E+03 -0.30317062442E+02  0.41282438201E+03  0.79982455118E+02 0.  0.
        254    2    1    2    0    0 -0.12568338989E+03  0.38381159243E+03  0.72083619343E+03  0.12216540271E+04  0.89984781554E+03 0.  0.
         23    2    4    4    0    0 -0.21597250506E+02  0.20516039765E+02  0.81585725803E+03  0.82138132321E+03  0.90315355983E+02 0.  0.
         23    2    4    4    0    0 -0.10408613939E+03  0.36329555266E+03 -0.95021064601E+02  0.40027270386E+03  0.91496730750E+02 0.  0.
          2    1    3    3  502    0  0.75897656404E+01 -0.29951074789E+02 -0.24992421444E+02  0.39740313954E+02  0.00000000000E+00 0. -1.
         -1    1    3    3    0  502  0.11809362425E+03 -0.35386051764E+03 -0.53246409976E+01  0.37308406805E+03  0.00000000000E+00 0.  1.
         11    1    5    5    0    0  0.15965941190E+02 -0.19757363335E+02  0.92313428205E+02  0.95744627583E+02  0.00000000000E+00 0. -1.
        -11    1    5    5    0    0 -0.37563191695E+02  0.40273403100E+02  0.72354382982E+03  0.72563669563E+03  0.00000000000E+00 0.  1.
          2    1    6    6  503    0 -0.10374843574E+03  0.25659121295E+03 -0.97767740551E+02  0.29353248470E+03  0.00000000000E+00 0.  1.
         -2    1    6    6    0  503 -0.33770365324E+00  0.10670433972E+03  0.27466759494E+01  0.10674021916E+03  0.00000000000E+00 0. -1.
<mgrwt>
<rscale>  0 0.14814530E+04</rscale>
<asrwt>0</asrwt>
<pdfrwt beam="1">  1        2 0.17884596E+00 0.14814530E+04</pdfrwt>
<pdfrwt beam="2">  1       -1 0.72612252E-01 0.14814530E+04</pdfrwt>
<totfact> 0.42109151E+01</totfact>
</mgrwt>
</event>
<event>
12    6  0.1627636E-007  0.2223953E+04  0.7818608E-02  0.8508524E-01
          2   -1    0    0  501    0  0.00000000000E+00  0.00000000000E+00  0.13668542622E+04  0.13668542622E+04  0.00000000000E+00 0. -1.
         -1   -1    0    0    0  501 -0.00000000000E+00 -0.00000000000E+00 -0.90462589494E+03  0.90462589494E+03  0.00000000000E+00 0.  1.
         24    2    1    2    0    0 -0.83786985074E+03 -0.93631363111E+02 -0.19578577254E+03  0.86916805645E+03  0.79550755400E+02 0.  0.
        254    2    1    2    0    0  0.83786985074E+03  0.93631363111E+02  0.65801413980E+03  0.14023121007E+04  0.90703026444E+03 0.  0.
         23    2    4    4    0    0  0.83267882438E+03 -0.50922384667E+02  0.13228708658E+03  0.84958738997E+03  0.91387888110E+02 0.  0.
         23    2    4    4    0    0  0.51910263614E+01  0.14455374778E+03  0.52572705322E+03  0.55272471072E+03  0.90514852914E+02 0.  0.
          4    1    3    3  502    0 -0.53482532583E+03 -0.37693912411E+02 -0.91942761950E+02  0.54397833749E+03  0.00000000000E+00 0. -1.
         -3    1    3    3    0  502 -0.30304452491E+03 -0.55937450700E+02 -0.10384301059E+03  0.32518971896E+03  0.00000000000E+00 0.  1.
         11    1    5    5    0    0  0.37652153103E+03 -0.65260500232E+02  0.77664561449E+02  0.38994766357E+03  0.00000000000E+00 0.  1.
        -11    1    5    5    0    0  0.45615729335E+03  0.14338115566E+02  0.54622525136E+02  0.45963972640E+03  0.00000000000E+00 0. -1.
          1    1    6    6  503    0 -0.15765540172E+02  0.11346829383E+03  0.48056054095E+03  0.49402635505E+03  0.00000000000E+00 0. -1.
         -1    1    6    6    0  503  0.20956566534E+02  0.31085453942E+02  0.45166512270E+02  0.58698355670E+02  0.00000000000E+00 0.  1.
<mgrwt>
<rscale>  0 0.22239530E+04</rscale>
<asrwt>0</asrwt>
<pdfrwt beam="1">  1        2 0.21028527E+00 0.22239530E+04</pdfrwt>
<pdfrwt beam="2">  1       -1 0.13917321E+00 0.22239530E+04</pdfrwt>
<totfact> 0.66912900E+00</totfact>
</mgrwt>
</event>
<event>
12    6  0.1627636E-007  0.2436704E+04  0.7818608E-02  0.8425889E-01
          2   -1    0    0  501    0  0.00000000000E+00  0.00000000000E+00  0.14107663555E+04  0.14107663555E+04  0.00000000000E+00 0. -1.
         -1   -1    0    0    0  501 -0.00000000000E+00 -0.00000000000E+00 -0.10521808586E+04  0.10521808586E+04  0.00000000000E+00 0.  1.
         24    2    1    2    0    0  0.10029051047E+04 -0.29737210810E+03  0.22642265591E+03  0.10733128012E+04  0.80525340857E+02 0.  0.
        254    2    1    2    0    0 -0.10029051047E+04  0.29737210810E+03  0.13216284098E+03  0.13896344129E+04  0.90518946379E+03 0.  0.
         23    2    4    4    0    0 -0.39431726765E+03  0.14303318806E+03 -0.38056746724E+03  0.57352801580E+03  0.90322684490E+02 0.  0.
         23    2    4    4    0    0 -0.60858783702E+03  0.15433892004E+03  0.51273030822E+03  0.81610639711E+03  0.94539012241E+02 0.  0.
          2    1    3    3  502    0  0.45707997835E+03 -0.12336111621E+03  0.14173696197E+03  0.49419574866E+03  0.00000000000E+00 0. -1.
         -1    1    3    3    0  502  0.54582512632E+03 -0.17401099189E+03  0.84685693939E+02  0.57911705257E+03  0.00000000000E+00 0.  1.
         11    1    5    5    0    0 -0.29591151248E+03  0.14534626078E+03 -0.30874585559E+03  0.45167816206E+03  0.00000000000E+00 0.  1.
        -11    1    5    5    0    0 -0.98405755170E+02 -0.23130727197E+01 -0.71821611653E+02  0.12184985374E+03  0.00000000000E+00 0. -1.
          3    1    6    6  503    0 -0.19711918013E+03  0.49667216081E+01  0.15750433059E+03  0.25236531785E+03  0.00000000000E+00 0. -1.
         -3    1    6    6    0  503 -0.41146865689E+03  0.14937219844E+03  0.35522597762E+03  0.56374107926E+03  0.00000000000E+00 0.  1.
<mgrwt>
<rscale>  0 0.24367038E+04</rscale>
<asrwt>0</asrwt>
<pdfrwt beam="1">  1        2 0.21704098E+00 0.24367038E+04</pdfrwt>
<pdfrwt beam="2">  1       -1 0.16187398E+00 0.24367038E+04</pdfrwt>
<totfact> 0.41219236E+00</totfact>
</mgrwt>
</event>
<event>
12    6  0.1627636E-007  0.2160662E+04  0.7818608E-02  0.8534982E-01
          2   -1    0    0  501    0  0.00000000000E+00  0.00000000000E+00  0.18231753112E+04  0.18231753112E+04  0.00000000000E+00 0. -1.
         -1   -1    0    0    0  501 -0.00000000000E+00 -0.00000000000E+00 -0.64015491406E+03  0.64015491406E+03  0.00000000000E+00 0.  1.
         24    2    1    2    0    0 -0.50240487001E+03  0.35055197061E+03  0.12334912253E+04  0.13795365652E+04  0.79518515401E+02 0.  0.
        254    2    1    2    0    0  0.50240487001E+03 -0.35055197061E+03 -0.50470828112E+02  0.10837936601E+04  0.89261641016E+03 0.  0.
         23    2    4    4    0    0 -0.13438758935E+03  0.12318662346E+03  0.15822625734E+03  0.25811986281E+03  0.91407585548E+02 0.  0.
         23    2    4    4    0    0  0.63679245937E+03 -0.47373859407E+03 -0.20869708545E+03  0.82567379730E+03  0.90828708289E+02 0.  0.
          4    1    3    3  502    0 -0.43457567256E+03  0.26700476377E+03  0.10093771561E+04  0.11309243132E+04  0.00000000000E+00 0. -1.
         -3    1    3    3    0  502 -0.67829197454E+02  0.83547206845E+02  0.22411406921E+03  0.24861225195E+03  0.00000000000E+00 0.  1.
         11    1    5    5    0    0 -0.11661457787E+03  0.13776475762E+03  0.13459862440E+03  0.22515523069E+03  0.00000000000E+00 0. -1.
        -11    1    5    5    0    0 -0.17773011483E+02 -0.14578134166E+02  0.23627632941E+02  0.32964632128E+02  0.00000000000E+00 0.  1.
          2    1    6    6  503    0  0.14657513128E+03 -0.15061016597E+03 -0.78009004081E+02  0.22417202306E+03  0.00000000000E+00 0. -1.
         -2    1    6    6    0  503  0.49021732808E+03 -0.32312842809E+03 -0.13068808137E+03  0.60150177424E+03  0.00000000000E+00 0.  1.
<mgrwt>
<rscale>  0 0.21606616E+04</rscale>
<asrwt>0</asrwt>
<pdfrwt beam="1">  1        2 0.28048851E+00 0.21606616E+04</pdfrwt>
<pdfrwt beam="2">  1       -1 0.98485372E-01 0.21606616E+04</pdfrwt>
<totfact> 0.86311947E+00</totfact>
</mgrwt>
</event>
<event>
12    6  0.1627636E-007  0.2182062E+04  0.7818608E-02  0.8525932E-01
          2   -1    0    0  501    0  0.00000000000E+00  0.00000000000E+00  0.22618904635E+04  0.22618904635E+04  0.00000000000E+00 0. -1.
         -1   -1    0    0    0  501 -0.00000000000E+00 -0.00000000000E+00 -0.52626267441E+03  0.52626267441E+03  0.00000000000E+00 0.  1.
         24    2    1    2    0    0  0.59656076682E+03  0.64334757820E+03  0.99560747507E+03  0.13293943458E+04  0.79210021127E+02 0.  0.
        254    2    1    2    0    0 -0.59656076682E+03 -0.64334757820E+03  0.74002031403E+03  0.14587587921E+04  0.90031455248E+03 0.  0.
         23    2    4    4    0    0  0.18808414622E+03 -0.80878543982E+01  0.26877499832E+03  0.34092586788E+03  0.92462901885E+02 0.  0.
         23    2    4    4    0    0 -0.78464491304E+03 -0.63525972380E+03  0.47124531571E+03  0.11178329242E+04  0.90861117086E+02 0.  0.
          4    1    3    3  502    0  0.49466030002E+03  0.57319640649E+03  0.84877479231E+03  0.11373924481E+04  0.00000000000E+00 0. -1.
         -3    1    3    3    0  502  0.10190046681E+03  0.70151171714E+02  0.14683268276E+03  0.19200189779E+03  0.00000000000E+00 0.  1.
         11    1    5    5    0    0  0.16363778559E+03  0.21470258906E+02  0.17995023563E+03  0.24417285720E+03  0.00000000000E+00 0.  1.
        -11    1    5    5    0    0  0.24446360627E+02 -0.29558113304E+02  0.88824762684E+02  0.96753010681E+02  0.00000000000E+00 0. -1.
          2    1    6    6  503    0 -0.72468994499E+03 -0.57893767309E+03  0.40454779089E+03  0.10119304624E+04  0.00000000000E+00 0.  1.
         -2    1    6    6    0  503 -0.59954968051E+02 -0.56322050714E+02  0.66697524817E+02  0.10590246176E+03  0.00000000000E+00 0. -1.
<mgrwt>
<rscale>  0 0.21820619E+04</rscale>
<asrwt>0</asrwt>
<pdfrwt beam="1">  1        2 0.34798314E+00 0.21820619E+04</pdfrwt>
<pdfrwt beam="2">  1       -1 0.80963490E-01 0.21820619E+04</pdfrwt>
<totfact> 0.75471220E+00</totfact>
</mgrwt>
</event>
<event>
12    6  0.1627636E-007  0.1919137E+04  0.7818608E-02  0.8645389E-01
          2   -1    0    0  501    0  0.00000000000E+00  0.00000000000E+00  0.20423662573E+04  0.20423662573E+04  0.00000000000E+00 0. -1.
         -1   -1    0    0    0  501 -0.00000000000E+00 -0.00000000000E+00 -0.45083597083E+03  0.45083597083E+03  0.00000000000E+00 0.  1.
         24    2    1    2    0    0  0.18926997825E+03 -0.48205080640E+03  0.13232520780E+04  0.14231292972E+04  0.78133411978E+02 0.  0.
        254    2    1    2    0    0 -0.18926997825E+03  0.48205080640E+03  0.26827820844E+03  0.10700729309E+04  0.89715482257E+03 0.  0.
         23    2    4    4    0    0  0.18269428853E+00 -0.24281419257E+03  0.16755974508E+03  0.30870462451E+03  0.90903858719E+02 0.  0.
         23    2    4    4    0    0 -0.18945267254E+03  0.72486499896E+03  0.10071846336E+03  0.76136830637E+03  0.90641641843E+02 0.  0.
          4    1    3    3  502    0  0.17019787131E+03 -0.34270682853E+03  0.94086775190E+03  0.10157004540E+04  0.00000000000E+00 0. -1.
         -3    1    3    3    0  502  0.19072106937E+02 -0.13934397786E+03  0.38238432609E+03  0.40742884319E+03  0.00000000000E+00 0.  1.
         11    1    5    5    0    0 -0.14061929854E+02 -0.24233742135E+03  0.14732387358E+03  0.28395331902E+03  0.00000000000E+00 0. -1.
        -11    1    5    5    0    0  0.14244624143E+02 -0.47677122186E+00  0.20235871506E+02  0.24751305488E+02  0.00000000000E+00 0.  1.
          2    1    6    6  503    0 -0.93826960942E+02  0.41261919274E+03  0.99995443923E+02  0.43480706713E+03  0.00000000000E+00 0. -1.
         -2    1    6    6    0  503 -0.95625711595E+02  0.31224580622E+03  0.72301943285E+00  0.32656123924E+03  0.00000000000E+00 0.  1.
<mgrwt>
<rscale>  0 0.19191375E+04</rscale>
<asrwt>0</asrwt>
<pdfrwt beam="1">  1        2 0.31421019E+00 0.19191375E+04</pdfrwt>
<pdfrwt beam="2">  1       -1 0.69359382E-01 0.19191375E+04</pdfrwt>
<totfact> 0.14166487E+01</totfact>
</mgrwt>
</event>
<event>
12    6  0.1627636E-007  0.1774665E+04  0.7818608E-02  0.8719889E-01
          2   -1    0    0  501    0  0.00000000000E+00  0.00000000000E+00  0.11338460345E+04  0.11338460345E+04  0.00000000000E+00 0. -1.
         -1   -1    0    0    0  501 -0.00000000000E+00 -0.00000000000E+00 -0.69441467831E+03  0.69441467831E+03  0.00000000000E+00 0.  1.
         24    2    1    2    0    0 -0.59613699779E+03 -0.25072655065E+03  0.31555238704E+02  0.65242330110E+03  0.80108098137E+02 0.  0.
        254    2    1    2    0    0  0.59613699779E+03  0.25072655065E+03  0.40787611749E+03  0.11758374117E+04  0.89330149905E+03 0.  0.
         23    2    4    4    0    0 -0.10682596786E+03 -0.21309606377E+03  0.10889948395E+03  0.27745643637E+03  0.91111232397E+02 0.  0.
         23    2    4    4    0    0  0.70296296566E+03  0.46382261443E+03  0.29897663353E+03  0.89838097534E+03  0.91722411176E+02 0.  0.
          4    1    3    3  502    0 -0.40111364447E+02 -0.39136059512E+02  0.11211820259E+02  0.57151182188E+02  0.00000000000E+00 0. -1.
         -3    1    3    3    0  502 -0.55602563335E+03 -0.21159049114E+03  0.20343418446E+02  0.59527211891E+03  0.00000000000E+00 0.  1.
         11    1    5    5    0    0 -0.11296915822E+03 -0.15791891273E+03  0.59326994772E+02  0.20302735288E+03  0.00000000000E+00 0. -1.
        -11    1    5    5    0    0  0.61431903598E+01 -0.55177151043E+02  0.49572489183E+02  0.74429083488E+02  0.00000000000E+00 0.  1.
          3    1    6    6  503    0  0.46227593244E+03  0.26943311404E+03  0.15447624598E+03  0.55691664657E+03  0.00000000000E+00 0. -1.
         -3    1    6    6    0  503  0.24068703322E+03  0.19438950038E+03  0.14450038755E+03  0.34146432877E+03  0.00000000000E+00 0.  1.
<mgrwt>
<rscale>  0 0.17746654E+04</rscale>
<asrwt>0</asrwt>
<pdfrwt beam="1">  1        2 0.17443785E+00 0.17746654E+04</pdfrwt>
<pdfrwt beam="2">  1       -1 0.10683303E+00 0.17746654E+04</pdfrwt>
<totfact> 0.18320337E+01</totfact>
</mgrwt>
</event>
<event>
12    6  0.1627636E-007  0.2561228E+04  0.7818608E-02  0.8381492E-01
         -1   -1    0    0    0  501 -0.00000000000E+00  0.00000000000E+00  0.15154297892E+04  0.15154297892E+04  0.00000000000E+00 0.  1.
          2   -1    0    0  501    0  0.00000000000E+00 -0.00000000000E+00 -0.10821825460E+04  0.10821825460E+04  0.00000000000E+00 0. -1.
         24    2    1    2    0    0  0.81274212333E+03 -0.37221301727E+02 -0.58692067612E+03  0.10063079504E+04  0.79022949976E+02 0.  0.
        254    2    1    2    0    0 -0.81274212333E+03  0.37221301727E+02  0.10201679192E+04  0.15913043848E+04  0.91080836477E+03 0.  0.
         23    2    4    4    0    0  0.18657377406E+03  0.11042958710E+02  0.10149813325E+03  0.23038178862E+03  0.88556069068E+02 0.  0.
         23    2    4    4    0    0 -0.99931589739E+03  0.26178343017E+02  0.91866978600E+03  0.13609225962E+04  0.94013662432E+02 0.  0.
          2    1    3    3  502    0  0.72740522195E+03 -0.91943605056E+01 -0.52812143670E+03  0.89895224850E+03  0.00000000000E+00 0. -1.
         -1    1    3    3    0  502  0.85336901377E+02 -0.28026941221E+02 -0.58799239423E+02  0.10735570189E+03  0.00000000000E+00 0.  1.
         11    1    5    5    0    0  0.17998821207E+03  0.15449083477E+02  0.63375173466E+02  0.19144409961E+03  0.00000000000E+00 0. -1.
        -11    1    5    5    0    0  0.65855619888E+01 -0.44061247671E+01  0.38122959785E+02  0.38937689004E+02  0.00000000000E+00 0.  1.
          4    1    6    6  503    0 -0.21118751530E+02  0.23736466453E+01  0.42372359574E+02  0.47403087667E+02  0.00000000000E+00 0.  1.
         -4    1    6    6    0  503 -0.97819714586E+03  0.23804696371E+02  0.87629742642E+03  0.13135195085E+04  0.00000000000E+00 0. -1.
<mgrwt>
<rscale>  0 0.25612276E+04</rscale>
<asrwt>0</asrwt>
<pdfrwt beam="1">  1        2 0.16648962E+00 0.25612276E+04</pdfrwt>
<pdfrwt beam="2">  1       -1 0.23314304E+00 0.25612276E+04</pdfrwt>
<totfact> 0.20337203E+00</totfact>
</mgrwt>
</event>
<event>
12    6  0.1627636E-007  0.2104216E+04  0.7818608E-02  0.8559389E-01
         -1   -1    0    0    0  501 -0.00000000000E+00  0.00000000000E+00  0.93082195665E+03  0.93082195665E+03  0.00000000000E+00 0.  1.
          2   -1    0    0  501    0  0.00000000000E+00 -0.00000000000E+00 -0.11891974747E+04  0.11891974747E+04  0.00000000000E+00 0. -1.
         24    2    1    2    0    0 -0.62945351202E+03  0.26458917027E+02  0.46701074292E+03  0.78817516066E+03  0.78798805778E+02 0.  0.
        254    2    1    2    0    0  0.62945351202E+03 -0.26458917027E+02 -0.72538626099E+03  0.13318442707E+04  0.92234057468E+03 0.  0.
         23    2    4    4    0    0  0.78014653114E+03 -0.12072173610E+03 -0.79129400455E+03  0.11216164272E+04  0.93138931400E+02 0.  0.
         23    2    4    4    0    0 -0.15069301912E+03  0.94262819070E+02  0.65907743557E+02  0.21022784350E+03  0.90873816090E+02 0.  0.
          4    1    3    3  502    0 -0.36577634062E+02 -0.80766980789E+01  0.50145911800E+02  0.62592082851E+02  0.00000000000E+00 0. -1.
         -3    1    3    3    0  502 -0.59287587796E+03  0.34535615106E+02  0.41686483112E+03  0.72558307781E+03  0.00000000000E+00 0.  1.
         11    1    5    5    0    0  0.56352975944E+03 -0.80492404738E+02 -0.50986007964E+03  0.76420031262E+03  0.00000000000E+00 0. -1.
        -11    1    5    5    0    0  0.21661677170E+03 -0.40229331359E+02 -0.28143392490E+03  0.35741611459E+03  0.00000000000E+00 0.  1.
          4    1    6    6  503    0 -0.16024152452E+03  0.87425040781E+02  0.47883332413E+02  0.18871485755E+03  0.00000000000E+00 0. -1.
         -4    1    6    6    0  503  0.95485054030E+01  0.68377782892E+01  0.18024411144E+02  0.21512985949E+02  0.00000000000E+00 0.  1.
<mgrwt>
<rscale>  0 0.21042159E+04</rscale>
<asrwt>0</asrwt>
<pdfrwt beam="1">  1        2 0.18295346E+00 0.21042159E+04</pdfrwt>
<pdfrwt beam="2">  1       -1 0.14320338E+00 0.21042159E+04</pdfrwt>
<totfact> 0.79751130E+00</totfact>
</mgrwt>
</event>
<event>
12    6  0.1627636E-007  0.2224991E+04  0.7818608E-02  0.8508098E-01
         -1   -1    0    0    0  501 -0.00000000000E+00  0.00000000000E+00  0.47441635989E+03  0.47441635989E+03  0.00000000000E+00 0.  1.
          2   -1    0    0  501    0  0.00000000000E+00 -0.00000000000E+00 -0.26087766743E+04  0.26087766743E+04  0.00000000000E+00 0. -1.
         24    2    1    2    0    0  0.87424053862E+03  0.28873125712E+03 -0.71148206739E+03  0.11663909392E+04  0.81233198943E+02 0.  0.
        254    2    1    2    0    0 -0.87424053862E+03 -0.28873125712E+03 -0.14228782470E+04  0.19168020950E+04  0.89548060130E+03 0.  0.
         23    2    4    4    0    0  0.54096894249E+02  0.10273596881E+03 -0.58383043980E+03  0.60203147461E+03  0.90015336071E+02 0.  0.
         23    2    4    4    0    0 -0.92833743287E+03 -0.39146722593E+03 -0.83904780719E+03  0.13147706204E+04  0.97793574276E+02 0.  0.
          4    1    3    3  502    0  0.59000001848E+03  0.17475914327E+03 -0.51623242394E+03  0.80320401859E+03  0.00000000000E+00 0. -1.
         -3    1    3    3    0  502  0.28424052015E+03  0.11397211385E+03 -0.19524964345E+03  0.36318692060E+03  0.00000000000E+00 0.  1.
         11    1    5    5    0    0 -0.10116733545E+02  0.59035791131E+02 -0.36370925215E+03  0.36860818362E+03  0.00000000000E+00 0. -1.
        -11    1    5    5    0    0  0.64213627794E+02  0.43700177677E+02 -0.22012118765E+03  0.23342329099E+03  0.00000000000E+00 0.  1.
          4    1    6    6  503    0 -0.61027938401E+03 -0.23633961301E+03 -0.59879899252E+03  0.88704992682E+03  0.00000000000E+00 0. -1.
         -4    1    6    6    0  503 -0.31805804886E+03 -0.15512761292E+03 -0.24024881467E+03  0.42772069354E+03  0.00000000000E+00 0.  1.
<mgrwt>
<rscale>  0 0.22249911E+04</rscale>
<asrwt>0</asrwt>
<pdfrwt beam="1">  1        2 0.40135026E+00 0.22249911E+04</pdfrwt>
<pdfrwt beam="2">  1       -1 0.72987132E-01 0.22249911E+04</pdfrwt>
<totfact> 0.59080250E+00</totfact>
</mgrwt>
</event>
<event>
12    6  0.1627636E-007  0.2436069E+04  0.7818608E-02  0.8426122E-01
          2   -1    0    0  501    0  0.00000000000E+00  0.00000000000E+00  0.12218698634E+04  0.12218698634E+04  0.00000000000E+00 0. -1.
         -1   -1    0    0    0  501 -0.00000000000E+00 -0.00000000000E+00 -0.12142111523E+04  0.12142111523E+04  0.00000000000E+00 0.  1.
         24    2    1    2    0    0 -0.70975852947E+03 -0.59324282089E+03 -0.49283577431E+03  0.10508016103E+04  0.74851246962E+02 0.  0.
        254    2    1    2    0    0  0.70975852947E+03  0.59324282089E+03  0.50049448543E+03  0.13852794053E+04  0.90155980732E+03 0.  0.
         23    2    4    4    0    0  0.27751832773E+03  0.52478382292E+03 -0.12830724461E+03  0.61368183121E+03  0.87909942108E+02 0.  0.
         23    2    4    4    0    0  0.43224020174E+03  0.68458997975E+02  0.62880173003E+03  0.77159757411E+03  0.91940058069E+02 0.  0.
          4    1    3    3  502    0 -0.23611256972E+03 -0.24115944103E+03 -0.16474878575E+03  0.37556515278E+03  0.00000000000E+00 0. -1.
         -3    1    3    3    0  502 -0.47364595975E+03 -0.35208337986E+03 -0.32808698857E+03  0.67523645757E+03  0.00000000000E+00 0.  1.
         11    1    5    5    0    0  0.13362266449E+02  0.34924911132E+02  0.12808993966E+02  0.39526825178E+02  0.00000000000E+00 0. -1.
        -11    1    5    5    0    0  0.26415606128E+03  0.48985891178E+03 -0.14111623857E+03  0.57415500603E+03  0.00000000000E+00 0.  1.
          3    1    6    6  503    0  0.35476094666E+02  0.33458434513E+02  0.74084541031E+02  0.88693513588E+02  0.00000000000E+00 0. -1.
         -3    1    6    6    0  503  0.39676410707E+03  0.35000563463E+02  0.55471718900E+03  0.68290406052E+03  0.00000000000E+00 0.  1.
<mgrwt>
<rscale>  0 0.24360690E+04</rscale>
<asrwt>0</asrwt>
<pdfrwt beam="1">  1        2 0.18797998E+00 0.24360690E+04</pdfrwt>
<pdfrwt beam="2">  1       -1 0.18680172E+00 0.24360690E+04</pdfrwt>
<totfact> 0.34955922E+00</totfact>
</mgrwt>
</event>
<event>
12    6  0.1627636E-007  0.1265849E+04  0.7818608E-02  0.9057095E-01
          2   -1    0    0  501    0  0.00000000000E+00  0.00000000000E+00  0.14162997633E+04  0.14162997633E+04  0.00000000000E+00 0. -1.
         -1   -1    0    0    0  501 -0.00000000000E+00 -0.00000000000E+00 -0.28284493157E+03  0.28284493157E+03  0.00000000000E+00 0.  1.
         24    2    1    2    0    0 -0.13412866006E+03 -0.13245018972E+03 -0.41887730600E+02  0.20873394754E+03  0.79257357231E+02 0.  0.
        254    2    1    2    0    0  0.13412866006E+03  0.13245018972E+03  0.11753425623E+04  0.14904107473E+04  0.89686147575E+03 0.  0.
         23    2    4    4    0    0  0.38778015612E+03 -0.22932004023E+03  0.51142210154E+03  0.68813466728E+03  0.94950639975E+02 0.  0.
         23    2    4    4    0    0 -0.25365149605E+03  0.36177022995E+03  0.66392046078E+03  0.80227608003E+03  0.87405661255E+02 0.  0.
          2    1    3    3  502    0 -0.49266778603E+02 -0.98600748237E+02 -0.40288582506E+02  0.11735626488E+03  0.00000000000E+00 0. -1.
         -3    1    3    3    0  502 -0.84861881462E+02 -0.33849441480E+02 -0.15991480940E+01  0.91377682660E+02  0.00000000000E+00 0.  1.
         11    1    5    5    0    0  0.21274678950E+03 -0.16544429661E+03  0.34906244144E+03  0.44099614482E+03  0.00000000000E+00 0.  1.
        -11    1    5    5    0    0  0.17503336662E+03 -0.63875743620E+02  0.16235966010E+03  0.24713852246E+03  0.00000000000E+00 0. -1.
          1    1    6    6  503    0 -0.15266581308E+03  0.18337647929E+03  0.42558037396E+03  0.48790617781E+03  0.00000000000E+00 0. -1.
         -1    1    6    6    0  503 -0.10098568298E+03  0.17839375066E+03  0.23834008681E+03  0.31436990222E+03  0.00000000000E+00 0.  1.
<mgrwt>
<rscale>  0 0.12658487E+04</rscale>
<asrwt>0</asrwt>
<pdfrwt beam="1">  1        2 0.21789227E+00 0.12658487E+04</pdfrwt>
<pdfrwt beam="2">  1       -1 0.43514606E-01 0.12658487E+04</pdfrwt>
<totfact> 0.82642855E+01</totfact>
</mgrwt>
</event>
<event>
12    6  0.1627636E-007  0.2113457E+04  0.7818608E-02  0.8555338E-01
          2   -1    0    0  501    0  0.00000000000E+00  0.00000000000E+00  0.11741131522E+04  0.11741131522E+04  0.00000000000E+00 0. -1.
         -1   -1    0    0    0  501 -0.00000000000E+00 -0.00000000000E+00 -0.95107982948E+03  0.95107982948E+03  0.00000000000E+00 0.  1.
         24    2    1    2    0    0 -0.77633267743E+02 -0.48923648787E+03 -0.61741624826E+03  0.79589341133E+03  0.82850668391E+02 0.  0.
        254    2    1    2    0    0  0.77633267743E+02  0.48923648787E+03  0.84044957095E+03  0.13292995703E+04  0.90294108391E+03 0.  0.
         23    2    4    4    0    0 -0.22415752494E+03 -0.15876737647E+03  0.12906559650E+03  0.31677800110E+03  0.90756255768E+02 0.  0.
         23    2    4    4    0    0  0.30179079268E+03  0.64800386433E+03  0.71138397444E+03  0.10125215692E+04  0.90255627533E+02 0.  0.
          2    1    3    3  502    0 -0.61177975670E+02 -0.17183067646E+03 -0.19154614726E+03  0.26449660227E+03  0.00000000000E+00 0. -1.
         -1    1    3    3    0  502 -0.16455292073E+02 -0.31740581140E+03 -0.42587010100E+03  0.53139680905E+03  0.00000000000E+00 0.  1.
         11    1    5    5    0    0 -0.88035762251E+02 -0.55108223422E+02  0.23872624488E+01  0.10388893467E+03  0.00000000000E+00 0.  1.
        -11    1    5    5    0    0 -0.13612176269E+03 -0.10365915304E+03  0.12667833405E+03  0.21288906643E+03  0.00000000000E+00 0. -1.
          2    1    6    6  503    0  0.21143667250E+03  0.51526471134E+03  0.51217383122E+03  0.75665396491E+03  0.00000000000E+00 0. -1.
         -2    1    6    6    0  503  0.90354120180E+02  0.13273915299E+03  0.19921014322E+03  0.25586760431E+03  0.00000000000E+00 0.  1.
<mgrwt>
<rscale>  0 0.21134572E+04</rscale>
<asrwt>0</asrwt>
<pdfrwt beam="1">  1        2 0.18063279E+00 0.21134572E+04</pdfrwt>
<pdfrwt beam="2">  1       -1 0.14631997E+00 0.21134572E+04</pdfrwt>
<totfact> 0.76850349E+00</totfact>
</mgrwt>
</event>
<event>
12    6  0.1627636E-007  0.1720350E+04  0.7818608E-02  0.8749842E-01
         -1   -1    0    0    0  501 -0.00000000000E+00  0.00000000000E+00  0.12610154715E+04  0.12610154715E+04  0.00000000000E+00 0.  1.
          2   -1    0    0  501    0  0.00000000000E+00 -0.00000000000E+00 -0.58675036390E+03  0.58675036390E+03  0.00000000000E+00 0. -1.
         24    2    1    2    0    0 -0.47696535246E+03 -0.12081194905E+03 -0.16296287670E+03  0.52433724029E+03  0.79253819387E+02 0.  0.
        254    2    1    2    0    0  0.47696535246E+03  0.12081194905E+03  0.83722798427E+03  0.13234285951E+04  0.89912239109E+03 0.  0.
         23    2    4    4    0    0  0.12613662183E+03 -0.32278421072E+03  0.60926438875E+03  0.70703562785E+03  0.92715638319E+02 0.  0.
         23    2    4    4    0    0  0.35082873063E+03  0.44359615977E+03  0.22796359552E+03  0.61639296723E+03  0.90080730328E+02 0.  0.
          2    1    3    3  502    0 -0.40011816865E+03 -0.89626057457E+02 -0.16342671251E+03  0.44140193636E+03  0.00000000000E+00 0. -1.
         -1    1    3    3    0  502 -0.76847183814E+02 -0.31185891591E+02  0.46383580846E+00  0.82935303930E+02  0.00000000000E+00 0.  1.
         11    1    5    5    0    0 -0.96635558688E+01 -0.58041755772E+02  0.13350193727E+03  0.14589378664E+03  0.00000000000E+00 0. -1.
        -11    1    5    5    0    0  0.13580017770E+03 -0.26474245495E+03  0.47576245148E+03  0.56114184121E+03  0.00000000000E+00 0.  1.
          3    1    6    6  503    0  0.19912864204E+03  0.20981206000E+03  0.76521232035E+02  0.29921366204E+03  0.00000000000E+00 0. -1.
         -3    1    6    6    0  503  0.15170008859E+03  0.23378409977E+03  0.15144236348E+03  0.31717930519E+03  0.00000000000E+00 0.  1.
<mgrwt>
<rscale>  0 0.17203503E+04</rscale>
<asrwt>0</asrwt>
<pdfrwt beam="1">  1        2 0.90269287E-01 0.17203503E+04</pdfrwt>
<pdfrwt beam="2">  1       -1 0.19400238E+00 0.17203503E+04</pdfrwt>
<totfact> 0.91594791E+00</totfact>
</mgrwt>
</event>
<event>
12    6  0.1627636E-007  0.1928416E+04  0.7818608E-02  0.8640840E-01
          2   -1    0    0  501    0  0.00000000000E+00  0.00000000000E+00  0.35589504627E+04  0.35589504627E+04  0.00000000000E+00 0. -1.
         -1   -1    0    0    0  501 -0.00000000000E+00 -0.00000000000E+00 -0.26122786899E+03  0.26122786899E+03  0.00000000000E+00 0.  1.
         24    2    1    2    0    0  0.63095638024E+03 -0.25086311271E+03  0.64856386486E+03  0.94243871479E+03  0.80730349063E+02 0.  0.
        254    2    1    2    0    0 -0.63095638024E+03  0.25086311271E+03  0.26491587289E+04  0.28777396169E+04  0.89571484133E+03 0.  0.
         23    2    4    4    0    0 -0.71895937686E+03  0.38879971236E+03  0.25198307828E+04  0.26506454332E+04  0.91138558252E+02 0.  0.
         23    2    4    4    0    0  0.88002996621E+02 -0.13793659966E+03  0.12932794607E+03  0.22709418371E+03  0.89861102258E+02 0.  0.
          2    1    3    3  502    0  0.54260293901E+02 -0.38610679452E+00  0.64318603315E+02  0.84149933482E+02  0.00000000000E+00 0. -1.
         -1    1    3    3    0  502  0.57669608634E+03 -0.25047700591E+03  0.58424526154E+03  0.85828878131E+03  0.00000000000E+00 0.  1.
         11    1    5    5    0    0 -0.11622117435E+03  0.58314704391E+02  0.51845618634E+03  0.53451359503E+03  0.00000000000E+00 0.  1.
        -11    1    5    5    0    0 -0.60273820251E+03  0.33048500797E+03  0.20013745965E+04  0.21161318382E+04  0.00000000000E+00 0. -1.
          4    1    6    6  503    0  0.59458541892E+02 -0.12970592137E+03  0.13547808493E+03  0.19675684419E+03  0.00000000000E+00 0. -1.
         -4    1    6    6    0  503  0.28544454729E+02 -0.82306782880E+01 -0.61501388518E+01  0.30337339514E+02  0.00000000000E+00 0.  1.
<mgrwt>
<rscale>  0 0.19284160E+04</rscale>
<asrwt>0</asrwt>
<pdfrwt beam="1">  1        2 0.54753081E+00 0.19284160E+04</pdfrwt>
<pdfrwt beam="2">  1       -1 0.40188905E-01 0.19284160E+04</pdfrwt>
<totfact> 0.47779617E+00</totfact>
</mgrwt>
</event>
<event>
12    6  0.1627636E-007  0.2127696E+04  0.7818608E-02  0.8549140E-01
         -1   -1    0    0    0  501 -0.00000000000E+00  0.00000000000E+00  0.73205311140E+03  0.73205311140E+03  0.00000000000E+00 0.  1.
          2   -1    0    0  501    0  0.00000000000E+00 -0.00000000000E+00 -0.15460251197E+04  0.15460251197E+04  0.00000000000E+00 0. -1.
         24    2    1    2    0    0  0.20619781944E+03  0.55995109492E+03  0.33293495206E+03  0.68805258419E+03  0.80671598887E+02 0.  0.
        254    2    1    2    0    0 -0.20619781944E+03 -0.55995109492E+03 -0.11469069604E+04  0.15900256469E+04  0.92559343810E+03 0.  0.
         23    2    4    4    0    0 -0.49024304500E+02 -0.75366673056E+03 -0.55593631553E+03  0.94214517682E+03  0.90307386633E+02 0.  0.
         23    2    4    4    0    0 -0.15717351494E+03  0.19371563565E+03 -0.59097064484E+03  0.64788047010E+03  0.90958997226E+02 0.  0.
          2    1    3    3  502    0  0.26735729704E+01  0.55428796164E+02  0.50730569252E+02  0.75187034077E+02  0.00000000000E+00 0. -1.
         -1    1    3    3    0  502  0.20352424647E+03  0.50452229875E+03  0.28220438281E+03  0.61286555011E+03  0.00000000000E+00 0.  1.
         11    1    5    5    0    0 -0.17513637226E+02 -0.60382971333E+03 -0.40598072790E+03  0.72783061327E+03  0.00000000000E+00 0. -1.
        -11    1    5    5    0    0 -0.31510667274E+02 -0.14983701724E+03 -0.14995558763E+03  0.21431456354E+03  0.00000000000E+00 0.  1.
          2    1    6    6  503    0 -0.15853355770E+03  0.19572440046E+03 -0.52941855675E+03  0.58628059671E+03  0.00000000000E+00 0. -1.
         -2    1    6    6    0  503  0.13600427653E+01 -0.20087648088E+01 -0.61552088091E+02  0.61599873383E+02  0.00000000000E+00 0.  1.
<mgrwt>
<rscale>  0 0.21276959E+04</rscale>
<asrwt>0</asrwt>
<pdfrwt beam="1">  1        2 0.23785002E+00 0.21276959E+04</pdfrwt>
<pdfrwt beam="2">  1       -1 0.11262356E+00 0.21276959E+04</pdfrwt>
<totfact> 0.90378875E+00</totfact>
</mgrwt>
</event>
<event>
12    6  0.1627636E-007  0.2232615E+04  0.7818608E-02  0.8504974E-01
         -3   -1    0    0    0  501 -0.00000000000E+00  0.00000000000E+00  0.59410693001E+03  0.59410693001E+03  0.00000000000E+00 0.  1.
          2   -1    0    0  501    0  0.00000000000E+00 -0.00000000000E+00 -0.20975058383E+04  0.20975058383E+04  0.00000000000E+00 0. -1.
         24    2    1    2    0    0  0.24339355328E+03 -0.61668172862E+03  0.16353992554E+03  0.68750037781E+03  0.79841631068E+02 0.  0.
        254    2    1    2    0    0 -0.24339355328E+03  0.61668172862E+03 -0.16669388339E+04  0.20041123905E+04  0.89344536592E+03 0.  0.
         23    2    4    4    0    0 -0.27616004077E+03  0.78431760533E+03 -0.96923666782E+03  0.12804511267E+04  0.93364316215E+02 0.  0.
         23    2    4    4    0    0  0.32766487492E+02 -0.16763587671E+03 -0.69770216605E+03  0.72366126381E+03  0.87874241819E+02 0.  0.
          4    1    3    3  502    0  0.54949077724E+01 -0.56540743993E+02  0.30821054992E+02  0.64629615298E+02  0.00000000000E+00 0. -1.
         -3    1    3    3    0  502  0.23789864551E+03 -0.56014098463E+03  0.13271887055E+03  0.62287076251E+03  0.00000000000E+00 0.  1.
         11    1    5    5    0    0 -0.15646908867E+03  0.39487763136E+03 -0.42775785683E+03  0.60281647583E+03  0.00000000000E+00 0. -1.
        -11    1    5    5    0    0 -0.11969095210E+03  0.38943997398E+03 -0.54147881099E+03  0.67763465090E+03  0.00000000000E+00 0.  1.
          2    1    6    6  503    0  0.38360107973E+02 -0.19977300493E+02 -0.19212804781E+03  0.19693597227E+03  0.00000000000E+00 0. -1.
         -2    1    6    6    0  503 -0.55936204811E+01 -0.14765857622E+03 -0.50557411823E+03  0.52672529154E+03  0.00000000000E+00 0.  1.
<mgrwt>
<rscale>  0 0.22326153E+04</rscale>
<asrwt>0</asrwt>
<pdfrwt beam="1">  1        2 0.32269321E+00 0.22326153E+04</pdfrwt>
<pdfrwt beam="2">  1       -3 0.91401066E-01 0.22326153E+04</pdfrwt>
<totfact> 0.36929210E+00</totfact>
</mgrwt>
</event>
<event>
12    6  0.1627636E-007  0.3352926E+04  0.7818608E-02  0.8149558E-01
         -1   -1    0    0    0  501 -0.00000000000E+00  0.00000000000E+00  0.73512123732E+03  0.73512123732E+03  0.00000000000E+00 0.  1.
          2   -1    0    0  501    0  0.00000000000E+00 -0.00000000000E+00 -0.38232161948E+04  0.38232161948E+04  0.00000000000E+00 0. -1.
         24    2    1    2    0    0  0.63659704184E+03  0.25797489984E+03 -0.33240598781E+04  0.33952275626E+04  0.79933009563E+02 0.  0.
        254    2    1    2    0    0 -0.63659704184E+03 -0.25797489984E+03  0.23596492068E+03  0.11631098695E+04  0.90848130528E+03 0.  0.
         23    2    4    4    0    0 -0.74306485610E+03 -0.47873347091E+02  0.41172231597E+03  0.85559707954E+03  0.89965878608E+02 0.  0.
         23    2    4    4    0    0  0.10646781426E+03 -0.21010155275E+03 -0.17575739530E+03  0.30751278993E+03  0.90528426616E+02 0.  0.
          4    1    3    3  502    0  0.42521877743E+03  0.20079159809E+03 -0.21350993891E+04  0.21862702660E+04  0.00000000000E+00 0. -1.
         -3    1    3    3    0  502  0.21137826441E+03  0.57183301751E+02 -0.11889604890E+04  0.12089572967E+04  0.00000000000E+00 0.  1.
         11    1    5    5    0    0 -0.38010732660E+03  0.28071465595E+01  0.16876184374E+03  0.41589664547E+03  0.00000000000E+00 0. -1.
        -11    1    5    5    0    0 -0.36295752950E+03 -0.50680493650E+02  0.24296047223E+03  0.43970043408E+03  0.00000000000E+00 0.  1.
          1    1    6    6  503    0  0.11650206864E+03 -0.14940285393E+03 -0.14591728579E+03  0.23913552445E+03  0.00000000000E+00 0. -1.
         -1    1    6    6    0  503 -0.10034254378E+02 -0.60698698816E+02 -0.29840109506E+02  0.68377265478E+02  0.00000000000E+00 0.  1.
<mgrwt>
<rscale>  0 0.33529255E+04</rscale>
<asrwt>0</asrwt>
<pdfrwt beam="1">  1        2 0.58818710E+00 0.33529255E+04</pdfrwt>
<pdfrwt beam="2">  1       -1 0.11309558E+00 0.33529255E+04</pdfrwt>
<totfact> 0.31737487E-01</totfact>
</mgrwt>
</event>
<event>
12    6  0.1627636E-007  0.1509938E+04  0.7818608E-02  0.8877871E-01
          2   -1    0    0  501    0  0.00000000000E+00  0.00000000000E+00  0.17452601843E+04  0.17452601843E+04  0.00000000000E+00 0. -1.
         -1   -1    0    0    0  501 -0.00000000000E+00 -0.00000000000E+00 -0.32658619169E+03  0.32658619169E+03  0.00000000000E+00 0.  1.
         24    2    1    2    0    0  0.69239939883E+02  0.26607839480E+03 -0.12050263019E+03  0.30898916256E+03  0.73222518695E+02 0.  0.
        254    2    1    2    0    0 -0.69239939883E+02 -0.26607839480E+03  0.15391766228E+04  0.17628572135E+04  0.81425364433E+03 0.  0.
         23    2    4    4    0    0 -0.70168763715E+02 -0.51489296622E+03  0.66277281766E+03  0.84723345646E+03  0.92186223778E+02 0.  0.
         23    2    4    4    0    0  0.92882383152E+00  0.24881457142E+03  0.87640380517E+03  0.91562375700E+03  0.91507819283E+02 0.  0.
          4    1    3    3  502    0  0.13899309633E+02  0.31940233274E+02  0.86979798089E+01  0.35902982642E+02  0.00000000000E+00 0. -1.
         -3    1    3    3    0  502  0.55340630251E+02  0.23413816153E+03 -0.12920061000E+03  0.27308617992E+03  0.00000000000E+00 0.  1.
         11    1    5    5    0    0  0.22138009854E+02 -0.73040760574E+02  0.10011477682E+03  0.12588889039E+03  0.00000000000E+00 0.  1.
        -11    1    5    5    0    0 -0.92306773569E+02 -0.44185220564E+03  0.56265804084E+03  0.72134456608E+03  0.00000000000E+00 0. -1.
          3    1    6    6  503    0  0.28290429112E+02  0.56930452366E+02  0.32464986918E+03  0.33081560172E+03  0.00000000000E+00 0. -1.
         -3    1    6    6    0  503 -0.27361605281E+02  0.19188411905E+03  0.55175393599E+03  0.58480815527E+03  0.00000000000E+00 0.  1.
<mgrwt>
<rscale>  0 0.15099376E+04</rscale>
<asrwt>0</asrwt>
<pdfrwt beam="1">  1        2 0.26850156E+00 0.15099376E+04</pdfrwt>
<pdfrwt beam="2">  1       -1 0.50244031E-01 0.15099376E+04</pdfrwt>
<totfact> 0.40478321E+01</totfact>
</mgrwt>
</event>
<event>
12    6  0.1627636E-007  0.2254189E+04  0.7818608E-02  0.8496206E-01
          2   -1    0    0  501    0  0.00000000000E+00  0.00000000000E+00  0.10768182044E+04  0.10768182044E+04  0.00000000000E+00 0. -1.
         -1   -1    0    0    0  501 -0.00000000000E+00 -0.00000000000E+00 -0.11797179569E+04  0.11797179569E+04  0.00000000000E+00 0.  1.
         24    2    1    2    0    0 -0.15145399047E+03  0.60750424609E+03 -0.75213749259E+03  0.98210876273E+03  0.82626229690E+02 0.  0.
        254    2    1    2    0    0  0.15145399047E+03 -0.60750424609E+03  0.64923774009E+03  0.12744273985E+04  0.90036427668E+03 0.  0.
         23    2    4    4    0    0 -0.27538198421E+03 -0.57852014870E+03  0.29347361940E+03  0.71054009164E+03  0.90662323357E+02 0.  0.
         23    2    4    4    0    0  0.42683597468E+03 -0.28984097394E+02  0.35576412069E+03  0.56388730689E+03  0.91497312055E+02 0.  0.
          2    1    3    3  502    0 -0.64296916120E+02  0.39115182291E+03 -0.43637816123E+03  0.58954197611E+03  0.00000000000E+00 0. -1.
         -1    1    3    3    0  502 -0.87157074353E+02  0.21635242318E+03 -0.31575933136E+03  0.39256678663E+03  0.00000000000E+00 0.  1.
         11    1    5    5    0    0 -0.55786538165E+02 -0.11635210166E+03  0.20684548931E+02  0.13068205678E+03  0.00000000000E+00 0. -1.
        -11    1    5    5    0    0 -0.21959544604E+03 -0.46216804704E+03  0.27278907047E+03  0.57985803486E+03  0.00000000000E+00 0.  1.
          1    1    6    6  503    0  0.38366613298E+02 -0.18786156367E+02  0.68127510658E+02  0.80413148151E+02  0.00000000000E+00 0. -1.
         -1    1    6    6    0  503  0.38846936138E+03 -0.10197941027E+02  0.28763661003E+03  0.48347415874E+03  0.00000000000E+00 0.  1.
<mgrwt>
<rscale>  0 0.22541888E+04</rscale>
<asrwt>0</asrwt>
<pdfrwt beam="1">  1        2 0.16566434E+00 0.22541888E+04</pdfrwt>
<pdfrwt beam="2">  1       -1 0.18149507E+00 0.22541888E+04</pdfrwt>
<totfact> 0.47442482E+00</totfact>
</mgrwt>
</event>
<event>
12    6  0.1627636E-007  0.1556433E+04  0.7818608E-02  0.8847769E-01
          2   -1    0    0  501    0  0.00000000000E+00  0.00000000000E+00  0.11274262451E+04  0.11274262451E+04  0.00000000000E+00 0. -1.
         -1   -1    0    0    0  501 -0.00000000000E+00 -0.00000000000E+00 -0.53717133760E+03  0.53717133760E+03  0.00000000000E+00 0.  1.
         24    2    1    2    0    0 -0.26911253425E+03 -0.28972147923E+02 -0.27526033797E+03  0.39379611888E+03  0.77757238528E+02 0.  0.
        254    2    1    2    0    0  0.26911253425E+03  0.28972147923E+02  0.86551524547E+03  0.12708014638E+04  0.89025770364E+03 0.  0.
         23    2    4    4    0    0  0.97942212800E+02 -0.41313502488E+03  0.51905862061E+03  0.67660781153E+03  0.90016960426E+02 0.  0.
         23    2    4    4    0    0  0.17117032145E+03  0.44210717280E+03  0.34645662486E+03  0.59419365230E+03  0.90971821645E+02 0.  0.
          2    1    3    3  502    0  0.40782389391E+01 -0.62632179242E+01 -0.77986531195E+01  0.10801801798E+02  0.00000000000E+00 0. -1.
         -3    1    3    3    0  502 -0.27319077319E+03 -0.22708929999E+02 -0.26746168485E+03  0.38299431708E+03  0.00000000000E+00 0.  1.
         11    1    5    5    0    0  0.85173950874E+02 -0.40360271567E+03  0.47158687777E+03  0.62653326910E+03  0.00000000000E+00 0. -1.
        -11    1    5    5    0    0  0.12768261927E+02 -0.95323092104E+01  0.47471742838E+02  0.50074542430E+02  0.00000000000E+00 0.  1.
          2    1    6    6  503    0  0.13173205180E+03  0.35108110707E+03  0.22474310589E+03  0.43717358207E+03  0.00000000000E+00 0. -1.
         -2    1    6    6    0  503  0.39438269649E+02  0.91026065734E+02  0.12171351896E+03  0.15702007023E+03  0.00000000000E+00 0.  1.
<mgrwt>
<rscale>  0 0.15564332E+04</rscale>
<asrwt>0</asrwt>
<pdfrwt beam="1">  1        2 0.17345019E+00 0.15564332E+04</pdfrwt>
<pdfrwt beam="2">  1       -1 0.82641745E-01 0.15564332E+04</pdfrwt>
<totfact> 0.33462319E+01</totfact>
</mgrwt>
</event>
<event>
12    6  0.1627636E-007  0.2547692E+04  0.7818608E-02  0.8386189E-01
         -1   -1    0    0    0  501 -0.00000000000E+00  0.00000000000E+00  0.71220938083E+03  0.71220938083E+03  0.00000000000E+00 0.  1.
          2   -1    0    0  501    0  0.00000000000E+00 -0.00000000000E+00 -0.22783807023E+04  0.22783807023E+04  0.00000000000E+00 0. -1.
         24    2    1    2    0    0 -0.59104268973E+02  0.66578008929E+03  0.36084898005E+03  0.76360151675E+03  0.78223066048E+02 0.  0.
        254    2    1    2    0    0  0.59104268973E+02 -0.66578008929E+03 -0.19270203015E+04  0.22269885664E+04  0.89404384144E+03 0.  0.
         23    2    4    4    0    0 -0.31369242985E+03 -0.76723190392E+02 -0.27529281414E+03  0.43190903879E+03  0.80435662365E+02 0.  0.
         23    2    4    4    0    0  0.37279669882E+03 -0.58905689890E+03 -0.16517274873E+04  0.17950795276E+04  0.90229756911E+02 0.  0.
          2    1    3    3  502    0  0.26248563824E+01  0.15479246180E+03  0.51838721211E+02  0.16326312847E+03  0.00000000000E+00 0. -1.
         -1    1    3    3    0  502 -0.61729125355E+02  0.51098762749E+03  0.30901025884E+03  0.60033838828E+03  0.00000000000E+00 0.  1.
         11    1    5    5    0    0 -0.84091003795E+02 -0.38893815791E+02 -0.12226300475E+03  0.15340230818E+03  0.00000000000E+00 0. -1.
        -11    1    5    5    0    0 -0.22960142606E+03 -0.37829374601E+02 -0.15302980939E+03  0.27850673061E+03  0.00000000000E+00 0.  1.
          3    1    6    6  503    0  0.13491370494E+03 -0.15801375094E+03 -0.56640188590E+03  0.60330850285E+03  0.00000000000E+00 0. -1.
         -3    1    6    6    0  503  0.23788299389E+03 -0.43104314796E+03 -0.10853256014E+04  0.11917710247E+04  0.00000000000E+00 0.  1.
<mgrwt>
<rscale>  0 0.25476924E+04</rscale>
<asrwt>0</asrwt>
<pdfrwt beam="1">  1        2 0.35052010E+00 0.25476924E+04</pdfrwt>
<pdfrwt beam="2">  1       -1 0.10957068E+00 0.25476924E+04</pdfrwt>
<totfact> 0.36292208E+00</totfact>
</mgrwt>
</event>
<event>
12    6  0.1627636E-007  0.4573520E+04  0.7818608E-02  0.7897891E-01
          2   -1    0    0  501    0  0.00000000000E+00  0.00000000000E+00  0.32254682740E+04  0.32254682740E+04  0.00000000000E+00 0. -1.
         -1   -1    0    0    0  501 -0.00000000000E+00 -0.00000000000E+00 -0.16212439917E+04  0.16212439917E+04  0.00000000000E+00 0.  1.
         24    2    1    2    0    0  0.19088236206E+04 -0.96712222749E+03  0.24075313167E+03  0.21547426948E+04  0.77595056170E+02 0.  0.
        254    2    1    2    0    0 -0.19088236206E+04  0.96712222749E+03  0.13634711507E+04  0.26919695710E+04  0.89928503531E+03 0.  0.
         23    2    4    4    0    0 -0.14014652193E+04  0.84740676709E+03  0.56667822899E+03  0.17354276114E+04  0.91552112680E+02 0.  0.
         23    2    4    4    0    0 -0.50735840135E+03  0.11971546040E+03  0.79679292167E+03  0.95654195960E+03  0.91374074873E+02 0.  0.
          2    1    3    3  502    0  0.67889286194E+03 -0.35714947891E+03  0.12186938017E+03  0.77672608692E+03  0.00000000000E+00 0. -1.
         -1    1    3    3    0  502  0.12299307587E+04 -0.60997274858E+03  0.11888375149E+03  0.13780166079E+04  0.00000000000E+00 0.  1.
         11    1    5    5    0    0 -0.73818148291E+03  0.44755565536E+03  0.25030254781E+03  0.89881551600E+03  0.00000000000E+00 0. -1.
        -11    1    5    5    0    0 -0.66328373636E+03  0.39985111173E+03  0.31637568118E+03  0.83661209536E+03  0.00000000000E+00 0.  1.
          1    1    6    6  503    0 -0.45633612502E+03  0.93050742437E+02  0.65669976147E+03  0.80508116136E+03  0.00000000000E+00 0. -1.
         -1    1    6    6    0  503 -0.51022276335E+02  0.26664717968E+02  0.14009316020E+03  0.15146079823E+03  0.00000000000E+00 0.  1.
<mgrwt>
<rscale>  0 0.45735199E+04</rscale>
<asrwt>0</asrwt>
<pdfrwt beam="1">  1        2 0.49622589E+00 0.45735199E+04</pdfrwt>
<pdfrwt beam="2">  1       -1 0.24942215E+00 0.45735199E+04</pdfrwt>
<totfact> 0.74997919E-02</totfact>
</mgrwt>
</event>
<event>
12    6  0.1627636E-007  0.1766846E+04  0.7818608E-02  0.8724132E-01
          2   -1    0    0  501    0  0.00000000000E+00  0.00000000000E+00  0.84775370396E+03  0.84775370396E+03  0.00000000000E+00 0. -1.
         -1   -1    0    0    0  501 -0.00000000000E+00 -0.00000000000E+00 -0.92059283923E+03  0.92059283923E+03  0.00000000000E+00 0.  1.
         24    2    1    2    0    0  0.25955233224E+03  0.25465925087E+03 -0.57149964226E+03  0.68189790632E+03  0.78448494671E+02 0.  0.
        254    2    1    2    0    0 -0.25955233224E+03 -0.25465925087E+03  0.49866050698E+03  0.10864486369E+04  0.89414181879E+03 0.  0.
         23    2    4    4    0    0 -0.39932544739E+03  0.12349387744E+03  0.51915459929E+03  0.67282098105E+03  0.91951203786E+02 0.  0.
         23    2    4    4    0    0  0.13977311515E+03 -0.37815312830E+03 -0.20494092310E+02  0.41362765582E+03  0.90174928211E+02 0.  0.
          2    1    3    3  502    0  0.15655679260E+02  0.38212087439E+01 -0.65658828838E+01  0.17401515664E+02  0.00000000000E+00 0. -1.
         -1    1    3    3    0  502  0.24389665298E+03  0.25083804212E+03 -0.56493375938E+03  0.66449639066E+03  0.00000000000E+00 0.  1.
         11    1    5    5    0    0 -0.39600206674E+03  0.12003662073E+03  0.48156278751E+03  0.63492451953E+03  0.00000000000E+00 0. -1.
        -11    1    5    5    0    0 -0.33233806425E+01  0.34572567142E+01  0.37591811783E+02  0.37896461524E+02  0.00000000000E+00 0.  1.
          3    1    6    6  503    0  0.34020319045E+02 -0.13524732188E+03 -0.47497467702E+02  0.14732694805E+03  0.00000000000E+00 0.  1.
         -3    1    6    6    0  503  0.10575279610E+03 -0.24290580643E+03  0.27003375391E+02  0.26630070778E+03  0.00000000000E+00 0. -1.
<mgrwt>
<rscale>  0 0.17668458E+04</rscale>
<asrwt>0</asrwt>
<pdfrwt beam="1">  1        2 0.13042365E+00 0.17668458E+04</pdfrwt>
<pdfrwt beam="2">  1       -1 0.14162967E+00 0.17668458E+04</pdfrwt>
<totfact> 0.13994587E+01</totfact>
</mgrwt>
</event>
<event>
12    6  0.1627636E-007  0.1256350E+04  0.7818608E-02  0.9064915E-01
          2   -1    0    0  501    0  0.00000000000E+00  0.00000000000E+00  0.21530520911E+04  0.21530520911E+04  0.00000000000E+00 0. -1.
         -1   -1    0    0    0  501 -0.00000000000E+00 -0.00000000000E+00 -0.18327651645E+03  0.18327651645E+03  0.00000000000E+00 0.  1.
         24    2    1    2    0    0 -0.14406837827E+03 -0.99947298363E+02  0.35468200345E+02  0.19606262567E+03  0.80233408759E+02 0.  0.
        254    2    1    2    0    0  0.14406837827E+03  0.99947298363E+02  0.19343073744E+04  0.21402659819E+04  0.89913752832E+03 0.  0.
         23    2    4    4    0    0 -0.33108953638E+03 -0.14323297999E+03  0.84696170794E+03  0.92531328580E+03  0.93405430866E+02 0.  0.
         23    2    4    4    0    0  0.47515791464E+03  0.24318027835E+03  0.10873456664E+04  0.12149526961E+04  0.94221886562E+02 0.  0.
          4    1    3    3  502    0 -0.74297693772E+02 -0.26026813001E+02  0.50178370505E+02  0.93356366475E+02  0.00000000000E+00 0. -1.
         -3    1    3    3    0  502 -0.69770684495E+02 -0.73920485363E+02 -0.14710170160E+02  0.10270625919E+03  0.00000000000E+00 0.  1.
         11    1    5    5    0    0 -0.63197846827E+01 -0.18628918323E+02  0.91832796941E+02  0.93916126786E+02  0.00000000000E+00 0.  1.
        -11    1    5    5    0    0 -0.32476975169E+03 -0.12460406167E+03  0.75512891100E+03  0.83139715902E+03  0.00000000000E+00 0. -1.
          3    1    6    6  503    0  0.40242450813E+02  0.46537722710E+02  0.17133582052E+03  0.18204718585E+03  0.00000000000E+00 0.  1.
         -3    1    6    6    0  503  0.43491546383E+03  0.19664255564E+03  0.91600984589E+03  0.10329055103E+04  0.00000000000E+00 0. -1.
<mgrwt>
<rscale>  0 0.12563501E+04</rscale>
<asrwt>0</asrwt>
<pdfrwt beam="1">  1        2 0.33123877E+00 0.12563501E+04</pdfrwt>
<pdfrwt beam="2">  1       -1 0.28196389E-01 0.12563501E+04</pdfrwt>
<totfact> 0.70034026E+01</totfact>
</mgrwt>
</event>
<event>
12    6  0.1627636E-007  0.1570707E+04  0.7818608E-02  0.8838749E-01
         -1   -1    0    0    0  501 -0.00000000000E+00  0.00000000000E+00  0.69180035760E+03  0.69180035760E+03  0.00000000000E+00 0.  1.
          2   -1    0    0  501    0  0.00000000000E+00 -0.00000000000E+00 -0.89155762699E+03  0.89155762699E+03  0.00000000000E+00 0. -1.
         24    2    1    2    0    0  0.20854548782E+03  0.13309955342E+03 -0.49046621394E+03  0.55495035402E+03  0.78778656956E+02 0.  0.
        254    2    1    2    0    0 -0.20854548782E+03 -0.13309955342E+03  0.29070894455E+03  0.10284076306E+04  0.95493656992E+03 0.  0.
         23    2    4    4    0    0  0.68796521106E+02  0.19336409716E+03 -0.24761569854E+03  0.33462954070E+03  0.92416232133E+02 0.  0.
         23    2    4    4    0    0 -0.27734200892E+03 -0.32646365057E+03  0.53832464309E+03  0.69377808987E+03  0.89652169916E+02 0.  0.
          4    1    3    3  502    0  0.17790793483E+03  0.95477022170E+02 -0.44407634707E+03  0.48782260820E+03  0.00000000000E+00 0. -1.
         -3    1    3    3    0  502  0.30637552983E+02  0.37622531247E+02 -0.46389866875E+02  0.67127745821E+02  0.00000000000E+00 0.  1.
         11    1    5    5    0    0  0.32281816694E+02  0.10915617828E+03 -0.67139161690E+02  0.13215465932E+03  0.00000000000E+00 0. -1.
        -11    1    5    5    0    0  0.36514704412E+02  0.84207918873E+02 -0.18047653685E+03  0.20247488138E+03  0.00000000000E+00 0.  1.
          4    1    6    6  503    0 -0.46714954241E+02 -0.55239851982E+02  0.44284097417E+02  0.84822222800E+02  0.00000000000E+00 0. -1.
         -4    1    6    6    0  503 -0.23062705468E+03 -0.27122379859E+03  0.49404054567E+03  0.60895586707E+03  0.00000000000E+00 0.  1.
<mgrwt>
<rscale>  0 0.15707067E+04</rscale>
<asrwt>0</asrwt>
<pdfrwt beam="1">  1        2 0.13716271E+00 0.15707067E+04</pdfrwt>
<pdfrwt beam="2">  1       -1 0.10643082E+00 0.15707067E+04</pdfrwt>
<totfact> 0.26889220E+01</totfact>
</mgrwt>
</event>
<event>
12    6  0.1627636E-007  0.4466084E+04  0.7818608E-02  0.7916601E-01
         -1   -1    0    0    0  501 -0.00000000000E+00  0.00000000000E+00  0.26578711950E+04  0.26578711950E+04  0.00000000000E+00 0.  1.
          2   -1    0    0  501    0  0.00000000000E+00 -0.00000000000E+00 -0.18761167194E+04  0.18761167194E+04  0.00000000000E+00 0. -1.
         24    2    1    2    0    0  0.12333668211E+04 -0.95216539184E+03  0.18684643788E+04  0.24342129107E+04  0.80129338881E+02 0.  0.
        254    2    1    2    0    0 -0.12333668211E+04  0.95216539184E+03 -0.10867099032E+04  0.20997750037E+04  0.89459711806E+03 0.  0.
         23    2    4    4    0    0 -0.17803586047E+03 -0.10096275068E+03 -0.39411142509E+03  0.45316513985E+03  0.90247348681E+02 0.  0.
         23    2    4    4    0    0 -0.10553309606E+04  0.10531281425E+04 -0.69259847806E+03  0.16466098638E+04  0.93963135423E+02 0.  0.
          2    1    3    3  502    0  0.28752517210E+03 -0.18394545086E+03  0.38755912606E+03  0.51643850522E+03  0.00000000000E+00 0. -1.
         -1    1    3    3    0  502  0.94584164902E+03 -0.76821994098E+03  0.14809052527E+04  0.19177744055E+04  0.00000000000E+00 0.  1.
         11    1    5    5    0    0  0.20981359033E+00 -0.31076178312E+02 -0.40492492565E+02  0.51043264338E+02  0.00000000000E+00 0. -1.
        -11    1    5    5    0    0 -0.17824567406E+03 -0.69886572369E+02 -0.35361893253E+03  0.40212187551E+03  0.00000000000E+00 0.  1.
          4    1    6    6  503    0 -0.75586081363E+03  0.77346194267E+03 -0.54550158833E+03  0.12112559305E+04  0.00000000000E+00 0.  1.
         -4    1    6    6    0  503 -0.29947014702E+03  0.27966619985E+03 -0.14709688973E+03  0.43535393333E+03  0.00000000000E+00 0. -1.
<mgrwt>
<rscale>  0 0.44660840E+04</rscale>
<asrwt>0</asrwt>
<pdfrwt beam="1">  1        2 0.28863334E+00 0.44660840E+04</pdfrwt>
<pdfrwt beam="2">  1       -1 0.40890326E+00 0.44660840E+04</pdfrwt>
<totfact> 0.42095713E-02</totfact>
</mgrwt>
</event>
<event>
12    6  0.1627636E-007  0.1717502E+04  0.7818608E-02  0.8751445E-01
         -1   -1    0    0    0  501 -0.00000000000E+00  0.00000000000E+00  0.46725354014E+03  0.46725354014E+03  0.00000000000E+00 0.  1.
          2   -1    0    0  501    0  0.00000000000E+00 -0.00000000000E+00 -0.15782726679E+04  0.15782726679E+04  0.00000000000E+00 0. -1.
         24    2    1    2    0    0  0.44064930465E+03 -0.41033524128E+03 -0.20858328111E+03  0.64231310650E+03  0.80698957291E+02 0.  0.
        254    2    1    2    0    0 -0.44064930465E+03  0.41033524128E+03 -0.90243584669E+03  0.14032131016E+04  0.88998299485E+03 0.  0.
         23    2    4    4    0    0 -0.26630799026E+03  0.41670814087E+02 -0.94223268434E+03  0.98419345466E+03  0.90431865684E+02 0.  0.
         23    2    4    4    0    0 -0.17434131439E+03  0.36866442719E+03  0.39796837653E+02  0.41901964692E+03  0.87665970794E+02 0.  0.
          2    1    3    3  502    0  0.94398560814E+02 -0.48982138134E+02 -0.25090415975E+02  0.10926969897E+03  0.00000000000E+00 0. -1.
         -1    1    3    3    0  502  0.34625074383E+03 -0.36135310315E+03 -0.18349286513E+03  0.53304340753E+03  0.00000000000E+00 0.  1.
         11    1    5    5    0    0 -0.18467807217E+03  0.65873858862E+02 -0.71962150730E+03  0.74585552850E+03  0.00000000000E+00 0. -1.
        -11    1    5    5    0    0 -0.81629918087E+02 -0.24203044775E+02 -0.22261117704E+03  0.23833792616E+03  0.00000000000E+00 0.  1.
          2    1    6    6  503    0 -0.21181251274E+02  0.36741665556E+02  0.32433160467E+02  0.53390123537E+02  0.00000000000E+00 0. -1.
         -2    1    6    6    0  503 -0.15316006311E+03  0.33192276164E+03  0.73636771858E+01  0.36562952338E+03  0.00000000000E+00 0.  1.
<mgrwt>
<rscale>  0 0.17175022E+04</rscale>
<asrwt>0</asrwt>
<pdfrwt beam="1">  1        2 0.24281118E+00 0.17175022E+04</pdfrwt>
<pdfrwt beam="2">  1       -1 0.71885160E-01 0.17175022E+04</pdfrwt>
<totfact> 0.24250855E+01</totfact>
</mgrwt>
</event>
<event>
12    6  0.1627636E-007  0.1450793E+04  0.7818608E-02  0.8917851E-01
          2   -1    0    0  501    0  0.00000000000E+00  0.00000000000E+00  0.14872362940E+04  0.14872362940E+04  0.00000000000E+00 0. -1.
         -1   -1    0    0    0  501 -0.00000000000E+00 -0.00000000000E+00 -0.35381049362E+03  0.35381049362E+03  0.00000000000E+00 0.  1.
         24    2    1    2    0    0  0.25946130414E+03  0.19547761884E+03  0.82378483983E+03  0.88906165340E+03  0.79230634180E+02 0.  0.
        254    2    1    2    0    0 -0.25946130414E+03 -0.19547761884E+03  0.30964096059E+03  0.95198513427E+03  0.83956328146E+03 0.  0.
         23    2    4    4    0    0 -0.42843098665E+03  0.17797739278E+03  0.10483765281E+03  0.48499932709E+03  0.94891259699E+02 0.  0.
         23    2    4    4    0    0  0.16896968251E+03 -0.37345501162E+03  0.20480330778E+03  0.46698580718E+03  0.90066363956E+02 0.  0.
          2    1    3    3  502    0  0.60552104913E+01  0.12074718658E+02  0.95342774942E+02  0.96294907126E+02  0.00000000000E+00 0. -1.
         -1    1    3    3    0  502  0.25340609365E+03  0.18340290019E+03  0.72844206489E+03  0.79276674627E+03  0.00000000000E+00 0.  1.
         11    1    5    5    0    0  0.21870435896E+01  0.11519000172E+02  0.80785745297E+00  0.11752580920E+02  0.00000000000E+00 0.  1.
        -11    1    5    5    0    0 -0.43061803024E+03  0.16645839261E+03  0.10402979536E+03  0.47324674617E+03  0.00000000000E+00 0. -1.
          2    1    6    6  503    0  0.14665257195E+03 -0.26842526740E+03  0.11421626707E+03  0.32650337931E+03  0.00000000000E+00 0. -1.
         -2    1    6    6    0  503  0.22317110556E+02 -0.10502974422E+03  0.90587040707E+02  0.14048242787E+03  0.00000000000E+00 0.  1.
<mgrwt>
<rscale>  0 0.14507926E+04</rscale>
<asrwt>0</asrwt>
<pdfrwt beam="1">  1        2 0.22880558E+00 0.14507926E+04</pdfrwt>
<pdfrwt beam="2">  1       -1 0.54432384E-01 0.14507926E+04</pdfrwt>
<totfact> 0.48615824E+01</totfact>
</mgrwt>
</event>
<event>
12    6  0.1627636E-007  0.1938978E+04  0.7818608E-02  0.8635694E-01
          2   -1    0    0  501    0  0.00000000000E+00  0.00000000000E+00  0.18495110354E+04  0.18495110354E+04  0.00000000000E+00 0. -1.
         -1   -1    0    0    0  501 -0.00000000000E+00 -0.00000000000E+00 -0.50819332126E+03  0.50819332126E+03  0.00000000000E+00 0.  1.
         24    2    1    2    0    0 -0.45056054394E+03 -0.54854380446E+03  0.20200411948E+03  0.74219363820E+03  0.78362128136E+02 0.  0.
        254    2    1    2    0    0  0.45056054394E+03  0.54854380446E+03  0.11393135946E+04  0.16155107185E+04  0.89885165924E+03 0.  0.
         23    2    4    4    0    0  0.53490256380E+03  0.59141123245E+03  0.46333924697E+03  0.92687563627E+03  0.92342778357E+02 0.  0.
         23    2    4    4    0    0 -0.84342019856E+02 -0.42867427986E+02  0.67597434767E+03  0.68863508218E+03  0.91245630033E+02 0.  0.
          4    1    3    3  502    0 -0.69921795988E+02 -0.13068924241E+03  0.28529709629E+02  0.15093932545E+03  0.00000000000E+00 0. -1.
         -3    1    3    3    0  502 -0.38063874795E+03 -0.41785456205E+03  0.17347440985E+03  0.59125431275E+03  0.00000000000E+00 0.  1.
         11    1    5    5    0    0  0.11035284509E+03  0.14160775730E+03  0.63765723918E+02  0.19051660005E+03  0.00000000000E+00 0. -1.
        -11    1    5    5    0    0  0.42454971870E+03  0.44980347515E+03  0.39957352306E+03  0.73635903623E+03  0.00000000000E+00 0.  1.
          3    1    6    6  503    0 -0.13467110407E+01  0.21492264549E+02  0.20307536299E+03  0.20421394203E+03  0.00000000000E+00 0. -1.
         -3    1    6    6    0  503 -0.82995308815E+02 -0.64359692535E+02  0.47289898468E+03  0.48442114014E+03  0.00000000000E+00 0.  1.
<mgrwt>
<rscale>  0 0.19389782E+04</rscale>
<asrwt>0</asrwt>
<pdfrwt beam="1">  1        2 0.28454015E+00 0.19389782E+04</pdfrwt>
<pdfrwt beam="2">  1       -1 0.78183589E-01 0.19389782E+04</pdfrwt>
<totfact> 0.14104800E+01</totfact>
</mgrwt>
</event>
<event>
12    6  0.1627636E-007  0.1806703E+04  0.7818608E-02  0.8702743E-01
         -1   -1    0    0    0  501 -0.00000000000E+00  0.00000000000E+00  0.36905661892E+03  0.36905661892E+03  0.00000000000E+00 0.  1.
          2   -1    0    0  501    0  0.00000000000E+00 -0.00000000000E+00 -0.22111617150E+04  0.22111617150E+04  0.00000000000E+00 0. -1.
         24    2    1    2    0    0  0.45865159766E+03  0.68139272141E+02 -0.13615860220E+04  0.14406017635E+04  0.80079319206E+02 0.  0.
        254    2    1    2    0    0 -0.45865159766E+03 -0.68139272141E+02 -0.48051907412E+03  0.11396165704E+04  0.92348421672E+03 0.  0.
         23    2    4    4    0    0 -0.32510333382E+03 -0.66621161697E+02 -0.74917919614E+03  0.82398154389E+03  0.86865182314E+02 0.  0.
         23    2    4    4    0    0 -0.13354826383E+03 -0.15181104432E+01  0.26866012201E+03  0.31563502652E+03  0.98029410773E+02 0.  0.
          2    1    3    3  502    0  0.45272635298E+03  0.59709483744E+02 -0.13497760640E+04  0.14249286986E+04  0.00000000000E+00 0. -1.
         -3    1    3    3    0  502  0.59252446756E+01  0.84297883969E+01 -0.11809958018E+02  0.15673064961E+02  0.00000000000E+00 0.  1.
         11    1    5    5    0    0 -0.28538435216E+03 -0.54321399018E+02 -0.70879008789E+03  0.76601464186E+03  0.00000000000E+00 0.  1.
        -11    1    5    5    0    0 -0.39718981661E+02 -0.12299762679E+02 -0.40389108245E+02  0.57966902030E+02  0.00000000000E+00 0. -1.
          2    1    6    6  503    0 -0.49941351941E+02  0.45860280950E+02  0.13430646418E+03  0.15045108947E+03  0.00000000000E+00 0. -1.
         -2    1    6    6    0  503 -0.83606911893E+02 -0.47378391394E+02  0.13435365783E+03  0.16518393705E+03  0.00000000000E+00 0.  1.
<mgrwt>
<rscale>  0 0.18067029E+04</rscale>
<asrwt>0</asrwt>
<pdfrwt beam="1">  1        2 0.34017872E+00 0.18067029E+04</pdfrwt>
<pdfrwt beam="2">  1       -1 0.56777942E-01 0.18067029E+04</pdfrwt>
<totfact> 0.17176898E+01</totfact>
</mgrwt>
</event>
<event>
12    6  0.1627636E-007  0.1423181E+04  0.7818608E-02  0.8937208E-01
          2   -1    0    0  501    0  0.00000000000E+00  0.00000000000E+00  0.19310549336E+04  0.19310549336E+04  0.00000000000E+00 0. -1.
         -1   -1    0    0    0  501 -0.00000000000E+00 -0.00000000000E+00 -0.26221975144E+03  0.26221975144E+03  0.00000000000E+00 0.  1.
         24    2    1    2    0    0 -0.15914291625E+03 -0.12875868791E+03  0.10697228344E+04  0.10922337879E+04  0.82234041138E+02 0.  0.
        254    2    1    2    0    0  0.15914291625E+03  0.12875868791E+03  0.59911234783E+03  0.11010408972E+04  0.90080529775E+03 0.  0.
         23    2    4    4    0    0  0.49920671040E+03  0.18618550663E+03  0.23277346129E+03  0.58907061484E+03  0.94595572816E+02 0.  0.
         23    2    4    4    0    0 -0.34006379416E+03 -0.57426818725E+02  0.36633888654E+03  0.51197028235E+03  0.94700404475E+02 0.  0.
          2    1    3    3  502    0 -0.12857855779E+03 -0.12440280628E+03  0.75088230638E+03  0.77190202861E+03  0.00000000000E+00 0. -1.
         -1    1    3    3    0  502 -0.30564358455E+02 -0.43558816239E+01  0.31884052798E+03  0.32033175927E+03  0.00000000000E+00 0.  1.
         11    1    5    5    0    0  0.18734087561E+03  0.59045754736E+02  0.38157851005E+02  0.20009754226E+03  0.00000000000E+00 0. -1.
        -11    1    5    5    0    0  0.31186583479E+03  0.12713975190E+03  0.19461561028E+03  0.38897307258E+03  0.00000000000E+00 0.  1.
          1    1    6    6  503    0 -0.87687768806E+01 -0.56799841090E+01  0.49686632988E+02  0.50773173677E+02  0.00000000000E+00 0. -1.
         -1    1    6    6    0  503 -0.33129501728E+03 -0.51746834616E+02  0.31665225355E+03  0.46119710867E+03  0.00000000000E+00 0.  1.
<mgrwt>
<rscale>  0 0.14231806E+04</rscale>
<asrwt>0</asrwt>
<pdfrwt beam="1">  1        2 0.29708537E+00 0.14231806E+04</pdfrwt>
<pdfrwt beam="2">  1       -1 0.40341501E-01 0.14231806E+04</pdfrwt>
<totfact> 0.48456500E+01</totfact>
</mgrwt>
</event>
<event>
12    6  0.1627636E-007  0.2409859E+04  0.7818608E-02  0.8435822E-01
         -1   -1    0    0    0  501 -0.00000000000E+00  0.00000000000E+00  0.18980375762E+04  0.18980375762E+04  0.00000000000E+00 0.  1.
          2   -1    0    0  501    0  0.00000000000E+00 -0.00000000000E+00 -0.76492444034E+03  0.76492444034E+03  0.00000000000E+00 0. -1.
         24    2    1    2    0    0 -0.83836061967E+03  0.38730342924E+02 -0.15804382694E+03  0.85776602561E+03  0.80225528247E+02 0.  0.
        254    2    1    2    0    0  0.83836061967E+03 -0.38730342924E+02  0.12911569628E+04  0.18051959909E+04  0.94196480562E+03 0.  0.
         23    2    4    4    0    0  0.10360173051E+04 -0.63704830580E+02  0.10876044008E+04  0.15061812819E+04  0.91151299439E+02 0.  0.
         23    2    4    4    0    0 -0.19765668538E+03  0.24974487656E+02  0.20355256198E+03  0.29901470906E+03  0.91017912701E+02 0.  0.
          2    1    3    3  502    0 -0.68302768672E+03  0.47473966562E+02 -0.15576532109E+03  0.70217051603E+03  0.00000000000E+00 0. -1.
         -1    1    3    3    0  502 -0.15533293295E+03 -0.87436236378E+01 -0.22785058519E+01  0.15559550958E+03  0.00000000000E+00 0.  1.
         11    1    5    5    0    0  0.91121449729E+01 -0.89437135896E+01  0.74444200163E+01  0.14779735727E+02  0.00000000000E+00 0. -1.
        -11    1    5    5    0    0  0.10269051601E+04 -0.54761116990E+02  0.10801599808E+04  0.14914015462E+04  0.00000000000E+00 0.  1.
          3    1    6    6  503    0  0.69925847254E+01  0.46099094409E+01  0.25996293132E+02  0.27312172429E+02  0.00000000000E+00 0. -1.
         -3    1    6    6    0  503 -0.20464927011E+03  0.20364578215E+02  0.17755626885E+03  0.27170253663E+03  0.00000000000E+00 0.  1.
<mgrwt>
<rscale>  0 0.24098592E+04</rscale>
<asrwt>0</asrwt>
<pdfrwt beam="1">  1        2 0.11768068E+00 0.24098592E+04</pdfrwt>
<pdfrwt beam="2">  1       -1 0.29200578E+00 0.24098592E+04</pdfrwt>
<totfact> 0.13941061E+00</totfact>
</mgrwt>
</event>
<event>
12    6  0.1627636E-007  0.2086061E+04  0.7818608E-02  0.8567409E-01
         -1   -1    0    0    0  501 -0.00000000000E+00  0.00000000000E+00  0.92313055827E+03  0.92313055827E+03  0.00000000000E+00 0.  1.
          2   -1    0    0  501    0  0.00000000000E+00 -0.00000000000E+00 -0.11785037315E+04  0.11785037315E+04  0.00000000000E+00 0. -1.
         24    2    1    2    0    0 -0.90031503515E+02 -0.50734546152E+02  0.72927429807E+03  0.74087954060E+03  0.79886332152E+02 0.  0.
        254    2    1    2    0    0  0.90031503515E+02  0.50734546152E+02 -0.98464747131E+03  0.13607547492E+04  0.93351120981E+03 0.  0.
         23    2    4    4    0    0  0.17344065128E+03  0.18125781167E+03  0.81683491822E+02  0.27930906516E+03  0.91680462677E+02 0.  0.
         23    2    4    4    0    0 -0.83409147766E+02 -0.13052326552E+03 -0.10663309631E+04  0.10814456840E+04  0.92030623982E+02 0.  0.
          4    1    3    3  502    0  0.52390715607E+01 -0.21211808490E+02  0.53582182186E+02  0.57865697421E+02  0.00000000000E+00 0. -1.
         -3    1    3    3    0  502 -0.95270575076E+02 -0.29522737663E+02  0.67569211588E+03  0.68301384318E+03  0.00000000000E+00 0.  1.
         11    1    5    5    0    0  0.15575229034E+03  0.15577413018E+03  0.10145493950E+03  0.24252311298E+03  0.00000000000E+00 0.  1.
        -11    1    5    5    0    0  0.17688360938E+02  0.25483681488E+02 -0.19771447673E+02  0.36785952182E+02  0.00000000000E+00 0. -1.
          3    1    6    6  503    0 -0.69450365224E+01 -0.61239680075E+02 -0.20812269791E+03  0.21705665006E+03  0.00000000000E+00 0. -1.
         -3    1    6    6    0  503 -0.76464111244E+02 -0.69283585444E+02 -0.85820826522E+03  0.86438903395E+03  0.00000000000E+00 0.  1.
<mgrwt>
<rscale>  0 0.20860612E+04</rscale>
<asrwt>0</asrwt>
<pdfrwt beam="1">  1        2 0.18130827E+00 0.20860612E+04</pdfrwt>
<pdfrwt beam="2">  1       -1 0.14202009E+00 0.20860612E+04</pdfrwt>
<totfact> 0.82859527E+00</totfact>
</mgrwt>
</event>
<event>
12    6  0.1627636E-007  0.1391034E+04  0.7818608E-02  0.8960334E-01
         -1   -1    0    0    0  501 -0.00000000000E+00  0.00000000000E+00  0.13954729830E+03  0.13954729830E+03  0.00000000000E+00 0.  1.
          2   -1    0    0  501    0  0.00000000000E+00 -0.00000000000E+00 -0.34665243677E+04  0.34665243677E+04  0.00000000000E+00 0. -1.
         24    2    1    2    0    0  0.37722648662E+02 -0.35733810896E+02 -0.20531403975E+04  0.20553134055E+04  0.78916408455E+02 0.  0.
        254    2    1    2    0    0 -0.37722648662E+02  0.35733810896E+02 -0.12738366719E+04  0.15507582605E+04  0.88288810863E+03 0.  0.
         23    2    4    4    0    0 -0.38688262861E+03 -0.20781028486E+03 -0.67249554329E+03  0.80821997433E+03  0.90033262404E+02 0.  0.
         23    2    4    4    0    0  0.34915997995E+03  0.24354409576E+03 -0.60134112857E+03  0.74253828614E+03  0.92333825265E+02 0.  0.
          2    1    3    3  502    0 -0.21330740928E+01 -0.34717160708E+02 -0.16119642488E+04  0.16123394712E+04  0.00000000000E+00 0. -1.
         -1    1    3    3    0  502  0.39855722754E+02 -0.10166501874E+01 -0.44117614878E+03  0.44297393429E+03  0.00000000000E+00 0.  1.
         11    1    5    5    0    0 -0.21903470330E+03 -0.16531830357E+03 -0.38958521256E+03  0.47653224507E+03  0.00000000000E+00 0. -1.
        -11    1    5    5    0    0 -0.16784792531E+03 -0.42491981288E+02 -0.28291033073E+03  0.33168772926E+03  0.00000000000E+00 0.  1.
          3    1    6    6  503    0  0.13316503834E+03  0.13752569988E+03 -0.31408253348E+03  0.36782344052E+03  0.00000000000E+00 0. -1.
         -3    1    6    6    0  503  0.21599494161E+03  0.10601839588E+03 -0.28725859509E+03  0.37471484561E+03  0.00000000000E+00 0.  1.
<mgrwt>
<rscale>  0 0.13910343E+04</rscale>
<asrwt>0</asrwt>
<pdfrwt beam="1">  1        2 0.53331144E+00 0.13910343E+04</pdfrwt>
<pdfrwt beam="2">  1       -1 0.21468815E-01 0.13910343E+04</pdfrwt>
<totfact> 0.17569274E+01</totfact>
</mgrwt>
</event>
<event>
12    6  0.1627636E-007  0.3595417E+04  0.7818608E-02  0.8091542E-01
          2   -1    0    0  501    0  0.00000000000E+00  0.00000000000E+00  0.19665794675E+04  0.19665794675E+04  0.00000000000E+00 0. -1.
         -1   -1    0    0    0  501 -0.00000000000E+00 -0.00000000000E+00 -0.16433383650E+04  0.16433383650E+04  0.00000000000E+00 0.  1.
         24    2    1    2    0    0  0.15521268463E+04  0.18860643885E+03 -0.48046562494E+03  0.16380262454E+04  0.87250375153E+02 0.  0.
        254    2    1    2    0    0 -0.15521268463E+04 -0.18860643885E+03  0.80370672742E+03  0.19718915872E+04  0.89316392228E+03 0.  0.
         23    2    4    4    0    0 -0.10762620015E+04 -0.22414334836E+03  0.87694483640E+02  0.11065569426E+04  0.90541748826E+02 0.  0.
         23    2    4    4    0    0 -0.47586484474E+03  0.35536909505E+02  0.71601224378E+03  0.86533464451E+03  0.91762145522E+02 0.  0.
          4    1    3    3  502    0  0.20900494810E+03 -0.16906385005E+01 -0.51197660893E+02  0.21519090843E+03  0.00000000000E+00 0. -1.
         -3    1    3    3    0  502  0.13431218982E+04  0.19029707735E+03 -0.42926796405E+03  0.14228353369E+04  0.00000000000E+00 0.  1.
         11    1    5    5    0    0 -0.67098697021E+03 -0.96930805150E+02  0.40287686282E+02  0.67914813763E+03  0.00000000000E+00 0. -1.
        -11    1    5    5    0    0 -0.40527503134E+03 -0.12721254321E+03  0.47406797358E+02  0.42740880502E+03  0.00000000000E+00 0.  1.
          4    1    6    6  503    0 -0.12254492946E+03 -0.29614453048E+02  0.16780462911E+03  0.20988727717E+03  0.00000000000E+00 0. -1.
         -4    1    6    6    0  503 -0.35331991528E+03  0.65151362553E+02  0.54820761467E+03  0.65544736734E+03  0.00000000000E+00 0.  1.
<mgrwt>
<rscale>  0 0.35954168E+04</rscale>
<asrwt>0</asrwt>
<pdfrwt beam="1">  1        2 0.30255069E+00 0.35954168E+04</pdfrwt>
<pdfrwt beam="2">  1       -1 0.25282129E+00 0.35954168E+04</pdfrwt>
<totfact> 0.43221189E-01</totfact>
</mgrwt>
</event>
<event>
12    6  0.1627636E-007  0.1739898E+04  0.7818608E-02  0.8738931E-01
          2   -1    0    0  501    0  0.00000000000E+00  0.00000000000E+00  0.54962324907E+03  0.54962324907E+03  0.00000000000E+00 0. -1.
         -1   -1    0    0    0  501 -0.00000000000E+00 -0.00000000000E+00 -0.13769637132E+04  0.13769637132E+04  0.00000000000E+00 0.  1.
         24    2    1    2    0    0  0.28983382305E+03  0.68074190215E+02 -0.95618116741E+03  0.10047348257E+04  0.81067284764E+02 0.  0.
        254    2    1    2    0    0 -0.28983382305E+03 -0.68074190215E+02  0.12884070327E+03  0.92185213661E+03  0.86288683765E+03 0.  0.
         23    2    4    4    0    0 -0.29013134180E+03 -0.14763076042E+03  0.45937180959E+03  0.56985980448E+03  0.88015341840E+02 0.  0.
         23    2    4    4    0    0  0.29751874352E+00  0.79556570210E+02 -0.33053110632E+03  0.35199233213E+03  0.91205554941E+02 0.  0.
          2    1    3    3  502    0  0.28993332474E+02  0.34617206194E+02 -0.12231945332E+03  0.13038793254E+03  0.00000000000E+00 0. -1.
         -1    1    3    3    0  502  0.26084049058E+03  0.33456984021E+02 -0.83386171409E+03  0.87434689314E+03  0.00000000000E+00 0.  1.
         11    1    5    5    0    0 -0.25963864840E+03 -0.14888852181E+03  0.44459451064E+03  0.53595176888E+03  0.00000000000E+00 0.  1.
        -11    1    5    5    0    0 -0.30492693393E+02  0.12577613892E+01  0.14777298950E+02  0.33908035601E+02  0.00000000000E+00 0. -1.
          2    1    6    6  503    0  0.37175161000E+01  0.28496242723E+02 -0.15150522577E+02  0.32486829787E+02  0.00000000000E+00 0. -1.
         -2    1    6    6    0  503 -0.34199973565E+01  0.51060327487E+02 -0.31538058374E+03  0.31950550234E+03  0.00000000000E+00 0.  1.
<mgrwt>
<rscale>  0 0.17398980E+04</rscale>
<asrwt>0</asrwt>
<pdfrwt beam="1">  1        2 0.84557424E-01 0.17398980E+04</pdfrwt>
<pdfrwt beam="2">  1       -1 0.21184057E+00 0.17398980E+04</pdfrwt>
<totfact> 0.74581081E+00</totfact>
</mgrwt>
</event>
<event>
12    6  0.1627636E-007  0.2436125E+04  0.7818608E-02  0.8426101E-01
          2   -1    0    0  501    0  0.00000000000E+00  0.00000000000E+00  0.36877383064E+04  0.36877383064E+04  0.00000000000E+00 0. -1.
         -1   -1    0    0    0  501 -0.00000000000E+00 -0.00000000000E+00 -0.40232683168E+03  0.40232683168E+03  0.00000000000E+00 0.  1.
         24    2    1    2    0    0 -0.14024313681E+03 -0.66134492577E+03  0.27662513345E+04  0.28486974660E+04  0.76717394398E+02 0.  0.
        254    2    1    2    0    0  0.14024313681E+03  0.66134492577E+03  0.51916014024E+03  0.12413676721E+04  0.90245287854E+03 0.  0.
         23    2    4    4    0    0 -0.83416199584E+02  0.78477311910E+03  0.55379194962E+03  0.96844240772E+03  0.91477116111E+02 0.  0.
         23    2    4    4    0    0  0.22365933640E+03 -0.12342819333E+03 -0.34631809387E+02  0.27292526443E+03  0.89614842952E+02 0.  0.
          4    1    3    3  502    0 -0.10843399699E+03 -0.42717418271E+03  0.19311850256E+04  0.19808360147E+04  0.00000000000E+00 0. -1.
         -1    1    3    3    0  502 -0.31809139828E+02 -0.23417074306E+03  0.83506630897E+03  0.86786145130E+03  0.00000000000E+00 0.  1.
         11    1    5    5    0    0 -0.85155906139E+02  0.66153300382E+03  0.42899174468E+03  0.79303931838E+03  0.00000000000E+00 0. -1.
        -11    1    5    5    0    0  0.17397065551E+01  0.12324011528E+03  0.12480020494E+03  0.17540308933E+03  0.00000000000E+00 0.  1.
          2    1    6    6  503    0  0.17735034755E+03 -0.12481171497E+03 -0.31097327714E+01  0.21688886649E+03  0.00000000000E+00 0. -1.
         -2    1    6    6    0  503  0.46308988850E+02  0.13835216366E+01 -0.31522076616E+02  0.56036397945E+02  0.00000000000E+00 0.  1.
<mgrwt>
<rscale>  0 0.24361248E+04</rscale>
<asrwt>0</asrwt>
<pdfrwt beam="1">  1        2 0.56734433E+00 0.24361248E+04</pdfrwt>
<pdfrwt beam="2">  1       -1 0.61896438E-01 0.24361248E+04</pdfrwt>
<totfact> 0.16130427E+00</totfact>
</mgrwt>
</event>
<event>
12    6  0.2077866E-007  0.2524138E+04  0.7818608E-02  0.8394436E-01
          2   -1    0    0  501    0  0.00000000000E+00  0.00000000000E+00  0.28312079828E+04  0.28312079828E+04  0.00000000000E+00 0. -1.
         -1   -1    0    0    0  501 -0.00000000000E+00 -0.00000000000E+00 -0.56259325931E+03  0.56259325931E+03  0.00000000000E+00 0.  1.
         24    2    1    2    0    0  0.26850315497E+03 -0.20111242070E+03  0.23889205094E+04  0.24137160678E+04  0.80894412042E+02 0.  0.
        254    2    1    2    0    0 -0.26850315497E+03  0.20111242070E+03 -0.12030578597E+03  0.98008517422E+03  0.91299141102E+03 0.  0.
         23    2    4    4    0    0 -0.17898933844E+03 -0.17884587638E+03 -0.40590153663E+03  0.48789425117E+03  0.96237789391E+02 0.  0.
         23    2    4    4    0    0 -0.89513816525E+02  0.37995829708E+03  0.28559575067E+03  0.49219092305E+03  0.91136935813E+02 0.  0.
          2    1    3    3  502    0  0.26773024564E+03 -0.19915330717E+03  0.23883326909E+04  0.24115295077E+04  0.00000000000E+00 0. -1.
         -1    1    3    3    0  502  0.77290933011E+00 -0.19591135263E+01  0.58781853280E+00  0.21865601453E+01  0.00000000000E+00 0.  1.
         11    1    5    5    0    0 -0.81101969551E+02 -0.27846159153E+02 -0.17742938664E+03  0.19706375945E+03  0.00000000000E+00 0.  1.
        -11    1    5    5    0    0 -0.97887368892E+02 -0.15099971723E+03 -0.22847214999E+03  0.29083049172E+03  0.00000000000E+00 0. -1.
          1    1    6    6  503    0 -0.69616817465E+02  0.28402995393E+03  0.16144960224E+03  0.33404414389E+03  0.00000000000E+00 0. -1.
         -1    1    6    6    0  503 -0.19896999060E+02  0.95928343150E+02  0.12414614843E+03  0.15814677916E+03  0.00000000000E+00 0.  1.
<mgrwt>
<rscale>  0 0.25241383E+04</rscale>
<asrwt>0</asrwt>
<pdfrwt beam="1">  1        2 0.43557045E+00 0.25241383E+04</pdfrwt>
<pdfrwt beam="2">  1       -1 0.86552811E-01 0.25241383E+04</pdfrwt>
<totfact> 0.29490346E+00</totfact>
</mgrwt>
</event>
<event>
12    6  0.1627636E-007  0.1539246E+04  0.7818608E-02  0.8858766E-01
          2   -1    0    0  501    0  0.00000000000E+00  0.00000000000E+00  0.22990119812E+04  0.22990119812E+04  0.00000000000E+00 0. -1.
         -1   -1    0    0    0  501 -0.00000000000E+00 -0.00000000000E+00 -0.25764094361E+03  0.25764094361E+03  0.00000000000E+00 0.  1.
         24    2    1    2    0    0 -0.94360175893E+02  0.68608946089E+01  0.15029182320E+04  0.15079457518E+04  0.78652803143E+02 0.  0.
        254    2    1    2    0    0  0.94360175893E+02 -0.68608946089E+01  0.53845280551E+03  0.10487071730E+04  0.89493262107E+03 0.  0.
         23    2    4    4    0    0  0.40485758814E+03  0.23192399577E+03  0.17232529014E+03  0.50494624321E+03  0.87041923386E+02 0.  0.
         23    2    4    4    0    0 -0.31049741225E+03 -0.23878489038E+03  0.36612751537E+03  0.54376092978E+03  0.90552329413E+02 0.  0.
          4    1    3    3  502    0 -0.89639131955E+02 -0.16183589406E+02  0.13650017343E+04  0.13680375789E+04  0.00000000000E+00 0. -1.
         -3    1    3    3    0  502 -0.47210439378E+01  0.23044484015E+02  0.13791649770E+03  0.13990817288E+03  0.00000000000E+00 0.  1.
         11    1    5    5    0    0  0.53894340906E+02  0.16080964308E+02  0.49718223819E+02  0.75067297637E+02  0.00000000000E+00 0. -1.
        -11    1    5    5    0    0  0.35096324723E+03  0.21584303146E+03  0.12260706632E+03  0.42987894558E+03  0.00000000000E+00 0.  1.
          4    1    6    6  503    0 -0.27876253880E+02 -0.46265992738E+02  0.86714073358E+02  0.10216143173E+03  0.00000000000E+00 0.  1.
         -4    1    6    6    0  503 -0.28262115837E+03 -0.19251889764E+03  0.27941344201E+03  0.44159949805E+03  0.00000000000E+00 0. -1.
<mgrwt>
<rscale>  0 0.15392461E+04</rscale>
<asrwt>0</asrwt>
<pdfrwt beam="1">  1        2 0.35369414E+00 0.15392461E+04</pdfrwt>
<pdfrwt beam="2">  1       -1 0.39637070E-01 0.15392461E+04</pdfrwt>
<totfact> 0.30889648E+01</totfact>
</mgrwt>
</event>
<event>
12    6  0.1627636E-007  0.1682293E+04  0.7818608E-02  0.8771528E-01
         -1   -1    0    0    0  501 -0.00000000000E+00  0.00000000000E+00  0.23847849676E+03  0.23847849676E+03  0.00000000000E+00 0.  1.
          2   -1    0    0  501    0  0.00000000000E+00 -0.00000000000E+00 -0.29668404950E+04  0.29668404950E+04  0.00000000000E+00 0. -1.
         24    2    1    2    0    0  0.17238126155E+03 -0.53256289900E+03 -0.15651119220E+04  0.16638359772E+04  0.73731199698E+02 0.  0.
        254    2    1    2    0    0 -0.17238126155E+03  0.53256289900E+03 -0.11632500763E+04  0.15414830146E+04  0.84242542918E+03 0.  0.
         23    2    4    4    0    0 -0.23874009755E+03  0.96371848883E+02  0.21357012145E+02  0.27375280467E+03  0.90554451344E+02 0.  0.
         23    2    4    4    0    0  0.66358836004E+02  0.43619105012E+03 -0.11846070884E+04  0.12677302100E+04  0.95811293739E+02 0.  0.
          2    1    3    3  502    0  0.45777035362E+02 -0.24330977656E+03 -0.74377870741E+03  0.78390174763E+03  0.00000000000E+00 0. -1.
         -1    1    3    3    0  502  0.12660422619E+03 -0.28925312244E+03 -0.82133321459E+03  0.87993422954E+03  0.00000000000E+00 0.  1.
         11    1    5    5    0    0 -0.24138977857E+02  0.25426608396E+02 -0.24953162913E+02  0.43033277889E+02  0.00000000000E+00 0.  1.
        -11    1    5    5    0    0 -0.21460111970E+03  0.70945240487E+02  0.46310175058E+02  0.23071952678E+03  0.00000000000E+00 0. -1.
          2    1    6    6  503    0  0.14166351536E+02  0.22625532749E+03 -0.72781396944E+03  0.76230265174E+03  0.00000000000E+00 0. -1.
         -2    1    6    6    0  503  0.52192484468E+02  0.20993572263E+03 -0.45679311899E+03  0.50542755823E+03  0.00000000000E+00 0.  1.
<mgrwt>
<rscale>  0 0.16822933E+04</rscale>
<asrwt>0</asrwt>
<pdfrwt beam="1">  1        2 0.45643700E+00 0.16822933E+04</pdfrwt>
<pdfrwt beam="2">  1       -1 0.36689000E-01 0.16822933E+04</pdfrwt>
<totfact> 0.14191465E+01</totfact>
</mgrwt>
</event>
<event>
12    6  0.1627636E-007  0.1981612E+04  0.7818608E-02  0.8615266E-01
         -1   -1    0    0    0  501 -0.00000000000E+00  0.00000000000E+00  0.34085137828E+03  0.34085137828E+03  0.00000000000E+00 0.  1.
          2   -1    0    0  501    0  0.00000000000E+00 -0.00000000000E+00 -0.28801309296E+04  0.28801309296E+04  0.00000000000E+00 0. -1.
         24    2    1    2    0    0  0.72952085050E+03  0.23397953916E+03 -0.13553664913E+04  0.15590833660E+04  0.82313549320E+02 0.  0.
        254    2    1    2    0    0 -0.72952085050E+03 -0.23397953916E+03 -0.11839130600E+04  0.16618989418E+04  0.87938095453E+03 0.  0.
         23    2    4    4    0    0 -0.37133101267E+03 -0.37518954737E+03 -0.15245537433E+03  0.55709619446E+03  0.91976145253E+02 0.  0.
         23    2    4    4    0    0 -0.35818983782E+03  0.14121000822E+03 -0.10314576857E+04  0.11048027474E+04  0.91890842535E+02 0.  0.
          2    1    3    3  502    0  0.41711861447E+03  0.15725962164E+03 -0.71777141388E+03  0.84493451208E+03  0.00000000000E+00 0. -1.
         -1    1    3    3    0  502  0.31240223603E+03  0.76719917520E+02 -0.63759507742E+03  0.71414885393E+03  0.00000000000E+00 0.  1.
         11    1    5    5    0    0 -0.37017807583E+03 -0.37659916411E+03 -0.15804768580E+03  0.55121484851E+03  0.00000000000E+00 0.  1.
        -11    1    5    5    0    0 -0.11529368478E+01  0.14096167363E+01  0.55923114683E+01  0.58813459580E+01  0.00000000000E+00 0. -1.
          3    1    6    6  503    0  0.15135845032E+01  0.34848130535E+01 -0.24906515518E-01  0.37994052693E+01  0.00000000000E+00 0. -1.
         -3    1    6    6    0  503 -0.35970342233E+03  0.13772519516E+03 -0.10314327791E+04  0.11010033421E+04  0.00000000000E+00 0.  1.
<mgrwt>
<rscale>  0 0.19816121E+04</rscale>
<asrwt>0</asrwt>
<pdfrwt beam="1">  1        2 0.44309705E+00 0.19816121E+04</pdfrwt>
<pdfrwt beam="2">  1       -1 0.52438675E-01 0.19816121E+04</pdfrwt>
<totfact> 0.80339233E+00</totfact>
</mgrwt>
</event>
<event>
12    6  0.1627636E-007  0.1257508E+04  0.7818608E-02  0.9063957E-01
          2   -1    0    0  501    0  0.00000000000E+00  0.00000000000E+00  0.97697093054E+03  0.97697093054E+03  0.00000000000E+00 0. -1.
         -1   -1    0    0    0  501 -0.00000000000E+00 -0.00000000000E+00 -0.40465043090E+03  0.40465043090E+03  0.00000000000E+00 0.  1.
         24    2    1    2    0    0 -0.24223934710E+03  0.52140133916E+02 -0.41778917771E+02  0.26358411106E+03  0.79577702813E+02 0.  0.
        254    2    1    2    0    0  0.24223934710E+03 -0.52140133916E+02  0.61409941741E+03  0.11180372504E+04  0.90082778816E+03 0.  0.
         23    2    4    4    0    0 -0.22633563855E+03 -0.14286024467E+03 -0.57429585623E+02  0.28914522194E+03  0.93112465770E+02 0.  0.
         23    2    4    4    0    0  0.46857498565E+03  0.90720110753E+02  0.67152900303E+03  0.82889202843E+03  0.91203822312E+02 0.  0.
          2    1    3    3  502    0 -0.40490206198E+02 -0.21012680928E+02 -0.89007510373E+01  0.46478090825E+02  0.00000000000E+00 0. -1.
         -3    1    3    3    0  502 -0.20174914090E+03  0.73152814844E+02 -0.32878166733E+02  0.21710602023E+03  0.00000000000E+00 0.  1.
         11    1    5    5    0    0  0.44248532426E+01  0.67508609822E+01 -0.39138287111E+01  0.89705911399E+01  0.00000000000E+00 0. -1.
        -11    1    5    5    0    0 -0.23076049180E+03 -0.14961110565E+03 -0.53515756912E+02  0.28017463080E+03  0.00000000000E+00 0.  1.
          2    1    6    6  503    0  0.23444784148E+03  0.11610454626E+02  0.38062394295E+03  0.44718584389E+03  0.00000000000E+00 0. -1.
         -2    1    6    6    0  503  0.23412714418E+03  0.79109656128E+02  0.29090506008E+03  0.38170618454E+03  0.00000000000E+00 0.  1.
<mgrwt>
<rscale>  0 0.12575082E+04</rscale>
<asrwt>0</asrwt>
<pdfrwt beam="1">  1        2 0.15030322E+00 0.12575082E+04</pdfrwt>
<pdfrwt beam="2">  1       -1 0.62253913E-01 0.12575082E+04</pdfrwt>
<totfact> 0.76515421E+01</totfact>
</mgrwt>
</event>
<event>
12    6  0.1627636E-007  0.1361527E+04  0.7818608E-02  0.8982148E-01
         -1   -1    0    0    0  501 -0.00000000000E+00  0.00000000000E+00  0.36938239005E+03  0.36938239005E+03  0.00000000000E+00 0.  1.
          2   -1    0    0  501    0  0.00000000000E+00 -0.00000000000E+00 -0.12546318898E+04  0.12546318898E+04  0.00000000000E+00 0. -1.
         24    2    1    2    0    0 -0.12381335806E+03 -0.34341211957E+03 -0.40704524151E+03  0.55264861651E+03  0.80455162638E+02 0.  0.
        254    2    1    2    0    0  0.12381335806E+03  0.34341211957E+03 -0.47820425822E+03  0.10713656633E+04  0.88650067142E+03 0.  0.
         23    2    4    4    0    0  0.31548741171E+03  0.38858067819E+03  0.38860006811E+02  0.51058500438E+03  0.93057488497E+02 0.  0.
         23    2    4    4    0    0 -0.19167405365E+03 -0.45168558612E+02 -0.51706426503E+03  0.56078065892E+03  0.91325526123E+02 0.  0.
          4    1    3    3  502    0 -0.12254508954E+03 -0.23798043881E+03 -0.30684001808E+03  0.40718888114E+03  0.00000000000E+00 0. -1.
         -3    1    3    3    0  502 -0.12682685244E+01 -0.10543168076E+03 -0.10020522343E+03  0.14545973537E+03  0.00000000000E+00 0.  1.
         11    1    5    5    0    0  0.19165862521E+03  0.25758241092E+03 -0.18002973366E+02  0.32156777526E+03  0.00000000000E+00 0. -1.
        -11    1    5    5    0    0  0.12382878649E+03  0.13099826726E+03  0.56862980176E+02  0.18901722912E+03  0.00000000000E+00 0.  1.
          1    1    6    6  503    0 -0.47595600480E+02  0.11392268855E+02 -0.55706929922E+02  0.74151109338E+02  0.00000000000E+00 0. -1.
         -1    1    6    6    0  503 -0.14407845317E+03 -0.56560827468E+02 -0.46135733511E+03  0.48662954959E+03  0.00000000000E+00 0.  1.
<mgrwt>
<rscale>  0 0.13615270E+04</rscale>
<asrwt>0</asrwt>
<pdfrwt beam="1">  1        2 0.19302029E+00 0.13615270E+04</pdfrwt>
<pdfrwt beam="2">  1       -1 0.56828059E-01 0.13615270E+04</pdfrwt>
<totfact> 0.61297887E+01</totfact>
</mgrwt>
</event>
<event>
12    6  0.1627636E-007  0.1168519E+04  0.7818608E-02  0.9140867E-01
          2   -1    0    0  501    0  0.00000000000E+00  0.00000000000E+00  0.89298830689E+03  0.89298830689E+03  0.00000000000E+00 0. -1.
         -1   -1    0    0    0  501 -0.00000000000E+00 -0.00000000000E+00 -0.38226581996E+03  0.38226581996E+03  0.00000000000E+00 0.  1.
         24    2    1    2    0    0 -0.12647597610E+03 -0.14812968869E+03 -0.36173652844E+02  0.21363177389E+03  0.79946384877E+02 0.  0.
        254    2    1    2    0    0  0.12647597610E+03  0.14812968869E+03  0.54689613978E+03  0.10616223530E+04  0.88882397322E+03 0.  0.
         23    2    4    4    0    0  0.72453947622E+02  0.11717766157E+03 -0.22696557956E+03  0.28023834933E+03  0.89665931282E+02 0.  0.
         23    2    4    4    0    0  0.54022028476E+02  0.30952027124E+02  0.77386171934E+03  0.78138400362E+03  0.88445423374E+02 0.  0.
          2    1    3    3  502    0 -0.25882117718E+02 -0.29415406456E+02  0.24954170584E+02  0.46452780154E+02  0.00000000000E+00 0. -1.
         -1    1    3    3    0  502 -0.10059385838E+03 -0.11871428224E+03 -0.61127823428E+02  0.16717899374E+03  0.00000000000E+00 0.  1.
         11    1    5    5    0    0 -0.19926576928E+02  0.15046660079E+02 -0.21842117181E+02  0.33174516282E+02  0.00000000000E+00 0. -1.
        -11    1    5    5    0    0  0.92380524550E+02  0.10213100149E+03 -0.20512346238E+03  0.24706383305E+03  0.00000000000E+00 0.  1.
          1    1    6    6  503    0  0.76791111859E+02  0.32234502625E+02  0.53599340274E+03  0.54242498634E+03  0.00000000000E+00 0. -1.
         -1    1    6    6    0  503 -0.22769083383E+02 -0.12824755007E+01  0.23786831660E+03  0.23895901729E+03  0.00000000000E+00 0.  1.
<mgrwt>
<rscale>  0 0.11685186E+04</rscale>
<asrwt>0</asrwt>
<pdfrwt beam="1">  1        2 0.13738282E+00 0.11685186E+04</pdfrwt>
<pdfrwt beam="2">  1       -1 0.58810126E-01 0.11685186E+04</pdfrwt>
<totfact> 0.98012524E+01</totfact>
</mgrwt>
</event>
<event>
12    6  0.1627636E-007  0.1381410E+04  0.7818608E-02  0.8967386E-01
          2   -1    0    0  501    0  0.00000000000E+00  0.00000000000E+00  0.13468563362E+04  0.13468563362E+04  0.00000000000E+00 0. -1.
         -1   -1    0    0    0  501 -0.00000000000E+00 -0.00000000000E+00 -0.35421275596E+03  0.35421275596E+03  0.00000000000E+00 0.  1.
         24    2    1    2    0    0  0.11007378573E+03  0.14252586033E+03 -0.12690164298E+03  0.23427694430E+03  0.79698183629E+02 0.  0.
        254    2    1    2    0    0 -0.11007378573E+03 -0.14252586033E+03  0.11195452232E+04  0.14667921478E+04  0.93041272508E+03 0.  0.
         23    2    4    4    0    0  0.35034083763E+03 -0.20616223726E+03  0.77818692167E+03  0.88270793315E+03  0.91415751311E+02 0.  0.
         23    2    4    4    0    0 -0.46041462336E+03  0.63636376928E+02  0.34135830152E+03  0.58408421468E+03  0.92723599759E+02 0.  0.
          2    1    3    3  502    0  0.27009848693E+02  0.18998372818E+02  0.73406497951E+01  0.33828320023E+02  0.00000000000E+00 0. -1.
         -1    1    3    3    0  502  0.83063937041E+02  0.12352748751E+03 -0.13424229277E+03  0.20044862428E+03  0.00000000000E+00 0.  1.
         11    1    5    5    0    0  0.30292821786E+03 -0.15676015147E+03  0.70066648121E+03  0.77927708048E+03  0.00000000000E+00 0. -1.
        -11    1    5    5    0    0  0.47412619769E+02 -0.49402085789E+02  0.77520440464E+02  0.10343085267E+03  0.00000000000E+00 0.  1.
          2    1    6    6  503    0 -0.42134128237E+03  0.69537097473E+02  0.27847646509E+03  0.50981665897E+03  0.00000000000E+00 0. -1.
         -2    1    6    6    0  503 -0.39073340992E+02 -0.59007205441E+01  0.62881836423E+02  0.74267555710E+02  0.00000000000E+00 0.  1.
<mgrwt>
<rscale>  0 0.13814104E+04</rscale>
<asrwt>0</asrwt>
<pdfrwt beam="1">  1        2 0.20720866E+00 0.13814104E+04</pdfrwt>
<pdfrwt beam="2">  1       -1 0.54494271E-01 0.13814104E+04</pdfrwt>
<totfact> 0.58662529E+01</totfact>
</mgrwt>
</event>
<event>
12    6  0.1627636E-007  0.2182186E+04  0.7818608E-02  0.8525879E-01
         -1   -1    0    0    0  501 -0.00000000000E+00  0.00000000000E+00  0.93578494809E+03  0.93578494809E+03  0.00000000000E+00 0.  1.
          2   -1    0    0  501    0  0.00000000000E+00 -0.00000000000E+00 -0.12721773668E+04  0.12721773668E+04  0.00000000000E+00 0. -1.
         24    2    1    2    0    0  0.35964005411E+02 -0.85172524707E+03 -0.44273947882E+03  0.96418497227E+03  0.83096982275E+02 0.  0.
        254    2    1    2    0    0 -0.35964005411E+02  0.85172524707E+03  0.10634706015E+03  0.12437773426E+04  0.89941262750E+03 0.  0.
         23    2    4    4    0    0 -0.41690456323E+03  0.26701278024E+03  0.18388955933E+03  0.53574049944E+03  0.89984849027E+02 0.  0.
         23    2    4    4    0    0  0.38094055782E+03  0.58471246683E+03 -0.77542499180E+02  0.70803684314E+03  0.91098598237E+02 0.  0.
          2    1    3    3  502    0  0.59397917642E+02 -0.63682647194E+03 -0.34837101425E+03  0.72831204270E+03  0.00000000000E+00 0. -1.
         -1    1    3    3    0  502 -0.23433912231E+02 -0.21489877514E+03 -0.94368464576E+02  0.23587292957E+03  0.00000000000E+00 0.  1.
         11    1    5    5    0    0 -0.23467974623E+03  0.12688852769E+03  0.55689786267E+02  0.27253739935E+03  0.00000000000E+00 0. -1.
        -11    1    5    5    0    0 -0.18222481700E+03  0.14012425255E+03  0.12819977306E+03  0.26320310009E+03  0.00000000000E+00 0.  1.
          1    1    6    6  503    0  0.27548970436E+03  0.42970780035E+03 -0.15874979850E+02  0.51068129579E+03  0.00000000000E+00 0. -1.
         -1    1    6    6    0  503  0.10545085346E+03  0.15500466648E+03 -0.61667519330E+02  0.19735554734E+03  0.00000000000E+00 0.  1.
<mgrwt>
<rscale>  0 0.21821865E+04</rscale>
<asrwt>0</asrwt>
<pdfrwt beam="1">  1        2 0.19571959E+00 0.21821865E+04</pdfrwt>
<pdfrwt beam="2">  1       -1 0.14396692E+00 0.21821865E+04</pdfrwt>
<totfact> 0.69738400E+00</totfact>
</mgrwt>
</event>
<event>
12    6  0.1627636E-007  0.2185143E+04  0.7818608E-02  0.8524637E-01
         -1   -1    0    0    0  501 -0.00000000000E+00  0.00000000000E+00  0.59208051495E+03  0.59208051495E+03  0.00000000000E+00 0.  1.
          2   -1    0    0  501    0  0.00000000000E+00 -0.00000000000E+00 -0.20161322753E+04  0.20161322753E+04  0.00000000000E+00 0. -1.
         24    2    1    2    0    0 -0.12198332716E+03 -0.34560743076E+02  0.47502089142E+03  0.49806417271E+03  0.79678703465E+02 0.  0.
        254    2    1    2    0    0  0.12198332716E+03  0.34560743076E+02 -0.18990726518E+04  0.21101486175E+04  0.91113987641E+03 0.  0.
         23    2    4    4    0    0 -0.34492837479E+02  0.43167262612E+03 -0.12635205438E+04  0.13393683806E+04  0.99460959141E+02 0.  0.
         23    2    4    4    0    0  0.15647616464E+03 -0.39711188305E+03 -0.63555210801E+03  0.77078023698E+03  0.89403881144E+02 0.  0.
          4    1    3    3  502    0 -0.26519010722E+02 -0.41057171041E+02  0.22752423324E+03  0.23271490269E+03  0.00000000000E+00 0. -1.
         -3    1    3    3    0  502 -0.95464316439E+02  0.64964279643E+01  0.24749665818E+03  0.26534927002E+03  0.00000000000E+00 0.  1.
         11    1    5    5    0    0 -0.25696555164E+02  0.43410046042E+03 -0.12441060662E+04  0.13179163201E+04  0.00000000000E+00 0.  1.
        -11    1    5    5    0    0 -0.87962823150E+01 -0.24278342973E+01 -0.19414477541E+02  0.21452060510E+02  0.00000000000E+00 0. -1.
          1    1    6    6  503    0  0.38398867391E+02 -0.47275984867E+02 -0.51269101546E+02  0.79611635678E+02  0.00000000000E+00 0. -1.
         -1    1    6    6    0  503  0.11807729725E+03 -0.34983589818E+03 -0.58428300646E+03  0.69116860130E+03  0.00000000000E+00 0.  1.
<mgrwt>
<rscale>  0 0.21851431E+04</rscale>
<asrwt>0</asrwt>
<pdfrwt beam="1">  1        2 0.31017420E+00 0.21851431E+04</pdfrwt>
<pdfrwt beam="2">  1       -1 0.91089310E-01 0.21851431E+04</pdfrwt>
<totfact> 0.80177135E+00</totfact>
</mgrwt>
</event>
<event>
12    6  0.1627636E-007  0.1666027E+04  0.7818608E-02  0.8780981E-01
          2   -1    0    0  501    0  0.00000000000E+00  0.00000000000E+00  0.23946681227E+04  0.23946681227E+04  0.00000000000E+00 0. -1.
         -1   -1    0    0    0  501 -0.00000000000E+00 -0.00000000000E+00 -0.28977369865E+03  0.28977369865E+03  0.00000000000E+00 0.  1.
         24    2    1    2    0    0  0.43536541362E+03  0.34411429396E+03  0.10908314635E+04  0.12263884221E+04  0.78470309862E+02 0.  0.
        254    2    1    2    0    0 -0.43536541362E+03 -0.34411429396E+03  0.10140629606E+04  0.14580533992E+04  0.88861596672E+03 0.  0.
         23    2    4    4    0    0 -0.52283662054E+03  0.61720886390E+02  0.84675147834E+03  0.10012652688E+04  0.91523072573E+02 0.  0.
         23    2    4    4    0    0  0.87471206921E+02 -0.40583518035E+03  0.16731148225E+03  0.45678813046E+03  0.91152939499E+02 0.  0.
          4    1    3    3  502    0  0.21636817633E+03  0.14480012791E+03  0.58375946554E+03  0.63918493285E+03  0.00000000000E+00 0. -1.
         -3    1    3    3    0  502  0.21899723729E+03  0.19931416606E+03  0.50707199793E+03  0.58720348927E+03  0.00000000000E+00 0.  1.
         11    1    5    5    0    0 -0.26086996215E+02  0.82774828885E+01  0.93176225520E+02  0.97112600092E+02  0.00000000000E+00 0.  1.
        -11    1    5    5    0    0 -0.49674962433E+03  0.53443403502E+02  0.75357525282E+03  0.90415266869E+03  0.00000000000E+00 0. -1.
          2    1    6    6  503    0  0.10016091555E+03 -0.30323924542E+03  0.10543687782E+03  0.33630816846E+03  0.00000000000E+00 0. -1.
         -2    1    6    6    0  503 -0.12689708624E+02 -0.10259593493E+03  0.61874604432E+02  0.12047996200E+03  0.00000000000E+00 0.  1.
<mgrwt>
<rscale>  0 0.16660274E+04</rscale>
<asrwt>0</asrwt>
<pdfrwt beam="1">  1        2 0.36841047E+00 0.16660274E+04</pdfrwt>
<pdfrwt beam="2">  1       -1 0.44580571E-01 0.16660274E+04</pdfrwt>
<totfact> 0.21707218E+01</totfact>
</mgrwt>
</event>
<event>
12    6  0.1627636E-007  0.2765276E+04  0.7818608E-02  0.8314130E-01
         -1   -1    0    0    0  501 -0.00000000000E+00  0.00000000000E+00  0.18258290297E+04  0.18258290297E+04  0.00000000000E+00 0.  1.
          2   -1    0    0  501    0  0.00000000000E+00 -0.00000000000E+00 -0.10470247073E+04  0.10470247073E+04  0.00000000000E+00 0. -1.
         24    2    1    2    0    0 -0.65352859192E+03 -0.51655310926E+03  0.12918753347E+04  0.15392144036E+04  0.79450391110E+02 0.  0.
        254    2    1    2    0    0  0.65352859192E+03  0.51655310926E+03 -0.51307101229E+03  0.13336393334E+04  0.90632514741E+03 0.  0.
         23    2    4    4    0    0  0.48008016829E+03  0.69310930733E+03 -0.61890390372E+03  0.10497543330E+04  0.89803328596E+02 0.  0.
         23    2    4    4    0    0  0.17344842363E+03 -0.17655619807E+03  0.10583289143E+03  0.28388500036E+03  0.90186727335E+02 0.  0.
          2    1    3    3  502    0 -0.27606840253E+03 -0.24392544775E+03  0.50877078924E+03  0.62814098968E+03  0.00000000000E+00 0. -1.
         -1    1    3    3    0  502 -0.37746018939E+03 -0.27262766150E+03  0.78310454547E+03  0.91107341390E+03  0.00000000000E+00 0.  1.
         11    1    5    5    0    0  0.25947384276E+02  0.61806809764E+02 -0.75910372568E+02  0.10127059370E+03  0.00000000000E+00 0.  1.
        -11    1    5    5    0    0  0.45413278401E+03  0.63130249756E+03 -0.54299353115E+03  0.94848373935E+03  0.00000000000E+00 0. -1.
          1    1    6    6  503    0  0.16603051796E+03 -0.11812417270E+03  0.90907174214E+02  0.22312231487E+03  0.00000000000E+00 0. -1.
         -1    1    6    6    0  503  0.74179056652E+01 -0.58432025374E+02  0.14925717212E+02  0.60762685491E+02  0.00000000000E+00 0.  1.
<mgrwt>
<rscale>  0 0.27652762E+04</rscale>
<asrwt>0</asrwt>
<pdfrwt beam="1">  1        2 0.16108072E+00 0.27652762E+04</pdfrwt>
<pdfrwt beam="2">  1       -1 0.28089677E+00 0.27652762E+04</pdfrwt>
<totfact> 0.10267903E+00</totfact>
</mgrwt>
</event>
<event>
12    6  0.1627636E-007  0.2763013E+04  0.7818608E-02  0.8314844E-01
          2   -1    0    0  501    0  0.00000000000E+00  0.00000000000E+00  0.19795964719E+04  0.19795964719E+04  0.00000000000E+00 0. -1.
         -1   -1    0    0    0  501 -0.00000000000E+00 -0.00000000000E+00 -0.96411613287E+03  0.96411613287E+03  0.00000000000E+00 0.  1.
         24    2    1    2    0    0 -0.74171687584E+03 -0.16063440465E+03  0.14826212517E+04  0.16676006489E+04  0.82333542610E+02 0.  0.
        254    2    1    2    0    0  0.74171687584E+03  0.16063440465E+03 -0.46714091262E+03  0.12761119560E+04  0.91339682286E+03 0.  0.
         23    2    4    4    0    0  0.41705798970E+03  0.53345627365E+03 -0.30483480907E+03  0.74823957919E+03  0.91789129964E+02 0.  0.
         23    2    4    4    0    0  0.32465888614E+03 -0.37282186900E+03 -0.16230610355E+03  0.52787237676E+03  0.88918145196E+02 0.  0.
          2    1    3    3  502    0 -0.56350755761E+03 -0.14246159026E+03  0.10675455182E+04  0.12155202613E+04  0.00000000000E+00 0. -1.
         -1    1    3    3    0  502 -0.17820931823E+03 -0.18172814387E+02  0.41507573351E+03  0.45208038758E+03  0.00000000000E+00 0.  1.
         11    1    5    5    0    0  0.19533912183E+03  0.17817354682E+03 -0.12553628906E+03  0.29268164476E+03  0.00000000000E+00 0. -1.
        -11    1    5    5    0    0  0.22171886787E+03  0.35528272683E+03 -0.17929852000E+03  0.45555793443E+03  0.00000000000E+00 0.  1.
          3    1    6    6  503    0  0.46410717611E+01 -0.31215885249E+02 -0.24403742526E+02  0.39893780070E+02  0.00000000000E+00 0. -1.
         -3    1    6    6    0  503  0.32001781438E+03 -0.34160598375E+03 -0.13790236102E+03  0.48797859669E+03  0.00000000000E+00 0.  1.
<mgrwt>
<rscale>  0 0.27630135E+04</rscale>
<asrwt>0</asrwt>
<pdfrwt beam="1">  1        2 0.30455330E+00 0.27630135E+04</pdfrwt>
<pdfrwt beam="2">  1       -1 0.14832556E+00 0.27630135E+04</pdfrwt>
<totfact> 0.24489055E+00</totfact>
</mgrwt>
</event>
<event>
12    6  0.1627636E-007  0.2513206E+04  0.7818608E-02  0.8398296E-01
         -1   -1    0    0    0  501 -0.00000000000E+00  0.00000000000E+00  0.63331324459E+03  0.63331324459E+03  0.00000000000E+00 0.  1.
          2   -1    0    0  501    0  0.00000000000E+00 -0.00000000000E+00 -0.24933173427E+04  0.24933173427E+04  0.00000000000E+00 0. -1.
         24    2    1    2    0    0 -0.28373212850E+03  0.10072927705E+04 -0.42443903308E+03  0.11339591520E+04  0.10282129811E+03 0.  0.
        254    2    1    2    0    0  0.28373212850E+03 -0.10072927705E+04 -0.14355650650E+04  0.19926714353E+04  0.90263489123E+03 0.  0.
         23    2    4    4    0    0  0.15606358021E+03 -0.38244991870E+03 -0.12540316719E+04  0.13235231662E+04  0.92164830061E+02 0.  0.
         23    2    4    4    0    0  0.12766854829E+03 -0.62484285179E+03 -0.18153339305E+03  0.66914826905E+03  0.89873163524E+02 0.  0.
          2    1    3    3  502    0  0.62140321826E+01  0.23184555833E+02 -0.84463825987E+00  0.24017727597E+02  0.00000000000E+00 0. -1.
         -1    1    3    3    0  502 -0.28994616068E+03  0.98410821466E+03 -0.42359439482E+03  0.11099414244E+04  0.00000000000E+00 0.  1.
         11    1    5    5    0    0  0.28294968169E+02 -0.35743380826E+02 -0.23947118608E+03  0.24377170357E+03  0.00000000000E+00 0. -1.
        -11    1    5    5    0    0  0.12776861204E+03 -0.34670653787E+03 -0.10145604859E+04  0.10797514626E+04  0.00000000000E+00 0.  1.
          1    1    6    6  503    0 -0.10588877140E+02 -0.12955342502E+02 -0.41695769431E+01  0.17243856596E+02  0.00000000000E+00 0. -1.
         -1    1    6    6    0  503  0.13825742543E+03 -0.61188750929E+03 -0.17736381611E+03  0.65190441245E+03  0.00000000000E+00 0.  1.
<mgrwt>
<rscale>  0 0.25132058E+04</rscale>
<asrwt>0</asrwt>
<pdfrwt beam="1">  1        2 0.38358728E+00 0.25132058E+04</pdfrwt>
<pdfrwt beam="2">  1       -1 0.97432807E-01 0.25132058E+04</pdfrwt>
<totfact> 0.35985641E+00</totfact>
</mgrwt>
</event>
<event>
12    6  0.1627636E-007  0.2006702E+04  0.7818608E-02  0.8603494E-01
         -1   -1    0    0    0  501 -0.00000000000E+00  0.00000000000E+00  0.72161174781E+03  0.72161174781E+03  0.00000000000E+00 0.  1.
          2   -1    0    0  501    0  0.00000000000E+00 -0.00000000000E+00 -0.13950897430E+04  0.13950897430E+04  0.00000000000E+00 0. -1.
         24    2    1    2    0    0  0.40486286931E+03  0.32598110988E+03 -0.91408245832E+03  0.10543514567E+04  0.77023545810E+02 0.  0.
        254    2    1    2    0    0 -0.40486286931E+03 -0.32598110988E+03  0.24060446309E+03  0.10623500342E+04  0.89471753115E+03 0.  0.
         23    2    4    4    0    0  0.93735000997E+02 -0.38699104760E+03 -0.13332324076E+03  0.42954443361E+03  0.90471059381E+02 0.  0.
         23    2    4    4    0    0 -0.49859787031E+03  0.61009937723E+02  0.37392770386E+03  0.63280560058E+03  0.91098581975E+02 0.  0.
          2    1    3    3  502    0  0.27972420257E+03  0.19271666026E+03 -0.64612690635E+03  0.72997624602E+03  0.00000000000E+00 0. -1.
         -1    1    3    3    0  502  0.12513866674E+03  0.13326444962E+03 -0.26795555197E+03  0.32437521064E+03  0.00000000000E+00 0.  1.
         11    1    5    5    0    0  0.48581065149E+02 -0.11044427497E+03 -0.34621124837E+01  0.12070643723E+03  0.00000000000E+00 0. -1.
        -11    1    5    5    0    0  0.45153935847E+02 -0.27654677263E+03 -0.12986112828E+03  0.30883799639E+03  0.00000000000E+00 0.  1.
          3    1    6    6  503    0 -0.97378576395E+02  0.47599419664E+02  0.93125902893E+02  0.14290110455E+03  0.00000000000E+00 0. -1.
         -3    1    6    6    0  503 -0.40121929391E+03  0.13410518059E+02  0.28080180096E+03  0.48990449603E+03  0.00000000000E+00 0.  1.
<mgrwt>
<rscale>  0 0.20067019E+04</rscale>
<asrwt>0</asrwt>
<pdfrwt beam="1">  1        2 0.21462919E+00 0.20067019E+04</pdfrwt>
<pdfrwt beam="2">  1       -1 0.11101719E+00 0.20067019E+04</pdfrwt>
<totfact> 0.11509138E+01</totfact>
</mgrwt>
</event>
<event>
12    6  0.1627636E-007  0.1813278E+04  0.7818608E-02  0.8699270E-01
          2   -1    0    0  501    0  0.00000000000E+00  0.00000000000E+00  0.17617692332E+04  0.17617692332E+04  0.00000000000E+00 0. -1.
         -3   -1    0    0    0  501 -0.00000000000E+00 -0.00000000000E+00 -0.46657321697E+03  0.46657321697E+03  0.00000000000E+00 0.  1.
         24    2    1    2    0    0 -0.39205240708E+03 -0.51525933490E+03  0.74781087307E+03  0.99222899840E+03  0.78102568975E+02 0.  0.
        254    2    1    2    0    0  0.39205240708E+03  0.51525933490E+03  0.54738514313E+03  0.12361134517E+04  0.89952693041E+03 0.  0.
         23    2    4    4    0    0 -0.18501946699E+03 -0.12436434988E+03  0.10936699125E+03  0.26543628619E+03  0.93790130421E+02 0.  0.
         23    2    4    4    0    0  0.57707187407E+03  0.63962368478E+03  0.43801815188E+03  0.97067716555E+03  0.90685458429E+02 0.  0.
          2    1    3    3  502    0 -0.18368309232E+02 -0.47245600253E+02  0.84621751929E+02  0.98642700829E+02  0.00000000000E+00 0. -1.
         -1    1    3    3    0  502 -0.37368409785E+03 -0.46801373465E+03  0.66318912114E+03  0.89358629757E+03  0.00000000000E+00 0.  1.
         11    1    5    5    0    0 -0.74770575319E+02 -0.41535589925E+02  0.93354632880E+02  0.12661331543E+03  0.00000000000E+00 0.  1.
        -11    1    5    5    0    0 -0.11024889167E+03 -0.82828759951E+02  0.16012358374E+02  0.13882297076E+03  0.00000000000E+00 0. -1.
          1    1    6    6  503    0  0.36451598480E+03  0.33723757361E+03  0.24764302034E+03  0.55491274066E+03  0.00000000000E+00 0. -1.
         -1    1    6    6    0  503  0.21255588927E+03  0.30238611117E+03  0.19037513154E+03  0.41576442489E+03  0.00000000000E+00 0.  1.
<mgrwt>
<rscale>  0 0.18132781E+04</rscale>
<asrwt>0</asrwt>
<pdfrwt beam="1">  1        2 0.27104142E+00 0.18132781E+04</pdfrwt>
<pdfrwt beam="2">  1       -3 0.71780496E-01 0.18132781E+04</pdfrwt>
<totfact> 0.10090579E+01</totfact>
</mgrwt>
</event>
<event>
12    6  0.1627636E-007  0.1618998E+04  0.7818608E-02  0.8808961E-01
         -1   -1    0    0    0  501 -0.00000000000E+00  0.00000000000E+00  0.82179775066E+03  0.82179775066E+03  0.00000000000E+00 0.  1.
          2   -1    0    0  501    0  0.00000000000E+00 -0.00000000000E+00 -0.79738477836E+03  0.79738477836E+03  0.00000000000E+00 0. -1.
         24    2    1    2    0    0 -0.11226998562E+03 -0.28964845577E+03 -0.45652090864E+03  0.55770392917E+03  0.78240366704E+02 0.  0.
        254    2    1    2    0    0  0.11226998562E+03  0.28964845577E+03  0.48093388094E+03  0.10614785999E+04  0.89383367721E+03 0.  0.
         23    2    4    4    0    0 -0.40642658270E+02 -0.18323121061E+03 -0.14802391953E+03  0.25435035965E+03  0.86934012251E+02 0.  0.
         23    2    4    4    0    0  0.15291264389E+03  0.47287966638E+03  0.62895780047E+03  0.80712824021E+03  0.94183999920E+02 0.  0.
          4    1    3    3  502    0 -0.86646489384E+02 -0.27245072614E+03 -0.38275444764E+03  0.47774258706E+03  0.00000000000E+00 0. -1.
         -3    1    3    3    0  502 -0.25623496233E+02 -0.17197729623E+02 -0.73766460999E+02  0.79961342108E+02  0.00000000000E+00 0.  1.
         11    1    5    5    0    0  0.25051962188E+02 -0.83360339904E+02 -0.68651478490E+02  0.11085834464E+03  0.00000000000E+00 0.  1.
        -11    1    5    5    0    0 -0.65694620457E+02 -0.99870870707E+02 -0.79372441041E+02  0.14349201500E+03  0.00000000000E+00 0. -1.
          3    1    6    6  503    0  0.87750138725E+02  0.38086545393E+03  0.51829212273E+03  0.64914197625E+03  0.00000000000E+00 0. -1.
         -3    1    6    6    0  503  0.65162505162E+02  0.92014212449E+02  0.11066567774E+03  0.15798626396E+03  0.00000000000E+00 0.  1.
<mgrwt>
<rscale>  0 0.16189985E+04</rscale>
<asrwt>0</asrwt>
<pdfrwt beam="1">  1        2 0.12267458E+00 0.16189985E+04</pdfrwt>
<pdfrwt beam="2">  1       -1 0.12643042E+00 0.16189985E+04</pdfrwt>
<totfact> 0.20576959E+01</totfact>
</mgrwt>
</event>
<event>
12    6  0.1627636E-007  0.1806818E+04  0.7818608E-02  0.8702682E-01
          2   -1    0    0  501    0  0.00000000000E+00  0.00000000000E+00  0.27950681394E+04  0.27950681394E+04  0.00000000000E+00 0. -1.
         -1   -1    0    0    0  501 -0.00000000000E+00 -0.00000000000E+00 -0.29199567858E+03  0.29199567858E+03  0.00000000000E+00 0.  1.
         24    2    1    2    0    0 -0.42576442589E+03  0.38457927877E+03  0.33426726788E+03  0.66877773552E+03  0.79702478837E+02 0.  0.
        254    2    1    2    0    0  0.42576442589E+03 -0.38457927877E+03  0.21688051929E+04  0.24182860825E+04  0.90289259809E+03 0.  0.
         23    2    4    4    0    0  0.10536179835E+03  0.87122344237E+02 -0.89690133151E+01  0.16512822144E+03  0.92170900505E+02 0.  0.
         23    2    4    4    0    0  0.32040262754E+03 -0.47170162301E+03  0.21777742062E+04  0.22531578610E+04  0.94125386303E+02 0.  0.
          4    1    3    3  502    0 -0.29663439518E+02  0.51525604147E+02  0.53631764419E+02  0.80069805054E+02  0.00000000000E+00 0. -1.
         -3    1    3    3    0  502 -0.39610098638E+03  0.33305367463E+03  0.28063550346E+03  0.58870793046E+03  0.00000000000E+00 0.  1.
         11    1    5    5    0    0  0.24427776523E+02 -0.18683985076E+02  0.51070018016E+01  0.31175134828E+02  0.00000000000E+00 0.  1.
        -11    1    5    5    0    0  0.80934021831E+02  0.10580632931E+03 -0.14076015117E+02  0.13395308662E+03  0.00000000000E+00 0. -1.
          2    1    6    6  503    0  0.34345765942E+02 -0.11757498501E+03  0.48797488471E+03  0.50311330419E+03  0.00000000000E+00 0.  1.
         -2    1    6    6    0  503  0.28605686160E+03 -0.35412663800E+03  0.16897993215E+04  0.17500445568E+04  0.00000000000E+00 0. -1.
<mgrwt>
<rscale>  0 0.18068180E+04</rscale>
<asrwt>0</asrwt>
<pdfrwt beam="1">  1        2 0.43001047E+00 0.18068180E+04</pdfrwt>
<pdfrwt beam="2">  1       -1 0.44922414E-01 0.18068180E+04</pdfrwt>
<totfact> 0.12320349E+01</totfact>
</mgrwt>
</event>
<event>
12    6  0.1627636E-007  0.3653492E+04  0.7818608E-02  0.8078347E-01
          2   -1    0    0  501    0  0.00000000000E+00  0.00000000000E+00  0.26583326452E+04  0.26583326452E+04  0.00000000000E+00 0. -1.
         -1   -1    0    0    0  501 -0.00000000000E+00 -0.00000000000E+00 -0.12552984079E+04  0.12552984079E+04  0.00000000000E+00 0.  1.
         24    2    1    2    0    0 -0.10831176367E+04  0.10684555907E+04  0.14813340452E+04  0.21250231901E+04  0.81436112025E+02 0.  0.
        254    2    1    2    0    0  0.10831176367E+04 -0.10684555907E+04 -0.78299807915E+02  0.17886078630E+04  0.93714783427E+03 0.  0.
         23    2    4    4    0    0  0.89729984291E+03 -0.84455013559E+03 -0.44219446444E+03  0.13122596634E+04  0.89875135964E+02 0.  0.
         23    2    4    4    0    0  0.18581779382E+03 -0.22390545514E+03  0.36389465652E+03  0.47634819964E+03  0.99128103531E+02 0.  0.
          2    1    3    3  502    0 -0.55036537326E+03  0.56273225670E+03  0.81942552057E+03  0.11362340518E+04  0.00000000000E+00 0. -1.
         -1    1    3    3    0  502 -0.53275226346E+03  0.50572333404E+03  0.66190852466E+03  0.98878913821E+03  0.00000000000E+00 0.  1.
         11    1    5    5    0    0  0.78620718084E+03 -0.70325921243E+03 -0.39557827407E+03  0.11265777479E+04  0.00000000000E+00 0. -1.
        -11    1    5    5    0    0  0.11109266207E+03 -0.14129092317E+03 -0.46616190374E+02  0.18568191549E+03  0.00000000000E+00 0.  1.
          1    1    6    6  503    0  0.15897694547E+03 -0.22708362462E+03  0.34829729337E+03  0.44514227650E+03  0.00000000000E+00 0. -1.
         -1    1    6    6    0  503  0.26840848353E+02  0.31781694765E+01  0.15597363156E+02  0.31205923139E+02  0.00000000000E+00 0.  1.
<mgrwt>
<rscale>  0 0.36534919E+04</rscale>
<asrwt>0</asrwt>
<pdfrwt beam="1">  1        2 0.40897425E+00 0.36534919E+04</pdfrwt>
<pdfrwt beam="2">  1       -1 0.19312283E+00 0.36534919E+04</pdfrwt>
<totfact> 0.43538468E-01</totfact>
</mgrwt>
</event>
<event>
12    6  0.1627636E-007  0.1801710E+04  0.7818608E-02  0.8705391E-01
          2   -1    0    0  501    0  0.00000000000E+00  0.00000000000E+00  0.54025700397E+03  0.54025700397E+03  0.00000000000E+00 0. -1.
         -1   -1    0    0    0  501 -0.00000000000E+00 -0.00000000000E+00 -0.15021367278E+04  0.15021367278E+04  0.00000000000E+00 0.  1.
         24    2    1    2    0    0  0.19140258518E+03 -0.24242506687E+03 -0.10407860746E+04  0.10887771222E+04  0.82432434128E+02 0.  0.
        254    2    1    2    0    0 -0.19140258518E+03  0.24242506687E+03  0.78906350728E+02  0.95361660956E+03  0.89875111304E+03 0.  0.
         23    2    4    4    0    0 -0.21991875357E+03 -0.27964860210E+03 -0.12127977444E+03  0.38659783965E+03  0.90451683804E+02 0.  0.
         23    2    4    4    0    0  0.28516168390E+02  0.52207366897E+03  0.20018612517E+03  0.56701876992E+03  0.89787042699E+02 0.  0.
          2    1    3    3  502    0 -0.20824177191E+01 -0.20162236970E+02 -0.32421791816E+02  0.38236433512E+02  0.00000000000E+00 0. -1.
         -1    1    3    3    0  502  0.19348500289E+03 -0.22226282990E+03 -0.10083642828E+04  0.10505406887E+04  0.00000000000E+00 0.  1.
         11    1    5    5    0    0 -0.91777080227E+02 -0.52100906166E+02 -0.26796643327E+02  0.10888340999E+03  0.00000000000E+00 0. -1.
        -11    1    5    5    0    0 -0.12814167334E+03 -0.22754769594E+03 -0.94483131111E+02  0.27771442965E+03  0.00000000000E+00 0.  1.
          3    1    6    6  503    0  0.23772373491E+02  0.12459737570E+03  0.86656469018E+02  0.15361958012E+03  0.00000000000E+00 0. -1.
         -3    1    6    6    0  503  0.47437948987E+01  0.39747629327E+03  0.11352965615E+03  0.41339918980E+03  0.00000000000E+00 0.  1.
<mgrwt>
<rscale>  0 0.18017102E+04</rscale>
<asrwt>0</asrwt>
<pdfrwt beam="1">  1        2 0.83116463E-01 0.18017102E+04</pdfrwt>
<pdfrwt beam="2">  1       -1 0.23109795E+00 0.18017102E+04</pdfrwt>
<totfact> 0.56286450E+00</totfact>
</mgrwt>
</event>
<event>
12    6  0.1627636E-007  0.2987472E+04  0.7818608E-02  0.8247317E-01
          4   -1    0    0  501    0  0.00000000000E+00  0.00000000000E+00  0.94126054353E+03  0.94126054353E+03  0.00000000000E+00 0. -1.
         -3   -1    0    0    0  501 -0.00000000000E+00 -0.00000000000E+00 -0.23704880273E+04  0.23704880273E+04  0.00000000000E+00 0.  1.
         24    2    1    2    0    0  0.31977793212E+03 -0.75216839246E+03 -0.18473954709E+04  0.20218919344E+04  0.84627134751E+02 0.  0.
        254    2    1    2    0    0 -0.31977793212E+03  0.75216839246E+03  0.41816798715E+03  0.12898566364E+04  0.90600798042E+03 0.  0.
         23    2    4    4    0    0  0.79120442520E+01  0.79923805995E+03  0.48510330637E+03  0.93989692872E+03  0.96109010200E+02 0.  0.
         23    2    4    4    0    0 -0.32768997637E+03 -0.47069667486E+02 -0.66935319226E+02  0.34995970772E+03  0.91625246829E+02 0.  0.
          2    1    3    3  502    0  0.94845527952E+02 -0.24450207929E+03 -0.69104488181E+03  0.73913460860E+03  0.00000000000E+00 0. -1.
         -1    1    3    3    0  502  0.22493240417E+03 -0.50766631317E+03 -0.11563505891E+04  0.12827573258E+04  0.00000000000E+00 0.  1.
         11    1    5    5    0    0  0.47824808647E+02  0.57945696356E+03  0.36049847189E+03  0.68411748492E+03  0.00000000000E+00 0. -1.
        -11    1    5    5    0    0 -0.39912764395E+02  0.21978109639E+03  0.12460483448E+03  0.25577944380E+03  0.00000000000E+00 0.  1.
          4    1    6    6  503    0 -0.52069060743E+01 -0.27490322018E+01 -0.20281580109E+02  0.21118985313E+02  0.00000000000E+00 0.  1.
         -4    1    6    6    0  503 -0.32248307030E+03 -0.44320635284E+02 -0.46653739117E+02  0.32884072241E+03  0.00000000000E+00 0. -1.
<mgrwt>
<rscale>  0 0.29874717E+04</rscale>
<asrwt>0</asrwt>
<pdfrwt beam="1">  1        4 0.14480931E+00 0.29874717E+04</pdfrwt>
<pdfrwt beam="2">  1       -3 0.36469047E+00 0.29874717E+04</pdfrwt>
<totfact> 0.10577728E-02</totfact>
</mgrwt>
</event>
<event>
12    6  0.1627636E-007  0.1684173E+04  0.7818608E-02  0.8770443E-01
         -1   -1    0    0    0  501 -0.00000000000E+00  0.00000000000E+00  0.40354852416E+03  0.40354852416E+03  0.00000000000E+00 0.  1.
          2   -1    0    0  501    0  0.00000000000E+00 -0.00000000000E+00 -0.17571862356E+04  0.17571862356E+04  0.00000000000E+00 0. -1.
         24    2    1    2    0    0  0.16593524926E+03 -0.17306679096E+03  0.21786753392E+03  0.33357244144E+03  0.79483899429E+02 0.  0.
        254    2    1    2    0    0 -0.16593524926E+03  0.17306679096E+03 -0.15715052454E+04  0.18271623184E+04  0.90078120554E+03 0.  0.
         23    2    4    4    0    0  0.98519008740E+02  0.43040286713E+03 -0.12520433175E+04  0.13306586583E+04  0.89929821998E+02 0.  0.
         23    2    4    4    0    0 -0.26445425800E+03 -0.25733607617E+03 -0.31946192793E+03  0.49650366010E+03  0.91115588226E+02 0.  0.
          2    1    3    3  502    0  0.11524276959E+03 -0.12298616157E+03  0.10039763709E+03  0.19617894233E+03  0.00000000000E+00 0. -1.
         -1    1    3    3    0  502  0.50692479674E+02 -0.50080629387E+02  0.11746989683E+03  0.13739349910E+03  0.00000000000E+00 0.  1.
         11    1    5    5    0    0  0.81726026684E+02  0.37663860180E+03 -0.11639489676E+04  0.12260966434E+04  0.00000000000E+00 0.  1.
        -11    1    5    5    0    0  0.16792982055E+02  0.53764265328E+02 -0.88094349894E+02  0.10456201488E+03  0.00000000000E+00 0. -1.
          2    1    6    6  503    0 -0.10724699546E+02  0.72229087557E+01 -0.16380085427E+02  0.20868559841E+02  0.00000000000E+00 0. -1.
         -2    1    6    6    0  503 -0.25372955846E+03 -0.26455898493E+03 -0.30308184251E+03  0.47563510026E+03  0.00000000000E+00 0.  1.
<mgrwt>
<rscale>  0 0.16841733E+04</rscale>
<asrwt>0</asrwt>
<pdfrwt beam="1">  1        2 0.27033635E+00 0.16841733E+04</pdfrwt>
<pdfrwt beam="2">  1       -1 0.62084388E-01 0.16841733E+04</pdfrwt>
<totfact> 0.26028291E+01</totfact>
</mgrwt>
</event>
<event>
12    6  0.1627636E-007  0.1317165E+04  0.7818608E-02  0.9016063E-01
         -1   -1    0    0    0  501 -0.00000000000E+00  0.00000000000E+00  0.34447584394E+03  0.34447584394E+03  0.00000000000E+00 0.  1.
          2   -1    0    0  501    0  0.00000000000E+00 -0.00000000000E+00 -0.12591047812E+04  0.12591047812E+04  0.00000000000E+00 0. -1.
         24    2    1    2    0    0 -0.11584415656E+03 -0.49136671482E+02 -0.63658724222E+03  0.65387127876E+03  0.80436628068E+02 0.  0.
        254    2    1    2    0    0  0.11584415656E+03  0.49136671482E+02 -0.27804169506E+03  0.94970934641E+03  0.89933663184E+03 0.  0.
         23    2    4    4    0    0  0.29871552128E+03 -0.19367318388E+03 -0.45515438178E+03  0.58505238074E+03  0.91545137232E+02 0.  0.
         23    2    4    4    0    0 -0.18287136472E+03  0.24280985537E+03  0.17711268672E+03  0.36465696566E+03  0.95954348052E+02 0.  0.
          4    1    3    3  502    0 -0.12411546630E+03 -0.46820439242E+02 -0.62749551127E+03  0.64136371832E+03  0.00000000000E+00 0. -1.
         -3    1    3    3    0  502  0.82713097404E+01 -0.23162322399E+01 -0.90917309504E+01  0.12507560445E+02  0.00000000000E+00 0.  1.
         11    1    5    5    0    0  0.19036939362E+03 -0.10782826818E+03 -0.34396405857E+03  0.40765023615E+03  0.00000000000E+00 0. -1.
        -11    1    5    5    0    0  0.10834612766E+03 -0.85844915703E+02 -0.11119032321E+03  0.17740214459E+03  0.00000000000E+00 0.  1.
          4    1    6    6  503    0 -0.12705470389E+03  0.11261083424E+03  0.13488934777E+03  0.21683918905E+03  0.00000000000E+00 0. -1.
         -4    1    6    6    0  503 -0.55816660835E+02  0.13019902113E+03  0.42223338955E+02  0.14781777661E+03  0.00000000000E+00 0.  1.
<mgrwt>
<rscale>  0 0.13171654E+04</rscale>
<asrwt>0</asrwt>
<pdfrwt beam="1">  1        2 0.19370843E+00 0.13171654E+04</pdfrwt>
<pdfrwt beam="2">  1       -1 0.52996284E-01 0.13171654E+04</pdfrwt>
<totfact> 0.69984415E+01</totfact>
</mgrwt>
</event>
<event>
12    6  0.1627636E-007  0.1222506E+04  0.7818608E-02  0.9093382E-01
         -1   -1    0    0    0  501 -0.00000000000E+00  0.00000000000E+00  0.41634403940E+03  0.41634403940E+03  0.00000000000E+00 0.  1.
          2   -1    0    0  501    0  0.00000000000E+00 -0.00000000000E+00 -0.89740781787E+03  0.89740781787E+03  0.00000000000E+00 0. -1.
         24    2    1    2    0    0 -0.16607716224E+03 -0.17334789169E+03  0.34637954126E+02  0.25549041264E+03  0.80277317554E+02 0.  0.
        254    2    1    2    0    0  0.16607716224E+03  0.17334789169E+03 -0.51570173260E+03  0.10582614446E+04  0.89237766265E+03 0.  0.
         23    2    4    4    0    0 -0.21134936932E+03  0.13630427558E+03  0.13594624105E+03  0.29883962419E+03  0.87042110935E+02 0.  0.
         23    2    4    4    0    0  0.37742653156E+03  0.37043616106E+02 -0.65164797365E+03  0.75942182043E+03  0.90848244644E+02 0.  0.
          4    1    3    3  502    0 -0.86525018790E+02 -0.10445812617E+03  0.58284258071E+02  0.14763175044E+03  0.00000000000E+00 0. -1.
         -3    1    3    3    0  502 -0.79552143452E+02 -0.68889765517E+02 -0.23646303944E+02  0.10785866220E+03  0.00000000000E+00 0.  1.
         11    1    5    5    0    0 -0.14176698414E+03  0.11093750930E+03  0.13458968412E+03  0.22476519266E+03  0.00000000000E+00 0.  1.
        -11    1    5    5    0    0 -0.69582385186E+02  0.25366766289E+02  0.13565569313E+01  0.74074431532E+02  0.00000000000E+00 0. -1.
          1    1    6    6  503    0  0.45024563792E+02 -0.83301778564E+01 -0.35794722456E+02  0.58119406083E+02  0.00000000000E+00 0. -1.
         -1    1    6    6    0  503  0.33240196777E+03  0.45373793962E+02 -0.61585325119E+03  0.70130241434E+03  0.00000000000E+00 0.  1.
<mgrwt>
<rscale>  0 0.12225063E+04</rscale>
<asrwt>0</asrwt>
<pdfrwt beam="1">  1        2 0.13806274E+00 0.12225063E+04</pdfrwt>
<pdfrwt beam="2">  1       -1 0.64052929E-01 0.12225063E+04</pdfrwt>
<totfact> 0.81833550E+01</totfact>
</mgrwt>
</event>
<event>
12    6  0.1627636E-007  0.1909922E+04  0.7818608E-02  0.8649933E-01
          2   -1    0    0  501    0  0.00000000000E+00  0.00000000000E+00  0.15731083990E+04  0.15731083990E+04  0.00000000000E+00 0. -1.
         -3   -1    0    0    0  501 -0.00000000000E+00 -0.00000000000E+00 -0.57971238701E+03  0.57971238701E+03  0.00000000000E+00 0.  1.
         24    2    1    2    0    0 -0.47745129753E+03  0.46471889046E+03  0.75643116912E+03  0.10112976272E+04  0.81310445564E+02 0.  0.
        254    2    1    2    0    0  0.47745129753E+03 -0.46471889046E+03  0.23696484286E+03  0.11415231588E+04  0.89610233601E+03 0.  0.
         23    2    4    4    0    0 -0.18389948286E+03 -0.15177623456E+03 -0.16258776348E+03  0.30293330148E+03  0.92080177769E+02 0.  0.
         23    2    4    4    0    0  0.66135078038E+03 -0.31294265591E+03  0.39955260634E+03  0.83858985730E+03  0.90954400274E+02 0.  0.
          2    1    3    3  502    0 -0.44388315904E+03  0.43942574122E+03  0.67492681126E+03  0.91959417217E+03  0.00000000000E+00 0. -1.
         -1    1    3    3    0  502 -0.33568138484E+02  0.25293149246E+02  0.81504357858E+02  0.91703455059E+02  0.00000000000E+00 0.  1.
         11    1    5    5    0    0 -0.41965726764E+02 -0.54776607375E+02 -0.41230091531E+01  0.69127405150E+02  0.00000000000E+00 0. -1.
        -11    1    5    5    0    0 -0.14193375609E+03 -0.96999627181E+02 -0.15846475433E+03  0.23380589633E+03  0.00000000000E+00 0.  1.
          3    1    6    6  503    0  0.21285843576E+02 -0.29604049604E+02  0.11422624821E+02  0.38209465417E+02  0.00000000000E+00 0. -1.
         -3    1    6    6    0  503  0.64006493681E+03 -0.28333860630E+03  0.38812998152E+03  0.80038039188E+03  0.00000000000E+00 0.  1.
<mgrwt>
<rscale>  0 0.19099219E+04</rscale>
<asrwt>0</asrwt>
<pdfrwt beam="1">  1        2 0.24201667E+00 0.19099219E+04</pdfrwt>
<pdfrwt beam="2">  1       -3 0.89186522E-01 0.19099219E+04</pdfrwt>
<totfact> 0.78355411E+00</totfact>
</mgrwt>
</event>
<event>
12    6  0.1627636E-007  0.2100833E+04  0.7818608E-02  0.8560876E-01
         -1   -1    0    0    0  501 -0.00000000000E+00  0.00000000000E+00  0.50359586184E+03  0.50359586184E+03  0.00000000000E+00 0.  1.
          2   -1    0    0  501    0  0.00000000000E+00 -0.00000000000E+00 -0.21909929477E+04  0.21909929477E+04  0.00000000000E+00 0. -1.
         24    2    1    2    0    0  0.82038120201E+02 -0.51057915484E+02  0.39927269400E+03  0.41848031256E+03  0.79811803160E+02 0.  0.
        254    2    1    2    0    0 -0.82038120201E+02  0.51057915484E+02 -0.20866697799E+04  0.22761084970E+04  0.90395904547E+03 0.  0.
         23    2    4    4    0    0  0.23240382234E+03 -0.27710998119E+03 -0.13932092969E+04  0.14421274986E+04  0.88871249176E+02 0.  0.
         23    2    4    4    0    0 -0.31444194254E+03  0.32816789667E+03 -0.69346048299E+03  0.83398099840E+03  0.89827393300E+02 0.  0.
          4    1    3    3  502    0  0.48236087574E+02  0.15125544183E+02  0.17951181811E+03  0.18649395452E+03  0.00000000000E+00 0. -1.
         -3    1    3    3    0  502  0.33802032626E+02 -0.66183459666E+02  0.21976087589E+03  0.23198635804E+03  0.00000000000E+00 0.  1.
         11    1    5    5    0    0  0.31227761521E+02 -0.98125176430E+02 -0.40562365807E+03  0.41849047220E+03  0.00000000000E+00 0.  1.
        -11    1    5    5    0    0  0.20117606082E+03 -0.17898480476E+03 -0.98758563881E+03  0.10236370264E+04  0.00000000000E+00 0. -1.
          4    1    6    6  503    0 -0.30254524731E+03  0.33344891724E+03 -0.67541722255E+03  0.81173285729E+03  0.00000000000E+00 0. -1.
         -4    1    6    6    0  503 -0.11896695236E+02 -0.52810205697E+01 -0.18043260437E+02  0.22248141113E+02  0.00000000000E+00 0.  1.
<mgrwt>
<rscale>  0 0.21008332E+04</rscale>
<asrwt>0</asrwt>
<pdfrwt beam="1">  1        2 0.33707583E+00 0.21008332E+04</pdfrwt>
<pdfrwt beam="2">  1       -1 0.77476288E-01 0.21008332E+04</pdfrwt>
<totfact> 0.91498607E+00</totfact>
</mgrwt>
</event>
<event>
12    6  0.1627636E-007  0.1752773E+04  0.7818608E-02  0.8731826E-01
          2   -1    0    0  501    0  0.00000000000E+00  0.00000000000E+00  0.88306022322E+03  0.88306022322E+03  0.00000000000E+00 0. -1.
         -1   -1    0    0    0  501 -0.00000000000E+00 -0.00000000000E+00 -0.86976291426E+03  0.86976291426E+03  0.00000000000E+00 0.  1.
         24    2    1    2    0    0 -0.55699598306E+02  0.54501780995E+03  0.35041464507E+03  0.65540909040E+03  0.81386693520E+02 0.  0.
        254    2    1    2    0    0  0.55699598306E+02 -0.54501780995E+03 -0.33711733611E+03  0.10974140471E+04  0.88911339772E+03 0.  0.
         23    2    4    4    0    0  0.90607085907E+00 -0.30284466265E+02 -0.52887616900E+03  0.53773323639E+03  0.92352918279E+02 0.  0.
         23    2    4    4    0    0  0.54793527447E+02 -0.51473334368E+03  0.19175883289E+03  0.55968081069E+03  0.92295255120E+02 0.  0.
          2    1    3    3  502    0 -0.57528245996E+02  0.45322726943E+03  0.32328299954E+03  0.55967522246E+03  0.00000000000E+00 0. -1.
         -1    1    3    3    0  502  0.18286476895E+01  0.91790540519E+02  0.27131645528E+02  0.95733867937E+02  0.00000000000E+00 0.  1.
         11    1    5    5    0    0 -0.15814136806E+00 -0.43290005304E+02 -0.10391344221E+03  0.11257021382E+03  0.00000000000E+00 0.  1.
        -11    1    5    5    0    0  0.10642122271E+01  0.13005539039E+02 -0.42496272680E+03  0.42516302257E+03  0.00000000000E+00 0. -1.
          4    1    6    6  503    0 -0.43689006803E+00  0.25158391469E+01  0.73347835856E+01  0.77665545638E+01  0.00000000000E+00 0. -1.
         -4    1    6    6    0  503  0.55230417515E+02 -0.51724918283E+03  0.18442404930E+03  0.55191425613E+03  0.00000000000E+00 0.  1.
<mgrwt>
<rscale>  0 0.17527727E+04</rscale>
<asrwt>0</asrwt>
<pdfrwt beam="1">  1        2 0.13585542E+00 0.17527727E+04</pdfrwt>
<pdfrwt beam="2">  1       -1 0.13380968E+00 0.17527727E+04</pdfrwt>
<totfact> 0.15346881E+01</totfact>
</mgrwt>
</event>
<event>
12    6  0.1627636E-007  0.4264658E+04  0.7818608E-02  0.7953186E-01
          2   -1    0    0  501    0  0.00000000000E+00  0.00000000000E+00  0.16763123942E+04  0.16763123942E+04  0.00000000000E+00 0. -1.
         -1   -1    0    0    0  501 -0.00000000000E+00 -0.00000000000E+00 -0.27123982407E+04  0.27123982407E+04  0.00000000000E+00 0.  1.
         24    2    1    2    0    0  0.17269869003E+04  0.64973994412E+03  0.39093193645E+03  0.18877023538E+04  0.77114517666E+02 0.  0.
        254    2    1    2    0    0 -0.17269869003E+04 -0.64973994412E+03 -0.14270177830E+04  0.25010082811E+04  0.90222886245E+03 0.  0.
         23    2    4    4    0    0 -0.17430834994E+04 -0.76547950163E+03 -0.13483042221E+04  0.23346957960E+04  0.92634934805E+02 0.  0.
         23    2    4    4    0    0  0.16096599091E+02  0.11573955751E+03 -0.78713560823E+02  0.16631248506E+03  0.88370087439E+02 0.  0.
          4    1    3    3  502    0  0.14376497420E+04  0.56923206654E+03  0.31684666530E+03  0.15783705951E+04  0.00000000000E+00 0. -1.
         -3    1    3    3    0  502  0.28933715831E+03  0.80507877575E+02  0.74085271149E+02  0.30933175869E+03  0.00000000000E+00 0.  1.
         11    1    5    5    0    0 -0.14371793022E+04 -0.61733993285E+03 -0.10660972787E+04  0.18929226997E+04  0.00000000000E+00 0. -1.
        -11    1    5    5    0    0 -0.30590419725E+03 -0.14813956878E+03 -0.28220694342E+03  0.44177309634E+03  0.00000000000E+00 0.  1.
          1    1    6    6  503    0  0.45802795440E+02  0.95499260784E+02 -0.75807710340E+02  0.13024904540E+03  0.00000000000E+00 0. -1.
         -1    1    6    6    0  503 -0.29706196348E+02  0.20240296725E+02 -0.29058504831E+01  0.36063439659E+02  0.00000000000E+00 0.  1.
<mgrwt>
<rscale>  0 0.42646579E+04</rscale>
<asrwt>0</asrwt>
<pdfrwt beam="1">  1        2 0.25789422E+00 0.42646579E+04</pdfrwt>
<pdfrwt beam="2">  1       -1 0.41729203E+00 0.42646579E+04</pdfrwt>
<totfact> 0.48376423E-02</totfact>
</mgrwt>
</event>
<event>
12    6  0.1627636E-007  0.1954582E+04  0.7818608E-02  0.8628154E-01
         -1   -1    0    0    0  501 -0.00000000000E+00  0.00000000000E+00  0.64325561874E+03  0.64325561874E+03  0.00000000000E+00 0.  1.
          2   -1    0    0  501    0  0.00000000000E+00 -0.00000000000E+00 -0.14847875355E+04  0.14847875355E+04  0.00000000000E+00 0. -1.
         24    2    1    2    0    0 -0.41751095182E+02  0.53770728402E+03 -0.93696630430E+03  0.10840662937E+04  0.80134864906E+02 0.  0.
        254    2    1    2    0    0  0.41751095182E+02 -0.53770728402E+03  0.95434387498E+02  0.10439768605E+04  0.88876750942E+03 0.  0.
         23    2    4    4    0    0 -0.36828739469E+03 -0.74698384155E+02  0.15268801852E+03  0.41586692619E+03  0.91739934716E+02 0.  0.
         23    2    4    4    0    0  0.41003848987E+03 -0.46300889987E+03 -0.57253631018E+02  0.62810993435E+03  0.93462863405E+02 0.  0.
          4    1    3    3  502    0 -0.44341084847E+02  0.53962622464E+03 -0.92644633703E+03  0.10730635627E+04  0.00000000000E+00 0. -1.
         -3    1    3    3    0  502  0.25899896653E+01 -0.19189406172E+01 -0.10519967275E+02  0.11002731071E+02  0.00000000000E+00 0.  1.
         11    1    5    5    0    0 -0.21383601966E+03 -0.95433167784E+00  0.64643321116E+02  0.22339541853E+03  0.00000000000E+00 0.  1.
        -11    1    5    5    0    0 -0.15445137503E+03 -0.73744052478E+02  0.88044697400E+02  0.19247150767E+03  0.00000000000E+00 0. -1.
          3    1    6    6  503    0  0.21102141123E+03 -0.19514286060E+03 -0.63470705580E+02  0.29434554949E+03  0.00000000000E+00 0. -1.
         -3    1    6    6    0  503  0.19901707864E+03 -0.26786603927E+03  0.62170745611E+01  0.33376438486E+03  0.00000000000E+00 0.  1.
<mgrwt>
<rscale>  0 0.19545822E+04</rscale>
<asrwt>0</asrwt>
<pdfrwt beam="1">  1        2 0.22842885E+00 0.19545822E+04</pdfrwt>
<pdfrwt beam="2">  1       -1 0.98962402E-01 0.19545822E+04</pdfrwt>
<totfact> 0.13428652E+01</totfact>
</mgrwt>
</event>
<event>
12    6  0.1627636E-007  0.3459817E+04  0.7818608E-02  0.8123379E-01
          2   -1    0    0  501    0  0.00000000000E+00  0.00000000000E+00  0.31696998038E+04  0.31696998038E+04  0.00000000000E+00 0. -1.
         -1   -1    0    0    0  501 -0.00000000000E+00 -0.00000000000E+00 -0.94412181117E+03  0.94412181117E+03  0.00000000000E+00 0.  1.
         24    2    1    2    0    0 -0.69180593191E+03  0.14027307704E+02  0.27711411365E+04  0.28575158654E+04  0.85915714926E+02 0.  0.
        254    2    1    2    0    0  0.69180593191E+03 -0.14027307704E+02 -0.54556314383E+03  0.12563057496E+04  0.89547349468E+03 0.  0.
         23    2    4    4    0    0  0.61191927424E+03 -0.25859857684E+03 -0.27815356674E+02  0.67121941854E+03  0.91887929728E+02 0.  0.
         23    2    4    4    0    0  0.79886657665E+02  0.24457126913E+03 -0.51774778716E+03  0.58508633101E+03  0.89812359244E+02 0.  0.
          4    1    3    3  502    0 -0.56548739761E+03  0.11384333247E+02  0.23885135076E+04  0.24545676556E+04  0.00000000000E+00 0. -1.
         -3    1    3    3    0  502 -0.12631853430E+03  0.26429744575E+01  0.38262762880E+03  0.40294820976E+03  0.00000000000E+00 0.  1.
         11    1    5    5    0    0  0.36058842346E+02  0.53042018068E+01  0.56647383215E+01  0.36884467305E+02  0.00000000000E+00 0.  1.
        -11    1    5    5    0    0  0.57586043190E+03 -0.26390277864E+03 -0.33480094995E+02  0.63433495124E+03  0.00000000000E+00 0. -1.
          2    1    6    6  503    0  0.77504712665E+02  0.16180569513E+03 -0.27267592709E+03  0.32640500100E+03  0.00000000000E+00 0. -1.
         -2    1    6    6    0  503  0.23819450003E+01  0.82765574008E+02 -0.24507186006E+03  0.25868133002E+03  0.00000000000E+00 0.  1.
<mgrwt>
<rscale>  0 0.34598166E+04</rscale>
<asrwt>0</asrwt>
<pdfrwt beam="1">  1        2 0.48764612E+00 0.34598166E+04</pdfrwt>
<pdfrwt beam="2">  1       -1 0.14524951E+00 0.34598166E+04</pdfrwt>
<totfact> 0.48266267E-01</totfact>
</mgrwt>
</event>
<event>
12    6  0.1627636E-007  0.1688391E+04  0.7818608E-02  0.8768013E-01
         -1   -1    0    0    0  501 -0.00000000000E+00  0.00000000000E+00  0.66891274149E+03  0.66891274149E+03  0.00000000000E+00 0.  1.
          2   -1    0    0  501    0  0.00000000000E+00 -0.00000000000E+00 -0.10654090836E+04  0.10654090836E+04  0.00000000000E+00 0. -1.
         24    2    1    2    0    0  0.17118237447E+03 -0.48822214909E+03 -0.49740396504E+03  0.72204659775E+03  0.79223182791E+02 0.  0.
        254    2    1    2    0    0 -0.17118237447E+03  0.48822214909E+03  0.10090762290E+03  0.10122752274E+04  0.86420744928E+03 0.  0.
         23    2    4    4    0    0 -0.21919123156E+03 -0.43987742034E+02 -0.26482021821E+03  0.35836541621E+03  0.91193783342E+02 0.  0.
         23    2    4    4    0    0  0.48008857087E+02  0.53220989113E+03  0.36572784111E+03  0.65390981116E+03  0.91043774026E+02 0.  0.
          2    1    3    3  502    0  0.79546519332E+02 -0.30261441468E+03 -0.33951945779E+03  0.46171050987E+03  0.00000000000E+00 0. -1.
         -1    1    3    3    0  502  0.91635855142E+02 -0.18560773442E+03 -0.15788450725E+03  0.26033608788E+03  0.00000000000E+00 0.  1.
         11    1    5    5    0    0 -0.10501331471E+03 -0.31716697343E+02 -0.63924901686E+02  0.12696510628E+03  0.00000000000E+00 0.  1.
        -11    1    5    5    0    0 -0.11417791685E+03 -0.12271044691E+02 -0.20089531653E+03  0.23140030993E+03  0.00000000000E+00 0. -1.
          2    1    6    6  503    0  0.26474298255E+02  0.51151928086E+03  0.34612127199E+03  0.61818508401E+03  0.00000000000E+00 0. -1.
         -2    1    6    6    0  503  0.21534558833E+02  0.20690610264E+02  0.19606569121E+02  0.35724727149E+02  0.00000000000E+00 0.  1.
<mgrwt>
<rscale>  0 0.16883906E+04</rscale>
<asrwt>0</asrwt>
<pdfrwt beam="1">  1        2 0.16390909E+00 0.16883906E+04</pdfrwt>
<pdfrwt beam="2">  1       -1 0.10290965E+00 0.16883906E+04</pdfrwt>
<totfact> 0.22191443E+01</totfact>
</mgrwt>
</event>
<event>
12    6  0.1627636E-007  0.2517564E+04  0.7818608E-02  0.8396755E-01
         -1   -1    0    0    0  501 -0.00000000000E+00  0.00000000000E+00  0.77158920802E+03  0.77158920802E+03  0.00000000000E+00 0.  1.
          2   -1    0    0  501    0  0.00000000000E+00 -0.00000000000E+00 -0.20535947199E+04  0.20535947199E+04  0.00000000000E+00 0. -1.
         24    2    1    2    0    0  0.69255063483E+02  0.75049030488E+03 -0.14628000361E+04  0.16473011901E+04  0.76061184503E+02 0.  0.
        254    2    1    2    0    0 -0.69255063483E+02 -0.75049030488E+03  0.18079452418E+03  0.11778827378E+04  0.88695497214E+03 0.  0.
         23    2    4    4    0    0  0.28801885103E+03 -0.64998798806E+03  0.30426256175E+03  0.77824439147E+03  0.87460752359E+02 0.  0.
         23    2    4    4    0    0 -0.35727391452E+03 -0.10050231682E+03 -0.12346803757E+03  0.39963834638E+03  0.81982229245E+02 0.  0.
          2    1    3    3  502    0  0.63850633767E+02  0.64853579145E+03 -0.13156598525E+04  0.14682085763E+04  0.00000000000E+00 0. -1.
         -1    1    3    3    0  502  0.54044297156E+01  0.10195451344E+03 -0.14714018361E+03  0.17909261376E+03  0.00000000000E+00 0.  1.
         11    1    5    5    0    0  0.26080242499E+03 -0.56283045260E+03  0.23382772097E+03  0.66292641096E+03  0.00000000000E+00 0.  1.
        -11    1    5    5    0    0  0.27216426044E+02 -0.87157535463E+02  0.70434840776E+02  0.11531798051E+03  0.00000000000E+00 0. -1.
          3    1    6    6  503    0 -0.71337077293E+01  0.98162126613E+01 -0.89668088321E+01  0.15088123727E+02  0.00000000000E+00 0. -1.
         -3    1    6    6    0  503 -0.35014020679E+03 -0.11031852948E+03 -0.11450122874E+03  0.38455022265E+03  0.00000000000E+00 0.  1.
<mgrwt>
<rscale>  0 0.25175635E+04</rscale>
<asrwt>0</asrwt>
<pdfrwt beam="1">  1        2 0.31593765E+00 0.25175635E+04</pdfrwt>
<pdfrwt beam="2">  1       -1 0.11870603E+00 0.25175635E+04</pdfrwt>
<totfact> 0.40176989E+00</totfact>
</mgrwt>
</event>
<event>
12    6  0.1627636E-007  0.1881211E+04  0.7818608E-02  0.8664266E-01
          2   -1    0    0  501    0  0.00000000000E+00  0.00000000000E+00  0.11218526930E+04  0.11218526930E+04  0.00000000000E+00 0. -1.
         -1   -1    0    0    0  501 -0.00000000000E+00 -0.00000000000E+00 -0.78864079750E+03  0.78864079750E+03  0.00000000000E+00 0.  1.
         24    2    1    2    0    0 -0.11298082410E+03 -0.62315635815E+03  0.25751889001E+03  0.68822996505E+03  0.79094834023E+02 0.  0.
        254    2    1    2    0    0  0.11298082410E+03  0.62315635815E+03  0.75693005463E+02  0.12222635254E+04  0.10426457601E+04 0.  0.
         23    2    4    4    0    0 -0.20603275841E+03  0.99735704117E+02 -0.38001528848E+03  0.45302351775E+03  0.91771345949E+02 0.  0.
         23    2    4    4    0    0  0.31901358251E+03  0.52342065403E+03  0.45570829395E+03  0.76924000766E+03  0.91221123211E+02 0.  0.
          2    1    3    3  502    0 -0.34186570983E+02 -0.18415221631E+03  0.37991506915E+02  0.19111283318E+03  0.00000000000E+00 0. -1.
         -3    1    3    3    0  502 -0.78794253116E+02 -0.43900414184E+03  0.21952738309E+03  0.49711713188E+03  0.00000000000E+00 0.  1.
         11    1    5    5    0    0  0.26130770042E+01 -0.78490949038E+01 -0.33300923200E+02  0.34313087128E+02  0.00000000000E+00 0.  1.
        -11    1    5    5    0    0 -0.20864583542E+03  0.10758479902E+03 -0.34671436528E+03  0.41871043062E+03  0.00000000000E+00 0. -1.
          3    1    6    6  503    0  0.17220267004E+03  0.19999718326E+03  0.21138956318E+03  0.33813929127E+03  0.00000000000E+00 0. -1.
         -3    1    6    6    0  503  0.14681091247E+03  0.32342347077E+03  0.24431873077E+03  0.43110071639E+03  0.00000000000E+00 0.  1.
<mgrwt>
<rscale>  0 0.18812111E+04</rscale>
<asrwt>0</asrwt>
<pdfrwt beam="1">  1        2 0.17259272E+00 0.18812111E+04</pdfrwt>
<pdfrwt beam="2">  1       -1 0.12132935E+00 0.18812111E+04</pdfrwt>
<totfact> 0.13615141E+01</totfact>
</mgrwt>
</event>
<event>
12    6  0.1627636E-007  0.1817792E+04  0.7818608E-02  0.8696895E-01
          2   -1    0    0  501    0  0.00000000000E+00  0.00000000000E+00  0.16931634106E+04  0.16931634106E+04  0.00000000000E+00 0. -1.
         -1   -1    0    0    0  501 -0.00000000000E+00 -0.00000000000E+00 -0.48789838730E+03  0.48789838730E+03  0.00000000000E+00 0.  1.
         24    2    1    2    0    0  0.38547858615E+03  0.30830132752E+03  0.10214667721E+04  0.11372873734E+04  0.79904657318E+02 0.  0.
        254    2    1    2    0    0 -0.38547858615E+03 -0.30830132752E+03  0.18379825121E+03  0.10437744245E+04  0.90113251144E+03 0.  0.
         23    2    4    4    0    0 -0.22380248005E+03  0.10040667274E+03 -0.29082935475E+03  0.39042007226E+03  0.87618886259E+02 0.  0.
         23    2    4    4    0    0 -0.16167610610E+03 -0.40870800026E+03  0.47462760596E+03  0.65335435225E+03  0.91755939881E+02 0.  0.
          4    1    3    3  502    0  0.35615995812E+03  0.25491332723E+03  0.86986307290E+03  0.97390578896E+03  0.00000000000E+00 0. -1.
         -3    1    3    3    0  502  0.29318628029E+02  0.53388000290E+02  0.15160369917E+03  0.16338158442E+03  0.00000000000E+00 0.  1.
         11    1    5    5    0    0 -0.99960293326E+02  0.48057133473E+02 -0.19828442992E+03  0.22719653050E+03  0.00000000000E+00 0.  1.
        -11    1    5    5    0    0 -0.12384218672E+03  0.52349539269E+02 -0.92544924832E+02  0.16322354176E+03  0.00000000000E+00 0. -1.
          1    1    6    6  503    0  0.35012042815E+01 -0.89559677374E+02  0.92846210710E+02  0.12904887867E+03  0.00000000000E+00 0. -1.
         -1    1    6    6    0  503 -0.16517731039E+03 -0.31914832288E+03  0.38178139525E+03  0.52430547358E+03  0.00000000000E+00 0.  1.
<mgrwt>
<rscale>  0 0.18177917E+04</rscale>
<asrwt>0</asrwt>
<pdfrwt beam="1">  1        2 0.26048668E+00 0.18177917E+04</pdfrwt>
<pdfrwt beam="2">  1       -1 0.75061291E-01 0.18177917E+04</pdfrwt>
<totfact> 0.18961259E+01</totfact>
</mgrwt>
</event>
<event>
12    6  0.1627636E-007  0.1465798E+04  0.7818608E-02  0.8907521E-01
          2   -1    0    0  501    0  0.00000000000E+00  0.00000000000E+00  0.36228288312E+03  0.36228288312E+03  0.00000000000E+00 0. -1.
         -1   -1    0    0    0  501 -0.00000000000E+00 -0.00000000000E+00 -0.14826564407E+04  0.14826564407E+04  0.00000000000E+00 0.  1.
         24    2    1    2    0    0  0.31714123882E+02  0.40776250153E+03 -0.56602202964E+03  0.70283989466E+03  0.79542040309E+02 0.  0.
        254    2    1    2    0    0 -0.31714123882E+02 -0.40776250153E+03 -0.55435152792E+03  0.11420994291E+04  0.91093877194E+03 0.  0.
         23    2    4    4    0    0  0.26249512452E+03 -0.32942119548E+03  0.75588130126E+02  0.43751019300E+03  0.90992247680E+02 0.  0.
         23    2    4    4    0    0 -0.29420924840E+03 -0.78341306053E+02 -0.62993965804E+03  0.70458923614E+03  0.83220050619E+02 0.  0.
          4    1    3    3  502    0 -0.10145285645E+02  0.95049938427E+02 -0.87010167689E+02  0.12926015201E+03  0.00000000000E+00 0. -1.
         -3    1    3    3    0  502  0.41859409527E+02  0.31271256310E+03 -0.47901186195E+03  0.57357974265E+03  0.00000000000E+00 0.  1.
         11    1    5    5    0    0  0.12339813027E+03 -0.22423178925E+03  0.56221569606E+02  0.26204552801E+03  0.00000000000E+00 0.  1.
        -11    1    5    5    0    0  0.13909699425E+03 -0.10518940623E+03  0.19366560520E+02  0.17546466499E+03  0.00000000000E+00 0. -1.
          3    1    6    6  503    0 -0.14305209489E+03 -0.84031298890E+01 -0.22527080962E+03  0.26698586500E+03  0.00000000000E+00 0. -1.
         -3    1    6    6    0  503 -0.15115715351E+03 -0.69938176164E+02 -0.40466884843E+03  0.43760337113E+03  0.00000000000E+00 0.  1.
<mgrwt>
<rscale>  0 0.14657981E+04</rscale>
<asrwt>0</asrwt>
<pdfrwt beam="1">  1        2 0.55735829E-01 0.14657981E+04</pdfrwt>
<pdfrwt beam="2">  1       -1 0.22810099E+00 0.14657981E+04</pdfrwt>
<totfact> 0.95789512E+00</totfact>
</mgrwt>
</event>
<event>
12    6  0.1627636E-007  0.1991848E+04  0.7818608E-02  0.8610442E-01
         -1   -1    0    0    0  501 -0.00000000000E+00  0.00000000000E+00  0.56878243116E+03  0.56878243116E+03  0.00000000000E+00 0.  1.
          2   -1    0    0  501    0  0.00000000000E+00 -0.00000000000E+00 -0.17438381846E+04  0.17438381846E+04  0.00000000000E+00 0. -1.
         24    2    1    2    0    0 -0.51569995575E+03 -0.59346541079E+03 -0.55579396709E+03  0.96631249276E+03  0.81885662064E+02 0.  0.
        254    2    1    2    0    0  0.51569995575E+03  0.59346541079E+03 -0.61926178633E+03  0.13463081230E+04  0.90050694825E+03 0.  0.
         23    2    4    4    0    0  0.36418677600E+02  0.61154688322E+03 -0.89031528611E+02  0.62554158473E+03  0.89776114246E+02 0.  0.
         23    2    4    4    0    0  0.47928127815E+03 -0.18081472431E+02 -0.53023025772E+03  0.72076653825E+03  0.91229344137E+02 0.  0.
          2    1    3    3  502    0 -0.12215529375E+03 -0.17450186007E+03 -0.11594350867E+03  0.24251950883E+03  0.00000000000E+00 0. -1.
         -1    1    3    3    0  502 -0.39354466200E+03 -0.41896355071E+03 -0.43985045843E+03  0.72379298394E+03  0.00000000000E+00 0.  1.
         11    1    5    5    0    0  0.42315940728E+02  0.60627167427E+03 -0.79144534806E+02  0.61287832337E+03  0.00000000000E+00 0. -1.
        -11    1    5    5    0    0 -0.58972631284E+01  0.52752089435E+01 -0.98869938042E+01  0.12663261361E+02  0.00000000000E+00 0.  1.
          3    1    6    6  503    0  0.36688838210E+03 -0.17627928691E+02 -0.45828346941E+03  0.58731726275E+03  0.00000000000E+00 0. -1.
         -3    1    6    6    0  503  0.11239289605E+03 -0.45354373955E+00 -0.71946788316E+02  0.13344927550E+03  0.00000000000E+00 0.  1.
<mgrwt>
<rscale>  0 0.19918479E+04</rscale>
<asrwt>0</asrwt>
<pdfrwt beam="1">  1        2 0.26828279E+00 0.19918479E+04</pdfrwt>
<pdfrwt beam="2">  1       -1 0.87504991E-01 0.19918479E+04</pdfrwt>
<totfact> 0.12614036E+01</totfact>
</mgrwt>
</event>
<event>
12    6  0.1627636E-007  0.1031424E+04  0.7818608E-02  0.9274736E-01
         -1   -1    0    0    0  501 -0.00000000000E+00  0.00000000000E+00  0.10951197108E+03  0.10951197108E+03  0.00000000000E+00 0.  1.
          2   -1    0    0  501    0  0.00000000000E+00 -0.00000000000E+00 -0.24285815128E+04  0.24285815128E+04  0.00000000000E+00 0. -1.
         24    2    1    2    0    0 -0.45004685876E+02  0.32910098731E+02 -0.82387485429E+02  0.12754490960E+03  0.79821738026E+02 0.  0.
        254    2    1    2    0    0  0.45004685876E+02 -0.32910098731E+02 -0.22366820563E+04  0.24105485743E+04  0.89715623591E+03 0.  0.
         23    2    4    4    0    0  0.24615313275E+03 -0.29510451066E+03 -0.18575858511E+04  0.18991391411E+04  0.91794586323E+02 0.  0.
         23    2    4    4    0    0 -0.20114844687E+03  0.26219441193E+03 -0.37909620518E+03  0.51140943316E+03  0.92838936954E+02 0.  0.
          2    1    3    3  502    0 -0.65903901065E+01  0.18659820524E+02 -0.84237577349E+02  0.86530870684E+02  0.00000000000E+00 0. -1.
         -1    1    3    3    0  502 -0.38414295770E+02  0.14250278206E+02  0.18500919201E+01  0.41014038921E+02  0.00000000000E+00 0.  1.
         11    1    5    5    0    0  0.13609094444E+03 -0.18208270776E+03 -0.12973614054E+04  0.13171262179E+04  0.00000000000E+00 0. -1.
        -11    1    5    5    0    0  0.11006218831E+03 -0.11302180290E+03 -0.56022444565E+03  0.58201292316E+03  0.00000000000E+00 0.  1.
          3    1    6    6  503    0 -0.17965062019E+03  0.26481788255E+03 -0.34135211663E+03  0.46789328247E+03  0.00000000000E+00 0. -1.
         -3    1    6    6    0  503 -0.21497826686E+02 -0.26234706206E+01 -0.37744088549E+02  0.43516150688E+02  0.00000000000E+00 0.  1.
<mgrwt>
<rscale>  0 0.10314238E+04</rscale>
<asrwt>0</asrwt>
<pdfrwt beam="1">  1        2 0.37362788E+00 0.10314238E+04</pdfrwt>
<pdfrwt beam="2">  1       -1 0.16847997E-01 0.10314238E+04</pdfrwt>
<totfact> 0.11936748E+02</totfact>
</mgrwt>
</event>
<event>
12    6  0.1627636E-007  0.1693255E+04  0.7818608E-02  0.8765221E-01
          2   -1    0    0  501    0  0.00000000000E+00  0.00000000000E+00  0.10053290884E+04  0.10053290884E+04  0.00000000000E+00 0. -1.
         -1   -1    0    0    0  501 -0.00000000000E+00 -0.00000000000E+00 -0.71297818535E+03  0.71297818535E+03  0.00000000000E+00 0.  1.
         24    2    1    2    0    0  0.49786047993E+03  0.32414369998E+03  0.23015892062E+03  0.64181925355E+03  0.77618488645E+02 0.  0.
        254    2    1    2    0    0 -0.49786047993E+03 -0.32414369998E+03  0.62191982459E+02  0.10764880202E+04  0.89555816076E+03 0.  0.
         23    2    4    4    0    0 -0.46024033419E+03 -0.48956564760E+03  0.32257610256E+03  0.75202963593E+03  0.99987713447E+02 0.  0.
         23    2    4    4    0    0 -0.37620145733E+02  0.16542194761E+03 -0.26038412010E+03  0.32445838430E+03  0.93239782412E+02 0.  0.
          4    1    3    3  502    0  0.10424074998E+03  0.90721821750E+02  0.82580845791E+02  0.16098502722E+03  0.00000000000E+00 0. -1.
         -3    1    3    3    0  502  0.39361972995E+03  0.23342187823E+03  0.14757807483E+03  0.48083422633E+03  0.00000000000E+00 0.  1.
         11    1    5    5    0    0 -0.38554422705E+03 -0.35523376662E+03  0.22898716198E+03  0.57207560716E+03  0.00000000000E+00 0. -1.
        -11    1    5    5    0    0 -0.74696107148E+02 -0.13433188098E+03  0.93588940583E+02  0.17995402877E+03  0.00000000000E+00 0.  1.
          3    1    6    6  503    0 -0.60196703703E+02  0.15088895523E+03 -0.24357967850E+03  0.29278350317E+03  0.00000000000E+00 0. -1.
         -3    1    6    6    0  503  0.22576557970E+02  0.14532992388E+02 -0.16804441600E+02  0.31674881136E+02  0.00000000000E+00 0.  1.
<mgrwt>
<rscale>  0 0.16932545E+04</rscale>
<asrwt>0</asrwt>
<pdfrwt beam="1">  1        2 0.15466601E+00 0.16932545E+04</pdfrwt>
<pdfrwt beam="2">  1       -1 0.10968895E+00 0.16932545E+04</pdfrwt>
<totfact> 0.20859279E+01</totfact>
</mgrwt>
</event>
<event>
12    6  0.1627636E-007  0.1755538E+04  0.7818608E-02  0.8730308E-01
         -1   -1    0    0    0  501 -0.00000000000E+00  0.00000000000E+00  0.67050211449E+03  0.67050211449E+03  0.00000000000E+00 0.  1.
          2   -1    0    0  501    0  0.00000000000E+00 -0.00000000000E+00 -0.11491060561E+04  0.11491060561E+04  0.00000000000E+00 0. -1.
         24    2    1    2    0    0  0.17360398923E+03 -0.31287726389E+03 -0.73413772391E+03  0.82054888737E+03  0.79446532674E+02 0.  0.
        254    2    1    2    0    0 -0.17360398923E+03  0.31287726389E+03  0.25553378233E+03  0.99905928319E+03  0.89710167210E+03 0.  0.
         23    2    4    4    0    0 -0.49645143511E+03  0.35507930532E+03  0.23222023954E+03  0.66012440459E+03  0.96398388958E+02 0.  0.
         23    2    4    4    0    0  0.32284744588E+03 -0.42202041428E+02  0.23313542794E+02  0.33893487860E+03  0.91224147274E+02 0.  0.
          2    1    3    3  502    0  0.92820376185E+02 -0.19525749481E+03 -0.52079092373E+03  0.56388323061E+03  0.00000000000E+00 0. -1.
         -1    1    3    3    0  502  0.80783613045E+02 -0.11761976908E+03 -0.21334680018E+03  0.25666565676E+03  0.00000000000E+00 0.  1.
         11    1    5    5    0    0 -0.30523743575E+03  0.18137623108E+03  0.17359029667E+03  0.39522249491E+03  0.00000000000E+00 0. -1.
        -11    1    5    5    0    0 -0.19121399936E+03  0.17370307424E+03  0.58629942871E+02  0.26490190968E+03  0.00000000000E+00 0.  1.
          3    1    6    6  503    0  0.27594869636E+03 -0.16119146018E+02 -0.84999051936E+01  0.27654973925E+03  0.00000000000E+00 0. -1.
         -3    1    6    6    0  503  0.46898749519E+02 -0.26082895410E+02  0.31813447987E+02  0.62385139354E+02  0.00000000000E+00 0.  1.
<mgrwt>
<rscale>  0 0.17555376E+04</rscale>
<asrwt>0</asrwt>
<pdfrwt beam="1">  1        2 0.17678554E+00 0.17555376E+04</pdfrwt>
<pdfrwt beam="2">  1       -1 0.10315417E+00 0.17555376E+04</pdfrwt>
<totfact> 0.19488519E+01</totfact>
</mgrwt>
</event>
<event>
12    6  0.1627636E-007  0.1464878E+04  0.7818608E-02  0.8908150E-01
         -1   -1    0    0    0  501 -0.00000000000E+00  0.00000000000E+00  0.44344184843E+03  0.44344184843E+03  0.00000000000E+00 0.  1.
          2   -1    0    0  501    0  0.00000000000E+00 -0.00000000000E+00 -0.12097803791E+04  0.12097803791E+04  0.00000000000E+00 0. -1.
         24    2    1    2    0    0 -0.38523780458E+03  0.27021196800E+03 -0.35551203219E+03  0.59524812336E+03  0.80677441656E+02 0.  0.
        254    2    1    2    0    0  0.38523780458E+03 -0.27021196800E+03 -0.41082649847E+03  0.10579741042E+04  0.85387828143E+03 0.  0.
         23    2    4    4    0    0 -0.89474313667E+02  0.18614485868E+03 -0.31315994142E+03  0.38595442531E+03  0.90753007026E+02 0.  0.
         23    2    4    4    0    0  0.47471211825E+03 -0.45635682669E+03 -0.97666557046E+02  0.67201967885E+03  0.91970342633E+02 0.  0.
          4    1    3    3  502    0 -0.29174284961E+03  0.16576621192E+03 -0.22737741356E+03  0.40533050158E+03  0.00000000000E+00 0. -1.
         -3    1    3    3    0  502 -0.93494954974E+02  0.10444575608E+03 -0.12813461863E+03  0.18991762178E+03  0.00000000000E+00 0.  1.
         11    1    5    5    0    0 -0.10538715272E+03  0.13551644065E+03 -0.22435361861E+03  0.28249903332E+03  0.00000000000E+00 0.  1.
        -11    1    5    5    0    0  0.15912839058E+02  0.50628418036E+02 -0.88806322808E+02  0.10345539198E+03  0.00000000000E+00 0. -1.
          2    1    6    6  503    0  0.25664924267E+01  0.35084490105E+01  0.30085935397E+01  0.52865615406E+01  0.00000000000E+00 0. -1.
         -2    1    6    6    0  503  0.47214562582E+03 -0.45986527570E+03 -0.10067515059E+03  0.66673311731E+03  0.00000000000E+00 0.  1.
<mgrwt>
<rscale>  0 0.14648785E+04</rscale>
<asrwt>0</asrwt>
<pdfrwt beam="1">  1        2 0.18612005E+00 0.14648785E+04</pdfrwt>
<pdfrwt beam="2">  1       -1 0.68221824E-01 0.14648785E+04</pdfrwt>
<totfact> 0.44897631E+01</totfact>
</mgrwt>
</event>
<event>
12    6  0.1627636E-007  0.1420185E+04  0.7818608E-02  0.8939336E-01
         -1   -1    0    0    0  501 -0.00000000000E+00  0.00000000000E+00  0.83321674463E+03  0.83321674463E+03  0.00000000000E+00 0.  1.
          2   -1    0    0  501    0  0.00000000000E+00 -0.00000000000E+00 -0.60516251381E+03  0.60516251381E+03  0.00000000000E+00 0. -1.
         24    2    1    2    0    0 -0.33528766354E+03 -0.45642583848E+02 -0.19416983282E+03  0.39724838909E+03  0.74855165953E+02 0.  0.
        254    2    1    2    0    0  0.33528766354E+03  0.45642583848E+02  0.42222406364E+03  0.10411308694E+04  0.88948258242E+03 0.  0.
         23    2    4    4    0    0 -0.26166838385E+03 -0.11300501289E+03  0.25453503571E+03  0.39471828799E+03  0.98863372513E+02 0.  0.
         23    2    4    4    0    0  0.59695604739E+03  0.15864759674E+03  0.16768902794E+03  0.64641258137E+03  0.90576116075E+02 0.  0.
          4    1    3    3  502    0 -0.23854064800E+03 -0.41536593128E+02 -0.17444475325E+03  0.29842570474E+03  0.00000000000E+00 0. -1.
         -3    1    3    3    0  502 -0.96747015543E+02 -0.41059907203E+01 -0.19725079573E+02  0.98822684342E+02  0.00000000000E+00 0.  1.
         11    1    5    5    0    0 -0.80282518954E+02 -0.51983068855E+02  0.31197129067E+02  0.10060210315E+03  0.00000000000E+00 0. -1.
        -11    1    5    5    0    0 -0.18138586490E+03 -0.61021944031E+02  0.22333790664E+03  0.29411618483E+03  0.00000000000E+00 0.  1.
          3    1    6    6  503    0  0.14163937026E+03  0.24327576922E+02  0.23658834199E+01  0.14373287589E+03  0.00000000000E+00 0. -1.
         -3    1    6    6    0  503  0.45531667713E+03  0.13432001981E+03  0.16532314452E+03  0.50267970549E+03  0.00000000000E+00 0.  1.
<mgrwt>
<rscale>  0 0.14201853E+04</rscale>
<asrwt>0</asrwt>
<pdfrwt beam="1">  1        2 0.93101925E-01 0.14201853E+04</pdfrwt>
<pdfrwt beam="2">  1       -1 0.12818719E+00 0.14201853E+04</pdfrwt>
<totfact> 0.28650581E+01</totfact>
</mgrwt>
</event>
<event>
12    6  0.1627636E-007  0.2489588E+04  0.7818608E-02  0.8406704E-01
          2   -1    0    0  501    0  0.00000000000E+00  0.00000000000E+00  0.24652573404E+04  0.24652573404E+04  0.00000000000E+00 0. -1.
         -1   -1    0    0    0  501 -0.00000000000E+00 -0.00000000000E+00 -0.62853966592E+03  0.62853966592E+03  0.00000000000E+00 0.  1.
         24    2    1    2    0    0  0.26164804486E+03 -0.42085357881E+03  0.19956087709E+04  0.20577036858E+04  0.78183487405E+02 0.  0.
        254    2    1    2    0    0 -0.26164804486E+03  0.42085357881E+03 -0.15889109648E+03  0.10360933205E+04  0.89591604187E+03 0.  0.
         23    2    4    4    0    0  0.21760734603E+03  0.31561549754E+03 -0.32397967849E+03  0.51057188041E+03  0.93566626836E+02 0.  0.
         23    2    4    4    0    0 -0.47925539089E+03  0.10523808127E+03  0.16508858201E+03  0.52552144009E+03  0.90320322419E+02 0.  0.
          2    1    3    3  502    0  0.17002078004E+03 -0.20072184612E+03  0.10180505377E+04  0.10514861970E+04  0.00000000000E+00 0. -1.
         -1    1    3    3    0  502  0.91627264823E+02 -0.22013173268E+03  0.97755823321E+03  0.10062174888E+04  0.00000000000E+00 0.  1.
         11    1    5    5    0    0  0.43822617666E+02  0.13490767140E+02 -0.32311655795E+02  0.56093366072E+02  0.00000000000E+00 0.  1.
        -11    1    5    5    0    0  0.17378472836E+03  0.30212473040E+03 -0.29166802270E+03  0.45447851434E+03  0.00000000000E+00 0. -1.
          2    1    6    6  503    0 -0.18506202791E+03  0.34037338049E+02  0.10970009366E+03  0.21780864332E+03  0.00000000000E+00 0. -1.
         -2    1    6    6    0  503 -0.29419336298E+03  0.71200743217E+02  0.55388488347E+02  0.30771279677E+03  0.00000000000E+00 0.  1.
<mgrwt>
<rscale>  0 0.24895879E+04</rscale>
<asrwt>0</asrwt>
<pdfrwt beam="1">  1        2 0.37927035E+00 0.24895879E+04</pdfrwt>
<pdfrwt beam="2">  1       -1 0.96698412E-01 0.24895879E+04</pdfrwt>
<totfact> 0.38078686E+00</totfact>
</mgrwt>
</event>
<event>
12    6  0.1627636E-007  0.1678604E+04  0.7818608E-02  0.8773662E-01
         -1   -1    0    0    0  501 -0.00000000000E+00  0.00000000000E+00  0.78166315005E+03  0.78166315005E+03  0.00000000000E+00 0.  1.
          2   -1    0    0  501    0  0.00000000000E+00 -0.00000000000E+00 -0.90119150822E+03  0.90119150822E+03  0.00000000000E+00 0. -1.
         24    2    1    2    0    0  0.13023903961E+03  0.55487852415E+03  0.91825096964E+02  0.58275554866E+03  0.79497151283E+02 0.  0.
        254    2    1    2    0    0 -0.13023903961E+03 -0.55487852415E+03 -0.21135345513E+03  0.11000991096E+04  0.91689442356E+03 0.  0.
         23    2    4    4    0    0 -0.29520370529E+03 -0.36825447841E+03 -0.50995245460E+03  0.70076543822E+03  0.90907122678E+02 0.  0.
         23    2    4    4    0    0  0.16496466568E+03 -0.18662404574E+03  0.29859899947E+03  0.39933367139E+03  0.90907333293E+02 0.  0.
          4    1    3    3  502    0  0.55939322607E+02  0.11033917948E+03  0.34423459167E+02  0.12840917756E+03  0.00000000000E+00 0. -1.
         -3    1    3    3    0  502  0.74299717007E+02  0.44453934467E+03  0.57401637797E+02  0.45434637110E+03  0.00000000000E+00 0.  1.
         11    1    5    5    0    0 -0.54934577527E+02 -0.86228138680E+02 -0.62487581351E+02  0.11982402735E+03  0.00000000000E+00 0. -1.
        -11    1    5    5    0    0 -0.24026912777E+03 -0.28202633973E+03 -0.44746487325E+03  0.58094141086E+03  0.00000000000E+00 0.  1.
          1    1    6    6  503    0  0.10783499856E+03 -0.78367551209E+02  0.10245033623E+03  0.16812474949E+03  0.00000000000E+00 0. -1.
         -1    1    6    6    0  503  0.57129667118E+02 -0.10825649453E+03  0.19614866325E+03  0.23120892190E+03  0.00000000000E+00 0.  1.
<mgrwt>
<rscale>  0 0.16786044E+04</rscale>
<asrwt>0</asrwt>
<pdfrwt beam="1">  1        2 0.13864485E+00 0.16786044E+04</pdfrwt>
<pdfrwt beam="2">  1       -1 0.12025587E+00 0.16786044E+04</pdfrwt>
<totfact> 0.19610054E+01</totfact>
</mgrwt>
</event>
<event>
12    6  0.1627636E-007  0.2326748E+04  0.7818608E-02  0.8467449E-01
         -1   -1    0    0    0  501 -0.00000000000E+00  0.00000000000E+00  0.20432390811E+04  0.20432390811E+04  0.00000000000E+00 0.  1.
          2   -1    0    0  501    0  0.00000000000E+00 -0.00000000000E+00 -0.66239854782E+03  0.66239854782E+03  0.00000000000E+00 0. -1.
         24    2    1    2    0    0  0.14865887351E+03  0.86685091744E+03  0.11226156349E+04  0.14284658037E+04  0.81967766741E+02 0.  0.
        254    2    1    2    0    0 -0.14865887351E+03 -0.86685091744E+03  0.25822489838E+03  0.12771718253E+04  0.88935808275E+03 0.  0.
         23    2    4    4    0    0  0.83764879283E+02 -0.97043567538E+03  0.19251183408E+03  0.99710298968E+03  0.91605735205E+02 0.  0.
         23    2    4    4    0    0 -0.23242375279E+03  0.10358475794E+03  0.65713064307E+02  0.28006883558E+03  0.96797432320E+02 0.  0.
          4    1    3    3  502    0  0.41421912007E+02  0.20650437022E+03  0.32708653487E+03  0.38903140106E+03  0.00000000000E+00 0. -1.
         -3    1    3    3    0  502  0.10723696150E+03  0.66034654722E+03  0.79552910004E+03  0.10394344026E+04  0.00000000000E+00 0.  1.
         11    1    5    5    0    0  0.78465230018E+02 -0.46356949056E+03  0.11817413132E+03  0.48478715970E+03  0.00000000000E+00 0. -1.
        -11    1    5    5    0    0  0.52996492646E+01 -0.50686618482E+03  0.74337702758E+02  0.51231582998E+03  0.00000000000E+00 0.  1.
          2    1    6    6  503    0 -0.16318139518E+03  0.55577843468E+02 -0.13334303056E+01  0.17239153823E+03  0.00000000000E+00 0. -1.
         -2    1    6    6    0  503 -0.69242357614E+02  0.48006914472E+02  0.67046494613E+02  0.10767729735E+03  0.00000000000E+00 0.  1.
<mgrwt>
<rscale>  0 0.23267476E+04</rscale>
<asrwt>0</asrwt>
<pdfrwt beam="1">  1        2 0.10190747E+00 0.23267476E+04</pdfrwt>
<pdfrwt beam="2">  1       -1 0.31434447E+00 0.23267476E+04</pdfrwt>
<totfact> 0.12084328E+00</totfact>
</mgrwt>
</event>
<event>
12    6  0.1627636E-007  0.1833689E+04  0.7818608E-02  0.8688586E-01
         -1   -1    0    0    0  501 -0.00000000000E+00  0.00000000000E+00  0.72930409487E+03  0.72930409487E+03  0.00000000000E+00 0.  1.
          2   -1    0    0  501    0  0.00000000000E+00 -0.00000000000E+00 -0.11526114534E+04  0.11526114534E+04  0.00000000000E+00 0. -1.
         24    2    1    2    0    0 -0.29737640108E+02 -0.38995974631E+03  0.41874346164E+03  0.57827380455E+03  0.78112581445E+02 0.  0.
        254    2    1    2    0    0  0.29737640108E+02  0.38995974631E+03 -0.84205082020E+03  0.13036417438E+04  0.91513894097E+03 0.  0.
         23    2    4    4    0    0  0.65622717412E+02 -0.28038396486E+02  0.16755199316E+03  0.20646746766E+03  0.97276163948E+02 0.  0.
         23    2    4    4    0    0 -0.35885077304E+02  0.41799814279E+03 -0.10096028134E+04  0.10971742761E+04  0.92105185644E+02 0.  0.
          4    1    3    3  502    0 -0.23077361795E+02 -0.91650591299E+02  0.14659533019E+03  0.17442071651E+03  0.00000000000E+00 0. -1.
         -3    1    3    3    0  502 -0.66602783122E+01 -0.29830915501E+03  0.27214813145E+03  0.40385308804E+03  0.00000000000E+00 0.  1.
         11    1    5    5    0    0  0.62108727819E+02 -0.31263846921E+02  0.42854592722E+02  0.81678873113E+02  0.00000000000E+00 0.  1.
        -11    1    5    5    0    0  0.35139895922E+01  0.32254504345E+01  0.12469740044E+03  0.12478859455E+03  0.00000000000E+00 0. -1.
          4    1    6    6  503    0 -0.97430710121E+00  0.41739463868E+02 -0.19179112705E+03  0.19628287886E+03  0.00000000000E+00 0. -1.
         -4    1    6    6    0  503 -0.34910770203E+02  0.37625867892E+03 -0.81781168631E+03  0.90089139723E+03  0.00000000000E+00 0.  1.
<mgrwt>
<rscale>  0 0.18336895E+04</rscale>
<asrwt>0</asrwt>
<pdfrwt beam="1">  1        2 0.17732484E+00 0.18336895E+04</pdfrwt>
<pdfrwt beam="2">  1       -1 0.11220063E+00 0.18336895E+04</pdfrwt>
<totfact> 0.15815633E+01</totfact>
</mgrwt>
</event>
<event>
12    6  0.1627636E-007  0.2593230E+04  0.7818608E-02  0.8370504E-01
         -1   -1    0    0    0  501 -0.00000000000E+00  0.00000000000E+00  0.10035811383E+04  0.10035811383E+04  0.00000000000E+00 0.  1.
          2   -1    0    0  501    0  0.00000000000E+00 -0.00000000000E+00 -0.16752116691E+04  0.16752116691E+04  0.00000000000E+00 0. -1.
         24    2    1    2    0    0 -0.57669946060E+03 -0.72514927390E+03 -0.98103785098E+03  0.13521359740E+04  0.86096978537E+02 0.  0.
        254    2    1    2    0    0  0.57669946060E+03  0.72514927390E+03  0.30940732022E+03  0.13266568335E+04  0.89769801529E+03 0.  0.
         23    2    4    4    0    0 -0.22075276132E+03  0.11506933209E+03  0.15405984933E+03  0.30650201563E+03  0.90754149156E+02 0.  0.
         23    2    4    4    0    0  0.79745222192E+03  0.61007994181E+03  0.15534747089E+03  0.10201548178E+04  0.91953433812E+02 0.  0.
          4    1    3    3  502    0 -0.50683359283E+03 -0.64063506902E+03 -0.90228511609E+03  0.12171327016E+04  0.00000000000E+00 0. -1.
         -3    1    3    3    0  502 -0.69865867767E+02 -0.84514204879E+02 -0.78752734887E+02  0.13500327239E+03  0.00000000000E+00 0.  1.
         11    1    5    5    0    0 -0.10593980092E+03  0.53776060451E+01  0.57511582202E+02  0.12066375658E+03  0.00000000000E+00 0. -1.
        -11    1    5    5    0    0 -0.11481296041E+03  0.10969172604E+03  0.96548267126E+02  0.18583825905E+03  0.00000000000E+00 0.  1.
          2    1    6    6  503    0  0.67245671012E+03  0.55232749168E+03  0.14339748920E+03  0.88194474031E+03  0.00000000000E+00 0. -1.
         -2    1    6    6    0  503  0.12499551180E+03  0.57752450127E+02  0.11949981689E+02  0.13821007752E+03  0.00000000000E+00 0.  1.
<mgrwt>
<rscale>  0 0.25932303E+04</rscale>
<asrwt>0</asrwt>
<pdfrwt beam="1">  1        2 0.25772487E+00 0.25932303E+04</pdfrwt>
<pdfrwt beam="2">  1       -1 0.15439710E+00 0.25932303E+04</pdfrwt>
<totfact> 0.32904669E+00</totfact>
</mgrwt>
</event>
<event>
12    6  0.1627636E-007  0.2483249E+04  0.7818608E-02  0.8408978E-01
         -3   -1    0    0    0  501 -0.00000000000E+00  0.00000000000E+00  0.10996689596E+04  0.10996689596E+04  0.00000000000E+00 0.  1.
          2   -1    0    0  501    0  0.00000000000E+00 -0.00000000000E+00 -0.14019047106E+04  0.14019047106E+04  0.00000000000E+00 0. -1.
         24    2    1    2    0    0 -0.64183456572E+03  0.13771622786E+03  0.71037643473E+03  0.97051278674E+03  0.79643085267E+02 0.  0.
        254    2    1    2    0    0  0.64183456572E+03 -0.13771622786E+03 -0.10126121857E+04  0.15310608835E+04  0.94225613351E+03 0.  0.
         23    2    4    4    0    0  0.34475132251E+03 -0.40490720914E+03 -0.12639307485E+03  0.55456277487E+03  0.93602027276E+02 0.  0.
         23    2    4    4    0    0  0.29708324321E+03  0.26719098128E+03 -0.88621911084E+03  0.97649810861E+03  0.92275510467E+02 0.  0.
          2    1    3    3  502    0 -0.42208452856E+03  0.57785478498E+02  0.42800845625E+03  0.60389216702E+03  0.00000000000E+00 0. -1.
         -1    1    3    3    0  502 -0.21975003716E+03  0.79930749366E+02  0.28236797849E+03  0.36662061972E+03  0.00000000000E+00 0.  1.
         11    1    5    5    0    0  0.10218081175E+03 -0.61999572055E+02 -0.19001577705E+02  0.12102035027E+03  0.00000000000E+00 0.  1.
        -11    1    5    5    0    0  0.24257051076E+03 -0.34290763709E+03 -0.10739149715E+03  0.43354242460E+03  0.00000000000E+00 0. -1.
          4    1    6    6  503    0  0.19868197461E+03  0.17874267854E+03 -0.48143455442E+03  0.55063844976E+03  0.00000000000E+00 0. -1.
         -4    1    6    6    0  503  0.98401268600E+02  0.88448302738E+02 -0.40478455643E+03  0.42585965886E+03  0.00000000000E+00 0.  1.
<mgrwt>
<rscale>  0 0.24832488E+04</rscale>
<asrwt>0</asrwt>
<pdfrwt beam="1">  1        2 0.21567765E+00 0.24832488E+04</pdfrwt>
<pdfrwt beam="2">  1       -3 0.16917984E+00 0.24832488E+04</pdfrwt>
<totfact> 0.19106494E+00</totfact>
</mgrwt>
</event>
<event>
12    6  0.1627636E-007  0.1887603E+04  0.7818608E-02  0.8661052E-01
          2   -1    0    0  501    0  0.00000000000E+00  0.00000000000E+00  0.18928676904E+04  0.18928676904E+04  0.00000000000E+00 0. -1.
         -1   -1    0    0    0  501 -0.00000000000E+00 -0.00000000000E+00 -0.47058839002E+03  0.47058839002E+03  0.00000000000E+00 0.  1.
         24    2    1    2    0    0  0.61703331572E+03  0.32302894337E+02  0.10297282851E+04  0.12035276337E+04  0.79779911686E+02 0.  0.
        254    2    1    2    0    0 -0.61703331572E+03 -0.32302894337E+02  0.39255101528E+03  0.11599284467E+04  0.89975780751E+03 0.  0.
         23    2    4    4    0    0 -0.18049914520E+03 -0.41279473966E+03  0.33841708613E+03  0.57118670384E+03  0.93534421191E+02 0.  0.
         23    2    4    4    0    0 -0.43653417052E+03  0.38049184533E+03  0.54133929153E+02  0.58874174286E+03  0.91379598956E+02 0.  0.
          2    1    3    3  502    0  0.51741837087E+03  0.55355271107E+02  0.84442916458E+03  0.99189041257E+03  0.00000000000E+00 0. -1.
         -1    1    3    3    0  502  0.99614944853E+02 -0.23052376771E+02  0.18529912053E+03  0.21163722116E+03  0.00000000000E+00 0.  1.
         11    1    5    5    0    0 -0.17837503162E+03 -0.31400434418E+03  0.27244298073E+03  0.45237325055E+03  0.00000000000E+00 0.  1.
        -11    1    5    5    0    0 -0.21241135832E+01 -0.98790395486E+02  0.65974105401E+02  0.11881345329E+03  0.00000000000E+00 0. -1.
          3    1    6    6  503    0 -0.18869791216E+03  0.11031564473E+03  0.37192631165E+02  0.22171994799E+03  0.00000000000E+00 0. -1.
         -3    1    6    6    0  503 -0.24783625837E+03  0.27017620060E+03  0.16941297989E+02  0.36702179487E+03  0.00000000000E+00 0.  1.
<mgrwt>
<rscale>  0 0.18876033E+04</rscale>
<asrwt>0</asrwt>
<pdfrwt beam="1">  1        2 0.29121041E+00 0.18876033E+04</pdfrwt>
<pdfrwt beam="2">  1       -1 0.72398215E-01 0.18876033E+04</pdfrwt>
<totfact> 0.15743741E+01</totfact>
</mgrwt>
</event>
<event>
12    6  0.1627636E-007  0.2180252E+04  0.7818608E-02  0.8526693E-01
          2   -1    0    0  501    0  0.00000000000E+00  0.00000000000E+00  0.10372180398E+04  0.10372180398E+04  0.00000000000E+00 0. -1.
         -1   -1    0    0    0  501 -0.00000000000E+00 -0.00000000000E+00 -0.11457325056E+04  0.11457325056E+04  0.00000000000E+00 0.  1.
         24    2    1    2    0    0 -0.63343260087E+03 -0.56478789808E+03  0.26610879104E+03  0.89294047703E+03  0.79413960936E+02 0.  0.
        254    2    1    2    0    0  0.63343260087E+03  0.56478789808E+03 -0.37462325681E+03  0.12900100683E+04  0.89641573066E+03 0.  0.
         23    2    4    4    0    0  0.68016983067E+03  0.16155364114E+03 -0.48974756170E+03  0.85836489668E+03  0.90592737844E+02 0.  0.
         23    2    4    4    0    0 -0.46737229800E+02  0.40323425693E+03  0.11512430489E+03  0.43164517164E+03  0.91003923050E+02 0.  0.
          2    1    3    3  502    0 -0.58876101590E+03 -0.53085935258E+03  0.26796809115E+03  0.83681424698E+03  0.00000000000E+00 0. -1.
         -1    1    3    3    0  502 -0.44671584968E+02 -0.33928545490E+02 -0.18593001128E+01  0.56126230049E+02  0.00000000000E+00 0.  1.
         11    1    5    5    0    0  0.21118173755E+03  0.83929226786E+02 -0.12639687952E+03  0.26003463718E+03  0.00000000000E+00 0. -1.
        -11    1    5    5    0    0  0.46898809312E+03  0.77624414355E+02 -0.36335068218E+03  0.59833025950E+03  0.00000000000E+00 0.  1.
          2    1    6    6  503    0 -0.24510546710E+02  0.38088425182E+03  0.11922207035E+03  0.39985932807E+03  0.00000000000E+00 0.  1.
         -2    1    6    6    0  503 -0.22226683090E+02  0.22350005115E+02 -0.40977654664E+01  0.31785843573E+02  0.00000000000E+00 0. -1.
<mgrwt>
<rscale>  0 0.21802518E+04</rscale>
<asrwt>0</asrwt>
<pdfrwt beam="1">  1        2 0.15957201E+00 0.21802518E+04</pdfrwt>
<pdfrwt beam="2">  1       -1 0.17626654E+00 0.21802518E+04</pdfrwt>
<totfact> 0.55136289E+00</totfact>
</mgrwt>
</event>
<event>
12    6  0.1627636E-007  0.1233436E+04  0.7818608E-02  0.9084084E-01
         -1   -1    0    0    0  501 -0.00000000000E+00  0.00000000000E+00  0.48151226521E+03  0.48151226521E+03  0.00000000000E+00 0.  1.
          2   -1    0    0  501    0  0.00000000000E+00 -0.00000000000E+00 -0.78988807838E+03  0.78988807838E+03  0.00000000000E+00 0. -1.
         24    2    1    2    0    0 -0.27738148279E+03  0.13640132417E+03  0.10527848496E+02  0.31961870072E+03  0.80619290624E+02 0.  0.
        254    2    1    2    0    0  0.27738148279E+03 -0.13640132417E+03 -0.31890366166E+03  0.95178164287E+03  0.84180932642E+03 0.  0.
         23    2    4    4    0    0  0.13759806630E+03 -0.20545227854E+03 -0.57836424293E+03  0.63545063913E+03  0.90268769058E+02 0.  0.
         23    2    4    4    0    0  0.13978341649E+03  0.69050954362E+02  0.25946058126E+03  0.31633100374E+03  0.91858983624E+02 0.  0.
          2    1    3    3  502    0 -0.17117051932E+02  0.21179742244E+02 -0.19378412816E+02  0.33423013503E+02  0.00000000000E+00 0. -1.
         -1    1    3    3    0  502 -0.26026443086E+03  0.11522158193E+03  0.29906261311E+02  0.28619568721E+03  0.00000000000E+00 0.  1.
         11    1    5    5    0    0  0.36447516295E+02 -0.10455693933E+03 -0.33971960137E+03  0.35730936534E+03  0.00000000000E+00 0.  1.
        -11    1    5    5    0    0  0.10115055001E+03 -0.10089533921E+03 -0.23864464156E+03  0.27814127379E+03  0.00000000000E+00 0. -1.
          2    1    6    6  503    0  0.10456917200E+03  0.69068099935E+02  0.25033849953E+03  0.27995442220E+03  0.00000000000E+00 0. -1.
         -2    1    6    6    0  503  0.35214244499E+02 -0.17145572998E-01  0.91220817331E+01  0.36376581543E+02  0.00000000000E+00 0.  1.
<mgrwt>
<rscale>  0 0.12334355E+04</rscale>
<asrwt>0</asrwt>
<pdfrwt beam="1">  1        2 0.12152124E+00 0.12334355E+04</pdfrwt>
<pdfrwt beam="2">  1       -1 0.74078810E-01 0.12334355E+04</pdfrwt>
<totfact> 0.72281403E+01</totfact>
</mgrwt>
</event>
<event>
12    6  0.1627636E-007  0.3719754E+04  0.7818608E-02  0.8063598E-01
         -1   -1    0    0    0  501 -0.00000000000E+00  0.00000000000E+00  0.18956924128E+04  0.18956924128E+04  0.00000000000E+00 0.  1.
          2   -1    0    0  501    0  0.00000000000E+00 -0.00000000000E+00 -0.18247386457E+04  0.18247386457E+04  0.00000000000E+00 0. -1.
         24    2    1    2    0    0  0.32958879788E+02  0.86765960959E+03  0.15526712782E+04  0.17807938003E+04  0.80740170933E+02 0.  0.
        254    2    1    2    0    0 -0.32958879788E+02 -0.86765960959E+03 -0.14817175111E+04  0.19396372583E+04  0.90154668487E+03 0.  0.
         23    2    4    4    0    0  0.39277162245E+03 -0.37500640440E+03 -0.42651015689E+03  0.69640474750E+03  0.90384222459E+02 0.  0.
         23    2    4    4    0    0 -0.42573050224E+03 -0.49265320519E+03 -0.10552073542E+04  0.12432325108E+04  0.90613874623E+02 0.  0.
          4    1    3    3  502    0 -0.19353212834E+02  0.10293042364E+03  0.21223660478E+03  0.23667191503E+03  0.00000000000E+00 0. -1.
         -3    1    3    3    0  502  0.52312092622E+02  0.76472918594E+03  0.13404346734E+04  0.15441218853E+04  0.00000000000E+00 0.  1.
         11    1    5    5    0    0  0.83755429062E+02 -0.12100861403E+03 -0.14993917509E+03  0.21009477099E+03  0.00000000000E+00 0. -1.
        -11    1    5    5    0    0  0.30901619339E+03 -0.25399779037E+03 -0.27657098179E+03  0.48630997651E+03  0.00000000000E+00 0.  1.
          3    1    6    6  503    0 -0.13467331991E+03 -0.17673880212E+03 -0.28553112988E+03  0.36180316942E+03  0.00000000000E+00 0. -1.
         -3    1    6    6    0  503 -0.29105718232E+03 -0.31591440306E+03 -0.76967622434E+03  0.88142934133E+03  0.00000000000E+00 0.  1.
<mgrwt>
<rscale>  0 0.37197544E+04</rscale>
<asrwt>0</asrwt>
<pdfrwt beam="1">  1        2 0.28072902E+00 0.37197544E+04</pdfrwt>
<pdfrwt beam="2">  1       -1 0.29164499E+00 0.37197544E+04</pdfrwt>
<totfact> 0.28723387E-01</totfact>
</mgrwt>
</event>
<event>
12    6  0.1627636E-007  0.1383218E+04  0.7818608E-02  0.8966057E-01
          2   -1    0    0  501    0  0.00000000000E+00  0.00000000000E+00  0.11637181494E+04  0.11637181494E+04  0.00000000000E+00 0. -1.
         -1   -1    0    0    0  501 -0.00000000000E+00 -0.00000000000E+00 -0.41102979336E+03  0.41102979336E+03  0.00000000000E+00 0.  1.
         24    2    1    2    0    0  0.37230227156E+03  0.46012921404E+01  0.37265314839E+03  0.53225979038E+03  0.76157482518E+02 0.  0.
        254    2    1    2    0    0 -0.37230227156E+03 -0.46012921404E+01  0.38003520761E+03  0.10424881523E+04  0.89650690764E+03 0.  0.
         23    2    4    4    0    0  0.41471543798E+02  0.29526118024E+03  0.41740170036E+03  0.52107453349E+03  0.91626614547E+02 0.  0.
         23    2    4    4    0    0 -0.41377381536E+03 -0.29986247238E+03 -0.37366492750E+02  0.52141361885E+03  0.96693508189E+02 0.  0.
          2    1    3    3  502    0  0.24609922383E+03  0.29298037592E+01  0.29452682484E+03  0.38382217532E+03  0.00000000000E+00 0. -1.
         -1    1    3    3    0  502  0.12620304773E+03  0.16714883812E+01  0.78126323551E+02  0.14843761505E+03  0.00000000000E+00 0.  1.
         11    1    5    5    0    0 -0.10696379435E+02  0.15271906105E+02  0.40119187131E+01  0.19071946436E+02  0.00000000000E+00 0.  1.
        -11    1    5    5    0    0  0.52167923233E+02  0.27998927413E+03  0.41338978164E+03  0.50200258705E+03  0.00000000000E+00 0. -1.
          2    1    6    6  503    0 -0.40359061497E+03 -0.30464101910E+03 -0.45246013827E+02  0.50767975809E+03  0.00000000000E+00 0. -1.
         -2    1    6    6    0  503 -0.10183200394E+02  0.47785467218E+01  0.78795210771E+01  0.13733860762E+02  0.00000000000E+00 0.  1.
<mgrwt>
<rscale>  0 0.13832177E+04</rscale>
<asrwt>0</asrwt>
<pdfrwt beam="1">  1        2 0.17903356E+00 0.13832177E+04</pdfrwt>
<pdfrwt beam="2">  1       -1 0.63235353E-01 0.13832177E+04</pdfrwt>
<totfact> 0.56137845E+01</totfact>
</mgrwt>
</event>
<event>
12    6  0.1627636E-007  0.2192356E+04  0.7818608E-02  0.8521617E-01
          2   -1    0    0  501    0  0.00000000000E+00  0.00000000000E+00  0.62045803263E+03  0.62045803263E+03  0.00000000000E+00 0. -1.
         -1   -1    0    0    0  501 -0.00000000000E+00 -0.00000000000E+00 -0.19366433036E+04  0.19366433036E+04  0.00000000000E+00 0.  1.
         24    2    1    2    0    0 -0.52931001194E+03  0.71528195183E+03 -0.79513323526E+03  0.11960136904E+04  0.80090739361E+02 0.  0.
        254    2    1    2    0    0  0.52931001194E+03 -0.71528195183E+03 -0.52105203571E+03  0.13610876458E+04  0.88840699921E+03 0.  0.
         23    2    4    4    0    0  0.65365635776E+03 -0.15564587603E+03 -0.28467095205E+03  0.73459421968E+03  0.84254637157E+02 0.  0.
         23    2    4    4    0    0 -0.12434634582E+03 -0.55963607580E+03 -0.23638108366E+03  0.62649342611E+03  0.89238137517E+02 0.  0.
          4    1    3    3  502    0 -0.52212630664E+03  0.71600855413E+03 -0.78760274491E+03  0.11855809603E+04  0.00000000000E+00 0. -1.
         -3    1    3    3    0  502 -0.71837053052E+01 -0.72660230055E+00 -0.75304903434E+01  0.10432730114E+02  0.00000000000E+00 0.  1.
         11    1    5    5    0    0  0.65316623756E+03 -0.15952805802E+03 -0.28570085643E+03  0.73054795500E+03  0.00000000000E+00 0.  1.
        -11    1    5    5    0    0  0.49012019786E+00  0.38821819920E+01  0.10299043845E+01  0.40462646810E+01  0.00000000000E+00 0. -1.
          4    1    6    6  503    0 -0.89731257051E+02 -0.22734537890E+03 -0.76396970841E+02  0.25607443635E+03  0.00000000000E+00 0. -1.
         -4    1    6    6    0  503 -0.34615088767E+02 -0.33229069690E+03 -0.15998411282E+03  0.37041898976E+03  0.00000000000E+00 0.  1.
<mgrwt>
<rscale>  0 0.21923557E+04</rscale>
<asrwt>0</asrwt>
<pdfrwt beam="1">  1        2 0.95455081E-01 0.21923557E+04</pdfrwt>
<pdfrwt beam="2">  1       -1 0.29794513E+00 0.21923557E+04</pdfrwt>
<totfact> 0.16934026E+00</totfact>
</mgrwt>
</event>
<event>
12    6  0.1627636E-007  0.1633863E+04  0.7818608E-02  0.8800011E-01
          2   -1    0    0  501    0  0.00000000000E+00  0.00000000000E+00  0.12926105535E+04  0.12926105535E+04  0.00000000000E+00 0. -1.
         -1   -1    0    0    0  501 -0.00000000000E+00 -0.00000000000E+00 -0.51630164050E+03  0.51630164050E+03  0.00000000000E+00 0.  1.
         24    2    1    2    0    0  0.28228363671E+03  0.33794410554E+03  0.57622130179E+03  0.72952604705E+03  0.79290571121E+02 0.  0.
        254    2    1    2    0    0 -0.28228363671E+03 -0.33794410554E+03  0.20008761118E+03  0.10793861469E+04  0.96496068935E+03 0.  0.
         23    2    4    4    0    0 -0.25452278853E+03 -0.60723124712E+03 -0.91957132910E+02  0.67031328542E+03  0.85744673036E+02 0.  0.
         23    2    4    4    0    0 -0.27760848175E+02  0.26928714158E+03  0.29204474409E+03  0.40907286150E+03  0.93617541902E+02 0.  0.
          2    1    3    3  502    0  0.23757125972E+03  0.28684857344E+03  0.43385094427E+03  0.57179441181E+03  0.00000000000E+00 0. -1.
         -1    1    3    3    0  502  0.44712376981E+02  0.51095532102E+02  0.14237035752E+03  0.15773163525E+03  0.00000000000E+00 0.  1.
         11    1    5    5    0    0 -0.12393169873E+03 -0.19064379330E+03 -0.29447709007E+02  0.22928429828E+03  0.00000000000E+00 0.  1.
        -11    1    5    5    0    0 -0.13059108980E+03 -0.41658745382E+03 -0.62509423903E+02  0.44102898714E+03  0.00000000000E+00 0. -1.
          1    1    6    6  503    0 -0.48102190134E+02  0.16777697078E+03  0.22874070085E+03  0.28772424445E+03  0.00000000000E+00 0. -1.
         -1    1    6    6    0  503  0.20341341959E+02  0.10151017081E+03  0.63304043244E+02  0.12134861705E+03  0.00000000000E+00 0.  1.
<mgrwt>
<rscale>  0 0.16338628E+04</rscale>
<asrwt>0</asrwt>
<pdfrwt beam="1">  1        2 0.19886316E+00 0.16338628E+04</pdfrwt>
<pdfrwt beam="2">  1       -1 0.79431022E-01 0.16338628E+04</pdfrwt>
<totfact> 0.28835604E+01</totfact>
</mgrwt>
</event>
<event>
12    6  0.1627636E-007  0.1711178E+04  0.7818608E-02  0.8755015E-01
         -1   -1    0    0    0  501 -0.00000000000E+00  0.00000000000E+00  0.45016448099E+03  0.45016448099E+03  0.00000000000E+00 0.  1.
          2   -1    0    0  501    0  0.00000000000E+00 -0.00000000000E+00 -0.16261452617E+04  0.16261452617E+04  0.00000000000E+00 0. -1.
         24    2    1    2    0    0 -0.21420283646E+03  0.18027165576E+03  0.23897473924E+03  0.37645768779E+03  0.78935034555E+02 0.  0.
        254    2    1    2    0    0  0.21420283646E+03 -0.18027165576E+03 -0.14149555199E+04  0.16998520549E+04  0.89945381208E+03 0.  0.
         23    2    4    4    0    0  0.77568913961E+01  0.32233984741E+03 -0.83205339978E+03  0.89687682089E+03  0.90066781780E+02 0.  0.
         23    2    4    4    0    0  0.20644594507E+03 -0.50261150317E+03 -0.58290212013E+03  0.80297523396E+03  0.98772938372E+02 0.  0.
          2    1    3    3  502    0 -0.10835291535E+03  0.55065780877E+02  0.13805265578E+03  0.18393240676E+03  0.00000000000E+00 0. -1.
         -1    1    3    3    0  502 -0.10584992111E+03  0.12520587489E+03  0.10092208346E+03  0.19252528103E+03  0.00000000000E+00 0.  1.
         11    1    5    5    0    0 -0.27177789224E+02  0.31015311531E+02 -0.11087654667E+03  0.11829704298E+03  0.00000000000E+00 0. -1.
        -11    1    5    5    0    0  0.34934680620E+02  0.29132453588E+03 -0.72117685311E+03  0.77857977791E+03  0.00000000000E+00 0.  1.
          1    1    6    6  503    0  0.18832380096E+03 -0.36215328318E+03 -0.46457914874E+03  0.61842917135E+03  0.00000000000E+00 0. -1.
         -1    1    6    6    0  503  0.18122144105E+02 -0.14045821999E+03 -0.11832297139E+03  0.18454606262E+03  0.00000000000E+00 0.  1.
<mgrwt>
<rscale>  0 0.17111784E+04</rscale>
<asrwt>0</asrwt>
<pdfrwt beam="1">  1        2 0.25017620E+00 0.17111784E+04</pdfrwt>
<pdfrwt beam="2">  1       -1 0.69256073E-01 0.17111784E+04</pdfrwt>
<totfact> 0.24630084E+01</totfact>
</mgrwt>
</event>
<event>
12    6  0.1627636E-007  0.1254806E+04  0.7818608E-02  0.9066193E-01
          2   -1    0    0  501    0  0.00000000000E+00  0.00000000000E+00  0.39250846455E+03  0.39250846455E+03  0.00000000000E+00 0. -1.
         -1   -1    0    0    0  501 -0.00000000000E+00 -0.00000000000E+00 -0.10028688179E+04  0.10028688179E+04  0.00000000000E+00 0.  1.
         24    2    1    2    0    0  0.28781668614E+03 -0.75439849551E+02 -0.12532514207E+03  0.33293154104E+03  0.81285940142E+02 0.  0.
        254    2    1    2    0    0 -0.28781668614E+03  0.75439849551E+02 -0.48503521128E+03  0.10624457414E+04  0.89721913798E+03 0.  0.
         23    2    4    4    0    0 -0.50645840528E+03 -0.33077242094E+02 -0.58754406639E+03  0.78179760299E+03  0.91680106216E+02 0.  0.
         23    2    4    4    0    0  0.21864171914E+03  0.10851709164E+03  0.10250885511E+03  0.28064813842E+03  0.93140494406E+02 0.  0.
          2    1    3    3  502    0  0.16770399508E+03 -0.71956625886E+02 -0.10652838063E+03  0.21130707952E+03  0.00000000000E+00 0. -1.
         -1    1    3    3    0  502  0.12011269105E+03 -0.34832236649E+01 -0.18796761444E+02  0.12162446152E+03  0.00000000000E+00 0.  1.
         11    1    5    5    0    0 -0.50053268835E+03 -0.35479710553E+02 -0.59036833839E+03  0.77480743217E+03  0.00000000000E+00 0.  1.
        -11    1    5    5    0    0 -0.59257169260E+01  0.24024684593E+01  0.28242720035E+01  0.69901708230E+01  0.00000000000E+00 0. -1.
          1    1    6    6  503    0  0.90416010820E+01 -0.15211310488E+02  0.44777382854E+01  0.18253346461E+02  0.00000000000E+00 0. -1.
         -1    1    6    6    0  503  0.20960011806E+03  0.12372840213E+03  0.98031116822E+02  0.26239479196E+03  0.00000000000E+00 0.  1.
<mgrwt>
<rscale>  0 0.12548060E+04</rscale>
<asrwt>0</asrwt>
<pdfrwt beam="1">  1        2 0.60385918E-01 0.12548060E+04</pdfrwt>
<pdfrwt beam="2">  1       -1 0.15428751E+00 0.12548060E+04</pdfrwt>
<totfact> 0.29544043E+01</totfact>
</mgrwt>
</event>
<event>
12    6  0.1627636E-007  0.1129272E+04  0.7818608E-02  0.9177122E-01
          2   -1    0    0  501    0  0.00000000000E+00  0.00000000000E+00  0.68076930081E+03  0.68076930081E+03  0.00000000000E+00 0. -1.
         -1   -1    0    0    0  501 -0.00000000000E+00 -0.00000000000E+00 -0.46831365240E+03  0.46831365240E+03  0.00000000000E+00 0.  1.
         24    2    1    2    0    0 -0.28989953978E+02  0.15288754104E+03 -0.64814025836E+02  0.18591658941E+03  0.78416214099E+02 0.  0.
        254    2    1    2    0    0  0.28989953978E+02 -0.15288754104E+03  0.27726967425E+03  0.96316636381E+03  0.90917322578E+03 0.  0.
         23    2    4    4    0    0  0.14583634706E+03  0.35395789403E+03  0.98809770901E+02  0.40566743175E+03  0.90819950942E+02 0.  0.
         23    2    4    4    0    0 -0.11684639308E+03 -0.50684543507E+03  0.17845990335E+03  0.55749893206E+03  0.91715579466E+02 0.  0.
          4    1    3    3  502    0 -0.15372402547E+02  0.92510058425E+02  0.33582673216E+01  0.93838689405E+02  0.00000000000E+00 0. -1.
         -3    1    3    3    0  502 -0.13617551432E+02  0.60377482617E+02 -0.68172293157E+02  0.92077900001E+02  0.00000000000E+00 0.  1.
         11    1    5    5    0    0  0.98285236231E+02  0.22976516054E+03  0.10826322527E+03  0.27234709950E+03  0.00000000000E+00 0. -1.
        -11    1    5    5    0    0  0.47551110827E+02  0.12419273349E+03 -0.94534543705E+01  0.13332033225E+03  0.00000000000E+00 0.  1.
          2    1    6    6  503    0 -0.11701709726E+03 -0.51087187164E+03  0.17762015874E+03  0.55338231908E+03  0.00000000000E+00 0. -1.
         -2    1    6    6    0  503  0.17070417575E+00  0.40264365711E+01  0.83974460822E+00  0.41166129748E+01  0.00000000000E+00 0.  1.
<mgrwt>
<rscale>  0 0.11292715E+04</rscale>
<asrwt>0</asrwt>
<pdfrwt beam="1">  1        2 0.10473374E+00 0.11292715E+04</pdfrwt>
<pdfrwt beam="2">  1       -1 0.72048254E-01 0.11292715E+04</pdfrwt>
<totfact> 0.93439840E+01</totfact>
</mgrwt>
</event>
<event>
12    6  0.1627636E-007  0.2331531E+04  0.7818608E-02  0.8465592E-01
         -3   -1    0    0    0  501 -0.00000000000E+00  0.00000000000E+00  0.19839445093E+04  0.19839445093E+04  0.00000000000E+00 0.  1.
          4   -1    0    0  501    0  0.00000000000E+00 -0.00000000000E+00 -0.68500347211E+03  0.68500347211E+03  0.00000000000E+00 0. -1.
         24    2    1    2    0    0 -0.73937039909E+03  0.42927642365E+03 -0.83936067930E+01  0.85860240274E+03  0.78618053906E+02 0.  0.
        254    2    1    2    0    0  0.73937039909E+03 -0.42927642365E+03  0.13073346440E+04  0.18103455787E+04  0.91503027703E+03 0.  0.
         23    2    4    4    0    0 -0.27000928698E+02  0.15764876529E+03  0.54934646548E+03  0.57928682475E+03  0.90606306886E+02 0.  0.
         23    2    4    4    0    0  0.76637132779E+03 -0.58692518895E+03  0.75798817850E+03  0.12310587539E+04  0.95673336708E+02 0.  0.
          2    1    3    3  502    0 -0.69569075764E+03  0.41882593333E+03 -0.19755066328E+02  0.81227523374E+03  0.00000000000E+00 0. -1.
         -1    1    3    3    0  502 -0.43679641450E+02  0.10450490327E+02  0.11361459535E+02  0.46327169005E+02  0.00000000000E+00 0.  1.
         11    1    5    5    0    0 -0.50070322235E+02  0.62039126194E+02  0.17621367089E+03  0.19340927629E+03  0.00000000000E+00 0.  1.
        -11    1    5    5    0    0  0.23069393536E+02  0.95609639100E+02  0.37313279459E+03  0.38587754846E+03  0.00000000000E+00 0. -1.
          2    1    6    6  503    0  0.32106155289E+03 -0.18734758201E+03  0.28848324392E+03  0.47053397247E+03  0.00000000000E+00 0.  1.
         -2    1    6    6    0  503  0.44530977490E+03 -0.39957760693E+03  0.46950493458E+03  0.76052478144E+03  0.00000000000E+00 0. -1.
<mgrwt>
<rscale>  0 0.23315307E+04</rscale>
<asrwt>0</asrwt>
<pdfrwt beam="1">  1        4 0.10538515E+00 0.23315307E+04</pdfrwt>
<pdfrwt beam="2">  1       -3 0.30522223E+00 0.23315307E+04</pdfrwt>
<totfact> 0.53470724E-02</totfact>
</mgrwt>
</event>
<event>
12    6  0.1627636E-007  0.1876249E+04  0.7818608E-02  0.8666770E-01
          2   -1    0    0  501    0  0.00000000000E+00  0.00000000000E+00  0.67375482443E+03  0.67375482443E+03  0.00000000000E+00 0. -1.
         -1   -1    0    0    0  501 -0.00000000000E+00 -0.00000000000E+00 -0.13062288578E+04  0.13062288578E+04  0.00000000000E+00 0.  1.
         24    2    1    2    0    0 -0.65594071034E+03 -0.38720476871E+03 -0.17675717289E+03  0.78575600322E+03  0.77354056282E+02 0.  0.
        254    2    1    2    0    0  0.65594071034E+03  0.38720476871E+03 -0.45571686052E+03  0.11942276791E+04  0.79894689690E+03 0.  0.
         23    2    4    4    0    0  0.12001371107E+02 -0.20033756888E+03 -0.13600530892E+03  0.26133761378E+03  0.97574227668E+02 0.  0.
         23    2    4    4    0    0  0.64393933924E+03  0.58754233759E+03 -0.31971155160E+03  0.93289006528E+03  0.90578841876E+02 0.  0.
          4    1    3    3  502    0 -0.60796889128E+02 -0.63542567969E+02 -0.14429814847E+02  0.89118680580E+02  0.00000000000E+00 0. -1.
         -3    1    3    3    0  502 -0.59514382122E+03 -0.32366220074E+03 -0.16232735805E+03  0.69663732264E+03  0.00000000000E+00 0.  1.
         11    1    5    5    0    0  0.13461194192E+02  0.67375941044E+01 -0.33812118844E+01  0.15428270065E+02  0.00000000000E+00 0.  1.
        -11    1    5    5    0    0 -0.14598230849E+01 -0.20707516299E+03 -0.13262409704E+03  0.24590934371E+03  0.00000000000E+00 0. -1.
          3    1    6    6  503    0  0.62650652826E+03  0.55335110215E+03 -0.29149741203E+03  0.88525624167E+03  0.00000000000E+00 0. -1.
         -3    1    6    6    0  503  0.17432810977E+02  0.34191235446E+02 -0.28214139577E+02  0.47633823613E+02  0.00000000000E+00 0.  1.
<mgrwt>
<rscale>  0 0.18762494E+04</rscale>
<asrwt>0</asrwt>
<pdfrwt beam="1">  1        2 0.10365459E+00 0.18762494E+04</pdfrwt>
<pdfrwt beam="2">  1       -1 0.20095829E+00 0.18762494E+04</pdfrwt>
<totfact> 0.68275029E+00</totfact>
</mgrwt>
</event>
<event>
12    6  0.1627636E-007  0.1813767E+04  0.7818608E-02  0.8699012E-01
          2   -1    0    0  501    0  0.00000000000E+00  0.00000000000E+00  0.46713278670E+03  0.46713278670E+03  0.00000000000E+00 0. -1.
         -1   -1    0    0    0  501 -0.00000000000E+00 -0.00000000000E+00 -0.17606087971E+04  0.17606087971E+04  0.00000000000E+00 0.  1.
         24    2    1    2    0    0 -0.15853804481E+03  0.58471644484E+03 -0.10175661498E+03  0.61986970295E+03  0.82803426376E+02 0.  0.
        254    2    1    2    0    0  0.15853804481E+03 -0.58471644484E+03 -0.11917193954E+04  0.16078718808E+04  0.89332482069E+03 0.  0.
         23    2    4    4    0    0 -0.24092575017E+03 -0.49371634553E+03 -0.32445299512E+03  0.64449530729E+03  0.91123038415E+02 0.  0.
         23    2    4    4    0    0  0.39946379499E+03 -0.91000099313E+02 -0.86726640025E+03  0.96337657352E+03  0.89950385379E+02 0.  0.
          2    1    3    3  502    0 -0.75793341644E+02  0.24507298031E+03 -0.27419619433E+01  0.25654027885E+03  0.00000000000E+00 0. -1.
         -1    1    3    3    0  502 -0.82744703170E+02  0.33964346453E+03 -0.99014653039E+02  0.36332942410E+03  0.00000000000E+00 0.  1.
         11    1    5    5    0    0 -0.49156430402E+02 -0.20038740374E+03 -0.11469345190E+03  0.23606366543E+03  0.00000000000E+00 0.  1.
        -11    1    5    5    0    0 -0.19176931977E+03 -0.29332894180E+03 -0.20975954322E+03  0.40843164186E+03  0.00000000000E+00 0. -1.
          4    1    6    6  503    0  0.33916720642E+03 -0.10941747767E+03 -0.73276662151E+03  0.81483341851E+03  0.00000000000E+00 0. -1.
         -4    1    6    6    0  503  0.60296588565E+02  0.18417378358E+02 -0.13449977874E+03  0.14854315501E+03  0.00000000000E+00 0.  1.
<mgrwt>
<rscale>  0 0.18137675E+04</rscale>
<asrwt>0</asrwt>
<pdfrwt beam="1">  1        2 0.71866582E-01 0.18137675E+04</pdfrwt>
<pdfrwt beam="2">  1       -1 0.27086289E+00 0.18137675E+04</pdfrwt>
<totfact> 0.36644629E+00</totfact>
</mgrwt>
</event>
<event>
12    6  0.1627636E-007  0.1800854E+04  0.7818608E-02  0.8705846E-01
         -1   -1    0    0    0  501 -0.00000000000E+00  0.00000000000E+00  0.87148937705E+03  0.87148937705E+03  0.00000000000E+00 0.  1.
          2   -1    0    0  501    0  0.00000000000E+00 -0.00000000000E+00 -0.93032514255E+03  0.93032514255E+03  0.00000000000E+00 0. -1.
         24    2    1    2    0    0  0.19736475995E+03  0.52595184715E+03 -0.44069139159E+03  0.71843563920E+03  0.79766352951E+02 0.  0.
        254    2    1    2    0    0 -0.19736475995E+03 -0.52595184715E+03  0.38185562610E+03  0.10833788804E+04  0.84398926848E+03 0.  0.
         23    2    4    4    0    0 -0.95444706329E+02 -0.34265799851E+03  0.64080945623E+03  0.73850277035E+03  0.90693917697E+02 0.  0.
         23    2    4    4    0    0 -0.10192005362E+03 -0.18329384864E+03 -0.25895383014E+03  0.34487611004E+03  0.88871327527E+02 0.  0.
          4    1    3    3  502    0  0.16388635385E+03  0.40387404708E+03 -0.37911299855E+03  0.57766742036E+03  0.00000000000E+00 0. -1.
         -3    1    3    3    0  502  0.33478406101E+02  0.12207780008E+03 -0.61578393047E+02  0.14076821884E+03  0.00000000000E+00 0.  1.
         11    1    5    5    0    0 -0.31423522614E+01 -0.90959480738E+02  0.10213175753E+03  0.13680057533E+03  0.00000000000E+00 0. -1.
        -11    1    5    5    0    0 -0.92302354068E+02 -0.25169851778E+03  0.53867769870E+03  0.60170219502E+03  0.00000000000E+00 0.  1.
          2    1    6    6  503    0 -0.20798632122E+02 -0.82759830777E+02 -0.16290102283E+03  0.18389811290E+03  0.00000000000E+00 0. -1.
         -2    1    6    6    0  503 -0.81121421500E+02 -0.10053401786E+03 -0.96052807312E+02  0.16097799715E+03  0.00000000000E+00 0.  1.
<mgrwt>
<rscale>  0 0.18008537E+04</rscale>
<asrwt>0</asrwt>
<pdfrwt beam="1">  1        2 0.14312694E+00 0.18008537E+04</pdfrwt>
<pdfrwt beam="2">  1       -1 0.13407529E+00 0.18008537E+04</pdfrwt>
<totfact> 0.14130768E+01</totfact>
</mgrwt>
</event>
<event>
12    6  0.1627636E-007  0.1557494E+04  0.7818608E-02  0.8847095E-01
         -3   -1    0    0    0  501 -0.00000000000E+00  0.00000000000E+00  0.10984610328E+04  0.10984610328E+04  0.00000000000E+00 0.  1.
          2   -1    0    0  501    0  0.00000000000E+00 -0.00000000000E+00 -0.55208768526E+03  0.55208768526E+03  0.00000000000E+00 0. -1.
         24    2    1    2    0    0 -0.36854113852E+03 -0.27582027454E+03 -0.59976325614E+02  0.47036585189E+03  0.75812138603E+02 0.  0.
        254    2    1    2    0    0  0.36854113852E+03  0.27582027454E+03  0.60634967318E+03  0.11801828662E+04  0.90181609926E+03 0.  0.
         23    2    4    4    0    0  0.27090710546E+03 -0.30196187998E+03  0.19864735847E+03  0.46066538806E+03  0.90444402734E+02 0.  0.
         23    2    4    4    0    0  0.97634033057E+02  0.57778215452E+03  0.40770231471E+03  0.71951747814E+03  0.90108831079E+02 0.  0.
          2    1    3    3  502    0 -0.33934635498E+03 -0.27145558521E+03 -0.43955390904E+02  0.43677930327E+03  0.00000000000E+00 0. -1.
         -1    1    3    3    0  502 -0.29194783535E+02 -0.43646893334E+01 -0.16020934711E+02  0.33586548612E+02  0.00000000000E+00 0.  1.
         11    1    5    5    0    0  0.27441175052E+03 -0.29497861591E+03  0.20360896193E+03  0.45140979392E+03  0.00000000000E+00 0.  1.
        -11    1    5    5    0    0 -0.35046450623E+01 -0.69832640641E+01 -0.49616034622E+01  0.92555941418E+01  0.00000000000E+00 0. -1.
          1    1    6    6  503    0  0.96471467753E+01  0.56478096173E+02  0.10490934301E+02  0.58248626514E+02  0.00000000000E+00 0. -1.
         -1    1    6    6    0  503  0.87986886281E+02  0.52130405834E+03  0.39721138041E+03  0.66126885162E+03  0.00000000000E+00 0.  1.
<mgrwt>
<rscale>  0 0.15574939E+04</rscale>
<asrwt>0</asrwt>
<pdfrwt beam="1">  1        2 0.84936567E-01 0.15574939E+04</pdfrwt>
<pdfrwt beam="2">  1       -3 0.16899400E+00 0.15574939E+04</pdfrwt>
<totfact> 0.77733268E+00</totfact>
</mgrwt>
</event>
<event>
12    6  0.1627636E-007  0.2552550E+04  0.7818608E-02  0.8384500E-01
          2   -1    0    0  501    0  0.00000000000E+00  0.00000000000E+00  0.40740012681E+04  0.40740012681E+04  0.00000000000E+00 0. -1.
         -1   -1    0    0    0  501 -0.00000000000E+00 -0.00000000000E+00 -0.39982262879E+03  0.39982262879E+03  0.00000000000E+00 0.  1.
         24    2    1    2    0    0 -0.13940884185E+03 -0.93098505053E+03  0.55676226943E+03  0.10965391350E+04  0.79030756041E+02 0.  0.
        254    2    1    2    0    0  0.13940884185E+03  0.93098505053E+03  0.31174163698E+04  0.33772847619E+04  0.89532092031E+03 0.  0.
         23    2    4    4    0    0 -0.16107813830E+03  0.82626587708E+03  0.27751288521E+04  0.29014298370E+04  0.91068585799E+02 0.  0.
         23    2    4    4    0    0  0.30048698015E+03  0.10471917345E+03  0.34228751776E+03  0.47585492483E+03  0.89546826590E+02 0.  0.
          2    1    3    3  502    0 -0.28227416077E+02 -0.74837157781E+02  0.64283978660E+02  0.10261489714E+03  0.00000000000E+00 0. -1.
         -1    1    3    3    0  502 -0.11118142577E+03 -0.85614789274E+03  0.49247829077E+03  0.99392423784E+03  0.00000000000E+00 0.  1.
         11    1    5    5    0    0 -0.54993676103E+02  0.48681613412E+03  0.16828584167E+04  0.17527198018E+04  0.00000000000E+00 0.  1.
        -11    1    5    5    0    0 -0.10608446219E+03  0.33944974296E+03  0.10922704353E+04  0.11487100352E+04  0.00000000000E+00 0. -1.
          3    1    6    6  503    0  0.22854847749E+03  0.76657718558E+02  0.30864118121E+03  0.39162506447E+03  0.00000000000E+00 0. -1.
         -3    1    6    6    0  503  0.71938502655E+02  0.28061454887E+02  0.33646336543E+02  0.84229860367E+02  0.00000000000E+00 0.  1.
<mgrwt>
<rscale>  0 0.25525500E+04</rscale>
<asrwt>0</asrwt>
<pdfrwt beam="1">  1        2 0.62676940E+00 0.25525500E+04</pdfrwt>
<pdfrwt beam="2">  1       -1 0.61511177E-01 0.25525500E+04</pdfrwt>
<totfact> 0.80789921E-01</totfact>
</mgrwt>
</event>
<event>
12    6  0.1627636E-007  0.1127615E+04  0.7818608E-02  0.9178687E-01
          2   -1    0    0  501    0  0.00000000000E+00  0.00000000000E+00  0.72854561537E+03  0.72854561537E+03  0.00000000000E+00 0. -1.
         -1   -1    0    0    0  501 -0.00000000000E+00 -0.00000000000E+00 -0.43631965152E+03  0.43631965152E+03  0.00000000000E+00 0.  1.
         24    2    1    2    0    0  0.33328105763E+02  0.11150847348E+03 -0.10100672788E+03  0.17460110044E+03  0.82087044700E+02 0.  0.
        254    2    1    2    0    0 -0.33328105763E+02 -0.11150847348E+03  0.39323269173E+03  0.99026416645E+03  0.90135801278E+03 0.  0.
         23    2    4    4    0    0  0.51776395952E+02  0.33021039021E+03  0.40293504116E+03  0.53148163324E+03  0.91631774476E+02 0.  0.
         23    2    4    4    0    0 -0.85104501716E+02 -0.44171886369E+03 -0.97023494323E+01  0.45878253321E+03  0.89604388524E+02 0.  0.
          2    1    3    3  502    0  0.41443701697E+02  0.40281774597E+02 -0.98420394779E+01  0.58626508647E+02  0.00000000000E+00 0. -1.
         -1    1    3    3    0  502 -0.81155959334E+01  0.71226698881E+02 -0.91164688401E+02  0.11597459180E+03  0.00000000000E+00 0.  1.
         11    1    5    5    0    0 -0.21446812041E+02  0.15216563381E+03  0.19150455831E+03  0.24553684390E+03  0.00000000000E+00 0. -1.
        -11    1    5    5    0    0  0.73223207993E+02  0.17804475640E+03  0.21143048285E+03  0.28594478934E+03  0.00000000000E+00 0.  1.
          4    1    6    6  503    0 -0.40745204046E+02 -0.33546235055E+03 -0.38437958664E+02  0.34010680228E+03  0.00000000000E+00 0. -1.
         -4    1    6    6    0  503 -0.44359297670E+02 -0.10625651314E+03  0.28735609232E+02  0.11867573093E+03  0.00000000000E+00 0.  1.
<mgrwt>
<rscale>  0 0.11276148E+04</rscale>
<asrwt>0</asrwt>
<pdfrwt beam="1">  1        2 0.11208394E+00 0.11276148E+04</pdfrwt>
<pdfrwt beam="2">  1       -1 0.67126101E-01 0.11276148E+04</pdfrwt>
<totfact> 0.99102973E+01</totfact>
</mgrwt>
</event>
<event>
12    6  0.1627636E-007  0.3089489E+04  0.7818608E-02  0.8218628E-01
         -1   -1    0    0    0  501 -0.00000000000E+00  0.00000000000E+00  0.68627242212E+03  0.68627242212E+03  0.00000000000E+00 0.  1.
          2   -1    0    0  501    0  0.00000000000E+00 -0.00000000000E+00 -0.34770973884E+04  0.34770973884E+04  0.00000000000E+00 0. -1.
         24    2    1    2    0    0 -0.31885299480E+03 -0.12610095665E+04 -0.53383620971E+03  0.14085471255E+04  0.84920827420E+02 0.  0.
        254    2    1    2    0    0  0.31885299480E+03  0.12610095665E+04 -0.22569887566E+04  0.27548226850E+04  0.89623513619E+03 0.  0.
         23    2    4    4    0    0  0.17627321683E+03  0.11956515760E+04 -0.22652842898E+04  0.25691816431E+04  0.92338852422E+02 0.  0.
         23    2    4    4    0    0  0.14257977797E+03  0.65357990521E+02  0.82955331453E+01  0.18564104193E+03  0.98960196884E+02 0.  0.
          4    1    3    3  502    0 -0.37451590401E+02 -0.13418068052E+03 -0.86280381215E+02  0.16386390948E+03  0.00000000000E+00 0. -1.
         -3    1    3    3    0  502 -0.28140140440E+03 -0.11268288860E+04 -0.44755582849E+03  0.12446832161E+04  0.00000000000E+00 0.  1.
         11    1    5    5    0    0 -0.89860073784E+01  0.36356396265E+02 -0.56615365606E+02  0.67881039331E+02  0.00000000000E+00 0.  1.
        -11    1    5    5    0    0  0.18525922421E+03  0.11592951797E+04 -0.22086689242E+04  0.25013006038E+04  0.00000000000E+00 0. -1.
          4    1    6    6  503    0 -0.40000463622E+01 -0.15565823102E+02  0.85542986063E+01  0.18206351759E+02  0.00000000000E+00 0. -1.
         -4    1    6    6    0  503  0.14657982433E+03  0.80923813623E+02 -0.25876546105E+00  0.16743469017E+03  0.00000000000E+00 0.  1.
<mgrwt>
<rscale>  0 0.30894893E+04</rscale>
<asrwt>0</asrwt>
<pdfrwt beam="1">  1        2 0.53493806E+00 0.30894893E+04</pdfrwt>
<pdfrwt beam="2">  1       -1 0.10558037E+00 0.30894893E+04</pdfrwt>
<totfact> 0.68354588E-01</totfact>
</mgrwt>
</event>
<event>
12    6  0.1627636E-007  0.1448049E+04  0.7818608E-02  0.8919754E-01
         -1   -1    0    0    0  501 -0.00000000000E+00  0.00000000000E+00  0.22140445950E+03  0.22140445950E+03  0.00000000000E+00 0.  1.
          2   -1    0    0  501    0  0.00000000000E+00 -0.00000000000E+00 -0.23676646942E+04  0.23676646942E+04  0.00000000000E+00 0. -1.
         24    2    1    2    0    0  0.12334116533E+03 -0.34935969708E+03 -0.10546432745E+04  0.11208530828E+04  0.82304045750E+02 0.  0.
        254    2    1    2    0    0 -0.12334116533E+03  0.34935969708E+03 -0.10916169603E+04  0.14682160709E+04  0.90926651859E+03 0.  0.
         23    2    4    4    0    0 -0.20187352431E+03  0.49526035755E+03 -0.11482766648E+04  0.12699650645E+04  0.90753647945E+02 0.  0.
         23    2    4    4    0    0  0.78532358983E+02 -0.14590066047E+03  0.56659704558E+02  0.19825100633E+03  0.92945173391E+02 0.  0.
          2    1    3    3  502    0  0.43787719654E+02 -0.17658234139E+03 -0.62600914691E+03  0.65190961006E+03  0.00000000000E+00 0. -1.
         -1    1    3    3    0  502  0.79553445675E+02 -0.17277735570E+03 -0.42863412755E+03  0.46894347277E+03  0.00000000000E+00 0.  1.
         11    1    5    5    0    0 -0.70572531814E+02  0.20704499168E+03 -0.37169523942E+03  0.43128350517E+03  0.00000000000E+00 0. -1.
        -11    1    5    5    0    0 -0.13130099250E+03  0.28821536587E+03 -0.77658142539E+03  0.83868155937E+03  0.00000000000E+00 0.  1.
          4    1    6    6  503    0  0.28818165410E+02  0.13064689668E+01 -0.80339817459E+01  0.29945590351E+02  0.00000000000E+00 0. -1.
         -4    1    6    6    0  503  0.49714193572E+02 -0.14720712944E+03  0.64693686304E+02  0.16830541598E+03  0.00000000000E+00 0.  1.
<mgrwt>
<rscale>  0 0.14480491E+04</rscale>
<asrwt>0</asrwt>
<pdfrwt beam="1">  1        2 0.36425607E+00 0.14480491E+04</pdfrwt>
<pdfrwt beam="2">  1       -1 0.34062228E-01 0.14480491E+04</pdfrwt>
<totfact> 0.37420612E+01</totfact>
</mgrwt>
</event>
<event>
12    6  0.1627636E-007  0.1640218E+04  0.7818608E-02  0.8796214E-01
         -1   -1    0    0    0  501 -0.00000000000E+00  0.00000000000E+00  0.12546466928E+04  0.12546466928E+04  0.00000000000E+00 0.  1.
          2   -1    0    0  501    0  0.00000000000E+00 -0.00000000000E+00 -0.53607043034E+03  0.53607043034E+03  0.00000000000E+00 0. -1.
         24    2    1    2    0    0  0.62617489726E+02  0.34896197755E+03  0.64621429475E+03  0.74139003825E+03  0.79817681556E+02 0.  0.
        254    2    1    2    0    0 -0.62617489726E+02 -0.34896197755E+03  0.72361967738E+02  0.10493270849E+04  0.98496480391E+03 0.  0.
         23    2    4    4    0    0 -0.29137416100E+03  0.20862737152E+03  0.20969321086E+03  0.42486599825E+03  0.90086580272E+02 0.  0.
         23    2    4    4    0    0  0.22875667127E+03 -0.55758934907E+03 -0.13733124312E+03  0.62446108665E+03  0.88635667523E+02 0.  0.
          2    1    3    3  502    0  0.49437513907E+02  0.86676403835E+02  0.15406100999E+03  0.18355288492E+03  0.00000000000E+00 0. -1.
         -3    1    3    3    0  502  0.13179975819E+02  0.26228557372E+03  0.49215328475E+03  0.55783715333E+03  0.00000000000E+00 0.  1.
         11    1    5    5    0    0 -0.29561552164E+03  0.19991745474E+03  0.21175028075E+03  0.41496229556E+03  0.00000000000E+00 0. -1.
        -11    1    5    5    0    0  0.42413606390E+01  0.87099167818E+01 -0.20570698891E+01  0.99037026886E+01  0.00000000000E+00 0.  1.
          1    1    6    6  503    0  0.13315671263E+03 -0.27884553114E+03 -0.28477278712E+02  0.31031676680E+03  0.00000000000E+00 0. -1.
         -1    1    6    6    0  503  0.95599958641E+02 -0.27874381793E+03 -0.10885396441E+03  0.31414431985E+03  0.00000000000E+00 0.  1.
<mgrwt>
<rscale>  0 0.16402183E+04</rscale>
<asrwt>0</asrwt>
<pdfrwt beam="1">  1        2 0.82472374E-01 0.16402183E+04</pdfrwt>
<pdfrwt beam="2">  1       -1 0.19302257E+00 0.16402183E+04</pdfrwt>
<totfact> 0.10431933E+01</totfact>
</mgrwt>
</event>
<event>
12    6  0.1627636E-007  0.1845897E+04  0.7818608E-02  0.8682266E-01
          2   -1    0    0  501    0  0.00000000000E+00  0.00000000000E+00  0.96740009175E+03  0.96740009175E+03  0.00000000000E+00 0. -1.
         -1   -1    0    0    0  501 -0.00000000000E+00 -0.00000000000E+00 -0.88053944092E+03  0.88053944092E+03  0.00000000000E+00 0.  1.
         24    2    1    2    0    0  0.58431108765E+03 -0.97082969591E+02  0.41899982981E+03  0.72953287791E+03  0.76241802313E+02 0.  0.
        254    2    1    2    0    0 -0.58431108765E+03  0.97082969591E+02 -0.33213917899E+03  0.11184066548E+04  0.88863516758E+03 0.  0.
         23    2    4    4    0    0 -0.42155042268E+03 -0.30748275629E+03 -0.40517021512E+03  0.66706186289E+03  0.92510655714E+02 0.  0.
         23    2    4    4    0    0 -0.16276066497E+03  0.40456572588E+03  0.73031036131E+02  0.45134479188E+03  0.90631828289E+02 0.  0.
          2    1    3    3  502    0  0.48847262566E+03 -0.91244448086E+02  0.31685819573E+03  0.58934724190E+03  0.00000000000E+00 0. -1.
         -1    1    3    3    0  502  0.95838461991E+02 -0.58385215055E+01  0.10214163408E+03  0.14018563601E+03  0.00000000000E+00 0.  1.
         11    1    5    5    0    0 -0.39924670272E+03 -0.27830740444E+03 -0.34494598904E+03  0.59652382714E+03  0.00000000000E+00 0. -1.
        -11    1    5    5    0    0 -0.22303719968E+02 -0.29175351852E+02 -0.60224226078E+02  0.70538035746E+02  0.00000000000E+00 0.  1.
          1    1    6    6  503    0 -0.11254317489E+03  0.26286600662E+03  0.41353411300E+01  0.28597483228E+03  0.00000000000E+00 0. -1.
         -1    1    6    6    0  503 -0.50217490080E+02  0.14169971926E+03  0.68895695001E+02  0.16536995960E+03  0.00000000000E+00 0.  1.
<mgrwt>
<rscale>  0 0.18458970E+04</rscale>
<asrwt>0</asrwt>
<pdfrwt beam="1">  1        2 0.14883078E+00 0.18458970E+04</pdfrwt>
<pdfrwt beam="2">  1       -1 0.13546760E+00 0.18458970E+04</pdfrwt>
<totfact> 0.12958735E+01</totfact>
</mgrwt>
</event>
<event>
12    6  0.1627636E-007  0.2067834E+04  0.7818608E-02  0.8575547E-01
         -1   -1    0    0    0  501 -0.00000000000E+00  0.00000000000E+00  0.10988165023E+04  0.10988165023E+04  0.00000000000E+00 0.  1.
          2   -1    0    0  501    0  0.00000000000E+00 -0.00000000000E+00 -0.97285082522E+03  0.97285082522E+03  0.00000000000E+00 0. -1.
         24    2    1    2    0    0  0.21854271913E+03  0.62540735394E+03  0.55494855004E+03  0.86796790439E+03  0.80654270880E+02 0.  0.
        254    2    1    2    0    0 -0.21854271913E+03 -0.62540735394E+03 -0.42898287293E+03  0.12036994232E+04  0.90882931160E+03 0.  0.
         23    2    4    4    0    0 -0.25191288472E+03  0.22223653460E+02 -0.47370383135E+03  0.54554132732E+03  0.96260208351E+02 0.  0.
         23    2    4    4    0    0  0.33370165591E+02 -0.64763100740E+03  0.44720958420E+02  0.65815809585E+03  0.10311462221E+03 0.  0.
          4    1    3    3  502    0  0.39299484175E+01  0.94930875458E+02  0.73191205182E+02  0.11993443261E+03  0.00000000000E+00 0. -1.
         -3    1    3    3    0  502  0.21461277071E+03  0.53047647848E+03  0.48175734486E+03  0.74803347178E+03  0.00000000000E+00 0.  1.
         11    1    5    5    0    0 -0.10560570888E+03 -0.56531064493E+01 -0.29220730278E+03  0.31075654645E+03  0.00000000000E+00 0. -1.
        -11    1    5    5    0    0 -0.14630717584E+03  0.27876759909E+02 -0.18149652857E+03  0.23478478087E+03  0.00000000000E+00 0.  1.
          4    1    6    6  503    0  0.60201994544E+02 -0.29676335726E+03 -0.44914787573E+01  0.30284144984E+03  0.00000000000E+00 0.  1.
         -4    1    6    6    0  503 -0.26831828953E+02 -0.35086765014E+03  0.49212437177E+02  0.35531664601E+03  0.00000000000E+00 0. -1.
<mgrwt>
<rscale>  0 0.20678342E+04</rscale>
<asrwt>0</asrwt>
<pdfrwt beam="1">  1        2 0.14966936E+00 0.20678342E+04</pdfrwt>
<pdfrwt beam="2">  1       -1 0.16904869E+00 0.20678342E+04</pdfrwt>
<totfact> 0.69131363E+00</totfact>
</mgrwt>
</event>
<event>
12    6  0.1627636E-007  0.1231461E+04  0.7818608E-02  0.9085756E-01
         -1   -1    0    0    0  501 -0.00000000000E+00  0.00000000000E+00  0.56115104440E+03  0.56115104440E+03  0.00000000000E+00 0.  1.
          2   -1    0    0  501    0  0.00000000000E+00 -0.00000000000E+00 -0.67561822576E+03  0.67561822576E+03  0.00000000000E+00 0. -1.
         24    2    1    2    0    0 -0.17660900166E+00 -0.71934179333E+02  0.24530202331E+03  0.26892179007E+03  0.83494246435E+02 0.  0.
        254    2    1    2    0    0  0.17660900166E+00  0.71934179333E+02 -0.35976920467E+03  0.96784748009E+03  0.89561169417E+03 0.  0.
         23    2    4    4    0    0  0.18076148278E+03  0.19382896975E+02  0.25022566266E+03  0.32297448911E+03  0.93001225837E+02 0.  0.
         23    2    4    4    0    0 -0.18058487378E+03  0.52551282358E+02 -0.60999486733E+03  0.64487299098E+03  0.91623700049E+02 0.  0.
          2    1    3    3  502    0 -0.26244254029E+02 -0.20794978274E+02  0.26459055749E+02  0.42676382486E+02  0.00000000000E+00 0. -1.
         -1    1    3    3    0  502  0.26067645027E+02 -0.51139201059E+02  0.21884296756E+03  0.22624540758E+03  0.00000000000E+00 0.  1.
         11    1    5    5    0    0  0.13746598881E+03  0.11207793432E+02  0.11129993215E+03  0.17722919514E+03  0.00000000000E+00 0.  1.
        -11    1    5    5    0    0  0.43295493976E+02  0.81751035437E+01  0.13892573051E+03  0.14574529397E+03  0.00000000000E+00 0. -1.
          3    1    6    6  503    0 -0.10582264023E+03 -0.47685481188E+01 -0.41510902058E+03  0.42841179863E+03  0.00000000000E+00 0. -1.
         -3    1    6    6    0  503 -0.74762233549E+02  0.57319830476E+02 -0.19488584675E+03  0.21646119235E+03  0.00000000000E+00 0.  1.
<mgrwt>
<rscale>  0 0.12314607E+04</rscale>
<asrwt>0</asrwt>
<pdfrwt beam="1">  1        2 0.10394127E+00 0.12314607E+04</pdfrwt>
<pdfrwt beam="2">  1       -1 0.86330930E-01 0.12314607E+04</pdfrwt>
<totfact> 0.63826322E+01</totfact>
</mgrwt>
</event>
<event>
12    6  0.1627636E-007  0.2228756E+04  0.7818608E-02  0.8506554E-01
         -1   -1    0    0    0  501 -0.00000000000E+00  0.00000000000E+00  0.97758725018E+03  0.97758725018E+03  0.00000000000E+00 0.  1.
          2   -1    0    0  501    0  0.00000000000E+00 -0.00000000000E+00 -0.12703094025E+04  0.12703094025E+04  0.00000000000E+00 0. -1.
         24    2    1    2    0    0  0.90852230099E+02  0.84574726430E+03 -0.46334333645E+03  0.97238463533E+03  0.85453313651E+02 0.  0.
        254    2    1    2    0    0 -0.90852230099E+02 -0.84574726430E+03  0.17062118410E+03  0.12755120174E+04  0.93502767617E+03 0.  0.
         23    2    4    4    0    0  0.24743770410E+03 -0.82433370279E+03 -0.34146995856E+02  0.86616186922E+03  0.91207978865E+02 0.  0.
         23    2    4    4    0    0 -0.33828993420E+03 -0.21413561516E+02  0.20476817995E+03  0.40935014815E+03  0.10362874153E+03 0.  0.
          4    1    3    3  502    0  0.51265618254E+02  0.68067028260E+03 -0.34027623288E+03  0.76271102777E+03  0.00000000000E+00 0. -1.
         -3    1    3    3    0  502  0.39586611845E+02  0.16507698171E+03 -0.12306710357E+03  0.20967360756E+03  0.00000000000E+00 0.  1.
         11    1    5    5    0    0  0.15332891302E+03 -0.55257844145E+03 -0.64049477064E+02  0.57702255158E+03  0.00000000000E+00 0. -1.
        -11    1    5    5    0    0  0.94108791076E+02 -0.27175526134E+03  0.29902481208E+02  0.28913931764E+03  0.00000000000E+00 0.  1.
          1    1    6    6  503    0 -0.28804260018E+03 -0.26249204829E+02  0.21164990633E+03  0.35840374318E+03  0.00000000000E+00 0. -1.
         -1    1    6    6    0  503 -0.50247334013E+02  0.48356433129E+01 -0.68817263732E+01  0.50946404971E+02  0.00000000000E+00 0.  1.
<mgrwt>
<rscale>  0 0.22287560E+04</rscale>
<asrwt>0</asrwt>
<pdfrwt beam="1">  1        2 0.19543221E+00 0.22287560E+04</pdfrwt>
<pdfrwt beam="2">  1       -1 0.15039804E+00 0.22287560E+04</pdfrwt>
<totfact> 0.61956401E+00</totfact>
</mgrwt>
</event>
<event>
12    6  0.1627636E-007  0.2074041E+04  0.7818608E-02  0.8572765E-01
         -1   -1    0    0    0  501 -0.00000000000E+00  0.00000000000E+00  0.65713856835E+03  0.65713856835E+03  0.00000000000E+00 0.  1.
          2   -1    0    0  501    0  0.00000000000E+00 -0.00000000000E+00 -0.16365066946E+04  0.16365066946E+04  0.00000000000E+00 0. -1.
         24    2    1    2    0    0  0.53287183516E+03 -0.68057297713E+03 -0.54408480574E+03  0.10244669808E+04  0.79826994058E+02 0.  0.
        254    2    1    2    0    0 -0.53287183516E+03  0.68057297713E+03 -0.43528332049E+03  0.12691782821E+04  0.82110290029E+03 0.  0.
         23    2    4    4    0    0 -0.58380422560E+03  0.65153715135E+03 -0.60489106476E+03  0.10675845952E+04  0.92280194209E+02 0.  0.
         23    2    4    4    0    0  0.50932390442E+02  0.29035825781E+02  0.16960774427E+03  0.20159368695E+03  0.91847918475E+02 0.  0.
          2    1    3    3  502    0  0.46438557597E+03 -0.54434101921E+03 -0.45282458522E+03  0.84676514651E+03  0.00000000000E+00 0. -1.
         -1    1    3    3    0  502  0.68486259193E+02 -0.13623195792E+03 -0.91260220521E+02  0.17770183428E+03  0.00000000000E+00 0.  1.
         11    1    5    5    0    0 -0.42403687397E+03  0.42065043482E+03 -0.44128272903E+03  0.74262002784E+03  0.00000000000E+00 0. -1.
        -11    1    5    5    0    0 -0.15976735163E+03  0.23088671653E+03 -0.16360833573E+03  0.32496456736E+03  0.00000000000E+00 0.  1.
          2    1    6    6  503    0  0.22540328635E+02  0.47763080153E+02  0.36476739281E+02  0.64186686698E+02  0.00000000000E+00 0. -1.
         -2    1    6    6    0  503  0.28392061807E+02 -0.18727254372E+02  0.13313100499E+03  0.13740700026E+03  0.00000000000E+00 0.  1.
<mgrwt>
<rscale>  0 0.20740411E+04</rscale>
<asrwt>0</asrwt>
<pdfrwt beam="1">  1        2 0.25177026E+00 0.20740411E+04</pdfrwt>
<pdfrwt beam="2">  1       -1 0.10109824E+00 0.20740411E+04</pdfrwt>
<totfact> 0.10402466E+01</totfact>
</mgrwt>
</event>
<event>
12    6  0.1627636E-007  0.1645638E+04  0.7818608E-02  0.8792991E-01
         -1   -1    0    0    0  501 -0.00000000000E+00  0.00000000000E+00  0.18343974338E+04  0.18343974338E+04  0.00000000000E+00 0.  1.
          2   -1    0    0  501    0  0.00000000000E+00 -0.00000000000E+00 -0.36907533399E+03  0.36907533399E+03  0.00000000000E+00 0. -1.
         24    2    1    2    0    0 -0.24472067189E+03  0.16815160041E+03 -0.15967372790E+03  0.34641307767E+03  0.79643913946E+02 0.  0.
        254    2    1    2    0    0  0.24472067189E+03 -0.16815160041E+03  0.16249958277E+04  0.18570596901E+04  0.84846690249E+03 0.  0.
         23    2    4    4    0    0 -0.16038247385E+03 -0.26299667399E+03  0.12481842398E+04  0.12888940390E+04  0.91619642069E+02 0.  0.
         23    2    4    4    0    0  0.40510314574E+03  0.94845073580E+02  0.37681158787E+03  0.56816565109E+03  0.87869719792E+02 0.  0.
          2    1    3    3  502    0 -0.24153870052E+03  0.15204980280E+03 -0.16434657694E+03  0.32934766392E+03  0.00000000000E+00 0. -1.
         -1    1    3    3    0  502 -0.31819713689E+01  0.16101797609E+02  0.46728490437E+01  0.17065413743E+02  0.00000000000E+00 0.  1.
         11    1    5    5    0    0 -0.10776277081E+03 -0.22681338480E+03  0.10845309124E+04  0.11132225412E+04  0.00000000000E+00 0. -1.
        -11    1    5    5    0    0 -0.52619703044E+02 -0.36183289189E+02  0.16365332740E+03  0.17567149779E+03  0.00000000000E+00 0.  1.
          1    1    6    6  503    0  0.35615529624E+03  0.90757640958E+02  0.28900578902E+03  0.46755522724E+03  0.00000000000E+00 0. -1.
         -1    1    6    6    0  503  0.48947849501E+02  0.40874326221E+01  0.87805798849E+02  0.10061042385E+03  0.00000000000E+00 0.  1.
<mgrwt>
<rscale>  0 0.16456377E+04</rscale>
<asrwt>0</asrwt>
<pdfrwt beam="1">  1        2 0.56780822E-01 0.16456377E+04</pdfrwt>
<pdfrwt beam="2">  1       -1 0.28221498E+00 0.16456377E+04</pdfrwt>
<totfact> 0.41032156E+00</totfact>
</mgrwt>
</event>
<event>
12    6  0.1627636E-007  0.2474679E+04  0.7818608E-02  0.8412062E-01
          2   -1    0    0  501    0  0.00000000000E+00  0.00000000000E+00  0.14429796662E+04  0.14429796662E+04  0.00000000000E+00 0. -1.
         -1   -1    0    0    0  501 -0.00000000000E+00 -0.00000000000E+00 -0.10610053043E+04  0.10610053043E+04  0.00000000000E+00 0.  1.
         24    2    1    2    0    0  0.50011362112E+03 -0.53701662941E+03 -0.62246949392E+03  0.96529522121E+03  0.76328886697E+02 0.  0.
        254    2    1    2    0    0 -0.50011362112E+03  0.53701662941E+03  0.10044438558E+04  0.15386897494E+04  0.90562585599E+03 0.  0.
         23    2    4    4    0    0  0.18141705779E+03  0.22626784564E+03  0.28569084386E+02  0.30533110701E+03  0.91113146704E+02 0.  0.
         23    2    4    4    0    0 -0.68153067891E+03  0.31074878377E+03  0.97587477143E+03  0.12333586424E+04  0.88278526605E+02 0.  0.
          4    1    3    3  502    0  0.16817509495E+03 -0.13714273346E+03 -0.20760500752E+03  0.30031788333E+03  0.00000000000E+00 0. -1.
         -3    1    3    3    0  502  0.33193852616E+03 -0.39987389595E+03 -0.41486448640E+03  0.66497733788E+03  0.00000000000E+00 0.  1.
         11    1    5    5    0    0  0.23378896960E+02  0.97054514166E+02  0.11163510179E+02  0.10045285214E+03  0.00000000000E+00 0. -1.
        -11    1    5    5    0    0  0.15803816083E+03  0.12921333147E+03  0.17405574207E+02  0.20487825488E+03  0.00000000000E+00 0.  1.
          3    1    6    6  503    0 -0.28509611704E+03  0.92724059068E+02  0.43326739376E+03  0.52687586923E+03  0.00000000000E+00 0. -1.
         -3    1    6    6    0  503 -0.39643456187E+03  0.21802472471E+03  0.54260737767E+03  0.70648277313E+03  0.00000000000E+00 0.  1.
<mgrwt>
<rscale>  0 0.24746790E+04</rscale>
<asrwt>0</asrwt>
<pdfrwt beam="1">  1        2 0.22199687E+00 0.24746790E+04</pdfrwt>
<pdfrwt beam="2">  1       -1 0.16323159E+00 0.24746790E+04</pdfrwt>
<totfact> 0.38468392E+00</totfact>
</mgrwt>
</event>
<event>
12    6  0.1627636E-007  0.2454220E+04  0.7818608E-02  0.8419479E-01
         -1   -1    0    0    0  501 -0.00000000000E+00  0.00000000000E+00  0.63827096941E+03  0.63827096941E+03  0.00000000000E+00 0.  1.
          2   -1    0    0  501    0  0.00000000000E+00 -0.00000000000E+00 -0.23591841849E+04  0.23591841849E+04  0.00000000000E+00 0. -1.
         24    2    1    2    0    0  0.51204349990E+03  0.37034951192E+03 -0.17842032229E+04  0.18945187156E+04  0.80453194688E+02 0.  0.
        254    2    1    2    0    0 -0.51204349990E+03 -0.37034951192E+03  0.63290007408E+02  0.11029364387E+04  0.90172936956E+03 0.  0.
         23    2    4    4    0    0 -0.19720394418E+02  0.27007501519E+03 -0.13646364183E+02  0.28610561475E+03  0.91327935222E+02 0.  0.
         23    2    4    4    0    0 -0.49232310548E+03 -0.64042452711E+03  0.76936371591E+02  0.81683082392E+03  0.93636395210E+02 0.  0.
          4    1    3    3  502    0  0.17619269950E+03  0.12841473286E+03 -0.73377945884E+03  0.76548449049E+03  0.00000000000E+00 0. -1.
         -3    1    3    3    0  502  0.33585080040E+03  0.24193477906E+03 -0.10504237640E+04  0.11290342251E+04  0.00000000000E+00 0.  1.
         11    1    5    5    0    0 -0.44411898229E+01  0.21848751373E+03  0.24861556702E+02  0.21994229886E+03  0.00000000000E+00 0. -1.
        -11    1    5    5    0    0 -0.15279204595E+02  0.51587501456E+02 -0.38507920885E+02  0.66163315896E+02  0.00000000000E+00 0.  1.
          2    1    6    6  503    0 -0.41537194943E+03 -0.58306468658E+03  0.82870037028E+02  0.72067033250E+03  0.00000000000E+00 0. -1.
         -2    1    6    6    0  503 -0.76951156057E+02 -0.57359840534E+02 -0.59336654361E+01  0.96160491420E+02  0.00000000000E+00 0.  1.
<mgrwt>
<rscale>  0 0.24542199E+04</rscale>
<asrwt>0</asrwt>
<pdfrwt beam="1">  1        2 0.36295142E+00 0.24542199E+04</pdfrwt>
<pdfrwt beam="2">  1       -1 0.98195533E-01 0.24542199E+04</pdfrwt>
<totfact> 0.42440290E+00</totfact>
</mgrwt>
</event>
<event>
12    6  0.1627636E-007  0.1181804E+04  0.7818608E-02  0.9128934E-01
          2   -1    0    0  501    0  0.00000000000E+00  0.00000000000E+00  0.11404095756E+04  0.11404095756E+04  0.00000000000E+00 0. -1.
         -1   -1    0    0    0  501 -0.00000000000E+00 -0.00000000000E+00 -0.30617540058E+03  0.30617540058E+03  0.00000000000E+00 0.  1.
         24    2    1    2    0    0  0.13888993739E+03 -0.17884990262E+03  0.97296685955E+02  0.26020094021E+03  0.83427704093E+02 0.  0.
        254    2    1    2    0    0 -0.13888993739E+03  0.17884990262E+03  0.73693748901E+03  0.11863840359E+04  0.90174969676E+03 0.  0.
         23    2    4    4    0    0 -0.56855375202E+02 -0.19104905908E+03  0.76526479647E+03  0.79586142691E+03  0.89626589001E+02 0.  0.
         23    2    4    4    0    0 -0.82034562193E+02  0.36989896170E+03 -0.28327307458E+02  0.39052260902E+03  0.90280454926E+02 0.  0.
          2    1    3    3  502    0  0.89419427689E+01  0.52677671890E+01  0.18963915980E+02  0.21617997617E+02  0.00000000000E+00 0. -1.
         -1    1    3    3    0  502  0.12994799463E+03 -0.18411766981E+03  0.78332769974E+02  0.23858294259E+03  0.00000000000E+00 0.  1.
         11    1    5    5    0    0  0.20498835382E+02 -0.83438557598E+02  0.28903742697E+03  0.30153744268E+03  0.00000000000E+00 0.  1.
        -11    1    5    5    0    0 -0.77354210584E+02 -0.10761050148E+03  0.47622736950E+03  0.49432398423E+03  0.00000000000E+00 0. -1.
          1    1    6    6  503    0 -0.90814588106E+02  0.23690240073E+03  0.24710244983E+01  0.25372454128E+03  0.00000000000E+00 0.  1.
         -1    1    6    6    0  503  0.87800259129E+01  0.13299656097E+03 -0.30798331956E+02  0.13679806774E+03  0.00000000000E+00 0. -1.
<mgrwt>
<rscale>  0 0.11818043E+04</rscale>
<asrwt>0</asrwt>
<pdfrwt beam="1">  1        2 0.17544763E+00 0.11818043E+04</pdfrwt>
<pdfrwt beam="2">  1       -1 0.47103908E-01 0.11818043E+04</pdfrwt>
<totfact> 0.10413035E+02</totfact>
</mgrwt>
</event>
<event>
12    6  0.1627636E-007  0.2028165E+04  0.7818608E-02  0.8593565E-01
          2   -1    0    0  501    0  0.00000000000E+00  0.00000000000E+00  0.29782029233E+04  0.29782029233E+04  0.00000000000E+00 0. -1.
         -1   -1    0    0    0  501 -0.00000000000E+00 -0.00000000000E+00 -0.34529646115E+03  0.34529646115E+03  0.00000000000E+00 0.  1.
         24    2    1    2    0    0 -0.69006025988E+03 -0.21740445300E+03  0.46341628946E+03  0.86337447717E+03  0.84929217778E+02 0.  0.
        254    2    1    2    0    0  0.69006025988E+03  0.21740445300E+03  0.21694901727E+04  0.24601249073E+04  0.90668577334E+03 0.  0.
         23    2    4    4    0    0  0.19521826966E+03  0.38909560381E+03  0.35464780338E+03  0.56882477542E+03  0.90999994362E+02 0.  0.
         23    2    4    4    0    0  0.49484199022E+03 -0.17169115081E+03  0.18148423693E+04  0.18913001318E+04  0.94957447307E+02 0.  0.
          4    1    3    3  502    0 -0.27754662730E+03 -0.44738059751E+02  0.17057076331E+03  0.32882823725E+03  0.00000000000E+00 0. -1.
         -1    1    3    3    0  502 -0.41251363258E+03 -0.17266639325E+03  0.29284552615E+03  0.53454623992E+03  0.00000000000E+00 0.  1.
         11    1    5    5    0    0  0.11387246162E+03  0.28200853914E+03  0.20056696974E+03  0.36431149174E+03  0.00000000000E+00 0.  1.
        -11    1    5    5    0    0  0.81345808040E+02  0.10708706467E+03  0.15408083364E+03  0.20451328368E+03  0.00000000000E+00 0. -1.
          4    1    6    6  503    0  0.44878224921E+03 -0.16981123168E+03  0.15532597387E+04  0.16256866787E+04  0.00000000000E+00 0.  1.
         -4    1    6    6    0  503  0.46059741017E+02 -0.18799191325E+01  0.26158263058E+03  0.26561345309E+03  0.00000000000E+00 0. -1.
<mgrwt>
<rscale>  0 0.20281646E+04</rscale>
<asrwt>0</asrwt>
<pdfrwt beam="1">  1        2 0.45818505E+00 0.20281646E+04</pdfrwt>
<pdfrwt beam="2">  1       -1 0.53122534E-01 0.20281646E+04</pdfrwt>
<totfact> 0.67883550E+00</totfact>
</mgrwt>
</event>
<event>
12    6  0.1627636E-007  0.1983465E+04  0.7818608E-02  0.8614391E-01
         -1   -1    0    0    0  501 -0.00000000000E+00  0.00000000000E+00  0.13107261679E+04  0.13107261679E+04  0.00000000000E+00 0.  1.
          2   -1    0    0  501    0  0.00000000000E+00 -0.00000000000E+00 -0.75037285160E+03  0.75037285160E+03  0.00000000000E+00 0. -1.
         24    2    1    2    0    0 -0.37836846389E+03 -0.16805246646E+03 -0.46402180677E+03  0.62691793939E+03  0.79407427961E+02 0.  0.
        254    2    1    2    0    0  0.37836846389E+03  0.16805246646E+03  0.10243751231E+04  0.14341810801E+04  0.91439961276E+03 0.  0.
         23    2    4    4    0    0 -0.32513628918E+02  0.47319804035E+03  0.52731864088E+03  0.71487042270E+03  0.89449710892E+02 0.  0.
         23    2    4    4    0    0  0.41088209280E+03 -0.30514557389E+03  0.49705648219E+03  0.71931065740E+03  0.91677477620E+02 0.  0.
          4    1    3    3  502    0 -0.37548179359E+03 -0.15780927488E+03 -0.46231870984E+03  0.61614035254E+03  0.00000000000E+00 0. -1.
         -3    1    3    3    0  502 -0.28866702941E+01 -0.10243191576E+02 -0.17030969318E+01  0.10777586846E+02  0.00000000000E+00 0.  1.
         11    1    5    5    0    0 -0.11571163802E+02  0.10294960355E+03  0.17492258155E+03  0.20329884958E+03  0.00000000000E+00 0. -1.
        -11    1    5    5    0    0 -0.20942465115E+02  0.37024843681E+03  0.35239605933E+03  0.51157157313E+03  0.00000000000E+00 0.  1.
          2    1    6    6  503    0  0.18845368486E+03 -0.18696450201E+03  0.21903372675E+03  0.34416026762E+03  0.00000000000E+00 0. -1.
         -2    1    6    6    0  503  0.22242840794E+03 -0.11818107188E+03  0.27802275544E+03  0.37515038978E+03  0.00000000000E+00 0.  1.
<mgrwt>
<rscale>  0 0.19834650E+04</rscale>
<asrwt>0</asrwt>
<pdfrwt beam="1">  1        2 0.11544198E+00 0.19834650E+04</pdfrwt>
<pdfrwt beam="2">  1       -1 0.20165018E+00 0.19834650E+04</pdfrwt>
<totfact> 0.58337044E+00</totfact>
</mgrwt>
</event>
<event>
12    6  0.1627636E-007  0.1281232E+04  0.7818608E-02  0.9044582E-01
         -1   -1    0    0    0  501 -0.00000000000E+00  0.00000000000E+00  0.32160866342E+03  0.32160866342E+03  0.00000000000E+00 0.  1.
          2   -1    0    0  501    0  0.00000000000E+00 -0.00000000000E+00 -0.12760507100E+04  0.12760507100E+04  0.00000000000E+00 0. -1.
         24    2    1    2    0    0  0.94056153269E+02 -0.25687971041E+02  0.13140777805E+03  0.18509975271E+03  0.86530240360E+02 0.  0.
        254    2    1    2    0    0 -0.94056153269E+02  0.25687971041E+02 -0.10858498247E+04  0.14125596208E+04  0.89819174380E+03 0.  0.
         23    2    4    4    0    0 -0.45642117105E+03 -0.14804725510E+03 -0.64733704844E+03  0.81087933801E+03  0.90784202465E+02 0.  0.
         23    2    4    4    0    0  0.36236501778E+03  0.17373522614E+03 -0.43851277624E+03  0.60168028274E+03  0.90737934762E+02 0.  0.
          2    1    3    3  502    0 -0.81377963908E+01 -0.25188190480E+02  0.40143826093E+02  0.48085293419E+02  0.00000000000E+00 0. -1.
         -1    1    3    3    0  502  0.10219394966E+03 -0.49978056099E+00  0.91263951955E+02  0.13701445929E+03  0.00000000000E+00 0.  1.
         11    1    5    5    0    0 -0.22143299482E+03 -0.96294892663E+02 -0.38893025555E+03  0.45779036821E+03  0.00000000000E+00 0. -1.
        -11    1    5    5    0    0 -0.23498817623E+03 -0.51752362437E+02 -0.25840679289E+03  0.35308896980E+03  0.00000000000E+00 0.  1.
          1    1    6    6  503    0  0.30358014449E+03  0.17830450510E+03 -0.36057757493E+03  0.50395395445E+03  0.00000000000E+00 0. -1.
         -1    1    6    6    0  503  0.58784873292E+02 -0.45692789589E+01 -0.77935201309E+02  0.97726328291E+02  0.00000000000E+00 0.  1.
<mgrwt>
<rscale>  0 0.12812322E+04</rscale>
<asrwt>0</asrwt>
<pdfrwt beam="1">  1        2 0.19631550E+00 0.12812322E+04</pdfrwt>
<pdfrwt beam="2">  1       -1 0.49478255E-01 0.12812322E+04</pdfrwt>
<totfact> 0.78195593E+01</totfact>
</mgrwt>
</event>
<event>
12    6  0.1627636E-007  0.1663692E+04  0.7818608E-02  0.8782347E-01
         -1   -1    0    0    0  501 -0.00000000000E+00  0.00000000000E+00  0.56961328392E+03  0.56961328392E+03  0.00000000000E+00 0.  1.
          2   -1    0    0  501    0  0.00000000000E+00 -0.00000000000E+00 -0.12148034507E+04  0.12148034507E+04  0.00000000000E+00 0. -1.
         24    2    1    2    0    0 -0.27089001047E+03 -0.83700951136E+02 -0.78406499044E+03  0.83748121743E+03  0.78928026170E+02 0.  0.
        254    2    1    2    0    0  0.27089001047E+03  0.83700951136E+02  0.13887482363E+03  0.94693551722E+03  0.89275607539E+03 0.  0.
         23    2    4    4    0    0  0.36331692669E+03  0.73478942679E+02 -0.30235007697E+03  0.48676198179E+03  0.90129427127E+02 0.  0.
         23    2    4    4    0    0 -0.92426916212E+02  0.10222008457E+02  0.44122490061E+03  0.46017353544E+03  0.91831614955E+02 0.  0.
          4    1    3    3  502    0 -0.11079404997E+03 -0.65998069161E+02 -0.42056251776E+03  0.43989077961E+03  0.00000000000E+00 0. -1.
         -3    1    3    3    0  502 -0.16009596050E+03 -0.17702881975E+02 -0.36350247268E+03  0.39759043782E+03  0.00000000000E+00 0.  1.
         11    1    5    5    0    0  0.18747707138E+02  0.63836511825E+01  0.47315493906E+01  0.20362099228E+02  0.00000000000E+00 0.  1.
        -11    1    5    5    0    0  0.34456921955E+03  0.67095291497E+02 -0.30708162636E+03  0.46639988256E+03  0.00000000000E+00 0. -1.
          3    1    6    6  503    0 -0.55449414355E+02  0.45660733044E+02  0.32993655157E+03  0.33766502359E+03  0.00000000000E+00 0. -1.
         -3    1    6    6    0  503 -0.36977501858E+02 -0.35438724587E+02  0.11128834904E+03  0.12250851185E+03  0.00000000000E+00 0.  1.
<mgrwt>
<rscale>  0 0.16636925E+04</rscale>
<asrwt>0</asrwt>
<pdfrwt beam="1">  1        2 0.18689284E+00 0.16636925E+04</pdfrwt>
<pdfrwt beam="2">  1       -1 0.87632814E-01 0.16636925E+04</pdfrwt>
<totfact> 0.25869364E+01</totfact>
</mgrwt>
</event>
<event>
12    6  0.1627636E-007  0.2569355E+04  0.7818608E-02  0.8378686E-01
         -1   -1    0    0    0  501 -0.00000000000E+00  0.00000000000E+00  0.69852738548E+03  0.69852738548E+03  0.00000000000E+00 0.  1.
          2   -1    0    0  501    0  0.00000000000E+00 -0.00000000000E+00 -0.23626796656E+04  0.23626796656E+04  0.00000000000E+00 0. -1.
         24    2    1    2    0    0 -0.10316236327E+04  0.30057242400E+03 -0.33041572572E+03  0.11269401308E+04  0.78920244298E+02 0.  0.
        254    2    1    2    0    0  0.10316236327E+04 -0.30057242400E+03 -0.13337365544E+04  0.19342669203E+04  0.89885717479E+03 0.  0.
         23    2    4    4    0    0  0.25919292325E+03 -0.34535932061E+03 -0.98801682168E+03  0.10819677377E+04  0.89570719491E+02 0.  0.
         23    2    4    4    0    0  0.77243070947E+03  0.44786896612E+02 -0.34571973272E+03  0.85229918254E+03  0.90756244540E+02 0.  0.
          2    1    3    3  502    0 -0.91754684190E+03  0.25559856755E+03 -0.26867034489E+03  0.98964973048E+03  0.00000000000E+00 0. -1.
         -1    1    3    3    0  502 -0.11407679082E+03  0.44973856449E+02 -0.61745380829E+02  0.13729040032E+03  0.00000000000E+00 0.  1.
         11    1    5    5    0    0  0.23647978591E+03 -0.25516930971E+03 -0.78839613989E+03  0.86174389418E+03  0.00000000000E+00 0.  1.
        -11    1    5    5    0    0  0.22713137341E+02 -0.90190010899E+02 -0.19962068179E+03  0.22022384356E+03  0.00000000000E+00 0. -1.
          4    1    6    6  503    0  0.87614816191E+02  0.25635752633E+02 -0.64331734925E+02  0.11167864589E+03  0.00000000000E+00 0. -1.
         -4    1    6    6    0  503  0.68481589328E+03  0.19151143980E+02 -0.28138799780E+03  0.74062053665E+03  0.00000000000E+00 0.  1.
<mgrwt>
<rscale>  0 0.25693551E+04</rscale>
<asrwt>0</asrwt>
<pdfrwt beam="1">  1        2 0.36348918E+00 0.25693551E+04</pdfrwt>
<pdfrwt beam="2">  1       -1 0.10746575E+00 0.25693551E+04</pdfrwt>
<totfact> 0.33953950E+00</totfact>
</mgrwt>
</event>
<event>
12    6  0.1627636E-007  0.2161007E+04  0.7818608E-02  0.8534835E-01
          2   -1    0    0  501    0  0.00000000000E+00  0.00000000000E+00  0.63267572976E+03  0.63267572976E+03  0.00000000000E+00 0. -1.
         -1   -1    0    0    0  501 -0.00000000000E+00 -0.00000000000E+00 -0.18453175476E+04  0.18453175476E+04  0.00000000000E+00 0.  1.
         24    2    1    2    0    0  0.17427332375E+03  0.62805005442E+02 -0.15140607535E+04  0.15275339527E+04  0.81635478271E+02 0.  0.
        254    2    1    2    0    0 -0.17427332375E+03 -0.62805005442E+02  0.30141893565E+03  0.95045932467E+03  0.88215865523E+03 0.  0.
         23    2    4    4    0    0 -0.29758799566E+03  0.21301077912E+03  0.46175310020E+03  0.59654375121E+03  0.93361203804E+02 0.  0.
         23    2    4    4    0    0  0.12331467191E+03 -0.27581578457E+03 -0.16033416455E+03  0.35391557346E+03  0.90930377170E+02 0.  0.
          4    1    3    3  502    0  0.38617026999E+02  0.10725392866E+02 -0.13457999043E+03  0.14042109048E+03  0.00000000000E+00 0. -1.
         -3    1    3    3    0  502  0.13565629676E+03  0.52079612576E+02 -0.13794807631E+04  0.13871128622E+04  0.00000000000E+00 0.  1.
         11    1    5    5    0    0 -0.56958759309E+02  0.92275372557E+02  0.12924723240E+03  0.16871245279E+03  0.00000000000E+00 0. -1.
        -11    1    5    5    0    0 -0.24062923635E+03  0.12073540657E+03  0.33250586780E+03  0.42783129842E+03  0.00000000000E+00 0.  1.
          2    1    6    6  503    0  0.10486319145E+03 -0.15820043504E+03 -0.62513687407E+02  0.19982899610E+03  0.00000000000E+00 0.  1.
         -2    1    6    6    0  503  0.18451480458E+02 -0.11761534953E+03 -0.97820477141E+02  0.15408657736E+03  0.00000000000E+00 0. -1.
<mgrwt>
<rscale>  0 0.21610068E+04</rscale>
<asrwt>0</asrwt>
<pdfrwt beam="1">  1        2 0.97334729E-01 0.21610068E+04</pdfrwt>
<pdfrwt beam="2">  1       -1 0.28389500E+00 0.21610068E+04</pdfrwt>
<totfact> 0.20440520E+00</totfact>
</mgrwt>
</event>
<event>
12    6  0.1627636E-007  0.1209033E+04  0.7818608E-02  0.9104987E-01
         -1   -1    0    0    0  501 -0.00000000000E+00  0.00000000000E+00  0.39270487342E+03  0.39270487342E+03  0.00000000000E+00 0.  1.
          2   -1    0    0  501    0  0.00000000000E+00 -0.00000000000E+00 -0.93057140844E+03  0.93057140844E+03  0.00000000000E+00 0. -1.
         24    2    1    2    0    0 -0.58537771375E+01  0.24836708055E+02 -0.25794631298E+03  0.27264195310E+03  0.84535231941E+02 0.  0.
        254    2    1    2    0    0  0.58537771375E+01 -0.24836708055E+02 -0.27992022204E+03  0.10506343288E+04  0.10123369169E+04 0.  0.
         23    2    4    4    0    0  0.26363413414E+03  0.38083175860E+03  0.27581561340E+02  0.47300696942E+03  0.91864386714E+02 0.  0.
         23    2    4    4    0    0 -0.25778035701E+03 -0.40566846666E+03 -0.30750178338E+03  0.57762735934E+03  0.89879931991E+02 0.  0.
          2    1    3    3  502    0  0.23608168683E+02  0.35223721541E+02 -0.21718911150E+03  0.22128977912E+03  0.00000000000E+00 0. -1.
         -1    1    3    3    0  502 -0.29461945820E+02 -0.10387013486E+02 -0.40757201473E+02  0.51352173981E+02  0.00000000000E+00 0.  1.
         11    1    5    5    0    0  0.23073567100E+03  0.36215219713E+03  0.44214128537E+02  0.43168049866E+03  0.00000000000E+00 0. -1.
        -11    1    5    5    0    0  0.32898463143E+02  0.18679561470E+02 -0.16632567197E+02  0.41326470759E+02  0.00000000000E+00 0.  1.
          1    1    6    6  503    0 -0.21522761484E+03 -0.36994866600E+03 -0.24178805284E+03  0.49157543079E+03  0.00000000000E+00 0. -1.
         -1    1    6    6    0  503 -0.42552742169E+02 -0.35719800663E+02 -0.65713730535E+02  0.86051928545E+02  0.00000000000E+00 0.  1.
<mgrwt>
<rscale>  0 0.12090326E+04</rscale>
<asrwt>0</asrwt>
<pdfrwt beam="1">  1        2 0.14316483E+00 0.12090326E+04</pdfrwt>
<pdfrwt beam="2">  1       -1 0.60416136E-01 0.12090326E+04</pdfrwt>
<totfact> 0.87429562E+01</totfact>
</mgrwt>
</event>
<event>
12    6  0.1627636E-007  0.1493236E+04  0.7818608E-02  0.8888963E-01
          2   -1    0    0  501    0  0.00000000000E+00  0.00000000000E+00  0.78385196465E+03  0.78385196465E+03  0.00000000000E+00 0. -1.
         -1   -1    0    0    0  501 -0.00000000000E+00 -0.00000000000E+00 -0.71115263390E+03  0.71115263390E+03  0.00000000000E+00 0.  1.
         24    2    1    2    0    0 -0.44512037244E+03 -0.15784541181E+03  0.97420093091E+01  0.47914544061E+03  0.80237936911E+02 0.  0.
        254    2    1    2    0    0  0.44512037244E+03  0.15784541181E+03  0.62957321440E+02  0.10158591579E+04  0.89719500916E+03 0.  0.
         23    2    4    4    0    0 -0.97865570316E+02 -0.74891030779E+02 -0.28548088083E+03  0.32393670482E+03  0.90825762134E+02 0.  0.
         23    2    4    4    0    0  0.54298594275E+03  0.23273644259E+03  0.34843820227E+03  0.69192245312E+03  0.91364733822E+02 0.  0.
          4    1    3    3  502    0 -0.20531192845E+02  0.71617118828E+01  0.92236599285E+01  0.23619820050E+02  0.00000000000E+00 0. -1.
         -3    1    3    3    0  502 -0.42458917959E+03 -0.16500712370E+03  0.51834938065E+00  0.45552562056E+03  0.00000000000E+00 0.  1.
         11    1    5    5    0    0 -0.48952190777E+02  0.85815119307E+01 -0.14567580629E+03  0.15392010872E+03  0.00000000000E+00 0. -1.
        -11    1    5    5    0    0 -0.48913379539E+02 -0.83472542709E+02 -0.13980507454E+03  0.17001659610E+03  0.00000000000E+00 0.  1.
          3    1    6    6  503    0  0.15488596871E+03  0.10937175969E+03  0.12896336663E+03  0.22931069546E+03  0.00000000000E+00 0. -1.
         -3    1    6    6    0  503  0.38809997405E+03  0.12336468291E+03  0.21947483564E+03  0.46261175766E+03  0.00000000000E+00 0.  1.
<mgrwt>
<rscale>  0 0.14932359E+04</rscale>
<asrwt>0</asrwt>
<pdfrwt beam="1">  1        2 0.12059261E+00 0.14932359E+04</pdfrwt>
<pdfrwt beam="2">  1       -1 0.10940810E+00 0.14932359E+04</pdfrwt>
<totfact> 0.30205627E+01</totfact>
</mgrwt>
</event>
<event>
12    6  0.1627636E-007  0.1327552E+04  0.7818608E-02  0.9007997E-01
         -1   -1    0    0    0  501 -0.00000000000E+00  0.00000000000E+00  0.27526271314E+03  0.27526271314E+03  0.00000000000E+00 0.  1.
          2   -1    0    0  501    0  0.00000000000E+00 -0.00000000000E+00 -0.16006469726E+04  0.16006469726E+04  0.00000000000E+00 0. -1.
         24    2    1    2    0    0  0.31621463960E+03 -0.17240340899E+03 -0.48595456919E+03  0.61019045204E+03  0.80410886742E+02 0.  0.
        254    2    1    2    0    0 -0.31621463960E+03  0.17240340899E+03 -0.83942969030E+03  0.12657192337E+04  0.87617825808E+03 0.  0.
         23    2    4    4    0    0 -0.38428348200E+03 -0.83696787392E+02 -0.89328369111E+03  0.98017765554E+03  0.90075173399E+02 0.  0.
         23    2    4    4    0    0  0.68068842395E+02  0.25610019638E+03  0.53854000809E+02  0.28554157819E+03  0.91722742974E+02 0.  0.
          4    1    3    3  502    0  0.27059640273E+03 -0.11838829928E+03 -0.35909510262E+03  0.46495967062E+03  0.00000000000E+00 0. -1.
         -3    1    3    3    0  502  0.45618236879E+02 -0.54015109707E+02 -0.12685946658E+03  0.14523078142E+03  0.00000000000E+00 0.  1.
         11    1    5    5    0    0 -0.33832748753E+03 -0.10142097841E+03 -0.75937682490E+03  0.83749917365E+03  0.00000000000E+00 0. -1.
        -11    1    5    5    0    0 -0.45955994468E+02  0.17724191017E+02 -0.13390686621E+03  0.14267848188E+03  0.00000000000E+00 0.  1.
          1    1    6    6  503    0  0.83863666275E+02  0.24835042058E+03  0.55268729872E+02  0.26789116899E+03  0.00000000000E+00 0. -1.
         -1    1    6    6    0  503 -0.15794823880E+02  0.77497758037E+01 -0.14147290630E+01  0.17650409195E+02  0.00000000000E+00 0.  1.
<mgrwt>
<rscale>  0 0.13275518E+04</rscale>
<asrwt>0</asrwt>
<pdfrwt beam="1">  1        2 0.24625338E+00 0.13275518E+04</pdfrwt>
<pdfrwt beam="2">  1       -1 0.42348110E-01 0.13275518E+04</pdfrwt>
<totfact> 0.68090278E+01</totfact>
</mgrwt>
</event>
<event>
12    6  0.1627636E-007  0.1577837E+04  0.7818608E-02  0.8834281E-01
          2   -1    0    0  501    0  0.00000000000E+00  0.00000000000E+00  0.18427635005E+04  0.18427635005E+04  0.00000000000E+00 0. -1.
         -1   -1    0    0    0  501 -0.00000000000E+00 -0.00000000000E+00 -0.33774939250E+03  0.33774939250E+03  0.00000000000E+00 0.  1.
         24    2    1    2    0    0 -0.15605827427E+03  0.23188461507E+03  0.10166582261E+04  0.10573367491E+04  0.79008814367E+02 0.  0.
        254    2    1    2    0    0  0.15605827427E+03 -0.23188461507E+03  0.48835588193E+03  0.11231761439E+04  0.97206405297E+03 0.  0.
         23    2    4    4    0    0  0.41488714127E+03 -0.46078876821E+03  0.43246864819E+03  0.76152008060E+03  0.91793641290E+02 0.  0.
         23    2    4    4    0    0 -0.25882886701E+03  0.22890415314E+03  0.55887233736E+02  0.36165606328E+03  0.91006766169E+02 0.  0.
          4    1    3    3  502    0 -0.56536836127E+02  0.15157686629E+03  0.60643724479E+03  0.62764487738E+03  0.00000000000E+00 0. -1.
         -1    1    3    3    0  502 -0.99521438139E+02  0.80307748774E+02  0.41022098128E+03  0.42969187174E+03  0.00000000000E+00 0.  1.
         11    1    5    5    0    0  0.11194855919E+03 -0.68816654065E+02  0.89694262297E+02  0.15910145339E+03  0.00000000000E+00 0. -1.
        -11    1    5    5    0    0  0.30293858208E+03 -0.39197211414E+03  0.34277438589E+03  0.60241862721E+03  0.00000000000E+00 0.  1.
          2    1    6    6  503    0 -0.49187058214E+02  0.64350445370E+02  0.49791115301E+02  0.95076293986E+02  0.00000000000E+00 0. -1.
         -2    1    6    6    0  503 -0.20964180879E+03  0.16455370777E+03  0.60961184353E+01  0.26657976929E+03  0.00000000000E+00 0.  1.
<mgrwt>
<rscale>  0 0.15778368E+04</rscale>
<asrwt>0</asrwt>
<pdfrwt beam="1">  1        2 0.28350207E+00 0.15778368E+04</pdfrwt>
<pdfrwt beam="2">  1       -1 0.51961446E-01 0.15778368E+04</pdfrwt>
<totfact> 0.33334603E+01</totfact>
</mgrwt>
</event>
<event>
12    6  0.1627636E-007  0.2508942E+04  0.7818608E-02  0.8399807E-01
          2   -1    0    0  501    0  0.00000000000E+00  0.00000000000E+00  0.26941531749E+04  0.26941531749E+04  0.00000000000E+00 0. -1.
         -1   -1    0    0    0  501 -0.00000000000E+00 -0.00000000000E+00 -0.58411560919E+03  0.58411560919E+03  0.00000000000E+00 0.  1.
         24    2    1    2    0    0 -0.28316994716E+02  0.44474380363E+03 -0.38527381586E+03  0.59418210402E+03  0.77572910817E+02 0.  0.
        254    2    1    2    0    0  0.28316994716E+02 -0.44474380363E+03  0.24953113816E+04  0.26840866801E+04  0.88269106267E+03 0.  0.
         23    2    4    4    0    0 -0.25297057732E+03 -0.26104268883E+03  0.35116071606E+03  0.51183339082E+03  0.80759971971E+02 0.  0.
         23    2    4    4    0    0  0.28128757204E+03 -0.18370111480E+03  0.21441506656E+04  0.21722532893E+04  0.91833972548E+02 0.  0.
          2    1    3    3  502    0  0.56849687237E+01  0.10457640649E+02  0.10367867685E+01  0.11948056082E+02  0.00000000000E+00 0. -1.
         -1    1    3    3    0  502 -0.34001963440E+02  0.43428616298E+03 -0.38631060263E+03  0.58223404794E+03  0.00000000000E+00 0.  1.
         11    1    5    5    0    0 -0.25342514159E+03 -0.26331440601E+03  0.33582508525E+03  0.49632375189E+03  0.00000000000E+00 0.  1.
        -11    1    5    5    0    0  0.45456426450E+00  0.22717171813E+01  0.15335630807E+02  0.15509638934E+02  0.00000000000E+00 0. -1.
          3    1    6    6  503    0  0.35270985558E+02 -0.19050912813E+02  0.11876160699E+03  0.12534472065E+03  0.00000000000E+00 0. -1.
         -3    1    6    6    0  503  0.24601658648E+03 -0.16465020199E+03  0.20253890586E+04  0.20469085686E+04  0.00000000000E+00 0.  1.
<mgrwt>
<rscale>  0 0.25089415E+04</rscale>
<asrwt>0</asrwt>
<pdfrwt beam="1">  1        2 0.41448510E+00 0.25089415E+04</pdfrwt>
<pdfrwt beam="2">  1       -1 0.89863941E-01 0.25089415E+04</pdfrwt>
<totfact> 0.32879536E+00</totfact>
</mgrwt>
</event>
<event>
12    6  0.1627636E-007  0.1513630E+04  0.7818608E-02  0.8875439E-01
          2   -1    0    0  501    0  0.00000000000E+00  0.00000000000E+00  0.78766955852E+03  0.78766955852E+03  0.00000000000E+00 0. -1.
         -1   -1    0    0    0  501 -0.00000000000E+00 -0.00000000000E+00 -0.72716941771E+03  0.72716941771E+03  0.00000000000E+00 0.  1.
         24    2    1    2    0    0  0.17300239658E+03 -0.80070995636E+02 -0.42737006686E+03  0.47490957087E+03  0.80948952377E+02 0.  0.
        254    2    1    2    0    0 -0.17300239658E+03  0.80070995636E+02  0.48787020767E+03  0.10399294054E+04  0.89838445838E+03 0.  0.
         23    2    4    4    0    0  0.22400015944E+02 -0.67212479713E+02  0.69692463689E+03  0.70600265544E+03  0.87843735334E+02 0.  0.
         23    2    4    4    0    0 -0.19540241252E+03  0.14728347535E+03 -0.20905442923E+03  0.33392674992E+03  0.89043781394E+02 0.  0.
          2    1    3    3  502    0  0.88884242053E+02 -0.40205338855E+02 -0.12516019893E+03  0.15868822626E+03  0.00000000000E+00 0. -1.
         -1    1    3    3    0  502  0.84118154524E+02 -0.39865656781E+02 -0.30220986793E+03  0.31622134461E+03  0.00000000000E+00 0.  1.
         11    1    5    5    0    0  0.59540340358E+01  0.23213973615E+01  0.41872322092E+03  0.41877198467E+03  0.00000000000E+00 0.  1.
        -11    1    5    5    0    0  0.16445981909E+02 -0.69533877074E+02  0.27820141598E+03  0.28723067077E+03  0.00000000000E+00 0. -1.
          4    1    6    6  503    0 -0.99170481833E+02  0.11457727766E+03 -0.85685627415E+02  0.17408263489E+03  0.00000000000E+00 0.  1.
         -4    1    6    6    0  503 -0.96231930688E+02  0.32706197685E+02 -0.12336880181E+03  0.15984411504E+03  0.00000000000E+00 0. -1.
<mgrwt>
<rscale>  0 0.15136304E+04</rscale>
<asrwt>0</asrwt>
<pdfrwt beam="1">  1        2 0.12117993E+00 0.15136304E+04</pdfrwt>
<pdfrwt beam="2">  1       -1 0.11187222E+00 0.15136304E+04</pdfrwt>
<totfact> 0.28422727E+01</totfact>
</mgrwt>
</event>
<event>
12    6  0.1627636E-007  0.1917307E+04  0.7818608E-02  0.8646289E-01
         -1   -1    0    0    0  501 -0.00000000000E+00  0.00000000000E+00  0.11017765081E+04  0.11017765081E+04  0.00000000000E+00 0.  1.
          2   -1    0    0  501    0  0.00000000000E+00 -0.00000000000E+00 -0.83412282334E+03  0.83412282334E+03  0.00000000000E+00 0. -1.
         24    2    1    2    0    0  0.42755478337E+03  0.20448296005E+03 -0.48724022557E+03  0.68620197723E+03  0.94094327212E+02 0.  0.
        254    2    1    2    0    0 -0.42755478337E+03 -0.20448296005E+03  0.75489391031E+03  0.12496973542E+04  0.87593509320E+03 0.  0.
         23    2    4    4    0    0 -0.38505838992E+03 -0.72355450727E+02  0.92703360532E+03  0.10104058339E+04  0.89573260149E+02 0.  0.
         23    2    4    4    0    0 -0.42496393454E+02 -0.13212750933E+03 -0.17213969501E+03  0.23929152026E+03  0.91458924633E+02 0.  0.
          4    1    3    3  502    0  0.32732373998E+03  0.19180749134E+03 -0.35313984888E+03  0.51830367292E+03  0.00000000000E+00 0. -1.
         -3    1    3    3    0  502  0.10023104339E+03  0.12675468715E+02 -0.13410037668E+03  0.16789830432E+03  0.00000000000E+00 0.  1.
         11    1    5    5    0    0 -0.34684982851E+02 -0.32122591794E+02  0.14537170750E+03  0.15286543847E+03  0.00000000000E+00 0.  1.
        -11    1    5    5    0    0 -0.35037340707E+03 -0.40232858933E+02  0.78166189782E+03  0.85754039545E+03  0.00000000000E+00 0. -1.
          1    1    6    6  503    0 -0.24418748621E+00 -0.12237363142E+03 -0.13486239361E+03  0.18210774421E+03  0.00000000000E+00 0. -1.
         -1    1    6    6    0  503 -0.42252205968E+02 -0.97538779093E+01 -0.37277301405E+02  0.57183776051E+02  0.00000000000E+00 0.  1.
<mgrwt>
<rscale>  0 0.19173074E+04</rscale>
<asrwt>0</asrwt>
<pdfrwt beam="1">  1        2 0.12832659E+00 0.19173074E+04</pdfrwt>
<pdfrwt beam="2">  1       -1 0.16950408E+00 0.19173074E+04</pdfrwt>
<totfact> 0.86249453E+00</totfact>
</mgrwt>
</event>
<event>
12    6  0.1627636E-007  0.1221459E+04  0.7818608E-02  0.9094279E-01
         -1   -1    0    0    0  501 -0.00000000000E+00  0.00000000000E+00  0.56352939590E+03  0.56352939590E+03  0.00000000000E+00 0.  1.
          2   -1    0    0  501    0  0.00000000000E+00 -0.00000000000E+00 -0.66188253070E+03  0.66188253070E+03  0.00000000000E+00 0. -1.
         24    2    1    2    0    0  0.20467104775E+03  0.18848802895E+03 -0.12632964909E+03  0.31626873064E+03  0.81539897558E+02 0.  0.
        254    2    1    2    0    0 -0.20467104775E+03 -0.18848802895E+03  0.27976514295E+02  0.90914319596E+03  0.86506687057E+03 0.  0.
         23    2    4    4    0    0 -0.49984641695E+03 -0.16002432377E+03  0.18241861953E+03  0.56339918183E+03  0.93208693802E+02 0.  0.
         23    2    4    4    0    0  0.29517536919E+03 -0.28463705183E+02 -0.15444210524E+03  0.34574401413E+03  0.88022033306E+02 0.  0.
          2    1    3    3  502    0  0.18844914183E+03  0.19022533976E+03 -0.10108549848E+03  0.28621152484E+03  0.00000000000E+00 0. -1.
         -1    1    3    3    0  502  0.16221905922E+02 -0.17373108136E+01 -0.25244150612E+02  0.30057205804E+02  0.00000000000E+00 0.  1.
         11    1    5    5    0    0 -0.43649215251E+03 -0.10888637466E+03  0.13750018144E+03  0.47041252289E+03  0.00000000000E+00 0. -1.
        -11    1    5    5    0    0 -0.63354264437E+02 -0.51137949105E+02  0.44918438089E+02  0.92986658943E+02  0.00000000000E+00 0.  1.
          2    1    6    6  503    0  0.16309809930E+03 -0.34637914150E+02 -0.41428217178E+02  0.17180533249E+03  0.00000000000E+00 0. -1.
         -2    1    6    6    0  503  0.13207726989E+03  0.61742089669E+01 -0.11301388806E+03  0.17393868164E+03  0.00000000000E+00 0.  1.
<mgrwt>
<rscale>  0 0.12214586E+04</rscale>
<asrwt>0</asrwt>
<pdfrwt beam="1">  1        2 0.10182808E+00 0.12214586E+04</pdfrwt>
<pdfrwt beam="2">  1       -1 0.86696830E-01 0.12214586E+04</pdfrwt>
<totfact> 0.64932705E+01</totfact>
</mgrwt>
</event>
<event>
12    6  0.1627636E-007  0.2498127E+04  0.7818608E-02  0.8403653E-01
          2   -1    0    0  501    0  0.00000000000E+00  0.00000000000E+00  0.29278880736E+04  0.29278880736E+04  0.00000000000E+00 0. -1.
         -1   -1    0    0    0  501 -0.00000000000E+00 -0.00000000000E+00 -0.53286187889E+03  0.53286187889E+03  0.00000000000E+00 0.  1.
         24    2    1    2    0    0 -0.93642654094E+03  0.51253187378E+03  0.12527211758E+04  0.16481430266E+04  0.86495684040E+02 0.  0.
        254    2    1    2    0    0  0.93642654094E+03 -0.51253187378E+03  0.11423050189E+04  0.18126069259E+04  0.91711478212E+03 0.  0.
         23    2    4    4    0    0  0.88326024677E+03 -0.81035161854E+01  0.78642604733E+03  0.11861983708E+04  0.91576833485E+02 0.  0.
         23    2    4    4    0    0  0.53166294170E+02 -0.50442835759E+03  0.35587897154E+03  0.62640855515E+03  0.91995721644E+02 0.  0.
          4    1    3    3  502    0 -0.68105179301E+03  0.41541834752E+03  0.92649765351E+03  0.12226208939E+04  0.00000000000E+00 0. -1.
         -3    1    3    3    0  502 -0.25537474793E+03  0.97113526254E+02  0.32622352233E+03  0.42552213266E+03  0.00000000000E+00 0.  1.
         11    1    5    5    0    0  0.70581856541E+02  0.23608496299E+02  0.57475683912E+02  0.94035173267E+02  0.00000000000E+00 0. -1.
        -11    1    5    5    0    0  0.81267839023E+03 -0.31712012484E+02  0.72895036342E+03  0.10921631975E+04  0.00000000000E+00 0.  1.
          2    1    6    6  503    0  0.29834737957E+02 -0.37994322726E+02  0.28734894107E+02  0.56208311554E+02  0.00000000000E+00 0. -1.
         -2    1    6    6    0  503  0.23331556213E+02 -0.46643403487E+03  0.32714407744E+03  0.57020024360E+03  0.00000000000E+00 0.  1.
<mgrwt>
<rscale>  0 0.24981273E+04</rscale>
<asrwt>0</asrwt>
<pdfrwt beam="1">  1        2 0.45044431E+00 0.24981273E+04</pdfrwt>
<pdfrwt beam="2">  1       -1 0.81978752E-01 0.24981273E+04</pdfrwt>
<totfact> 0.29001239E+00</totfact>
</mgrwt>
</event>
<event>
12    6  0.1627636E-007  0.1709634E+04  0.7818608E-02  0.8755889E-01
          2   -1    0    0  501    0  0.00000000000E+00  0.00000000000E+00  0.13136314298E+04  0.13136314298E+04  0.00000000000E+00 0. -1.
         -1   -1    0    0    0  501 -0.00000000000E+00 -0.00000000000E+00 -0.55625355132E+03  0.55625355132E+03  0.00000000000E+00 0.  1.
         24    2    1    2    0    0 -0.10050378026E+03  0.44022383442E+02 -0.38788057278E+03  0.41088770756E+03  0.79614002480E+02 0.  0.
        254    2    1    2    0    0  0.10050378026E+03 -0.44022383442E+02  0.11452584513E+04  0.14589972736E+04  0.89722747616E+03 0.  0.
         23    2    4    4    0    0  0.38388589085E+03 -0.20379542110E+03  0.26971886278E+03  0.51955508083E+03  0.91039915570E+02 0.  0.
         23    2    4    4    0    0 -0.28338211059E+03  0.15977303766E+03  0.87553958850E+03  0.93944219274E+03  0.10074332882E+03 0.  0.
          2    1    3    3  502    0 -0.55592352864E+01  0.14684187893E+02 -0.68829925152E+01  0.17143688547E+02  0.00000000000E+00 0. -1.
         -1    1    3    3    0  502 -0.94944544972E+02  0.29338195549E+02 -0.38099758027E+03  0.39374401901E+03  0.00000000000E+00 0.  1.
         11    1    5    5    0    0  0.36571252045E+03 -0.16710185209E+03  0.25457985723E+03  0.47589870802E+03  0.00000000000E+00 0.  1.
        -11    1    5    5    0    0  0.18173370399E+02 -0.36693569009E+02  0.15139005544E+02  0.43656372813E+02  0.00000000000E+00 0. -1.
          1    1    6    6  503    0 -0.58016856283E+01 -0.12529212735E+02  0.38616098749E+02  0.41010289081E+02  0.00000000000E+00 0. -1.
         -1    1    6    6    0  503 -0.27758042496E+03  0.17230225039E+03  0.83692348975E+03  0.89843190366E+03  0.00000000000E+00 0.  1.
<mgrwt>
<rscale>  0 0.17096341E+04</rscale>
<asrwt>0</asrwt>
<pdfrwt beam="1">  1        2 0.20209714E+00 0.17096341E+04</pdfrwt>
<pdfrwt beam="2">  1       -1 0.85577470E-01 0.17096341E+04</pdfrwt>
<totfact> 0.23736724E+01</totfact>
</mgrwt>
</event>
<event>
12    6  0.1627636E-007  0.1345579E+04  0.7818608E-02  0.8994181E-01
          2   -1    0    0  501    0  0.00000000000E+00  0.00000000000E+00  0.11532889911E+04  0.11532889911E+04  0.00000000000E+00 0. -1.
         -1   -1    0    0    0  501 -0.00000000000E+00 -0.00000000000E+00 -0.39248252214E+03  0.39248252214E+03  0.00000000000E+00 0.  1.
         24    2    1    2    0    0 -0.31368805623E+03 -0.33186655025E+02  0.99922959523E+00  0.32529543918E+03  0.79464291334E+02 0.  0.
        254    2    1    2    0    0  0.31368805623E+03  0.33186655025E+02  0.75980723940E+03  0.12204760741E+04  0.90152828891E+03 0.  0.
         23    2    4    4    0    0  0.56901453890E+03 -0.16370755442E+03  0.60465987866E+03  0.85120182695E+03  0.91396238863E+02 0.  0.
         23    2    4    4    0    0 -0.25532648268E+03  0.19689420945E+03  0.15514736074E+03  0.36927424715E+03  0.91289778143E+02 0.  0.
          4    1    3    3  502    0 -0.10512103318E+03 -0.12438711797E+02  0.37979741202E+02  0.11246161083E+03  0.00000000000E+00 0. -1.
         -3    1    3    3    0  502 -0.20856702304E+03 -0.20747943228E+02 -0.36980511607E+02  0.21283382835E+03  0.00000000000E+00 0.  1.
         11    1    5    5    0    0  0.17468057966E+03 -0.67881535635E+02  0.13775622544E+03  0.23258973631E+03  0.00000000000E+00 0. -1.
        -11    1    5    5    0    0  0.39433395925E+03 -0.95826018788E+02  0.46690365322E+03  0.61861209064E+03  0.00000000000E+00 0.  1.
          3    1    6    6  503    0  0.27539966787E-01  0.28920185982E+02  0.19482697684E+02  0.34870523724E+02  0.00000000000E+00 0. -1.
         -3    1    6    6    0  503 -0.25535402264E+03  0.16797402346E+03  0.13566466305E+03  0.33440372342E+03  0.00000000000E+00 0.  1.
<mgrwt>
<rscale>  0 0.13455791E+04</rscale>
<asrwt>0</asrwt>
<pdfrwt beam="1">  1        2 0.17742907E+00 0.13455791E+04</pdfrwt>
<pdfrwt beam="2">  1       -1 0.60381927E-01 0.13455791E+04</pdfrwt>
<totfact> 0.62624248E+01</totfact>
</mgrwt>
</event>
<event>
12    6  0.1627636E-007  0.1235227E+04  0.7818608E-02  0.9082569E-01
          2   -1    0    0  501    0  0.00000000000E+00  0.00000000000E+00  0.68457942315E+03  0.68457942315E+03  0.00000000000E+00 0. -1.
         -1   -1    0    0    0  501 -0.00000000000E+00 -0.00000000000E+00 -0.55719827154E+03  0.55719827154E+03  0.00000000000E+00 0.  1.
         24    2    1    2    0    0 -0.14218443727E+03 -0.13310877001E+03 -0.17527527617E+03  0.27225017189E+03  0.73921409597E+02 0.  0.
        254    2    1    2    0    0  0.14218443727E+03  0.13310877001E+03  0.30265642778E+03  0.96952752281E+03  0.90024904629E+03 0.  0.
         23    2    4    4    0    0 -0.34939350445E+03 -0.60266026138E+02  0.28586798305E+02  0.36718040427E+03  0.91084737401E+02 0.  0.
         23    2    4    4    0    0  0.49157794172E+03  0.19337479615E+03  0.27406962948E+03  0.60234711854E+03  0.93087081993E+02 0.  0.
          2    1    3    3  502    0 -0.98608107480E+01 -0.31619740448E+02 -0.63117578726E+02  0.71280237927E+02  0.00000000000E+00 0. -1.
         -1    1    3    3    0  502 -0.13232362652E+03 -0.10148902957E+03 -0.11215769745E+03  0.20096993396E+03  0.00000000000E+00 0.  1.
         11    1    5    5    0    0 -0.20730154875E+03 -0.80064256392E+02  0.92447585908E+01  0.22241781140E+03  0.00000000000E+00 0.  1.
        -11    1    5    5    0    0 -0.14209195570E+03  0.19798230254E+02  0.19342039714E+02  0.14476259288E+03  0.00000000000E+00 0. -1.
          3    1    6    6  503    0  0.25538360221E+03  0.51363802144E+02  0.12332668831E+03  0.28821605871E+03  0.00000000000E+00 0. -1.
         -3    1    6    6    0  503  0.23619433951E+03  0.14201099401E+03  0.15074294117E+03  0.31413105983E+03  0.00000000000E+00 0.  1.
<mgrwt>
<rscale>  0 0.12352271E+04</rscale>
<asrwt>0</asrwt>
<pdfrwt beam="1">  1        2 0.10531991E+00 0.12352271E+04</pdfrwt>
<pdfrwt beam="2">  1       -1 0.85722811E-01 0.12352271E+04</pdfrwt>
<totfact> 0.63733500E+01</totfact>
</mgrwt>
</event>
<event>
12    6  0.1627636E-007  0.1825074E+04  0.7818608E-02  0.8693078E-01
          2   -1    0    0  501    0  0.00000000000E+00  0.00000000000E+00  0.11333938326E+04  0.11333938326E+04  0.00000000000E+00 0. -1.
         -1   -1    0    0    0  501 -0.00000000000E+00 -0.00000000000E+00 -0.73471681383E+03  0.73471681383E+03  0.00000000000E+00 0.  1.
         24    2    1    2    0    0  0.66556461054E+01 -0.30320937175E+03 -0.47958321507E+03  0.57301281121E+03  0.79770927631E+02 0.  0.
        254    2    1    2    0    0 -0.66556461054E+01  0.30320937175E+03  0.87826023383E+03  0.12950978352E+04  0.90219573471E+03 0.  0.
         23    2    4    4    0    0  0.33437466817E+03 -0.53444982303E+02  0.93112505849E+02  0.36329746152E+03  0.93017858230E+02 0.  0.
         23    2    4    4    0    0 -0.34103031428E+03  0.35665435405E+03  0.78514772798E+03  0.93180037371E+03  0.91054808555E+02 0.  0.
          2    1    3    3  502    0  0.33532561855E+02 -0.60117502976E+02 -0.97289057689E+02  0.11917930867E+03  0.00000000000E+00 0. -1.
         -1    1    3    3    0  502 -0.26876915750E+02 -0.24309186877E+03 -0.38229415738E+03  0.45383350254E+03  0.00000000000E+00 0.  1.
         11    1    5    5    0    0  0.24162610560E+03 -0.41422549162E+01  0.91031824511E+02  0.25823850654E+03  0.00000000000E+00 0. -1.
        -11    1    5    5    0    0  0.92748562569E+02 -0.49302727387E+02  0.20806813387E+01  0.10505895498E+03  0.00000000000E+00 0.  1.
          4    1    6    6  503    0 -0.33427452677E+03  0.35308335722E+03  0.78587439890E+03  0.92412438948E+03  0.00000000000E+00 0. -1.
         -4    1    6    6    0  503 -0.67557875102E+01  0.35709968308E+01 -0.72667091069E+00  0.76759842275E+01  0.00000000000E+00 0.  1.
<mgrwt>
<rscale>  0 0.18250737E+04</rscale>
<asrwt>0</asrwt>
<pdfrwt beam="1">  1        2 0.17436828E+00 0.18250737E+04</pdfrwt>
<pdfrwt beam="2">  1       -1 0.11303336E+00 0.18250737E+04</pdfrwt>
<totfact> 0.15975385E+01</totfact>
</mgrwt>
</event>
<event>
12    6  0.1627636E-007  0.1708143E+04  0.7818608E-02  0.8756734E-01
          2   -1    0    0  501    0  0.00000000000E+00  0.00000000000E+00  0.25263102116E+04  0.25263102116E+04  0.00000000000E+00 0. -1.
         -1   -1    0    0    0  501 -0.00000000000E+00 -0.00000000000E+00 -0.28873653818E+03  0.28873653818E+03  0.00000000000E+00 0.  1.
         24    2    1    2    0    0  0.21080499085E+03  0.23820624334E+03  0.16715236734E+04  0.17034267658E+04  0.80563001892E+02 0.  0.
        254    2    1    2    0    0 -0.21080499085E+03 -0.23820624334E+03  0.56605000000E+03  0.11116199839E+04  0.90227791042E+03 0.  0.
         23    2    4    4    0    0  0.11548012495E+03  0.28714751218E+03  0.12144960291E+03  0.34444631886E+03  0.90021705817E+02 0.  0.
         23    2    4    4    0    0 -0.32628511579E+03 -0.52535375553E+03  0.44460039708E+03  0.76717366507E+03  0.91800730132E+02 0.  0.
          2    1    3    3  502    0  0.21562152146E+03  0.23849998322E+03  0.16612333148E+04  0.16920611717E+04  0.00000000000E+00 0. -1.
         -1    1    3    3    0  502 -0.48165306103E+01 -0.29373987566E+00  0.10290358610E+02  0.11365594157E+02  0.00000000000E+00 0.  1.
         11    1    5    5    0    0  0.70760058618E+02  0.25973353122E+03  0.93252162277E+02  0.28489376776E+03  0.00000000000E+00 0.  1.
        -11    1    5    5    0    0  0.44720066329E+02  0.27413980960E+02  0.28197440636E+02  0.59552551104E+02  0.00000000000E+00 0. -1.
          3    1    6    6  503    0 -0.23881151371E+02 -0.60786448704E+02  0.18119772478E+02  0.67776307745E+02  0.00000000000E+00 0. -1.
         -3    1    6    6    0  503 -0.30240396442E+03 -0.46456730682E+03  0.42648062461E+03  0.69939735732E+03  0.00000000000E+00 0.  1.
<mgrwt>
<rscale>  0 0.17081429E+04</rscale>
<asrwt>0</asrwt>
<pdfrwt beam="1">  1        2 0.38866310E+00 0.17081429E+04</pdfrwt>
<pdfrwt beam="2">  1       -1 0.44421008E-01 0.17081429E+04</pdfrwt>
<totfact> 0.18290013E+01</totfact>
</mgrwt>
</event>
<event>
12    6  0.1627636E-007  0.4985451E+04  0.7818608E-02  0.7830755E-01
         -3   -1    0    0    0  501 -0.00000000000E+00  0.00000000000E+00  0.17673696804E+04  0.17673696804E+04  0.00000000000E+00 0.  1.
          2   -1    0    0  501    0  0.00000000000E+00 -0.00000000000E+00 -0.35157791735E+04  0.35157791735E+04  0.00000000000E+00 0. -1.
         24    2    1    2    0    0 -0.86477561296E+03 -0.21016224744E+04  0.65606880729E+01  0.22739141218E+04  0.77385430672E+02 0.  0.
        254    2    1    2    0    0  0.86477561296E+03  0.21016224744E+04 -0.17549701812E+04  0.30092347322E+04  0.90051066112E+03 0.  0.
         23    2    4    4    0    0  0.24999472589E+03  0.14959970590E+04 -0.14170375696E+04  0.20777515626E+04  0.92474422155E+02 0.  0.
         23    2    4    4    0    0  0.61478088708E+03  0.60562541540E+03 -0.33793261161E+03  0.93148316957E+03  0.93406436213E+02 0.  0.
          2    1    3    3  502    0 -0.22696322945E+03 -0.46975245066E+03 -0.79208975597E+01  0.52176854356E+03  0.00000000000E+00 0. -1.
         -1    1    3    3    0  502 -0.63781238351E+03 -0.16318700237E+04  0.14481585633E+02  0.17521455782E+04  0.00000000000E+00 0.  1.
         11    1    5    5    0    0  0.15008593483E+03  0.67635438393E+03 -0.60827630207E+03  0.92194419579E+03  0.00000000000E+00 0.  1.
        -11    1    5    5    0    0  0.99908791051E+02  0.81964267506E+03 -0.80876126755E+03  0.11558073668E+04  0.00000000000E+00 0. -1.
          2    1    6    6  503    0  0.86169632744E+02  0.63835116079E+02 -0.72067259882E+02  0.12920455719E+03  0.00000000000E+00 0. -1.
         -2    1    6    6    0  503  0.52861125433E+03  0.54179029932E+03 -0.26586535172E+03  0.80227861238E+03  0.00000000000E+00 0.  1.
<mgrwt>
<rscale>  0 0.49854514E+04</rscale>
<asrwt>0</asrwt>
<pdfrwt beam="1">  1        2 0.54088910E+00 0.49854514E+04</pdfrwt>
<pdfrwt beam="2">  1       -3 0.27190303E+00 0.49854514E+04</pdfrwt>
<totfact> 0.19932424E-02</totfact>
</mgrwt>
</event>
<event>
12    6  0.1627636E-007  0.1255224E+04  0.7818608E-02  0.9065846E-01
          2   -1    0    0  501    0  0.00000000000E+00  0.00000000000E+00  0.11078991521E+04  0.11078991521E+04  0.00000000000E+00 0. -1.
         -1   -1    0    0    0  501 -0.00000000000E+00 -0.00000000000E+00 -0.35553505788E+03  0.35553505788E+03  0.00000000000E+00 0.  1.
         24    2    1    2    0    0  0.61050008673E+02  0.21242519371E+03  0.39049332119E+03  0.45794974671E+03  0.91549823234E+02 0.  0.
        254    2    1    2    0    0 -0.61050008673E+02 -0.21242519371E+03  0.36187077307E+03  0.10054844633E+04  0.91170005104E+03 0.  0.
         23    2    4    4    0    0 -0.17336747621E+03 -0.42284721579E+03 -0.10106267065E+03  0.47711606304E+03  0.92574426812E+02 0.  0.
         23    2    4    4    0    0  0.11231746754E+03  0.21042202208E+03  0.46293344372E+03  0.52836840027E+03  0.89292509196E+02 0.  0.
          4    1    3    3  502    0  0.40771316754E+02  0.20764954534E+03  0.31385969526E+03  0.37853473059E+03  0.00000000000E+00 0. -1.
         -3    1    3    3    0  502  0.20278691920E+02  0.47756483762E+01  0.76633625925E+02  0.79415016123E+02  0.00000000000E+00 0.  1.
         11    1    5    5    0    0 -0.95780368445E+02 -0.11998471847E+03 -0.38402057426E+02  0.15825589929E+03  0.00000000000E+00 0.  1.
        -11    1    5    5    0    0 -0.77587107768E+02 -0.30286249732E+03 -0.62660613225E+02  0.31886016375E+03  0.00000000000E+00 0. -1.
          1    1    6    6  503    0  0.32520432837E+02  0.52520945905E+02  0.21558326845E+03  0.22425916691E+03  0.00000000000E+00 0. -1.
         -1    1    6    6    0  503  0.79797034703E+02  0.15790107618E+03  0.24735017527E+03  0.30410923335E+03  0.00000000000E+00 0.  1.
<mgrwt>
<rscale>  0 0.12552243E+04</rscale>
<asrwt>0</asrwt>
<pdfrwt beam="1">  1        2 0.17044602E+00 0.12552243E+04</pdfrwt>
<pdfrwt beam="2">  1       -1 0.54697702E-01 0.12552243E+04</pdfrwt>
<totfact> 0.81554000E+01</totfact>
</mgrwt>
</event>
<event>
12    6  0.1627636E-007  0.1024815E+04  0.7818608E-02  0.9281739E-01
          2   -1    0    0  501    0  0.00000000000E+00  0.00000000000E+00  0.20812248397E+03  0.20812248397E+03  0.00000000000E+00 0. -1.
         -1   -1    0    0    0  501 -0.00000000000E+00 -0.00000000000E+00 -0.12615716700E+04  0.12615716700E+04  0.00000000000E+00 0.  1.
         24    2    1    2    0    0  0.11106971360E+02  0.42710036026E+02 -0.26459312155E+02  0.93782541126E+02  0.78406363455E+02 0.  0.
        254    2    1    2    0    0 -0.11106971360E+02 -0.42710036026E+02 -0.10269898739E+04  0.13759116129E+04  0.91459119466E+03 0.  0.
         23    2    4    4    0    0 -0.31385119549E+03 -0.20495052335E+03 -0.93078971656E+03  0.10077949942E+04  0.93669440259E+02 0.  0.
         23    2    4    4    0    0  0.30274422413E+03  0.16224048733E+03 -0.96200157348E+02  0.36811661863E+03  0.90990843880E+02 0.  0.
          4    1    3    3  502    0 -0.81801613741E+01  0.58204033659E+02 -0.17283910430E+01  0.58801461800E+02  0.00000000000E+00 0. -1.
         -3    1    3    3    0  502  0.19287132735E+02 -0.15493997632E+02 -0.24730921113E+02  0.34981079326E+02  0.00000000000E+00 0.  1.
         11    1    5    5    0    0 -0.31852389875E+03 -0.19258297284E+03 -0.90970201398E+03  0.98290560572E+03  0.00000000000E+00 0.  1.
        -11    1    5    5    0    0  0.46727032592E+01 -0.12367550509E+02 -0.21087702571E+02  0.24889388523E+02  0.00000000000E+00 0. -1.
          1    1    6    6  503    0  0.11436419209E+03  0.11123664130E+03 -0.54121973466E+02  0.16846942397E+03  0.00000000000E+00 0. -1.
         -1    1    6    6    0  503  0.18838003204E+03  0.51003846030E+02 -0.42078183882E+02  0.19964719467E+03  0.00000000000E+00 0.  1.
<mgrwt>
<rscale>  0 0.10248150E+04</rscale>
<asrwt>0</asrwt>
<pdfrwt beam="1">  1        2 0.32018845E-01 0.10248150E+04</pdfrwt>
<pdfrwt beam="2">  1       -1 0.19408794E+00 0.10248150E+04</pdfrwt>
<totfact> 0.31356015E+01</totfact>
</mgrwt>
</event>
<event>
12    6  0.1627636E-007  0.1823686E+04  0.7818608E-02  0.8693804E-01
         -1   -1    0    0    0  501 -0.00000000000E+00  0.00000000000E+00  0.31110560509E+03  0.31110560509E+03  0.00000000000E+00 0.  1.
          2   -1    0    0  501    0  0.00000000000E+00 -0.00000000000E+00 -0.26725896247E+04  0.26725896247E+04  0.00000000000E+00 0. -1.
         24    2    1    2    0    0  0.20065797729E+03 -0.66937568053E+03 -0.76142306033E+03  0.10364236234E+04  0.77983491046E+02 0.  0.
        254    2    1    2    0    0 -0.20065797729E+03  0.66937568053E+03 -0.16000609592E+04  0.19472716063E+04  0.86217411812E+03 0.  0.
         23    2    4    4    0    0  0.10025356244E+03  0.44192418598E+03 -0.21776837852E+03  0.51134826587E+03  0.93307123996E+02 0.  0.
         23    2    4    4    0    0 -0.30091153973E+03  0.22745149455E+03 -0.13822925807E+04  0.14359233405E+04  0.94133542456E+02 0.  0.
          4    1    3    3  502    0  0.28541820058E+02 -0.11593763359E+03 -0.17557325755E+03  0.21232554991E+03  0.00000000000E+00 0. -1.
         -3    1    3    3    0  502  0.17211615723E+03 -0.55343804694E+03 -0.58584980277E+03  0.82409807353E+03  0.00000000000E+00 0.  1.
         11    1    5    5    0    0  0.64049511027E+02  0.22963953902E+03 -0.16406660335E+03  0.28940371124E+03  0.00000000000E+00 0.  1.
        -11    1    5    5    0    0  0.36204051417E+02  0.21228464696E+03 -0.53701775171E+02  0.22194455463E+03  0.00000000000E+00 0. -1.
          1    1    6    6  503    0 -0.23866575679E+03  0.18314971078E+03 -0.12200230418E+04  0.12565673012E+04  0.00000000000E+00 0. -1.
         -1    1    6    6    0  503 -0.62245782948E+02  0.44301783772E+02 -0.16226953893E+03  0.17935603922E+03  0.00000000000E+00 0.  1.
<mgrwt>
<rscale>  0 0.18236860E+04</rscale>
<asrwt>0</asrwt>
<pdfrwt beam="1">  1        2 0.41116764E+00 0.18236860E+04</pdfrwt>
<pdfrwt beam="2">  1       -1 0.47862400E-01 0.18236860E+04</pdfrwt>
<totfact> 0.12922861E+01</totfact>
</mgrwt>
</event>
<event>
12    6  0.1627636E-007  0.1785265E+04  0.7818608E-02  0.8714175E-01
         -1   -1    0    0    0  501 -0.00000000000E+00  0.00000000000E+00  0.16612810190E+03  0.16612810190E+03  0.00000000000E+00 0.  1.
          2   -1    0    0  501    0  0.00000000000E+00 -0.00000000000E+00 -0.47962566968E+04  0.47962566968E+04  0.00000000000E+00 0. -1.
         24    2    1    2    0    0 -0.16983430476E+03 -0.52607404950E+03 -0.27530982586E+04  0.28088495585E+04  0.66994210426E+02 0.  0.
        254    2    1    2    0    0  0.16983430476E+03  0.52607404950E+03 -0.18770303363E+04  0.21535352402E+04  0.89937397711E+03 0.  0.
         23    2    4    4    0    0  0.25648888851E+03  0.65848544803E+03 -0.84402595146E+03  0.11046109703E+04  0.91629437674E+02 0.  0.
         23    2    4    4    0    0 -0.86654583745E+02 -0.13241139853E+03 -0.10330043848E+04  0.10489242698E+04  0.90012607139E+02 0.  0.
          2    1    3    3  502    0 -0.14849024103E+03 -0.39220040511E+03 -0.19754474466E+04  0.20194710010E+04  0.00000000000E+00 0. -1.
         -1    1    3    3    0  502 -0.21344063730E+02 -0.13387364439E+03 -0.77765081201E+03  0.78937855756E+03  0.00000000000E+00 0.  1.
         11    1    5    5    0    0  0.64971246042E+02  0.11294975373E+03 -0.11222465682E+03  0.17196884392E+03  0.00000000000E+00 0. -1.
        -11    1    5    5    0    0  0.19151764247E+03  0.54553569431E+03 -0.73180129463E+03  0.93264212641E+03  0.00000000000E+00 0.  1.
          4    1    6    6  503    0 -0.14173499260E+02 -0.57559704514E+02 -0.17838166736E+03  0.18797347397E+03  0.00000000000E+00 0.  1.
         -4    1    6    6    0  503 -0.72481084485E+02 -0.74851694018E+02 -0.85462271747E+03  0.86095079588E+03  0.00000000000E+00 0. -1.
<mgrwt>
<rscale>  0 0.17852653E+04</rscale>
<asrwt>0</asrwt>
<pdfrwt beam="1">  1        2 0.73788560E+00 0.17852653E+04</pdfrwt>
<pdfrwt beam="2">  1       -1 0.25558171E-01 0.17852653E+04</pdfrwt>
<totfact> 0.89825320E-01</totfact>
</mgrwt>
</event>
<event>
12    6  0.1627636E-007  0.1534206E+04  0.7818608E-02  0.8862020E-01
         -1   -1    0    0    0  501 -0.00000000000E+00  0.00000000000E+00  0.46538883038E+03  0.46538883038E+03  0.00000000000E+00 0.  1.
          2   -1    0    0  501    0  0.00000000000E+00 -0.00000000000E+00 -0.12644198619E+04  0.12644198619E+04  0.00000000000E+00 0. -1.
         24    2    1    2    0    0  0.16371787436E+02 -0.13098267329E+03  0.28108029429E+03  0.31993680038E+03  0.76999534245E+02 0.  0.
        254    2    1    2    0    0 -0.16371787436E+02  0.13098267329E+03 -0.10801113258E+04  0.14098718919E+04  0.89647854369E+03 0.  0.
         23    2    4    4    0    0  0.41549886983E+03  0.86102531443E+01 -0.36673953932E+03  0.56203099579E+03  0.93099426637E+02 0.  0.
         23    2    4    4    0    0 -0.43187065726E+03  0.12237242015E+03 -0.71337178647E+03  0.84784089609E+03  0.91910856485E+02 0.  0.
          2    1    3    3  502    0  0.36390551957E+02 -0.31537199792E+02  0.12319995638E+03  0.13227659087E+03  0.00000000000E+00 0. -1.
         -1    1    3    3    0  502 -0.20018764520E+02 -0.99445473497E+02  0.15788033791E+03  0.18766020950E+03  0.00000000000E+00 0.  1.
         11    1    5    5    0    0  0.41839902972E+03  0.27445606884E+01 -0.36505268097E+03  0.55527357272E+03  0.00000000000E+00 0.  1.
        -11    1    5    5    0    0 -0.29001598913E+01  0.58656924559E+01 -0.16868583501E+01  0.67574230647E+01  0.00000000000E+00 0. -1.
          1    1    6    6  503    0 -0.22942399114E+01 -0.80261226191E+01 -0.21701693999E+02  0.23251789253E+02  0.00000000000E+00 0. -1.
         -1    1    6    6    0  503 -0.42957641735E+03  0.13039854276E+03 -0.69167009247E+03  0.82458910684E+03  0.00000000000E+00 0.  1.
<mgrwt>
<rscale>  0 0.15342058E+04</rscale>
<asrwt>0</asrwt>
<pdfrwt beam="1">  1        2 0.19452613E+00 0.15342058E+04</pdfrwt>
<pdfrwt beam="2">  1       -1 0.71598282E-01 0.15342058E+04</pdfrwt>
<totfact> 0.37531056E+01</totfact>
</mgrwt>
</event>
<event>
12    6  0.1627636E-007  0.1576382E+04  0.7818608E-02  0.8835190E-01
         -1   -1    0    0    0  501 -0.00000000000E+00  0.00000000000E+00  0.13772308679E+04  0.13772308679E+04  0.00000000000E+00 0.  1.
          2   -1    0    0  501    0  0.00000000000E+00 -0.00000000000E+00 -0.45108300360E+03  0.45108300360E+03  0.00000000000E+00 0. -1.
         24    2    1    2    0    0  0.94569291714E+02  0.35808758011E+03 -0.13017479708E+03  0.40059569703E+03  0.79758189060E+02 0.  0.
        254    2    1    2    0    0 -0.94569291714E+02 -0.35808758011E+03  0.10563226614E+04  0.14277181745E+04  0.88622319695E+03 0.  0.
         23    2    4    4    0    0 -0.15427382223E+03  0.16009698391E+03  0.80876048769E+03  0.84374444684E+03  0.91540748587E+02 0.  0.
         23    2    4    4    0    0  0.59704530513E+02 -0.51818456401E+03  0.24756217368E+03  0.58397372763E+03  0.87512349822E+02 0.  0.
          4    1    3    3  502    0  0.61687921801E+02  0.30666765434E+03 -0.83509658787E+02  0.32376583054E+03  0.00000000000E+00 0. -1.
         -3    1    3    3    0  502  0.32881369912E+02  0.51419925770E+02 -0.46665138291E+02  0.76829866492E+02  0.00000000000E+00 0.  1.
         11    1    5    5    0    0 -0.16261653201E+02 -0.22006485323E+00  0.17196306853E+03  0.17273038740E+03  0.00000000000E+00 0. -1.
        -11    1    5    5    0    0 -0.13801216903E+03  0.16031704876E+03  0.63679741916E+03  0.67101405944E+03  0.00000000000E+00 0.  1.
          2    1    6    6  503    0  0.75938986040E+01 -0.14654176400E+03  0.28638713814E+02  0.14950696245E+03  0.00000000000E+00 0. -1.
         -2    1    6    6    0  503  0.52110631909E+02 -0.37164280001E+03  0.21892345987E+03  0.43446676518E+03  0.00000000000E+00 0.  1.
<mgrwt>
<rscale>  0 0.15763825E+04</rscale>
<asrwt>0</asrwt>
<pdfrwt beam="1">  1        2 0.69397386E-01 0.15763825E+04</pdfrwt>
<pdfrwt beam="2">  1       -1 0.21188167E+00 0.15763825E+04</pdfrwt>
<totfact> 0.95096679E+00</totfact>
</mgrwt>
</event>
<event>
12    6  0.1627636E-007  0.1837159E+04  0.7818608E-02  0.8686785E-01
          2   -1    0    0  501    0  0.00000000000E+00  0.00000000000E+00  0.11882650223E+04  0.11882650223E+04  0.00000000000E+00 0. -1.
         -1   -1    0    0    0  501 -0.00000000000E+00 -0.00000000000E+00 -0.71010073495E+03  0.71010073495E+03  0.00000000000E+00 0.  1.
         24    2    1    2    0    0  0.28276232181E+03 -0.88003175483E+02 -0.48846815439E+03  0.57671520008E+03  0.79373765318E+02 0.  0.
        254    2    1    2    0    0 -0.28276232181E+03  0.88003175483E+02  0.96663244173E+03  0.13216505572E+04  0.85128304829E+03 0.  0.
         23    2    4    4    0    0  0.25046785251E+03  0.21122129306E+03  0.31452108328E+03  0.46532023017E+03  0.10124635793E+03 0.  0.
         23    2    4    4    0    0 -0.53323017431E+03 -0.12321811758E+03  0.65211135845E+03  0.85633032699E+03  0.92386588917E+02 0.  0.
          4    1    3    3  502    0  0.31247506534E+02 -0.39619955114E+02 -0.78911992458E+02  0.93665629029E+02  0.00000000000E+00 0. -1.
         -3    1    3    3    0  502  0.25151481527E+03 -0.48383220369E+02 -0.40955616193E+03  0.48304957105E+03  0.00000000000E+00 0.  1.
         11    1    5    5    0    0  0.46778417303E+02  0.32337129374E+02  0.11640779592E+03  0.12955572243E+03  0.00000000000E+00 0. -1.
        -11    1    5    5    0    0  0.20368943520E+03  0.17888416369E+03  0.19811328735E+03  0.33576450774E+03  0.00000000000E+00 0.  1.
          4    1    6    6  503    0 -0.26851307890E+03 -0.34902588396E+02  0.26280968182E+03  0.37734121571E+03  0.00000000000E+00 0. -1.
         -4    1    6    6    0  503 -0.26471709541E+03 -0.88315529184E+02  0.38930167663E+03  0.47898911128E+03  0.00000000000E+00 0.  1.
<mgrwt>
<rscale>  0 0.18371585E+04</rscale>
<asrwt>0</asrwt>
<pdfrwt beam="1">  1        2 0.18281000E+00 0.18371585E+04</pdfrwt>
<pdfrwt beam="2">  1       -1 0.10924627E+00 0.18371585E+04</pdfrwt>
<totfact> 0.16028593E+01</totfact>
</mgrwt>
</event>
<event>
12    6  0.1627636E-007  0.2111935E+04  0.7818608E-02  0.8556004E-01
          2   -1    0    0  501    0  0.00000000000E+00  0.00000000000E+00  0.16270665187E+04  0.16270665187E+04  0.00000000000E+00 0. -1.
         -1   -1    0    0    0  501 -0.00000000000E+00 -0.00000000000E+00 -0.68532404021E+03  0.68532404021E+03  0.00000000000E+00 0.  1.
         24    2    1    2    0    0 -0.67768763849E+03  0.53103453556E+03  0.44623118565E+03  0.97463289923E+03  0.97615592463E+02 0.  0.
        254    2    1    2    0    0  0.67768763849E+03 -0.53103453556E+03  0.49551129282E+03  0.13377576597E+04  0.89599436458E+03 0.  0.
         23    2    4    4    0    0  0.38907934039E+03  0.87928792957E+02 -0.10635871720E+03  0.42275894600E+03  0.91097442086E+02 0.  0.
         23    2    4    4    0    0  0.28860829810E+03 -0.61896332852E+03  0.60187001003E+03  0.91499871366E+03  0.92546125007E+02 0.  0.
          4    1    3    3  502    0 -0.21959627924E+03  0.19421979018E+03  0.20079467834E+03  0.35533414641E+03  0.00000000000E+00 0. -1.
         -3    1    3    3    0  502 -0.45809135925E+03  0.33681474537E+03  0.24543650731E+03  0.61929875282E+03  0.00000000000E+00 0.  1.
         11    1    5    5    0    0  0.30078613023E+03  0.73430884563E+02 -0.12036662371E+03  0.33219349038E+03  0.00000000000E+00 0. -1.
        -11    1    5    5    0    0  0.88293210161E+02  0.14497908394E+02  0.14007906511E+02  0.90565455629E+02  0.00000000000E+00 0.  1.
          4    1    6    6  503    0  0.64221279608E+02 -0.90286523932E+02  0.13643407942E+03  0.17575632901E+03  0.00000000000E+00 0.  1.
         -4    1    6    6    0  503  0.22438701849E+03 -0.52867680458E+03  0.46543593060E+03  0.73924238465E+03  0.00000000000E+00 0. -1.
<mgrwt>
<rscale>  0 0.21119354E+04</rscale>
<asrwt>0</asrwt>
<pdfrwt beam="1">  1        2 0.25031793E+00 0.21119354E+04</pdfrwt>
<pdfrwt beam="2">  1       -1 0.10543447E+00 0.21119354E+04</pdfrwt>
<totfact> 0.95225027E+00</totfact>
</mgrwt>
</event>
<event>
12    6  0.1627636E-007  0.1403126E+04  0.7818608E-02  0.8951559E-01
          2   -1    0    0  501    0  0.00000000000E+00  0.00000000000E+00  0.89778447461E+03  0.89778447461E+03  0.00000000000E+00 0. -1.
         -1   -1    0    0    0  501 -0.00000000000E+00 -0.00000000000E+00 -0.54822839710E+03  0.54822839710E+03  0.00000000000E+00 0.  1.
         24    2    1    2    0    0 -0.12867470226E+03 -0.28407180572E+03 -0.16644914096E+03  0.36240138304E+03  0.79846578503E+02 0.  0.
        254    2    1    2    0    0  0.12867470226E+03  0.28407180572E+03  0.51600521847E+03  0.10836114887E+04  0.90038797364E+03 0.  0.
         23    2    4    4    0    0  0.17846904146E+03 -0.21117182667E+03  0.49830484929E+03  0.57704007503E+03  0.90679579997E+02 0.  0.
         23    2    4    4    0    0 -0.49794339197E+02  0.49524363239E+03  0.17700369186E+02  0.50657141364E+03  0.92496283253E+02 0.  0.
          2    1    3    3  502    0 -0.81570912514E+02 -0.21214268203E+03 -0.15626403378E+03  0.27582019426E+03  0.00000000000E+00 0. -1.
         -3    1    3    3    0  502 -0.47103789744E+02 -0.71929123687E+02 -0.10185107179E+02  0.86581188782E+02  0.00000000000E+00 0.  1.
         11    1    5    5    0    0  0.15843024852E+03 -0.16958499554E+03  0.46632454670E+03  0.52088174974E+03  0.00000000000E+00 0. -1.
        -11    1    5    5    0    0  0.20038792938E+02 -0.41586831128E+02  0.31980302593E+02  0.56158325292E+02  0.00000000000E+00 0.  1.
          2    1    6    6  503    0 -0.66761853517E+02  0.21372525778E+03 -0.11512136169E+01  0.22391283168E+03  0.00000000000E+00 0. -1.
         -2    1    6    6    0  503  0.16967514320E+02  0.28151837460E+03  0.18851582803E+02  0.28265858196E+03  0.00000000000E+00 0.  1.
<mgrwt>
<rscale>  0 0.14031264E+04</rscale>
<asrwt>0</asrwt>
<pdfrwt beam="1">  1        2 0.13812069E+00 0.14031264E+04</pdfrwt>
<pdfrwt beam="2">  1       -1 0.84342830E-01 0.14031264E+04</pdfrwt>
<totfact> 0.45512353E+01</totfact>
</mgrwt>
</event>
<event>
12    6  0.1627636E-007  0.2011244E+04  0.7818608E-02  0.8601382E-01
          2   -1    0    0  501    0  0.00000000000E+00  0.00000000000E+00  0.11984444451E+04  0.11984444451E+04  0.00000000000E+00 0. -1.
         -1   -1    0    0    0  501 -0.00000000000E+00 -0.00000000000E+00 -0.84382378371E+03  0.84382378371E+03  0.00000000000E+00 0.  1.
         24    2    1    2    0    0 -0.45167744249E+00 -0.61047560184E+03  0.66795422070E+03  0.90858982343E+03  0.81804412090E+02 0.  0.
        254    2    1    2    0    0  0.45167744249E+00  0.61047560184E+03 -0.31333355928E+03  0.11336784054E+04  0.90242348320E+03 0.  0.
         23    2    4    4    0    0  0.18623823824E+03  0.77631191587E+03 -0.32930610769E+03  0.86806702694E+03  0.88050999998E+02 0.  0.
         23    2    4    4    0    0 -0.18578656079E+03 -0.16583631403E+03  0.15972548407E+02  0.26561137845E+03  0.90972264108E+02 0.  0.
          2    1    3    3  502    0  0.12468133436E+02 -0.47513020242E+03  0.56321440798E+03  0.73696311506E+03  0.00000000000E+00 0. -1.
         -1    1    3    3    0  502 -0.12919810879E+02 -0.13534539942E+03  0.10473981271E+03  0.17162670837E+03  0.00000000000E+00 0.  1.
         11    1    5    5    0    0 -0.95966098920E+01  0.50180197899E+02 -0.22206428345E+02  0.55707025073E+02  0.00000000000E+00 0. -1.
        -11    1    5    5    0    0  0.19583484813E+03  0.72613171797E+03 -0.30709967934E+03  0.81236000187E+03  0.00000000000E+00 0.  1.
          1    1    6    6  503    0 -0.63508086822E+02 -0.10619643820E+03 -0.18882395542E+02  0.12516990629E+03  0.00000000000E+00 0. -1.
         -1    1    6    6    0  503 -0.12227847397E+03 -0.59639875829E+02  0.34854943948E+02  0.14044147216E+03  0.00000000000E+00 0.  1.
<mgrwt>
<rscale>  0 0.20112443E+04</rscale>
<asrwt>0</asrwt>
<pdfrwt beam="1">  1        2 0.18437607E+00 0.20112443E+04</pdfrwt>
<pdfrwt beam="2">  1       -1 0.12981904E+00 0.20112443E+04</pdfrwt>
<totfact> 0.10224481E+01</totfact>
</mgrwt>
</event>
<event>
12    6  0.1627636E-007  0.1282364E+04  0.7818608E-02  0.9043669E-01
          2   -1    0    0  501    0  0.00000000000E+00  0.00000000000E+00  0.83888881775E+03  0.83888881775E+03  0.00000000000E+00 0. -1.
         -1   -1    0    0    0  501 -0.00000000000E+00 -0.00000000000E+00 -0.49007021704E+03  0.49007021704E+03  0.00000000000E+00 0.  1.
         24    2    1    2    0    0 -0.15184830967E+03  0.24118374140E+03 -0.61134604511E+02  0.30306141086E+03  0.82953436444E+02 0.  0.
        254    2    1    2    0    0  0.15184830967E+03 -0.24118374140E+03  0.40995320522E+03  0.10258976239E+04  0.89620131559E+03 0.  0.
         23    2    4    4    0    0 -0.27801433064E+03 -0.19535267260E+03 -0.85324094052E+02  0.36232130696E+03  0.92422365883E+02 0.  0.
         23    2    4    4    0    0  0.42986264031E+03 -0.45831068795E+02  0.49527729927E+03  0.66357631698E+03  0.90285928455E+02 0.  0.
          2    1    3    3  502    0 -0.98268362424E+02  0.13813588945E+03  0.46361803091E+01  0.16958681899E+03  0.00000000000E+00 0. -1.
         -1    1    3    3    0  502 -0.53579947244E+02  0.10304785195E+03 -0.65770784820E+02  0.13347459187E+03  0.00000000000E+00 0.  1.
         11    1    5    5    0    0 -0.14544891636E+03 -0.12436788410E+03 -0.90860343185E+02  0.21184513171E+03  0.00000000000E+00 0. -1.
        -11    1    5    5    0    0 -0.13256541429E+03 -0.70984788501E+02  0.55362491329E+01  0.15047617525E+03  0.00000000000E+00 0.  1.
          1    1    6    6  503    0  0.31614297002E+03 -0.52405520913E+02  0.30859830430E+03  0.44488833378E+03  0.00000000000E+00 0.  1.
         -1    1    6    6    0  503  0.11371967029E+03  0.65744521174E+01  0.18667899498E+03  0.21868798320E+03  0.00000000000E+00 0. -1.
<mgrwt>
<rscale>  0 0.12823641E+04</rscale>
<asrwt>0</asrwt>
<pdfrwt beam="1">  1        2 0.12905982E+00 0.12823641E+04</pdfrwt>
<pdfrwt beam="2">  1       -1 0.75395418E-01 0.12823641E+04</pdfrwt>
<totfact> 0.64031295E+01</totfact>
</mgrwt>
</event>
<event>
12    6  0.1627636E-007  0.1677979E+04  0.7818608E-02  0.8774024E-01
         -1   -1    0    0    0  501 -0.00000000000E+00  0.00000000000E+00  0.14427067170E+04  0.14427067170E+04  0.00000000000E+00 0.  1.
          2   -1    0    0  501    0  0.00000000000E+00 -0.00000000000E+00 -0.48790467250E+03  0.48790467250E+03  0.00000000000E+00 0. -1.
         24    2    1    2    0    0 -0.29982378323E+03 -0.50921739326E+03  0.32001542085E+03  0.67668009453E+03  0.79305902464E+02 0.  0.
        254    2    1    2    0    0  0.29982378323E+03  0.50921739326E+03  0.63478662367E+03  0.12539312950E+04  0.90564506313E+03 0.  0.
         23    2    4    4    0    0  0.14847247059E+03  0.71617164498E+03  0.65182672330E+03  0.98405808238E+03  0.92446377421E+02 0.  0.
         23    2    4    4    0    0  0.15135131264E+03 -0.20695425172E+03 -0.17040099632E+02  0.26987321260E+03  0.82485779023E+02 0.  0.
          4    1    3    3  502    0 -0.12599819081E+03 -0.20337639025E+03  0.86298588307E+02  0.25433235449E+03  0.00000000000E+00 0. -1.
         -3    1    3    3    0  502 -0.17382559243E+03 -0.30584100301E+03  0.23371683254E+03  0.42234774005E+03  0.00000000000E+00 0.  1.
         11    1    5    5    0    0  0.37914650687E+02  0.55065048102E+02  0.55104852834E+02  0.86638473354E+02  0.00000000000E+00 0. -1.
        -11    1    5    5    0    0  0.11055781990E+03  0.66110659688E+03  0.59672187046E+03  0.89741960903E+03  0.00000000000E+00 0.  1.
          4    1    6    6  503    0  0.71103436087E+02 -0.48510845953E+02  0.20178232251E+02  0.88409059803E+02  0.00000000000E+00 0. -1.
         -4    1    6    6    0  503  0.80247876554E+02 -0.15844340577E+03 -0.37218331883E+02  0.18146415280E+03  0.00000000000E+00 0.  1.
<mgrwt>
<rscale>  0 0.16779790E+04</rscale>
<asrwt>0</asrwt>
<pdfrwt beam="1">  1        2 0.75062258E-01 0.16779790E+04</pdfrwt>
<pdfrwt beam="2">  1       -1 0.22195488E+00 0.16779790E+04</pdfrwt>
<totfact> 0.73706796E+00</totfact>
</mgrwt>
</event>
<event>
12    6  0.1627636E-007  0.1869246E+04  0.7818608E-02  0.8670318E-01
          2   -1    0    0  501    0  0.00000000000E+00  0.00000000000E+00  0.55361002781E+03  0.55361002781E+03  0.00000000000E+00 0. -1.
         -1   -1    0    0    0  501 -0.00000000000E+00 -0.00000000000E+00 -0.15778612735E+04  0.15778612735E+04  0.00000000000E+00 0.  1.
         24    2    1    2    0    0  0.58598551447E+03 -0.37128921408E+03 -0.22198231292E+03  0.73282939875E+03  0.80796514485E+02 0.  0.
        254    2    1    2    0    0 -0.58598551447E+03  0.37128921408E+03 -0.80226893276E+03  0.13986419025E+04  0.91177246473E+03 0.  0.
         23    2    4    4    0    0 -0.17953200833E+03 -0.25437561819E+03 -0.33474083143E+02  0.32341991758E+03  0.80877881396E+02 0.  0.
         23    2    4    4    0    0 -0.40645350614E+03  0.62566483228E+03 -0.76879484961E+03  0.10752219850E+04  0.91628931966E+02 0.  0.
          4    1    3    3  502    0  0.22091824889E+03 -0.13244916813E+03 -0.12321304651E+03  0.28553302727E+03  0.00000000000E+00 0. -1.
         -3    1    3    3    0  502  0.36506726558E+03 -0.23884004595E+03 -0.98769266413E+02  0.44729637148E+03  0.00000000000E+00 0.  1.
         11    1    5    5    0    0 -0.62215483647E+02 -0.12997255173E+03  0.17089310679E+02  0.14510573782E+03  0.00000000000E+00 0.  1.
        -11    1    5    5    0    0 -0.11731652468E+03 -0.12440306646E+03 -0.50563393822E+02  0.17831417976E+03  0.00000000000E+00 0. -1.
          4    1    6    6  503    0 -0.41088213003E+03  0.61276412792E+03 -0.75858041235E+03  0.10581815739E+04  0.00000000000E+00 0. -1.
         -4    1    6    6    0  503  0.44286238918E+01  0.12900704351E+02 -0.10214437267E+02  0.17040411116E+02  0.00000000000E+00 0.  1.
<mgrwt>
<rscale>  0 0.18692456E+04</rscale>
<asrwt>0</asrwt>
<pdfrwt beam="1">  1        2 0.85170775E-01 0.18692456E+04</pdfrwt>
<pdfrwt beam="2">  1       -1 0.24274788E+00 0.18692456E+04</pdfrwt>
<totfact> 0.45565014E+00</totfact>
</mgrwt>
</event>
<event>
12    6  0.1627636E-007  0.2016132E+04  0.7818608E-02  0.8599115E-01
         -1   -1    0    0    0  501 -0.00000000000E+00  0.00000000000E+00  0.36068556082E+03  0.36068556082E+03  0.00000000000E+00 0.  1.
          2   -1    0    0  501    0  0.00000000000E+00 -0.00000000000E+00 -0.28174049043E+04  0.28174049043E+04  0.00000000000E+00 0. -1.
         24    2    1    2    0    0  0.79301572383E+03  0.44929810009E+02 -0.12925045968E+04  0.15191360990E+04  0.79458974246E+02 0.  0.
        254    2    1    2    0    0 -0.79301572383E+03 -0.44929810009E+02 -0.11642147467E+04  0.16589543661E+04  0.87512341202E+03 0.  0.
         23    2    4    4    0    0 -0.66903407709E+03  0.32492890606E+03 -0.93311173617E+03  0.11970197167E+04  0.94727501660E+02 0.  0.
         23    2    4    4    0    0 -0.12398164674E+03 -0.36985871607E+03 -0.23110301050E+03  0.46193464941E+03  0.88363455599E+02 0.  0.
          4    1    3    3  502    0  0.13071296132E+03  0.13852283245E+02 -0.16287636171E+03  0.20929995989E+03  0.00000000000E+00 0. -1.
         -3    1    3    3    0  502  0.66230276251E+03  0.31077526764E+02 -0.11296282351E+04  0.13098361392E+04  0.00000000000E+00 0.  1.
         11    1    5    5    0    0 -0.54938209147E+03  0.28330163920E+03 -0.82224263016E+03  0.10286707170E+04  0.00000000000E+00 0.  1.
        -11    1    5    5    0    0 -0.11965198562E+03  0.41627266860E+02 -0.11086910601E+03  0.16834899963E+03  0.00000000000E+00 0. -1.
          2    1    6    6  503    0  0.75853025910E+01 -0.15818690916E+02 -0.28136812429E+02  0.33157925317E+02  0.00000000000E+00 0. -1.
         -2    1    6    6    0  503 -0.13156694933E+03 -0.35404002516E+03 -0.20296619807E+03  0.42877672410E+03  0.00000000000E+00 0.  1.
<mgrwt>
<rscale>  0 0.20161322E+04</rscale>
<asrwt>0</asrwt>
<pdfrwt beam="1">  1        2 0.43344691E+00 0.20161322E+04</pdfrwt>
<pdfrwt beam="2">  1       -1 0.55490086E-01 0.20161322E+04</pdfrwt>
<totfact> 0.78388993E+00</totfact>
</mgrwt>
</event>
<event>
12    6  0.1627636E-007  0.2021058E+04  0.7818608E-02  0.8596838E-01
         -1   -1    0    0    0  501 -0.00000000000E+00  0.00000000000E+00  0.11131270342E+04  0.11131270342E+04  0.00000000000E+00 0.  1.
          2   -1    0    0  501    0  0.00000000000E+00 -0.00000000000E+00 -0.91738754323E+03  0.91738754323E+03  0.00000000000E+00 0. -1.
         24    2    1    2    0    0 -0.80259713000E+03 -0.12444946920E+03  0.92426481237E+02  0.82139552060E+03  0.80610938207E+02 0.  0.
        254    2    1    2    0    0  0.80259713000E+03  0.12444946920E+03  0.10331300970E+03  0.12091190568E+04  0.88974462182E+03 0.  0.
         23    2    4    4    0    0  0.68501908290E+03 -0.27084577638E+03  0.21421720230E+03  0.77236682908E+03  0.89738121125E+02 0.  0.
         23    2    4    4    0    0  0.11757804710E+03  0.39529524557E+03 -0.11090419260E+03  0.43675222771E+03  0.91486830431E+02 0.  0.
          4    1    3    3  502    0 -0.74274233185E+03 -0.12603736511E+03  0.10371166594E+03  0.76046544865E+03  0.00000000000E+00 0. -1.
         -3    1    3    3    0  502 -0.59854798147E+02  0.15878959167E+01 -0.11285184699E+02  0.60930071954E+02  0.00000000000E+00 0.  1.
         11    1    5    5    0    0  0.55117598801E+03 -0.17895054633E+03  0.17496696893E+03  0.60533602900E+03  0.00000000000E+00 0. -1.
        -11    1    5    5    0    0  0.13384309489E+03 -0.91895230048E+02  0.39250233366E+02  0.16703080008E+03  0.00000000000E+00 0.  1.
          3    1    6    6  503    0  0.75372518559E+02  0.34797779208E+03 -0.74908621811E+02  0.36384180897E+03  0.00000000000E+00 0. -1.
         -3    1    6    6    0  503  0.42205528538E+02  0.47317453496E+02 -0.35995570790E+02  0.72910418741E+02  0.00000000000E+00 0.  1.
<mgrwt>
<rscale>  0 0.20210580E+04</rscale>
<asrwt>0</asrwt>
<pdfrwt beam="1">  1        2 0.14113655E+00 0.20210580E+04</pdfrwt>
<pdfrwt beam="2">  1       -1 0.17125031E+00 0.20210580E+04</pdfrwt>
<totfact> 0.72756487E+00</totfact>
</mgrwt>
</event>
<event>
12    6  0.1627636E-007  0.1652046E+04  0.7818608E-02  0.8789197E-01
          2   -1    0    0  501    0  0.00000000000E+00  0.00000000000E+00  0.19473323411E+04  0.19473323411E+04  0.00000000000E+00 0. -1.
         -1   -1    0    0    0  501 -0.00000000000E+00 -0.00000000000E+00 -0.35038404855E+03  0.35038404855E+03  0.00000000000E+00 0.  1.
         24    2    1    2    0    0  0.11898460698E+03  0.47985425260E+03  0.14451846016E+03  0.51972161368E+03  0.69336353785E+02 0.  0.
        254    2    1    2    0    0 -0.11898460698E+03 -0.47985425260E+03  0.14524298324E+04  0.17779947759E+04  0.89849627985E+03 0.  0.
         23    2    4    4    0    0  0.22699984071E+03  0.36702566184E+02  0.64066415533E+02  0.25406605487E+03  0.87000279262E+02 0.  0.
         23    2    4    4    0    0 -0.34598444769E+03 -0.51655681879E+03  0.13883634168E+04  0.15239287211E+04  0.90937256540E+02 0.  0.
          2    1    3    3  502    0  0.17397540411E+02  0.16007862626E+02  0.98600299341E+00  0.23662169810E+02  0.00000000000E+00 0. -1.
         -3    1    3    3    0  502  0.10158706656E+03  0.46384638998E+03  0.14353245716E+03  0.49605944387E+03  0.00000000000E+00 0.  1.
         11    1    5    5    0    0  0.76002001396E+01 -0.15489729378E+02  0.15888906298E+02  0.23455321395E+02  0.00000000000E+00 0.  1.
        -11    1    5    5    0    0  0.21939964057E+03  0.52192295562E+02  0.48177509235E+02  0.23061073348E+03  0.00000000000E+00 0. -1.
          3    1    6    6  503    0 -0.33255463438E+03 -0.45941862247E+03  0.12138649894E+04  0.13398232226E+04  0.00000000000E+00 0. -1.
         -3    1    6    6    0  503 -0.13429813312E+02 -0.57138196316E+02  0.17449842747E+03  0.18410549843E+03  0.00000000000E+00 0.  1.
<mgrwt>
<rscale>  0 0.16520462E+04</rscale>
<asrwt>0</asrwt>
<pdfrwt beam="1">  1        2 0.29958959E+00 0.16520462E+04</pdfrwt>
<pdfrwt beam="2">  1       -1 0.53905239E-01 0.16520462E+04</pdfrwt>
<totfact> 0.27014203E+01</totfact>
</mgrwt>
</event>
<event>
12    6  0.1627636E-007  0.3881746E+04  0.7818608E-02  0.8028837E-01
         -1   -1    0    0    0  501 -0.00000000000E+00  0.00000000000E+00  0.12651480073E+04  0.12651480073E+04  0.00000000000E+00 0.  1.
          2   -1    0    0  501    0  0.00000000000E+00 -0.00000000000E+00 -0.29775070432E+04  0.29775070432E+04  0.00000000000E+00 0. -1.
         24    2    1    2    0    0  0.11353198504E+04 -0.14265548871E+04 -0.55730761325E+03  0.19078859922E+04  0.73669361130E+02 0.  0.
        254    2    1    2    0    0 -0.11353198504E+04  0.14265548871E+04 -0.11550514226E+04  0.23347690583E+04  0.89050140816E+03 0.  0.
         23    2    4    4    0    0 -0.39439309510E+03  0.46603820074E+03  0.53863932017E+02  0.61971219478E+03  0.91675313899E+02 0.  0.
         23    2    4    4    0    0 -0.74092675532E+03  0.96051668637E+03 -0.12089153546E+04  0.17150568635E+04  0.91536598370E+02 0.  0.
          4    1    3    3  502    0  0.26056973085E+03 -0.30838539759E+03 -0.94116801322E+02  0.41455531642E+03  0.00000000000E+00 0. -1.
         -3    1    3    3    0  502  0.87475011957E+03 -0.11181694895E+04 -0.46319081192E+03  0.14933306758E+04  0.00000000000E+00 0.  1.
         11    1    5    5    0    0 -0.13100009918E+02  0.70973407108E+00 -0.73063814859E+01  0.15016563945E+02  0.00000000000E+00 0. -1.
        -11    1    5    5    0    0 -0.38129308518E+03  0.46532846667E+03  0.61170313503E+02  0.60469563084E+03  0.00000000000E+00 0.  1.
          2    1    6    6  503    0 -0.28843705422E+03  0.30666295617E+03 -0.39827543222E+03  0.57953552337E+03  0.00000000000E+00 0. -1.
         -2    1    6    6    0  503 -0.45248970110E+03  0.65385373020E+03 -0.81063992239E+03  0.11355213401E+04  0.00000000000E+00 0.  1.
<mgrwt>
<rscale>  0 0.38817455E+04</rscale>
<asrwt>0</asrwt>
<pdfrwt beam="1">  1        2 0.45807800E+00 0.38817455E+04</pdfrwt>
<pdfrwt beam="2">  1       -1 0.19463816E+00 0.38817455E+04</pdfrwt>
<totfact> 0.26657946E-01</totfact>
</mgrwt>
</event>
<event>
12    6  0.1627636E-007  0.3429674E+04  0.7818608E-02  0.8130661E-01
         -1   -1    0    0    0  501 -0.00000000000E+00  0.00000000000E+00  0.17332396321E+04  0.17332396321E+04  0.00000000000E+00 0.  1.
          2   -1    0    0  501    0  0.00000000000E+00 -0.00000000000E+00 -0.16966302336E+04  0.16966302336E+04  0.00000000000E+00 0. -1.
         24    2    1    2    0    0 -0.56835310016E+03  0.12556974683E+04  0.81930101294E+03  0.16054021914E+04  0.79124381980E+02 0.  0.
        254    2    1    2    0    0  0.56835310016E+03 -0.12556974683E+04 -0.78269161450E+03  0.18244676744E+04  0.90347924875E+03 0.  0.
         23    2    4    4    0    0  0.53033318976E+03 -0.13679708174E+04 -0.80162494197E+03  0.16743379486E+04  0.90595636357E+02 0.  0.
         23    2    4    4    0    0  0.38019910399E+02  0.11227334902E+03  0.18933327461E+02  0.15012972573E+03  0.90164544991E+02 0.  0.
          4    1    3    3  502    0 -0.17540895498E+03  0.31873576988E+03  0.23978451728E+03  0.43572629851E+03  0.00000000000E+00 0. -1.
         -3    1    3    3    0  502 -0.39294414518E+03  0.93696169845E+03  0.57951649566E+03  0.11696758929E+04  0.00000000000E+00 0.  1.
         11    1    5    5    0    0  0.24525019446E+03 -0.71571205886E+03 -0.37440712577E+03  0.84413986099E+03  0.00000000000E+00 0.  1.
        -11    1    5    5    0    0  0.28508299530E+03 -0.65225875850E+03 -0.42721781619E+03  0.83019808764E+03  0.00000000000E+00 0. -1.
          4    1    6    6  503    0  0.31592120112E+02  0.46805221083E+02  0.51768014875E+02  0.76607559273E+02  0.00000000000E+00 0. -1.
         -4    1    6    6    0  503  0.64277902876E+01  0.65468127938E+02 -0.32834687414E+02  0.73522166462E+02  0.00000000000E+00 0.  1.
<mgrwt>
<rscale>  0 0.34296745E+04</rscale>
<asrwt>0</asrwt>
<pdfrwt beam="1">  1        2 0.26102004E+00 0.34296745E+04</pdfrwt>
<pdfrwt beam="2">  1       -1 0.26665225E+00 0.34296745E+04</pdfrwt>
<totfact> 0.50321451E-01</totfact>
</mgrwt>
</event>
<event>
12    6  0.1627636E-007  0.2618666E+04  0.7818608E-02  0.8361888E-01
          2   -1    0    0  501    0  0.00000000000E+00  0.00000000000E+00  0.20547891000E+04  0.20547891000E+04  0.00000000000E+00 0. -1.
         -1   -1    0    0    0  501 -0.00000000000E+00 -0.00000000000E+00 -0.83432041635E+03  0.83432041635E+03  0.00000000000E+00 0.  1.
         24    2    1    2    0    0  0.10767887724E+04  0.29409243302E+03  0.21545376994E+03  0.11395183589E+04  0.78213450443E+02 0.  0.
        254    2    1    2    0    0 -0.10767887724E+04 -0.29409243302E+03  0.10050149137E+04  0.17495911574E+04  0.89724568648E+03 0.  0.
         23    2    4    4    0    0 -0.86648749750E+03 -0.34311686235E+03  0.26595962434E+03  0.97425899789E+03  0.99580664027E+02 0.  0.
         23    2    4    4    0    0 -0.21030127488E+03  0.49024429333E+02  0.73905528935E+03  0.77533215953E+03  0.91143930109E+02 0.  0.
          2    1    3    3  502    0  0.21012177236E+02  0.10386558462E+02 -0.57476374919E+01  0.24133535290E+02  0.00000000000E+00 0. -1.
         -1    1    3    3    0  502  0.10557765951E+04  0.28370587456E+03  0.22120140743E+03  0.11153848236E+04  0.00000000000E+00 0.  1.
         11    1    5    5    0    0 -0.24221435840E+03 -0.11944394129E+03  0.11855053653E+03  0.29493877371E+03  0.00000000000E+00 0.  1.
        -11    1    5    5    0    0 -0.62427313910E+03 -0.22367292106E+03  0.14740908781E+03  0.67932022419E+03  0.00000000000E+00 0. -1.
          3    1    6    6  503    0 -0.20335198830E+03  0.36463730215E+02  0.72924675382E+03  0.75794621361E+03  0.00000000000E+00 0. -1.
         -3    1    6    6    0  503 -0.69492865800E+01  0.12560699119E+02  0.98085355319E+01  0.17385945922E+02  0.00000000000E+00 0.  1.
<mgrwt>
<rscale>  0 0.26186657E+04</rscale>
<asrwt>0</asrwt>
<pdfrwt beam="1">  1        2 0.31612140E+00 0.26186657E+04</pdfrwt>
<pdfrwt beam="2">  1       -1 0.12835699E+00 0.26186657E+04</pdfrwt>
<totfact> 0.32767394E+00</totfact>
</mgrwt>
</event>
<event>
12    6  0.1627636E-007  0.2342666E+04  0.7818608E-02  0.8461286E-01
          2   -1    0    0  501    0  0.00000000000E+00  0.00000000000E+00  0.14486439672E+04  0.14486439672E+04  0.00000000000E+00 0. -1.
         -1   -1    0    0    0  501 -0.00000000000E+00 -0.00000000000E+00 -0.94710722930E+03  0.94710722930E+03  0.00000000000E+00 0.  1.
         24    2    1    2    0    0 -0.92630486578E+03 -0.28230963220E+03  0.43862273059E+03  0.10659802112E+04  0.78641452800E+02 0.  0.
        254    2    1    2    0    0  0.92630486578E+03  0.28230963220E+03  0.62914007281E+02  0.13297709853E+04  0.90917174843E+03 0.  0.
         23    2    4    4    0    0  0.27375856443E+03  0.23854851463E+03  0.43336567191E+03  0.57258111038E+03  0.90521693170E+02 0.  0.
         23    2    4    4    0    0  0.65254630135E+03  0.43761117566E+02 -0.37045166463E+03  0.75718987489E+03  0.91489671494E+02 0.  0.
          2    1    3    3  502    0 -0.76144448528E+03 -0.21054768350E+03  0.38160549844E+03  0.87735442532E+03  0.00000000000E+00 0. -1.
         -1    1    3    3    0  502 -0.16486038050E+03 -0.71761948702E+02  0.57017232151E+02  0.18862578589E+03  0.00000000000E+00 0.  1.
         11    1    5    5    0    0  0.22920286925E+02  0.24257102928E+02  0.91920372551E+02  0.97791111483E+02  0.00000000000E+00 0. -1.
        -11    1    5    5    0    0  0.25083827751E+03  0.21429141171E+03  0.34144529936E+03  0.47478999889E+03  0.00000000000E+00 0.  1.
          2    1    6    6  503    0  0.61606135906E+03  0.20647492166E+02 -0.33666259249E+03  0.70235291573E+03  0.00000000000E+00 0.  1.
         -2    1    6    6    0  503  0.36484942290E+02  0.23113625400E+02 -0.33789072144E+02  0.54836959155E+02  0.00000000000E+00 0. -1.
<mgrwt>
<rscale>  0 0.23426662E+04</rscale>
<asrwt>0</asrwt>
<pdfrwt beam="1">  1        2 0.22286830E+00 0.23426662E+04</pdfrwt>
<pdfrwt beam="2">  1       -1 0.14570880E+00 0.23426662E+04</pdfrwt>
<totfact> 0.52695817E+00</totfact>
</mgrwt>
</event>
<event>
12    6  0.1627636E-007  0.1656940E+04  0.7818608E-02  0.8786311E-01
          2   -1    0    0  501    0  0.00000000000E+00  0.00000000000E+00  0.26548281064E+04  0.26548281064E+04  0.00000000000E+00 0. -1.
         -1   -1    0    0    0  501 -0.00000000000E+00 -0.00000000000E+00 -0.25853367641E+03  0.25853367641E+03  0.00000000000E+00 0.  1.
         24    2    1    2    0    0  0.54099089339E+02 -0.54074387257E+02 -0.16713407809E+03  0.19769429268E+03  0.72790675733E+02 0.  0.
        254    2    1    2    0    0 -0.54099089339E+02  0.54074387257E+02  0.25634285081E+04  0.27156674901E+04  0.89321523168E+03 0.  0.
         23    2    4    4    0    0 -0.15126447387E+03 -0.18571727387E+03  0.17256293564E+03  0.30917794318E+03  0.91875932238E+02 0.  0.
         23    2    4    4    0    0  0.97165384533E+02  0.23979166112E+03  0.23908655724E+04  0.24064895470E+04  0.89513135518E+02 0.  0.
          2    1    3    3  502    0  0.13919979341E+02 -0.26037890933E+02 -0.71532106401E+01  0.30379368189E+02  0.00000000000E+00 0. -1.
         -1    1    3    3    0  502  0.40179109998E+02 -0.28036496324E+02 -0.15998086745E+03  0.16731492449E+03  0.00000000000E+00 0.  1.
         11    1    5    5    0    0 -0.18507822497E+02 -0.79385521340E+02  0.28742171059E+02  0.86433285771E+02  0.00000000000E+00 0.  1.
        -11    1    5    5    0    0 -0.13275665137E+03 -0.10633175253E+03  0.14382076458E+03  0.22274465741E+03  0.00000000000E+00 0. -1.
          1    1    6    6  503    0  0.95941955998E+02  0.12200661348E+03  0.12687750074E+04  0.12782333481E+04  0.00000000000E+00 0. -1.
         -1    1    6    6    0  503  0.12234285351E+01  0.11778504765E+03  0.11220905650E+04  0.11282561989E+04  0.00000000000E+00 0.  1.
<mgrwt>
<rscale>  0 0.16569399E+04</rscale>
<asrwt>0</asrwt>
<pdfrwt beam="1">  1        2 0.40843507E+00 0.16569399E+04</pdfrwt>
<pdfrwt beam="2">  1       -1 0.39774414E-01 0.16569399E+04</pdfrwt>
<totfact> 0.18952015E+01</totfact>
</mgrwt>
</event>
<event>
12    6  0.1627636E-007  0.1827842E+04  0.7818608E-02  0.8691632E-01
         -1   -1    0    0    0  501 -0.00000000000E+00  0.00000000000E+00  0.52175810877E+03  0.52175810877E+03  0.00000000000E+00 0.  1.
          2   -1    0    0  501    0  0.00000000000E+00 -0.00000000000E+00 -0.16008410047E+04  0.16008410047E+04  0.00000000000E+00 0. -1.
         24    2    1    2    0    0 -0.14499336251E+03  0.66030529950E+03 -0.24808900434E+03  0.72447231447E+03  0.79283142162E+02 0.  0.
        254    2    1    2    0    0  0.14499336251E+03 -0.66030529950E+03 -0.83099389160E+03  0.13981267990E+04  0.89843282136E+03 0.  0.
         23    2    4    4    0    0  0.36025960755E+02 -0.68919866386E+03 -0.16534972772E+03  0.71545986608E+03  0.90827415523E+02 0.  0.
         23    2    4    4    0    0  0.10896740175E+03  0.28893364352E+02 -0.66564416388E+03  0.68266693293E+03  0.10120902751E+03 0.  0.
          2    1    3    3  502    0 -0.61869064500E+02  0.19131083871E+03 -0.10671273225E+03  0.22762957931E+03  0.00000000000E+00 0. -1.
         -1    1    3    3    0  502 -0.83124298010E+02  0.46899446079E+03 -0.14137627209E+03  0.49684273516E+03  0.00000000000E+00 0.  1.
         11    1    5    5    0    0  0.43285298211E+02 -0.47433427140E+03 -0.74632897225E+02  0.48211688149E+03  0.00000000000E+00 0.  1.
        -11    1    5    5    0    0 -0.72593374558E+01 -0.21486439245E+03 -0.90716830496E+02  0.23334298460E+03  0.00000000000E+00 0. -1.
          1    1    6    6  503    0 -0.52519230827E+01  0.49551180248E+01 -0.36504420260E+00  0.72297405193E+01  0.00000000000E+00 0. -1.
         -1    1    6    6    0  503  0.11421932484E+03  0.23938246327E+02 -0.66527911968E+03  0.67543719241E+03  0.00000000000E+00 0.  1.
<mgrwt>
<rscale>  0 0.18278422E+04</rscale>
<asrwt>0</asrwt>
<pdfrwt beam="1">  1        2 0.24628323E+00 0.18278422E+04</pdfrwt>
<pdfrwt beam="2">  1       -1 0.80270479E-01 0.18278422E+04</pdfrwt>
<totfact> 0.18513541E+01</totfact>
</mgrwt>
</event>
<event>
12    6  0.1627636E-007  0.1220180E+04  0.7818608E-02  0.9095374E-01
          2   -1    0    0  501    0  0.00000000000E+00  0.00000000000E+00  0.62740120037E+03  0.62740120037E+03  0.00000000000E+00 0. -1.
         -1   -1    0    0    0  501 -0.00000000000E+00 -0.00000000000E+00 -0.59325677024E+03  0.59325677024E+03  0.00000000000E+00 0.  1.
         24    2    1    2    0    0 -0.22127598156E+03  0.10880959830E+03  0.12473728253E+03  0.28728212739E+03  0.78543251560E+02 0.  0.
        254    2    1    2    0    0  0.22127598156E+03 -0.10880959830E+03 -0.90592852396E+02  0.93337584323E+03  0.89564547178E+03 0.  0.
         23    2    4    4    0    0  0.32717179737E+03  0.32503525147E+03 -0.11827345772E+02  0.47054927024E+03  0.92668386812E+02 0.  0.
         23    2    4    4    0    0 -0.10589581581E+03 -0.43384484978E+03 -0.78765506624E+02  0.46282657299E+03  0.92569725888E+02 0.  0.
          2    1    3    3  502    0 -0.10462838904E+03  0.60237656085E+02  0.10377092052E+03  0.15919823789E+03  0.00000000000E+00 0. -1.
         -1    1    3    3    0  502 -0.11664759252E+03  0.48571942216E+02  0.20966362009E+02  0.12808388949E+03  0.00000000000E+00 0.  1.
         11    1    5    5    0    0 -0.48888534033E+01  0.74629418307E+00 -0.39686042780E+01  0.63409512316E+01  0.00000000000E+00 0. -1.
        -11    1    5    5    0    0  0.33206065078E+03  0.32428895729E+03 -0.78587414935E+01  0.46420831900E+03  0.00000000000E+00 0.  1.
          1    1    6    6  503    0  0.10450229464E+02 -0.38281175307E+02 -0.25286347725E+02  0.47053746503E+02  0.00000000000E+00 0. -1.
         -1    1    6    6    0  503 -0.11634604528E+03 -0.39556367447E+03 -0.53479158900E+02  0.41577282649E+03  0.00000000000E+00 0.  1.
<mgrwt>
<rscale>  0 0.12201803E+04</rscale>
<asrwt>0</asrwt>
<pdfrwt beam="1">  1        2 0.96523262E-01 0.12201803E+04</pdfrwt>
<pdfrwt beam="2">  1       -1 0.91270272E-01 0.12201803E+04</pdfrwt>
<totfact> 0.61965542E+01</totfact>
</mgrwt>
</event>
<event>
12    6  0.1627636E-007  0.3619498E+04  0.7818608E-02  0.8086040E-01
          2   -1    0    0  501    0  0.00000000000E+00  0.00000000000E+00  0.14324044338E+04  0.14324044338E+04  0.00000000000E+00 0. -1.
         -1   -1    0    0    0  501 -0.00000000000E+00 -0.00000000000E+00 -0.22864988832E+04  0.22864988832E+04  0.00000000000E+00 0.  1.
         24    2    1    2    0    0 -0.58960411894E+03 -0.15142080256E+04 -0.90362412159E+03  0.18610625139E+04  0.80982501006E+02 0.  0.
        254    2    1    2    0    0  0.58960411894E+03  0.15142080256E+04  0.49529672272E+02  0.18578408032E+04  0.89925541395E+03 0.  0.
         23    2    4    4    0    0  0.45662875091E+03  0.16758690813E+03  0.86825468440E+02  0.50100185550E+03  0.82879486637E+02 0.  0.
         23    2    4    4    0    0  0.13297536803E+03  0.13466211175E+04 -0.37295796169E+02  0.13568389477E+04  0.92466593528E+02 0.  0.
          4    1    3    3  502    0 -0.13420130825E+03 -0.26002360116E+03 -0.16800932126E+03  0.33741576183E+03  0.00000000000E+00 0. -1.
         -3    1    3    3    0  502 -0.45540281069E+03 -0.12541844244E+04 -0.73561480033E+03  0.15236467520E+04  0.00000000000E+00 0.  1.
         11    1    5    5    0    0  0.38843848109E+03  0.13965091971E+03  0.10326351111E+03  0.42549992443E+03  0.00000000000E+00 0. -1.
        -11    1    5    5    0    0  0.68190269823E+02  0.27935988426E+02 -0.16438042667E+02  0.75501931065E+02  0.00000000000E+00 0.  1.
          2    1    6    6  503    0  0.13648983927E+03  0.11631645425E+04 -0.55419842670E+02  0.11724557936E+04  0.00000000000E+00 0. -1.
         -2    1    6    6    0  503 -0.35144712407E+01  0.18345657501E+03  0.18124046502E+02  0.18438315401E+03  0.00000000000E+00 0.  1.
<mgrwt>
<rscale>  0 0.36194978E+04</rscale>
<asrwt>0</asrwt>
<pdfrwt beam="1">  1        2 0.22036992E+00 0.36194978E+04</pdfrwt>
<pdfrwt beam="2">  1       -1 0.35176905E+00 0.36194978E+04</pdfrwt>
<totfact> 0.19423707E-01</totfact>
</mgrwt>
</event>
<event>
12    6  0.1627636E-007  0.1398369E+04  0.7818608E-02  0.8955000E-01
         -1   -1    0    0    0  501 -0.00000000000E+00  0.00000000000E+00  0.32620209796E+03  0.32620209796E+03  0.00000000000E+00 0.  1.
          2   -1    0    0  501    0  0.00000000000E+00 -0.00000000000E+00 -0.14986383947E+04  0.14986383947E+04  0.00000000000E+00 0. -1.
         24    2    1    2    0    0  0.28784345632E+03 -0.96437167117E+02 -0.68509848468E+03  0.75364026186E+03  0.80372433302E+02 0.  0.
        254    2    1    2    0    0 -0.28784345632E+03  0.96437167117E+02 -0.48733781202E+03  0.10712002308E+04  0.90433279759E+03 0.  0.
         23    2    4    4    0    0 -0.36178150621E+03 -0.29776629761E+03 -0.45489809307E+03  0.65837790802E+03  0.83537826476E+02 0.  0.
         23    2    4    4    0    0  0.73938049892E+02  0.39420346473E+03 -0.32439718949E+02  0.41282232274E+03  0.92231924850E+02 0.  0.
          2    1    3    3  502    0  0.23753230089E+03 -0.55523768532E+02 -0.59098140464E+03  0.63934615309E+03  0.00000000000E+00 0. -1.
         -1    1    3    3    0  502  0.50311155427E+02 -0.40913398585E+02 -0.94117080046E+02  0.11429410877E+03  0.00000000000E+00 0.  1.
         11    1    5    5    0    0 -0.25303172021E+03 -0.22754284792E+03 -0.37438854899E+03  0.50593239142E+03  0.00000000000E+00 0. -1.
        -11    1    5    5    0    0 -0.10874978601E+03 -0.70223449687E+02 -0.80509544085E+02  0.15244551660E+03  0.00000000000E+00 0.  1.
          3    1    6    6  503    0  0.11198143398E+02  0.22324136480E+03  0.16858445378E+02  0.22415689272E+03  0.00000000000E+00 0. -1.
         -3    1    6    6    0  503  0.62739906495E+02  0.17096209993E+03 -0.49298164327E+02  0.18866543002E+03  0.00000000000E+00 0.  1.
<mgrwt>
<rscale>  0 0.13983690E+04</rscale>
<asrwt>0</asrwt>
<pdfrwt beam="1">  1        2 0.23055976E+00 0.13983690E+04</pdfrwt>
<pdfrwt beam="2">  1       -1 0.50184938E-01 0.13983690E+04</pdfrwt>
<totfact> 0.56211039E+01</totfact>
</mgrwt>
</event>
<event>
12    6  0.1627636E-007  0.2270824E+04  0.7818608E-02  0.8489515E-01
          2   -1    0    0  501    0  0.00000000000E+00  0.00000000000E+00  0.17080231212E+04  0.17080231212E+04  0.00000000000E+00 0. -1.
         -1   -1    0    0    0  501 -0.00000000000E+00 -0.00000000000E+00 -0.75476724461E+03  0.75476724461E+03  0.00000000000E+00 0.  1.
         24    2    1    2    0    0 -0.34755818839E+03 -0.30299162445E+03  0.12932163068E+04  0.13754951172E+04  0.83533122090E+02 0.  0.
        254    2    1    2    0    0  0.34755818839E+03  0.30299162445E+03 -0.33996043017E+03  0.10872952487E+04  0.92414135545E+03 0.  0.
         23    2    4    4    0    0 -0.21584114216E+03  0.18598763085E+03 -0.40125095724E+03  0.50129554405E+03  0.95478240035E+02 0.  0.
         23    2    4    4    0    0  0.56339933055E+03  0.11700399360E+03  0.61290527074E+02  0.58599970460E+03  0.92360082838E+02 0.  0.
          4    1    3    3  502    0 -0.59933091830E+02 -0.74441064376E+02  0.36279449216E+03  0.37517101580E+03  0.00000000000E+00 0. -1.
         -3    1    3    3    0  502 -0.28762509656E+03 -0.22855056008E+03  0.93042181462E+03  0.10003241014E+04  0.00000000000E+00 0.  1.
         11    1    5    5    0    0 -0.15615769337E+03  0.13465916305E+03 -0.20920935974E+03  0.29374627077E+03  0.00000000000E+00 0. -1.
        -11    1    5    5    0    0 -0.59683448792E+02  0.51328467803E+02 -0.19204159750E+03  0.20754927328E+03  0.00000000000E+00 0.  1.
          4    1    6    6  503    0  0.49114724845E+03  0.77067604218E+02  0.31210405331E+02  0.49813564887E+03  0.00000000000E+00 0. -1.
         -4    1    6    6    0  503  0.72252082101E+02  0.39936389381E+02  0.30080121743E+02  0.87864055726E+02  0.00000000000E+00 0.  1.
<mgrwt>
<rscale>  0 0.22708236E+04</rscale>
<asrwt>0</asrwt>
<pdfrwt beam="1">  1        2 0.26277279E+00 0.22708236E+04</pdfrwt>
<pdfrwt beam="2">  1       -1 0.11611804E+00 0.22708236E+04</pdfrwt>
<totfact> 0.67357475E+00</totfact>
</mgrwt>
</event>
<event>
12    6  0.1627636E-007  0.2853584E+04  0.7818608E-02  0.8286823E-01
         -1   -1    0    0    0  501 -0.00000000000E+00  0.00000000000E+00  0.58423101258E+03  0.58423101258E+03  0.00000000000E+00 0.  1.
          2   -1    0    0  501    0  0.00000000000E+00 -0.00000000000E+00 -0.34844703806E+04  0.34844703806E+04  0.00000000000E+00 0. -1.
         24    2    1    2    0    0  0.27092526048E+02  0.38813890866E+03  0.43775288475E+03  0.59101029010E+03  0.79244921051E+02 0.  0.
        254    2    1    2    0    0 -0.27092526048E+02 -0.38813890866E+03 -0.33379922528E+04  0.34776911031E+04  0.89485044085E+03 0.  0.
         23    2    4    4    0    0  0.22663461208E+03 -0.50725067408E+03 -0.12741740981E+04  0.13928995110E+04  0.89347198558E+02 0.  0.
         23    2    4    4    0    0 -0.25372713813E+03  0.11911176542E+03 -0.20638181547E+04  0.20847915921E+04  0.91899582775E+02 0.  0.
          4    1    3    3  502    0 -0.41726735950E+01  0.26234244341E+01 -0.20391248223E+01  0.53340032558E+01  0.00000000000E+00 0. -1.
         -3    1    3    3    0  502  0.31265199643E+02  0.38551548423E+03  0.43979200957E+03  0.58567628684E+03  0.00000000000E+00 0.  1.
         11    1    5    5    0    0  0.50181585765E+02 -0.78386726904E+02 -0.29748554267E+03  0.31170549980E+03  0.00000000000E+00 0. -1.
        -11    1    5    5    0    0  0.17645302632E+03 -0.42886394717E+03 -0.97668855538E+03  0.10811940112E+04  0.00000000000E+00 0.  1.
          4    1    6    6  503    0 -0.34143022561E+02 -0.15299626753E+02 -0.24386287356E+03  0.24671628578E+03  0.00000000000E+00 0. -1.
         -4    1    6    6    0  503 -0.21958411557E+03  0.13441139217E+03 -0.18199552812E+04  0.18380753063E+04  0.00000000000E+00 0.  1.
<mgrwt>
<rscale>  0 0.28535842E+04</rscale>
<asrwt>0</asrwt>
<pdfrwt beam="1">  1        2 0.53607237E+00 0.28535842E+04</pdfrwt>
<pdfrwt beam="2">  1       -1 0.89881693E-01 0.28535842E+04</pdfrwt>
<totfact> 0.99381452E-01</totfact>
</mgrwt>
</event>
<event>
12    6  0.1627636E-007  0.2284692E+04  0.7818608E-02  0.8483981E-01
         -1   -1    0    0    0  501 -0.00000000000E+00  0.00000000000E+00  0.99532245965E+03  0.99532245965E+03  0.00000000000E+00 0.  1.
          2   -1    0    0  501    0  0.00000000000E+00 -0.00000000000E+00 -0.13110872609E+04  0.13110872609E+04  0.00000000000E+00 0. -1.
         24    2    1    2    0    0  0.76358347368E+03 -0.40821713254E+03 -0.57546628060E+03  0.10427386943E+04  0.80259553158E+02 0.  0.
        254    2    1    2    0    0 -0.76358347368E+03  0.40821713254E+03  0.25970147936E+03  0.12636710263E+04  0.88301679241E+03 0.  0.
         23    2    4    4    0    0 -0.40395163938E+03  0.63203237172E+03  0.32910528759E+03  0.82444659269E+03  0.93595128196E+02 0.  0.
         23    2    4    4    0    0 -0.35963183431E+03 -0.22381523918E+03 -0.69403808238E+02  0.43922443358E+03  0.93128389428E+02 0.  0.
          4    1    3    3  502    0  0.28750983914E+02 -0.22473904639E+01 -0.99197328266E+01  0.30497064437E+02  0.00000000000E+00 0. -1.
         -3    1    3    3    0  502  0.73483248977E+03 -0.40596974208E+03 -0.56554654777E+03  0.10122416298E+04  0.00000000000E+00 0.  1.
         11    1    5    5    0    0 -0.83407442629E+02  0.14058758314E+03  0.11497415382E+03  0.19985176023E+03  0.00000000000E+00 0. -1.
        -11    1    5    5    0    0 -0.32054419675E+03  0.49144478858E+03  0.21413113377E+03  0.62459483246E+03  0.00000000000E+00 0.  1.
          2    1    6    6  503    0 -0.52081266452E+02 -0.12442605806E+01  0.50980266689E+01  0.52344974692E+02  0.00000000000E+00 0. -1.
         -2    1    6    6    0  503 -0.30755056785E+03 -0.22257097860E+03 -0.74501834906E+02  0.38687945889E+03  0.00000000000E+00 0.  1.
<mgrwt>
<rscale>  0 0.22846922E+04</rscale>
<asrwt>0</asrwt>
<pdfrwt beam="1">  1        2 0.20170573E+00 0.22846922E+04</pdfrwt>
<pdfrwt beam="2">  1       -1 0.15312653E+00 0.22846922E+04</pdfrwt>
<totfact> 0.55589853E+00</totfact>
</mgrwt>
</event>
<event>
12    6  0.1627636E-007  0.3069481E+04  0.7818608E-02  0.8224164E-01
          2   -1    0    0  501    0  0.00000000000E+00  0.00000000000E+00  0.31608373494E+04  0.31608373494E+04  0.00000000000E+00 0. -1.
         -1   -1    0    0    0  501 -0.00000000000E+00 -0.00000000000E+00 -0.74519132120E+03  0.74519132120E+03  0.00000000000E+00 0.  1.
         24    2    1    2    0    0 -0.11405725355E+04  0.81294000515E+03  0.10793787183E+04  0.17702451508E+04  0.83260528058E+02 0.  0.
        254    2    1    2    0    0  0.11405725355E+04 -0.81294000515E+03  0.13362673099E+04  0.21357835198E+04  0.90232131707E+03 0.  0.
         23    2    4    4    0    0  0.98378281619E+03 -0.92639342803E+03  0.13628205156E+04  0.19215624211E+04  0.95336076032E+02 0.  0.
         23    2    4    4    0    0  0.15678971933E+03  0.11345342289E+03 -0.26553205771E+02  0.21422109870E+03  0.87925600008E+02 0.  0.
          4    1    3    3  502    0 -0.49713520245E+03  0.35029777469E+03  0.41700598196E+03  0.73739130010E+03  0.00000000000E+00 0. -1.
         -3    1    3    3    0  502 -0.64343733307E+03  0.46264223046E+03  0.66237273635E+03  0.10328538507E+04  0.00000000000E+00 0.  1.
         11    1    5    5    0    0  0.51426794915E+03 -0.48571383235E+03  0.64572415081E+03  0.95778344598E+03  0.00000000000E+00 0. -1.
        -11    1    5    5    0    0  0.46951486704E+03 -0.44067959568E+03  0.71709636482E+03  0.96377897511E+03  0.00000000000E+00 0.  1.
          2    1    6    6  503    0  0.79759510689E+02  0.87371565080E+02 -0.51686220241E+02  0.12910009796E+03  0.00000000000E+00 0. -1.
         -2    1    6    6    0  503  0.77030208644E+02  0.26081857806E+02  0.25133014470E+02  0.85121000739E+02  0.00000000000E+00 0.  1.
<mgrwt>
<rscale>  0 0.30694811E+04</rscale>
<asrwt>0</asrwt>
<pdfrwt beam="1">  1        2 0.48628266E+00 0.30694811E+04</pdfrwt>
<pdfrwt beam="2">  1       -1 0.11464482E+00 0.30694811E+04</pdfrwt>
<totfact> 0.91870405E-01</totfact>
</mgrwt>
</event>
<event>
12    6  0.1627636E-007  0.1833286E+04  0.7818608E-02  0.8688796E-01
          2   -1    0    0  501    0  0.00000000000E+00  0.00000000000E+00  0.20354219963E+04  0.20354219963E+04  0.00000000000E+00 0. -1.
         -1   -1    0    0    0  501 -0.00000000000E+00 -0.00000000000E+00 -0.41280607212E+03  0.41280607212E+03  0.00000000000E+00 0.  1.
         24    2    1    2    0    0  0.69207550887E+03  0.85288513871E+02  0.74966411233E+03  0.10265264013E+04  0.74280083028E+02 0.  0.
        254    2    1    2    0    0 -0.69207550887E+03 -0.85288513871E+02  0.87295181186E+03  0.14217016671E+04  0.87917468336E+03 0.  0.
         23    2    4    4    0    0 -0.66016498297E+03 -0.17348207847E+03  0.10159569191E+04  0.12271279009E+04  0.88094196162E+02 0.  0.
         23    2    4    4    0    0 -0.31910525901E+02  0.88193564599E+02 -0.14300510729E+03  0.19457376617E+03  0.92801418480E+02 0.  0.
          4    1    3    3  502    0  0.24282571011E+02 -0.12683415483E+01  0.10102062465E+02  0.26330659149E+02  0.00000000000E+00 0. -1.
         -3    1    3    3    0  502  0.66779293786E+03  0.86556855420E+02  0.73956204987E+03  0.10001957422E+04  0.00000000000E+00 0.  1.
         11    1    5    5    0    0 -0.57197233948E+03 -0.16195199946E+03  0.92775249842E+03  0.11018645586E+04  0.00000000000E+00 0. -1.
        -11    1    5    5    0    0 -0.88192643482E+02 -0.11530079010E+02  0.88204420733E+02  0.12526334230E+03  0.00000000000E+00 0.  1.
          1    1    6    6  503    0  0.95480164419E+01  0.39071882121E+02 -0.27794270102E+01  0.40317512385E+02  0.00000000000E+00 0. -1.
         -1    1    6    6    0  503 -0.41458542343E+02  0.49121682478E+02 -0.14022568028E+03  0.15425625379E+03  0.00000000000E+00 0.  1.
<mgrwt>
<rscale>  0 0.18332862E+04</rscale>
<asrwt>0</asrwt>
<pdfrwt beam="1">  1        2 0.31314184E+00 0.18332862E+04</pdfrwt>
<pdfrwt beam="2">  1       -1 0.63508628E-01 0.18332862E+04</pdfrwt>
<totfact> 0.17213858E+01</totfact>
</mgrwt>
</event>
<event>
12    6  0.1627636E-007  0.1729952E+04  0.7818608E-02  0.8744464E-01
         -1   -1    0    0    0  501 -0.00000000000E+00  0.00000000000E+00  0.58080475653E+03  0.58080475653E+03  0.00000000000E+00 0.  1.
          2   -1    0    0  501    0  0.00000000000E+00 -0.00000000000E+00 -0.12881841957E+04  0.12881841957E+04  0.00000000000E+00 0. -1.
         24    2    1    2    0    0 -0.29485947558E+03  0.48361821594E+03  0.91768121535E+01  0.57226352863E+03  0.81071839736E+02 0.  0.
        254    2    1    2    0    0  0.29485947558E+03 -0.48361821594E+03 -0.71655625129E+03  0.12967254236E+04  0.92044297691E+03 0.  0.
         23    2    4    4    0    0  0.31099958369E+03  0.81639933271E+02  0.51531155485E+02  0.33872275366E+03  0.93229952804E+02 0.  0.
         23    2    4    4    0    0 -0.16140108113E+02 -0.56525814921E+03 -0.76808740678E+03  0.95800266991E+03  0.89630200113E+02 0.  0.
          4    1    3    3  502    0 -0.12385079134E+03  0.17985892173E+03 -0.34015347820E+02  0.22100971501E+03  0.00000000000E+00 0. -1.
         -3    1    3    3    0  502 -0.17100868424E+03  0.30375929421E+03  0.43192159973E+02  0.35125381363E+03  0.00000000000E+00 0.  1.
         11    1    5    5    0    0  0.28830544608E+03  0.46204757401E+02  0.37590401225E+02  0.29439420529E+03  0.00000000000E+00 0. -1.
        -11    1    5    5    0    0  0.22694137611E+02  0.35435175870E+02  0.13940754260E+02  0.44328548365E+02  0.00000000000E+00 0.  1.
          4    1    6    6  503    0  0.35296297206E+01 -0.53670026534E+03 -0.70546015479E+03  0.88641619068E+03  0.00000000000E+00 0. -1.
         -4    1    6    6    0  503 -0.19669737834E+02 -0.28557883871E+02 -0.62627251990E+02  0.71586479236E+02  0.00000000000E+00 0.  1.
<mgrwt>
<rscale>  0 0.17299520E+04</rscale>
<asrwt>0</asrwt>
<pdfrwt beam="1">  1        2 0.19818218E+00 0.17299520E+04</pdfrwt>
<pdfrwt beam="2">  1       -1 0.89354579E-01 0.17299520E+04</pdfrwt>
<totfact> 0.22311259E+01</totfact>
</mgrwt>
</event>
<event>
12    6  0.1627636E-007  0.1334475E+04  0.7818608E-02  0.9002664E-01
          2   -1    0    0  501    0  0.00000000000E+00  0.00000000000E+00  0.11128858079E+04  0.11128858079E+04  0.00000000000E+00 0. -1.
         -3   -1    0    0    0  501 -0.00000000000E+00 -0.00000000000E+00 -0.40004642652E+03  0.40004642652E+03  0.00000000000E+00 0.  1.
         24    2    1    2    0    0 -0.81853995853E+02  0.19041694112E+03 -0.13288390673E+03  0.25914210293E+03  0.80856717339E+02 0.  0.
        254    2    1    2    0    0  0.81853995853E+02 -0.19041694112E+03  0.84572328809E+03  0.12537901315E+04  0.90209928814E+03 0.  0.
         23    2    4    4    0    0 -0.20902186730E+03 -0.23345232840E+03  0.88452522264E+03  0.94284035897E+03  0.91503783294E+02 0.  0.
         23    2    4    4    0    0  0.29087586315E+03  0.43035387272E+02 -0.38801934558E+02  0.31094977250E+03  0.93398921690E+02 0.  0.
          4    1    3    3  502    0 -0.89933930600E+01  0.69551239513E+02 -0.78047085094E+01  0.70563230591E+02  0.00000000000E+00 0. -1.
         -3    1    3    3    0  502 -0.72860602793E+02  0.12086570161E+03 -0.12507919822E+03  0.18857887234E+03  0.00000000000E+00 0.  1.
         11    1    5    5    0    0 -0.10171494177E+02 -0.61405667794E+02  0.13888404404E+03  0.15219360374E+03  0.00000000000E+00 0. -1.
        -11    1    5    5    0    0 -0.19885037312E+03 -0.17204666060E+03  0.74564117861E+03  0.79064675523E+03  0.00000000000E+00 0.  1.
          1    1    6    6  503    0  0.66220850580E+02  0.39574651497E+01  0.29943967497E+02  0.72783952705E+02  0.00000000000E+00 0. -1.
         -1    1    6    6    0  503  0.22465501257E+03  0.39077922122E+02 -0.68745902055E+02  0.23816581980E+03  0.00000000000E+00 0.  1.
<mgrwt>
<rscale>  0 0.13344752E+04</rscale>
<asrwt>0</asrwt>
<pdfrwt beam="1">  1        2 0.17121320E+00 0.13344752E+04</pdfrwt>
<pdfrwt beam="2">  1       -3 0.61545605E-01 0.13344752E+04</pdfrwt>
<totfact> 0.34287656E+01</totfact>
</mgrwt>
</event>
<event>
12    6  0.1627636E-007  0.1665652E+04  0.7818608E-02  0.8781201E-01
         -1   -1    0    0    0  501 -0.00000000000E+00  0.00000000000E+00  0.21433943468E+03  0.21433943468E+03  0.00000000000E+00 0.  1.
          2   -1    0    0  501    0  0.00000000000E+00 -0.00000000000E+00 -0.32359840290E+04  0.32359840290E+04  0.00000000000E+00 0. -1.
         24    2    1    2    0    0 -0.41328853020E+03 -0.30270600135E+03 -0.16797518077E+04  0.17578121522E+04  0.76805562930E+02 0.  0.
        254    2    1    2    0    0  0.41328853020E+03  0.30270600135E+03 -0.13418927867E+04  0.16925113116E+04  0.89525412947E+03 0.  0.
         23    2    4    4    0    0  0.59163969819E+03 -0.73352112874E+02 -0.83571053355E+03  0.10307839795E+04  0.93195770114E+02 0.  0.
         23    2    4    4    0    0 -0.17835116799E+03  0.37605811422E+03 -0.50618225315E+03  0.66172733207E+03  0.91835419115E+02 0.  0.
          4    1    3    3  502    0 -0.10909892084E+03 -0.67936309396E+02 -0.53789828807E+03  0.55303931594E+03  0.00000000000E+00 0. -1.
         -3    1    3    3    0  502 -0.30418960936E+03 -0.23476969195E+03 -0.11418535196E+04  0.12047728362E+04  0.00000000000E+00 0.  1.
         11    1    5    5    0    0  0.41377282111E+03 -0.90582494074E+02 -0.61602963104E+03  0.74759992111E+03  0.00000000000E+00 0.  1.
        -11    1    5    5    0    0  0.17786687709E+03  0.17230381199E+02 -0.21968090251E+03  0.28318405839E+03  0.00000000000E+00 0. -1.
          3    1    6    6  503    0 -0.16009825297E+03  0.23783309862E+03 -0.34709435331E+03  0.45018943069E+03  0.00000000000E+00 0. -1.
         -3    1    6    6    0  503 -0.18252915026E+02  0.13822501560E+03 -0.15908789984E+03  0.21153790138E+03  0.00000000000E+00 0.  1.
<mgrwt>
<rscale>  0 0.16656518E+04</rscale>
<asrwt>0</asrwt>
<pdfrwt beam="1">  1        2 0.49784367E+00 0.16656518E+04</pdfrwt>
<pdfrwt beam="2">  1       -1 0.32975299E-01 0.16656518E+04</pdfrwt>
<totfact> 0.11603770E+01</totfact>
</mgrwt>
</event>
<event>
12    6  0.1627636E-007  0.1399531E+04  0.7818608E-02  0.8954158E-01
          2   -1    0    0  501    0  0.00000000000E+00  0.00000000000E+00  0.26155235860E+04  0.26155235860E+04  0.00000000000E+00 0. -1.
         -1   -1    0    0    0  501 -0.00000000000E+00 -0.00000000000E+00 -0.18721750757E+03  0.18721750757E+03  0.00000000000E+00 0.  1.
         24    2    1    2    0    0 -0.30080774317E+03 -0.27012364117E+03  0.90593417107E+03  0.99510906747E+03  0.77931084782E+02 0.  0.
        254    2    1    2    0    0  0.30080774317E+03  0.27012364117E+03  0.15223719074E+04  0.18076320261E+04  0.88682875324E+03 0.  0.
         23    2    4    4    0    0  0.41807553651E+03 -0.44451557260E+02  0.27034099081E+03  0.50816514279E+03  0.91566729024E+02 0.  0.
         23    2    4    4    0    0 -0.11726779333E+03  0.31457519843E+03  0.12520309165E+04  0.12994668833E+04  0.91233075080E+02 0.  0.
          4    1    3    3  502    0 -0.22353100977E+03 -0.22928096288E+03  0.76441066492E+03  0.82876989382E+03  0.00000000000E+00 0. -1.
         -3    1    3    3    0  502 -0.77276733407E+02 -0.40842678293E+02  0.14152350615E+03  0.16633917365E+03  0.00000000000E+00 0.  1.
         11    1    5    5    0    0  0.38330638508E+03 -0.13693479885E+02  0.23495468255E+03  0.44979439646E+03  0.00000000000E+00 0.  1.
        -11    1    5    5    0    0  0.34769151430E+02 -0.30758077375E+02  0.35386308256E+02  0.58370746329E+02  0.00000000000E+00 0. -1.
          4    1    6    6  503    0  0.12215730217E+02  0.69963662704E+02  0.26890192363E+03  0.27812296327E+03  0.00000000000E+00 0. -1.
         -4    1    6    6    0  503 -0.12948352355E+03  0.24461153573E+03  0.98312899291E+03  0.10213439200E+04  0.00000000000E+00 0.  1.
<mgrwt>
<rscale>  0 0.13995311E+04</rscale>
<asrwt>0</asrwt>
<pdfrwt beam="1">  1        2 0.40238822E+00 0.13995311E+04</pdfrwt>
<pdfrwt beam="2">  1       -1 0.28802695E-01 0.13995311E+04</pdfrwt>
<totfact> 0.36373096E+01</totfact>
</mgrwt>
</event>
<event>
12    6  0.1627636E-007  0.2205408E+04  0.7818608E-02  0.8516180E-01
         -1   -1    0    0    0  501 -0.00000000000E+00  0.00000000000E+00  0.13070697555E+04  0.13070697555E+04  0.00000000000E+00 0.  1.
          2   -1    0    0  501    0  0.00000000000E+00 -0.00000000000E+00 -0.93029208837E+03  0.93029208837E+03  0.00000000000E+00 0. -1.
         24    2    1    2    0    0 -0.54393139950E+03  0.26452022442E+03 -0.54783946956E+03  0.82001922448E+03  0.80443319367E+02 0.  0.
        254    2    1    2    0    0  0.54393139950E+03 -0.26452022442E+03  0.92461713664E+03  0.14173426193E+04  0.88775612346E+03 0.  0.
         23    2    4    4    0    0  0.54681690221E+03  0.19878032858E+02  0.13166657234E+03  0.57000480627E+03  0.90363334221E+02 0.  0.
         23    2    4    4    0    0 -0.28855027090E+01 -0.28439825728E+03  0.79295056430E+03  0.84733781307E+03  0.91214456970E+02 0.  0.
          2    1    3    3  502    0 -0.24591936685E+03  0.14461020854E+03 -0.21318529597E+03  0.35614100834E+03  0.00000000000E+00 0. -1.
         -1    1    3    3    0  502 -0.29801203265E+03  0.11991001588E+03 -0.33465417358E+03  0.46387821614E+03  0.00000000000E+00 0.  1.
         11    1    5    5    0    0  0.14336126348E+03  0.35649399452E+02  0.62296189934E+02  0.16032512850E+03  0.00000000000E+00 0. -1.
        -11    1    5    5    0    0  0.40345563873E+03 -0.15771366593E+02  0.69370382408E+02  0.40967967778E+03  0.00000000000E+00 0.  1.
          3    1    6    6  503    0  0.22182075549E+02 -0.32677522428E+02  0.58849965298E+02  0.70874419668E+02  0.00000000000E+00 0. -1.
         -3    1    6    6    0  503 -0.25067578258E+02 -0.25172073485E+03  0.73410059900E+03  0.77646339340E+03  0.00000000000E+00 0.  1.
<mgrwt>
<rscale>  0 0.22054085E+04</rscale>
<asrwt>0</asrwt>
<pdfrwt beam="1">  1        2 0.14312186E+00 0.22054085E+04</pdfrwt>
<pdfrwt beam="2">  1       -1 0.20108766E+00 0.22054085E+04</pdfrwt>
<totfact> 0.43128963E+00</totfact>
</mgrwt>
</event>
<event>
12    6  0.1627636E-007  0.2207258E+04  0.7818608E-02  0.8515413E-01
          2   -1    0    0  501    0  0.00000000000E+00  0.00000000000E+00  0.20716974923E+04  0.20716974923E+04  0.00000000000E+00 0. -1.
         -1   -1    0    0    0  501 -0.00000000000E+00 -0.00000000000E+00 -0.58792207470E+03  0.58792207470E+03  0.00000000000E+00 0.  1.
         24    2    1    2    0    0 -0.29138124232E+03  0.62798893660E+03 -0.10724540647E+03  0.70506385273E+03  0.79626166216E+02 0.  0.
        254    2    1    2    0    0  0.29138124232E+03 -0.62798893660E+03  0.15910208241E+04  0.19545557143E+04  0.89981533918E+03 0.  0.
         23    2    4    4    0    0  0.26045497869E+02 -0.71379794182E+03  0.65447803508E+03  0.97315830637E+03  0.92248149872E+02 0.  0.
         23    2    4    4    0    0  0.26533574446E+03  0.85809005218E+02  0.93654278900E+03  0.98139740789E+03  0.90896831182E+02 0.  0.
          2    1    3    3  502    0 -0.21105307818E+03  0.44474287233E+03 -0.39648150934E+02  0.49387407319E+03  0.00000000000E+00 0. -1.
         -1    1    3    3    0  502 -0.80328164145E+02  0.18324606427E+03 -0.67597255540E+02  0.21118977954E+03  0.00000000000E+00 0.  1.
         11    1    5    5    0    0  0.63777010663E+01 -0.26774341430E+03  0.18652086626E+03  0.32636979720E+03  0.00000000000E+00 0. -1.
        -11    1    5    5    0    0  0.19667796803E+02 -0.44605452752E+03  0.46795716882E+03  0.64678850917E+03  0.00000000000E+00 0.  1.
          2    1    6    6  503    0  0.78871951523E+02  0.24616575563E+02  0.43596124772E+03  0.44372172591E+03  0.00000000000E+00 0. -1.
         -2    1    6    6    0  503  0.18646379293E+03  0.61192429655E+02  0.50058154128E+03  0.53767568198E+03  0.00000000000E+00 0.  1.
<mgrwt>
<rscale>  0 0.22072577E+04</rscale>
<asrwt>0</asrwt>
<pdfrwt beam="1">  1        2 0.31872269E+00 0.22072577E+04</pdfrwt>
<pdfrwt beam="2">  1       -1 0.90449551E-01 0.22072577E+04</pdfrwt>
<totfact> 0.75686760E+00</totfact>
</mgrwt>
</event>
<event>
12    6  0.1627636E-007  0.1872954E+04  0.7818608E-02  0.8668437E-01
         -1   -1    0    0    0  501 -0.00000000000E+00  0.00000000000E+00  0.90632999269E+03  0.90632999269E+03  0.00000000000E+00 0.  1.
          2   -1    0    0  501    0  0.00000000000E+00 -0.00000000000E+00 -0.96762647962E+03  0.96762647962E+03  0.00000000000E+00 0. -1.
         24    2    1    2    0    0  0.21861174969E+03 -0.12650710686E+03  0.62465050395E+03  0.67877181666E+03  0.82144883060E+02 0.  0.
        254    2    1    2    0    0 -0.21861174969E+03  0.12650710686E+03 -0.68594699088E+03  0.11951846556E+04  0.94559396234E+03 0.  0.
         23    2    4    4    0    0 -0.26507058669E+03 -0.93636468255E+02  0.14504769356E+03  0.32946078776E+03  0.92061789857E+02 0.  0.
         23    2    4    4    0    0  0.46458836994E+02  0.22014357512E+03 -0.83099468444E+03  0.86572386788E+03  0.91126465156E+02 0.  0.
          4    1    3    3  502    0  0.52622804648E+00 -0.14594008066E+02  0.82491405456E+02  0.83774064969E+02  0.00000000000E+00 0. -1.
         -3    1    3    3    0  502  0.21808552165E+03 -0.11191309880E+03  0.54215909850E+03  0.59499775169E+03  0.00000000000E+00 0.  1.
         11    1    5    5    0    0 -0.26755448122E+03 -0.76307659842E+02  0.13456951398E+03  0.30905859228E+03  0.00000000000E+00 0. -1.
        -11    1    5    5    0    0  0.24838945313E+01 -0.17328808413E+02  0.10478179585E+02  0.20402195482E+02  0.00000000000E+00 0.  1.
          1    1    6    6  503    0  0.37092071982E+02  0.12000066323E+03 -0.61172229490E+03  0.62448390456E+03  0.00000000000E+00 0. -1.
         -1    1    6    6    0  503  0.93667650115E+01  0.10014291188E+03 -0.21927238954E+03  0.24123996332E+03  0.00000000000E+00 0.  1.
<mgrwt>
<rscale>  0 0.18729537E+04</rscale>
<asrwt>0</asrwt>
<pdfrwt beam="1">  1        2 0.14886561E+00 0.18729537E+04</pdfrwt>
<pdfrwt beam="2">  1       -1 0.13943538E+00 0.18729537E+04</pdfrwt>
<totfact> 0.11993172E+01</totfact>
</mgrwt>
</event>
<event>
12    6  0.1627636E-007  0.1308410E+04  0.7818608E-02  0.9022922E-01
          2   -1    0    0  501    0  0.00000000000E+00  0.00000000000E+00  0.21905856342E+04  0.21905856342E+04  0.00000000000E+00 0. -1.
         -1   -1    0    0    0  501 -0.00000000000E+00 -0.00000000000E+00 -0.19537445186E+03  0.19537445186E+03  0.00000000000E+00 0.  1.
         24    2    1    2    0    0 -0.14435774924E+03  0.29836132511E+03  0.43593029543E+03  0.55352527922E+03  0.80600075565E+02 0.  0.
        254    2    1    2    0    0  0.14435774924E+03 -0.29836132511E+03  0.15592808869E+04  0.18324348068E+04  0.90366022205E+03 0.  0.
         23    2    4    4    0    0  0.18743564235E+03 -0.27603751189E+03  0.16533259480E+04  0.16890132982E+04  0.89165034762E+02 0.  0.
         23    2    4    4    0    0 -0.43077893106E+02 -0.22323813214E+02 -0.94045061064E+02  0.14342150858E+03  0.96804948751E+02 0.  0.
          4    1    3    3  502    0 -0.11317580836E+03  0.28050186972E+03  0.40862389414E+03  0.50839310517E+03  0.00000000000E+00 0. -1.
         -3    1    3    3    0  502 -0.31181940884E+02  0.17859455384E+02  0.27306401282E+02  0.45132174054E+02  0.00000000000E+00 0.  1.
         11    1    5    5    0    0  0.12381981989E+03 -0.12628465955E+03  0.10140185589E+04  0.10293263821E+04  0.00000000000E+00 0.  1.
        -11    1    5    5    0    0  0.63615822459E+02 -0.14975285234E+03  0.63930738907E+03  0.65968691618E+03  0.00000000000E+00 0. -1.
          2    1    6    6  503    0 -0.18913324496E+01 -0.46688167907E+02 -0.81510180774E+02  0.93953561565E+02  0.00000000000E+00 0. -1.
         -2    1    6    6    0  503 -0.41186560656E+02  0.24364354692E+02 -0.12534880290E+02  0.49467947018E+02  0.00000000000E+00 0.  1.
<mgrwt>
<rscale>  0 0.13084104E+04</rscale>
<asrwt>0</asrwt>
<pdfrwt beam="1">  1        2 0.33701316E+00 0.13084104E+04</pdfrwt>
<pdfrwt beam="2">  1       -1 0.30057609E-01 0.13084104E+04</pdfrwt>
<totfact> 0.59432983E+01</totfact>
</mgrwt>
</event>
<event>
12    6  0.1627636E-007  0.2168417E+04  0.7818608E-02  0.8531690E-01
          2   -1    0    0  501    0  0.00000000000E+00  0.00000000000E+00  0.12667959568E+04  0.12667959568E+04  0.00000000000E+00 0. -1.
         -1   -1    0    0    0  501 -0.00000000000E+00 -0.00000000000E+00 -0.92793765386E+03  0.92793765386E+03  0.00000000000E+00 0.  1.
         24    2    1    2    0    0  0.26347248526E+03  0.83680765507E+03  0.30447241625E+02  0.88151419907E+03  0.80470159465E+02 0.  0.
        254    2    1    2    0    0 -0.26347248526E+03 -0.83680765507E+03  0.30841106134E+03  0.13132194116E+04  0.92723407952E+03 0.  0.
         23    2    4    4    0    0 -0.24111183302E+03 -0.10225423662E+04  0.32799736647E+03  0.11044085649E+04  0.91696232655E+02 0.  0.
         23    2    4    4    0    0 -0.22360652241E+02  0.18573471117E+03 -0.19586305133E+02  0.20881084669E+03  0.90669535379E+02 0.  0.
          2    1    3    3  502    0  0.26053595605E+03  0.82755405374E+03  0.39144690580E+02  0.86847970792E+03  0.00000000000E+00 0. -1.
         -1    1    3    3    0  502  0.29365292092E+01  0.92536013317E+01 -0.86974489545E+01  0.13034491157E+02  0.00000000000E+00 0.  1.
         11    1    5    5    0    0 -0.54629426471E+02 -0.28573974360E+03  0.50307763045E+02  0.29523286798E+03  0.00000000000E+00 0. -1.
        -11    1    5    5    0    0 -0.18648240655E+03 -0.73680262264E+03  0.27768960342E+03  0.80917569695E+03  0.00000000000E+00 0.  1.
          4    1    6    6  503    0 -0.51205656989E+02  0.16255458153E+03 -0.10761228857E+02  0.17076830892E+03  0.00000000000E+00 0.  1.
         -4    1    6    6    0  503  0.28845004748E+02  0.23180129638E+02 -0.88250762761E+01  0.38042537773E+02  0.00000000000E+00 0. -1.
<mgrwt>
<rscale>  0 0.21684166E+04</rscale>
<asrwt>0</asrwt>
<pdfrwt beam="1">  1        2 0.19489169E+00 0.21684166E+04</pdfrwt>
<pdfrwt beam="2">  1       -1 0.14275964E+00 0.21684166E+04</pdfrwt>
<totfact> 0.71914362E+00</totfact>
</mgrwt>
</event>
<event>
12    6  0.1627636E-007  0.2128607E+04  0.7818608E-02  0.8548745E-01
          2   -1    0    0  501    0  0.00000000000E+00  0.00000000000E+00  0.21950413160E+04  0.21950413160E+04  0.00000000000E+00 0. -1.
         -1   -1    0    0    0  501 -0.00000000000E+00 -0.00000000000E+00 -0.51604596844E+03  0.51604596844E+03  0.00000000000E+00 0.  1.
         24    2    1    2    0    0  0.44206050997E+03  0.43240623500E+03 -0.11176523528E+03  0.63360886589E+03  0.81093036570E+02 0.  0.
        254    2    1    2    0    0 -0.44206050997E+03 -0.43240623500E+03  0.17907605828E+04  0.20774784185E+04  0.85246728259E+03 0.  0.
         23    2    4    4    0    0 -0.52854591517E+03 -0.20479564923E+03  0.50485866258E+03  0.76551799479E+03  0.99163948931E+02 0.  0.
         23    2    4    4    0    0  0.86485405201E+02 -0.22761058577E+03  0.12859019202E+04  0.13119604237E+04  0.91706602315E+02 0.  0.
          4    1    3    3  502    0  0.15931193688E+03  0.15090464734E+03 -0.79215571175E+02  0.23329726217E+03  0.00000000000E+00 0. -1.
         -3    1    3    3    0  502  0.28274857309E+03  0.28150158766E+03 -0.32549664109E+02  0.40031160372E+03  0.00000000000E+00 0.  1.
         11    1    5    5    0    0 -0.89750669147E+02 -0.77212444453E+02  0.10920766571E+03  0.16106911076E+03  0.00000000000E+00 0. -1.
        -11    1    5    5    0    0 -0.43879524603E+03 -0.12758320478E+03  0.39565099688E+03  0.60444888403E+03  0.00000000000E+00 0.  1.
          1    1    6    6  503    0  0.41072076984E+02 -0.17051884761E+02  0.19679086796E+03  0.20175313627E+03  0.00000000000E+00 0. -1.
         -1    1    6    6    0  503  0.45413328218E+02 -0.21055870101E+03  0.10891110523E+04  0.11102072875E+04  0.00000000000E+00 0.  1.
<mgrwt>
<rscale>  0 0.21286073E+04</rscale>
<asrwt>0</asrwt>
<pdfrwt beam="1">  1        2 0.33769866E+00 0.21286073E+04</pdfrwt>
<pdfrwt beam="2">  1       -1 0.79391688E-01 0.21286073E+04</pdfrwt>
<totfact> 0.86224061E+00</totfact>
</mgrwt>
</event>
<event>
12    6  0.1627636E-007  0.1487251E+04  0.7818608E-02  0.8892975E-01
         -1   -1    0    0    0  501 -0.00000000000E+00  0.00000000000E+00  0.87230046504E+03  0.87230046504E+03  0.00000000000E+00 0.  1.
          2   -1    0    0  501    0  0.00000000000E+00 -0.00000000000E+00 -0.63393187599E+03  0.63393187599E+03  0.00000000000E+00 0. -1.
         24    2    1    2    0    0  0.69978418198E+02  0.30962444502E+02 -0.38837714467E+03  0.40485002928E+03  0.84918123637E+02 0.  0.
        254    2    1    2    0    0 -0.69978418198E+02 -0.30962444502E+02  0.62674573372E+03  0.11013823117E+04  0.90242846248E+03 0.  0.
         23    2    4    4    0    0  0.29145681949E+03  0.53700736227E+02  0.64732473066E+03  0.71828263003E+03  0.95235408260E+02 0.  0.
         23    2    4    4    0    0 -0.36143523769E+03 -0.84663180729E+02 -0.20578996934E+02  0.38309968171E+03  0.92404468493E+02 0.  0.
          4    1    3    3  502    0  0.82101634317E+02  0.18476683687E+02 -0.37035869062E+03  0.37979945487E+03  0.00000000000E+00 0. -1.
         -3    1    3    3    0  502 -0.12123216118E+02  0.12485760815E+02 -0.18018454054E+02  0.25050574418E+02  0.00000000000E+00 0.  1.
         11    1    5    5    0    0  0.21216432791E+03  0.60214641837E+01  0.51301365408E+03  0.55518732815E+03  0.00000000000E+00 0. -1.
        -11    1    5    5    0    0  0.79292491586E+02  0.47679272044E+02  0.13431107657E+03  0.16309530188E+03  0.00000000000E+00 0.  1.
          1    1    6    6  503    0 -0.31440866041E+03 -0.10445040529E+03 -0.22265637351E+02  0.33205188076E+03  0.00000000000E+00 0. -1.
         -1    1    6    6    0  503 -0.47026577278E+02  0.19787224563E+02  0.16866404175E+01  0.51047800954E+02  0.00000000000E+00 0.  1.
<mgrwt>
<rscale>  0 0.14872513E+04</rscale>
<asrwt>0</asrwt>
<pdfrwt beam="1">  1        2 0.97527981E-01 0.14872513E+04</pdfrwt>
<pdfrwt beam="2">  1       -1 0.13420007E+00 0.14872513E+04</pdfrwt>
<totfact> 0.23970797E+01</totfact>
</mgrwt>
</event>
<event>
12    6  0.1627636E-007  0.1358732E+04  0.7818608E-02  0.8984244E-01
         -1   -1    0    0    0  501 -0.00000000000E+00  0.00000000000E+00  0.35785249469E+03  0.35785249469E+03  0.00000000000E+00 0.  1.
          2   -1    0    0  501    0  0.00000000000E+00 -0.00000000000E+00 -0.12897441374E+04  0.12897441374E+04  0.00000000000E+00 0. -1.
         24    2    1    2    0    0  0.11216569209E+03 -0.34317578738E+03 -0.38267463615E+03  0.53770672242E+03  0.11107600395E+03 0.  0.
        254    2    1    2    0    0 -0.11216569209E+03  0.34317578738E+03 -0.54921700654E+03  0.11098899096E+04  0.89435201556E+03 0.  0.
         23    2    4    4    0    0 -0.64402401369E+02 -0.28816646293E+03 -0.27419621473E+03  0.41358895247E+03  0.93191618560E+02 0.  0.
         23    2    4    4    0    0 -0.47763290721E+02  0.63134225032E+03 -0.27502079181E+03  0.69630095718E+03  0.91237152853E+02 0.  0.
          4    1    3    3  502    0  0.56021503078E+02 -0.17073525227E+03 -0.26958994488E+03  0.32398715029E+03  0.00000000000E+00 0. -1.
         -3    1    3    3    0  502  0.56144189013E+02 -0.17244053511E+03 -0.11308469127E+03  0.21371957212E+03  0.00000000000E+00 0.  1.
         11    1    5    5    0    0 -0.84434897026E+01 -0.19888712922E+03 -0.14192164782E+03  0.24447727258E+03  0.00000000000E+00 0. -1.
        -11    1    5    5    0    0 -0.55958911667E+02 -0.89279333711E+02 -0.13227456691E+03  0.16911167989E+03  0.00000000000E+00 0.  1.
          1    1    6    6  503    0 -0.18767380879E+02  0.24134482048E+03 -0.15409488177E+03  0.28695778356E+03  0.00000000000E+00 0. -1.
         -1    1    6    6    0  503 -0.28995909843E+02  0.38999742984E+03 -0.12092591004E+03  0.40934317362E+03  0.00000000000E+00 0.  1.
<mgrwt>
<rscale>  0 0.13587320E+04</rscale>
<asrwt>0</asrwt>
<pdfrwt beam="1">  1        2 0.19842218E+00 0.13587320E+04</pdfrwt>
<pdfrwt beam="2">  1       -1 0.55054229E-01 0.13587320E+04</pdfrwt>
<totfact> 0.62188771E+01</totfact>
</mgrwt>
</event>
<event>
12    6  0.1627636E-007  0.2226706E+04  0.7818608E-02  0.8507394E-01
         -1   -1    0    0    0  501 -0.00000000000E+00  0.00000000000E+00  0.92718346175E+03  0.92718346175E+03  0.00000000000E+00 0.  1.
          2   -1    0    0  501    0  0.00000000000E+00 -0.00000000000E+00 -0.13369033658E+04  0.13369033658E+04  0.00000000000E+00 0. -1.
         24    2    1    2    0    0  0.50110419447E+02 -0.66164834706E+03 -0.83494943439E+03  0.10695525738E+04  0.80700438938E+02 0.  0.
        254    2    1    2    0    0 -0.50110419447E+02  0.66164834706E+03  0.42522953035E+03  0.11945342537E+04  0.89766493779E+03 0.  0.
         23    2    4    4    0    0 -0.14046964883E+03  0.16396770451E+03 -0.25160217573E+03  0.34461511600E+03  0.94014855088E+02 0.  0.
         23    2    4    4    0    0  0.90359229378E+02  0.49768064255E+03  0.67683170608E+03  0.84991913773E+03  0.91709159950E+02 0.  0.
          4    1    3    3  502    0  0.83558413809E+00 -0.32481505048E+03 -0.35554136009E+03  0.48157571985E+03  0.00000000000E+00 0. -1.
         -3    1    3    3    0  502  0.49274835309E+02 -0.33683329658E+03 -0.47940807430E+03  0.58797685395E+03  0.00000000000E+00 0.  1.
         11    1    5    5    0    0 -0.13002899038E+03  0.11441797974E+03 -0.14233098371E+03  0.22418100131E+03  0.00000000000E+00 0.  1.
        -11    1    5    5    0    0 -0.10440658448E+02  0.49549724772E+02 -0.10927119202E+03  0.12043411468E+03  0.00000000000E+00 0. -1.
          3    1    6    6  503    0 -0.15280390266E+02  0.27056370037E+02  0.51998826425E+02  0.60575700044E+02  0.00000000000E+00 0. -1.
         -3    1    6    6    0  503  0.10563961964E+03  0.47062427251E+03  0.62483287966E+03  0.78934343768E+03  0.00000000000E+00 0.  1.
<mgrwt>
<rscale>  0 0.22267058E+04</rscale>
<asrwt>0</asrwt>
<pdfrwt beam="1">  1        2 0.20567744E+00 0.22267058E+04</pdfrwt>
<pdfrwt beam="2">  1       -1 0.14264361E+00 0.22267058E+04</pdfrwt>
<totfact> 0.65261108E+00</totfact>
</mgrwt>
</event>
<event>
12    6  0.1627636E-007  0.1478658E+04  0.7818608E-02  0.8898771E-01
          2   -1    0    0  501    0  0.00000000000E+00  0.00000000000E+00  0.63605085275E+03  0.63605085275E+03  0.00000000000E+00 0. -1.
         -1   -1    0    0    0  501 -0.00000000000E+00 -0.00000000000E+00 -0.85937668476E+03  0.85937668476E+03  0.00000000000E+00 0.  1.
         24    2    1    2    0    0 -0.90639559495E+02  0.35976841817E+03  0.20479884762E+03  0.43120156290E+03  0.79645309991E+02 0.  0.
        254    2    1    2    0    0  0.90639559495E+02 -0.35976841817E+03 -0.42812467963E+03  0.10642259746E+04  0.90090917369E+03 0.  0.
         23    2    4    4    0    0 -0.31878166737E+03  0.48366059680E+02  0.43921423656E+01  0.33628535452E+03  0.95433335722E+02 0.  0.
         23    2    4    4    0    0  0.40942122687E+03 -0.40813447786E+03 -0.43251682199E+03  0.72794062008E+03  0.92883001855E+02 0.  0.
          4    1    3    3  502    0 -0.96744987329E+01  0.15117025400E+03  0.11460213729E+03  0.18994654904E+03  0.00000000000E+00 0. -1.
         -3    1    3    3    0  502 -0.80965060762E+02  0.20859816417E+03  0.90196710329E+02  0.24125501386E+03  0.00000000000E+00 0.  1.
         11    1    5    5    0    0 -0.17438675646E+02  0.12755322053E+02 -0.23067470921E+02  0.31605598613E+02  0.00000000000E+00 0. -1.
        -11    1    5    5    0    0 -0.30134299173E+03  0.35610737628E+02  0.27459613287E+02  0.30467975591E+03  0.00000000000E+00 0.  1.
          2    1    6    6  503    0  0.27419286566E+03 -0.24643449452E+03 -0.32425663426E+03  0.49097255782E+03  0.00000000000E+00 0.  1.
         -2    1    6    6    0  503  0.13522836120E+03 -0.16169998334E+03 -0.10826018774E+03  0.23696806226E+03  0.00000000000E+00 0. -1.
<mgrwt>
<rscale>  0 0.14786579E+04</rscale>
<asrwt>0</asrwt>
<pdfrwt beam="1">  1        2 0.97853978E-01 0.14786579E+04</pdfrwt>
<pdfrwt beam="2">  1       -1 0.13221180E+00 0.14786579E+04</pdfrwt>
<totfact> 0.24816358E+01</totfact>
</mgrwt>
</event>
<event>
12    6  0.1627636E-007  0.1111814E+04  0.7818608E-02  0.9193753E-01
         -1   -1    0    0    0  501 -0.00000000000E+00  0.00000000000E+00  0.75585780670E+03  0.75585780670E+03  0.00000000000E+00 0.  1.
          2   -1    0    0  501    0  0.00000000000E+00 -0.00000000000E+00 -0.40884996014E+03  0.40884996014E+03  0.00000000000E+00 0. -1.
         24    2    1    2    0    0  0.50360104525E+02  0.17130818666E+03  0.28904300304E+02  0.19828600184E+03  0.81235737249E+02 0.  0.
        254    2    1    2    0    0 -0.50360104525E+02 -0.17130818666E+03  0.31810354625E+03  0.96642176500E+03  0.89492934178E+03 0.  0.
         23    2    4    4    0    0 -0.14240025832E+03 -0.18001445906E+03  0.60393767436E+03  0.65246203443E+03  0.91010729121E+02 0.  0.
         23    2    4    4    0    0  0.92040153795E+02  0.87062724056E+01 -0.28583412811E+03  0.31395973057E+03  0.91227049387E+02 0.  0.
          4    1    3    3  502    0  0.52462842120E+02  0.66316468397E+02 -0.12358558166E+02  0.85457344587E+02  0.00000000000E+00 0. -1.
         -3    1    3    3    0  502 -0.21027375943E+01  0.10499171826E+03  0.41262858470E+02  0.11282865726E+03  0.00000000000E+00 0.  1.
         11    1    5    5    0    0  0.90159066060E+01  0.28592221376E+01  0.25214019992E+02  0.26929696013E+02  0.00000000000E+00 0.  1.
        -11    1    5    5    0    0 -0.15141616493E+03 -0.18287368120E+03  0.57872365437E+03  0.62553233841E+03  0.00000000000E+00 0. -1.
          1    1    6    6  503    0  0.88767387875E+02 -0.23846204392E+02 -0.24475283865E+03  0.26144261825E+03  0.00000000000E+00 0. -1.
         -1    1    6    6    0  503  0.32727659198E+01  0.32552476798E+02 -0.41081289462E+02  0.52517112319E+02  0.00000000000E+00 0.  1.
<mgrwt>
<rscale>  0 0.11118137E+04</rscale>
<asrwt>0</asrwt>
<pdfrwt beam="1">  1        2 0.62899994E-01 0.11118137E+04</pdfrwt>
<pdfrwt beam="2">  1       -1 0.11628582E+00 0.11118137E+04</pdfrwt>
<totfact> 0.58894235E+01</totfact>
</mgrwt>
</event>
<event>
12    6  0.1627636E-007  0.1418763E+04  0.7818608E-02  0.8940348E-01
          2   -1    0    0  501    0  0.00000000000E+00  0.00000000000E+00  0.20671299861E+04  0.20671299861E+04  0.00000000000E+00 0. -1.
         -1   -1    0    0    0  501 -0.00000000000E+00 -0.00000000000E+00 -0.24344005627E+03  0.24344005627E+03  0.00000000000E+00 0.  1.
         24    2    1    2    0    0 -0.38637618582E+02 -0.38989562186E+03  0.27202919602E+03  0.48343726084E+03  0.78741603806E+02 0.  0.
        254    2    1    2    0    0  0.38637618582E+02  0.38989562186E+03  0.15516607338E+04  0.18271327815E+04  0.88161879915E+03 0.  0.
         23    2    4    4    0    0  0.44642520820E+03  0.15126993763E+03  0.85671593599E+03  0.98184087328E+03  0.88720036766E+02 0.  0.
         23    2    4    4    0    0 -0.40778758961E+03  0.23862568422E+03  0.69494479781E+03  0.84529190825E+03  0.91308284003E+02 0.  0.
          4    1    3    3  502    0 -0.39724992547E+02 -0.88193333787E+02  0.50340760804E+02  0.10904279598E+03  0.00000000000E+00 0. -1.
         -3    1    3    3    0  502  0.10873739649E+01 -0.30170228807E+03  0.22168843522E+03  0.37439446486E+03  0.00000000000E+00 0.  1.
         11    1    5    5    0    0  0.20282821250E+03  0.65717335873E+02  0.47910059352E+03  0.52440006744E+03  0.00000000000E+00 0.  1.
        -11    1    5    5    0    0  0.24359699570E+03  0.85552601760E+02  0.37761534246E+03  0.45744080584E+03  0.00000000000E+00 0. -1.
          3    1    6    6  503    0 -0.84121222877E+02  0.20009148139E+02  0.17280526934E+03  0.19323148620E+03  0.00000000000E+00 0. -1.
         -3    1    6    6    0  503 -0.32366636674E+03  0.21861653608E+03  0.52213952847E+03  0.65206042204E+03  0.00000000000E+00 0.  1.
<mgrwt>
<rscale>  0 0.14187632E+04</rscale>
<asrwt>0</asrwt>
<pdfrwt beam="1">  1        2 0.31801999E+00 0.14187632E+04</pdfrwt>
<pdfrwt beam="2">  1       -1 0.37452318E-01 0.14187632E+04</pdfrwt>
<totfact> 0.46643827E+01</totfact>
</mgrwt>
</event>
<event>
12    6  0.1627636E-007  0.3271106E+04  0.7818608E-02  0.8170287E-01
         -1   -1    0    0    0  501 -0.00000000000E+00  0.00000000000E+00  0.96557805144E+03  0.96557805144E+03  0.00000000000E+00 0.  1.
          2   -1    0    0  501    0  0.00000000000E+00 -0.00000000000E+00 -0.27703954495E+04  0.27703954495E+04  0.00000000000E+00 0. -1.
         24    2    1    2    0    0  0.65993416623E+03 -0.17257327010E+03  0.70523564823E+03  0.98423233779E+03  0.77854594634E+02 0.  0.
        254    2    1    2    0    0 -0.65993416623E+03  0.17257327010E+03 -0.25100530463E+04  0.27517411632E+04  0.89800807153E+03 0.  0.
         23    2    4    4    0    0 -0.80151241530E+01  0.30640261308E+03 -0.15333293746E+04  0.15664553879E+04  0.93470357733E+02 0.  0.
         23    2    4    4    0    0 -0.65191904208E+03 -0.13382934298E+03 -0.97672367168E+03  0.11852857752E+04  0.89467914403E+02 0.  0.
          2    1    3    3  502    0  0.59233497670E+01 -0.11593094976E+02  0.13802415070E+02  0.18973470567E+02  0.00000000000E+00 0. -1.
         -1    1    3    3    0  502  0.65401081647E+03 -0.16098017512E+03  0.69143323316E+03  0.96525886722E+03  0.00000000000E+00 0.  1.
         11    1    5    5    0    0 -0.41514920666E+02  0.13268865248E+03 -0.54746850241E+03  0.56484646433E+03  0.00000000000E+00 0.  1.
        -11    1    5    5    0    0  0.33499796513E+02  0.17371396060E+03 -0.98586087222E+03  0.10016089236E+04  0.00000000000E+00 0. -1.
          3    1    6    6  503    0 -0.64119427818E+03 -0.13765585161E+03 -0.97286503345E+03  0.11732628048E+04  0.00000000000E+00 0. -1.
         -3    1    6    6    0  503 -0.10724763901E+02  0.38265086250E+01 -0.38586382309E+01  0.12022970431E+02  0.00000000000E+00 0.  1.
<mgrwt>
<rscale>  0 0.32711056E+04</rscale>
<asrwt>0</asrwt>
<pdfrwt beam="1">  1        2 0.42621468E+00 0.32711056E+04</pdfrwt>
<pdfrwt beam="2">  1       -1 0.14855047E+00 0.32711056E+04</pdfrwt>
<totfact> 0.82040528E-01</totfact>
</mgrwt>
</event>
<event>
12    6  0.1627636E-007  0.1933328E+04  0.7818608E-02  0.8638443E-01
          2   -1    0    0  501    0  0.00000000000E+00  0.00000000000E+00  0.53114413856E+03  0.53114413856E+03  0.00000000000E+00 0. -1.
         -1   -1    0    0    0  501 -0.00000000000E+00 -0.00000000000E+00 -0.17592949074E+04  0.17592949074E+04  0.00000000000E+00 0.  1.
         24    2    1    2    0    0 -0.35764728741E+03 -0.66151831347E+03 -0.56938655467E+03  0.94666074512E+03  0.80296055052E+02 0.  0.
        254    2    1    2    0    0  0.35764728741E+03  0.66151831347E+03 -0.65876421416E+03  0.13437783008E+04  0.89791523581E+03 0.  0.
         23    2    4    4    0    0  0.15902330526E+03  0.85126745395E+03 -0.41379010427E+03  0.96432334711E+03  0.93555211568E+02 0.  0.
         23    2    4    4    0    0  0.19862398215E+03 -0.18974914049E+03 -0.24497410989E+03  0.37945495372E+03  0.92290437166E+02 0.  0.
          2    1    3    3  502    0 -0.13168435962E+03 -0.21627579639E+03 -0.23717024750E+03  0.34693762692E+03  0.00000000000E+00 0. -1.
         -1    1    3    3    0  502 -0.22596292779E+03 -0.44524251708E+03 -0.33221630717E+03  0.59972311820E+03  0.00000000000E+00 0.  1.
         11    1    5    5    0    0  0.12925306296E+03  0.73278875474E+03 -0.31853430567E+03  0.80941325493E+03  0.00000000000E+00 0.  1.
        -11    1    5    5    0    0  0.29770242306E+02  0.11847869921E+03 -0.95255798597E+02  0.15491009218E+03  0.00000000000E+00 0. -1.
          3    1    6    6  503    0  0.62238818906E+02 -0.83035231246E+01 -0.52238013006E+02  0.81678816580E+02  0.00000000000E+00 0. -1.
         -3    1    6    6    0  503  0.13638516324E+03 -0.18144561736E+03 -0.19273609688E+03  0.29777613714E+03  0.00000000000E+00 0.  1.
<mgrwt>
<rscale>  0 0.19333279E+04</rscale>
<asrwt>0</asrwt>
<pdfrwt beam="1">  1        2 0.81714484E-01 0.19333279E+04</pdfrwt>
<pdfrwt beam="2">  1       -1 0.27066075E+00 0.19333279E+04</pdfrwt>
<totfact> 0.31328603E+00</totfact>
</mgrwt>
</event>
<event>
12    6  0.1627636E-007  0.3113335E+04  0.7818608E-02  0.8212088E-01
         -1   -1    0    0    0  501 -0.00000000000E+00  0.00000000000E+00  0.67123081603E+03  0.67123081603E+03  0.00000000000E+00 0.  1.
          2   -1    0    0  501    0  0.00000000000E+00 -0.00000000000E+00 -0.36101051440E+04  0.36101051440E+04  0.00000000000E+00 0. -1.
         24    2    1    2    0    0 -0.37576808799E+03 -0.13767940279E+04 -0.15182894995E+04  0.20851811649E+04  0.77550211353E+02 0.  0.
        254    2    1    2    0    0  0.37576808799E+03  0.13767940279E+04 -0.14205848285E+04  0.21961547951E+04  0.87651079743E+03 0.  0.
         23    2    4    4    0    0  0.48319278379E+03  0.12145060521E+04 -0.14770065290E+04  0.19744067338E+04  0.90738343036E+02 0.  0.
         23    2    4    4    0    0 -0.10742469580E+03  0.16228797571E+03  0.56421700437E+02  0.22174806132E+03  0.90062989563E+02 0.  0.
          2    1    3    3  502    0 -0.36992382258E+03 -0.13720653568E+04 -0.15048221709E+04  0.20697576534E+04  0.00000000000E+00 0. -1.
         -1    1    3    3    0  502 -0.58442654159E+01 -0.47286710261E+01 -0.13467328583E+02  0.15423511503E+02  0.00000000000E+00 0.  1.
         11    1    5    5    0    0  0.39406642205E+03  0.96701324302E+03 -0.12311078503E+04  0.16143201344E+04  0.00000000000E+00 0. -1.
        -11    1    5    5    0    0  0.89126361738E+02  0.24749280913E+03 -0.24589867868E+03  0.36008659945E+03  0.00000000000E+00 0.  1.
          1    1    6    6  503    0 -0.10625891125E+03  0.15402265335E+03  0.24457195109E+02  0.18871165400E+03  0.00000000000E+00 0. -1.
         -1    1    6    6    0  503 -0.11657845547E+01  0.82653223648E+01  0.31964505329E+02  0.33036407316E+02  0.00000000000E+00 0.  1.
<mgrwt>
<rscale>  0 0.31133351E+04</rscale>
<asrwt>0</asrwt>
<pdfrwt beam="1">  1        2 0.55540079E+00 0.31133351E+04</pdfrwt>
<pdfrwt beam="2">  1       -1 0.10326628E+00 0.31133351E+04</pdfrwt>
<totfact> 0.57808370E-01</totfact>
</mgrwt>
</event>
<event>
12    6  0.1627636E-007  0.1345571E+04  0.7818608E-02  0.8994188E-01
         -1   -1    0    0    0  501 -0.00000000000E+00  0.00000000000E+00  0.60793980680E+03  0.60793980680E+03  0.00000000000E+00 0.  1.
          2   -1    0    0  501    0  0.00000000000E+00 -0.00000000000E+00 -0.74454741293E+03  0.74454741293E+03  0.00000000000E+00 0. -1.
         24    2    1    2    0    0  0.81079124021E+00  0.28708168664E+02  0.33058984519E+03  0.34114580613E+03  0.79158063177E+02 0.  0.
        254    2    1    2    0    0 -0.81079124021E+00 -0.28708168664E+02 -0.46719745132E+03  0.10113414136E+04  0.89650051870E+03 0.  0.
         23    2    4    4    0    0  0.17939967061E+02  0.38896290346E+03 -0.41770896905E+03  0.57842979037E+03  0.92120881849E+02 0.  0.
         23    2    4    4    0    0 -0.18750758301E+02 -0.41767107213E+03 -0.49488482266E+02  0.43291162323E+03  0.10080996095E+03 0.  0.
          4    1    3    3  502    0  0.80378533352E+01 -0.26863101446E+01 -0.50259539266E+00  0.84897556243E+01  0.00000000000E+00 0. -1.
         -3    1    3    3    0  502 -0.72270620950E+01  0.31394478808E+02  0.33109244058E+03  0.33265605050E+03  0.00000000000E+00 0.  1.
         11    1    5    5    0    0 -0.32090492886E+01 -0.30200122195E+01 -0.16673240175E+02  0.17245735968E+02  0.00000000000E+00 0.  1.
        -11    1    5    5    0    0  0.21149016350E+02  0.39198291568E+03 -0.40103572888E+03  0.56118405440E+03  0.00000000000E+00 0. -1.
          3    1    6    6  503    0  0.10611229268E+02 -0.26546492891E+03  0.12484415793E+02  0.26597008724E+03  0.00000000000E+00 0. -1.
         -3    1    6    6    0  503 -0.29361987569E+02 -0.15220614322E+03 -0.61972898059E+02  0.16694153600E+03  0.00000000000E+00 0.  1.
<mgrwt>
<rscale>  0 0.13455705E+04</rscale>
<asrwt>0</asrwt>
<pdfrwt beam="1">  1        2 0.11454575E+00 0.13455705E+04</pdfrwt>
<pdfrwt beam="2">  1       -1 0.93529202E-01 0.13455705E+04</pdfrwt>
<totfact> 0.46863269E+01</totfact>
</mgrwt>
</event>
<event>
12    6  0.1627636E-007  0.1886360E+04  0.7818608E-02  0.8661676E-01
          2   -1    0    0  501    0  0.00000000000E+00  0.00000000000E+00  0.25115710669E+04  0.25115710669E+04  0.00000000000E+00 0. -1.
         -1   -1    0    0    0  501 -0.00000000000E+00 -0.00000000000E+00 -0.35419598064E+03  0.35419598064E+03  0.00000000000E+00 0.  1.
         24    2    1    2    0    0 -0.67822128324E+03  0.26123244236E+03  0.82501186052E+03  0.11021506537E+04  0.76583258566E+02 0.  0.
        254    2    1    2    0    0  0.67822128324E+03 -0.26123244236E+03  0.13323632257E+04  0.17636163938E+04  0.89828977582E+03 0.  0.
         23    2    4    4    0    0  0.66241310038E+03  0.17365431334E+03  0.95406713606E+03  0.11780061333E+04  0.92235643478E+02 0.  0.
         23    2    4    4    0    0  0.15808182856E+02 -0.43488675570E+03  0.37829608968E+03  0.58561026052E+03  0.10224997227E+03 0.  0.
          4    1    3    3  502    0 -0.11750978400E+03  0.53744101546E+02  0.19198534789E+03  0.23142029209E+03  0.00000000000E+00 0. -1.
         -1    1    3    3    0  502 -0.56071149924E+03  0.20748834082E+03  0.63302651263E+03  0.87073036162E+03  0.00000000000E+00 0.  1.
         11    1    5    5    0    0  0.43631663334E+03  0.10002596357E+03  0.69180610689E+03  0.82399823267E+03  0.00000000000E+00 0. -1.
        -11    1    5    5    0    0  0.22609646704E+03  0.73628349769E+02  0.26226102917E+03  0.35400790065E+03  0.00000000000E+00 0.  1.
          1    1    6    6  503    0  0.64959814481E+01 -0.25665400262E+03  0.15555134934E+03  0.30018277285E+03  0.00000000000E+00 0. -1.
         -1    1    6    6    0  503  0.93122014075E+01 -0.17823275308E+03  0.22274474035E+03  0.28542748767E+03  0.00000000000E+00 0.  1.
<mgrwt>
<rscale>  0 0.18863599E+04</rscale>
<asrwt>0</asrwt>
<pdfrwt beam="1">  1        2 0.38639554E+00 0.18863599E+04</pdfrwt>
<pdfrwt beam="2">  1       -1 0.54491691E-01 0.18863599E+04</pdfrwt>
<totfact> 0.12458081E+01</totfact>
</mgrwt>
</event>
<event>
12    6  0.1627636E-007  0.2939715E+04  0.7818608E-02  0.8261158E-01
         -1   -1    0    0    0  501 -0.00000000000E+00  0.00000000000E+00  0.12558508433E+04  0.12558508433E+04  0.00000000000E+00 0.  1.
          2   -1    0    0  501    0  0.00000000000E+00 -0.00000000000E+00 -0.17203324009E+04  0.17203324009E+04  0.00000000000E+00 0. -1.
         24    2    1    2    0    0  0.26822953601E+03  0.68009328085E+03  0.91124999885E+03  0.11709417768E+04  0.79083055243E+02 0.  0.
        254    2    1    2    0    0 -0.26822953601E+03 -0.68009328085E+03 -0.13757315564E+04  0.18052414674E+04  0.91202274393E+03 0.  0.
         23    2    4    4    0    0 -0.42944014686E+03 -0.88006929677E+02 -0.23487849570E+03  0.50656341624E+03  0.96304348451E+02 0.  0.
         23    2    4    4    0    0  0.16121061084E+03 -0.59208635118E+03 -0.11408530607E+04  0.12986780511E+04  0.91999271533E+02 0.  0.
          4    1    3    3  502    0  0.11645254840E+03  0.28798757628E+03  0.45008923709E+03  0.54688057331E+03  0.00000000000E+00 0. -1.
         -3    1    3    3    0  502  0.15177698761E+03  0.39210570457E+03  0.46116076176E+03  0.62406120350E+03  0.00000000000E+00 0.  1.
         11    1    5    5    0    0 -0.16204089380E+02  0.10494534838E+02  0.32244692880E+01  0.19573067626E+02  0.00000000000E+00 0. -1.
        -11    1    5    5    0    0 -0.41323605748E+03 -0.98501464515E+02 -0.23810296499E+03  0.48699034862E+03  0.00000000000E+00 0.  1.
          1    1    6    6  503    0 -0.45453069000E+01 -0.12014270248E+03 -0.22855208131E+03  0.25824597315E+03  0.00000000000E+00 0. -1.
         -1    1    6    6    0  503  0.16575591774E+03 -0.47194364869E+03 -0.91230097943E+03  0.10404320780E+04  0.00000000000E+00 0.  1.
<mgrwt>
<rscale>  0 0.29397149E+04</rscale>
<asrwt>0</asrwt>
<pdfrwt beam="1">  1        2 0.26466652E+00 0.29397149E+04</pdfrwt>
<pdfrwt beam="2">  1       -1 0.19320782E+00 0.29397149E+04</pdfrwt>
<totfact> 0.15697411E+00</totfact>
</mgrwt>
</event>
<event>
12    6  0.1627636E-007  0.1633943E+04  0.7818608E-02  0.8799962E-01
         -1   -1    0    0    0  501 -0.00000000000E+00  0.00000000000E+00  0.30811791197E+03  0.30811791197E+03  0.00000000000E+00 0.  1.
          2   -1    0    0  501    0  0.00000000000E+00 -0.00000000000E+00 -0.21661924245E+04  0.21661924245E+04  0.00000000000E+00 0. -1.
         24    2    1    2    0    0 -0.28542545773E+03 -0.10878136977E+03  0.21715241693E+02  0.31646633182E+03  0.79864316963E+02 0.  0.
        254    2    1    2    0    0  0.28542545773E+03  0.10878136977E+03 -0.18797897542E+04  0.21578440047E+04  0.10145837324E+04 0.  0.
         23    2    4    4    0    0 -0.14269179832E+03 -0.35308008757E+03 -0.47644880774E+03  0.61681797060E+03  0.91839234046E+02 0.  0.
         23    2    4    4    0    0  0.42811725604E+03  0.46186145735E+03 -0.14033409465E+04  0.15410260341E+04  0.93781847111E+02 0.  0.
          2    1    3    3  502    0 -0.14231476818E+03 -0.15362461274E+02 -0.63119727761E+01  0.14328063183E+03  0.00000000000E+00 0. -1.
         -1    1    3    3    0  502 -0.14311068955E+03 -0.93418908500E+02  0.28027214469E+02  0.17318569998E+03  0.00000000000E+00 0.  1.
         11    1    5    5    0    0  0.12247960954E+02 -0.46729297586E+02 -0.64117069876E+02  0.80278505529E+02  0.00000000000E+00 0. -1.
        -11    1    5    5    0    0 -0.15493975927E+03 -0.30635078999E+03 -0.41233173787E+03  0.53653946507E+03  0.00000000000E+00 0.  1.
          2    1    6    6  503    0  0.30952841755E+03  0.36184755102E+03 -0.11389469190E+04  0.12344802857E+04  0.00000000000E+00 0.  1.
         -2    1    6    6    0  503  0.11858883849E+03  0.10001390633E+03 -0.26439402753E+03  0.30654574841E+03  0.00000000000E+00 0. -1.
<mgrwt>
<rscale>  0 0.16339433E+04</rscale>
<asrwt>0</asrwt>
<pdfrwt beam="1">  1        2 0.33326036E+00 0.16339433E+04</pdfrwt>
<pdfrwt beam="2">  1       -1 0.47402758E-01 0.16339433E+04</pdfrwt>
<totfact> 0.26115338E+01</totfact>
</mgrwt>
</event>
<event>
12    6  0.1627636E-007  0.1276521E+04  0.7818608E-02  0.9048394E-01
         -1   -1    0    0    0  501 -0.00000000000E+00  0.00000000000E+00  0.22963048076E+03  0.22963048076E+03  0.00000000000E+00 0.  1.
          2   -1    0    0  501    0  0.00000000000E+00 -0.00000000000E+00 -0.17740522184E+04  0.17740522184E+04  0.00000000000E+00 0. -1.
         24    2    1    2    0    0 -0.13287578417E+03 -0.21208102051E+03 -0.11014005585E+03  0.28497504851E+03  0.80284575689E+02 0.  0.
        254    2    1    2    0    0  0.13287578417E+03  0.21208102051E+03 -0.14342816818E+04  0.17187076506E+04  0.91332234855E+03 0.  0.
         23    2    4    4    0    0 -0.34259290258E+03  0.17562523657E+03 -0.96506845603E+03  0.10434614446E+04  0.96127731870E+02 0.  0.
         23    2    4    4    0    0  0.47546868675E+03  0.36455783936E+02 -0.46921322574E+03  0.67524620606E+03  0.91634553144E+02 0.  0.
          4    1    3    3  502    0 -0.38613907135E+02 -0.47228753653E+02 -0.66271590464E+02  0.90075039264E+02  0.00000000000E+00 0. -1.
         -3    1    3    3    0  502 -0.94261877038E+02 -0.16485226686E+03 -0.43868465384E+02  0.19490000925E+03  0.00000000000E+00 0.  1.
         11    1    5    5    0    0 -0.84250079685E+02  0.10324416983E+02 -0.14637424761E+03  0.16920428445E+03  0.00000000000E+00 0. -1.
        -11    1    5    5    0    0 -0.25834282289E+03  0.16530081959E+03 -0.81869420842E+03  0.87425716011E+03  0.00000000000E+00 0.  1.
          2    1    6    6  503    0  0.27495334560E+03  0.50069307904E+02 -0.32046520417E+03  0.42521080059E+03  0.00000000000E+00 0. -1.
         -2    1    6    6    0  503  0.20051534115E+03 -0.13613523968E+02 -0.14874802157E+03  0.25003540548E+03  0.00000000000E+00 0.  1.
<mgrwt>
<rscale>  0 0.12765210E+04</rscale>
<asrwt>0</asrwt>
<pdfrwt beam="1">  1        2 0.27293111E+00 0.12765210E+04</pdfrwt>
<pdfrwt beam="2">  1       -1 0.35327766E-01 0.12765210E+04</pdfrwt>
<totfact> 0.76133609E+01</totfact>
</mgrwt>
</event>
<event>
12    6  0.1627636E-007  0.2091268E+04  0.7818608E-02  0.8565099E-01
         -1   -1    0    0    0  501 -0.00000000000E+00  0.00000000000E+00  0.30651869651E+04  0.30651869651E+04  0.00000000000E+00 0.  1.
          2   -1    0    0  501    0  0.00000000000E+00 -0.00000000000E+00 -0.35669956925E+03  0.35669956925E+03  0.00000000000E+00 0. -1.
         24    2    1    2    0    0  0.99629025645E+02 -0.66985050005E+03  0.26736446927E+03  0.73236086646E+03  0.79012936421E+02 0.  0.
        254    2    1    2    0    0 -0.99629025645E+02  0.66985050005E+03  0.24411229266E+04  0.26895256679E+04  0.90323947014E+03 0.  0.
         23    2    4    4    0    0  0.15604061608E+03 -0.16066364958E+03  0.71840680770E+03  0.75792908915E+03  0.90480277828E+02 0.  0.
         23    2    4    4    0    0 -0.25566964172E+03  0.83051414962E+03  0.17227161189E+04  0.19315965787E+04  0.90519601925E+02 0.  0.
          2    1    3    3  502    0  0.21641403325E+02 -0.34624403400E+03  0.10825478701E+03  0.36341763899E+03  0.00000000000E+00 0. -1.
         -1    1    3    3    0  502  0.77987622320E+02 -0.32360646604E+03  0.15910968226E+03  0.36894322746E+03  0.00000000000E+00 0.  1.
         11    1    5    5    0    0  0.11631423976E+03 -0.15588841203E+03  0.65206602004E+03  0.68045594557E+03  0.00000000000E+00 0.  1.
        -11    1    5    5    0    0  0.39726376318E+02 -0.47752375481E+01  0.66340787663E+02  0.77473143584E+02  0.00000000000E+00 0. -1.
          3    1    6    6  503    0 -0.92016284255E+02  0.21166596891E+03  0.52679555649E+03  0.57513740732E+03  0.00000000000E+00 0. -1.
         -3    1    6    6    0  503 -0.16365335747E+03  0.61884818071E+03  0.11959205624E+04  0.13564591714E+04  0.00000000000E+00 0.  1.
<mgrwt>
<rscale>  0 0.20912684E+04</rscale>
<asrwt>0</asrwt>
<pdfrwt beam="1">  1        2 0.54876859E-01 0.20912684E+04</pdfrwt>
<pdfrwt beam="2">  1       -1 0.47156721E+00 0.20912684E+04</pdfrwt>
<totfact> 0.21931009E-01</totfact>
</mgrwt>
</event>
<event>
12    6  0.1627636E-007  0.2526008E+04  0.7818608E-02  0.8393778E-01
         -1   -1    0    0    0  501 -0.00000000000E+00  0.00000000000E+00  0.15957607946E+04  0.15957607946E+04  0.00000000000E+00 0.  1.
          2   -1    0    0  501    0  0.00000000000E+00 -0.00000000000E+00 -0.99963525978E+03  0.99963525978E+03  0.00000000000E+00 0. -1.
         24    2    1    2    0    0 -0.45862317931E+03 -0.11931884201E+03  0.12847097164E+04  0.13716172472E+04  0.79262921714E+02 0.  0.
        254    2    1    2    0    0  0.45862317931E+03  0.11931884201E+03 -0.68858418159E+03  0.12237788072E+04  0.89381999704E+03 0.  0.
         23    2    4    4    0    0  0.17810220291E+03 -0.52224826075E+02 -0.82865801201E+03  0.85411455954E+03  0.91595593826E+02 0.  0.
         23    2    4    4    0    0  0.28052097639E+03  0.17154366809E+03  0.14007383043E+03  0.36966424763E+03  0.94401958407E+02 0.  0.
          4    1    3    3  502    0 -0.11575322640E+02  0.28248863739E+01  0.10993743318E+02  0.16212047045E+02  0.00000000000E+00 0. -1.
         -3    1    3    3    0  502 -0.44704785667E+03 -0.12214372839E+03  0.12737159730E+04  0.13554052001E+04  0.00000000000E+00 0.  1.
         11    1    5    5    0    0  0.18854721310E+03 -0.44921777867E+02 -0.76322205300E+03  0.78744899510E+03  0.00000000000E+00 0.  1.
        -11    1    5    5    0    0 -0.10445010185E+02 -0.73030482081E+01 -0.65435959013E+02  0.66665564446E+02  0.00000000000E+00 0. -1.
          2    1    6    6  503    0  0.84456116056E+02  0.27983322895E+02 -0.41444757891E+00  0.88972319663E+02  0.00000000000E+00 0. -1.
         -2    1    6    6    0  503  0.19606486034E+03  0.14356034519E+03  0.14048827801E+03  0.28069192797E+03  0.00000000000E+00 0.  1.
<mgrwt>
<rscale>  0 0.25260077E+04</rscale>
<asrwt>0</asrwt>
<pdfrwt beam="1">  1        2 0.15379004E+00 0.25260077E+04</pdfrwt>
<pdfrwt beam="2">  1       -1 0.24550166E+00 0.25260077E+04</pdfrwt>
<totfact> 0.19077182E+00</totfact>
</mgrwt>
</event>
<event>
12    6  0.1627636E-007  0.1870257E+04  0.7818608E-02  0.8669805E-01
          2   -1    0    0  501    0  0.00000000000E+00  0.00000000000E+00  0.81298890622E+03  0.81298890622E+03  0.00000000000E+00 0. -1.
         -1   -1    0    0    0  501 -0.00000000000E+00 -0.00000000000E+00 -0.10756179569E+04  0.10756179569E+04  0.00000000000E+00 0.  1.
         24    2    1    2    0    0  0.64759406572E+03  0.57329781601E+02 -0.39212392077E+03  0.76393378986E+03  0.84669287461E+02 0.  0.
        254    2    1    2    0    0 -0.64759406572E+03 -0.57329781601E+02  0.12949487007E+03  0.11246730733E+04  0.90854599366E+03 0.  0.
         23    2    4    4    0    0 -0.24819413633E+03  0.33722682363E+03  0.30881808460E+03  0.52811065906E+03  0.90609044554E+02 0.  0.
         23    2    4    4    0    0 -0.39939992938E+03 -0.39455660523E+03 -0.17932321453E+03  0.59656241422E+03  0.92383334375E+02 0.  0.
          2    1    3    3  502    0  0.48558556849E+02  0.24829333997E+02 -0.20639270569E+02  0.58313023928E+02  0.00000000000E+00 0. -1.
         -1    1    3    3    0  502  0.59903550887E+03  0.32500447604E+02 -0.37148465020E+03  0.70562076593E+03  0.00000000000E+00 0.  1.
         11    1    5    5    0    0 -0.83028066235E+02  0.10376937269E+03  0.48725087630E+02  0.14154814254E+03  0.00000000000E+00 0.  1.
        -11    1    5    5    0    0 -0.16516607010E+03  0.23345745094E+03  0.26009299697E+03  0.38656251653E+03  0.00000000000E+00 0. -1.
          2    1    6    6  503    0 -0.15769275693E+03 -0.21022250791E+03 -0.10935115689E+03  0.28463693354E+03  0.00000000000E+00 0. -1.
         -2    1    6    6    0  503 -0.24170717245E+03 -0.18433409732E+03 -0.69972057635E+02  0.31192548068E+03  0.00000000000E+00 0.  1.
<mgrwt>
<rscale>  0 0.18702572E+04</rscale>
<asrwt>0</asrwt>
<pdfrwt beam="1">  1        2 0.12507522E+00 0.18702572E+04</pdfrwt>
<pdfrwt beam="2">  1       -1 0.16547969E+00 0.18702572E+04</pdfrwt>
<totfact> 0.96008873E+00</totfact>
</mgrwt>
</event>
<event>
12    6  0.1627636E-007  0.1242468E+04  0.7818608E-02  0.9076475E-01
          2   -1    0    0  501    0  0.00000000000E+00  0.00000000000E+00  0.36077006777E+03  0.36077006777E+03  0.00000000000E+00 0. -1.
         -1   -1    0    0    0  501 -0.00000000000E+00 -0.00000000000E+00 -0.10697444799E+04  0.10697444799E+04  0.00000000000E+00 0.  1.
         24    2    1    2    0    0  0.13344958771E+03  0.25735320346E+03 -0.17485358756E+03  0.34757263317E+03  0.78698757669E+02 0.  0.
        254    2    1    2    0    0 -0.13344958771E+03 -0.25735320346E+03 -0.53412082457E+03  0.10829419145E+04  0.89634740539E+03 0.  0.
         23    2    4    4    0    0 -0.29775036311E+01  0.11806621015E+03 -0.64371266462E+03  0.66056946430E+03  0.89652256370E+02 0.  0.
         23    2    4    4    0    0 -0.13047208408E+03 -0.37541941361E+03  0.10959184005E+03  0.42237245019E+03  0.91790056298E+02 0.  0.
          2    1    3    3  502    0  0.95705508705E+02  0.19029025178E+03 -0.85171839984E+02  0.22939957856E+03  0.00000000000E+00 0. -1.
         -1    1    3    3    0  502  0.37744079003E+02  0.67062951682E+02 -0.89681747576E+02  0.11817305461E+03  0.00000000000E+00 0.  1.
         11    1    5    5    0    0  0.43136315934E+01 -0.14328939372E+02 -0.48005125103E+02  0.50283376550E+02  0.00000000000E+00 0.  1.
        -11    1    5    5    0    0 -0.72911352245E+01  0.13239514953E+03 -0.59570753951E+03  0.61028608775E+03  0.00000000000E+00 0. -1.
          1    1    6    6  503    0 -0.74635285672E+02 -0.27130375575E+03  0.37242824938E+02  0.28383654057E+03  0.00000000000E+00 0. -1.
         -1    1    6    6    0  503 -0.55836798405E+02 -0.10411565786E+03  0.72349015111E+02  0.13853590963E+03  0.00000000000E+00 0.  1.
<mgrwt>
<rscale>  0 0.12424682E+04</rscale>
<asrwt>0</asrwt>
<pdfrwt beam="1">  1        2 0.55503086E-01 0.12424682E+04</pdfrwt>
<pdfrwt beam="2">  1       -1 0.16457608E+00 0.12424682E+04</pdfrwt>
<totfact> 0.27163764E+01</totfact>
</mgrwt>
</event>
<event>
12    6  0.1627636E-007  0.1537212E+04  0.7818608E-02  0.8860078E-01
          2   -1    0    0  501    0  0.00000000000E+00  0.00000000000E+00  0.17971055892E+04  0.17971055892E+04  0.00000000000E+00 0. -1.
         -1   -1    0    0    0  501 -0.00000000000E+00 -0.00000000000E+00 -0.32872577159E+03  0.32872577159E+03  0.00000000000E+00 0.  1.
         24    2    1    2    0    0 -0.18163808491E+03 -0.44632016063E+03  0.67888474870E+03  0.83626393234E+03  0.79112469563E+02 0.  0.
        254    2    1    2    0    0  0.18163808491E+03  0.44632016063E+03  0.78949506894E+03  0.12895674285E+04  0.89860314324E+03 0.  0.
         23    2    4    4    0    0 -0.25952729545E+03  0.45747296269E+03  0.58947219010E+03  0.79532108078E+03  0.91772708107E+02 0.  0.
         23    2    4    4    0    0  0.44116538036E+03 -0.11152802066E+02  0.20002287885E+03  0.49424634770E+03  0.97565477141E+02 0.  0.
          2    1    3    3  502    0 -0.54520834610E+02 -0.10493993914E+03  0.11504489035E+03  0.16498557219E+03  0.00000000000E+00 0. -1.
         -1    1    3    3    0  502 -0.12711725030E+03 -0.34138022148E+03  0.56383985835E+03  0.67127836015E+03  0.00000000000E+00 0.  1.
         11    1    5    5    0    0 -0.97555486681E+01  0.68601261425E+01  0.41515317643E+02  0.43194370692E+02  0.00000000000E+00 0.  1.
        -11    1    5    5    0    0 -0.24977174678E+03  0.45061283655E+03  0.54795687245E+03  0.75212671008E+03  0.00000000000E+00 0. -1.
          3    1    6    6  503    0  0.43454279804E+03  0.49289238938E+01  0.19231651231E+03  0.47522350376E+03  0.00000000000E+00 0. -1.
         -3    1    6    6    0  503  0.66225823248E+01 -0.16081725959E+02  0.77063665344E+01  0.19022843942E+02  0.00000000000E+00 0.  1.
<mgrwt>
<rscale>  0 0.15372117E+04</rscale>
<asrwt>0</asrwt>
<pdfrwt beam="1">  1        2 0.27647778E+00 0.15372117E+04</pdfrwt>
<pdfrwt beam="2">  1       -1 0.50573197E-01 0.15372117E+04</pdfrwt>
<totfact> 0.37334752E+01</totfact>
</mgrwt>
</event>
<event>
12    6  0.1627636E-007  0.2457498E+04  0.7818608E-02  0.8418285E-01
          2   -1    0    0  501    0  0.00000000000E+00  0.00000000000E+00  0.26232403780E+04  0.26232403780E+04  0.00000000000E+00 0. -1.
         -1   -1    0    0    0  501 -0.00000000000E+00 -0.00000000000E+00 -0.57555691419E+03  0.57555691419E+03  0.00000000000E+00 0.  1.
         24    2    1    2    0    0 -0.65305962957E+03 -0.83628181860E+03  0.85069677496E+03  0.13622444092E+04  0.78553597413E+02 0.  0.
        254    2    1    2    0    0  0.65305962957E+03  0.83628181860E+03  0.11969866888E+04  0.18365528829E+04  0.90238306647E+03 0.  0.
         23    2    4    4    0    0 -0.47987032799E+02 -0.14863991783E+03  0.16343033166E+03  0.24349249896E+03  0.90457411260E+02 0.  0.
         23    2    4    4    0    0  0.70104666237E+03  0.98492173643E+03  0.10335563572E+04  0.15930603840E+04  0.89807537764E+02 0.  0.
          2    1    3    3  502    0 -0.11680549724E+03 -0.19736297113E+03  0.16664683330E+03  0.28349044712E+03  0.00000000000E+00 0. -1.
         -1    1    3    3    0  502 -0.53625413234E+03 -0.63891884747E+03  0.68404994165E+03  0.10787539621E+04  0.00000000000E+00 0.  1.
         11    1    5    5    0    0 -0.69829007448E+02 -0.75654285443E+02  0.79000207882E+02  0.12977169966E+03  0.00000000000E+00 0.  1.
        -11    1    5    5    0    0  0.21841974649E+02 -0.72985632382E+02  0.84430123783E+02  0.11372079930E+03  0.00000000000E+00 0. -1.
          3    1    6    6  503    0  0.34542270570E+03  0.45854892396E+03  0.43547616212E+03  0.72057161272E+03  0.00000000000E+00 0. -1.
         -3    1    6    6    0  503  0.35562395667E+03  0.52637281246E+03  0.59808019505E+03  0.87248877126E+03  0.00000000000E+00 0.  1.
<mgrwt>
<rscale>  0 0.24574980E+04</rscale>
<asrwt>0</asrwt>
<pdfrwt beam="1">  1        2 0.40357544E+00 0.24574980E+04</pdfrwt>
<pdfrwt beam="2">  1       -1 0.88547219E-01 0.24574980E+04</pdfrwt>
<totfact> 0.37581649E+00</totfact>
</mgrwt>
</event>
<event>
12    6  0.1627636E-007  0.1689139E+04  0.7818608E-02  0.8767583E-01
          2   -1    0    0  501    0  0.00000000000E+00  0.00000000000E+00  0.26430934974E+04  0.26430934974E+04  0.00000000000E+00 0. -1.
         -1   -1    0    0    0  501 -0.00000000000E+00 -0.00000000000E+00 -0.26987213682E+03  0.26987213682E+03  0.00000000000E+00 0.  1.
         24    2    1    2    0    0 -0.51875923171E+02 -0.58580182206E+03  0.64828426900E+03  0.87870906666E+03  0.77474152164E+02 0.  0.
        254    2    1    2    0    0  0.51875923171E+02  0.58580182206E+03  0.17249370916E+04  0.20342565676E+04  0.90384563209E+03 0.  0.
         23    2    4    4    0    0  0.28814671044E+03  0.77416148703E+02  0.12658128841E+04  0.13036909135E+04  0.91137005226E+02 0.  0.
         23    2    4    4    0    0 -0.23627078727E+03  0.50838567336E+03  0.45912420755E+03  0.73056565407E+03  0.93012145230E+02 0.  0.
          2    1    3    3  502    0  0.72562348882E+01 -0.10274563205E+03  0.15213973003E+03  0.18372755728E+03  0.00000000000E+00 0. -1.
         -1    1    3    3    0  502 -0.59132158059E+02 -0.48305619001E+03  0.49614453897E+03  0.69498150938E+03  0.00000000000E+00 0.  1.
         11    1    5    5    0    0  0.15035666415E+03  0.43023075890E+02  0.47087214209E+03  0.49616397058E+03  0.00000000000E+00 0.  1.
        -11    1    5    5    0    0  0.13779004628E+03  0.34393072813E+02  0.79494074198E+03  0.80752694293E+03  0.00000000000E+00 0. -1.
          1    1    6    6  503    0 -0.32771191071E+02  0.13517538378E+03  0.77043980483E+02  0.15900349139E+03  0.00000000000E+00 0. -1.
         -1    1    6    6    0  503 -0.20349959619E+03  0.37321028958E+03  0.38208022706E+03  0.57156216268E+03  0.00000000000E+00 0.  1.
<mgrwt>
<rscale>  0 0.16891386E+04</rscale>
<asrwt>0</asrwt>
<pdfrwt beam="1">  1        2 0.40662975E+00 0.16891386E+04</pdfrwt>
<pdfrwt beam="2">  1       -1 0.41518792E-01 0.16891386E+04</pdfrwt>
<totfact> 0.17746519E+01</totfact>
</mgrwt>
</event>
<event>
12    6  0.1627636E-007  0.1344763E+04  0.7818608E-02  0.8994802E-01
         -1   -1    0    0    0  501 -0.00000000000E+00  0.00000000000E+00  0.23347725577E+03  0.23347725577E+03  0.00000000000E+00 0.  1.
          2   -1    0    0  501    0  0.00000000000E+00 -0.00000000000E+00 -0.19363644251E+04  0.19363644251E+04  0.00000000000E+00 0. -1.
         24    2    1    2    0    0  0.20598329864E+03 -0.30594456149E+03 -0.47659641891E+03  0.60798497209E+03  0.80438708038E+02 0.  0.
        254    2    1    2    0    0 -0.20598329864E+03  0.30594456149E+03 -0.12262907504E+04  0.15618567087E+04  0.89419023710E+03 0.  0.
         23    2    4    4    0    0 -0.86168499361E+02  0.34187238461E+03 -0.40745056271E+02  0.36631489289E+03  0.90690151094E+02 0.  0.
         23    2    4    4    0    0 -0.11981479928E+03 -0.35927823116E+02 -0.11855456941E+04  0.11955418159E+04  0.90306400639E+02 0.  0.
          2    1    3    3  502    0  0.15998211528E+03 -0.27305793636E+03 -0.43427311482E+03  0.53735281899E+03  0.00000000000E+00 0. -1.
         -1    1    3    3    0  502  0.46001183367E+02 -0.32886625127E+02 -0.42323304086E+02  0.70632153104E+02  0.00000000000E+00 0.  1.
         11    1    5    5    0    0 -0.14346119385E+02  0.21294588303E+03 -0.82972864415E+00  0.21343019630E+03  0.00000000000E+00 0. -1.
        -11    1    5    5    0    0 -0.71822379975E+02  0.12892650158E+03 -0.39915327626E+02  0.15288469660E+03  0.00000000000E+00 0.  1.
          3    1    6    6  503    0 -0.12799001252E+03 -0.15505359094E+02 -0.90532103375E+03  0.91445504734E+03  0.00000000000E+00 0. -1.
         -3    1    6    6    0  503  0.81752132381E+01 -0.20422464022E+02 -0.28022466037E+03  0.28108676851E+03  0.00000000000E+00 0.  1.
<mgrwt>
<rscale>  0 0.13447633E+04</rscale>
<asrwt>0</asrwt>
<pdfrwt beam="1">  1        2 0.29790220E+00 0.13447633E+04</pdfrwt>
<pdfrwt beam="2">  1       -1 0.35919581E-01 0.13447633E+04</pdfrwt>
<totfact> 0.59784774E+01</totfact>
</mgrwt>
</event>
<event>
12    6  0.1627636E-007  0.4182160E+04  0.7818608E-02  0.7968775E-01
          2   -1    0    0  501    0  0.00000000000E+00  0.00000000000E+00  0.26392560072E+04  0.26392560072E+04  0.00000000000E+00 0. -1.
         -1   -1    0    0    0  501 -0.00000000000E+00 -0.00000000000E+00 -0.16567604892E+04  0.16567604892E+04  0.00000000000E+00 0.  1.
         24    2    1    2    0    0  0.19189792996E+04  0.14009138240E+03  0.10025511541E+04  0.21710940610E+04  0.80208835332E+02 0.  0.
        254    2    1    2    0    0 -0.19189792996E+04 -0.14009138240E+03 -0.20055636107E+02  0.21249224354E+04  0.90154643825E+03 0.  0.
         23    2    4    4    0    0 -0.10170752520E+04  0.35456872574E+03  0.98922452245E+02  0.10855566096E+04  0.92121938903E+02 0.  0.
         23    2    4    4    0    0 -0.90190404761E+03 -0.49466010814E+03 -0.11897808835E+03  0.10393658258E+04  0.89476257655E+02 0.  0.
          4    1    3    3  502    0  0.63242277368E+03  0.35257878426E+02  0.37097369213E+03  0.73404574988E+03  0.00000000000E+00 0. -1.
         -3    1    3    3    0  502  0.12865565259E+04  0.10483350397E+03  0.63157746200E+03  0.14370483111E+04  0.00000000000E+00 0.  1.
         11    1    5    5    0    0 -0.10092369475E+04  0.35050371877E+03  0.88693915674E+02  0.10720441613E+04  0.00000000000E+00 0.  1.
        -11    1    5    5    0    0 -0.78383044511E+01  0.40650069682E+01  0.10228536571E+02  0.13512448287E+02  0.00000000000E+00 0. -1.
          4    1    6    6  503    0 -0.20737867406E+02 -0.23780435183E+02 -0.14823235182E+02  0.34861103587E+02  0.00000000000E+00 0. -1.
         -4    1    6    6    0  503 -0.88116618021E+03 -0.47087967296E+03 -0.10415485317E+03  0.10045047222E+04  0.00000000000E+00 0.  1.
<mgrwt>
<rscale>  0 0.41821598E+04</rscale>
<asrwt>0</asrwt>
<pdfrwt beam="1">  1        2 0.40603939E+00 0.41821598E+04</pdfrwt>
<pdfrwt beam="2">  1       -1 0.25488623E+00 0.41821598E+04</pdfrwt>
<totfact> 0.16512570E-01</totfact>
</mgrwt>
</event>
<event>
12    6  0.1627636E-007  0.1418153E+04  0.7818608E-02  0.8940782E-01
         -1   -1    0    0    0  501 -0.00000000000E+00  0.00000000000E+00  0.49304053087E+03  0.49304053087E+03  0.00000000000E+00 0.  1.
          2   -1    0    0  501    0  0.00000000000E+00 -0.00000000000E+00 -0.10197728031E+04  0.10197728031E+04  0.00000000000E+00 0. -1.
         24    2    1    2    0    0 -0.28374207804E+03 -0.23385233528E+03 -0.36808022610E+03  0.52637056358E+03  0.79915178719E+02 0.  0.
        254    2    1    2    0    0  0.28374207804E+03  0.23385233528E+03 -0.15865204617E+03  0.98644277044E+03  0.90150007544E+03 0.  0.
         23    2    4    4    0    0  0.17641609067E+03 -0.32112418635E+03  0.41343843678E+02  0.38012714379E+03  0.92433500045E+02 0.  0.
         23    2    4    4    0    0  0.10732598738E+03  0.55497652163E+03 -0.19999588985E+03  0.60631562665E+03  0.90013754714E+02 0.  0.
          2    1    3    3  502    0 -0.28320799726E+03 -0.23106386418E+03 -0.37200809721E+03  0.52152402000E+03  0.00000000000E+00 0. -1.
         -1    1    3    3    0  502 -0.53408077893E+00 -0.27884711024E+01  0.39278711023E+01  0.48465435894E+01  0.00000000000E+00 0.  1.
         11    1    5    5    0    0  0.18331190921E+03 -0.31734497940E+03  0.31947596701E+02  0.36787462667E+03  0.00000000000E+00 0. -1.
        -11    1    5    5    0    0 -0.68958185427E+01 -0.37792069422E+01  0.93962469775E+01  0.12252517119E+02  0.00000000000E+00 0.  1.
          4    1    6    6  503    0  0.66271030900E+02  0.48151650214E+03 -0.18873156449E+03  0.52141115716E+03  0.00000000000E+00 0. -1.
         -4    1    6    6    0  503  0.41054956478E+02  0.73460019487E+02 -0.11264325362E+02  0.84904469495E+02  0.00000000000E+00 0.  1.
<mgrwt>
<rscale>  0 0.14181528E+04</rscale>
<asrwt>0</asrwt>
<pdfrwt beam="1">  1        2 0.15688812E+00 0.14181528E+04</pdfrwt>
<pdfrwt beam="2">  1       -1 0.75852389E-01 0.14181528E+04</pdfrwt>
<totfact> 0.47376943E+01</totfact>
</mgrwt>
</event>
<event>
12    6  0.1627636E-007  0.2653098E+04  0.7818608E-02  0.8350385E-01
          2   -1    0    0  501    0  0.00000000000E+00  0.00000000000E+00  0.19375082523E+04  0.19375082523E+04  0.00000000000E+00 0. -1.
         -1   -1    0    0    0  501 -0.00000000000E+00 -0.00000000000E+00 -0.90824535292E+03  0.90824535292E+03  0.00000000000E+00 0.  1.
         24    2    1    2    0    0 -0.35954466552E+03  0.96587521821E+03 -0.12355477008E+03  0.10412864599E+04  0.82609967801E+02 0.  0.
        254    2    1    2    0    0  0.35954466552E+03 -0.96587521821E+03  0.11528176695E+04  0.18044671453E+04  0.93001386859E+03 0.  0.
         23    2    4    4    0    0 -0.24241935768E+03 -0.59443821084E+03  0.72459716960E+03  0.97239983626E+03  0.91632155277E+02 0.  0.
         23    2    4    4    0    0  0.60196402320E+03 -0.37143700737E+03  0.42822049988E+03  0.83206730905E+03  0.92935862810E+02 0.  0.
          2    1    3    3  502    0 -0.12143726852E+02  0.77718541046E+02  0.57831758419E+01  0.78873866692E+02  0.00000000000E+00 0. -1.
         -1    1    3    3    0  502 -0.34740093867E+03  0.88815667716E+03 -0.12933794593E+03  0.96241259324E+03  0.00000000000E+00 0.  1.
         11    1    5    5    0    0 -0.82288343223E+02 -0.32186111846E+03  0.36160534636E+03  0.49104417064E+03  0.00000000000E+00 0. -1.
        -11    1    5    5    0    0 -0.16013101446E+03 -0.27257709238E+03  0.36299182324E+03  0.48135566561E+03  0.00000000000E+00 0.  1.
          2    1    6    6  503    0  0.42818878205E+03 -0.23651065059E+03  0.33637440326E+03  0.59365870674E+03  0.00000000000E+00 0.  1.
         -2    1    6    6    0  503  0.17377524114E+03 -0.13492635678E+03  0.91846096614E+02  0.23840860230E+03  0.00000000000E+00 0. -1.
<mgrwt>
<rscale>  0 0.26530985E+04</rscale>
<asrwt>0</asrwt>
<pdfrwt beam="1">  1        2 0.29807819E+00 0.26530985E+04</pdfrwt>
<pdfrwt beam="2">  1       -1 0.13973005E+00 0.26530985E+04</pdfrwt>
<totfact> 0.30555421E+00</totfact>
</mgrwt>
</event>
<event>
12    6  0.1627636E-007  0.1635531E+04  0.7818608E-02  0.8799013E-01
          2   -1    0    0  501    0  0.00000000000E+00  0.00000000000E+00  0.15322309963E+04  0.15322309963E+04  0.00000000000E+00 0. -1.
         -1   -1    0    0    0  501 -0.00000000000E+00 -0.00000000000E+00 -0.43644870360E+03  0.43644870360E+03  0.00000000000E+00 0.  1.
         24    2    1    2    0    0  0.53983602258E+02 -0.45015958610E+03  0.84410155088E+03  0.96141415861E+03  0.79068792267E+02 0.  0.
        254    2    1    2    0    0 -0.53983602258E+02  0.45015958610E+03  0.25168074180E+03  0.10072655413E+04  0.86352926561E+03 0.  0.
         23    2    4    4    0    0 -0.21418620707E+03  0.50137737273E+03 -0.14064810359E+03  0.57115177478E+03  0.95799058498E+02 0.  0.
         23    2    4    4    0    0  0.16020260481E+03 -0.51217786623E+02  0.39232884540E+03  0.43611376649E+03  0.89359712050E+02 0.  0.
          4    1    3    3  502    0  0.40398299253E+02 -0.34263934917E+03  0.56501418023E+03  0.66202323980E+03  0.00000000000E+00 0. -1.
         -3    1    3    3    0  502  0.13585303005E+02 -0.10752023693E+03  0.27908737065E+03  0.29939091881E+03  0.00000000000E+00 0.  1.
         11    1    5    5    0    0 -0.22058117009E+03  0.49058447400E+03 -0.12713636675E+03  0.55271406214E+03  0.00000000000E+00 0.  1.
        -11    1    5    5    0    0  0.63949630245E+01  0.10792898722E+02 -0.13511736846E+02  0.18437712643E+02  0.00000000000E+00 0. -1.
          1    1    6    6  503    0  0.64857579083E+02  0.21965174358E+02  0.17207089435E+03  0.18519548356E+03  0.00000000000E+00 0. -1.
         -1    1    6    6    0  503  0.95345025726E+02 -0.73182960981E+02  0.22025795105E+03  0.25091828293E+03  0.00000000000E+00 0.  1.
<mgrwt>
<rscale>  0 0.16355308E+04</rscale>
<asrwt>0</asrwt>
<pdfrwt beam="1">  1        2 0.23572784E+00 0.16355308E+04</pdfrwt>
<pdfrwt beam="2">  1       -1 0.67145955E-01 0.16355308E+04</pdfrwt>
<totfact> 0.29801645E+01</totfact>
</mgrwt>
</event>
<event>
12    6  0.1627636E-007  0.2446695E+04  0.7818608E-02  0.8422226E-01
         -1   -1    0    0    0  501 -0.00000000000E+00  0.00000000000E+00  0.84153594278E+03  0.84153594278E+03  0.00000000000E+00 0.  1.
          2   -1    0    0  501    0  0.00000000000E+00 -0.00000000000E+00 -0.17783903200E+04  0.17783903200E+04  0.00000000000E+00 0. -1.
         24    2    1    2    0    0  0.10138011836E+04  0.26366028315E+03 -0.23927059783E+03  0.10774869249E+04  0.80112855939E+02 0.  0.
        254    2    1    2    0    0 -0.10138011836E+04 -0.26366028315E+03 -0.69758377941E+03  0.15424393379E+04  0.89173224509E+03 0.  0.
         23    2    4    4    0    0 -0.72460195072E+03 -0.45307926852E+03 -0.79580087931E+03  0.11711668010E+04  0.89464102703E+02 0.  0.
         23    2    4    4    0    0 -0.28919923287E+03  0.18941898537E+03  0.98217099899E+02  0.37127253688E+03  0.93171613798E+02 0.  0.
          2    1    3    3  502    0  0.10006464002E+04  0.26903207764E+03 -0.23359159166E+03  0.10621847808E+04  0.00000000000E+00 0. -1.
         -1    1    3    3    0  502  0.13154783427E+02 -0.53717944956E+01 -0.56790061640E+01  0.15302144102E+02  0.00000000000E+00 0.  1.
         11    1    5    5    0    0 -0.31151481316E+03 -0.22459250511E+03 -0.30737161629E+03  0.49189488986E+03  0.00000000000E+00 0.  1.
        -11    1    5    5    0    0 -0.41308713756E+03 -0.22848676341E+03 -0.48842926302E+03  0.67927191112E+03  0.00000000000E+00 0. -1.
          1    1    6    6  503    0 -0.33869667679E+02  0.15878004533E+02 -0.17856552352E+02  0.41450233757E+02  0.00000000000E+00 0. -1.
         -1    1    6    6    0  503 -0.25532956519E+03  0.17354098084E+03  0.11607365225E+03  0.32982230312E+03  0.00000000000E+00 0.  1.
<mgrwt>
<rscale>  0 0.24466952E+04</rscale>
<asrwt>0</asrwt>
<pdfrwt beam="1">  1        2 0.27359851E+00 0.24466952E+04</pdfrwt>
<pdfrwt beam="2">  1       -1 0.12946707E+00 0.24466952E+04</pdfrwt>
<totfact> 0.46353664E+00</totfact>
</mgrwt>
</event>
<event>
12    6  0.1627636E-007  0.3055613E+04  0.7818608E-02  0.8228026E-01
          2   -1    0    0  501    0  0.00000000000E+00  0.00000000000E+00  0.18974871188E+04  0.18974871188E+04  0.00000000000E+00 0. -1.
         -1   -1    0    0    0  501 -0.00000000000E+00 -0.00000000000E+00 -0.12301491711E+04  0.12301491711E+04  0.00000000000E+00 0.  1.
         24    2    1    2    0    0  0.92934376180E+02 -0.13869318064E+04  0.19798148836E+03  0.14063461099E+04  0.79975478788E+02 0.  0.
        254    2    1    2    0    0 -0.92934376180E+02  0.13869318064E+04  0.46935645941E+03  0.17212901800E+04  0.90018207249E+03 0.  0.
         23    2    4    4    0    0  0.17496630062E+03  0.47208562462E+03  0.56109526657E+03  0.75941664538E+03  0.91693510107E+02 0.  0.
         23    2    4    4    0    0 -0.26790067680E+03  0.91484618182E+03 -0.91738807153E+02  0.96187353457E+03  0.89835286824E+02 0.  0.
          4    1    3    3  502    0  0.42927942569E+02 -0.10708526398E+04  0.17003727720E+03  0.10851179015E+04  0.00000000000E+00 0. -1.
         -3    1    3    3    0  502  0.50006433611E+02 -0.31607916662E+03  0.27944211153E+02  0.32122820846E+03  0.00000000000E+00 0.  1.
         11    1    5    5    0    0  0.51480910920E+02  0.85782999476E+02  0.16212935765E+03  0.19051229829E+03  0.00000000000E+00 0. -1.
        -11    1    5    5    0    0  0.12348538970E+03  0.38630262515E+03  0.39896590892E+03  0.56890434710E+03  0.00000000000E+00 0.  1.
          3    1    6    6  503    0 -0.12657280536E+03  0.54255033965E+03 -0.21688379764E+02  0.55754096883E+03  0.00000000000E+00 0. -1.
         -3    1    6    6    0  503 -0.14132787143E+03  0.37229584217E+03 -0.70050427389E+02  0.40433256574E+03  0.00000000000E+00 0.  1.
<mgrwt>
<rscale>  0 0.30556127E+04</rscale>
<asrwt>0</asrwt>
<pdfrwt beam="1">  1        2 0.29192110E+00 0.30556127E+04</pdfrwt>
<pdfrwt beam="2">  1       -1 0.18925372E+00 0.30556127E+04</pdfrwt>
<totfact> 0.13208991E+00</totfact>
</mgrwt>
</event>
<event>
12    6  0.1627636E-007  0.1552614E+04  0.7818608E-02  0.8850200E-01
         -1   -1    0    0    0  501 -0.00000000000E+00  0.00000000000E+00  0.19856833287E+03  0.19856833287E+03  0.00000000000E+00 0.  1.
          2   -1    0    0  501    0  0.00000000000E+00 -0.00000000000E+00 -0.30349892982E+04  0.30349892982E+04  0.00000000000E+00 0. -1.
         24    2    1    2    0    0  0.13123967878E+03  0.82873386505E+02 -0.22338020515E+04  0.22406719286E+04  0.81530573627E+02 0.  0.
        254    2    1    2    0    0 -0.13123967878E+03 -0.82873386505E+02 -0.60261891381E+03  0.99288570254E+03  0.77367991544E+03 0.  0.
         23    2    4    4    0    0  0.30113219309E+01 -0.39232990992E+03 -0.47023557117E+03  0.61904444762E+03  0.90347714175E+02 0.  0.
         23    2    4    4    0    0 -0.13425100071E+03  0.30945652342E+03 -0.13238334263E+03  0.37384125492E+03  0.91898114187E+02 0.  0.
          2    1    3    3  502    0  0.91792127822E+02  0.67310136632E+02 -0.10580129276E+04  0.10641183224E+04  0.00000000000E+00 0. -1.
         -1    1    3    3    0  502  0.39447550962E+02  0.15563249873E+02 -0.11757891240E+04  0.11765536061E+04  0.00000000000E+00 0.  1.
         11    1    5    5    0    0 -0.16932595428E+02 -0.21591052007E+02 -0.13918567519E+02  0.30767073902E+02  0.00000000000E+00 0.  1.
        -11    1    5    5    0    0  0.19943917359E+02 -0.37073885792E+03 -0.45631700366E+03  0.58827737372E+03  0.00000000000E+00 0. -1.
          1    1    6    6  503    0 -0.84524423531E+02  0.25817107560E+03 -0.13286090604E+03  0.30240486571E+03  0.00000000000E+00 0. -1.
         -1    1    6    6    0  503 -0.49726577184E+02  0.51285447821E+02  0.47756340785E+00  0.71436389211E+02  0.00000000000E+00 0.  1.
<mgrwt>
<rscale>  0 0.15526143E+04</rscale>
<asrwt>0</asrwt>
<pdfrwt beam="1">  1        2 0.46692141E+00 0.15526143E+04</pdfrwt>
<pdfrwt beam="2">  1       -1 0.30548976E-01 0.15526143E+04</pdfrwt>
<totfact> 0.18050636E+01</totfact>
</mgrwt>
</event>
<event>
12    6  0.1627636E-007  0.1264713E+04  0.7818608E-02  0.9058026E-01
         -1   -1    0    0    0  501 -0.00000000000E+00  0.00000000000E+00  0.23848923153E+03  0.23848923153E+03  0.00000000000E+00 0.  1.
          2   -1    0    0  501    0  0.00000000000E+00 -0.00000000000E+00 -0.16766997490E+04  0.16766997490E+04  0.00000000000E+00 0. -1.
         24    2    1    2    0    0 -0.10864364639E+03 -0.25845662087E+03 -0.50304698466E+03  0.58239661683E+03  0.86754156892E+02 0.  0.
        254    2    1    2    0    0  0.10864364639E+03  0.25845662087E+03 -0.93516353279E+03  0.13327923637E+04  0.90730446094E+03 0.  0.
         23    2    4    4    0    0  0.30604191002E+03 -0.53230329984E+02 -0.85128440339E+00  0.32425826075E+03  0.92992345173E+02 0.  0.
         23    2    4    4    0    0 -0.19739826363E+03  0.31168695086E+03 -0.93431224838E+03  0.10085341029E+04  0.89926800611E+02 0.  0.
          4    1    3    3  502    0 -0.10605552947E+03 -0.24419923326E+03 -0.50154599275E+03  0.56782869222E+03  0.00000000000E+00 0. -1.
         -3    1    3    3    0  502 -0.25881169176E+01 -0.14257387615E+02 -0.15009919099E+01  0.14567924611E+02  0.00000000000E+00 0.  1.
         11    1    5    5    0    0 -0.46869438844E+01  0.59375201596E+01 -0.24207975943E+01  0.79424083006E+01  0.00000000000E+00 0.  1.
        -11    1    5    5    0    0  0.31072885390E+03 -0.59167850144E+02  0.15695131909E+01  0.31631585245E+03  0.00000000000E+00 0. -1.
          3    1    6    6  503    0 -0.29927476276E+02  0.12627721921E+03 -0.30759659354E+03  0.33385214435E+03  0.00000000000E+00 0. -1.
         -3    1    6    6    0  503 -0.16747078736E+03  0.18540973164E+03 -0.62671565485E+03  0.67468195858E+03  0.00000000000E+00 0.  1.
<mgrwt>
<rscale>  0 0.12647131E+04</rscale>
<asrwt>0</asrwt>
<pdfrwt beam="1">  1        2 0.25795380E+00 0.12647131E+04</pdfrwt>
<pdfrwt beam="2">  1       -1 0.36690652E-01 0.12647131E+04</pdfrwt>
<totfact> 0.80604410E+01</totfact>
</mgrwt>
</event>
<event>
12    6  0.1627636E-007  0.2640082E+04  0.7818608E-02  0.8354712E-01
          2   -1    0    0  501    0  0.00000000000E+00  0.00000000000E+00  0.23782476577E+04  0.23782476577E+04  0.00000000000E+00 0. -1.
         -1   -1    0    0    0  501 -0.00000000000E+00 -0.00000000000E+00 -0.73268558620E+03  0.73268558620E+03  0.00000000000E+00 0.  1.
         24    2    1    2    0    0  0.94164274985E+03  0.46990125203E+02  0.15274711717E+04  0.17968507213E+04  0.81272345396E+02 0.  0.
        254    2    1    2    0    0 -0.94164274985E+03 -0.46990125203E+02  0.11809089981E+03  0.13140825226E+04  0.90772698284E+03 0.  0.
         23    2    4    4    0    0 -0.71170808894E+03  0.31470715941E+03  0.30356817368E+03  0.84041394838E+03  0.92590326219E+02 0.  0.
         23    2    4    4    0    0 -0.22993466090E+03 -0.36169728461E+03 -0.18547727387E+03  0.47366857421E+03  0.79153174886E+02 0.  0.
          2    1    3    3  502    0  0.93659660753E+03  0.40604770687E+02  0.15067255838E+04  0.17745658448E+04  0.00000000000E+00 0. -1.
         -1    1    3    3    0  502  0.50461423186E+01  0.63853545160E+01  0.20745587844E+02  0.22284876477E+02  0.00000000000E+00 0.  1.
         11    1    5    5    0    0 -0.33124255868E+03  0.96364153120E+02  0.12990390374E+03  0.36862271619E+03  0.00000000000E+00 0. -1.
        -11    1    5    5    0    0 -0.38046553027E+03  0.21834300629E+03  0.17366426994E+03  0.47179123219E+03  0.00000000000E+00 0.  1.
          1    1    6    6  503    0 -0.83248281992E+02 -0.15249597175E+03 -0.11593920061E+03  0.20887124285E+03  0.00000000000E+00 0. -1.
         -1    1    6    6    0  503 -0.14668637891E+03 -0.20920131287E+03 -0.69538073265E+02  0.26479733136E+03  0.00000000000E+00 0.  1.
<mgrwt>
<rscale>  0 0.26400816E+04</rscale>
<asrwt>0</asrwt>
<pdfrwt beam="1">  1        2 0.36588425E+00 0.26400816E+04</pdfrwt>
<pdfrwt beam="2">  1       -1 0.11272086E+00 0.26400816E+04</pdfrwt>
<totfact> 0.29531948E+00</totfact>
</mgrwt>
</event>
<event>
12    6  0.1627636E-007  0.1558413E+04  0.7818608E-02  0.8846512E-01
          2   -1    0    0  501    0  0.00000000000E+00  0.00000000000E+00  0.94444579495E+03  0.94444579495E+03  0.00000000000E+00 0. -1.
         -1   -1    0    0    0  501 -0.00000000000E+00 -0.00000000000E+00 -0.64287727602E+03  0.64287727602E+03  0.00000000000E+00 0.  1.
         24    2    1    2    0    0 -0.46888262131E+03  0.17798323405E+03  0.22584711132E+03  0.55569047971E+03  0.79095179242E+02 0.  0.
        254    2    1    2    0    0  0.46888262131E+03 -0.17798323405E+03  0.75721407611E+02  0.10316325913E+04  0.89833352805E+03 0.  0.
         23    2    4    4    0    0 -0.51091885722E+02 -0.49548755256E+02  0.38680834932E+03  0.40558239640E+03  0.99050094575E+02 0.  0.
         23    2    4    4    0    0  0.51997450703E+03 -0.12843447880E+03 -0.31108694171E+03  0.62605019486E+03  0.91076110377E+02 0.  0.
          4    1    3    3  502    0 -0.22245549163E+03  0.84750772245E+02  0.15056683792E+03  0.28167270339E+03  0.00000000000E+00 0. -1.
         -3    1    3    3    0  502 -0.24642712968E+03  0.93232461809E+02  0.75280273393E+02  0.27401777632E+03  0.00000000000E+00 0.  1.
         11    1    5    5    0    0 -0.12590652765E+01  0.27655597229E+02  0.59596813871E+02  0.65712993594E+02  0.00000000000E+00 0. -1.
        -11    1    5    5    0    0 -0.49832820446E+02 -0.77204352484E+02  0.32721153545E+03  0.33986940281E+03  0.00000000000E+00 0.  1.
          1    1    6    6  503    0  0.53240675522E+02  0.10110809816E+02 -0.15026183970E+02  0.56236858108E+02  0.00000000000E+00 0. -1.
         -1    1    6    6    0  503  0.46673383151E+03 -0.13854528861E+03 -0.29606075774E+03  0.56981333676E+03  0.00000000000E+00 0.  1.
<mgrwt>
<rscale>  0 0.15584130E+04</rscale>
<asrwt>0</asrwt>
<pdfrwt beam="1">  1        2 0.14529935E+00 0.15584130E+04</pdfrwt>
<pdfrwt beam="2">  1       -1 0.98904197E-01 0.15584130E+04</pdfrwt>
<totfact> 0.29385112E+01</totfact>
</mgrwt>
</event>
<event>
12    6  0.1627636E-007  0.1388926E+04  0.7818608E-02  0.8961874E-01
          2   -1    0    0  501    0  0.00000000000E+00  0.00000000000E+00  0.24879005345E+04  0.24879005345E+04  0.00000000000E+00 0. -1.
         -1   -1    0    0    0  501 -0.00000000000E+00 -0.00000000000E+00 -0.19384967830E+03  0.19384967830E+03  0.00000000000E+00 0.  1.
         24    2    1    2    0    0  0.16425635147E+02 -0.11181843434E+03  0.12727008710E+04  0.12802386188E+04  0.80437865279E+02 0.  0.
        254    2    1    2    0    0 -0.16425635147E+02  0.11181843434E+03  0.10213499852E+04  0.14015115940E+04  0.95305078153E+03 0.  0.
         23    2    4    4    0    0  0.30166703550E+03  0.30267879298E+03  0.90066611249E+03  0.10011165578E+04  0.91746738665E+02 0.  0.
         23    2    4    4    0    0 -0.31809267065E+03 -0.19086035864E+03  0.12068387267E+03  0.40039503622E+03  0.90227292355E+02 0.  0.
          2    1    3    3  502    0 -0.13803702830E+02 -0.10470541481E+03  0.88074130876E+03  0.88705074210E+03  0.00000000000E+00 0. -1.
         -1    1    3    3    0  502  0.30229337977E+02 -0.71130195318E+01  0.39195956225E+03  0.39318787667E+03  0.00000000000E+00 0.  1.
         11    1    5    5    0    0  0.47548861879E+02  0.87373922483E+02  0.27295151546E+03  0.29051269574E+03  0.00000000000E+00 0. -1.
        -11    1    5    5    0    0  0.25411817362E+03  0.21530487050E+03  0.62771459703E+03  0.71060386204E+03  0.00000000000E+00 0.  1.
          1    1    6    6  503    0 -0.27447650914E+02 -0.18132098847E+02 -0.14915313065E+02  0.36119428472E+02  0.00000000000E+00 0. -1.
         -1    1    6    6    0  503 -0.29064501973E+03 -0.17272825979E+03  0.13559918574E+03  0.36427560774E+03  0.00000000000E+00 0.  1.
<mgrwt>
<rscale>  0 0.13889258E+04</rscale>
<asrwt>0</asrwt>
<pdfrwt beam="1">  1        2 0.38275390E+00 0.13889258E+04</pdfrwt>
<pdfrwt beam="2">  1       -1 0.29823029E-01 0.13889258E+04</pdfrwt>
<totfact> 0.40616250E+01</totfact>
</mgrwt>
</event>
<event>
12    6  0.1627636E-007  0.1633578E+04  0.7818608E-02  0.8800181E-01
         -1   -1    0    0    0  501 -0.00000000000E+00  0.00000000000E+00  0.36376656612E+03  0.36376656612E+03  0.00000000000E+00 0.  1.
          2   -1    0    0  501    0  0.00000000000E+00 -0.00000000000E+00 -0.18339899253E+04  0.18339899253E+04  0.00000000000E+00 0. -1.
         24    2    1    2    0    0  0.29821568568E+03  0.23011958316E+02 -0.11617637069E+04  0.12023039638E+04  0.79860912237E+02 0.  0.
        254    2    1    2    0    0 -0.29821568568E+03 -0.23011958316E+02 -0.30845965229E+03  0.99545252764E+03  0.89795113023E+03 0.  0.
         23    2    4    4    0    0 -0.33408940364E+03  0.36255944404E+03 -0.32394687557E+03  0.59728456057E+03  0.93499668576E+02 0.  0.
         23    2    4    4    0    0  0.35873717966E+02 -0.38557140235E+03  0.15487223274E+02  0.39816796706E+03  0.91354507035E+02 0.  0.
          4    1    3    3  502    0  0.21818748216E+03  0.54535315154E+01 -0.96085496738E+03  0.98533130810E+03  0.00000000000E+00 0. -1.
         -3    1    3    3    0  502  0.80028203520E+02  0.17558426801E+02 -0.20090873954E+03  0.21697265573E+03  0.00000000000E+00 0.  1.
         11    1    5    5    0    0 -0.69954803316E+02  0.13893133650E+03 -0.10762094892E+03  0.18915036192E+03  0.00000000000E+00 0. -1.
        -11    1    5    5    0    0 -0.26413460033E+03  0.22362810754E+03 -0.21632592665E+03  0.40813419865E+03  0.00000000000E+00 0.  1.
          3    1    6    6  503    0 -0.51760035722E+01 -0.32053940254E+03  0.55927757939E+01  0.32062997167E+03  0.00000000000E+00 0. -1.
         -3    1    6    6    0  503  0.41049721538E+02 -0.65031999817E+02  0.98944474798E+01  0.77537995392E+02  0.00000000000E+00 0.  1.
<mgrwt>
<rscale>  0 0.16335779E+04</rscale>
<asrwt>0</asrwt>
<pdfrwt beam="1">  1        2 0.28215229E+00 0.16335779E+04</pdfrwt>
<pdfrwt beam="2">  1       -1 0.55964088E-01 0.16335779E+04</pdfrwt>
<totfact> 0.29074051E+01</totfact>
</mgrwt>
</event>
<event>
12    6  0.1627636E-007  0.2204495E+04  0.7818608E-02  0.8516560E-01
          2   -1    0    0  501    0  0.00000000000E+00  0.00000000000E+00  0.28986575883E+04  0.28986575883E+04  0.00000000000E+00 0. -1.
         -1   -1    0    0    0  501 -0.00000000000E+00 -0.00000000000E+00 -0.41914216466E+03  0.41914216466E+03  0.00000000000E+00 0.  1.
         24    2    1    2    0    0  0.39640026902E+03 -0.48566893454E+03  0.20440255009E+04  0.21395190211E+04  0.80584774905E+02 0.  0.
        254    2    1    2    0    0 -0.39640026902E+03  0.48566893454E+03  0.43548992274E+03  0.11782807319E+04  0.89760042506E+03 0.  0.
         23    2    4    4    0    0  0.64537284037E+02  0.53518113101E+03  0.44619470195E+03  0.70576656925E+03  0.91830464449E+02 0.  0.
         23    2    4    4    0    0 -0.46093755305E+03 -0.49512196475E+02 -0.10704779211E+02  0.47251416263E+03  0.90775305984E+02 0.  0.
          2    1    3    3  502    0  0.10947562248E+03 -0.14964625912E+03  0.73064093621E+03  0.75380043277E+03  0.00000000000E+00 0. -1.
         -1    1    3    3    0  502  0.28692464654E+03 -0.33602267541E+03  0.13133845647E+04  0.13857185883E+04  0.00000000000E+00 0.  1.
         11    1    5    5    0    0 -0.21847543397E+02  0.17794129218E+03  0.14420618655E+03  0.23007790605E+03  0.00000000000E+00 0. -1.
        -11    1    5    5    0    0  0.86384827433E+02  0.35723983883E+03  0.30198851540E+03  0.47568866320E+03  0.00000000000E+00 0.  1.
          3    1    6    6  503    0 -0.29472880569E+02 -0.41059270513E+00 -0.24075882753E+02  0.38058736261E+02  0.00000000000E+00 0. -1.
         -3    1    6    6    0  503 -0.43146467248E+03 -0.49101603770E+02  0.13371103542E+02  0.43445542637E+03  0.00000000000E+00 0.  1.
<mgrwt>
<rscale>  0 0.22044951E+04</rscale>
<asrwt>0</asrwt>
<pdfrwt beam="1">  1        2 0.44594731E+00 0.22044951E+04</pdfrwt>
<pdfrwt beam="2">  1       -1 0.64483412E-01 0.22044951E+04</pdfrwt>
<totfact> 0.51080643E+00</totfact>
</mgrwt>
</event>
<event>
12    6  0.1627636E-007  0.1383130E+04  0.7818608E-02  0.8966121E-01
         -1   -1    0    0    0  501 -0.00000000000E+00  0.00000000000E+00  0.25800102163E+03  0.25800102163E+03  0.00000000000E+00 0.  1.
          2   -1    0    0  501    0  0.00000000000E+00 -0.00000000000E+00 -0.18537232090E+04  0.18537232090E+04  0.00000000000E+00 0. -1.
         24    2    1    2    0    0  0.20547328329E+03  0.33654832269E+03 -0.53555346283E+03  0.66986584444E+03  0.80116754418E+02 0.  0.
        254    2    1    2    0    0 -0.20547328329E+03 -0.33654832269E+03 -0.10601687246E+04  0.14418583862E+04  0.89415537672E+03 0.  0.
         23    2    4    4    0    0 -0.16368757382E+03  0.24384446369E+03 -0.11675671006E+03  0.32952847189E+03  0.93290621985E+02 0.  0.
         23    2    4    4    0    0 -0.41785709476E+02 -0.58039278638E+03 -0.94341201449E+03  0.11123299143E+04  0.93004178429E+02 0.  0.
          4    1    3    3  502    0  0.20499278830E+03  0.32303752034E+03 -0.53301546577E+03  0.65611033337E+03  0.00000000000E+00 0. -1.
         -3    1    3    3    0  502  0.48049499326E+00  0.13510802354E+02 -0.25379970604E+01  0.13755511069E+02  0.00000000000E+00 0.  1.
         11    1    5    5    0    0 -0.14903948116E+03  0.23543783573E+03 -0.81315341716E+02  0.29026871384E+03  0.00000000000E+00 0.  1.
        -11    1    5    5    0    0 -0.14648092656E+02  0.84066279618E+01 -0.35441368345E+02  0.39259758053E+02  0.00000000000E+00 0. -1.
          1    1    6    6  503    0  0.31533248009E+01 -0.67300523308E+02 -0.62530325709E+02  0.91920321627E+02  0.00000000000E+00 0. -1.
         -1    1    6    6    0  503 -0.44939034277E+02 -0.51309226307E+03 -0.88088168878E+03  0.10204095927E+04  0.00000000000E+00 0.  1.
<mgrwt>
<rscale>  0 0.13831305E+04</rscale>
<asrwt>0</asrwt>
<pdfrwt beam="1">  1        2 0.28518819E+00 0.13831305E+04</pdfrwt>
<pdfrwt beam="2">  1       -1 0.39692464E-01 0.13831305E+04</pdfrwt>
<totfact> 0.55260174E+01</totfact>
</mgrwt>
</event>
<event>
12    6  0.1627636E-007  0.1957058E+04  0.7818608E-02  0.8626965E-01
         -1   -1    0    0    0  501 -0.00000000000E+00  0.00000000000E+00  0.11890105402E+04  0.11890105402E+04  0.00000000000E+00 0.  1.
          2   -1    0    0  501    0  0.00000000000E+00 -0.00000000000E+00 -0.80530769729E+03  0.80530769729E+03  0.00000000000E+00 0. -1.
         24    2    1    2    0    0  0.32016300032E+03  0.22271781531E+03 -0.52286601630E+03  0.65721090352E+03  0.80185588936E+02 0.  0.
        254    2    1    2    0    0 -0.32016300032E+03 -0.22271781531E+03  0.90656885918E+03  0.13371073340E+04  0.90215373083E+03 0.  0.
         23    2    4    4    0    0 -0.10995984788E+03 -0.39874736534E+03  0.42609576842E+02  0.42591975509E+03  0.92203211616E+02 0.  0.
         23    2    4    4    0    0 -0.21020315244E+03  0.17602955002E+03  0.86395928234E+03  0.91118757886E+03  0.93088101081E+02 0.  0.
          4    1    3    3  502    0  0.23329417680E+03  0.17320792669E+03 -0.44033398558E+03  0.52756153921E+03  0.00000000000E+00 0. -1.
         -3    1    3    3    0  502  0.86868823518E+02  0.49509888627E+02 -0.82532030717E+02  0.12964936431E+03  0.00000000000E+00 0.  1.
         11    1    5    5    0    0 -0.49456686149E+02 -0.97075482497E+02  0.45902327495E+02  0.11822282680E+03  0.00000000000E+00 0. -1.
        -11    1    5    5    0    0 -0.60503161726E+02 -0.30167188284E+03 -0.32927506528E+01  0.30769692829E+03  0.00000000000E+00 0.  1.
          2    1    6    6  503    0 -0.11561357370E+03  0.58125175763E+02  0.28822571636E+03  0.31594160545E+03  0.00000000000E+00 0. -1.
         -2    1    6    6    0  503 -0.94589578737E+02  0.11790437426E+03  0.57573356598E+03  0.59524597342E+03  0.00000000000E+00 0.  1.
<mgrwt>
<rscale>  0 0.19570583E+04</rscale>
<asrwt>0</asrwt>
<pdfrwt beam="1">  1        2 0.12389349E+00 0.19570583E+04</pdfrwt>
<pdfrwt beam="2">  1       -1 0.18292470E+00 0.19570583E+04</pdfrwt>
<totfact> 0.72038497E+00</totfact>
</mgrwt>
</event>
<event>
12    6  0.1627636E-007  0.1425582E+04  0.7818608E-02  0.8935507E-01
          2   -1    0    0  501    0  0.00000000000E+00  0.00000000000E+00  0.63851543235E+03  0.63851543235E+03  0.00000000000E+00 0. -1.
         -1   -1    0    0    0  501 -0.00000000000E+00 -0.00000000000E+00 -0.79570632589E+03  0.79570632589E+03  0.00000000000E+00 0.  1.
         24    2    1    2    0    0 -0.37605902331E+03  0.40974952874E+02  0.16110872138E+03  0.41693394222E+03  0.69127102426E+02 0.  0.
        254    2    1    2    0    0  0.37605902331E+03 -0.40974952874E+02 -0.31829961492E+03  0.10172878160E+04  0.88907846672E+03 0.  0.
         23    2    4    4    0    0  0.26775538633E+03  0.27551890837E+02 -0.61607271943E+03  0.67852929687E+03  0.91675282881E+02 0.  0.
         23    2    4    4    0    0  0.10830363698E+03 -0.68526843711E+02  0.29777310451E+03  0.33875851914E+03  0.98300083566E+02 0.  0.
          2    1    3    3  502    0 -0.12731765164E+03  0.85969306319E+01  0.90187473431E+02  0.15626091002E+03  0.00000000000E+00 0. -1.
         -1    1    3    3    0  502 -0.24874137167E+03  0.32378022242E+02  0.70921247952E+02  0.26067303220E+03  0.00000000000E+00 0.  1.
         11    1    5    5    0    0  0.14615766000E+03  0.35780288524E+02 -0.43474467591E+03  0.46004915374E+03  0.00000000000E+00 0. -1.
        -11    1    5    5    0    0  0.12159772633E+03 -0.82283976877E+01 -0.18132804352E+03  0.21848014314E+03  0.00000000000E+00 0.  1.
          3    1    6    6  503    0  0.79555592445E+02 -0.92811429053E+02  0.24662511552E+03  0.27525806302E+03  0.00000000000E+00 0. -1.
         -3    1    6    6    0  503  0.28748044537E+02  0.24284585343E+02  0.51147988990E+02  0.63500456121E+02  0.00000000000E+00 0.  1.
<mgrwt>
<rscale>  0 0.14255817E+04</rscale>
<asrwt>0</asrwt>
<pdfrwt beam="1">  1        2 0.98233144E-01 0.14255817E+04</pdfrwt>
<pdfrwt beam="2">  1       -1 0.12241636E+00 0.14255817E+04</pdfrwt>
<totfact> 0.30081244E+01</totfact>
</mgrwt>
</event>
<event>
12    6  0.1627636E-007  0.1564434E+04  0.7818608E-02  0.8842701E-01
         -1   -1    0    0    0  501 -0.00000000000E+00  0.00000000000E+00  0.16622129689E+03  0.16622129689E+03  0.00000000000E+00 0.  1.
          2   -1    0    0  501    0  0.00000000000E+00 -0.00000000000E+00 -0.36810161857E+04  0.36810161857E+04  0.00000000000E+00 0. -1.
         24    2    1    2    0    0 -0.22145698932E+03  0.28874170981E+01 -0.23101087970E+04  0.23220848302E+04  0.80148421360E+02 0.  0.
        254    2    1    2    0    0  0.22145698932E+03 -0.28874170981E+01 -0.12046860918E+04  0.15251526524E+04  0.90871915239E+03 0.  0.
         23    2    4    4    0    0 -0.20973311301E+03 -0.12760540969E+03 -0.98046869789E+03  0.10153122710E+04  0.96275753853E+02 0.  0.
         23    2    4    4    0    0  0.43119010232E+03  0.12471799260E+03 -0.22421739392E+03  0.50984038139E+03  0.90467080960E+02 0.  0.
          2    1    3    3  502    0 -0.16394632411E+03 -0.23271798017E+02 -0.18915803021E+04  0.18988143703E+04  0.00000000000E+00 0. -1.
         -1    1    3    3    0  502 -0.57510665203E+02  0.26159215115E+02 -0.41852849489E+03  0.42327045985E+03  0.00000000000E+00 0.  1.
         11    1    5    5    0    0 -0.12130018112E+02 -0.46269040932E+02 -0.23514749664E+03  0.23996313605E+03  0.00000000000E+00 0. -1.
        -11    1    5    5    0    0 -0.19760309489E+03 -0.81336368762E+02 -0.74532120125E+03  0.77534913492E+03  0.00000000000E+00 0.  1.
          3    1    6    6  503    0  0.70015676558E+02 -0.11621587668E+02 -0.23741954997E+02  0.74839406003E+02  0.00000000000E+00 0. -1.
         -3    1    6    6    0  503  0.36117442577E+03  0.13633958026E+03 -0.20047543892E+03  0.43500097538E+03  0.00000000000E+00 0.  1.
<mgrwt>
<rscale>  0 0.15644338E+04</rscale>
<asrwt>0</asrwt>
<pdfrwt beam="1">  1        2 0.56631016E+00 0.15644338E+04</pdfrwt>
<pdfrwt beam="2">  1       -1 0.25572508E-01 0.15644338E+04</pdfrwt>
<totfact> 0.90304406E+00</totfact>
</mgrwt>
</event>
<event>
12    6  0.1627636E-007  0.1489300E+04  0.7818608E-02  0.8891600E-01
         -1   -1    0    0    0  501 -0.00000000000E+00  0.00000000000E+00  0.32478631601E+03  0.32478631601E+03  0.00000000000E+00 0.  1.
          2   -1    0    0  501    0  0.00000000000E+00 -0.00000000000E+00 -0.17072865088E+04  0.17072865088E+04  0.00000000000E+00 0. -1.
         24    2    1    2    0    0 -0.32099971671E+03  0.24212138602E+03 -0.13067083191E+03  0.43013878041E+03  0.79252258034E+02 0.  0.
        254    2    1    2    0    0  0.32099971671E+03 -0.24212138602E+03 -0.12518293609E+04  0.16019340444E+04  0.91512422666E+03 0.  0.
         23    2    4    4    0    0  0.59453154164E+03  0.20457934978E+02 -0.86019716803E+03  0.10498662217E+04  0.91616779998E+02 0.  0.
         23    2    4    4    0    0 -0.27353182494E+03 -0.26257932099E+03 -0.39163219288E+03  0.55206782279E+03  0.87381619294E+02 0.  0.
          4    1    3    3  502    0 -0.13038423120E+03  0.14446958890E+03 -0.46993969358E+02  0.20019975779E+03  0.00000000000E+00 0. -1.
         -3    1    3    3    0  502 -0.19061548551E+03  0.97651797118E+02 -0.83676862555E+02  0.22993902262E+03  0.00000000000E+00 0.  1.
         11    1    5    5    0    0  0.28694941587E+02  0.20604460609E+02 -0.63715964727E+02  0.72853741364E+02  0.00000000000E+00 0.  1.
        -11    1    5    5    0    0  0.56583660006E+03 -0.14652563117E+00 -0.79648120330E+03  0.97701248029E+03  0.00000000000E+00 0. -1.
          1    1    6    6  503    0 -0.27500723260E+03 -0.26005035733E+03 -0.39536174638E+03  0.54732629831E+03  0.00000000000E+00 0. -1.
         -1    1    6    6    0  503  0.14754076591E+01 -0.25289636667E+01  0.37295535021E+01  0.47415244715E+01  0.00000000000E+00 0.  1.
<mgrwt>
<rscale>  0 0.14892996E+04</rscale>
<asrwt>0</asrwt>
<pdfrwt beam="1">  1        2 0.26265947E+00 0.14892996E+04</pdfrwt>
<pdfrwt beam="2">  1       -1 0.49967124E-01 0.14892996E+04</pdfrwt>
<totfact> 0.43012632E+01</totfact>
</mgrwt>
</event>
<event>
12    6  0.1627636E-007  0.2408902E+04  0.7818608E-02  0.8436178E-01
          2   -1    0    0  501    0  0.00000000000E+00  0.00000000000E+00  0.51702470068E+04  0.51702470068E+04  0.00000000000E+00 0. -1.
         -1   -1    0    0    0  501 -0.00000000000E+00 -0.00000000000E+00 -0.28058665813E+03  0.28058665813E+03  0.00000000000E+00 0.  1.
         24    2    1    2    0    0  0.58376047293E+03 -0.57741534994E+03  0.67770420290E+03  0.10675923343E+04  0.79281961750E+02 0.  0.
        254    2    1    2    0    0 -0.58376047293E+03  0.57741534994E+03  0.42119561458E+04  0.43832413307E+04  0.89333376343E+03 0.  0.
         23    2    4    4    0    0 -0.42107220576E+03  0.80801538932E+03  0.32610586421E+04  0.33871788932E+04  0.91031396060E+02 0.  0.
         23    2    4    4    0    0 -0.16268826716E+03 -0.23060003938E+03  0.95089750365E+03  0.99606243751E+03  0.91051999079E+02 0.  0.
          4    1    3    3  502    0  0.12632405423E+03 -0.82111929535E+02  0.12666254878E+03  0.19683377991E+03  0.00000000000E+00 0. -1.
         -3    1    3    3    0  502  0.45743641869E+03 -0.49530342040E+03  0.55104165413E+03  0.87075855436E+03  0.00000000000E+00 0.  1.
         11    1    5    5    0    0 -0.20738623030E+03  0.49002500734E+03  0.19488154607E+04  0.20201522854E+04  0.00000000000E+00 0. -1.
        -11    1    5    5    0    0 -0.21368597546E+03  0.31799038198E+03  0.13122431815E+04  0.13670266078E+04  0.00000000000E+00 0.  1.
          3    1    6    6  503    0 -0.13753350040E+03 -0.15507347950E+03  0.78725713520E+03  0.81408663218E+03  0.00000000000E+00 0. -1.
         -3    1    6    6    0  503 -0.25154766766E+02 -0.75526559875E+02  0.16364036845E+03  0.18197580533E+03  0.00000000000E+00 0.  1.
<mgrwt>
<rscale>  0 0.24089021E+04</rscale>
<asrwt>0</asrwt>
<pdfrwt beam="1">  1        2 0.79542255E+00 0.24089021E+04</pdfrwt>
<pdfrwt beam="2">  1       -1 0.43167182E-01 0.24089021E+04</pdfrwt>
<totfact> 0.11158014E-01</totfact>
</mgrwt>
</event>
<event>
12    6  0.1627636E-007  0.2320841E+04  0.7818608E-02  0.8469749E-01
          2   -1    0    0  501    0  0.00000000000E+00  0.00000000000E+00  0.27186070694E+04  0.27186070694E+04  0.00000000000E+00 0. -1.
         -1   -1    0    0    0  501 -0.00000000000E+00 -0.00000000000E+00 -0.49531812115E+03  0.49531812115E+03  0.00000000000E+00 0.  1.
         24    2    1    2    0    0  0.44134435400E+03 -0.25837041435E+03  0.21147786029E+04  0.21772011326E+04  0.79850625287E+02 0.  0.
        254    2    1    2    0    0 -0.44134435400E+03  0.25837041435E+03  0.10851034528E+03  0.10367240580E+04  0.89525536441E+03 0.  0.
         23    2    4    4    0    0  0.14828559159E+03 -0.41758825266E+02 -0.22680364942E+03  0.28966018513E+03  0.93438275326E+02 0.  0.
         23    2    4    4    0    0 -0.58962994560E+03  0.30012923962E+03  0.33531399470E+03  0.74706387283E+03  0.89038878229E+02 0.  0.
          2    1    3    3  502    0  0.41434626695E+03 -0.25648739640E+03  0.20473224547E+04  0.21045184359E+04  0.00000000000E+00 0. -1.
         -1    1    3    3    0  502  0.26998087057E+02 -0.18830179544E+01  0.67456148192E+02  0.72682696636E+02  0.00000000000E+00 0.  1.
         11    1    5    5    0    0  0.11579448472E+03 -0.28761514925E+02 -0.92774698406E+02  0.15113812258E+03  0.00000000000E+00 0. -1.
        -11    1    5    5    0    0  0.32491106868E+02 -0.12997310341E+02 -0.13402895102E+03  0.13852206255E+03  0.00000000000E+00 0.  1.
          1    1    6    6  503    0 -0.21647855009E+03  0.78790466928E+02  0.81187761717E+02  0.24425878281E+03  0.00000000000E+00 0. -1.
         -1    1    6    6    0  503 -0.37315139551E+03  0.22133877269E+03  0.25412623298E+03  0.50280509002E+03  0.00000000000E+00 0.  1.
<mgrwt>
<rscale>  0 0.23208407E+04</rscale>
<asrwt>0</asrwt>
<pdfrwt beam="1">  1        2 0.41824723E+00 0.23208407E+04</pdfrwt>
<pdfrwt beam="2">  1       -1 0.76202790E-01 0.23208407E+04</pdfrwt>
<totfact> 0.46095231E+00</totfact>
</mgrwt>
</event>
<event>
12    6  0.1627636E-007  0.1940415E+04  0.7818608E-02  0.8634997E-01
         -1   -1    0    0    0  501 -0.00000000000E+00  0.00000000000E+00  0.42891243778E+03  0.42891243778E+03  0.00000000000E+00 0.  1.
          2   -1    0    0  501    0  0.00000000000E+00 -0.00000000000E+00 -0.21946266217E+04  0.21946266217E+04  0.00000000000E+00 0. -1.
         24    2    1    2    0    0 -0.38919739665E+03  0.23845727595E+03  0.12824846607E+03  0.48054598427E+03  0.78359989370E+02 0.  0.
        254    2    1    2    0    0  0.38919739665E+03 -0.23845727595E+03 -0.18939626500E+04  0.21429930752E+04  0.89274202031E+03 0.  0.
         23    2    4    4    0    0  0.59090147489E+03 -0.40684309311E+03 -0.13344721979E+04  0.15178620242E+04  0.91669090708E+02 0.  0.
         23    2    4    4    0    0 -0.20170407824E+03  0.16838581716E+03 -0.55949045212E+03  0.62513105100E+03  0.93386007067E+02 0.  0.
          2    1    3    3  502    0 -0.16316577317E+03  0.12035086224E+03  0.93113731221E+02  0.22310886696E+03  0.00000000000E+00 0. -1.
         -1    1    3    3    0  502 -0.22603162349E+03  0.11810641371E+03  0.35134734847E+02  0.25743711731E+03  0.00000000000E+00 0.  1.
         11    1    5    5    0    0  0.22895255765E+03 -0.12301432303E+03 -0.55395170184E+03  0.61189401476E+03  0.00000000000E+00 0. -1.
        -11    1    5    5    0    0  0.36194891724E+03 -0.28382877008E+03 -0.78052049607E+03  0.90596800948E+03  0.00000000000E+00 0.  1.
          1    1    6    6  503    0 -0.25559024550E+02  0.63970240687E+01 -0.14870280462E+02  0.30254105406E+02  0.00000000000E+00 0. -1.
         -1    1    6    6    0  503 -0.17614505369E+03  0.16198879309E+03 -0.54462017165E+03  0.59487694560E+03  0.00000000000E+00 0.  1.
<mgrwt>
<rscale>  0 0.19404151E+04</rscale>
<asrwt>0</asrwt>
<pdfrwt beam="1">  1        2 0.33763486E+00 0.19404151E+04</pdfrwt>
<pdfrwt beam="2">  1       -1 0.65986530E-01 0.19404151E+04</pdfrwt>
<totfact> 0.12865599E+01</totfact>
</mgrwt>
</event>
<event>
12    6  0.1627636E-007  0.1056865E+04  0.7818608E-02  0.9248285E-01
         -1   -1    0    0    0  501 -0.00000000000E+00  0.00000000000E+00  0.15341779835E+03  0.15341779835E+03  0.00000000000E+00 0.  1.
          2   -1    0    0  501    0  0.00000000000E+00 -0.00000000000E+00 -0.18201328296E+04  0.18201328296E+04  0.00000000000E+00 0. -1.
         24    2    1    2    0    0  0.40285102689E+02  0.11599261012E+03 -0.22282005797E+03  0.26606342311E+03  0.77870352422E+02 0.  0.
        254    2    1    2    0    0 -0.40285102689E+02 -0.11599261012E+03 -0.14438949733E+04  0.17074872048E+04  0.90310723932E+03 0.  0.
         23    2    4    4    0    0  0.29238371083E+03  0.25495303203E+03 -0.53956536312E+03  0.67100969066E+03  0.92919002278E+02 0.  0.
         23    2    4    4    0    0 -0.33266881352E+03 -0.37094564214E+03 -0.90432961017E+03  0.10364775142E+04  0.90578058409E+02 0.  0.
          2    1    3    3  502    0  0.46285943780E+02  0.91411508039E+02 -0.21718413486E+03  0.24014037733E+03  0.00000000000E+00 0. -1.
         -1    1    3    3    0  502 -0.60008410910E+01  0.24581102076E+02 -0.56359231103E+01  0.25923045777E+02  0.00000000000E+00 0.  1.
         11    1    5    5    0    0  0.27653510734E+03  0.20545952480E+03 -0.49154459177E+03  0.60025108715E+03  0.00000000000E+00 0. -1.
        -11    1    5    5    0    0  0.15848603491E+02  0.49493507230E+02 -0.48020771350E+02  0.70758603516E+02  0.00000000000E+00 0.  1.
          4    1    6    6  503    0 -0.17944507879E+03 -0.14391920799E+03 -0.46451454712E+03  0.51835030550E+03  0.00000000000E+00 0. -1.
         -4    1    6    6    0  503 -0.15322373473E+03 -0.22702643415E+03 -0.43981506305E+03  0.51812720868E+03  0.00000000000E+00 0.  1.
<mgrwt>
<rscale>  0 0.10568647E+04</rscale>
<asrwt>0</asrwt>
<pdfrwt beam="1">  1        2 0.28002045E+00 0.10568647E+04</pdfrwt>
<pdfrwt beam="2">  1       -1 0.23602737E-01 0.10568647E+04</pdfrwt>
<totfact> 0.14753624E+02</totfact>
</mgrwt>
</event>
<event>
12    6  0.1627636E-007  0.1455220E+04  0.7818608E-02  0.8914790E-01
         -1   -1    0    0    0  501 -0.00000000000E+00  0.00000000000E+00  0.26117030285E+03  0.26117030285E+03  0.00000000000E+00 0.  1.
          2   -1    0    0  501    0  0.00000000000E+00 -0.00000000000E+00 -0.20270924155E+04  0.20270924155E+04  0.00000000000E+00 0. -1.
         24    2    1    2    0    0 -0.18521582933E+03  0.22084107889E+02  0.84169915811E+02  0.22125174053E+03  0.84113891280E+02 0.  0.
        254    2    1    2    0    0  0.18521582933E+03 -0.22084107889E+02 -0.18500920285E+04  0.20670109778E+04  0.90271881414E+03 0.  0.
         23    2    4    4    0    0  0.10517950595E+01  0.25241934592E+03 -0.10580721761E+03  0.28932050052E+03  0.93779274148E+02 0.  0.
         23    2    4    4    0    0  0.18416403427E+03 -0.27450345380E+03 -0.17442848109E+04  0.17776904773E+04  0.91571797230E+02 0.  0.
          4    1    3    3  502    0 -0.53763064582E+02  0.13185246885E+02  0.69250092428E+02  0.88656038429E+02  0.00000000000E+00 0. -1.
         -3    1    3    3    0  502 -0.13145276475E+03  0.88988610036E+01  0.14919823383E+02  0.13259570210E+03  0.00000000000E+00 0.  1.
         11    1    5    5    0    0  0.35379181248E+02  0.39596335356E+02 -0.28789280247E+02  0.60401812031E+02  0.00000000000E+00 0. -1.
        -11    1    5    5    0    0 -0.34327386188E+02  0.21282301056E+03 -0.77017937367E+02  0.22891868849E+03  0.00000000000E+00 0.  1.
          2    1    6    6  503    0  0.40972055299E+02 -0.14024019536E+03 -0.79727457807E+03  0.81055090805E+03  0.00000000000E+00 0. -1.
         -2    1    6    6    0  503  0.14319197897E+03 -0.13426325844E+03 -0.94701023279E+03  0.96713956926E+03  0.00000000000E+00 0.  1.
<mgrwt>
<rscale>  0 0.14552200E+04</rscale>
<asrwt>0</asrwt>
<pdfrwt beam="1">  1        2 0.31186036E+00 0.14552200E+04</pdfrwt>
<pdfrwt beam="2">  1       -1 0.40180048E-01 0.14552200E+04</pdfrwt>
<totfact> 0.43070728E+01</totfact>
</mgrwt>
</event>
<event>
12    6  0.1627636E-007  0.2189297E+04  0.7818608E-02  0.8522896E-01
          2   -1    0    0  501    0  0.00000000000E+00  0.00000000000E+00  0.24621549208E+04  0.24621549208E+04  0.00000000000E+00 0. -1.
         -1   -1    0    0    0  501 -0.00000000000E+00 -0.00000000000E+00 -0.48666956750E+03  0.48666956750E+03  0.00000000000E+00 0.  1.
         24    2    1    2    0    0  0.13501629987E+03 -0.11327912648E+03 -0.38017184986E+03  0.42652700475E+03  0.79580705135E+02 0.  0.
        254    2    1    2    0    0 -0.13501629987E+03  0.11327912648E+03  0.23556572032E+04  0.25222974836E+04  0.88419577869E+03 0.  0.
         23    2    4    4    0    0 -0.23332575425E+03 -0.11969251042E+03  0.21879662228E+04  0.22055336567E+04  0.91735022346E+02 0.  0.
         23    2    4    4    0    0  0.98309454379E+02  0.23297163690E+03  0.16769098044E+03  0.31676382688E+03  0.90986398327E+02 0.  0.
          2    1    3    3  502    0  0.21092223134E+02  0.84356051391E+01 -0.80044915859E+02  0.83205948500E+02  0.00000000000E+00 0. -1.
         -3    1    3    3    0  502  0.11392407673E+03 -0.12171473162E+03 -0.30012693400E+03  0.34332105625E+03  0.00000000000E+00 0.  1.
         11    1    5    5    0    0 -0.17614633127E+03 -0.43556827344E+02  0.13368922999E+04  0.13491500097E+04  0.00000000000E+00 0. -1.
        -11    1    5    5    0    0 -0.57179422972E+02 -0.76135683073E+02  0.85107392291E+03  0.85638364703E+03  0.00000000000E+00 0.  1.
          4    1    6    6  503    0 -0.14096091548E+02  0.19638992164E+02  0.31896280924E+02  0.40022025773E+02  0.00000000000E+00 0. -1.
         -4    1    6    6    0  503  0.11240554593E+03  0.21333264473E+03  0.13579469952E+03  0.27674180111E+03  0.00000000000E+00 0.  1.
<mgrwt>
<rscale>  0 0.21892975E+04</rscale>
<asrwt>0</asrwt>
<pdfrwt beam="1">  1        2 0.37879306E+00 0.21892975E+04</pdfrwt>
<pdfrwt beam="2">  1       -1 0.74872243E-01 0.21892975E+04</pdfrwt>
<totfact> 0.68397636E+00</totfact>
</mgrwt>
</event>
<event>
12    6  0.1627636E-007  0.1293189E+04  0.7818608E-02  0.9034984E-01
          4   -1    0    0  501    0  0.00000000000E+00  0.00000000000E+00  0.27365259696E+03  0.27365259696E+03  0.00000000000E+00 0. -1.
         -1   -1    0    0    0  501 -0.00000000000E+00 -0.00000000000E+00 -0.15277927327E+04  0.15277927327E+04  0.00000000000E+00 0.  1.
         24    2    1    2    0    0 -0.83143530163E+02 -0.23293551236E+03 -0.31799039747E+02  0.26175895804E+03  0.79591291352E+02 0.  0.
        254    2    1    2    0    0  0.83143530163E+02  0.23293551236E+03 -0.12223410960E+04  0.15396863716E+04  0.90296432290E+03 0.  0.
         23    2    4    4    0    0  0.36124751915E+02  0.34277899821E+03 -0.52568987514E+02  0.36012447138E+03  0.90131554552E+02 0.  0.
         23    2    4    4    0    0  0.47018778248E+02 -0.10984348584E+03 -0.11697721085E+04  0.11795619002E+04  0.93397718459E+02 0.  0.
          4    1    3    3  502    0 -0.61390412336E+02 -0.15008690850E+03  0.17218463496E+02  0.16306850804E+03  0.00000000000E+00 0. -1.
         -3    1    3    3    0  502 -0.21753117827E+02 -0.82848603869E+02 -0.49017503244E+02  0.98690450006E+02  0.00000000000E+00 0.  1.
         11    1    5    5    0    0  0.42110952374E+02  0.34203334098E+03 -0.60780930584E+02  0.34993493706E+03  0.00000000000E+00 0.  1.
        -11    1    5    5    0    0 -0.59862004590E+01  0.74565722297E+00  0.82119430696E+01  0.10189534317E+02  0.00000000000E+00 0. -1.
          1    1    6    6  503    0  0.55516516829E+02 -0.20082211441E+02 -0.57025349708E+03  0.57330134292E+03  0.00000000000E+00 0. -1.
         -1    1    6    6    0  503 -0.84977385813E+01 -0.89761274402E+02 -0.59951861138E+03  0.60626055730E+03  0.00000000000E+00 0.  1.
<mgrwt>
<rscale>  0 0.12931890E+04</rscale>
<asrwt>0</asrwt>
<pdfrwt beam="1">  1        4 0.42100401E-01 0.12931890E+04</pdfrwt>
<pdfrwt beam="2">  1       -1 0.23504503E+00 0.12931890E+04</pdfrwt>
<totfact> 0.19927345E+00</totfact>
</mgrwt>
</event>
<event>
12    6  0.1627636E-007  0.1185279E+04  0.7818608E-02  0.9125840E-01
         -1   -1    0    0    0  501 -0.00000000000E+00  0.00000000000E+00  0.27957493336E+03  0.27957493336E+03  0.00000000000E+00 0.  1.
          2   -1    0    0  501    0  0.00000000000E+00 -0.00000000000E+00 -0.12562694650E+04  0.12562694650E+04  0.00000000000E+00 0. -1.
         24    2    1    2    0    0 -0.33293285912E+02 -0.13719138331E+02 -0.52140595750E+03  0.52873079401E+03  0.79971384761E+02 0.  0.
        254    2    1    2    0    0  0.33293285912E+02  0.13719138331E+02 -0.45528857416E+03  0.10071136044E+04  0.89760429405E+03 0.  0.
         23    2    4    4    0    0 -0.16417171253E+03  0.54454672767E+01 -0.67273670444E+03  0.69888762483E+03  0.94272129128E+02 0.  0.
         23    2    4    4    0    0  0.19746499844E+03  0.82736710545E+01  0.21744813029E+03  0.30822597953E+03  0.93052059905E+02 0.  0.
          2    1    3    3  502    0 -0.47103171285E+02 -0.95124503626E+01 -0.50323051038E+03  0.50551967522E+03  0.00000000000E+00 0. -1.
         -1    1    3    3    0  502  0.13809885374E+02 -0.42066879686E+01 -0.18175447115E+02  0.23211118791E+02  0.00000000000E+00 0.  1.
         11    1    5    5    0    0 -0.12972697835E+03 -0.36809894408E+02 -0.48444773533E+03  0.50286545468E+03  0.00000000000E+00 0.  1.
        -11    1    5    5    0    0 -0.34444734174E+02  0.42255361685E+02 -0.18828896911E+03  0.19602217016E+03  0.00000000000E+00 0. -1.
          2    1    6    6  503    0  0.45765301363E+02 -0.90436662678E+01  0.54498408392E+01  0.46967557671E+02  0.00000000000E+00 0. -1.
         -2    1    6    6    0  503  0.15169969707E+03  0.17317337322E+02  0.21199828945E+03  0.26125842186E+03  0.00000000000E+00 0.  1.
<mgrwt>
<rscale>  0 0.11852788E+04</rscale>
<asrwt>0</asrwt>
<pdfrwt beam="1">  1        2 0.19327222E+00 0.11852788E+04</pdfrwt>
<pdfrwt beam="2">  1       -1 0.43011529E-01 0.11852788E+04</pdfrwt>
<totfact> 0.10513073E+02</totfact>
</mgrwt>
</event>
<event>
12    6  0.1627636E-007  0.2785254E+04  0.7818608E-02  0.8307861E-01
          2   -1    0    0  501    0  0.00000000000E+00  0.00000000000E+00  0.20057517415E+04  0.20057517415E+04  0.00000000000E+00 0. -1.
         -3   -1    0    0    0  501 -0.00000000000E+00 -0.00000000000E+00 -0.96692446852E+03  0.96692446852E+03  0.00000000000E+00 0.  1.
         24    2    1    2    0    0  0.74739336666E+02 -0.61611783602E+03 -0.68835419386E+03  0.93016593290E+03  0.78676618018E+02 0.  0.
        254    2    1    2    0    0 -0.74739336666E+02  0.61611783602E+03  0.17271814669E+04  0.20425102771E+04  0.89638454718E+03 0.  0.
         23    2    4    4    0    0  0.28385817563E+02  0.80565666494E+03  0.15541118558E+04  0.17533530084E+04  0.95366111178E+02 0.  0.
         23    2    4    4    0    0 -0.10312515423E+03 -0.18953882892E+03  0.17306961102E+03  0.28915726875E+03  0.84255983201E+02 0.  0.
          4    1    3    3  502    0  0.14473448070E+02 -0.58090013776E+02 -0.10345617636E+03  0.11952870294E+03  0.00000000000E+00 0. -1.
         -3    1    3    3    0  502  0.60265888595E+02 -0.55802782224E+03 -0.58489801750E+03  0.81063722996E+03  0.00000000000E+00 0.  1.
         11    1    5    5    0    0  0.37974941213E+02  0.79756847333E+03  0.15381629033E+04  0.17330616500E+04  0.00000000000E+00 0.  1.
        -11    1    5    5    0    0 -0.95891236502E+01  0.80881916137E+01  0.15948952559E+02  0.20291358350E+02  0.00000000000E+00 0. -1.
          1    1    6    6  503    0 -0.24292686900E+02  0.16148184158E+01  0.12538058614E+02  0.27385127152E+02  0.00000000000E+00 0. -1.
         -1    1    6    6    0  503 -0.78832467329E+02 -0.19115364734E+03  0.16053155241E+03  0.26177214160E+03  0.00000000000E+00 0.  1.
<mgrwt>
<rscale>  0 0.27852543E+04</rscale>
<asrwt>0</asrwt>
<pdfrwt beam="1">  1        2 0.30857719E+00 0.27852543E+04</pdfrwt>
<pdfrwt beam="2">  1       -3 0.14875761E+00 0.27852543E+04</pdfrwt>
<totfact> 0.12092150E+00</totfact>
</mgrwt>
</event>
<event>
12    6  0.1627636E-007  0.1587255E+04  0.7818608E-02  0.8828416E-01
          2   -1    0    0  501    0  0.00000000000E+00  0.00000000000E+00  0.16276727611E+04  0.16276727611E+04  0.00000000000E+00 0. -1.
         -1   -1    0    0    0  501 -0.00000000000E+00 -0.00000000000E+00 -0.38696023112E+03  0.38696023112E+03  0.00000000000E+00 0.  1.
         24    2    1    2    0    0 -0.50338371368E+03 -0.18117160799E+03  0.49347989626E+03  0.73168825884E+03  0.75013234676E+02 0.  0.
        254    2    1    2    0    0  0.50338371368E+03  0.18117160799E+03  0.74723263376E+03  0.12829447334E+04  0.89519398195E+03 0.  0.
         23    2    4    4    0    0 -0.19374935397E+03 -0.17693969399E+01  0.44929409779E+03  0.49804025605E+03  0.92935286118E+02 0.  0.
         23    2    4    4    0    0  0.69713306764E+03  0.18294100493E+03  0.29793853597E+03  0.78490447737E+03  0.88576193701E+02 0.  0.
          4    1    3    3  502    0 -0.39795060295E+03 -0.17379969365E+03  0.40621928834E+03  0.59463024320E+03  0.00000000000E+00 0. -1.
         -3    1    3    3    0  502 -0.10543311073E+03 -0.73719143388E+01  0.87260607917E+02  0.13705801564E+03  0.00000000000E+00 0.  1.
         11    1    5    5    0    0 -0.13968137556E+02  0.19500099825E+02  0.17087734601E+02  0.29450864737E+02  0.00000000000E+00 0. -1.
        -11    1    5    5    0    0 -0.17978121641E+03 -0.21269496764E+02  0.43220636319E+03  0.46858939131E+03  0.00000000000E+00 0.  1.
          1    1    6    6  503    0  0.60164545544E+02 -0.91505984417E+01  0.24857707715E+02  0.65737444621E+02  0.00000000000E+00 0. -1.
         -1    1    6    6    0  503  0.63696852210E+03  0.19209160337E+03  0.27308082825E+03  0.71916703275E+03  0.00000000000E+00 0.  1.
<mgrwt>
<rscale>  0 0.15872550E+04</rscale>
<asrwt>0</asrwt>
<pdfrwt beam="1">  1        2 0.25041119E+00 0.15872550E+04</pdfrwt>
<pdfrwt beam="2">  1       -1 0.59532344E-01 0.15872550E+04</pdfrwt>
<totfact> 0.33662288E+01</totfact>
</mgrwt>
</event>
<event>
12    6  0.1627636E-007  0.1744700E+04  0.7818608E-02  0.8736273E-01
          2   -1    0    0  501    0  0.00000000000E+00  0.00000000000E+00  0.13095006042E+04  0.13095006042E+04  0.00000000000E+00 0. -1.
         -1   -1    0    0    0  501 -0.00000000000E+00 -0.00000000000E+00 -0.58113351089E+03  0.58113351089E+03  0.00000000000E+00 0.  1.
         24    2    1    2    0    0  0.40906331348E+03  0.14234261905E+03 -0.23881011408E+03  0.50097064995E+03  0.79668725913E+02 0.  0.
        254    2    1    2    0    0 -0.40906331348E+03 -0.14234261905E+03  0.96717720743E+03  0.13896634652E+04  0.89896528310E+03 0.  0.
         23    2    4    4    0    0  0.18569303487E+03 -0.16040153707E+02 -0.38125219075E+02  0.21110981333E+03  0.91513011233E+02 0.  0.
         23    2    4    4    0    0 -0.59475634836E+03 -0.12630246534E+03  0.10053024265E+04  0.11785536518E+04  0.93103785413E+02 0.  0.
          2    1    3    3  502    0  0.31324543884E+03  0.73724268388E+02 -0.16183842399E+03  0.36020778473E+03  0.00000000000E+00 0. -1.
         -1    1    3    3    0  502  0.95817874645E+02  0.68618350658E+02 -0.76971690095E+02  0.14076286522E+03  0.00000000000E+00 0.  1.
         11    1    5    5    0    0  0.13770965831E+03 -0.41926486204E+02  0.10832435651E+01  0.14395469306E+03  0.00000000000E+00 0.  1.
        -11    1    5    5    0    0  0.47983376568E+02  0.25886332497E+02 -0.39208462640E+02  0.67155120279E+02  0.00000000000E+00 0. -1.
          3    1    6    6  503    0 -0.47123732004E+01  0.85189179701E+01  0.13190796857E+02  0.16394375446E+02  0.00000000000E+00 0. -1.
         -3    1    6    6    0  503 -0.59004397516E+03 -0.13482138331E+03  0.99211162964E+03  0.11621592764E+04  0.00000000000E+00 0.  1.
<mgrwt>
<rscale>  0 0.17447002E+04</rscale>
<asrwt>0</asrwt>
<pdfrwt beam="1">  1        2 0.20146163E+00 0.17447002E+04</pdfrwt>
<pdfrwt beam="2">  1       -1 0.89405156E-01 0.17447002E+04</pdfrwt>
<totfact> 0.21627179E+01</totfact>
</mgrwt>
</event>
<event>
12    6  0.1627636E-007  0.1233068E+04  0.7818608E-02  0.9084395E-01
          2   -1    0    0  501    0  0.00000000000E+00  0.00000000000E+00  0.85668239590E+03  0.85668239590E+03  0.00000000000E+00 0. -1.
         -1   -1    0    0    0  501 -0.00000000000E+00 -0.00000000000E+00 -0.44370491857E+03  0.44370491857E+03  0.00000000000E+00 0.  1.
         24    2    1    2    0    0 -0.14398144126E+03 -0.11030691934E+03  0.29853047677E+03  0.35798381251E+03  0.78317894360E+02 0.  0.
        254    2    1    2    0    0  0.14398144126E+03  0.11030691934E+03  0.11444700055E+03  0.94240350195E+03  0.91767530896E+03 0.  0.
         23    2    4    4    0    0  0.51997959208E+03  0.55320278670E+02 -0.13337256323E+02  0.53106269802E+03  0.91709309299E+02 0.  0.
         23    2    4    4    0    0 -0.37599815082E+03  0.54986640666E+02  0.12778425688E+03  0.41134080393E+03  0.92055964493E+02 0.  0.
          2    1    3    3  502    0 -0.14302024895E+03 -0.83180308037E+02  0.27962233406E+03  0.32490368566E+03  0.00000000000E+00 0. -1.
         -1    1    3    3    0  502 -0.96119230926E+00 -0.27126611299E+02  0.18908142717E+02  0.33080126847E+02  0.00000000000E+00 0.  1.
         11    1    5    5    0    0  0.13576883577E+03 -0.12908539385E+02 -0.33101345137E+02  0.14034067909E+03  0.00000000000E+00 0. -1.
        -11    1    5    5    0    0  0.38421075631E+03  0.68228818056E+02  0.19764088814E+02  0.39072201894E+03  0.00000000000E+00 0.  1.
          2    1    6    6  503    0 -0.99648466555E+02  0.28262624736E+02  0.77075040355E+02  0.12910908059E+03  0.00000000000E+00 0. -1.
         -2    1    6    6    0  503 -0.27634968427E+03  0.26724015930E+02  0.50709216521E+02  0.28223172335E+03  0.00000000000E+00 0.  1.
<mgrwt>
<rscale>  0 0.12330680E+04</rscale>
<asrwt>0</asrwt>
<pdfrwt beam="1">  1        2 0.13179729E+00 0.12330680E+04</pdfrwt>
<pdfrwt beam="2">  1       -1 0.68262295E-01 0.12330680E+04</pdfrwt>
<totfact> 0.76676928E+01</totfact>
</mgrwt>
</event>
<event>
12    6  0.1627636E-007  0.2870836E+04  0.7818608E-02  0.8281608E-01
         -1   -1    0    0    0  501 -0.00000000000E+00  0.00000000000E+00  0.97385853119E+03  0.97385853119E+03  0.00000000000E+00 0.  1.
          2   -1    0    0  501    0  0.00000000000E+00 -0.00000000000E+00 -0.21157336191E+04  0.21157336191E+04  0.00000000000E+00 0. -1.
         24    2    1    2    0    0 -0.69822403622E+01  0.56696580854E+03 -0.17662778398E+04  0.18567278475E+04  0.78752222799E+02 0.  0.
        254    2    1    2    0    0  0.69822403622E+01 -0.56696580854E+03  0.62440275195E+03  0.12328643027E+04  0.89920888150E+03 0.  0.
         23    2    4    4    0    0 -0.32310108168E+03 -0.26704598333E+03 -0.36428843529E+02  0.43032291579E+03  0.90237935559E+02 0.  0.
         23    2    4    4    0    0  0.33008332205E+03 -0.29991982521E+03  0.66083159547E+03  0.80254138694E+03  0.92018362964E+02 0.  0.
          4    1    3    3  502    0 -0.38328624049E+02  0.27550264855E+03 -0.80122526910E+03  0.84813485050E+03  0.00000000000E+00 0. -1.
         -3    1    3    3    0  502  0.31346383687E+02  0.29146315999E+03 -0.96505257072E+03  0.10085929970E+04  0.00000000000E+00 0.  1.
         11    1    5    5    0    0 -0.16749161062E+03 -0.18274545826E+03  0.73971278009E+01  0.24800012025E+03  0.00000000000E+00 0. -1.
        -11    1    5    5    0    0 -0.15560947106E+03 -0.84300525076E+02 -0.43825971330E+02  0.18232279554E+03  0.00000000000E+00 0.  1.
          4    1    6    6  503    0  0.64787963155E+02 -0.28325906580E+02  0.65104133215E+02  0.96116519470E+02  0.00000000000E+00 0. -1.
         -4    1    6    6    0  503  0.26529535889E+03 -0.27159391863E+03  0.59572746226E+03  0.70642486747E+03  0.00000000000E+00 0.  1.
<mgrwt>
<rscale>  0 0.28708363E+04</rscale>
<asrwt>0</asrwt>
<pdfrwt beam="1">  1        2 0.32549747E+00 0.28708363E+04</pdfrwt>
<pdfrwt beam="2">  1       -1 0.14982439E+00 0.28708363E+04</pdfrwt>
<totfact> 0.19828876E+00</totfact>
</mgrwt>
</event>
<event>
12    6  0.1627636E-007  0.1522560E+04  0.7818608E-02  0.8869588E-01
          2   -1    0    0  501    0  0.00000000000E+00  0.00000000000E+00  0.18994145796E+04  0.18994145796E+04  0.00000000000E+00 0. -1.
         -1   -1    0    0    0  501 -0.00000000000E+00 -0.00000000000E+00 -0.30511897341E+03  0.30511897341E+03  0.00000000000E+00 0.  1.
         24    2    1    2    0    0  0.19140198936E+03 -0.44624874031E+03  0.63433507033E+03  0.80287382102E+03  0.80328894412E+02 0.  0.
        254    2    1    2    0    0 -0.19140198936E+03  0.44624874031E+03  0.95996053587E+03  0.14016597320E+04  0.89852830457E+03 0.  0.
         23    2    4    4    0    0  0.25883668773E+02 -0.72207795956E+02 -0.12758258750E+03  0.17398882172E+03  0.90060331676E+02 0.  0.
         23    2    4    4    0    0 -0.21728565814E+03  0.51845653627E+03  0.10875431234E+04  0.12276709103E+04  0.91736478745E+02 0.  0.
          4    1    3    3  502    0  0.29356365108E+02 -0.11643370126E+03  0.20663425631E+03  0.23899020658E+03  0.00000000000E+00 0. -1.
         -3    1    3    3    0  502  0.16204562426E+03 -0.32981503906E+03  0.42770081402E+03  0.56388361444E+03  0.00000000000E+00 0.  1.
         11    1    5    5    0    0  0.11921600519E+01 -0.29820857022E+02 -0.12084286391E+03  0.12447370211E+03  0.00000000000E+00 0. -1.
        -11    1    5    5    0    0  0.24691508721E+02 -0.42386938933E+02 -0.67397235911E+01  0.49515119602E+02  0.00000000000E+00 0.  1.
          3    1    6    6  503    0 -0.54861968099E+02  0.55000541891E+02  0.12720392499E+03  0.14904943370E+03  0.00000000000E+00 0. -1.
         -3    1    6    6    0  503 -0.16242369004E+03  0.46345599438E+03  0.96033919838E+03  0.10786214766E+04  0.00000000000E+00 0.  1.
<mgrwt>
<rscale>  0 0.15225602E+04</rscale>
<asrwt>0</asrwt>
<pdfrwt beam="1">  1        2 0.29221762E+00 0.15225602E+04</pdfrwt>
<pdfrwt beam="2">  1       -1 0.46941382E-01 0.15225602E+04</pdfrwt>
<totfact> 0.37779077E+01</totfact>
</mgrwt>
</event>
<event>
12    6  0.1627636E-007  0.1597860E+04  0.7818608E-02  0.8821864E-01
          2   -1    0    0  501    0  0.00000000000E+00  0.00000000000E+00  0.17328338247E+04  0.17328338247E+04  0.00000000000E+00 0. -1.
         -1   -1    0    0    0  501 -0.00000000000E+00 -0.00000000000E+00 -0.36834973342E+03  0.36834973342E+03  0.00000000000E+00 0.  1.
         24    2    1    2    0    0  0.30303302443E+03  0.13013841053E+03 -0.95679808484E+02  0.35226182468E+03  0.78541374985E+02 0.  0.
        254    2    1    2    0    0 -0.30303302443E+03 -0.13013841053E+03  0.14601638997E+04  0.17489217334E+04  0.90436917006E+03 0.  0.
         23    2    4    4    0    0  0.11340184719E+03  0.26375221552E+03  0.20199970931E+03  0.36327347355E+03  0.93480072138E+02 0.  0.
         23    2    4    4    0    0 -0.41643487162E+03 -0.39389062605E+03  0.12581641904E+04  0.13856482599E+04  0.92065967827E+02 0.  0.
          2    1    3    3  502    0  0.13638662210E+03  0.16722022250E+02 -0.36431677341E+02  0.14215556208E+03  0.00000000000E+00 0. -1.
         -1    1    3    3    0  502  0.16664640233E+03  0.11341638828E+03 -0.59248131143E+02  0.21010626260E+03  0.00000000000E+00 0.  1.
         11    1    5    5    0    0 -0.49075402854E+01  0.34867881954E+02 -0.10500554479E+01  0.35227201990E+02  0.00000000000E+00 0. -1.
        -11    1    5    5    0    0  0.11830938748E+03  0.22888433357E+03  0.20304976476E+03  0.32804627156E+03  0.00000000000E+00 0.  1.
          1    1    6    6  503    0 -0.16269909070E+03 -0.13290463776E+03  0.56363827468E+03  0.60151703346E+03  0.00000000000E+00 0. -1.
         -1    1    6    6    0  503 -0.25373578092E+03 -0.26098598829E+03  0.69452591575E+03  0.78413122642E+03  0.00000000000E+00 0.  1.
<mgrwt>
<rscale>  0 0.15978597E+04</rscale>
<asrwt>0</asrwt>
<pdfrwt beam="1">  1        2 0.26658981E+00 0.15978597E+04</pdfrwt>
<pdfrwt beam="2">  1       -1 0.56669191E-01 0.15978597E+04</pdfrwt>
<totfact> 0.32379961E+01</totfact>
</mgrwt>
</event>
<event>
12    6  0.1627636E-007  0.1591434E+04  0.7818608E-02  0.8825828E-01
         -1   -1    0    0    0  501 -0.00000000000E+00  0.00000000000E+00  0.44738519243E+03  0.44738519243E+03  0.00000000000E+00 0.  1.
          2   -1    0    0  501    0  0.00000000000E+00 -0.00000000000E+00 -0.14152586134E+04  0.14152586134E+04  0.00000000000E+00 0. -1.
         24    2    1    2    0    0  0.33129336267E+03  0.26040342341E+02  0.16226820991E+03  0.37887910684E+03  0.82371196892E+02 0.  0.
        254    2    1    2    0    0 -0.33129336267E+03 -0.26040342341E+02 -0.11301416309E+04  0.14837646990E+04  0.90216638407E+03 0.  0.
         23    2    4    4    0    0 -0.62735480343E+03 -0.10095899516E+03 -0.78071043725E+03  0.10107720758E+04  0.91567648602E+02 0.  0.
         23    2    4    4    0    0  0.29606144076E+03  0.74918652814E+02 -0.34943119361E+03  0.47299262319E+03  0.91403945624E+02 0.  0.
          4    1    3    3  502    0  0.65412894779E+01 -0.10708988146E+02 -0.26141866957E+01  0.12818146014E+02  0.00000000000E+00 0. -1.
         -3    1    3    3    0  502  0.32475207319E+03  0.36749330488E+02  0.16488239660E+03  0.36606096083E+03  0.00000000000E+00 0.  1.
         11    1    5    5    0    0 -0.56127647432E+03 -0.10827292643E+03 -0.72990087800E+03  0.92709740531E+03  0.00000000000E+00 0. -1.
        -11    1    5    5    0    0 -0.66078329109E+02  0.73139312750E+01 -0.50809559248E+02  0.83674670477E+02  0.00000000000E+00 0.  1.
          2    1    6    6  503    0  0.24556293798E+03  0.38213902659E+02 -0.31650272592E+03  0.40241202067E+03  0.00000000000E+00 0. -1.
         -2    1    6    6    0  503  0.50498502784E+02  0.36704750155E+02 -0.32928467694E+02  0.70580602519E+02  0.00000000000E+00 0.  1.
<mgrwt>
<rscale>  0 0.15914343E+04</rscale>
<asrwt>0</asrwt>
<pdfrwt beam="1">  1        2 0.21773210E+00 0.15914343E+04</pdfrwt>
<pdfrwt beam="2">  1       -1 0.68828491E-01 0.15914343E+04</pdfrwt>
<totfact> 0.33129012E+01</totfact>
</mgrwt>
</event>
<event>
12    6  0.1627636E-007  0.2100768E+04  0.7818608E-02  0.8560905E-01
          2   -1    0    0  501    0  0.00000000000E+00  0.00000000000E+00  0.85923315832E+03  0.85923315832E+03  0.00000000000E+00 0. -1.
         -1   -1    0    0    0  501 -0.00000000000E+00 -0.00000000000E+00 -0.12840601137E+04  0.12840601137E+04  0.00000000000E+00 0.  1.
         24    2    1    2    0    0  0.45105563205E+03 -0.70556737859E+03 -0.35171541888E+03  0.91172890399E+03  0.79179224338E+02 0.  0.
        254    2    1    2    0    0 -0.45105563205E+03  0.70556737859E+03 -0.73111536461E+02  0.12315643680E+04  0.90007165647E+03 0.  0.
         23    2    4    4    0    0 -0.63033686648E+03  0.58365000095E+03 -0.29130872760E+03  0.91167884928E+03  0.91245057955E+02 0.  0.
         23    2    4    4    0    0  0.17928123442E+03  0.12191737764E+03  0.21819719114E+03  0.31988551870E+03  0.87812999407E+02 0.  0.
          2    1    3    3  502    0  0.39103564425E+03 -0.61309796796E+03 -0.33342458758E+03  0.79998121790E+03  0.00000000000E+00 0. -1.
         -1    1    3    3    0  502  0.60019987800E+02 -0.92469410622E+02 -0.18290831298E+02  0.11174768609E+03  0.00000000000E+00 0.  1.
         11    1    5    5    0    0 -0.42336510631E+02  0.55188155879E+02 -0.47980433016E+02  0.84499909078E+02  0.00000000000E+00 0.  1.
        -11    1    5    5    0    0 -0.58800035585E+03  0.52846184507E+03 -0.24332829459E+03  0.82717894020E+03  0.00000000000E+00 0. -1.
          4    1    6    6  503    0  0.16571879392E+03  0.99091024018E+02  0.14338565043E+03  0.24050196350E+03  0.00000000000E+00 0. -1.
         -4    1    6    6    0  503  0.13562440505E+02  0.22826353622E+02  0.74811540717E+02  0.79383555202E+02  0.00000000000E+00 0.  1.
<mgrwt>
<rscale>  0 0.21007685E+04</rscale>
<asrwt>0</asrwt>
<pdfrwt beam="1">  1        2 0.13218972E+00 0.21007685E+04</pdfrwt>
<pdfrwt beam="2">  1       -1 0.19754771E+00 0.21007685E+04</pdfrwt>
<totfact> 0.51451903E+00</totfact>
</mgrwt>
</event>
<event>
12    6  0.1627636E-007  0.2513224E+04  0.7818608E-02  0.8398289E-01
          2   -1    0    0  501    0  0.00000000000E+00  0.00000000000E+00  0.15403343464E+04  0.15403343464E+04  0.00000000000E+00 0. -1.
         -1   -1    0    0    0  501 -0.00000000000E+00 -0.00000000000E+00 -0.10251500317E+04  0.10251500317E+04  0.00000000000E+00 0.  1.
         24    2    1    2    0    0  0.49762613765E+03 -0.51830773005E+03 -0.56788135790E+03  0.91928349562E+03  0.79487312080E+02 0.  0.
        254    2    1    2    0    0 -0.49762613765E+03  0.51830773005E+03  0.10830656726E+04  0.16462008825E+04  0.10102828407E+04 0.  0.
         23    2    4    4    0    0 -0.12283839888E+03  0.75637289870E+03  0.80155258326E+03  0.11126351494E+04  0.91001087037E+02 0.  0.
         23    2    4    4    0    0 -0.37478773877E+03 -0.23806516865E+03  0.28151308939E+03  0.53356573305E+03  0.91114753628E+02 0.  0.
          4    1    3    3  502    0  0.51211356905E+02 -0.75972119066E+02 -0.46668602200E+02  0.10282180889E+03  0.00000000000E+00 0. -1.
         -3    1    3    3    0  502  0.44641478074E+03 -0.44233561098E+03 -0.52121275570E+03  0.81646168674E+03  0.00000000000E+00 0.  1.
         11    1    5    5    0    0 -0.82729155129E+02  0.68210450486E+03  0.72074305233E+03  0.99578171109E+03  0.00000000000E+00 0.  1.
        -11    1    5    5    0    0 -0.40109243751E+02  0.74268393839E+02  0.80809530928E+02  0.11685343832E+03  0.00000000000E+00 0. -1.
          1    1    6    6  503    0  0.47752398636E+01 -0.16289399769E+01  0.77291122864E+01  0.92301428991E+01  0.00000000000E+00 0. -1.
         -1    1    6    6    0  503 -0.37956297863E+03 -0.23643622868E+03  0.27378397710E+03  0.52433559015E+03  0.00000000000E+00 0.  1.
<mgrwt>
<rscale>  0 0.25132241E+04</rscale>
<asrwt>0</asrwt>
<pdfrwt beam="1">  1        2 0.23697451E+00 0.25132241E+04</pdfrwt>
<pdfrwt beam="2">  1       -1 0.15771539E+00 0.25132241E+04</pdfrwt>
<totfact> 0.37179627E+00</totfact>
</mgrwt>
</event>
<event>
12    6  0.1627636E-007  0.1177628E+04  0.7818608E-02  0.9132667E-01
         -1   -1    0    0    0  501 -0.00000000000E+00  0.00000000000E+00  0.95945615360E+03  0.95945615360E+03  0.00000000000E+00 0.  1.
          2   -1    0    0  501    0  0.00000000000E+00 -0.00000000000E+00 -0.36135239178E+03  0.36135239178E+03  0.00000000000E+00 0. -1.
         24    2    1    2    0    0  0.27715323235E+03  0.10245658059E+03  0.19602142878E+03  0.36294502499E+03  0.77417217152E+02 0.  0.
        254    2    1    2    0    0 -0.27715323235E+03 -0.10245658059E+03  0.40208233304E+03  0.95786352039E+03  0.81763136928E+03 0.  0.
         23    2    4    4    0    0 -0.42333186444E+03 -0.28220080601E+03  0.47291356326E+03  0.70083669763E+03  0.93154044789E+02 0.  0.
         23    2    4    4    0    0  0.14617863209E+03  0.17974422542E+03 -0.70831230221E+02  0.25702682276E+03  0.85846056352E+02 0.  0.
          4    1    3    3  502    0  0.51822616483E+02  0.34829318022E+02  0.10455782798E+02  0.63308675290E+02  0.00000000000E+00 0. -1.
         -3    1    3    3    0  502  0.22533061587E+03  0.67627262570E+02  0.18556564598E+03  0.29963634970E+03  0.00000000000E+00 0.  1.
         11    1    5    5    0    0 -0.20204166860E+02 -0.99142568375E+01  0.17656592558E+00  0.22506266298E+02  0.00000000000E+00 0.  1.
        -11    1    5    5    0    0 -0.40312769758E+03 -0.27228654918E+03  0.47273699733E+03  0.67833043133E+03  0.00000000000E+00 0. -1.
          1    1    6    6  503    0  0.78673368579E+02  0.48802410591E+02 -0.57779598451E+02  0.10913137129E+03  0.00000000000E+00 0.  1.
         -1    1    6    6    0  503  0.67505263511E+02  0.13094181483E+03 -0.13051631770E+02  0.14789545147E+03  0.00000000000E+00 0. -1.
<mgrwt>
<rscale>  0 0.11776277E+04</rscale>
<asrwt>0</asrwt>
<pdfrwt beam="1">  1        2 0.55592676E-01 0.11776277E+04</pdfrwt>
<pdfrwt beam="2">  1       -1 0.14760864E+00 0.11776277E+04</pdfrwt>
<totfact> 0.36755570E+01</totfact>
</mgrwt>
</event>
<event>
12    6  0.1627636E-007  0.2101180E+04  0.7818608E-02  0.8560724E-01
         -1   -1    0    0    0  501 -0.00000000000E+00  0.00000000000E+00  0.86512416903E+03  0.86512416903E+03  0.00000000000E+00 0.  1.
          2   -1    0    0  501    0  0.00000000000E+00 -0.00000000000E+00 -0.12758158378E+04  0.12758158378E+04  0.00000000000E+00 0. -1.
         24    2    1    2    0    0  0.26419387566E+03  0.60765529715E+03  0.37612968787E+03  0.76605600727E+03  0.79529240455E+02 0.  0.
        254    2    1    2    0    0 -0.26419387566E+03 -0.60765529715E+03 -0.78682135660E+03  0.13748839995E+04  0.91223615411E+03 0.  0.
         23    2    4    4    0    0  0.32499856504E+03 -0.13590779006E+03 -0.20979660040E+03  0.42034910105E+03  0.92648575455E+02 0.  0.
         23    2    4    4    0    0 -0.58919244071E+03 -0.47174750709E+03 -0.57702475620E+03  0.95453489848E+03  0.92118730559E+02 0.  0.
          4    1    3    3  502    0  0.24862617808E+02  0.25901478449E+02  0.66508226489E+01  0.36513967082E+02  0.00000000000E+00 0. -1.
         -3    1    3    3    0  502  0.23933125785E+03  0.58175381870E+03  0.36947886522E+03  0.72954204019E+03  0.00000000000E+00 0.  1.
         11    1    5    5    0    0  0.30961098909E+03 -0.14113978385E+03 -0.21591011116E+03  0.40298458935E+03  0.00000000000E+00 0.  1.
        -11    1    5    5    0    0  0.15387575953E+02  0.52319937897E+01  0.61135107626E+01  0.17364511699E+02  0.00000000000E+00 0. -1.
          3    1    6    6  503    0 -0.36569952039E+03 -0.31256654803E+03 -0.41858944515E+03  0.63769201794E+03  0.00000000000E+00 0. -1.
         -3    1    6    6    0  503 -0.22349292031E+03 -0.15918095906E+03 -0.15843531105E+03  0.31684288053E+03  0.00000000000E+00 0.  1.
<mgrwt>
<rscale>  0 0.21011798E+04</rscale>
<asrwt>0</asrwt>
<pdfrwt beam="1">  1        2 0.19627936E+00 0.21011798E+04</pdfrwt>
<pdfrwt beam="2">  1       -1 0.13309603E+00 0.21011798E+04</pdfrwt>
<totfact> 0.85702168E+00</totfact>
</mgrwt>
</event>
<event>
12    6  0.1627636E-007  0.1396879E+04  0.7818608E-02  0.8956081E-01
         -1   -1    0    0    0  501 -0.00000000000E+00  0.00000000000E+00  0.21978761514E+03  0.21978761514E+03  0.00000000000E+00 0.  1.
          2   -1    0    0  501    0  0.00000000000E+00 -0.00000000000E+00 -0.22194957743E+04  0.22194957743E+04  0.00000000000E+00 0. -1.
         24    2    1    2    0    0  0.95462498560E+02 -0.23978040524E+03 -0.49192108957E+02  0.27321033152E+03  0.74941912830E+02 0.  0.
        254    2    1    2    0    0 -0.95462498560E+02  0.23978040524E+03 -0.19505160502E+04  0.21660730579E+04  0.90595358532E+03 0.  0.
         23    2    4    4    0    0  0.67399254843E+02 -0.29540932592E+03 -0.37478721428E+03  0.49153378409E+03  0.96595421883E+02 0.  0.
         23    2    4    4    0    0 -0.16286175340E+03  0.53518973116E+03 -0.15757288359E+04  0.16745392738E+04  0.90600309884E+02 0.  0.
          4    1    3    3  502    0  0.17748811188E+01 -0.67917912234E+02 -0.36339389694E+02  0.77048973053E+02  0.00000000000E+00 0. -1.
         -3    1    3    3    0  502  0.93687617442E+02 -0.17186249301E+03 -0.12852719263E+02  0.19616135847E+03  0.00000000000E+00 0.  1.
         11    1    5    5    0    0  0.15726863349E+02 -0.71111348918E+02 -0.34192598402E+02  0.80456770760E+02  0.00000000000E+00 0. -1.
        -11    1    5    5    0    0  0.51672391493E+02 -0.22429797700E+03 -0.34059461588E+03  0.41107701333E+03  0.00000000000E+00 0.  1.
          3    1    6    6  503    0 -0.27674681406E+02  0.35815776642E+02 -0.19190812387E+03  0.19717349176E+03  0.00000000000E+00 0. -1.
         -3    1    6    6    0  503 -0.13518707200E+03  0.49937395451E+03 -0.13838207120E+04  0.14773657820E+04  0.00000000000E+00 0.  1.
<mgrwt>
<rscale>  0 0.13968789E+04</rscale>
<asrwt>0</asrwt>
<pdfrwt beam="1">  1        2 0.34146089E+00 0.13968789E+04</pdfrwt>
<pdfrwt beam="2">  1       -1 0.33813479E-01 0.13968789E+04</pdfrwt>
<totfact> 0.46159627E+01</totfact>
</mgrwt>
</event>
<event>
12    6  0.1627636E-007  0.3721544E+04  0.7818608E-02  0.8063204E-01
         -1   -1    0    0    0  501 -0.00000000000E+00  0.00000000000E+00  0.33816088942E+04  0.33816088942E+04  0.00000000000E+00 0.  1.
          2   -1    0    0  501    0  0.00000000000E+00 -0.00000000000E+00 -0.10239124705E+04  0.10239124705E+04  0.00000000000E+00 0. -1.
         24    2    1    2    0    0  0.79066774934E+02 -0.37706781615E+03 -0.91118639260E+03  0.99267639437E+03  0.81939544787E+02 0.  0.
        254    2    1    2    0    0 -0.79066774934E+02  0.37706781615E+03  0.32688828163E+04  0.34128449704E+04  0.90193360752E+03 0.  0.
         23    2    4    4    0    0 -0.45047943302E+03  0.29758271212E+02  0.14232421031E+04  0.14963263580E+04  0.97760990127E+02 0.  0.
         23    2    4    4    0    0  0.37141265808E+03  0.34730954494E+03  0.18456407132E+04  0.19165186124E+04  0.89903654136E+02 0.  0.
          2    1    3    3  502    0  0.81981568018E+02 -0.24337819372E+03 -0.65811317915E+03  0.70644665704E+03  0.00000000000E+00 0. -1.
         -1    1    3    3    0  502 -0.29147930846E+01 -0.13368962243E+03 -0.25307321345E+03  0.28622973733E+03  0.00000000000E+00 0.  1.
         11    1    5    5    0    0 -0.15060909371E+02 -0.15776906352E+02  0.10655879656E+03  0.10876818878E+03  0.00000000000E+00 0. -1.
        -11    1    5    5    0    0 -0.43541852365E+03  0.45535177564E+02  0.13166833066E+04  0.13875581692E+04  0.00000000000E+00 0.  1.
          3    1    6    6  503    0  0.78055097039E+02  0.28671839947E+02  0.31248316524E+03  0.32335800769E+03  0.00000000000E+00 0. -1.
         -3    1    6    6    0  503  0.29335756104E+03  0.31863770499E+03  0.15331575479E+04  0.15931606047E+04  0.00000000000E+00 0.  1.
<mgrwt>
<rscale>  0 0.37215435E+04</rscale>
<asrwt>0</asrwt>
<pdfrwt beam="1">  1        2 0.15752500E+00 0.37215435E+04</pdfrwt>
<pdfrwt beam="2">  1       -1 0.52024752E+00 0.37215435E+04</pdfrwt>
<totfact> 0.24852781E-02</totfact>
</mgrwt>
</event>
<event>
12    6  0.1627636E-007  0.1741510E+04  0.7818608E-02  0.8738038E-01
         -1   -1    0    0    0  501 -0.00000000000E+00  0.00000000000E+00  0.85008369412E+03  0.85008369412E+03  0.00000000000E+00 0.  1.
          2   -1    0    0  501    0  0.00000000000E+00 -0.00000000000E+00 -0.89192851677E+03  0.89192851677E+03  0.00000000000E+00 0. -1.
         24    2    1    2    0    0 -0.45898050149E+02  0.16651053318E+02  0.62022337821E+03  0.62694543016E+03  0.77457375041E+02 0.  0.
        254    2    1    2    0    0  0.45898050149E+02 -0.16651053318E+02 -0.66206820085E+03  0.11150667807E+04  0.89591056157E+03 0.  0.
         23    2    4    4    0    0 -0.28876109521E+03  0.26666830322E+03 -0.49062165437E+03  0.63513800280E+03  0.90530220489E+02 0.  0.
         23    2    4    4    0    0  0.33465914536E+03 -0.28331935653E+03 -0.17144654648E+03  0.47992877793E+03  0.93118807036E+02 0.  0.
          2    1    3    3  502    0  0.21311041415E+02 -0.20086185711E+01  0.17209845227E+03  0.17342454356E+03  0.00000000000E+00 0. -1.
         -1    1    3    3    0  502 -0.67209091564E+02  0.18659671889E+02  0.44812492593E+03  0.45352088661E+03  0.00000000000E+00 0.  1.
         11    1    5    5    0    0 -0.23547918783E+03  0.18089086354E+03 -0.40828891218E+03  0.50484828238E+03  0.00000000000E+00 0. -1.
        -11    1    5    5    0    0 -0.53281907379E+02  0.85777439676E+02 -0.82332742189E+02  0.13028972042E+03  0.00000000000E+00 0.  1.
          3    1    6    6  503    0  0.21752086905E+03 -0.12365928233E+03 -0.93188724047E+02  0.26700390422E+03  0.00000000000E+00 0. -1.
         -3    1    6    6    0  503  0.11713827631E+03 -0.15966007421E+03 -0.78257822437E+02  0.21292487371E+03  0.00000000000E+00 0.  1.
<mgrwt>
<rscale>  0 0.17415096E+04</rscale>
<asrwt>0</asrwt>
<pdfrwt beam="1">  1        2 0.13721977E+00 0.17415096E+04</pdfrwt>
<pdfrwt beam="2">  1       -1 0.13078211E+00 0.17415096E+04</pdfrwt>
<totfact> 0.16056935E+01</totfact>
</mgrwt>
</event>
<event>
12    6  0.1627636E-007  0.1062032E+04  0.7818608E-02  0.9243009E-01
         -1   -1    0    0    0  501 -0.00000000000E+00  0.00000000000E+00  0.60316490141E+03  0.60316490141E+03  0.00000000000E+00 0.  1.
          2   -1    0    0  501    0  0.00000000000E+00 -0.00000000000E+00 -0.46749778847E+03  0.46749778847E+03  0.00000000000E+00 0. -1.
         24    2    1    2    0    0  0.87380272091E+02  0.10117225097E+03  0.74297147244E+02  0.17214404807E+03  0.79008675992E+02 0.  0.
        254    2    1    2    0    0 -0.87380272091E+02 -0.10117225097E+03  0.61369965700E+02  0.89851864180E+03  0.88639626616E+03 0.  0.
         23    2    4    4    0    0  0.86618962798E+02  0.29292292667E+03  0.26265022999E+03  0.41509620307E+03  0.10006512283E+03 0.  0.
         23    2    4    4    0    0 -0.17399923489E+03 -0.39409517764E+03 -0.20128026429E+03  0.48342243873E+03  0.87159432614E+02 0.  0.
          2    1    3    3  502    0  0.64043947988E+02  0.99132291402E+02  0.29592838838E+02  0.12167405057E+03  0.00000000000E+00 0. -1.
         -1    1    3    3    0  502  0.23336324103E+02  0.20399595678E+01  0.44704308406E+02  0.50469997501E+02  0.00000000000E+00 0.  1.
         11    1    5    5    0    0  0.41639529779E+01  0.26173767886E+01  0.39403891852E+02  0.39709644405E+02  0.00000000000E+00 0. -1.
        -11    1    5    5    0    0  0.82455009820E+02  0.29030554988E+03  0.22324633814E+03  0.37538655867E+03  0.00000000000E+00 0.  1.
          3    1    6    6  503    0 -0.41632068546E+02 -0.10514545807E+03 -0.96815403024E+02  0.14886913296E+03  0.00000000000E+00 0. -1.
         -3    1    6    6    0  503 -0.13236716634E+03 -0.28894971957E+03 -0.10446486127E+03  0.33455330577E+03  0.00000000000E+00 0.  1.
<mgrwt>
<rscale>  0 0.10620325E+04</rscale>
<asrwt>0</asrwt>
<pdfrwt beam="1">  1        2 0.71922737E-01 0.10620325E+04</pdfrwt>
<pdfrwt beam="2">  1       -1 0.92794600E-01 0.10620325E+04</pdfrwt>
<totfact> 0.85566109E+01</totfact>
</mgrwt>
</event>
<event>
12    6  0.1627636E-007  0.3622991E+04  0.7818608E-02  0.8085246E-01
          2   -1    0    0  501    0  0.00000000000E+00  0.00000000000E+00  0.17205800009E+04  0.17205800009E+04  0.00000000000E+00 0. -1.
         -1   -1    0    0    0  501 -0.00000000000E+00 -0.00000000000E+00 -0.19072150571E+04  0.19072150571E+04  0.00000000000E+00 0.  1.
         24    2    1    2    0    0  0.66787936153E+03 -0.12613033312E+02 -0.16481856231E+04  0.17801528703E+04  0.78781111216E+02 0.  0.
        254    2    1    2    0    0 -0.66787936153E+03  0.12613033312E+02  0.14615505670E+04  0.18476421877E+04  0.91182765022E+03 0.  0.
         23    2    4    4    0    0 -0.79186590118E+03 -0.23843460734E+03  0.10228530359E+04  0.13179196312E+04  0.82347761096E+02 0.  0.
         23    2    4    4    0    0  0.12398653965E+03  0.25104764066E+03  0.43869753106E+03  0.52972255650E+03  0.98756686900E+02 0.  0.
          4    1    3    3  502    0  0.16942335569E+03 -0.37391983894E+02 -0.41519856840E+03  0.44999142782E+03  0.00000000000E+00 0. -1.
         -3    1    3    3    0  502  0.49845600584E+03  0.24778950582E+02 -0.12329870547E+04  0.13301614425E+04  0.00000000000E+00 0.  1.
         11    1    5    5    0    0 -0.61674105645E+03 -0.22071199884E+03  0.80885485688E+03  0.10408311566E+04  0.00000000000E+00 0.  1.
        -11    1    5    5    0    0 -0.17512484473E+03 -0.17722608499E+02  0.21399817901E+03  0.27708847452E+03  0.00000000000E+00 0. -1.
          3    1    6    6  503    0  0.60756479707E+02  0.31723656855E+02  0.95460355976E+02  0.11751774246E+03  0.00000000000E+00 0. -1.
         -3    1    6    6    0  503  0.63230059944E+02  0.21932398380E+03  0.34323717509E+03  0.41220481403E+03  0.00000000000E+00 0.  1.
<mgrwt>
<rscale>  0 0.36229911E+04</rscale>
<asrwt>0</asrwt>
<pdfrwt beam="1">  1        2 0.26470461E+00 0.36229911E+04</pdfrwt>
<pdfrwt beam="2">  1       -1 0.29341770E+00 0.36229911E+04</pdfrwt>
<totfact> 0.32218416E-01</totfact>
</mgrwt>
</event>
<event>
12    6  0.1627636E-007  0.1234949E+04  0.7818608E-02  0.9082804E-01
         -1   -1    0    0    0  501 -0.00000000000E+00  0.00000000000E+00  0.28865450559E+03  0.28865450559E+03  0.00000000000E+00 0.  1.
          2   -1    0    0  501    0  0.00000000000E+00 -0.00000000000E+00 -0.13208696489E+04  0.13208696489E+04  0.00000000000E+00 0. -1.
         24    2    1    2    0    0 -0.18157484230E+03  0.17695460994E+03 -0.98912792974E+02  0.28276956116E+03  0.76762795493E+02 0.  0.
        254    2    1    2    0    0  0.18157484230E+03 -0.17695460994E+03 -0.93330235030E+03  0.13267545933E+04  0.90826324180E+03 0.  0.
         23    2    4    4    0    0  0.11456107013E+03 -0.51359734848E+03 -0.76625691052E+03  0.93413592586E+03  0.92486755322E+02 0.  0.
         23    2    4    4    0    0  0.67013772173E+02  0.33664273854E+03 -0.16704543978E+03  0.39261866743E+03  0.91793572682E+02 0.  0.
          4    1    3    3  502    0 -0.11380205076E+01  0.35464598928E+02 -0.10316108177E+02  0.36952062943E+02  0.00000000000E+00 0. -1.
         -1    1    3    3    0  502 -0.18043682180E+03  0.14149001101E+03 -0.88596684796E+02  0.24581749822E+03  0.00000000000E+00 0.  1.
         11    1    5    5    0    0  0.74993624394E+02 -0.35120847424E+03 -0.44349894254E+03  0.57066868506E+03  0.00000000000E+00 0.  1.
        -11    1    5    5    0    0  0.39567445737E+02 -0.16238887424E+03 -0.32275796798E+03  0.36346724080E+03  0.00000000000E+00 0. -1.
          2    1    6    6  503    0  0.22262251385E+02  0.44990287962E+02 -0.61176960709E+02  0.79135038821E+02  0.00000000000E+00 0. -1.
         -2    1    6    6    0  503  0.44751520788E+02  0.29165245058E+03 -0.10586847907E+03  0.31348362861E+03  0.00000000000E+00 0.  1.
<mgrwt>
<rscale>  0 0.12349494E+04</rscale>
<asrwt>0</asrwt>
<pdfrwt beam="1">  1        2 0.20321072E+00 0.12349494E+04</pdfrwt>
<pdfrwt beam="2">  1       -1 0.44408385E-01 0.12349494E+04</pdfrwt>
<totfact> 0.90508657E+01</totfact>
</mgrwt>
</event>
<event>
12    6  0.1627636E-007  0.2250061E+04  0.7818608E-02  0.8497876E-01
          2   -1    0    0  501    0  0.00000000000E+00  0.00000000000E+00  0.21697824825E+04  0.21697824825E+04  0.00000000000E+00 0. -1.
         -1   -1    0    0    0  501 -0.00000000000E+00 -0.00000000000E+00 -0.58332744769E+03  0.58332744769E+03  0.00000000000E+00 0.  1.
         24    2    1    2    0    0  0.15629161506E+03  0.83749834634E+03  0.17415543973E+03  0.87303769854E+03  0.77679835382E+02 0.  0.
        254    2    1    2    0    0 -0.15629161506E+03 -0.83749834634E+03  0.14122995951E+04  0.18800722316E+04  0.90235852124E+03 0.  0.
         23    2    4    4    0    0 -0.47114730915E+03 -0.31432604822E+03  0.94552384367E+03  0.11060656043E+04  0.92655979669E+02 0.  0.
         23    2    4    4    0    0  0.31485569409E+03 -0.52317229812E+03  0.46677575138E+03  0.77400662731E+03  0.91451054788E+02 0.  0.
          2    1    3    3  502    0  0.10301666900E+01  0.12086546964E+03  0.76506786939E+01  0.12111174955E+03  0.00000000000E+00 0. -1.
         -1    1    3    3    0  502  0.15526144837E+03  0.71663287670E+03  0.16650476103E+03  0.75192594899E+03  0.00000000000E+00 0.  1.
         11    1    5    5    0    0 -0.29363601713E+03 -0.17866902011E+03  0.48788847907E+03  0.59680809086E+03  0.00000000000E+00 0. -1.
        -11    1    5    5    0    0 -0.17751129202E+03 -0.13565702811E+03  0.45763536460E+03  0.50925751345E+03  0.00000000000E+00 0.  1.
          1    1    6    6  503    0  0.30790918093E+03 -0.45935388630E+03  0.41179209785E+03  0.68948298631E+03  0.00000000000E+00 0. -1.
         -1    1    6    6    0  503  0.69465131606E+01 -0.63818411817E+02  0.54983653533E+02  0.84523640999E+02  0.00000000000E+00 0.  1.
<mgrwt>
<rscale>  0 0.22500610E+04</rscale>
<asrwt>0</asrwt>
<pdfrwt beam="1">  1        2 0.33381269E+00 0.22500610E+04</pdfrwt>
<pdfrwt beam="2">  1       -1 0.89742685E-01 0.22500610E+04</pdfrwt>
<totfact> 0.67615749E+00</totfact>
</mgrwt>
</event>
<event>
12    6  0.1627636E-007  0.1282340E+04  0.7818608E-02  0.9043688E-01
         -1   -1    0    0    0  501 -0.00000000000E+00  0.00000000000E+00  0.11186916072E+03  0.11186916072E+03  0.00000000000E+00 0.  1.
          2   -1    0    0  501    0  0.00000000000E+00 -0.00000000000E+00 -0.36748178434E+04  0.36748178434E+04  0.00000000000E+00 0. -1.
         24    2    1    2    0    0 -0.19963574103E+03  0.13449275291E+03 -0.14730754793E+04  0.14947043377E+04  0.79037711510E+02 0.  0.
        254    2    1    2    0    0  0.19963574103E+03 -0.13449275291E+03 -0.20898732034E+04  0.22919826664E+04  0.90976469878E+03 0.  0.
         23    2    4    4    0    0 -0.17232548156E+03  0.30137595325E+03 -0.74029491316E+03  0.82299705062E+03  0.93616505447E+02 0.  0.
         23    2    4    4    0    0  0.37196122260E+03 -0.43586870616E+03 -0.13495782903E+04  0.14689856158E+04  0.90666960706E+02 0.  0.
          2    1    3    3  502    0 -0.11761206246E+03  0.11429613097E+03 -0.82464103698E+03  0.84079072465E+03  0.00000000000E+00 0. -1.
         -1    1    3    3    0  502 -0.82023678575E+02  0.20196621930E+02 -0.64843444227E+03  0.65391361303E+03  0.00000000000E+00 0.  1.
         11    1    5    5    0    0 -0.15909854121E+03  0.29764908093E+03 -0.73401239258E+03  0.80788706739E+03  0.00000000000E+00 0. -1.
        -11    1    5    5    0    0 -0.13226940358E+02  0.37268723203E+01 -0.62825205781E+01  0.15109983234E+02  0.00000000000E+00 0.  1.
          4    1    6    6  503    0  0.31461958670E+03 -0.37137032215E+03 -0.12177788427E+04  0.13114445129E+04  0.00000000000E+00 0. -1.
         -4    1    6    6    0  503  0.57341635902E+02 -0.64498384007E+02 -0.13179944755E+03  0.15754110296E+03  0.00000000000E+00 0.  1.
<mgrwt>
<rscale>  0 0.12823397E+04</rscale>
<asrwt>0</asrwt>
<pdfrwt beam="1">  1        2 0.56535654E+00 0.12823397E+04</pdfrwt>
<pdfrwt beam="2">  1       -1 0.17210642E-01 0.12823397E+04</pdfrwt>
<totfact> 0.18346676E+01</totfact>
</mgrwt>
</event>
<event>
12    6  0.1627636E-007  0.1409242E+04  0.7818608E-02  0.8947156E-01
         -3   -1    0    0    0  501 -0.00000000000E+00  0.00000000000E+00  0.36115255455E+03  0.36115255455E+03  0.00000000000E+00 0.  1.
          2   -1    0    0  501    0  0.00000000000E+00 -0.00000000000E+00 -0.13747392724E+04  0.13747392724E+04  0.00000000000E+00 0. -1.
         24    2    1    2    0    0  0.13453621024E+03 -0.31473813861E+03 -0.26637403836E+02  0.35368517213E+03  0.84991540390E+02 0.  0.
        254    2    1    2    0    0 -0.13453621024E+03  0.31473813861E+03 -0.98694931402E+03  0.13822066548E+04  0.90513325010E+03 0.  0.
         23    2    4    4    0    0  0.21685511096E+03  0.26561452125E+03 -0.94976699581E+03  0.10138633828E+04  0.91018677672E+02 0.  0.
         23    2    4    4    0    0 -0.35139132120E+03  0.49123617358E+02 -0.37182318212E+02  0.36834327198E+03  0.91680155063E+02 0.  0.
          2    1    3    3  502    0  0.39211993258E+02 -0.25347123296E+02  0.67435120254E+01  0.47175544821E+02  0.00000000000E+00 0. -1.
         -1    1    3    3    0  502  0.95324216978E+02 -0.28939101531E+03 -0.33380915862E+02  0.30650962730E+03  0.00000000000E+00 0.  1.
         11    1    5    5    0    0 -0.84501064445E+01  0.11780410346E+02 -0.26798053784E+02  0.30468312284E+02  0.00000000000E+00 0.  1.
        -11    1    5    5    0    0  0.22530521741E+03  0.25383411091E+03 -0.92296894202E+03  0.98339507055E+03  0.00000000000E+00 0. -1.
          3    1    6    6  503    0 -0.24850182167E+03  0.23145457639E+02  0.15121765440E+02  0.25003506829E+03  0.00000000000E+00 0. -1.
         -3    1    6    6    0  503 -0.10288949953E+03  0.25978159719E+02 -0.52304083652E+02  0.11830820370E+03  0.00000000000E+00 0.  1.
<mgrwt>
<rscale>  0 0.14092418E+04</rscale>
<asrwt>0</asrwt>
<pdfrwt beam="1">  1        2 0.21149835E+00 0.14092418E+04</pdfrwt>
<pdfrwt beam="2">  1       -3 0.55561931E-01 0.14092418E+04</pdfrwt>
<totfact> 0.29674525E+01</totfact>
</mgrwt>
</event>
<event>
12    6  0.1627636E-007  0.2845298E+04  0.7818608E-02  0.8289341E-01
         -1   -1    0    0    0  501 -0.00000000000E+00  0.00000000000E+00  0.75145546745E+03  0.75145546745E+03  0.00000000000E+00 0.  1.
          2   -1    0    0  501    0  0.00000000000E+00 -0.00000000000E+00 -0.26933473231E+04  0.26933473231E+04  0.00000000000E+00 0. -1.
         24    2    1    2    0    0 -0.95190064786E+03 -0.36858607661E+03  0.59192416845E+02  0.10257598242E+04  0.81908092153E+02 0.  0.
        254    2    1    2    0    0  0.95190064786E+03  0.36858607661E+03 -0.20010842725E+04  0.24190429663E+04  0.89747427146E+03 0.  0.
         23    2    4    4    0    0  0.27060166082E+02  0.40682013618E+03 -0.48275341050E+03  0.63848052948E+03  0.91496750713E+02 0.  0.
         23    2    4    4    0    0  0.92484048177E+03 -0.38234059570E+02 -0.15183308620E+04  0.17805624368E+04  0.91006729907E+02 0.  0.
          4    1    3    3  502    0 -0.48254223157E+03 -0.16218008973E+03 -0.44506292145E+01  0.50908662805E+03  0.00000000000E+00 0. -1.
         -3    1    3    3    0  502 -0.46935841628E+03 -0.20640598688E+03  0.63643046060E+02  0.51667319620E+03  0.00000000000E+00 0.  1.
         11    1    5    5    0    0  0.13170593565E+02  0.40307972643E+03 -0.46936286575E+03  0.61882811033E+03  0.00000000000E+00 0.  1.
        -11    1    5    5    0    0  0.13889572517E+02  0.37404097515E+01 -0.13390544748E+02  0.19652419150E+02  0.00000000000E+00 0. -1.
          1    1    6    6  503    0  0.35887365798E+03  0.73434316937E+00 -0.66925059129E+03  0.75939923334E+03  0.00000000000E+00 0. -1.
         -1    1    6    6    0  503  0.56596682379E+03 -0.38968402739E+02 -0.84908027074E+03  0.10211632035E+04  0.00000000000E+00 0.  1.
<mgrwt>
<rscale>  0 0.28452983E+04</rscale>
<asrwt>0</asrwt>
<pdfrwt beam="1">  1        2 0.41436112E+00 0.28452983E+04</pdfrwt>
<pdfrwt beam="2">  1       -1 0.11560853E+00 0.28452983E+04</pdfrwt>
<totfact> 0.17890966E+00</totfact>
</mgrwt>
</event>
<event>
12    6  0.1627636E-007  0.2886953E+04  0.7818608E-02  0.8276770E-01
          2   -1    0    0  501    0  0.00000000000E+00  0.00000000000E+00  0.12709026583E+04  0.12709026583E+04  0.00000000000E+00 0. -1.
         -3   -1    0    0    0  501 -0.00000000000E+00 -0.00000000000E+00 -0.16394842485E+04  0.16394842485E+04  0.00000000000E+00 0.  1.
         24    2    1    2    0    0 -0.82494331033E+03  0.95567621366E+03 -0.47358238527E+03  0.13506461458E+04  0.78206425289E+02 0.  0.
        254    2    1    2    0    0  0.82494331033E+03 -0.95567621366E+03  0.10500079502E+03  0.15597407610E+04  0.90989976581E+03 0.  0.
         23    2    4    4    0    0  0.22398053794E+03  0.15744245860E+03  0.42283105521E+02  0.29050880654E+03  0.87476262602E+02 0.  0.
         23    2    4    4    0    0  0.60096277238E+03 -0.11131186723E+04  0.62717689495E+02  0.12692319544E+04  0.82624531576E+02 0.  0.
          4    1    3    3  502    0 -0.45169360703E+03  0.52367546582E+03 -0.21777192399E+03  0.72504325320E+03  0.00000000000E+00 0. -1.
         -3    1    3    3    0  502 -0.37324970330E+03  0.43200074783E+03 -0.25581046129E+03  0.62560289261E+03  0.00000000000E+00 0.  1.
         11    1    5    5    0    0  0.18619185048E+03  0.84170138373E+02  0.21318674497E+02  0.20544221393E+03  0.00000000000E+00 0.  1.
        -11    1    5    5    0    0  0.37788687457E+02  0.73272320224E+02  0.20964431024E+02  0.85066592614E+02  0.00000000000E+00 0. -1.
          1    1    6    6  503    0  0.59048658779E+03 -0.11013740835E+04  0.53140711130E+02  0.12508090251E+04  0.00000000000E+00 0.  1.
         -1    1    6    6    0  503  0.10476184595E+02 -0.11744588734E+02  0.95769783650E+01  0.18422929267E+02  0.00000000000E+00 0. -1.
<mgrwt>
<rscale>  0 0.28869533E+04</rscale>
<asrwt>0</asrwt>
<pdfrwt beam="1">  1        2 0.19552349E+00 0.28869533E+04</pdfrwt>
<pdfrwt beam="2">  1       -3 0.25222834E+00 0.28869533E+04</pdfrwt>
<totfact> 0.66269405E-01</totfact>
</mgrwt>
</event>
<event>
12    6  0.1627636E-007  0.1397174E+04  0.7818608E-02  0.8955866E-01
         -1   -1    0    0    0  501 -0.00000000000E+00  0.00000000000E+00  0.42625240034E+03  0.42625240034E+03  0.00000000000E+00 0.  1.
          2   -1    0    0  501    0  0.00000000000E+00 -0.00000000000E+00 -0.11449179274E+04  0.11449179274E+04  0.00000000000E+00 0. -1.
         24    2    1    2    0    0 -0.33487595742E+03 -0.21083856665E+03 -0.31040776666E+03  0.50929451004E+03  0.80206660028E+02 0.  0.
        254    2    1    2    0    0  0.33487595742E+03  0.21083856665E+03 -0.40825776037E+03  0.10618758177E+04  0.89683390056E+03 0.  0.
         23    2    4    4    0    0 -0.17287483258E+03  0.33537453965E+03 -0.35905975062E+03  0.52922265398E+03  0.93759924180E+02 0.  0.
         23    2    4    4    0    0  0.50775079000E+03 -0.12453597301E+03 -0.49198009746E+02  0.53265316368E+03  0.89324550368E+02 0.  0.
          4    1    3    3  502    0 -0.32534445003E+03 -0.18743051355E+03 -0.30428475096E+03  0.48328916628E+03  0.00000000000E+00 0. -1.
         -3    1    3    3    0  502 -0.95315073865E+01 -0.23408053098E+02 -0.61230156980E+01  0.26005343761E+02  0.00000000000E+00 0.  1.
         11    1    5    5    0    0 -0.64050916387E+02  0.22071332332E+03 -0.19506696919E+03  0.30144321762E+03  0.00000000000E+00 0. -1.
        -11    1    5    5    0    0 -0.10882391619E+03  0.11466121634E+03 -0.16399278143E+03  0.22777943636E+03  0.00000000000E+00 0.  1.
          2    1    6    6  503    0  0.25073538823E+03 -0.22098864159E+02 -0.46478518628E+02  0.25596258985E+03  0.00000000000E+00 0. -1.
         -2    1    6    6    0  503  0.25701540177E+03 -0.10243710885E+03 -0.27194911174E+01  0.27669057383E+03  0.00000000000E+00 0.  1.
<mgrwt>
<rscale>  0 0.13971743E+04</rscale>
<asrwt>0</asrwt>
<pdfrwt beam="1">  1        2 0.17614122E+00 0.13971743E+04</pdfrwt>
<pdfrwt beam="2">  1       -1 0.65577293E-01 0.13971743E+04</pdfrwt>
<totfact> 0.53510515E+01</totfact>
</mgrwt>
</event>
<event>
12    6  0.1627636E-007  0.1358221E+04  0.7818608E-02  0.8984628E-01
         -1   -1    0    0    0  501 -0.00000000000E+00  0.00000000000E+00  0.51528438747E+03  0.51528438747E+03  0.00000000000E+00 0.  1.
          2   -1    0    0  501    0  0.00000000000E+00 -0.00000000000E+00 -0.89502280097E+03  0.89502280097E+03  0.00000000000E+00 0. -1.
         24    2    1    2    0    0  0.36823394636E+03  0.40050828291E+02 -0.74147575757E+02  0.38846788695E+03  0.90604238875E+02 0.  0.
        254    2    1    2    0    0 -0.36823394636E+03 -0.40050828291E+02 -0.30559083774E+03  0.10218393015E+04  0.90198087001E+03 0.  0.
         23    2    4    4    0    0 -0.43430436609E+03  0.20391576667E+03 -0.49274110880E+03  0.69366694860E+03  0.90432919796E+02 0.  0.
         23    2    4    4    0    0  0.66070419729E+02 -0.24396659496E+03  0.18715027105E+03  0.32817235289E+03  0.93738302883E+02 0.  0.
          2    1    3    3  502    0  0.12434357282E+03  0.29358776608E+02 -0.66940421752E+02  0.14423689518E+03  0.00000000000E+00 0. -1.
         -1    1    3    3    0  502  0.24389037353E+03  0.10692051684E+02 -0.72071540047E+01  0.24423099177E+03  0.00000000000E+00 0.  1.
         11    1    5    5    0    0 -0.72924823117E+02  0.73478345409E+02 -0.11797274654E+03  0.15695434367E+03  0.00000000000E+00 0. -1.
        -11    1    5    5    0    0 -0.36137954297E+03  0.13043742126E+03 -0.37476836226E+03  0.53671260493E+03  0.00000000000E+00 0.  1.
          2    1    6    6  503    0  0.23668708383E+02 -0.62586734632E+02  0.41386336693E+01  0.67040550393E+02  0.00000000000E+00 0. -1.
         -2    1    6    6    0  503  0.42401711346E+02 -0.18137986033E+03  0.18301163739E+03  0.26113180250E+03  0.00000000000E+00 0.  1.
<mgrwt>
<rscale>  0 0.13582213E+04</rscale>
<asrwt>0</asrwt>
<pdfrwt beam="1">  1        2 0.13769582E+00 0.13582213E+04</pdfrwt>
<pdfrwt beam="2">  1       -1 0.79274521E-01 0.13582213E+04</pdfrwt>
<totfact> 0.52380464E+01</totfact>
</mgrwt>
</event>
<event>
12    6  0.1627636E-007  0.1420363E+04  0.7818608E-02  0.8939210E-01
          2   -1    0    0  501    0  0.00000000000E+00  0.00000000000E+00  0.59202792122E+03  0.59202792122E+03  0.00000000000E+00 0. -1.
         -1   -1    0    0    0  501 -0.00000000000E+00 -0.00000000000E+00 -0.85191491349E+03  0.85191491349E+03  0.00000000000E+00 0.  1.
         24    2    1    2    0    0  0.25088934294E+02 -0.13876769797E+03 -0.49510092640E+03  0.52079332133E+03  0.78834177852E+02 0.  0.
        254    2    1    2    0    0 -0.25088934294E+02  0.13876769797E+03  0.23521393412E+03  0.92314951338E+03  0.88147234819E+03 0.  0.
         23    2    4    4    0    0 -0.91900370906E+02  0.13669740692E+03 -0.31206018094E+03  0.36405525914E+03  0.89570173322E+02 0.  0.
         23    2    4    4    0    0  0.66811436612E+02  0.20702910455E+01  0.54727411506E+03  0.55909425424E+03  0.92786712080E+02 0.  0.
          4    1    3    3  502    0  0.16122439275E+02 -0.68952060464E+02 -0.12158322326E+03  0.14070110117E+03  0.00000000000E+00 0. -1.
         -3    1    3    3    0  502  0.89664950193E+01 -0.69815637503E+02 -0.37351770313E+03  0.38009222016E+03  0.00000000000E+00 0.  1.
         11    1    5    5    0    0 -0.51333879518E+02  0.78203337442E+02 -0.86065969029E+02  0.12711522410E+03  0.00000000000E+00 0. -1.
        -11    1    5    5    0    0 -0.40566491388E+02  0.58494069479E+02 -0.22599421191E+03  0.23694003504E+03  0.00000000000E+00 0.  1.
          3    1    6    6  503    0  0.36546886463E+02 -0.30934944397E+02  0.11588743141E+03  0.12538956278E+03  0.00000000000E+00 0. -1.
         -3    1    6    6    0  503  0.30264550149E+02  0.33005235443E+02  0.43138668365E+03  0.43370469146E+03  0.00000000000E+00 0.  1.
<mgrwt>
<rscale>  0 0.14203625E+04</rscale>
<asrwt>0</asrwt>
<pdfrwt beam="1">  1        2 0.91081218E-01 0.14203625E+04</pdfrwt>
<pdfrwt beam="2">  1       -1 0.13106383E+00 0.14203625E+04</pdfrwt>
<totfact> 0.27818697E+01</totfact>
</mgrwt>
</event>
<event>
12    6  0.1804972E-007  0.1905847E+04  0.7818608E-02  0.8651952E-01
          2   -1    0    0  501    0  0.00000000000E+00  0.00000000000E+00  0.12464376904E+04  0.12464376904E+04  0.00000000000E+00 0. -1.
         -1   -1    0    0    0  501 -0.00000000000E+00 -0.00000000000E+00 -0.72852644437E+03  0.72852644437E+03  0.00000000000E+00 0.  1.
         24    2    1    2    0    0 -0.36251551167E+03 -0.43248534178E+03  0.69036843213E+03  0.89509366031E+03  0.78249738560E+02 0.  0.
        254    2    1    2    0    0  0.36251551167E+03  0.43248534178E+03 -0.17245718613E+03  0.10798704744E+04  0.90438802150E+03 0.  0.
         23    2    4    4    0    0 -0.29567364056E+03  0.16469961700E+03 -0.49908978854E+02  0.35307748508E+03  0.87315169026E+02 0.  0.
         23    2    4    4    0    0  0.65818915223E+03  0.26778572479E+03 -0.12254820727E+03  0.72679298935E+03  0.91037529321E+02 0.  0.
          4    1    3    3  502    0 -0.30186658348E+03 -0.34549853526E+03  0.51115115367E+03  0.68685382287E+03  0.00000000000E+00 0. -1.
         -3    1    3    3    0  502 -0.60648928192E+02 -0.86986806526E+02  0.17921727845E+03  0.20823983744E+03  0.00000000000E+00 0.  1.
         11    1    5    5    0    0 -0.55694243807E+02  0.13111291992E+02  0.20239327634E+02  0.60690898444E+02  0.00000000000E+00 0.  1.
        -11    1    5    5    0    0 -0.23997939675E+03  0.15158832500E+03 -0.70148306488E+02  0.29238658664E+03  0.00000000000E+00 0. -1.
          3    1    6    6  503    0  0.58492140748E+03  0.25930509949E+03 -0.12920108916E+03  0.65273663065E+03  0.00000000000E+00 0. -1.
         -3    1    6    6    0  503  0.73267744747E+02  0.84806252968E+01  0.66528818897E+01  0.74056358695E+02  0.00000000000E+00 0.  1.
<mgrwt>
<rscale>  0 0.19058466E+04</rscale>
<asrwt>0</asrwt>
<pdfrwt beam="1">  1        2 0.19175964E+00 0.19058466E+04</pdfrwt>
<pdfrwt beam="2">  1       -1 0.11208099E+00 0.19058466E+04</pdfrwt>
<totfact> 0.13847752E+01</totfact>
</mgrwt>
</event>
<event>
12    6  0.1627636E-007  0.1050060E+04  0.7818608E-02  0.9255282E-01
         -1   -1    0    0    0  501 -0.00000000000E+00  0.00000000000E+00  0.30852710063E+03  0.30852710063E+03  0.00000000000E+00 0.  1.
          2   -1    0    0  501    0  0.00000000000E+00 -0.00000000000E+00 -0.89345899334E+03  0.89345899334E+03  0.00000000000E+00 0. -1.
         24    2    1    2    0    0 -0.53359310272E+02 -0.43601806185E+02 -0.17694459821E+03  0.20587587255E+03  0.79543387957E+02 0.  0.
        254    2    1    2    0    0  0.53359310272E+02  0.43601806185E+02 -0.40798729450E+03  0.99611022142E+03  0.90610904821E+03 0.  0.
         23    2    4    4    0    0 -0.41222340883E+03  0.22651460104E+02 -0.11405715375E+03  0.43758802006E+03  0.89627080456E+02 0.  0.
         23    2    4    4    0    0  0.46558271910E+03  0.20950346080E+02 -0.29393014075E+03  0.55852220136E+03  0.91356096952E+02 0.  0.
          2    1    3    3  502    0 -0.52266378119E+02 -0.35242609054E+02 -0.18424076593E+03  0.19472666896E+03  0.00000000000E+00 0. -1.
         -1    1    3    3    0  502 -0.10929321528E+01 -0.83591971306E+01  0.72961677174E+01  0.11149203591E+02  0.00000000000E+00 0.  1.
         11    1    5    5    0    0 -0.12331655168E+03  0.46086122883E+02 -0.49385502827E+02  0.14060522938E+03  0.00000000000E+00 0.  1.
        -11    1    5    5    0    0 -0.28890685715E+03 -0.23434662779E+02 -0.64671650924E+02  0.29698279068E+03  0.00000000000E+00 0. -1.
          2    1    6    6  503    0  0.18646393701E+03  0.39729105858E+02 -0.81884338187E+02  0.20749035278E+03  0.00000000000E+00 0. -1.
         -2    1    6    6    0  503  0.27911878209E+03 -0.18778759778E+02 -0.21204580256E+03  0.35103184858E+03  0.00000000000E+00 0.  1.
<mgrwt>
<rscale>  0 0.10500596E+04</rscale>
<asrwt>0</asrwt>
<pdfrwt beam="1">  1        2 0.13745523E+00 0.10500596E+04</pdfrwt>
<pdfrwt beam="2">  1       -1 0.47465709E-01 0.10500596E+04</pdfrwt>
<totfact> 0.14900878E+02</totfact>
</mgrwt>
</event>
<event>
12    6  0.1627636E-007  0.1181011E+04  0.7818608E-02  0.9129641E-01
         -1   -1    0    0    0  501 -0.00000000000E+00  0.00000000000E+00  0.46714865863E+03  0.46714865863E+03  0.00000000000E+00 0.  1.
          2   -1    0    0  501    0  0.00000000000E+00 -0.00000000000E+00 -0.74643697396E+03  0.74643697396E+03  0.00000000000E+00 0. -1.
         24    2    1    2    0    0 -0.69018305742E+02 -0.77231398285E+02 -0.17233667627E+03  0.21647083173E+03  0.80196481199E+02 0.  0.
        254    2    1    2    0    0  0.69018305742E+02  0.77231398285E+02 -0.10695163906E+03  0.99711480086E+03  0.98593663974E+03 0.  0.
         23    2    4    4    0    0  0.56202164995E+02  0.31021401401E+03  0.34768140003E+03  0.47851585251E+03  0.93293340258E+02 0.  0.
         23    2    4    4    0    0  0.12816140748E+02 -0.23298261572E+03 -0.45463303909E+03  0.51859894835E+03  0.88365809594E+02 0.  0.
          2    1    3    3  502    0 -0.60754382807E+02 -0.86362371195E+02 -0.17450646318E+03  0.20396583018E+03  0.00000000000E+00 0. -1.
         -1    1    3    3    0  502 -0.82639229352E+01  0.91309729101E+01  0.21697869180E+01  0.12505001553E+02  0.00000000000E+00 0.  1.
         11    1    5    5    0    0  0.56788167449E+02  0.31598020071E+03  0.34691160972E+03  0.47266906834E+03  0.00000000000E+00 0. -1.
        -11    1    5    5    0    0 -0.58600245425E+00 -0.57661867066E+01  0.76979031364E+00  0.58467841707E+01  0.00000000000E+00 0.  1.
          1    1    6    6  503    0  0.49201160112E+02 -0.16745609693E+03 -0.32117284023E+03  0.36553288752E+03  0.00000000000E+00 0. -1.
         -1    1    6    6    0  503 -0.36385019364E+02 -0.65526518795E+02 -0.13346019886E+03  0.15306606083E+03  0.00000000000E+00 0.  1.
<mgrwt>
<rscale>  0 0.11810115E+04</rscale>
<asrwt>0</asrwt>
<pdfrwt beam="1">  1        2 0.11483646E+00 0.11810115E+04</pdfrwt>
<pdfrwt beam="2">  1       -1 0.71869025E-01 0.11810115E+04</pdfrwt>
<totfact> 0.83207618E+01</totfact>
</mgrwt>
</event>
<event>
12    6  0.1627636E-007  0.1740808E+04  0.7818608E-02  0.8738427E-01
          2   -1    0    0  501    0  0.00000000000E+00  0.00000000000E+00  0.21010713900E+04  0.21010713900E+04  0.00000000000E+00 0. -1.
         -1   -1    0    0    0  501 -0.00000000000E+00 -0.00000000000E+00 -0.36057923331E+03  0.36057923331E+03  0.00000000000E+00 0.  1.
         24    2    1    2    0    0 -0.13029809821E+03 -0.58012124659E+03  0.42581430802E+03  0.73571276168E+03  0.80232086125E+02 0.  0.
        254    2    1    2    0    0  0.13029809821E+03  0.58012124659E+03  0.13146778487E+04  0.17259378616E+04  0.94708257364E+03 0.  0.
         23    2    4    4    0    0  0.52873884542E+03  0.40125775566E+03  0.81733751325E+03  0.10567669153E+04  0.90239401398E+02 0.  0.
         23    2    4    4    0    0 -0.39844074721E+03  0.17886349093E+03  0.49734033542E+03  0.66917094633E+03  0.98464048050E+02 0.  0.
          2    1    3    3  502    0 -0.60808303591E+01 -0.23954283342E+02  0.66143474432E+00  0.24722897973E+02  0.00000000000E+00 0. -1.
         -1    1    3    3    0  502 -0.12421726785E+03 -0.55616696325E+03  0.42515287328E+03  0.71098986371E+03  0.00000000000E+00 0.  1.
         11    1    5    5    0    0  0.28435209698E+03  0.16719673597E+03  0.36692551422E+03  0.49340165845E+03  0.00000000000E+00 0.  1.
        -11    1    5    5    0    0  0.24438674845E+03  0.23406101969E+03  0.45041199903E+03  0.56336525685E+03  0.00000000000E+00 0. -1.
          3    1    6    6  503    0 -0.22152818835E+03  0.45483905995E+02  0.25136920839E+03  0.33812719923E+03  0.00000000000E+00 0. -1.
         -3    1    6    6    0  503 -0.17691255886E+03  0.13337958493E+03  0.24597112703E+03  0.33104374710E+03  0.00000000000E+00 0.  1.
<mgrwt>
<rscale>  0 0.17408075E+04</rscale>
<asrwt>0</asrwt>
<pdfrwt beam="1">  1        2 0.32324175E+00 0.17408075E+04</pdfrwt>
<pdfrwt beam="2">  1       -1 0.55473729E-01 0.17408075E+04</pdfrwt>
<totfact> 0.20831208E+01</totfact>
</mgrwt>
</event>
<event>
12    6  0.1627636E-007  0.1298338E+04  0.7818608E-02  0.9030884E-01
         -1   -1    0    0    0  501 -0.00000000000E+00  0.00000000000E+00  0.11257866223E+03  0.11257866223E+03  0.00000000000E+00 0.  1.
          2   -1    0    0  501    0  0.00000000000E+00 -0.00000000000E+00 -0.37433412609E+04  0.37433412609E+04  0.00000000000E+00 0. -1.
         24    2    1    2    0    0  0.15481883114E+03 -0.28114298701E+03 -0.11655906513E+04  0.12114699775E+04  0.77766898249E+02 0.  0.
        254    2    1    2    0    0 -0.15481883114E+03  0.28114298701E+03 -0.24651719474E+04  0.26444499456E+04  0.90168316773E+03 0.  0.
         23    2    4    4    0    0 -0.37112229183E+03  0.30731665884E+03 -0.23092402574E+04  0.23610232815E+04  0.98311165896E+02 0.  0.
         23    2    4    4    0    0  0.21630346069E+03 -0.26173671827E+02 -0.15593168998E+03  0.28342666404E+03  0.92432319804E+02 0.  0.
          2    1    3    3  502    0  0.11021823331E+03 -0.19981893061E+03 -0.94520089517E+03  0.97235816252E+03  0.00000000000E+00 0. -1.
         -1    1    3    3    0  502  0.44600597827E+02 -0.81324056400E+02 -0.22038975611E+03  0.23911181500E+03  0.00000000000E+00 0.  1.
         11    1    5    5    0    0 -0.24032537085E+03  0.25402162544E+03 -0.17058276529E+04  0.17413015970E+04  0.00000000000E+00 0. -1.
        -11    1    5    5    0    0 -0.13079692098E+03  0.53295033393E+02 -0.60341260445E+03  0.61972168457E+03  0.00000000000E+00 0.  1.
          1    1    6    6  503    0  0.18469528393E+03 -0.11200161263E+02 -0.16431388180E+03  0.24746079138E+03  0.00000000000E+00 0. -1.
         -1    1    6    6    0  503  0.31608176765E+02 -0.14973510564E+02  0.83821918133E+01  0.35965872666E+02  0.00000000000E+00 0.  1.
<mgrwt>
<rscale>  0 0.12983379E+04</rscale>
<asrwt>0</asrwt>
<pdfrwt beam="1">  1        2 0.57589858E+00 0.12983379E+04</pdfrwt>
<pdfrwt beam="2">  1       -1 0.17319797E-01 0.12983379E+04</pdfrwt>
<totfact> 0.16149589E+01</totfact>
</mgrwt>
</event>
<event>
12    6  0.1627636E-007  0.2388613E+04  0.7818608E-02  0.8443779E-01
         -1   -1    0    0    0  501 -0.00000000000E+00  0.00000000000E+00  0.96406060324E+03  0.96406060324E+03  0.00000000000E+00 0.  1.
          2   -1    0    0  501    0  0.00000000000E+00 -0.00000000000E+00 -0.14795418577E+04  0.14795418577E+04  0.00000000000E+00 0. -1.
         24    2    1    2    0    0  0.14935781857E+03 -0.53253686465E+03  0.65630947408E+03  0.86294547706E+03  0.89607479760E+02 0.  0.
        254    2    1    2    0    0 -0.14935781857E+03  0.53253686465E+03 -0.11717907286E+04  0.15806569839E+04  0.90525119113E+03 0.  0.
         23    2    4    4    0    0  0.14579290728E+03  0.53229091693E+02 -0.95320514438E+03  0.97011388738E+03  0.91825917921E+02 0.  0.
         23    2    4    4    0    0 -0.29515072584E+03  0.47930777295E+03 -0.21858558419E+03  0.61054309653E+03  0.90184937341E+02 0.  0.
          2    1    3    3  502    0  0.11066941838E+03 -0.23499897346E+03  0.32276036949E+03  0.41430241830E+03  0.00000000000E+00 0. -1.
         -1    1    3    3    0  502  0.38688400182E+02 -0.29753789118E+03  0.33354910459E+03  0.44864305876E+03  0.00000000000E+00 0.  1.
         11    1    5    5    0    0  0.10646458061E+02  0.34890505158E+02 -0.10846916592E+03  0.11443886741E+03  0.00000000000E+00 0. -1.
        -11    1    5    5    0    0  0.13514644922E+03  0.18338586535E+02 -0.84473597846E+03  0.85567501997E+03  0.00000000000E+00 0.  1.
          3    1    6    6  503    0 -0.11313727681E+03  0.18295868744E+03 -0.37212768160E+02  0.21830876032E+03  0.00000000000E+00 0. -1.
         -3    1    6    6    0  503 -0.18201344903E+03  0.29634908551E+03 -0.18137281603E+03  0.39223433621E+03  0.00000000000E+00 0.  1.
<mgrwt>
<rscale>  0 0.23886130E+04</rscale>
<asrwt>0</asrwt>
<pdfrwt beam="1">  1        2 0.22762182E+00 0.23886130E+04</pdfrwt>
<pdfrwt beam="2">  1       -1 0.14831702E+00 0.23886130E+04</pdfrwt>
<totfact> 0.48077117E+00</totfact>
</mgrwt>
</event>
<event>
12    6  0.1627636E-007  0.1082626E+04  0.7818608E-02  0.9222293E-01
          2   -1    0    0  501    0  0.00000000000E+00  0.00000000000E+00  0.12392927828E+04  0.12392927828E+04  0.00000000000E+00 0. -1.
         -1   -1    0    0    0  501 -0.00000000000E+00 -0.00000000000E+00 -0.23644108922E+03  0.23644108922E+03  0.00000000000E+00 0.  1.
         24    2    1    2    0    0 -0.81025078512E+02 -0.26453725057E+02 -0.98350876925E+01  0.11764061943E+03  0.80484305753E+02 0.  0.
        254    2    1    2    0    0  0.81025078512E+02  0.26453725057E+02  0.10126867813E+04  0.13580932526E+04  0.90089838655E+03 0.  0.
         23    2    4    4    0    0 -0.17161164437E+03  0.11925079706E+03  0.10474500558E+04  0.10721101532E+04  0.92721367914E+02 0.  0.
         23    2    4    4    0    0  0.25263672288E+03 -0.92797072001E+02 -0.34763274511E+02  0.28598309944E+03  0.90228806881E+02 0.  0.
          2    1    3    3  502    0  0.73940452574E+01 -0.26364281886E+02 -0.10202997924E+02  0.29220684990E+02  0.00000000000E+00 0. -1.
         -1    1    3    3    0  502 -0.88419123769E+02 -0.89443170377E-01  0.36791023191E+00  0.88419934439E+02  0.00000000000E+00 0.  1.
         11    1    5    5    0    0 -0.91275365126E+02  0.42900070482E+02  0.70486340642E+03  0.71204215467E+03  0.00000000000E+00 0.  1.
        -11    1    5    5    0    0 -0.80336279240E+02  0.76350726576E+02  0.34258664940E+03  0.36006799852E+03  0.00000000000E+00 0. -1.
          4    1    6    6  503    0  0.77965988419E+00 -0.22298751241E+02 -0.20187764732E+01  0.22403518360E+02  0.00000000000E+00 0. -1.
         -4    1    6    6    0  503  0.25185706299E+03 -0.70498320760E+02 -0.32744498038E+02  0.26357958108E+03  0.00000000000E+00 0.  1.
<mgrwt>
<rscale>  0 0.10826259E+04</rscale>
<asrwt>0</asrwt>
<pdfrwt beam="1">  1        2 0.19066042E+00 0.10826259E+04</pdfrwt>
<pdfrwt beam="2">  1       -1 0.36375553E-01 0.10826259E+04</pdfrwt>
<totfact> 0.14703844E+02</totfact>
</mgrwt>
</event>
<event>
12    6  0.1627636E-007  0.1033517E+04  0.7818608E-02  0.9272529E-01
         -1   -1    0    0    0  501 -0.00000000000E+00  0.00000000000E+00  0.90182296006E+02  0.90182296006E+02  0.00000000000E+00 0.  1.
          2   -1    0    0  501    0  0.00000000000E+00 -0.00000000000E+00 -0.29611069815E+04  0.29611069815E+04  0.00000000000E+00 0. -1.
         24    2    1    2    0    0  0.19936223093E+02  0.52020443246E+02 -0.64447674466E+03  0.65002783838E+03  0.63893166716E+02 0.  0.
        254    2    1    2    0    0 -0.19936223093E+02 -0.52020443246E+02 -0.22264479408E+04  0.24012614391E+04  0.89770957791E+03 0.  0.
         23    2    4    4    0    0 -0.40654785362E+03 -0.31565575701E+02 -0.16422014526E+04  0.16945036239E+04  0.90771018321E+02 0.  0.
         23    2    4    4    0    0  0.38661163053E+03 -0.20454867545E+02 -0.58424648822E+03  0.70675781517E+03  0.90970851637E+02 0.  0.
          4    1    3    3  502    0  0.11846195198E+00  0.29738063384E+02 -0.55329699402E+03  0.55409559648E+03  0.00000000000E+00 0. -1.
         -3    1    3    3    0  502  0.19817761141E+02  0.22282379862E+02 -0.91179750644E+02  0.95932241902E+02  0.00000000000E+00 0.  1.
         11    1    5    5    0    0 -0.21593644126E+03  0.24306112512E+02 -0.93657637710E+03  0.96145444193E+03  0.00000000000E+00 0.  1.
        -11    1    5    5    0    0 -0.19061141236E+03 -0.55871688213E+02 -0.70562507548E+03  0.73304918199E+03  0.00000000000E+00 0. -1.
          3    1    6    6  503    0  0.24850420215E+03  0.11547345911E+02 -0.43358927149E+03  0.49988732334E+03  0.00000000000E+00 0. -1.
         -3    1    6    6    0  503  0.13810742838E+03 -0.32002213457E+02 -0.15065721673E+03  0.20687049183E+03  0.00000000000E+00 0.  1.
<mgrwt>
<rscale>  0 0.10335172E+04</rscale>
<asrwt>0</asrwt>
<pdfrwt beam="1">  1        2 0.45555484E+00 0.10335172E+04</pdfrwt>
<pdfrwt beam="2">  1       -1 0.13874202E-01 0.10335172E+04</pdfrwt>
<totfact> 0.79756151E+01</totfact>
</mgrwt>
</event>
<event>
12    6  0.1627636E-007  0.1410462E+04  0.7818608E-02  0.8946280E-01
         -1   -1    0    0    0  501 -0.00000000000E+00  0.00000000000E+00  0.38936717532E+03  0.38936717532E+03  0.00000000000E+00 0.  1.
          2   -1    0    0  501    0  0.00000000000E+00 -0.00000000000E+00 -0.12773312367E+04  0.12773312367E+04  0.00000000000E+00 0. -1.
         24    2    1    2    0    0  0.39190900134E+03  0.72699883235E+02 -0.30164622660E+03  0.50619498867E+03  0.79780838416E+02 0.  0.
        254    2    1    2    0    0 -0.39190900134E+03 -0.72699883235E+02 -0.58631783478E+03  0.11605034233E+04  0.91876093400E+03 0.  0.
         23    2    4    4    0    0  0.26378913640E+03 -0.43477428596E+02 -0.36566890027E+03  0.46207390870E+03  0.91233531132E+02 0.  0.
         23    2    4    4    0    0 -0.65569813774E+03 -0.29222454639E+02 -0.22064893451E+03  0.69842951463E+03  0.91235053129E+02 0.  0.
          2    1    3    3  502    0  0.34252241587E+02 -0.12230930340E+02 -0.12354271851E+02  0.38411453288E+02  0.00000000000E+00 0. -1.
         -1    1    3    3    0  502  0.35765675976E+03  0.84930813576E+02 -0.28929195475E+03  0.46778353539E+03  0.00000000000E+00 0.  1.
         11    1    5    5    0    0  0.26697755886E+02  0.11139655018E+02 -0.89477559077E+01  0.30280759883E+02  0.00000000000E+00 0. -1.
        -11    1    5    5    0    0  0.23709138051E+03 -0.54617083614E+02 -0.35672114436E+03  0.43179314882E+03  0.00000000000E+00 0.  1.
          3    1    6    6  503    0 -0.51460588429E+02  0.20190722720E+02 -0.74480642484E+01  0.55779307153E+02  0.00000000000E+00 0. -1.
         -3    1    6    6    0  503 -0.60423754931E+03 -0.49413177359E+02 -0.21320087026E+03  0.64265020748E+03  0.00000000000E+00 0.  1.
<mgrwt>
<rscale>  0 0.14104621E+04</rscale>
<asrwt>0</asrwt>
<pdfrwt beam="1">  1        2 0.19651250E+00 0.14104621E+04</pdfrwt>
<pdfrwt beam="2">  1       -1 0.59902642E-01 0.14104621E+04</pdfrwt>
<totfact> 0.53394571E+01</totfact>
</mgrwt>
</event>
<event>
12    6  0.1627636E-007  0.2868819E+04  0.7818608E-02  0.8282216E-01
         -1   -1    0    0    0  501 -0.00000000000E+00  0.00000000000E+00  0.69074116730E+03  0.69074116730E+03  0.00000000000E+00 0.  1.
          2   -1    0    0  501    0  0.00000000000E+00 -0.00000000000E+00 -0.29787289950E+04  0.29787289950E+04  0.00000000000E+00 0. -1.
         24    2    1    2    0    0  0.56174428690E+03  0.33076481205E+03 -0.24642806084E+04  0.25503214756E+04  0.80614556873E+02 0.  0.
        254    2    1    2    0    0 -0.56174428690E+03 -0.33076481205E+03  0.17629278073E+03  0.11191486867E+04  0.89244194980E+03 0.  0.
         23    2    4    4    0    0  0.16977937831E+03 -0.12852406772E+03  0.26207852802E+03  0.34963682580E+03  0.90649224064E+02 0.  0.
         23    2    4    4    0    0 -0.73152366521E+03 -0.20224074433E+03 -0.85785747294E+02  0.76951186095E+03  0.93600845442E+02 0.  0.
          2    1    3    3  502    0  0.45070609811E+03  0.26077705179E+03 -0.20823186139E+04  0.21464369237E+04  0.00000000000E+00 0. -1.
         -1    1    3    3    0  502  0.11103818879E+03  0.69987760266E+02 -0.38196199456E+03  0.40388455188E+03  0.00000000000E+00 0.  1.
         11    1    5    5    0    0  0.76956451054E+02 -0.96619981236E+02  0.94875299887E+02  0.15575313371E+03  0.00000000000E+00 0. -1.
        -11    1    5    5    0    0  0.92822927258E+02 -0.31904086484E+02  0.16720322814E+03  0.19388369209E+03  0.00000000000E+00 0.  1.
          1    1    6    6  503    0 -0.65434363075E+03 -0.14950374022E+03 -0.77623342106E+02  0.67567916846E+03  0.00000000000E+00 0. -1.
         -1    1    6    6    0  503 -0.77180034456E+02 -0.52737004109E+02 -0.81624051883E+01  0.93832692488E+02  0.00000000000E+00 0.  1.
<mgrwt>
<rscale>  0 0.28688191E+04</rscale>
<asrwt>0</asrwt>
<pdfrwt beam="1">  1        2 0.45826600E+00 0.28688191E+04</pdfrwt>
<pdfrwt beam="2">  1       -1 0.10626787E+00 0.28688191E+04</pdfrwt>
<totfact> 0.14607146E+00</totfact>
</mgrwt>
</event>
<event>
12    6  0.1627636E-007  0.1991866E+04  0.7818608E-02  0.8610433E-01
          2   -1    0    0  501    0  0.00000000000E+00  0.00000000000E+00  0.11214792998E+04  0.11214792998E+04  0.00000000000E+00 0. -1.
         -1   -1    0    0    0  501 -0.00000000000E+00 -0.00000000000E+00 -0.88444129833E+03  0.88444129833E+03  0.00000000000E+00 0.  1.
         24    2    1    2    0    0 -0.54618154586E+03  0.12115722912E+03  0.65784449640E+03  0.86718292385E+03  0.79078990727E+02 0.  0.
        254    2    1    2    0    0  0.54618154586E+03 -0.12115722912E+03 -0.42080649497E+03  0.11387376742E+04  0.89813809033E+03 0.  0.
         23    2    4    4    0    0  0.26538090578E+03  0.33671443566E+03  0.18857861764E+02  0.43836665035E+03  0.89476616228E+02 0.  0.
         23    2    4    4    0    0  0.28080064007E+03 -0.45787166478E+03 -0.43966435674E+03  0.70037102388E+03  0.93377532829E+02 0.  0.
          4    1    3    3  502    0 -0.43009926323E+03  0.11465076662E+03  0.55906930597E+03  0.71462484102E+03  0.00000000000E+00 0. -1.
         -3    1    3    3    0  502 -0.11608228263E+03  0.65064624936E+01  0.98775190424E+02  0.15255808283E+03  0.00000000000E+00 0.  1.
         11    1    5    5    0    0  0.19971883226E+03  0.30362456641E+03  0.45021371103E+01  0.36344980194E+03  0.00000000000E+00 0.  1.
        -11    1    5    5    0    0  0.65662073520E+02  0.33089869251E+02  0.14355724653E+02  0.74916848414E+02  0.00000000000E+00 0. -1.
          3    1    6    6  503    0  0.78609948963E+02 -0.14693454098E+03 -0.19278302168E+03  0.25482263804E+03  0.00000000000E+00 0. -1.
         -3    1    6    6    0  503  0.20219069111E+03 -0.31093712380E+03 -0.24688133505E+03  0.44554838584E+03  0.00000000000E+00 0.  1.
<mgrwt>
<rscale>  0 0.19918661E+04</rscale>
<asrwt>0</asrwt>
<pdfrwt beam="1">  1        2 0.17253528E+00 0.19918661E+04</pdfrwt>
<pdfrwt beam="2">  1       -1 0.13606789E+00 0.19918661E+04</pdfrwt>
<totfact> 0.10114295E+01</totfact>
</mgrwt>
</event>
<event>
12    6  0.1627636E-007  0.1740424E+04  0.7818608E-02  0.8738639E-01
          2   -1    0    0  501    0  0.00000000000E+00  0.00000000000E+00  0.13672162416E+04  0.13672162416E+04  0.00000000000E+00 0. -1.
         -1   -1    0    0    0  501 -0.00000000000E+00 -0.00000000000E+00 -0.55387634654E+03  0.55387634654E+03  0.00000000000E+00 0.  1.
         24    2    1    2    0    0  0.50323516599E+02 -0.57113558206E+03  0.54837950241E+03  0.79738817368E+03  0.79871843925E+02 0.  0.
        254    2    1    2    0    0 -0.50323516599E+02  0.57113558206E+03  0.26496039266E+03  0.11237044145E+04  0.92939727349E+03 0.  0.
         23    2    4    4    0    0 -0.11683876560E+03  0.75820753499E+03 -0.10299413223E+02  0.77293423472E+03  0.93761879338E+02 0.  0.
         23    2    4    4    0    0  0.66515249003E+02 -0.18707195293E+03  0.27525980588E+03  0.35077017974E+03  0.88609053343E+02 0.  0.
          2    1    3    3  502    0 -0.56893527712E+01 -0.36584403538E+03  0.33654830450E+03  0.49713075565E+03  0.00000000000E+00 0. -1.
         -1    1    3    3    0  502  0.56012869370E+02 -0.20529154668E+03  0.21183119791E+03  0.30025741803E+03  0.00000000000E+00 0.  1.
         11    1    5    5    0    0 -0.93528897549E+02  0.70663190201E+03  0.98306075433E+01  0.71286249758E+03  0.00000000000E+00 0. -1.
        -11    1    5    5    0    0 -0.23309868052E+02  0.51575632981E+02 -0.20130020767E+02  0.60071737132E+02  0.00000000000E+00 0.  1.
          2    1    6    6  503    0  0.31980698068E+02 -0.56952866574E+02  0.16258915505E+03  0.17521879865E+03  0.00000000000E+00 0.  1.
         -2    1    6    6    0  503  0.34534550935E+02 -0.13011908636E+03  0.11267065083E+03  0.17555138109E+03  0.00000000000E+00 0. -1.
<mgrwt>
<rscale>  0 0.17404238E+04</rscale>
<asrwt>0</asrwt>
<pdfrwt beam="1">  1        2 0.21034096E+00 0.17404238E+04</pdfrwt>
<pdfrwt beam="2">  1       -1 0.85211746E-01 0.17404238E+04</pdfrwt>
<totfact> 0.22249192E+01</totfact>
</mgrwt>
</event>
<event>
12    6  0.1627636E-007  0.1688424E+04  0.7818608E-02  0.8767994E-01
          2   -1    0    0  501    0  0.00000000000E+00  0.00000000000E+00  0.20585495676E+04  0.20585495676E+04  0.00000000000E+00 0. -1.
         -1   -1    0    0    0  501 -0.00000000000E+00 -0.00000000000E+00 -0.34621172966E+03  0.34621172966E+03  0.00000000000E+00 0.  1.
         24    2    1    2    0    0  0.15006281574E+03  0.25559067698E+03 -0.10798533794E+03  0.32487397277E+03  0.77696989319E+02 0.  0.
        254    2    1    2    0    0 -0.15006281574E+03 -0.25559067698E+03  0.18203231759E+04  0.20798873245E+04  0.96151410551E+03 0.  0.
         23    2    4    4    0    0  0.35662113211E+03  0.52748021207E+02  0.44520601613E+03  0.57995471162E+03  0.90432765735E+02 0.  0.
         23    2    4    4    0    0 -0.50668394786E+03 -0.30833869818E+03  0.13751171597E+04  0.14999326129E+04  0.83959897020E+02 0.  0.
          2    1    3    3  502    0  0.19519612925E+02  0.10632481143E+03 -0.37401124167E+02  0.11438891950E+03  0.00000000000E+00 0. -1.
         -1    1    3    3    0  502  0.13054320282E+03  0.14926586555E+03 -0.70584213770E+02  0.21048505328E+03  0.00000000000E+00 0.  1.
         11    1    5    5    0    0  0.32064852877E+02  0.18882867008E+02  0.15310689846E+02  0.40238472635E+02  0.00000000000E+00 0.  1.
        -11    1    5    5    0    0  0.32455627923E+03  0.33865154199E+02  0.42989532628E+03  0.53971623898E+03  0.00000000000E+00 0. -1.
          3    1    6    6  503    0 -0.30243241384E+03 -0.13996497005E+03  0.72122594445E+03  0.79449507282E+03  0.00000000000E+00 0. -1.
         -3    1    6    6    0  503 -0.20425153401E+03 -0.16837372814E+03  0.65389121528E+03  0.70543754004E+03  0.00000000000E+00 0.  1.
<mgrwt>
<rscale>  0 0.16884241E+04</rscale>
<asrwt>0</asrwt>
<pdfrwt beam="1">  1        2 0.31669993E+00 0.16884241E+04</pdfrwt>
<pdfrwt beam="2">  1       -1 0.53263344E-01 0.16884241E+04</pdfrwt>
<totfact> 0.23906785E+01</totfact>
</mgrwt>
</event>
<event>
12    6  0.1627636E-007  0.1195669E+04  0.7818608E-02  0.9116656E-01
         -1   -1    0    0    0  501 -0.00000000000E+00  0.00000000000E+00  0.16536871091E+04  0.16536871091E+04  0.00000000000E+00 0.  1.
          2   -1    0    0  501    0  0.00000000000E+00 -0.00000000000E+00 -0.21612676788E+03  0.21612676788E+03  0.00000000000E+00 0. -1.
         24    2    1    2    0    0  0.56845648718E+02  0.15514405135E+03  0.25675594226E+02  0.18521303465E+03  0.79646265574E+02 0.  0.
        254    2    1    2    0    0 -0.56845648718E+02 -0.15514405135E+03  0.14118847470E+04  0.16846008423E+04  0.90396922221E+03 0.  0.
         23    2    4    4    0    0 -0.36301644712E+03  0.58331190419E+02  0.11727124090E+04  0.12324669963E+04  0.92396072196E+02 0.  0.
         23    2    4    4    0    0  0.30617079841E+03 -0.21347524177E+03  0.23917233804E+03  0.45213384604E+03  0.88934643438E+02 0.  0.
          4    1    3    3  502    0  0.73062096187E+02  0.13415558107E+03  0.35668811434E+02  0.15686954434E+03  0.00000000000E+00 0. -1.
         -1    1    3    3    0  502 -0.16216447469E+02  0.20988470279E+02 -0.99932172085E+01  0.28343490317E+02  0.00000000000E+00 0.  1.
         11    1    5    5    0    0 -0.15177980492E+03 -0.14335205607E+02  0.55685264505E+03  0.57734519623E+03  0.00000000000E+00 0. -1.
        -11    1    5    5    0    0 -0.21123664220E+03  0.72666396026E+02  0.61585976390E+03  0.65512180006E+03  0.00000000000E+00 0.  1.
          4    1    6    6  503    0  0.12564155656E+03 -0.53119086489E+02  0.12507179800E+03  0.18506861630E+03  0.00000000000E+00 0. -1.
         -4    1    6    6    0  503  0.18052924185E+03 -0.16035615528E+03  0.11410054005E+03  0.26706522974E+03  0.00000000000E+00 0.  1.
<mgrwt>
<rscale>  0 0.11956689E+04</rscale>
<asrwt>0</asrwt>
<pdfrwt beam="1">  1        2 0.33250273E-01 0.11956689E+04</pdfrwt>
<pdfrwt beam="2">  1       -1 0.25441339E+00 0.11956689E+04</pdfrwt>
<totfact> 0.11743192E+01</totfact>
</mgrwt>
</event>
<event>
12    6  0.1627636E-007  0.3171368E+04  0.7818608E-02  0.8196420E-01
         -1   -1    0    0    0  501 -0.00000000000E+00  0.00000000000E+00  0.18102071155E+04  0.18102071155E+04  0.00000000000E+00 0.  1.
          2   -1    0    0  501    0  0.00000000000E+00 -0.00000000000E+00 -0.13890086112E+04  0.13890086112E+04  0.00000000000E+00 0. -1.
         24    2    1    2    0    0  0.94980745450E+03 -0.26660916732E+03  0.12725076629E+04  0.16121855633E+04  0.81559118110E+02 0.  0.
        254    2    1    2    0    0 -0.94980745450E+03  0.26660916732E+03 -0.85130915866E+03  0.15870301634E+04  0.90593752935E+03 0.  0.
         23    2    4    4    0    0 -0.62174800555E+03  0.89851991505E+02 -0.99297253158E+03  0.11780220802E+04  0.84247315271E+02 0.  0.
         23    2    4    4    0    0 -0.32805944895E+03  0.17675717581E+03  0.14166337292E+03  0.40900808318E+03  0.91394746227E+02 0.  0.
          4    1    3    3  502    0  0.24798509706E+03 -0.96901847149E+02  0.30324446113E+03  0.40353906818E+03  0.00000000000E+00 0. -1.
         -3    1    3    3    0  502  0.70182235744E+03 -0.16970732017E+03  0.96926320179E+03  0.12086464952E+04  0.00000000000E+00 0.  1.
         11    1    5    5    0    0 -0.32179452991E+03  0.68619164604E+01 -0.47635183953E+03  0.57489988728E+03  0.00000000000E+00 0.  1.
        -11    1    5    5    0    0 -0.29995347564E+03  0.82990075044E+02 -0.51662069205E+03  0.60312219290E+03  0.00000000000E+00 0. -1.
          3    1    6    6  503    0 -0.94368591106E+02  0.98811240221E+01  0.51885160245E+02  0.10814405880E+03  0.00000000000E+00 0. -1.
         -3    1    6    6    0  503 -0.23369085784E+03  0.16687605179E+03  0.89778212676E+02  0.30086402439E+03  0.00000000000E+00 0.  1.
<mgrwt>
<rscale>  0 0.31713677E+04</rscale>
<asrwt>0</asrwt>
<pdfrwt beam="1">  1        2 0.21369363E+00 0.31713677E+04</pdfrwt>
<pdfrwt beam="2">  1       -1 0.27849340E+00 0.31713677E+04</pdfrwt>
<totfact> 0.64232484E-01</totfact>
</mgrwt>
</event>
<event>
12    6  0.1627636E-007  0.1827313E+04  0.7818608E-02  0.8691908E-01
          2   -1    0    0  501    0  0.00000000000E+00  0.00000000000E+00  0.17693905596E+04  0.17693905596E+04  0.00000000000E+00 0. -1.
         -1   -1    0    0    0  501 -0.00000000000E+00 -0.00000000000E+00 -0.47178297578E+03  0.47178297578E+03  0.00000000000E+00 0.  1.
         24    2    1    2    0    0  0.67607553127E+02  0.40822411259E+03  0.11700195944E+04  0.12437567744E+04  0.82263936237E+02 0.  0.
        254    2    1    2    0    0 -0.67607553127E+02 -0.40822411259E+03  0.12758798937E+03  0.99741676095E+03  0.89852311749E+03 0.  0.
         23    2    4    4    0    0 -0.16438810607E+03 -0.65060226052E+03  0.20787278982E+03  0.70839044381E+03  0.91099798706E+02 0.  0.
         23    2    4    4    0    0  0.96780552943E+02  0.24237814793E+03 -0.80284800453E+02  0.28902631715E+03  0.94746613650E+02 0.  0.
          2    1    3    3  502    0  0.38418374209E+02  0.36065280826E+03  0.10610295348E+04  0.11213073144E+04  0.00000000000E+00 0. -1.
         -1    1    3    3    0  502  0.29189178918E+02  0.47571304327E+02  0.10899005960E+03  0.12244946000E+03  0.00000000000E+00 0.  1.
         11    1    5    5    0    0 -0.14243637770E+03 -0.38278331287E+03  0.12068080382E+03  0.42588148905E+03  0.00000000000E+00 0. -1.
        -11    1    5    5    0    0 -0.21951728375E+02 -0.26781894765E+03  0.87191986001E+02  0.28250895476E+03  0.00000000000E+00 0.  1.
          4    1    6    6  503    0  0.11372523925E+03  0.18003120097E+03 -0.64866510193E+02  0.22260352088E+03  0.00000000000E+00 0. -1.
         -4    1    6    6    0  503 -0.16944686304E+02  0.62346946957E+02 -0.15418290261E+02  0.66422796263E+02  0.00000000000E+00 0.  1.
<mgrwt>
<rscale>  0 0.18273132E+04</rscale>
<asrwt>0</asrwt>
<pdfrwt beam="1">  1        2 0.27221393E+00 0.18273132E+04</pdfrwt>
<pdfrwt beam="2">  1       -1 0.72581997E-01 0.18273132E+04</pdfrwt>
<totfact> 0.18430250E+01</totfact>
</mgrwt>
</event>
<event>
12    6  0.1627636E-007  0.2396424E+04  0.7818608E-02  0.8440844E-01
         -1   -1    0    0    0  501 -0.00000000000E+00  0.00000000000E+00  0.12260329638E+04  0.12260329638E+04  0.00000000000E+00 0.  1.
          2   -1    0    0  501    0  0.00000000000E+00 -0.00000000000E+00 -0.11710218880E+04  0.11710218880E+04  0.00000000000E+00 0. -1.
         24    2    1    2    0    0 -0.98170955931E+03 -0.61687806570E+02  0.32472187934E+03  0.10389716550E+04  0.80366389608E+02 0.  0.
        254    2    1    2    0    0  0.98170955931E+03  0.61687806570E+02 -0.26971080355E+03  0.13580831969E+04  0.89670898722E+03 0.  0.
         23    2    4    4    0    0  0.98713174765E+03  0.97258576116E+02 -0.49578125666E+03  0.11122261759E+04  0.85788658709E+02 0.  0.
         23    2    4    4    0    0 -0.54221883349E+01 -0.35570769547E+02  0.22607045311E+03  0.24585702102E+03  0.89683584015E+02 0.  0.
          4    1    3    3  502    0 -0.77838382325E+03 -0.19112385039E+02  0.24183011951E+03  0.81530881650E+03  0.00000000000E+00 0. -1.
         -3    1    3    3    0  502 -0.20332573606E+03 -0.42575421531E+02  0.82891759829E+02  0.22366283847E+03  0.00000000000E+00 0.  1.
         11    1    5    5    0    0  0.90405184708E+03  0.85128150211E+02 -0.42580937072E+03  0.10029307874E+04  0.00000000000E+00 0. -1.
        -11    1    5    5    0    0  0.83079900569E+02  0.12130425905E+02 -0.69971885940E+02  0.10929538844E+03  0.00000000000E+00 0.  1.
          1    1    6    6  503    0 -0.34952045614E+02 -0.19506222348E+01  0.17268887075E+03  0.17620129540E+03  0.00000000000E+00 0. -1.
         -1    1    6    6    0  503  0.29529857279E+02 -0.33620147312E+02  0.53381582365E+02  0.69655725623E+02  0.00000000000E+00 0.  1.
<mgrwt>
<rscale>  0 0.23964235E+04</rscale>
<asrwt>0</asrwt>
<pdfrwt beam="1">  1        2 0.18015721E+00 0.23964235E+04</pdfrwt>
<pdfrwt beam="2">  1       -1 0.18862046E+00 0.23964235E+04</pdfrwt>
<totfact> 0.36526954E+00</totfact>
</mgrwt>
</event>
<event>
12    6  0.1627636E-007  0.2717713E+04  0.7818608E-02  0.8329281E-01
         -1   -1    0    0    0  501 -0.00000000000E+00  0.00000000000E+00  0.50486371635E+03  0.50486371635E+03  0.00000000000E+00 0.  1.
          2   -1    0    0  501    0  0.00000000000E+00 -0.00000000000E+00 -0.36574047821E+04  0.36574047821E+04  0.00000000000E+00 0. -1.
         24    2    1    2    0    0 -0.10664118421E+04 -0.19680004891E+03 -0.58548792189E+03  0.12351845514E+04  0.83188297964E+02 0.  0.
        254    2    1    2    0    0  0.10664118421E+04  0.19680004891E+03 -0.25670531439E+04  0.29270839471E+04  0.89559707105E+03 0.  0.
         23    2    4    4    0    0  0.17016839953E+03  0.43248602759E+03 -0.93303685740E+03  0.10462650297E+04  0.90062682786E+02 0.  0.
         23    2    4    4    0    0  0.89624344261E+03 -0.23568597869E+03 -0.16340162865E+04  0.18808189174E+04  0.93114911201E+02 0.  0.
          2    1    3    3  502    0 -0.12234106548E+03 -0.23038086382E+01 -0.85963080851E+02  0.14954027921E+03  0.00000000000E+00 0. -1.
         -1    1    3    3    0  502 -0.94407077666E+03 -0.19449624027E+03 -0.49952484104E+03  0.10856442721E+04  0.00000000000E+00 0.  1.
         11    1    5    5    0    0  0.79483572617E+02  0.13419729640E+03 -0.23861895330E+03  0.28507114472E+03  0.00000000000E+00 0. -1.
        -11    1    5    5    0    0  0.90684826915E+02  0.29828873119E+03 -0.69441790410E+03  0.76119388498E+03  0.00000000000E+00 0.  1.
          2    1    6    6  503    0  0.20438489318E+03 -0.66532583189E+02 -0.30729449110E+03  0.37500623121E+03  0.00000000000E+00 0. -1.
         -2    1    6    6    0  503  0.69185854943E+03 -0.16915339550E+03 -0.13267217954E+04  0.15058126862E+04  0.00000000000E+00 0.  1.
<mgrwt>
<rscale>  0 0.27177130E+04</rscale>
<asrwt>0</asrwt>
<pdfrwt beam="1">  1        2 0.56267762E+00 0.27177130E+04</pdfrwt>
<pdfrwt beam="2">  1       -1 0.77671346E-01 0.27177130E+04</pdfrwt>
<totfact> 0.10379971E+00</totfact>
</mgrwt>
</event>
<event>
12    6  0.1627636E-007  0.2013145E+04  0.7818608E-02  0.8600499E-01
         -1   -1    0    0    0  501 -0.00000000000E+00  0.00000000000E+00  0.10028690870E+04  0.10028690870E+04  0.00000000000E+00 0.  1.
          2   -1    0    0  501    0  0.00000000000E+00 -0.00000000000E+00 -0.10102897757E+04  0.10102897757E+04  0.00000000000E+00 0. -1.
         24    2    1    2    0    0  0.66482762522E+03  0.13427147041E+03  0.41979210543E+03  0.80166177686E+03  0.80072427686E+02 0.  0.
        254    2    1    2    0    0 -0.66482762522E+03 -0.13427147041E+03 -0.42721279407E+03  0.12114970859E+04  0.90839959192E+03 0.  0.
         23    2    4    4    0    0 -0.47626531467E+03 -0.49566382238E+03 -0.38003878442E+03  0.79043433294E+03  0.88575855997E+02 0.  0.
         23    2    4    4    0    0 -0.18856231055E+03  0.36139235197E+03 -0.47174009655E+02  0.42106275291E+03  0.94383672765E+02 0.  0.
          4    1    3    3  502    0  0.24817033244E+03  0.36937821747E+02  0.11306311167E+03  0.27520207812E+03  0.00000000000E+00 0. -1.
         -3    1    3    3    0  502  0.41665729278E+03  0.97333648661E+02  0.30672899376E+03  0.52645969874E+03  0.00000000000E+00 0.  1.
         11    1    5    5    0    0 -0.47988837237E+03 -0.48714259154E+03 -0.37530414458E+03  0.78003458601E+03  0.00000000000E+00 0. -1.
        -11    1    5    5    0    0  0.36230576964E+01 -0.85212308326E+01 -0.47346398394E+01  0.10399746938E+02  0.00000000000E+00 0.  1.
          1    1    6    6  503    0 -0.18142944046E+03  0.26360474194E+03 -0.28707596805E+02  0.32129149997E+03  0.00000000000E+00 0. -1.
         -1    1    6    6    0  503 -0.71328700916E+01  0.97787610032E+02 -0.18466412850E+02  0.99771252949E+02  0.00000000000E+00 0.  1.
<mgrwt>
<rscale>  0 0.20131452E+04</rscale>
<asrwt>0</asrwt>
<pdfrwt beam="1">  1        2 0.15542920E+00 0.20131452E+04</pdfrwt>
<pdfrwt beam="2">  1       -1 0.15428755E+00 0.20131452E+04</pdfrwt>
<totfact> 0.84877986E+00</totfact>
</mgrwt>
</event>
<event>
12    6  0.1627636E-007  0.1357202E+04  0.7818608E-02  0.8985394E-01
         -1   -1    0    0    0  501 -0.00000000000E+00  0.00000000000E+00  0.73257697715E+03  0.73257697715E+03  0.00000000000E+00 0.  1.
          2   -1    0    0  501    0  0.00000000000E+00 -0.00000000000E+00 -0.62860197907E+03  0.62860197907E+03  0.00000000000E+00 0. -1.
         24    2    1    2    0    0  0.14561651690E+03  0.17618128287E+03 -0.26245548653E+03  0.35612714837E+03  0.75496019536E+02 0.  0.
        254    2    1    2    0    0 -0.14561651690E+03 -0.17618128287E+03  0.36643048462E+03  0.10050518079E+04  0.90753171954E+03 0.  0.
         23    2    4    4    0    0 -0.94559695615E+02  0.34236625537E+03  0.29654331793E+03  0.47167821142E+03  0.91576235267E+02 0.  0.
         23    2    4    4    0    0 -0.51056821289E+02 -0.51854753824E+03  0.69887166688E+02  0.53337359643E+03  0.90026823166E+02 0.  0.
          4    1    3    3  502    0  0.13016150847E+03  0.10674131726E+03 -0.16740173739E+03  0.23740065034E+03  0.00000000000E+00 0. -1.
         -3    1    3    3    0  502  0.15455008431E+02  0.69439965606E+02 -0.95053749145E+02  0.11872649803E+03  0.00000000000E+00 0.  1.
         11    1    5    5    0    0 -0.10766550585E+03  0.23528490677E+03  0.21579587160E+03  0.33692537260E+03  0.00000000000E+00 0. -1.
        -11    1    5    5    0    0  0.13105810233E+02  0.10708134860E+03  0.80747446326E+02  0.13475283881E+03  0.00000000000E+00 0.  1.
          4    1    6    6  503    0  0.27889120288E+01 -0.37122318595E+03  0.36683347839E+02  0.37304168645E+03  0.00000000000E+00 0.  1.
         -4    1    6    6    0  503 -0.53845733318E+02 -0.14732435229E+03  0.33203818849E+02  0.16033190999E+03  0.00000000000E+00 0. -1.
<mgrwt>
<rscale>  0 0.13572020E+04</rscale>
<asrwt>0</asrwt>
<pdfrwt beam="1">  1        2 0.96707996E-01 0.13572020E+04</pdfrwt>
<pdfrwt beam="2">  1       -1 0.11270415E+00 0.13572020E+04</pdfrwt>
<totfact> 0.37670277E+01</totfact>
</mgrwt>
</event>
<event>
12    6  0.1627636E-007  0.1357500E+04  0.7818608E-02  0.8985170E-01
          2   -1    0    0  501    0  0.00000000000E+00  0.00000000000E+00  0.63233536755E+03  0.63233536755E+03  0.00000000000E+00 0. -1.
         -1   -1    0    0    0  501 -0.00000000000E+00 -0.00000000000E+00 -0.72857191053E+03  0.72857191053E+03  0.00000000000E+00 0.  1.
         24    2    1    2    0    0  0.29439222653E+03 -0.12497221225E+02  0.21160417795E+03  0.37149594844E+03  0.80062150866E+02 0.  0.
        254    2    1    2    0    0 -0.29439222653E+03  0.12497221225E+02 -0.30784072093E+03  0.98941132964E+03  0.89294227483E+03 0.  0.
         23    2    4    4    0    0  0.23696782595E+01 -0.19538781024E+03 -0.51776704721E+03  0.56106058307E+03  0.92326870046E+02 0.  0.
         23    2    4    4    0    0 -0.29676190479E+03  0.20788503146E+03  0.20992632628E+03  0.42835074658E+03  0.90174748066E+02 0.  0.
          4    1    3    3  502    0  0.18822458533E+03  0.16984311827E+02  0.16843978448E+03  0.25315790006E+03  0.00000000000E+00 0. -1.
         -3    1    3    3    0  502  0.10616764120E+03 -0.29481533052E+02  0.43164393474E+02  0.11833804838E+03  0.00000000000E+00 0.  1.
         11    1    5    5    0    0  0.24787134195E+02 -0.61560667829E+02 -0.86964114814E+02  0.10939321327E+03  0.00000000000E+00 0.  1.
        -11    1    5    5    0    0 -0.22417455935E+02 -0.13382714241E+03 -0.43080293239E+03  0.45166736979E+03  0.00000000000E+00 0. -1.
          3    1    6    6  503    0 -0.77095148403E+02  0.30736779170E+02  0.87927608029E+02  0.12091185118E+03  0.00000000000E+00 0. -1.
         -3    1    6    6    0  503 -0.21966675639E+03  0.17714825229E+03  0.12199871825E+03  0.30743889540E+03  0.00000000000E+00 0.  1.
<mgrwt>
<rscale>  0 0.13575003E+04</rscale>
<asrwt>0</asrwt>
<pdfrwt beam="1">  1        2 0.97282365E-01 0.13575003E+04</pdfrwt>
<pdfrwt beam="2">  1       -1 0.11208799E+00 0.13575003E+04</pdfrwt>
<totfact> 0.37887940E+01</totfact>
</mgrwt>
</event>
<event>
12    6  0.1627636E-007  0.1674643E+04  0.7818608E-02  0.8775960E-01
         -1   -1    0    0    0  501 -0.00000000000E+00  0.00000000000E+00  0.23978531491E+03  0.23978531491E+03  0.00000000000E+00 0.  1.
          2   -1    0    0  501    0  0.00000000000E+00 -0.00000000000E+00 -0.29238946059E+04  0.29238946059E+04  0.00000000000E+00 0. -1.
         24    2    1    2    0    0  0.23337146835E+02 -0.53584504489E+03 -0.49110022061E+03  0.73147579376E+03  0.78758336813E+02 0.  0.
        254    2    1    2    0    0 -0.23337146835E+02  0.53584504489E+03 -0.21930090704E+04  0.24322041271E+04  0.90479478246E+03 0.  0.
         23    2    4    4    0    0 -0.39375156040E+03  0.31815005491E+03 -0.65651066081E+03  0.83390555758E+03  0.90180277487E+02 0.  0.
         23    2    4    4    0    0  0.37041441356E+03  0.21769498997E+03 -0.15364984096E+04  0.15982985695E+04  0.95566773286E+02 0.  0.
          2    1    3    3  502    0  0.31006395808E+02 -0.23973916608E+03 -0.26607990122E+03  0.35949238958E+03  0.00000000000E+00 0. -1.
         -1    1    3    3    0  502 -0.76692489733E+01 -0.29610587881E+03 -0.22502031939E+03  0.37198340418E+03  0.00000000000E+00 0.  1.
         11    1    5    5    0    0 -0.30881955672E+03  0.21767299229E+03 -0.43408701637E+03  0.57548465484E+03  0.00000000000E+00 0. -1.
        -11    1    5    5    0    0 -0.84932003679E+02  0.10047706263E+03 -0.22242364445E+03  0.25842090274E+03  0.00000000000E+00 0.  1.
          3    1    6    6  503    0  0.30991900485E+03  0.21234726362E+03 -0.12408040620E+04  0.12964319767E+04  0.00000000000E+00 0. -1.
         -3    1    6    6    0  503  0.60495408712E+02  0.53477263541E+01 -0.29569434753E+03  0.30186659274E+03  0.00000000000E+00 0.  1.
<mgrwt>
<rscale>  0 0.16746426E+04</rscale>
<asrwt>0</asrwt>
<pdfrwt beam="1">  1        2 0.44982991E+00 0.16746426E+04</pdfrwt>
<pdfrwt beam="2">  1       -1 0.36890051E-01 0.16746426E+04</pdfrwt>
<totfact> 0.14946895E+01</totfact>
</mgrwt>
</event>
<event>
12    6  0.1627636E-007  0.2232210E+04  0.7818608E-02  0.8505140E-01
         -1   -1    0    0    0  501 -0.00000000000E+00  0.00000000000E+00  0.33669137050E+03  0.33669137050E+03  0.00000000000E+00 0.  1.
          2   -1    0    0  501    0  0.00000000000E+00 -0.00000000000E+00 -0.36998000752E+04  0.36998000752E+04  0.00000000000E+00 0. -1.
         24    2    1    2    0    0  0.21387910365E+03  0.39703848570E+00 -0.30467537554E+04  0.30553240744E+04  0.80946433532E+02 0.  0.
        254    2    1    2    0    0 -0.21387910365E+03 -0.39703848570E+00 -0.31635494936E+03  0.98116737132E+03  0.90380558083E+03 0.  0.
         23    2    4    4    0    0 -0.13728918442E+03  0.10247237400E+03  0.29307209245E+03  0.35135169162E+03  0.90597197749E+02 0.  0.
         23    2    4    4    0    0 -0.76589919231E+02 -0.10286941249E+03 -0.60942704181E+03  0.62981567970E+03  0.93906013405E+02 0.  0.
          2    1    3    3  502    0  0.21707471845E+03 -0.68701291215E+00 -0.30403148198E+04  0.30480544793E+04  0.00000000000E+00 0. -1.
         -1    1    3    3    0  502 -0.31956148053E+01  0.10840513979E+01 -0.64389356091E+01  0.72695951190E+01  0.00000000000E+00 0.  1.
         11    1    5    5    0    0 -0.17768704473E+02  0.38489622531E+02  0.20856177060E+02  0.47245719624E+02  0.00000000000E+00 0.  1.
        -11    1    5    5    0    0 -0.11952047994E+03  0.63982751470E+02  0.27221591539E+03  0.30410597200E+03  0.00000000000E+00 0. -1.
          2    1    6    6  503    0 -0.64269973095E+02 -0.10256606115E+03 -0.60457331870E+03  0.61657061561E+03  0.00000000000E+00 0. -1.
         -2    1    6    6    0  503 -0.12319946136E+02 -0.30335133885E+00 -0.48537231052E+01  0.13245064092E+02  0.00000000000E+00 0.  1.
<mgrwt>
<rscale>  0 0.22322103E+04</rscale>
<asrwt>0</asrwt>
<pdfrwt beam="1">  1        2 0.56920003E+00 0.22322103E+04</pdfrwt>
<pdfrwt beam="2">  1       -1 0.51798671E-01 0.22322103E+04</pdfrwt>
<totfact> 0.22821643E+00</totfact>
</mgrwt>
</event>
<event>
12    6  0.1627636E-007  0.2014664E+04  0.7818608E-02  0.8599795E-01
          2   -1    0    0  501    0  0.00000000000E+00  0.00000000000E+00  0.90977373169E+03  0.90977373169E+03  0.00000000000E+00 0. -1.
         -1   -1    0    0    0  501 -0.00000000000E+00 -0.00000000000E+00 -0.11153519311E+04  0.11153519311E+04  0.00000000000E+00 0.  1.
         24    2    1    2    0    0 -0.20218892233E+02  0.31910237690E+02 -0.90167977621E+03  0.90730543916E+03  0.93539693353E+02 0.  0.
        254    2    1    2    0    0  0.20218892233E+02 -0.31910237690E+02  0.69610157677E+03  0.11178202237E+04  0.87380637464E+03 0.  0.
         23    2    4    4    0    0  0.18765839725E+03 -0.12310400986E+03  0.83153411561E+03  0.86599477025E+03  0.90153676510E+02 0.  0.
         23    2    4    4    0    0 -0.16743950501E+03  0.91193772165E+02 -0.13543253884E+03  0.25182545340E+03  0.93390548160E+02 0.  0.
          4    1    3    3  502    0  0.30666013081E+02 -0.11733633258E+02 -0.35968716890E+03  0.36118269890E+03  0.00000000000E+00 0. -1.
         -3    1    3    3    0  502 -0.50884905314E+02  0.43643870948E+02 -0.54199260731E+03  0.54612274027E+03  0.00000000000E+00 0.  1.
         11    1    5    5    0    0  0.14554553116E+03 -0.44097579222E+02  0.50398075818E+03  0.52642635073E+03  0.00000000000E+00 0.  1.
        -11    1    5    5    0    0  0.42112866085E+02 -0.79006430633E+02  0.32755335743E+03  0.33956841952E+03  0.00000000000E+00 0. -1.
          3    1    6    6  503    0 -0.68792300759E+02 -0.96192648968E+01 -0.29686326211E+02  0.75539319992E+02  0.00000000000E+00 0. -1.
         -3    1    6    6    0  503 -0.98647204252E+02  0.10081303706E+03 -0.10574621262E+03  0.17628613341E+03  0.00000000000E+00 0.  1.
<mgrwt>
<rscale>  0 0.20146641E+04</rscale>
<asrwt>0</asrwt>
<pdfrwt beam="1">  1        2 0.13996519E+00 0.20146641E+04</pdfrwt>
<pdfrwt beam="2">  1       -1 0.17159261E+00 0.20146641E+04</pdfrwt>
<totfact> 0.73234774E+00</totfact>
</mgrwt>
</event>
<event>
12    6  0.1627636E-007  0.3141148E+04  0.7818608E-02  0.8204535E-01
         -1   -1    0    0    0  501 -0.00000000000E+00  0.00000000000E+00  0.20360926158E+04  0.20360926158E+04  0.00000000000E+00 0.  1.
          2   -1    0    0  501    0  0.00000000000E+00 -0.00000000000E+00 -0.12114888097E+04  0.12114888097E+04  0.00000000000E+00 0. -1.
         24    2    1    2    0    0  0.50553284667E+03 -0.86854852470E+03  0.14476720798E+04  0.17640793951E+04  0.79256941337E+02 0.  0.
        254    2    1    2    0    0 -0.50553284667E+03  0.86854852470E+03 -0.62306827370E+03  0.14835020304E+04  0.89589296328E+03 0.  0.
         23    2    4    4    0    0 -0.45548652467E+03  0.76507544257E+02 -0.48112865538E+03  0.67215899013E+03  0.83615468045E+02 0.  0.
         23    2    4    4    0    0 -0.50046321998E+02  0.79204098044E+03 -0.14193961833E+03  0.81134304026E+03  0.91088554094E+02 0.  0.
          2    1    3    3  502    0  0.15588944161E+03 -0.24289836912E+03  0.47609562237E+03  0.55674785798E+03  0.00000000000E+00 0. -1.
         -1    1    3    3    0  502  0.34964340507E+03 -0.62565015558E+03  0.97157645741E+03  0.12073315371E+04  0.00000000000E+00 0.  1.
         11    1    5    5    0    0 -0.31887854125E+03  0.92003309109E+02 -0.34164884784E+03  0.47631089447E+03  0.00000000000E+00 0.  1.
        -11    1    5    5    0    0 -0.13660798343E+03 -0.15495764852E+02 -0.13947980754E+03  0.19584809566E+03  0.00000000000E+00 0. -1.
          4    1    6    6  503    0  0.47437655373E+01  0.49657260476E+03 -0.11422153334E+03  0.50956198228E+03  0.00000000000E+00 0.  1.
         -4    1    6    6    0  503 -0.54790087535E+02  0.29546837568E+03 -0.27718084989E+02  0.30178105798E+03  0.00000000000E+00 0. -1.
<mgrwt>
<rscale>  0 0.31411485E+04</rscale>
<asrwt>0</asrwt>
<pdfrwt beam="1">  1        2 0.18638289E+00 0.31411485E+04</pdfrwt>
<pdfrwt beam="2">  1       -1 0.31324502E+00 0.31411485E+04</pdfrwt>
<totfact> 0.48668613E-01</totfact>
</mgrwt>
</event>
<event>
12    6  0.1627636E-007  0.2485672E+04  0.7818608E-02  0.8408108E-01
          4   -1    0    0  501    0  0.00000000000E+00  0.00000000000E+00  0.85087954750E+03  0.85087954750E+03  0.00000000000E+00 0. -1.
         -1   -1    0    0    0  501 -0.00000000000E+00 -0.00000000000E+00 -0.18153460501E+04  0.18153460501E+04  0.00000000000E+00 0.  1.
         24    2    1    2    0    0 -0.43762755940E+03 -0.56054629274E+03 -0.12965064876E+04  0.14809479356E+04  0.80917788249E+02 0.  0.
        254    2    1    2    0    0  0.43762755940E+03  0.56054629274E+03  0.33203998499E+03  0.11852776620E+04  0.88820186751E+03 0.  0.
         23    2    4    4    0    0  0.30915869118E+02 -0.14254273430E+03 -0.15735546535E+03  0.23274111918E+03  0.90185719581E+02 0.  0.
         23    2    4    4    0    0  0.40671169028E+03  0.70308902704E+03  0.48939545034E+03  0.95253654285E+03  0.89829726204E+02 0.  0.
          4    1    3    3  502    0 -0.55828674225E+02 -0.95762739174E+02 -0.25841691089E+03  0.28118791388E+03  0.00000000000E+00 0. -1.
         -3    1    3    3    0  502 -0.38179888517E+03 -0.46478355356E+03 -0.10380895767E+04  0.11997600217E+04  0.00000000000E+00 0.  1.
         11    1    5    5    0    0  0.49940203885E+02 -0.32211395489E+02 -0.50808621975E+02  0.78186405663E+02  0.00000000000E+00 0. -1.
        -11    1    5    5    0    0 -0.19024334767E+02 -0.11033133881E+03 -0.10654684338E+03  0.15455471352E+03  0.00000000000E+00 0.  1.
          4    1    6    6  503    0  0.13333679068E+03  0.31767540187E+03  0.19720382733E+03  0.39697066669E+03  0.00000000000E+00 0. -1.
         -4    1    6    6    0  503  0.27337489960E+03  0.38541362516E+03  0.29219162301E+03  0.55556587616E+03  0.00000000000E+00 0.  1.
<mgrwt>
<rscale>  0 0.24856716E+04</rscale>
<asrwt>0</asrwt>
<pdfrwt beam="1">  1        4 0.13090454E+00 0.24856716E+04</pdfrwt>
<pdfrwt beam="2">  1       -1 0.27928401E+00 0.24856716E+04</pdfrwt>
<totfact> 0.71002711E-02</totfact>
</mgrwt>
</event>
<event>
12    6  0.1627636E-007  0.1411438E+04  0.7818608E-02  0.8945580E-01
          2   -1    0    0  501    0  0.00000000000E+00  0.00000000000E+00  0.32425644851E+04  0.32425644851E+04  0.00000000000E+00 0. -1.
         -1   -1    0    0    0  501 -0.00000000000E+00 -0.00000000000E+00 -0.15359433301E+03  0.15359433301E+03  0.00000000000E+00 0.  1.
         24    2    1    2    0    0 -0.24624895378E+03 -0.41376384595E+01  0.16953463822E+04  0.17149251290E+04  0.78186795160E+02 0.  0.
        254    2    1    2    0    0  0.24624895378E+03  0.41376384595E+01  0.13936237699E+04  0.16812336891E+04  0.90758131221E+03 0.  0.
         23    2    4    4    0    0 -0.25797139739E+03  0.21824022569E+03  0.77294801524E+03  0.84859396352E+03  0.92114291409E+02 0.  0.
         23    2    4    4    0    0  0.50422035118E+03 -0.21410258723E+03  0.62067575462E+03  0.83263972561E+03  0.89288520492E+02 0.  0.
          2    1    3    3  502    0 -0.23761868778E+03  0.32173426737E+01  0.16737200791E+04  0.16905064020E+04  0.00000000000E+00 0. -1.
         -1    1    3    3    0  502 -0.86302660070E+01 -0.73549811332E+01  0.21626303108E+02  0.24418726931E+02  0.00000000000E+00 0.  1.
         11    1    5    5    0    0 -0.25230290345E+03  0.17619010793E+03  0.67366347867E+03  0.74062284039E+03  0.00000000000E+00 0. -1.
        -11    1    5    5    0    0 -0.56684939381E+01  0.42050117759E+02  0.99284536572E+02  0.10797112313E+03  0.00000000000E+00 0.  1.
          2    1    6    6  503    0 -0.27440468820E+01  0.28157930699E+00 -0.36357785581E+00  0.27823136153E+01  0.00000000000E+00 0.  1.
         -2    1    6    6    0  503  0.50696439806E+03 -0.21438416654E+03  0.62103933248E+03  0.82985741200E+03  0.00000000000E+00 0. -1.
<mgrwt>
<rscale>  0 0.14114383E+04</rscale>
<asrwt>0</asrwt>
<pdfrwt beam="1">  1        2 0.49885602E+00 0.14114383E+04</pdfrwt>
<pdfrwt beam="2">  1       -1 0.23629900E-01 0.14114383E+04</pdfrwt>
<totfact> 0.21035214E+01</totfact>
</mgrwt>
</event>
<event>
12    6  0.1627636E-007  0.1439615E+04  0.7818608E-02  0.8925632E-01
          2   -1    0    0  501    0  0.00000000000E+00  0.00000000000E+00  0.18570531388E+04  0.18570531388E+04  0.00000000000E+00 0. -1.
         -1   -1    0    0    0  501 -0.00000000000E+00 -0.00000000000E+00 -0.27900272560E+03  0.27900272560E+03  0.00000000000E+00 0.  1.
         24    2    1    2    0    0  0.25451324379E+03  0.25907346203E+02  0.10039371406E+04  0.10390977514E+04  0.79913533698E+02 0.  0.
        254    2    1    2    0    0 -0.25451324379E+03 -0.25907346203E+02  0.57411327259E+03  0.10969581130E+04  0.89903440979E+03 0.  0.
         23    2    4    4    0    0 -0.46212449544E+03  0.28093211368E+03  0.38638714682E+03  0.67067511192E+03  0.89600093426E+02 0.  0.
         23    2    4    4    0    0  0.20761125165E+03 -0.30683945988E+03  0.18772612577E+03  0.42628300104E+03  0.96037558951E+02 0.  0.
          4    1    3    3  502    0  0.20368313746E+03  0.26804990418E+02  0.90307555163E+03  0.92614835742E+03  0.00000000000E+00 0. -1.
         -3    1    3    3    0  502  0.50830106329E+02 -0.89764421570E+00  0.10086158896E+03  0.11294939399E+03  0.00000000000E+00 0.  1.
         11    1    5    5    0    0 -0.28552482460E+03  0.12808952126E+03  0.24713595614E+03  0.39875748486E+03  0.00000000000E+00 0. -1.
        -11    1    5    5    0    0 -0.17659967084E+03  0.15284259242E+03  0.13925119069E+03  0.27191762706E+03  0.00000000000E+00 0.  1.
          2    1    6    6  503    0  0.16975358614E+03 -0.17064912279E+03  0.13032238298E+03  0.27371760378E+03  0.00000000000E+00 0. -1.
         -2    1    6    6    0  503  0.37857665517E+02 -0.13619033709E+03  0.57403742792E+02  0.15256539726E+03  0.00000000000E+00 0.  1.
<mgrwt>
<rscale>  0 0.14396151E+04</rscale>
<asrwt>0</asrwt>
<pdfrwt beam="1">  1        2 0.28570048E+00 0.14396151E+04</pdfrwt>
<pdfrwt beam="2">  1       -1 0.42923497E-01 0.14396151E+04</pdfrwt>
<totfact> 0.47437849E+01</totfact>
</mgrwt>
</event>
<event>
12    6  0.1627636E-007  0.1396028E+04  0.7818608E-02  0.8956699E-01
         -1   -1    0    0    0  501 -0.00000000000E+00  0.00000000000E+00  0.23519727185E+03  0.23519727185E+03  0.00000000000E+00 0.  1.
          2   -1    0    0  501    0  0.00000000000E+00 -0.00000000000E+00 -0.20715523410E+04  0.20715523410E+04  0.00000000000E+00 0. -1.
         24    2    1    2    0    0 -0.22426084919E+03  0.19565598971E+03 -0.88488367243E+02  0.32030432423E+03  0.78679566562E+02 0.  0.
        254    2    1    2    0    0  0.22426084919E+03 -0.19565598971E+03 -0.17478667019E+04  0.19864452886E+04  0.89574141482E+03 0.  0.
         23    2    4    4    0    0  0.37625381179E+03 -0.47195112314E+03 -0.12184330716E+04  0.13625330545E+04  0.87248961396E+02 0.  0.
         23    2    4    4    0    0 -0.15199296260E+03  0.27629513343E+03 -0.52943363033E+03  0.62391223407E+03  0.97599413275E+02 0.  0.
          4    1    3    3  502    0 -0.30844544441E+01  0.11478150443E+02 -0.21845607264E+02  0.24869506500E+02  0.00000000000E+00 0. -1.
         -3    1    3    3    0  502 -0.22117639475E+03  0.18417783927E+03 -0.66642759979E+02  0.29543481773E+03  0.00000000000E+00 0.  1.
         11    1    5    5    0    0  0.25161435758E+02 -0.68436240087E+02 -0.18583203961E+03  0.19962505792E+03  0.00000000000E+00 0. -1.
        -11    1    5    5    0    0  0.35109237603E+03 -0.40351488305E+03 -0.10326010319E+04  0.11629079966E+04  0.00000000000E+00 0.  1.
          1    1    6    6  503    0 -0.15002609717E+03  0.19629194884E+03 -0.43371878771E+03  0.49914962268E+03  0.00000000000E+00 0. -1.
         -1    1    6    6    0  503 -0.19668654259E+01  0.80003184593E+02 -0.95714842620E+02  0.12476261140E+03  0.00000000000E+00 0.  1.
<mgrwt>
<rscale>  0 0.13960279E+04</rscale>
<asrwt>0</asrwt>
<pdfrwt beam="1">  1        2 0.31870036E+00 0.13960279E+04</pdfrwt>
<pdfrwt beam="2">  1       -1 0.36184196E-01 0.13960279E+04</pdfrwt>
<totfact> 0.49446666E+01</totfact>
</mgrwt>
</event>
<event>
12    6  0.1627636E-007  0.2596755E+04  0.7818608E-02  0.8369304E-01
          2   -1    0    0  501    0  0.00000000000E+00  0.00000000000E+00  0.22228405115E+04  0.22228405115E+04  0.00000000000E+00 0. -1.
         -1   -1    0    0    0  501 -0.00000000000E+00 -0.00000000000E+00 -0.75839196518E+03  0.75839196518E+03  0.00000000000E+00 0.  1.
         24    2    1    2    0    0 -0.95487775677E+03  0.48269482267E+03  0.10976832971E+04  0.15349402819E+04  0.79669481029E+02 0.  0.
        254    2    1    2    0    0  0.95487775677E+03 -0.48269482267E+03  0.36676524928E+03  0.14462921948E+04  0.90136482203E+03 0.  0.
         23    2    4    4    0    0  0.13834953729E+03  0.12925975150E+03 -0.18759701217E+03  0.28131914460E+03  0.89995246080E+02 0.  0.
         23    2    4    4    0    0  0.81652821947E+03 -0.61195457418E+03  0.55436226144E+03  0.11649730502E+04  0.92940608359E+02 0.  0.
          2    1    3    3  502    0 -0.90351290343E+03  0.44870149103E+03  0.10569246508E+04  0.14610812134E+04  0.00000000000E+00 0. -1.
         -1    1    3    3    0  502 -0.51364853339E+02  0.33993331643E+02  0.40758646216E+02  0.73859068476E+02  0.00000000000E+00 0.  1.
         11    1    5    5    0    0  0.55915312407E+02  0.10880723824E+03 -0.13109625743E+03  0.17930913521E+03  0.00000000000E+00 0. -1.
        -11    1    5    5    0    0  0.82434224884E+02  0.20452513260E+02 -0.56500754734E+02  0.10201000939E+03  0.00000000000E+00 0.  1.
          4    1    6    6  503    0  0.38456399725E+03 -0.29945049423E+03  0.31663735027E+03  0.58122222778E+03  0.00000000000E+00 0.  1.
         -4    1    6    6    0  503  0.43196422223E+03 -0.31250407994E+03  0.23772491117E+03  0.58375082240E+03  0.00000000000E+00 0. -1.
<mgrwt>
<rscale>  0 0.25967552E+04</rscale>
<asrwt>0</asrwt>
<pdfrwt beam="1">  1        2 0.34197546E+00 0.25967552E+04</pdfrwt>
<pdfrwt beam="2">  1       -1 0.11667569E+00 0.25967552E+04</pdfrwt>
<totfact> 0.33439603E+00</totfact>
</mgrwt>
</event>
<event>
12    6  0.1627636E-007  0.1784386E+04  0.7818608E-02  0.8714647E-01
         -1   -1    0    0    0  501 -0.00000000000E+00  0.00000000000E+00  0.26150396717E+03  0.26150396717E+03  0.00000000000E+00 0.  1.
          2   -1    0    0  501    0  0.00000000000E+00 -0.00000000000E+00 -0.30439618588E+04  0.30439618588E+04  0.00000000000E+00 0. -1.
         24    2    1    2    0    0  0.55178082530E+03  0.23926258545E+03 -0.53031780915E+03  0.80634674342E+03  0.85143572622E+02 0.  0.
        254    2    1    2    0    0 -0.55178082530E+03 -0.23926258545E+03 -0.22521400824E+04  0.24991190825E+04  0.90097312594E+03 0.  0.
         23    2    4    4    0    0 -0.14176000088E+03  0.17136827016E+02 -0.18659500682E+04  0.18735900236E+04  0.90445291541E+02 0.  0.
         23    2    4    4    0    0 -0.41002082442E+03 -0.25639941247E+03 -0.38619001421E+03  0.62552905890E+03  0.91028244404E+02 0.  0.
          4    1    3    3  502    0  0.86993316205E+02  0.29803969554E+02 -0.12430029088E+03  0.15461783849E+03  0.00000000000E+00 0. -1.
         -3    1    3    3    0  502  0.46478750910E+03  0.20945861590E+03 -0.40601751827E+03  0.65172890494E+03  0.00000000000E+00 0.  1.
         11    1    5    5    0    0 -0.91070550068E+02  0.35347665064E+02 -0.15505217066E+04  0.15535961074E+04  0.00000000000E+00 0.  1.
        -11    1    5    5    0    0 -0.50689450817E+02 -0.18210838049E+02 -0.31542836167E+03  0.31999391618E+03  0.00000000000E+00 0. -1.
          2    1    6    6  503    0 -0.36297167646E+03 -0.19747768937E+03 -0.29777759557E+03  0.50933031731E+03  0.00000000000E+00 0.  1.
         -2    1    6    6    0  503 -0.47049147964E+02 -0.58921723101E+02 -0.88412418636E+02  0.11619874159E+03  0.00000000000E+00 0. -1.
<mgrwt>
<rscale>  0 0.17843857E+04</rscale>
<asrwt>0</asrwt>
<pdfrwt beam="1">  1        2 0.46830185E+00 0.17843857E+04</pdfrwt>
<pdfrwt beam="2">  1       -1 0.40231377E-01 0.17843857E+04</pdfrwt>
<totfact> 0.10641093E+01</totfact>
</mgrwt>
</event>
<event>
12    6  0.1899816E-007  0.1323255E+04  0.7818608E-02  0.9011324E-01
         -1   -1    0    0    0  501 -0.00000000000E+00  0.00000000000E+00  0.29551385040E+03  0.29551385040E+03  0.00000000000E+00 0.  1.
          2   -1    0    0  501    0  0.00000000000E+00 -0.00000000000E+00 -0.14813220139E+04  0.14813220139E+04  0.00000000000E+00 0. -1.
         24    2    1    2    0    0  0.21015921931E+03  0.20999328503E+03 -0.59023325492E+02  0.31331969623E+03  0.80133650058E+02 0.  0.
        254    2    1    2    0    0 -0.21015921931E+03 -0.20999328503E+03 -0.11267848381E+04  0.14635161681E+04  0.88542160910E+03 0.  0.
         23    2    4    4    0    0  0.28903979211E+03  0.47037074636E+02 -0.17219362709E+03  0.35225964803E+03  0.93165050357E+02 0.  0.
         23    2    4    4    0    0 -0.49919901142E+03 -0.25703035967E+03 -0.95459121097E+03  0.11112565201E+04  0.91555527374E+02 0.  0.
          4    1    3    3  502    0  0.46366400420E+01 -0.38386173241E+01 -0.11458307898E+02  0.12943192563E+02  0.00000000000E+00 0. -1.
         -3    1    3    3    0  502  0.20552257927E+03  0.21383190236E+03 -0.47565017594E+02  0.30037650366E+03  0.00000000000E+00 0.  1.
         11    1    5    5    0    0  0.11404539278E+03  0.24688656209E+02 -0.12205188580E+03  0.16885657875E+03  0.00000000000E+00 0. -1.
        -11    1    5    5    0    0  0.17499439933E+03  0.22348418427E+02 -0.50141741291E+02  0.18340306928E+03  0.00000000000E+00 0.  1.
          3    1    6    6  503    0 -0.12632283834E+03 -0.82932729296E+02 -0.18809653621E+03  0.24127909982E+03  0.00000000000E+00 0. -1.
         -3    1    6    6    0  503 -0.37287617308E+03 -0.17409763037E+03 -0.76649467476E+03  0.86997742028E+03  0.00000000000E+00 0.  1.
<mgrwt>
<rscale>  0 0.13232553E+04</rscale>
<asrwt>0</asrwt>
<pdfrwt beam="1">  1        2 0.22789570E+00 0.13232553E+04</pdfrwt>
<pdfrwt beam="2">  1       -1 0.45463669E-01 0.13232553E+04</pdfrwt>
<totfact> 0.69664248E+01</totfact>
</mgrwt>
</event>
<event>
12    6  0.1627636E-007  0.2393226E+04  0.7818608E-02  0.8442044E-01
         -1   -1    0    0    0  501 -0.00000000000E+00  0.00000000000E+00  0.13337574202E+04  0.13337574202E+04  0.00000000000E+00 0.  1.
          2   -1    0    0  501    0  0.00000000000E+00 -0.00000000000E+00 -0.10735703500E+04  0.10735703500E+04  0.00000000000E+00 0. -1.
         24    2    1    2    0    0  0.99152577315E+03 -0.21856389553E+03 -0.67773543341E+02  0.10207425212E+04  0.80177965096E+02 0.  0.
        254    2    1    2    0    0 -0.99152577315E+03  0.21856389553E+03  0.32796061355E+03  0.13865852491E+04  0.88553201738E+03 0.  0.
         23    2    4    4    0    0  0.26969980553E+02 -0.49456414578E+02  0.31044670059E+03  0.32930856506E+03  0.94306205115E+02 0.  0.
         23    2    4    4    0    0 -0.10184957537E+04  0.26802031011E+03  0.17513912962E+02  0.10572766841E+04  0.91426268509E+02 0.  0.
          2    1    3    3  502    0  0.94587654442E+03 -0.22157102250E+03 -0.54065328897E+02  0.97298469417E+03  0.00000000000E+00 0. -1.
         -3    1    3    3    0  502  0.45649228727E+02  0.30071269697E+01 -0.13708214444E+02  0.47757826994E+02  0.00000000000E+00 0.  1.
         11    1    5    5    0    0  0.35248515011E+02 -0.65384255028E+02  0.29883765403E+03  0.30793100215E+03  0.00000000000E+00 0.  1.
        -11    1    5    5    0    0 -0.82785344579E+01  0.15927840450E+02  0.11609046553E+02  0.21377562912E+02  0.00000000000E+00 0. -1.
          2    1    6    6  503    0 -0.53249009895E+03  0.18521240369E+03  0.22730082988E+02  0.56423930794E+03  0.00000000000E+00 0. -1.
         -2    1    6    6    0  503 -0.48600565475E+03  0.82807906421E+02 -0.52161700262E+01  0.49303737611E+03  0.00000000000E+00 0.  1.
<mgrwt>
<rscale>  0 0.23932258E+04</rscale>
<asrwt>0</asrwt>
<pdfrwt beam="1">  1        2 0.16516467E+00 0.23932258E+04</pdfrwt>
<pdfrwt beam="2">  1       -1 0.20519345E+00 0.23932258E+04</pdfrwt>
<totfact> 0.32172565E+00</totfact>
</mgrwt>
</event>
<event>
12    6  0.1627636E-007  0.1665315E+04  0.7818608E-02  0.8781398E-01
         -3   -1    0    0    0  501 -0.00000000000E+00  0.00000000000E+00  0.36176874268E+03  0.36176874268E+03  0.00000000000E+00 0.  1.
          2   -1    0    0  501    0  0.00000000000E+00 -0.00000000000E+00 -0.19164683037E+04  0.19164683037E+04  0.00000000000E+00 0. -1.
         24    2    1    2    0    0  0.10805365606E+03  0.61668601323E+02 -0.13296082309E+04  0.13377950782E+04  0.79743429461E+02 0.  0.
        254    2    1    2    0    0 -0.10805365606E+03 -0.61668601323E+02 -0.22509133015E+03  0.94044196823E+03  0.90459183045E+03 0.  0.
         23    2    4    4    0    0 -0.12183827972E+03  0.24846625320E+03  0.23765631416E+03  0.37565984033E+03  0.89776091428E+02 0.  0.
         23    2    4    4    0    0  0.13784623658E+02 -0.31013485452E+03 -0.46274764430E+03  0.56478212790E+03  0.92031656766E+02 0.  0.
          4    1    3    3  502    0  0.88581625678E+02  0.38244610128E+02 -0.12262977602E+04  0.12300876193E+04  0.00000000000E+00 0. -1.
         -3    1    3    3    0  502  0.19472030381E+02  0.23423991196E+02 -0.10331047074E+03  0.10770745886E+03  0.00000000000E+00 0.  1.
         11    1    5    5    0    0 -0.89285553460E+02  0.24009531884E+03  0.19858160273E+03  0.32411776429E+03  0.00000000000E+00 0.  1.
        -11    1    5    5    0    0 -0.32552726257E+02  0.83709343551E+01  0.39074711426E+02  0.51542076033E+02  0.00000000000E+00 0. -1.
          1    1    6    6  503    0  0.25512549509E+02 -0.18497997159E+02 -0.37119971930E+02  0.48692488101E+02  0.00000000000E+00 0. -1.
         -1    1    6    6    0  503 -0.11727925852E+02 -0.29163685736E+03 -0.42562767237E+03  0.51608963980E+03  0.00000000000E+00 0.  1.
<mgrwt>
<rscale>  0 0.16653148E+04</rscale>
<asrwt>0</asrwt>
<pdfrwt beam="1">  1        2 0.29484128E+00 0.16653148E+04</pdfrwt>
<pdfrwt beam="2">  1       -3 0.55656730E-01 0.16653148E+04</pdfrwt>
<totfact> 0.14468685E+01</totfact>
</mgrwt>
</event>
<event>
12    6  0.1793640E-007  0.1547172E+04  0.7818608E-02  0.8853676E-01
          2   -1    0    0  501    0  0.00000000000E+00  0.00000000000E+00  0.96015778083E+03  0.96015778083E+03  0.00000000000E+00 0. -1.
         -1   -1    0    0    0  501 -0.00000000000E+00 -0.00000000000E+00 -0.62326770706E+03  0.62326770706E+03  0.00000000000E+00 0.  1.
         24    2    1    2    0    0 -0.25129413921E+03  0.68730497570E+02 -0.32133954032E+03  0.42145604313E+03  0.80582072601E+02 0.  0.
        254    2    1    2    0    0  0.25129413921E+03 -0.68730497570E+02  0.65822961409E+03  0.11619694448E+04  0.92143048571E+03 0.  0.
         23    2    4    4    0    0 -0.20951072919E+03  0.19423018214E+03  0.52940921697E+03  0.60851979876E+03  0.91663063248E+02 0.  0.
         23    2    4    4    0    0  0.46080486840E+03 -0.26296067971E+03  0.12882039711E+03  0.55344964600E+03  0.90677285679E+02 0.  0.
          4    1    3    3  502    0 -0.17415943517E+02 -0.13130125262E+02 -0.11306435260E+02  0.24567270021E+02  0.00000000000E+00 0. -1.
         -3    1    3    3    0  502 -0.23387819569E+03  0.81860622832E+02 -0.31003310506E+03  0.39688877311E+03  0.00000000000E+00 0.  1.
         11    1    5    5    0    0 -0.13805791111E+03  0.15569790822E+03  0.44584391110E+03  0.49201485598E+03  0.00000000000E+00 0.  1.
        -11    1    5    5    0    0 -0.71452818080E+02  0.38532273921E+02  0.83565305874E+02  0.11650494277E+03  0.00000000000E+00 0. -1.
          2    1    6    6  503    0  0.31023307483E+03 -0.16745197590E+03  0.41705523467E+02  0.35499869808E+03  0.00000000000E+00 0.  1.
         -2    1    6    6    0  503  0.15057179357E+03 -0.95508703810E+02  0.87114873646E+02  0.19845094792E+03  0.00000000000E+00 0. -1.
<mgrwt>
<rscale>  0 0.15471721E+04</rscale>
<asrwt>0</asrwt>
<pdfrwt beam="1">  1        2 0.14771658E+00 0.15471721E+04</pdfrwt>
<pdfrwt beam="2">  1       -1 0.95887339E-01 0.15471721E+04</pdfrwt>
<totfact> 0.30806035E+01</totfact>
</mgrwt>
</event>
<event>
12    6  0.1627636E-007  0.2743151E+04  0.7818608E-02  0.8321138E-01
          2   -1    0    0  501    0  0.00000000000E+00  0.00000000000E+00  0.25294787647E+04  0.25294787647E+04  0.00000000000E+00 0. -1.
         -3   -1    0    0    0  501 -0.00000000000E+00 -0.00000000000E+00 -0.74371832350E+03  0.74371832350E+03  0.00000000000E+00 0.  1.
         24    2    1    2    0    0 -0.11188354881E+04 -0.10713505330E+03  0.22450996209E+03  0.11489025093E+04  0.79381884693E+02 0.  0.
        254    2    1    2    0    0  0.11188354881E+04  0.10713505330E+03  0.15612504791E+04  0.21242945789E+04  0.90102920609E+03 0.  0.
         23    2    4    4    0    0  0.29644744073E+03 -0.37184064894E+03  0.53878775605E+03  0.72448774510E+03  0.91889571819E+02 0.  0.
         23    2    4    4    0    0  0.82238804741E+03  0.47897570224E+03  0.10224627231E+04  0.13998068338E+04  0.91045746910E+02 0.  0.
          2    1    3    3  502    0 -0.51025619648E+02  0.48483866811E+01 -0.31999571086E+01  0.51355237701E+02  0.00000000000E+00 0. -1.
         -1    1    3    3    0  502 -0.10678098685E+04 -0.11198343998E+03  0.22770991920E+03  0.10975472716E+04  0.00000000000E+00 0.  1.
         11    1    5    5    0    0  0.83768535343E+02 -0.16724355222E+03  0.24303527805E+03  0.30668178891E+03  0.00000000000E+00 0. -1.
        -11    1    5    5    0    0  0.21267890539E+03 -0.20459709672E+03  0.29575247800E+03  0.41780595619E+03  0.00000000000E+00 0.  1.
          1    1    6    6  503    0  0.23800558130E+03  0.96664484904E+02  0.30128082393E+03  0.39593031488E+03  0.00000000000E+00 0. -1.
         -1    1    6    6    0  503  0.58438246611E+03  0.38231121734E+03  0.72118189913E+03  0.10038765189E+04  0.00000000000E+00 0.  1.
<mgrwt>
<rscale>  0 0.27431513E+04</rscale>
<asrwt>0</asrwt>
<pdfrwt beam="1">  1        2 0.38915058E+00 0.27431513E+04</pdfrwt>
<pdfrwt beam="2">  1       -3 0.11441820E+00 0.27431513E+04</pdfrwt>
<totfact> 0.11842755E+00</totfact>
</mgrwt>
</event>
<event>
12    6  0.1627636E-007  0.1367017E+04  0.7818608E-02  0.8978046E-01
         -1   -1    0    0    0  501 -0.00000000000E+00  0.00000000000E+00  0.11886467111E+04  0.11886467111E+04  0.00000000000E+00 0.  1.
          2   -1    0    0  501    0  0.00000000000E+00 -0.00000000000E+00 -0.39303846308E+03  0.39303846308E+03  0.00000000000E+00 0. -1.
         24    2    1    2    0    0  0.23823498920E+03  0.24283022251E+03  0.44939670913E+03  0.56917512591E+03  0.79249572460E+02 0.  0.
        254    2    1    2    0    0 -0.23823498920E+03 -0.24283022251E+03  0.34621153885E+03  0.10125100482E+04  0.88858974847E+03 0.  0.
         23    2    4    4    0    0  0.31683742497E+03  0.51994445570E+01  0.63543788313E+02  0.33583147557E+03  0.91279673909E+02 0.  0.
         23    2    4    4    0    0 -0.55507241417E+03 -0.24802966707E+03  0.28266775054E+03  0.67667857266E+03  0.91480778218E+02 0.  0.
          2    1    3    3  502    0  0.99323508126E+01  0.48110415344E+01  0.50007781060E+02  0.51211091375E+02  0.00000000000E+00 0. -1.
         -1    1    3    3    0  502  0.22830263839E+03  0.23801918098E+03  0.39938892807E+03  0.51796403453E+03  0.00000000000E+00 0.  1.
         11    1    5    5    0    0  0.21668778537E+03 -0.19353097418E+02  0.79232310427E+02  0.23152947485E+03  0.00000000000E+00 0.  1.
        -11    1    5    5    0    0  0.10014963960E+03  0.24552541975E+02 -0.15688522115E+02  0.10430200072E+03  0.00000000000E+00 0. -1.
          4    1    6    6  503    0 -0.56854758636E+02  0.17131412770E+01  0.17568114496E+02  0.59531815691E+02  0.00000000000E+00 0. -1.
         -4    1    6    6    0  503 -0.49821765553E+03 -0.24974280835E+03  0.26509963604E+03  0.61714675697E+03  0.00000000000E+00 0.  1.
<mgrwt>
<rscale>  0 0.13670170E+04</rscale>
<asrwt>0</asrwt>
<pdfrwt beam="1">  1        2 0.60467456E-01 0.13670170E+04</pdfrwt>
<pdfrwt beam="2">  1       -1 0.18286872E+00 0.13670170E+04</pdfrwt>
<totfact> 0.17972813E+01</totfact>
</mgrwt>
</event>
<event>
12    6  0.1627636E-007  0.2690028E+04  0.7818608E-02  0.8338248E-01
          2   -1    0    0  501    0  0.00000000000E+00  0.00000000000E+00  0.23401173174E+04  0.23401173174E+04  0.00000000000E+00 0. -1.
         -1   -1    0    0    0  501 -0.00000000000E+00 -0.00000000000E+00 -0.77306484519E+03  0.77306484519E+03  0.00000000000E+00 0.  1.
         24    2    1    2    0    0 -0.20489868929E+03  0.21519909618E+03  0.20323376772E+04  0.20555840409E+04  0.82068210038E+02 0.  0.
        254    2    1    2    0    0  0.20489868929E+03 -0.21519909618E+03 -0.46528520501E+03  0.10575981217E+04  0.90206947688E+03 0.  0.
         23    2    4    4    0    0  0.25204865374E+02  0.30400012214E+03  0.19112228630E+02  0.31931870204E+03  0.92454295127E+02 0.  0.
         23    2    4    4    0    0  0.17969382391E+03 -0.51919921832E+03 -0.48439743364E+03  0.73827941965E+03  0.92509075776E+02 0.  0.
          4    1    3    3  502    0 -0.12212848456E+03  0.69133673150E+02  0.94248150545E+03  0.95287261458E+03  0.00000000000E+00 0. -1.
         -3    1    3    3    0  502 -0.82770204732E+02  0.14606542303E+03  0.10898561718E+04  0.11027114263E+04  0.00000000000E+00 0.  1.
         11    1    5    5    0    0  0.56365930298E+02  0.21315198043E+03 -0.40719412235E+01  0.22051636122E+03  0.00000000000E+00 0. -1.
        -11    1    5    5    0    0 -0.31161064924E+02  0.90848141706E+02  0.23184169854E+02  0.98802340815E+02  0.00000000000E+00 0.  1.
          3    1    6    6  503    0  0.37394483060E+01 -0.12875003302E+03 -0.11733701738E+03  0.17423699413E+03  0.00000000000E+00 0. -1.
         -3    1    6    6    0  503  0.17595437561E+03 -0.39044918530E+03 -0.36706041626E+03  0.56404242551E+03  0.00000000000E+00 0.  1.
<mgrwt>
<rscale>  0 0.26900278E+04</rscale>
<asrwt>0</asrwt>
<pdfrwt beam="1">  1        2 0.36001805E+00 0.26900278E+04</pdfrwt>
<pdfrwt beam="2">  1       -1 0.11893305E+00 0.26900278E+04</pdfrwt>
<totfact> 0.27172221E+00</totfact>
</mgrwt>
</event>
<event>
12    6  0.1627636E-007  0.1945940E+04  0.7818608E-02  0.8632321E-01
         -1   -1    0    0    0  501 -0.00000000000E+00  0.00000000000E+00  0.18614594078E+04  0.18614594078E+04  0.00000000000E+00 0.  1.
          2   -1    0    0  501    0  0.00000000000E+00 -0.00000000000E+00 -0.50856389190E+03  0.50856389190E+03  0.00000000000E+00 0. -1.
         24    2    1    2    0    0 -0.38335681313E+03 -0.65188497639E+03  0.51921476284E+03  0.92074109180E+03  0.79143664120E+02 0.  0.
        254    2    1    2    0    0  0.38335681313E+03  0.65188497639E+03  0.83368075301E+03  0.14492822079E+04  0.91295062924E+03 0.  0.
         23    2    4    4    0    0  0.11199347901E+03  0.32193405345E+03  0.93512252683E+03  0.10002334714E+04  0.99140219301E+02 0.  0.
         23    2    4    4    0    0  0.27136333412E+03  0.32995092294E+03 -0.10144177382E+03  0.44904873642E+03  0.94067335175E+02 0.  0.
          4    1    3    3  502    0 -0.37028806706E+02 -0.29031654207E+02  0.41863206366E+02  0.62980135910E+02  0.00000000000E+00 0. -1.
         -3    1    3    3    0  502 -0.34632800642E+03 -0.62285332218E+03  0.47735155647E+03  0.85776095589E+03  0.00000000000E+00 0.  1.
         11    1    5    5    0    0  0.11596648127E+03  0.31873376715E+03  0.93552962367E+03  0.99511562939E+03  0.00000000000E+00 0.  1.
        -11    1    5    5    0    0 -0.39730022620E+01  0.32002862940E+01 -0.40709683669E+00  0.51178420424E+01  0.00000000000E+00 0. -1.
          2    1    6    6  503    0  0.16833137523E+03  0.19866200163E+03 -0.14307624035E+02  0.26078104012E+03  0.00000000000E+00 0. -1.
         -2    1    6    6    0  503  0.10303195889E+03  0.13128892131E+03 -0.87134149780E+02  0.18826769630E+03  0.00000000000E+00 0.  1.
<mgrwt>
<rscale>  0 0.19459404E+04</rscale>
<asrwt>0</asrwt>
<pdfrwt beam="1">  1        2 0.78240600E-01 0.19459404E+04</pdfrwt>
<pdfrwt beam="2">  1       -1 0.28637837E+00 0.19459404E+04</pdfrwt>
<totfact> 0.26059153E+00</totfact>
</mgrwt>
</event>
<event>
12    6  0.1627636E-007  0.1125008E+04  0.7818608E-02  0.9181154E-01
          2   -1    0    0  501    0  0.00000000000E+00  0.00000000000E+00  0.73350423363E+03  0.73350423363E+03  0.00000000000E+00 0. -1.
         -1   -1    0    0    0  501 -0.00000000000E+00 -0.00000000000E+00 -0.43136873492E+03  0.43136873492E+03  0.00000000000E+00 0.  1.
         24    2    1    2    0    0  0.18340323498E+03 -0.14552545420E+02 -0.18393409137E+02  0.20108376769E+03  0.79043285290E+02 0.  0.
        254    2    1    2    0    0 -0.18340323498E+03  0.14552545420E+02  0.32052890785E+03  0.96378920087E+03  0.89011365553E+03 0.  0.
         23    2    4    4    0    0 -0.29245418104E+03 -0.12011104227E+03 -0.21534811663E+03  0.39329043203E+03  0.91358864428E+02 0.  0.
         23    2    4    4    0    0  0.10905094606E+03  0.13466358769E+03  0.53587702447E+03  0.57049876884E+03  0.90984994390E+02 0.  0.
          2    1    3    3  502    0  0.92705080298E+02 -0.74647678223E+01  0.30403449606E+02  0.97848476839E+02  0.00000000000E+00 0. -1.
         -1    1    3    3    0  502  0.90698154677E+02 -0.70877775974E+01 -0.48796858743E+02  0.10323529085E+03  0.00000000000E+00 0.  1.
         11    1    5    5    0    0 -0.66522512757E+01 -0.30026062185E+01 -0.34736238959E+02  0.35494709298E+02  0.00000000000E+00 0. -1.
        -11    1    5    5    0    0 -0.28580192976E+03 -0.11710843605E+03 -0.18061187767E+03  0.35779572273E+03  0.00000000000E+00 0.  1.
          4    1    6    6  503    0  0.15448730010E+02  0.90866858680E+02  0.23968728042E+03  0.25679844560E+03  0.00000000000E+00 0. -1.
         -4    1    6    6    0  503  0.93602216051E+02  0.43796729010E+02  0.29618974405E+03  0.31370032324E+03  0.00000000000E+00 0.  1.
<mgrwt>
<rscale>  0 0.11250081E+04</rscale>
<asrwt>0</asrwt>
<pdfrwt beam="1">  1        2 0.11284680E+00 0.11250081E+04</pdfrwt>
<pdfrwt beam="2">  1       -1 0.66364421E-01 0.11250081E+04</pdfrwt>
<totfact> 0.10055800E+02</totfact>
</mgrwt>
</event>
<event>
12    6  0.1627636E-007  0.2120839E+04  0.7818608E-02  0.8552119E-01
          2   -1    0    0  501    0  0.00000000000E+00  0.00000000000E+00  0.21130195835E+04  0.21130195835E+04  0.00000000000E+00 0. -1.
         -1   -1    0    0    0  501 -0.00000000000E+00 -0.00000000000E+00 -0.53217167941E+03  0.53217167941E+03  0.00000000000E+00 0.  1.
         24    2    1    2    0    0  0.19771048202E+03 -0.11978700803E+03 -0.39479412186E+03  0.46436920888E+03  0.79611566369E+02 0.  0.
        254    2    1    2    0    0 -0.19771048202E+03  0.11978700803E+03  0.19756420259E+04  0.21808220540E+04  0.89408336003E+03 0.  0.
         23    2    4    4    0    0  0.22392478351E+03  0.20658193050E+03  0.14974929622E+04  0.15308838270E+04  0.91113758784E+02 0.  0.
         23    2    4    4    0    0 -0.42163526554E+03 -0.86794922475E+02  0.47814906371E+03  0.64993822707E+03  0.92106005056E+02 0.  0.
          2    1    3    3  502    0  0.78465259324E+01 -0.21285612187E+02 -0.11503333594E+02  0.25435643085E+02  0.00000000000E+00 0. -1.
         -1    1    3    3    0  502  0.18986395609E+03 -0.98501395842E+02 -0.38329078827E+03  0.43893356579E+03  0.00000000000E+00 0.  1.
         11    1    5    5    0    0  0.13484942651E+03  0.10422409955E+03  0.62153112935E+03  0.64447496112E+03  0.00000000000E+00 0. -1.
        -11    1    5    5    0    0  0.89075357006E+02  0.10235783095E+03  0.87596183288E+03  0.88640886584E+03  0.00000000000E+00 0.  1.
          3    1    6    6  503    0 -0.39541575116E+02  0.18673215911E+01  0.88990284310E+02  0.97397606512E+02  0.00000000000E+00 0. -1.
         -3    1    6    6    0  503 -0.38209369042E+03 -0.88662244067E+02  0.38915877940E+03  0.55254062056E+03  0.00000000000E+00 0.  1.
<mgrwt>
<rscale>  0 0.21208387E+04</rscale>
<asrwt>0</asrwt>
<pdfrwt beam="1">  1        2 0.32507993E+00 0.21208387E+04</pdfrwt>
<pdfrwt beam="2">  1       -1 0.81872567E-01 0.21208387E+04</pdfrwt>
<totfact> 0.89821409E+00</totfact>
</mgrwt>
</event>
<event>
12    6  0.1627636E-007  0.1528525E+04  0.7818608E-02  0.8865703E-01
         -1   -1    0    0    0  501 -0.00000000000E+00  0.00000000000E+00  0.23707660383E+03  0.23707660383E+03  0.00000000000E+00 0.  1.
          2   -1    0    0  501    0  0.00000000000E+00 -0.00000000000E+00 -0.24637477668E+04  0.24637477668E+04  0.00000000000E+00 0. -1.
         24    2    1    2    0    0  0.13060928763E+03  0.28757443260E+03 -0.60804597495E+02  0.33180031261E+03  0.81464152072E+02 0.  0.
        254    2    1    2    0    0 -0.13060928763E+03 -0.28757443260E+03 -0.21658665654E+04  0.23690240580E+04  0.90638797858E+03 0.  0.
         23    2    4    4    0    0  0.10688226026E+03 -0.45282062050E+02  0.28775101397E+02  0.14645617431E+03  0.84540651957E+02 0.  0.
         23    2    4    4    0    0 -0.23749154789E+03 -0.24229237055E+03 -0.21946416668E+04  0.22225678837E+04  0.90819180555E+02 0.  0.
          4    1    3    3  502    0  0.35247821330E+02  0.63355671873E+02 -0.49684639021E+02  0.87891486627E+02  0.00000000000E+00 0. -1.
         -3    1    3    3    0  502  0.95361466301E+02  0.22421876073E+03 -0.11119958474E+02  0.24390882598E+03  0.00000000000E+00 0.  1.
         11    1    5    5    0    0  0.99766520502E+02 -0.64997109556E+02  0.35822515836E+02  0.12434321656E+03  0.00000000000E+00 0. -1.
        -11    1    5    5    0    0  0.71157397556E+01  0.19715047506E+02 -0.70474144388E+01  0.22112957755E+02  0.00000000000E+00 0.  1.
          1    1    6    6  503    0 -0.17753604446E+03 -0.12227124351E+03 -0.14500495017E+04  0.14659852869E+04  0.00000000000E+00 0. -1.
         -1    1    6    6    0  503 -0.59955503425E+02 -0.12002112704E+03 -0.74459216511E+03  0.75658259673E+03  0.00000000000E+00 0.  1.
<mgrwt>
<rscale>  0 0.15285247E+04</rscale>
<asrwt>0</asrwt>
<pdfrwt beam="1">  1        2 0.37903810E+00 0.15285247E+04</pdfrwt>
<pdfrwt beam="2">  1       -1 0.36473325E-01 0.15285247E+04</pdfrwt>
<totfact> 0.28968569E+01</totfact>
</mgrwt>
</event>
<event>
12    6  0.1627636E-007  0.1105938E+04  0.7818608E-02  0.9199423E-01
         -1   -1    0    0    0  501 -0.00000000000E+00  0.00000000000E+00  0.59746451067E+03  0.59746451067E+03  0.00000000000E+00 0.  1.
          2   -1    0    0  501    0  0.00000000000E+00 -0.00000000000E+00 -0.51178731612E+03  0.51178731612E+03  0.00000000000E+00 0. -1.
         24    2    1    2    0    0 -0.57304653381E+02 -0.54770253244E+02  0.16606790446E+03  0.19986841403E+03  0.78007884826E+02 0.  0.
        254    2    1    2    0    0  0.57304653381E+02  0.54770253244E+02 -0.80390709911E+02  0.90938341276E+03  0.90234800450E+03 0.  0.
         23    2    4    4    0    0 -0.46742860249E+02 -0.22368555907E+03 -0.39620463777E+03  0.46637685150E+03  0.91154420088E+02 0.  0.
         23    2    4    4    0    0  0.10404751363E+03  0.27845581232E+03  0.31581392786E+03  0.44300656126E+03  0.90293143619E+02 0.  0.
          2    1    3    3  502    0  0.18660277556E+02 -0.20373740982E+02  0.36318068295E+02  0.45632196580E+02  0.00000000000E+00 0. -1.
         -1    1    3    3    0  502 -0.75964930937E+02 -0.34396512263E+02  0.12974983617E+03  0.15423621745E+03  0.00000000000E+00 0.  1.
         11    1    5    5    0    0 -0.72228943418E+00 -0.66086017998E+02 -0.19947576115E+03  0.21013915095E+03  0.00000000000E+00 0.  1.
        -11    1    5    5    0    0 -0.46020570815E+02 -0.15759954107E+03 -0.19672887662E+03  0.25623770055E+03  0.00000000000E+00 0. -1.
          2    1    6    6  503    0  0.11784028800E+03  0.21630265301E+03  0.23863661740E+03  0.34295860732E+03  0.00000000000E+00 0. -1.
         -2    1    6    6    0  503 -0.13792774371E+02  0.62153159311E+02  0.77177310461E+02  0.10004795394E+03  0.00000000000E+00 0.  1.
<mgrwt>
<rscale>  0 0.11059381E+04</rscale>
<asrwt>0</asrwt>
<pdfrwt beam="1">  1        2 0.78736510E-01 0.11059381E+04</pdfrwt>
<pdfrwt beam="2">  1       -1 0.91917617E-01 0.11059381E+04</pdfrwt>
<totfact> 0.78452009E+01</totfact>
</mgrwt>
</event>
<event>
12    6  0.1627636E-007  0.1842255E+04  0.7818608E-02  0.8684146E-01
         -1   -1    0    0    0  501 -0.00000000000E+00  0.00000000000E+00  0.67525846369E+03  0.67525846369E+03  0.00000000000E+00 0.  1.
          2   -1    0    0  501    0  0.00000000000E+00 -0.00000000000E+00 -0.12565199306E+04  0.12565199306E+04  0.00000000000E+00 0. -1.
         24    2    1    2    0    0  0.32922837078E+03  0.25795044690E+03 -0.81567970623E+03  0.92013495344E+03  0.79907422733E+02 0.  0.
        254    2    1    2    0    0 -0.32922837078E+03 -0.25795044690E+03  0.23441823935E+03  0.10116434408E+04  0.89080906329E+03 0.  0.
         23    2    4    4    0    0 -0.58206474769E+03 -0.29679194049E+03  0.31027781058E+03  0.72900178502E+03  0.91029975163E+02 0.  0.
         23    2    4    4    0    0  0.25283637691E+03  0.38841493591E+02 -0.75859571231E+02  0.28264165581E+03  0.93256291672E+02 0.  0.
          2    1    3    3  502    0  0.24060487794E+03  0.14381293979E+03 -0.56744551198E+03  0.63290384578E+03  0.00000000000E+00 0. -1.
         -1    1    3    3    0  502  0.88623492842E+02  0.11413750711E+03 -0.24823419425E+03  0.28723110766E+03  0.00000000000E+00 0.  1.
         11    1    5    5    0    0 -0.80230991783E+02 -0.47855469308E+02  0.11512224383E+02  0.94125922547E+02  0.00000000000E+00 0.  1.
        -11    1    5    5    0    0 -0.50183375591E+03 -0.24893647118E+03  0.29876558620E+03  0.63487586247E+03  0.00000000000E+00 0. -1.
          3    1    6    6  503    0  0.18945204836E+03  0.41069692640E+02 -0.95698948629E+02  0.21618762002E+03  0.00000000000E+00 0. -1.
         -3    1    6    6    0  503  0.63384328550E+02 -0.22281990495E+01  0.19839377398E+02  0.66454035786E+02  0.00000000000E+00 0.  1.
<mgrwt>
<rscale>  0 0.18422548E+04</rscale>
<asrwt>0</asrwt>
<pdfrwt beam="1">  1        2 0.19331076E+00 0.18422548E+04</pdfrwt>
<pdfrwt beam="2">  1       -1 0.10388592E+00 0.18422548E+04</pdfrwt>
<totfact> 0.16414721E+01</totfact>
</mgrwt>
</event>
<event>
12    6  0.1627636E-007  0.2742318E+04  0.7818608E-02  0.8321403E-01
         -1   -1    0    0    0  501 -0.00000000000E+00  0.00000000000E+00  0.86598060007E+03  0.86598060007E+03  0.00000000000E+00 0.  1.
          2   -1    0    0  501    0  0.00000000000E+00 -0.00000000000E+00 -0.21710380579E+04  0.21710380579E+04  0.00000000000E+00 0. -1.
         24    2    1    2    0    0  0.23619978805E+03  0.12290590362E+03  0.73979861314E+03  0.78972936974E+03  0.73988434301E+02 0.  0.
        254    2    1    2    0    0 -0.23619978805E+03 -0.12290590362E+03 -0.20448560709E+04  0.22472892882E+04  0.89329535597E+03 0.  0.
         23    2    4    4    0    0 -0.46104071860E+03  0.20077060408E+03 -0.13422331473E+04  0.14362770389E+04  0.91839703694E+02 0.  0.
         23    2    4    4    0    0  0.22484093055E+03 -0.32367650770E+03 -0.70262292364E+03  0.81101224928E+03  0.93498502433E+02 0.  0.
          2    1    3    3  502    0  0.70890682595E+02  0.11821790518E+01  0.17830813455E+03  0.19188714723E+03  0.00000000000E+00 0. -1.
         -1    1    3    3    0  502  0.16530910546E+03  0.12172372457E+03  0.56149047858E+03  0.59784222251E+03  0.00000000000E+00 0.  1.
         11    1    5    5    0    0 -0.38028852553E+03  0.20032839828E+03 -0.11035250723E+04  0.11842797030E+04  0.00000000000E+00 0. -1.
        -11    1    5    5    0    0 -0.80752193069E+02  0.44220579784E+00 -0.23870807497E+03  0.25199733587E+03  0.00000000000E+00 0.  1.
          4    1    6    6  503    0  0.14922077370E+03 -0.27922306210E+03 -0.56957358398E+03  0.65164900466E+03  0.00000000000E+00 0. -1.
         -4    1    6    6    0  503  0.75620156853E+02 -0.44453445600E+02 -0.13304933967E+03  0.15936324461E+03  0.00000000000E+00 0.  1.
<mgrwt>
<rscale>  0 0.27423179E+04</rscale>
<asrwt>0</asrwt>
<pdfrwt beam="1">  1        2 0.33400585E+00 0.27423179E+04</pdfrwt>
<pdfrwt beam="2">  1       -1 0.13322779E+00 0.27423179E+04</pdfrwt>
<totfact> 0.25398962E+00</totfact>
</mgrwt>
</event>
<event>
12    6  0.1627636E-007  0.2011484E+04  0.7818608E-02  0.8601270E-01
          2   -1    0    0  501    0  0.00000000000E+00  0.00000000000E+00  0.25967755351E+04  0.25967755351E+04  0.00000000000E+00 0. -1.
         -1   -1    0    0    0  501 -0.00000000000E+00 -0.00000000000E+00 -0.38952790190E+03  0.38952790190E+03  0.00000000000E+00 0.  1.
         24    2    1    2    0    0 -0.28285239694E+02  0.77348497768E+03  0.12021704621E+04  0.14318972872E+04  0.77697847528E+02 0.  0.
        254    2    1    2    0    0  0.28285239694E+02 -0.77348497768E+03  0.10050771711E+04  0.15544061498E+04  0.89828686584E+03 0.  0.
         23    2    4    4    0    0  0.64554703239E+02 -0.31856004408E+03 -0.10285560406E+03  0.35285962931E+03  0.91010061640E+02 0.  0.
         23    2    4    4    0    0 -0.36269463545E+02 -0.45492493361E+03  0.11079327751E+04  0.12015465205E+04  0.89032789181E+02 0.  0.
          2    1    3    3  502    0 -0.16801765476E+02  0.53493959900E+03  0.89488533011E+03  0.10427187674E+04  0.00000000000E+00 0. -1.
         -1    1    3    3    0  502 -0.11483474217E+02  0.23854537868E+03  0.30728513204E+03  0.38917851976E+03  0.00000000000E+00 0.  1.
         11    1    5    5    0    0 -0.13896189026E+02 -0.18828972463E+02  0.65195427821E+01  0.24292770767E+02  0.00000000000E+00 0.  1.
        -11    1    5    5    0    0  0.78450892265E+02 -0.29973107161E+03 -0.10937514684E+03  0.32856685855E+03  0.00000000000E+00 0. -1.
          2    1    6    6  503    0  0.20992988676E+01 -0.38280641462E+03  0.89178354008E+03  0.97047567743E+03  0.00000000000E+00 0. -1.
         -2    1    6    6    0  503 -0.38368762413E+02 -0.72118518989E+02  0.21614923506E+03  0.23107084309E+03  0.00000000000E+00 0.  1.
<mgrwt>
<rscale>  0 0.20114836E+04</rscale>
<asrwt>0</asrwt>
<pdfrwt beam="1">  1        2 0.39950392E+00 0.20114836E+04</pdfrwt>
<pdfrwt beam="2">  1       -1 0.59927371E-01 0.20114836E+04</pdfrwt>
<totfact> 0.91245552E+00</totfact>
</mgrwt>
</event>
<event>
12    6  0.1627636E-007  0.1117837E+04  0.7818608E-02  0.9187979E-01
         -1   -1    0    0    0  501 -0.00000000000E+00  0.00000000000E+00  0.33026709937E+03  0.33026709937E+03  0.00000000000E+00 0.  1.
          2   -1    0    0  501    0  0.00000000000E+00 -0.00000000000E+00 -0.94587013307E+03  0.94587013307E+03  0.00000000000E+00 0. -1.
         24    2    1    2    0    0  0.15842482966E+01  0.17328253775E+03 -0.14911191374E+03  0.24617300719E+03  0.91309577351E+02 0.  0.
        254    2    1    2    0    0 -0.15842482966E+01 -0.17328253775E+03 -0.46649111995E+03  0.10299642253E+04  0.90176659540E+03 0.  0.
         23    2    4    4    0    0 -0.13379659524E+03  0.26048538638E+03  0.77305199032E+02  0.31585517030E+03  0.89633862982E+02 0.  0.
         23    2    4    4    0    0  0.13221234694E+03 -0.43376792413E+03 -0.54379631899E+03  0.71410905495E+03  0.92750143587E+02 0.  0.
          4    1    3    3  502    0 -0.40264666989E+02  0.57335787261E+02 -0.73600088842E+02  0.10161500374E+03  0.00000000000E+00 0. -1.
         -3    1    3    3    0  502  0.41848915285E+02  0.11594675049E+03 -0.75511824903E+02  0.14455800344E+03  0.00000000000E+00 0.  1.
         11    1    5    5    0    0 -0.43034101220E+02  0.47393980296E+02 -0.16268852247E+02  0.66051485899E+02  0.00000000000E+00 0.  1.
        -11    1    5    5    0    0 -0.90762494021E+02  0.21309140609E+03  0.93574051279E+02  0.24980368440E+03  0.00000000000E+00 0. -1.
          1    1    6    6  503    0  0.14189227499E+03 -0.34105021668E+03 -0.42469131679E+03  0.56286000263E+03  0.00000000000E+00 0. -1.
         -1    1    6    6    0  503 -0.96799280473E+01 -0.92717707447E+02 -0.11910500219E+03  0.15124905232E+03  0.00000000000E+00 0.  1.
<mgrwt>
<rscale>  0 0.11178368E+04</rscale>
<asrwt>0</asrwt>
<pdfrwt beam="1">  1        2 0.14551848E+00 0.11178368E+04</pdfrwt>
<pdfrwt beam="2">  1       -1 0.50810323E-01 0.11178368E+04</pdfrwt>
<totfact> 0.12028872E+02</totfact>
</mgrwt>
</event>
<event>
12    6  0.1627636E-007  0.1142030E+04  0.7818608E-02  0.9165168E-01
          2   -1    0    0  501    0  0.00000000000E+00  0.00000000000E+00  0.23050806479E+04  0.23050806479E+04  0.00000000000E+00 0. -1.
         -1   -1    0    0    0  501 -0.00000000000E+00 -0.00000000000E+00 -0.14145192977E+03  0.14145192977E+03  0.00000000000E+00 0.  1.
         24    2    1    2    0    0 -0.12669490120E+03  0.29761227910E+02  0.86576319077E+03  0.87922344957E+03  0.80936043311E+02 0.  0.
        254    2    1    2    0    0  0.12669490120E+03 -0.29761227910E+02  0.12978655274E+04  0.15673091281E+04  0.86894513478E+03 0.  0.
         23    2    4    4    0    0 -0.35236066331E+02  0.19332644788E+03 -0.20064440966E+02  0.21778837563E+03  0.91719675887E+02 0.  0.
         23    2    4    4    0    0  0.16193096753E+03 -0.22308767580E+03  0.13179299683E+04  0.13495207525E+04  0.90978627237E+02 0.  0.
          4    1    3    3  502    0 -0.12917525259E+03  0.59607470731E+01  0.73508927966E+03  0.74637659761E+03  0.00000000000E+00 0. -1.
         -1    1    3    3    0  502  0.24803513977E+01  0.23800480837E+02  0.13067391111E+03  0.13284685196E+03  0.00000000000E+00 0.  1.
         11    1    5    5    0    0 -0.63958557386E+02  0.14358036824E+03 -0.74272871347E+00  0.15718323974E+03  0.00000000000E+00 0.  1.
        -11    1    5    5    0    0  0.28722491055E+02  0.49746079641E+02 -0.19321712252E+02  0.60605135892E+02  0.00000000000E+00 0. -1.
          1    1    6    6  503    0  0.17243174754E+03 -0.21758235705E+03  0.12808215898E+04  0.13105642809E+04  0.00000000000E+00 0.  1.
         -1    1    6    6    0  503 -0.10500780013E+02 -0.55053187479E+01  0.37108378582E+02  0.38956471560E+02  0.00000000000E+00 0. -1.
<mgrwt>
<rscale>  0 0.11420300E+04</rscale>
<asrwt>0</asrwt>
<pdfrwt beam="1">  1        2 0.35462776E+00 0.11420300E+04</pdfrwt>
<pdfrwt beam="2">  1       -1 0.21761837E-01 0.11420300E+04</pdfrwt>
<totfact> 0.90596600E+01</totfact>
</mgrwt>
</event>
<event>
12    6  0.1627636E-007  0.2250644E+04  0.7818608E-02  0.8497640E-01
         -1   -1    0    0    0  501 -0.00000000000E+00  0.00000000000E+00  0.32688273366E+03  0.32688273366E+03  0.00000000000E+00 0.  1.
          2   -1    0    0  501    0  0.00000000000E+00 -0.00000000000E+00 -0.38740178558E+04  0.38740178558E+04  0.00000000000E+00 0. -1.
         24    2    1    2    0    0 -0.17378788551E+03 -0.73253487192E+03 -0.42781554625E+03  0.86958163722E+03  0.79602226386E+02 0.  0.
        254    2    1    2    0    0  0.17378788551E+03  0.73253487192E+03 -0.31193195759E+04  0.33313189523E+04  0.89483058587E+03 0.  0.
         23    2    4    4    0    0 -0.45763218354E+02  0.49271207493E+03 -0.28703109777E+04  0.29140537886E+04  0.90359910666E+02 0.  0.
         23    2    4    4    0    0  0.21955110386E+03  0.23982279699E+03 -0.24900859824E+03  0.41726516366E+03  0.79920420717E+02 0.  0.
          4    1    3    3  502    0 -0.76739442367E+02 -0.18169369513E+03 -0.12560421385E+03  0.23383318713E+03  0.00000000000E+00 0. -1.
         -1    1    3    3    0  502 -0.97048443139E+02 -0.55084117679E+03 -0.30221133240E+03  0.63574845009E+03  0.00000000000E+00 0.  1.
         11    1    5    5    0    0 -0.39227169341E+02  0.44614207323E+03 -0.27178927326E+04  0.27545457750E+04  0.00000000000E+00 0.  1.
        -11    1    5    5    0    0 -0.65360490133E+01  0.46570001699E+02 -0.15241824503E+03  0.15950801364E+03  0.00000000000E+00 0. -1.
          1    1    6    6  503    0  0.94057061836E+02  0.76933880793E+02 -0.13695571886E+03  0.18309129369E+03  0.00000000000E+00 0. -1.
         -1    1    6    6    0  503  0.12549404202E+03  0.16288891619E+03 -0.11205287938E+03  0.23417386998E+03  0.00000000000E+00 0.  1.
<mgrwt>
<rscale>  0 0.22506439E+04</rscale>
<asrwt>0</asrwt>
<pdfrwt beam="1">  1        2 0.59600273E+00 0.22506439E+04</pdfrwt>
<pdfrwt beam="2">  1       -1 0.50289652E-01 0.22506439E+04</pdfrwt>
<totfact> 0.17807533E+00</totfact>
</mgrwt>
</event>
<event>
12    6  0.1627636E-007  0.1674283E+04  0.7818608E-02  0.8776169E-01
         -1   -1    0    0    0  501 -0.00000000000E+00  0.00000000000E+00  0.53580732449E+03  0.53580732449E+03  0.00000000000E+00 0.  1.
          2   -1    0    0  501    0  0.00000000000E+00 -0.00000000000E+00 -0.13079445738E+04  0.13079445738E+04  0.00000000000E+00 0. -1.
         24    2    1    2    0    0  0.21582440555E+03 -0.18325037019E+03  0.29428622388E+03  0.41604925773E+03  0.79572175297E+02 0.  0.
        254    2    1    2    0    0 -0.21582440555E+03  0.18325037019E+03 -0.10664234732E+04  0.14277026406E+04  0.90604356050E+03 0.  0.
         23    2    4    4    0    0 -0.36402824665E+03 -0.23062136229E+03 -0.27852824434E+03  0.52080026439E+03  0.89174858460E+02 0.  0.
         23    2    4    4    0    0  0.14820384110E+03  0.41387173249E+03 -0.78789522887E+03  0.90690237620E+03  0.91863152682E+02 0.  0.
          2    1    3    3  502    0  0.62428880352E+02 -0.58178846194E+02  0.14458199692E+03  0.16788715580E+03  0.00000000000E+00 0. -1.
         -1    1    3    3    0  502  0.15339552519E+03 -0.12507152400E+03  0.14970422696E+03  0.24816210193E+03  0.00000000000E+00 0.  1.
         11    1    5    5    0    0 -0.63379657662E+02 -0.26550796835E+02 -0.84377532614E+02  0.10881862813E+03  0.00000000000E+00 0. -1.
        -11    1    5    5    0    0 -0.30064858899E+03 -0.20407056546E+03 -0.19415071173E+03  0.41198163626E+03  0.00000000000E+00 0.  1.
          3    1    6    6  503    0  0.85763316643E+00  0.61479740201E+02 -0.66101062733E+02  0.90276489100E+02  0.00000000000E+00 0. -1.
         -3    1    6    6    0  503  0.14734620794E+03  0.35239199229E+03 -0.72179416613E+03  0.81662588710E+03  0.00000000000E+00 0.  1.
<mgrwt>
<rscale>  0 0.16742835E+04</rscale>
<asrwt>0</asrwt>
<pdfrwt beam="1">  1        2 0.20122224E+00 0.16742835E+04</pdfrwt>
<pdfrwt beam="2">  1       -1 0.82431897E-01 0.16742835E+04</pdfrwt>
<totfact> 0.26009642E+01</totfact>
</mgrwt>
</event>
<event>
12    6  0.1627636E-007  0.1064276E+04  0.7818608E-02  0.9240728E-01
          2   -1    0    0  501    0  0.00000000000E+00  0.00000000000E+00  0.91285842717E+03  0.91285842717E+03  0.00000000000E+00 0. -1.
         -1   -1    0    0    0  501 -0.00000000000E+00 -0.00000000000E+00 -0.31020217294E+03  0.31020217294E+03  0.00000000000E+00 0.  1.
         24    2    1    2    0    0  0.68051083956E+02 -0.83442423785E+02  0.18030842515E+03  0.21928307620E+03  0.63090024669E+02 0.  0.
        254    2    1    2    0    0 -0.68051083956E+02  0.83442423785E+02  0.42234782908E+03  0.10037775239E+04  0.90421128099E+03 0.  0.
         23    2    4    4    0    0 -0.53109298605E+02 -0.68539564289E+02  0.68015944537E+03  0.69167744439E+03  0.91008496715E+02 0.  0.
         23    2    4    4    0    0 -0.14941785352E+02  0.15198198807E+03 -0.25781161629E+03  0.31210007953E+03  0.87280287008E+02 0.  0.
          4    1    3    3  502    0  0.14728253857E+02 -0.64299297566E+02  0.11709133223E+03  0.13439382877E+03  0.00000000000E+00 0. -1.
         -3    1    3    3    0  502  0.53322830099E+02 -0.19143126219E+02  0.63217092920E+02  0.84889247425E+02  0.00000000000E+00 0.  1.
         11    1    5    5    0    0  0.19004436475E+02  0.53827845369E+01  0.65867376035E+02  0.68765210687E+02  0.00000000000E+00 0. -1.
        -11    1    5    5    0    0 -0.72113735080E+02 -0.73922348826E+02  0.61429206933E+03  0.62291223370E+03  0.00000000000E+00 0.  1.
          4    1    6    6  503    0  0.27531981270E+02  0.44285438698E+02 -0.41068800998E+02  0.66376626073E+02  0.00000000000E+00 0.  1.
         -4    1    6    6    0  503 -0.42473766622E+02  0.10769654938E+03 -0.21674281529E+03  0.24572345345E+03  0.00000000000E+00 0. -1.
<mgrwt>
<rscale>  0 0.10642757E+04</rscale>
<asrwt>0</asrwt>
<pdfrwt beam="1">  1        2 0.14043976E+00 0.10642757E+04</pdfrwt>
<pdfrwt beam="2">  1       -1 0.47723412E-01 0.10642757E+04</pdfrwt>
<totfact> 0.14298348E+02</totfact>
</mgrwt>
</event>
<event>
12    6  0.1627636E-007  0.1064527E+04  0.7818608E-02  0.9240473E-01
          2   -1    0    0  501    0  0.00000000000E+00  0.00000000000E+00  0.53850454346E+03  0.53850454346E+03  0.00000000000E+00 0. -1.
         -1   -1    0    0    0  501 -0.00000000000E+00 -0.00000000000E+00 -0.52609526417E+03  0.52609526417E+03  0.00000000000E+00 0.  1.
         24    2    1    2    0    0  0.61760220690E+02 -0.14598379642E+03  0.60117993066E+02  0.18647084023E+03  0.77663424395E+02 0.  0.
        254    2    1    2    0    0 -0.61760220690E+02  0.14598379642E+03 -0.47708713775E+02  0.87812896741E+03  0.86238551028E+03 0.  0.
         23    2    4    4    0    0 -0.62763585566E+02  0.45134464290E+03  0.16726689560E+03  0.49412107099E+03  0.92337230208E+02 0.  0.
         23    2    4    4    0    0  0.10033648758E+01 -0.30536084648E+03 -0.21497560937E+03  0.38400789641E+03  0.89449978076E+02 0.  0.
          4    1    3    3  502    0  0.36650245018E+02 -0.10577809217E+03  0.26547252805E+01  0.11197898378E+03  0.00000000000E+00 0. -1.
         -3    1    3    3    0  502  0.25109975671E+02 -0.40205704257E+02  0.57463267785E+02  0.74491856451E+02  0.00000000000E+00 0.  1.
         11    1    5    5    0    0 -0.71607345093E+02  0.34601132357E+03  0.94402182662E+02  0.36573654452E+03  0.00000000000E+00 0. -1.
        -11    1    5    5    0    0  0.88437595277E+01  0.10533331934E+03  0.72864712937E+02  0.12838452647E+03  0.00000000000E+00 0.  1.
          3    1    6    6  503    0 -0.30904257271E+02 -0.22596803685E+03 -0.12598494183E+03  0.26055485481E+03  0.00000000000E+00 0. -1.
         -3    1    6    6    0  503  0.31907622147E+02 -0.79392809632E+02 -0.88990667544E+02  0.12345304161E+03  0.00000000000E+00 0.  1.
<mgrwt>
<rscale>  0 0.10645275E+04</rscale>
<asrwt>0</asrwt>
<pdfrwt beam="1">  1        2 0.82846853E-01 0.10645275E+04</pdfrwt>
<pdfrwt beam="2">  1       -1 0.80937733E-01 0.10645275E+04</pdfrwt>
<totfact> 0.97744831E+01</totfact>
</mgrwt>
</event>
<event>
12    6  0.1627636E-007  0.1074031E+04  0.7818608E-02  0.9230880E-01
         -1   -1    0    0    0  501 -0.00000000000E+00  0.00000000000E+00  0.21602519926E+03  0.21602519926E+03  0.00000000000E+00 0.  1.
          2   -1    0    0  501    0  0.00000000000E+00 -0.00000000000E+00 -0.13349620096E+04  0.13349620096E+04  0.00000000000E+00 0. -1.
         24    2    1    2    0    0 -0.61910425595E+02 -0.48605553987E+02 -0.31254575737E+03  0.33191312069E+03  0.79284730929E+02 0.  0.
        254    2    1    2    0    0  0.61910425595E+02  0.48605553987E+02 -0.80639105297E+03  0.12190740882E+04  0.91086755429E+03 0.  0.
         23    2    4    4    0    0  0.42793131857E+03 -0.16348137532E+03 -0.52703733579E+03  0.70426754853E+03  0.91504388461E+02 0.  0.
         23    2    4    4    0    0 -0.36602089297E+03  0.21208692931E+03 -0.27935371719E+03  0.51480653964E+03  0.89638798941E+02 0.  0.
          2    1    3    3  502    0 -0.78562128489E+02 -0.49766088370E+02 -0.23806565581E+03  0.25558546136E+03  0.00000000000E+00 0. -1.
         -1    1    3    3    0  502  0.16651702894E+02  0.11605343831E+01 -0.74480101563E+02  0.76327659326E+02  0.00000000000E+00 0.  1.
         11    1    5    5    0    0  0.41814589418E+02  0.93086838730E+01 -0.34450156411E+02  0.54972036168E+02  0.00000000000E+00 0. -1.
        -11    1    5    5    0    0  0.38611672915E+03 -0.17279005919E+03 -0.49258717937E+03  0.64929551236E+03  0.00000000000E+00 0.  1.
          3    1    6    6  503    0 -0.25379314860E+03  0.13001280185E+03 -0.13894580131E+03  0.31720691453E+03  0.00000000000E+00 0. -1.
         -3    1    6    6    0  503 -0.11222774437E+03  0.82074127458E+02 -0.14040791588E+03  0.19759962511E+03  0.00000000000E+00 0.  1.
<mgrwt>
<rscale>  0 0.10740306E+04</rscale>
<asrwt>0</asrwt>
<pdfrwt beam="1">  1        2 0.20537877E+00 0.10740306E+04</pdfrwt>
<pdfrwt beam="2">  1       -1 0.33234647E-01 0.10740306E+04</pdfrwt>
<totfact> 0.15200815E+02</totfact>
</mgrwt>
</event>
<event>
12    6  0.1627636E-007  0.1517466E+04  0.7818608E-02  0.8872920E-01
          2   -1    0    0  501    0  0.00000000000E+00  0.00000000000E+00  0.94445179557E+03  0.94445179557E+03  0.00000000000E+00 0. -1.
         -1   -1    0    0    0  501 -0.00000000000E+00 -0.00000000000E+00 -0.60953443592E+03  0.60953443592E+03  0.00000000000E+00 0.  1.
         24    2    1    2    0    0  0.32405375175E+03 -0.28882280208E+03 -0.15622453422E+03  0.46833939094E+03  0.80661235982E+02 0.  0.
        254    2    1    2    0    0 -0.32405375175E+03  0.28882280208E+03  0.49114189387E+03  0.10856468405E+04  0.86543587714E+03 0.  0.
         23    2    4    4    0    0  0.50014650299E+02 -0.26870531466E+03  0.18375535509E+03  0.34204550853E+03  0.92331403186E+02 0.  0.
         23    2    4    4    0    0 -0.37406840205E+03  0.55752811674E+03  0.30738653879E+03  0.74360133201E+03  0.87702259833E+02 0.  0.
          2    1    3    3  502    0  0.54591617363E+02 -0.66696765912E+02 -0.63410022510E+02  0.10700249635E+03  0.00000000000E+00 0. -1.
         -1    1    3    3    0  502  0.26946213439E+03 -0.22212603617E+03 -0.92814511714E+02  0.36133689460E+03  0.00000000000E+00 0.  1.
         11    1    5    5    0    0  0.33475122339E+02 -0.24026598563E+03  0.12077213130E+03  0.27098751884E+03  0.00000000000E+00 0.  1.
        -11    1    5    5    0    0  0.16539527960E+02 -0.28439329025E+02  0.62983223791E+02  0.71057989696E+02  0.00000000000E+00 0. -1.
          2    1    6    6  503    0 -0.25753550009E+03  0.37202440823E+03  0.16161389950E+03  0.48046409506E+03  0.00000000000E+00 0. -1.
         -2    1    6    6    0  503 -0.11653290196E+03  0.18550370851E+03  0.14577263929E+03  0.26313723696E+03  0.00000000000E+00 0.  1.
<mgrwt>
<rscale>  0 0.15174662E+04</rscale>
<asrwt>0</asrwt>
<pdfrwt beam="1">  1        2 0.14530028E+00 0.15174662E+04</pdfrwt>
<pdfrwt beam="2">  1       -1 0.93774528E-01 0.15174662E+04</pdfrwt>
<totfact> 0.33245413E+01</totfact>
</mgrwt>
</event>
<event>
12    6  0.1627636E-007  0.2368730E+04  0.7818608E-02  0.8451304E-01
          2   -1    0    0  501    0  0.00000000000E+00  0.00000000000E+00  0.11386268550E+04  0.11386268550E+04  0.00000000000E+00 0. -1.
         -1   -1    0    0    0  501 -0.00000000000E+00 -0.00000000000E+00 -0.12319401203E+04  0.12319401203E+04  0.00000000000E+00 0.  1.
         24    2    1    2    0    0 -0.51293821877E+03  0.51124935848E+02  0.82924808357E+03  0.97954199550E+03  0.78299179472E+02 0.  0.
        254    2    1    2    0    0  0.51293821877E+03 -0.51124935848E+02 -0.92256134884E+03  0.13910249797E+04  0.90449526064E+03 0.  0.
         23    2    4    4    0    0  0.35268412610E+02  0.11710510191E+03 -0.85924758343E+03  0.87259556988E+03  0.90328030632E+02 0.  0.
         23    2    4    4    0    0  0.47766980616E+03 -0.16823003776E+03 -0.63313765409E+02  0.51842940986E+03  0.91052901045E+02 0.  0.
          2    1    3    3  502    0 -0.45411064192E+03  0.57432324758E+02  0.77023109969E+03  0.89597482886E+03  0.00000000000E+00 0. -1.
         -1    1    3    3    0  502 -0.58827576856E+02 -0.63073889104E+01  0.59016983878E+02  0.83567166636E+02  0.00000000000E+00 0.  1.
         11    1    5    5    0    0  0.34770466745E+02  0.59841101153E+02 -0.21629917380E+03  0.22710190517E+03  0.00000000000E+00 0. -1.
        -11    1    5    5    0    0  0.49794586543E+00  0.57264000755E+02 -0.64294840963E+03  0.64549366471E+03  0.00000000000E+00 0.  1.
          2    1    6    6  503    0  0.30546234609E+03 -0.14180262449E+03 -0.12734146155E+02  0.33701244439E+03  0.00000000000E+00 0. -1.
         -2    1    6    6    0  503  0.17220746007E+03 -0.26427413264E+02 -0.50579619254E+02  0.18141696547E+03  0.00000000000E+00 0.  1.
<mgrwt>
<rscale>  0 0.23687297E+04</rscale>
<asrwt>0</asrwt>
<pdfrwt beam="1">  1        2 0.17517336E+00 0.23687297E+04</pdfrwt>
<pdfrwt beam="2">  1       -1 0.18952925E+00 0.23687297E+04</pdfrwt>
<totfact> 0.37747582E+00</totfact>
</mgrwt>
</event>
<event>
12    6  0.1627636E-007  0.1389785E+04  0.7818608E-02  0.8961246E-01
          2   -1    0    0  501    0  0.00000000000E+00  0.00000000000E+00  0.27377149041E+03  0.27377149041E+03  0.00000000000E+00 0. -1.
         -1   -1    0    0    0  501 -0.00000000000E+00 -0.00000000000E+00 -0.17637897317E+04  0.17637897317E+04  0.00000000000E+00 0.  1.
         24    2    1    2    0    0  0.22345982522E+03 -0.15267747782E+03 -0.81068200947E+03  0.85826333393E+03  0.78523398805E+02 0.  0.
        254    2    1    2    0    0 -0.22345982522E+03  0.15267747782E+03 -0.67933623184E+03  0.11792978882E+04  0.92520326822E+03 0.  0.
         23    2    4    4    0    0  0.32551329069E+03 -0.94184980866E+02 -0.19434453701E+03  0.40115907596E+03  0.91263859869E+02 0.  0.
         23    2    4    4    0    0 -0.54897311591E+03  0.24686245869E+03 -0.48499169484E+03  0.77813881226E+03  0.89277721606E+02 0.  0.
          2    1    3    3  502    0  0.12689104535E+02 -0.17662439954E+02 -0.22509298352E+02  0.31299259917E+02  0.00000000000E+00 0. -1.
         -1    1    3    3    0  502  0.21077072068E+03 -0.13501503787E+03 -0.78817271112E+03  0.82696407401E+03  0.00000000000E+00 0.  1.
         11    1    5    5    0    0  0.85689978152E+02  0.14786062116E+02 -0.58214562633E+02  0.10464384975E+03  0.00000000000E+00 0. -1.
        -11    1    5    5    0    0  0.23982331254E+03 -0.10897104298E+03 -0.13612997437E+03  0.29651522620E+03  0.00000000000E+00 0.  1.
          4    1    6    6  503    0 -0.39155065257E+03  0.13815494537E+03 -0.30219144147E+03  0.51353516896E+03  0.00000000000E+00 0. -1.
         -4    1    6    6    0  503 -0.15742246335E+03  0.10870751332E+03 -0.18280025336E+03  0.26460364330E+03  0.00000000000E+00 0.  1.
<mgrwt>
<rscale>  0 0.13897847E+04</rscale>
<asrwt>0</asrwt>
<pdfrwt beam="1">  1        2 0.42118690E-01 0.13897847E+04</pdfrwt>
<pdfrwt beam="2">  1       -1 0.27135227E+00 0.13897847E+04</pdfrwt>
<totfact> 0.68846349E+00</totfact>
</mgrwt>
</event>
<event>
12    6  0.1627636E-007  0.3244158E+04  0.7818608E-02  0.8177252E-01
         -1   -1    0    0    0  501 -0.00000000000E+00  0.00000000000E+00  0.22977534046E+04  0.22977534046E+04  0.00000000000E+00 0.  1.
          2   -1    0    0  501    0  0.00000000000E+00 -0.00000000000E+00 -0.11450922965E+04  0.11450922965E+04  0.00000000000E+00 0. -1.
         24    2    1    2    0    0 -0.13971731546E+04 -0.41923342065E+03  0.17842800357E+03  0.14717535775E+04  0.79828288918E+02 0.  0.
        254    2    1    2    0    0  0.13971731546E+04  0.41923342065E+03  0.97423310457E+03  0.19710921236E+04  0.89901308819E+03 0.  0.
         23    2    4    4    0    0  0.53103336168E+03  0.38307044571E+03 -0.39863917223E+01  0.66086378960E+03  0.89362517244E+02 0.  0.
         23    2    4    4    0    0  0.86613979289E+03  0.36162974933E+02  0.97821949630E+03  0.13102283340E+04  0.90989024834E+02 0.  0.
          4    1    3    3  502    0 -0.47404304784E+03 -0.13114358891E+03  0.23750312697E+02  0.49242210498E+03  0.00000000000E+00 0. -1.
         -3    1    3    3    0  502 -0.92313010674E+03 -0.28808983173E+03  0.15467769087E+03  0.97933147257E+03  0.00000000000E+00 0.  1.
         11    1    5    5    0    0 -0.21451255875E+01  0.11783163817E+01  0.43313732089E+01  0.49750162971E+01  0.00000000000E+00 0.  1.
        -11    1    5    5    0    0  0.53317848727E+03  0.38189212933E+03 -0.83177649312E+01  0.65588877330E+03  0.00000000000E+00 0. -1.
          4    1    6    6  503    0  0.18607469532E+03  0.39657476388E+02  0.18476994063E+03  0.26521017822E+03  0.00000000000E+00 0.  1.
         -4    1    6    6    0  503  0.68006509758E+03 -0.34945014542E+01  0.79344955567E+03  0.10450181558E+04  0.00000000000E+00 0. -1.
<mgrwt>
<rscale>  0 0.32441577E+04</rscale>
<asrwt>0</asrwt>
<pdfrwt beam="1">  1        2 0.17616805E+00 0.32441577E+04</pdfrwt>
<pdfrwt beam="2">  1       -1 0.35350052E+00 0.32441577E+04</pdfrwt>
<totfact> 0.28765922E-01</totfact>
</mgrwt>
</event>
<event>
12    6  0.1627636E-007  0.1349300E+04  0.7818608E-02  0.8991358E-01
          2   -1    0    0  501    0  0.00000000000E+00  0.00000000000E+00  0.58197771533E+03  0.58197771533E+03  0.00000000000E+00 0. -1.
         -3   -1    0    0    0  501 -0.00000000000E+00 -0.00000000000E+00 -0.78207914222E+03  0.78207914222E+03  0.00000000000E+00 0.  1.
         24    2    1    2    0    0  0.20099228790E+03 -0.25246802868E+03 -0.22791065473E+03  0.40286017745E+03  0.78835593091E+02 0.  0.
        254    2    1    2    0    0 -0.20099228790E+03  0.25246802868E+03  0.27809227843E+02  0.96119668010E+03  0.90497939169E+03 0.  0.
         23    2    4    4    0    0  0.64932312808E+02 -0.15500308745E+03 -0.30826304926E+03  0.36258692102E+03  0.90559402543E+02 0.  0.
         23    2    4    4    0    0 -0.26592460070E+03  0.40747111613E+03  0.33607227710E+03  0.59860975908E+03  0.92954098828E+02 0.  0.
          4    1    3    3  502    0  0.11030798955E+03 -0.82680471580E+02 -0.74367293773E+02  0.15663463002E+03  0.00000000000E+00 0. -1.
         -3    1    3    3    0  502  0.90684298343E+02 -0.16978755710E+03 -0.15354336095E+03  0.24622554743E+03  0.00000000000E+00 0.  1.
         11    1    5    5    0    0  0.17834609596E+02  0.91724469120E+01 -0.34956362437E+02  0.40300798461E+02  0.00000000000E+00 0.  1.
        -11    1    5    5    0    0  0.47097703212E+02 -0.16417553436E+03 -0.27330668682E+03  0.32228612256E+03  0.00000000000E+00 0. -1.
          2    1    6    6  503    0 -0.15573828859E+03  0.18964397170E+03  0.12256016677E+03  0.27429955344E+03  0.00000000000E+00 0.  1.
         -2    1    6    6    0  503 -0.11018631211E+03  0.21782714443E+03  0.21351211033E+03  0.32431020564E+03  0.00000000000E+00 0. -1.
<mgrwt>
<rscale>  0 0.13493000E+04</rscale>
<asrwt>0</asrwt>
<pdfrwt beam="1">  1        2 0.89535033E-01 0.13493000E+04</pdfrwt>
<pdfrwt beam="2">  1       -3 0.12031987E+00 0.13493000E+04</pdfrwt>
<totfact> 0.17776340E+01</totfact>
</mgrwt>
</event>
<event>
12    6  0.1627636E-007  0.1240333E+04  0.7818608E-02  0.9078268E-01
          4   -1    0    0  501    0  0.00000000000E+00  0.00000000000E+00  0.37144224825E+03  0.37144224825E+03  0.00000000000E+00 0. -1.
         -3   -1    0    0    0  501 -0.00000000000E+00 -0.00000000000E+00 -0.10354401458E+04  0.10354401458E+04  0.00000000000E+00 0.  1.
         24    2    1    2    0    0  0.81610920471E+02  0.11278968602E+03  0.12830113228E+03  0.20280719720E+03  0.72716731771E+02 0.  0.
        254    2    1    2    0    0 -0.81610920471E+02 -0.11278968602E+03 -0.79229902984E+03  0.12040751969E+04  0.89592269276E+03 0.  0.
         23    2    4    4    0    0  0.16686016732E+02  0.11681553717E+03  0.15940337389E+03  0.21664053938E+03  0.87174507852E+02 0.  0.
         23    2    4    4    0    0 -0.98296937203E+02 -0.22960522319E+03 -0.95170240373E+03  0.98743465748E+03  0.83119739820E+02 0.  0.
          2    1    3    3  502    0  0.40225384978E+02  0.10202998686E+03  0.11278701581E+03  0.15731850098E+03  0.00000000000E+00 0. -1.
         -1    1    3    3    0  502  0.41385535492E+02  0.10759699163E+02  0.15514116466E+02  0.45488696220E+02  0.00000000000E+00 0.  1.
         11    1    5    5    0    0 -0.32525417476E+02  0.60231267552E+02  0.53519416553E+02  0.86890944989E+02  0.00000000000E+00 0.  1.
        -11    1    5    5    0    0  0.49211434208E+02  0.56584269619E+02  0.10588395733E+03  0.12974959440E+03  0.00000000000E+00 0. -1.
          3    1    6    6  503    0 -0.59740455282E+02 -0.46655914748E+02 -0.24876555118E+03  0.26005767790E+03  0.00000000000E+00 0. -1.
         -3    1    6    6    0  503 -0.38556481921E+02 -0.18294930844E+03 -0.70293685255E+03  0.72737697958E+03  0.00000000000E+00 0.  1.
<mgrwt>
<rscale>  0 0.12403326E+04</rscale>
<asrwt>0</asrwt>
<pdfrwt beam="1">  1        4 0.57144962E-01 0.12403326E+04</pdfrwt>
<pdfrwt beam="2">  1       -3 0.15929848E+00 0.12403326E+04</pdfrwt>
<totfact> 0.18050755E+00</totfact>
</mgrwt>
</event>
<event>
12    6  0.1627636E-007  0.2181264E+04  0.7818608E-02  0.8526267E-01
          2   -1    0    0  501    0  0.00000000000E+00  0.00000000000E+00  0.23836045446E+04  0.23836045446E+04  0.00000000000E+00 0. -1.
         -1   -1    0    0    0  501 -0.00000000000E+00 -0.00000000000E+00 -0.49902494763E+03  0.49902494763E+03  0.00000000000E+00 0.  1.
         24    2    1    2    0    0 -0.52336469137E+03 -0.56488113167E+03  0.16605058397E+03  0.79178158151E+03  0.79649126111E+02 0.  0.
        254    2    1    2    0    0  0.52336469137E+03  0.56488113167E+03  0.17185290130E+04  0.20908479107E+04  0.90846118472E+03 0.  0.
         23    2    4    4    0    0  0.43205725803E+03  0.67428957405E+03  0.17461182773E+04  0.19232343991E+04  0.92528978292E+02 0.  0.
         23    2    4    4    0    0  0.91307433333E+02 -0.10940844238E+03 -0.27589264271E+02  0.16761351160E+03  0.83820445736E+02 0.  0.
          2    1    3    3  502    0  0.59101535055E+00  0.16579814957E+01 -0.12646885380E+01  0.21674037194E+01  0.00000000000E+00 0. -1.
         -1    1    3    3    0  502 -0.52395570672E+03 -0.56653911317E+03  0.16731527251E+03  0.78961417779E+03  0.00000000000E+00 0.  1.
         11    1    5    5    0    0  0.26545721614E+01 -0.32016944984E+00 -0.39471443191E-01  0.26741016868E+01  0.00000000000E+00 0.  1.
        -11    1    5    5    0    0  0.42940268587E+03  0.67460974350E+03  0.17461577487E+04  0.19205602974E+04  0.00000000000E+00 0. -1.
          4    1    6    6  503    0  0.50395103778E+02 -0.11230174396E+03 -0.11763438892E+02  0.12365163434E+03  0.00000000000E+00 0. -1.
         -4    1    6    6    0  503  0.40912329555E+02  0.28933015766E+01 -0.15825825380E+02  0.43961877264E+02  0.00000000000E+00 0.  1.
<mgrwt>
<rscale>  0 0.21812640E+04</rscale>
<asrwt>0</asrwt>
<pdfrwt beam="1">  1        2 0.36670839E+00 0.21812640E+04</pdfrwt>
<pdfrwt beam="2">  1       -1 0.76773070E-01 0.21812640E+04</pdfrwt>
<totfact> 0.72043865E+00</totfact>
</mgrwt>
</event>
<event>
12    6  0.1627636E-007  0.2267029E+04  0.7818608E-02  0.8491036E-01
          2   -1    0    0  501    0  0.00000000000E+00  0.00000000000E+00  0.82323067388E+03  0.82323067388E+03  0.00000000000E+00 0. -1.
         -1   -1    0    0    0  501 -0.00000000000E+00 -0.00000000000E+00 -0.15607467064E+04  0.15607467064E+04  0.00000000000E+00 0.  1.
         24    2    1    2    0    0 -0.40286503279E+03 -0.44578210180E+03 -0.10911613088E+04  0.12482687960E+04  0.80746939405E+02 0.  0.
        254    2    1    2    0    0  0.40286503279E+03  0.44578210180E+03  0.35364527627E+03  0.11357085843E+04  0.89651943100E+03 0.  0.
         23    2    4    4    0    0  0.49884519548E+03 -0.78356753637E+02  0.50837491674E+02  0.51597391807E+03  0.93050113779E+02 0.  0.
         23    2    4    4    0    0 -0.95980162696E+02  0.52413885544E+03  0.30280778459E+03  0.61973466626E+03  0.91895433729E+02 0.  0.
          2    1    3    3  502    0 -0.13103802300E+03 -0.92307536803E+02 -0.28095225892E+03  0.32345914211E+03  0.00000000000E+00 0. -1.
         -1    1    3    3    0  502 -0.27182700978E+03 -0.35347456500E+03 -0.81020904992E+03  0.92480965388E+03  0.00000000000E+00 0.  1.
         11    1    5    5    0    0  0.56580289792E+01  0.99165672052E+01 -0.36710160390E+01  0.11992829350E+02  0.00000000000E+00 0.  1.
        -11    1    5    5    0    0  0.49318716650E+03 -0.88273320842E+02  0.54508507713E+02  0.50398108872E+03  0.00000000000E+00 0. -1.
          4    1    6    6  503    0 -0.25162680054E+02  0.36832491271E+03  0.19593995203E+03  0.41795797228E+03  0.00000000000E+00 0. -1.
         -4    1    6    6    0  503 -0.70817482643E+02  0.15581394273E+03  0.10686783256E+03  0.20177669398E+03  0.00000000000E+00 0.  1.
<mgrwt>
<rscale>  0 0.22670285E+04</rscale>
<asrwt>0</asrwt>
<pdfrwt beam="1">  1        2 0.12665088E+00 0.22670285E+04</pdfrwt>
<pdfrwt beam="2">  1       -1 0.24011487E+00 0.22670285E+04</pdfrwt>
<totfact> 0.27820730E+00</totfact>
</mgrwt>
</event>
<event>
12    6  0.1627636E-007  0.2283802E+04  0.7818608E-02  0.8484335E-01
         -1   -1    0    0    0  501 -0.00000000000E+00  0.00000000000E+00  0.85650700190E+03  0.85650700190E+03  0.00000000000E+00 0.  1.
          2   -1    0    0  501    0  0.00000000000E+00 -0.00000000000E+00 -0.15223901882E+04  0.15223901882E+04  0.00000000000E+00 0. -1.
         24    2    1    2    0    0  0.73885731542E+03  0.26502295590E+02 -0.92461422691E+03  0.11866018738E+04  0.80622788524E+02 0.  0.
        254    2    1    2    0    0 -0.73885731542E+03 -0.26502295590E+02  0.25873104058E+03  0.11922953164E+04  0.89889591489E+03 0.  0.
         23    2    4    4    0    0 -0.17871732666E+03  0.15588793577E+03  0.49068852560E+03  0.55275078677E+03  0.92289066238E+02 0.  0.
         23    2    4    4    0    0 -0.56013998876E+03 -0.18239023136E+03 -0.23195748502E+03  0.63954452958E+03  0.90498215233E+02 0.  0.
          4    1    3    3  502    0  0.70127487492E+03  0.13812373881E+02 -0.89498424945E+03  0.11370901629E+04  0.00000000000E+00 0. -1.
         -3    1    3    3    0  502  0.37582440502E+02  0.12689921708E+02 -0.29629977456E+02  0.49511710848E+02  0.00000000000E+00 0.  1.
         11    1    5    5    0    0 -0.15850563625E+03  0.10299802652E+03  0.30695915359E+03  0.36049487120E+03  0.00000000000E+00 0. -1.
        -11    1    5    5    0    0 -0.20211690410E+02  0.52889909243E+02  0.18372937202E+03  0.19225591557E+03  0.00000000000E+00 0.  1.
          4    1    6    6  503    0 -0.92479925404E+02 -0.41430477603E+01 -0.60150935519E+02  0.11039853482E+03  0.00000000000E+00 0. -1.
         -4    1    6    6    0  503 -0.46766006336E+03 -0.17824718360E+03 -0.17180654950E+03  0.52914599476E+03  0.00000000000E+00 0.  1.
<mgrwt>
<rscale>  0 0.22838020E+04</rscale>
<asrwt>0</asrwt>
<pdfrwt beam="1">  1        2 0.23421387E+00 0.22838020E+04</pdfrwt>
<pdfrwt beam="2">  1       -1 0.13177031E+00 0.22838020E+04</pdfrwt>
<totfact> 0.62482526E+00</totfact>
</mgrwt>
</event>
<event>
12    6  0.1627636E-007  0.1227889E+04  0.7818608E-02  0.9088789E-01
          2   -1    0    0  501    0  0.00000000000E+00  0.00000000000E+00  0.52090686353E+04  0.52090686353E+04  0.00000000000E+00 0. -1.
         -1   -1    0    0    0  501 -0.00000000000E+00 -0.00000000000E+00 -0.72359975356E+02  0.72359975356E+02  0.00000000000E+00 0.  1.
         24    2    1    2    0    0 -0.55016870599E+02  0.18174586828E+03  0.40875502981E+03  0.45739632995E+03  0.77925038152E+02 0.  0.
        254    2    1    2    0    0  0.55016870599E+02 -0.18174586828E+03  0.47279536301E+04  0.48240322807E+04  0.93898003169E+03 0.  0.
         23    2    4    4    0    0  0.12883051999E+03 -0.44244797602E+03  0.12637722478E+04  0.13480979400E+04  0.88827063862E+02 0.  0.
         23    2    4    4    0    0 -0.73813649392E+02  0.26070210774E+03  0.34641813823E+04  0.34759343407E+04  0.90293117432E+02 0.  0.
          4    1    3    3  502    0  0.16582466507E+02  0.15139814815E+02  0.64563208116E+02  0.68356419087E+02  0.00000000000E+00 0. -1.
         -3    1    3    3    0  502 -0.71599337106E+02  0.16660605346E+03  0.34419182170E+03  0.38903991087E+03  0.00000000000E+00 0.  1.
         11    1    5    5    0    0  0.50149538978E+02 -0.27370441794E+03  0.84944080777E+03  0.89385612409E+03  0.00000000000E+00 0.  1.
        -11    1    5    5    0    0  0.78680981013E+02 -0.16874355808E+03  0.41433143999E+03  0.45424181592E+03  0.00000000000E+00 0. -1.
          3    1    6    6  503    0 -0.72935736980E+02  0.11225460384E+03  0.19070025467E+04  0.19116954336E+04  0.00000000000E+00 0. -1.
         -3    1    6    6    0  503 -0.87791241255E+00  0.14844750391E+03  0.15571788356E+04  0.15642389070E+04  0.00000000000E+00 0.  1.
<mgrwt>
<rscale>  0 0.12278894E+04</rscale>
<asrwt>0</asrwt>
<pdfrwt beam="1">  1        2 0.80139488E+00 0.12278894E+04</pdfrwt>
<pdfrwt beam="2">  1       -1 0.11132308E-01 0.12278894E+04</pdfrwt>
<totfact> 0.11661100E+00</totfact>
</mgrwt>
</event>
<event>
12    6  0.1627636E-007  0.1506495E+04  0.7818608E-02  0.8880145E-01
         -1   -1    0    0    0  501 -0.00000000000E+00  0.00000000000E+00  0.25874209064E+03  0.25874209064E+03  0.00000000000E+00 0.  1.
          2   -1    0    0  501    0  0.00000000000E+00 -0.00000000000E+00 -0.21928480429E+04  0.21928480429E+04  0.00000000000E+00 0. -1.
         24    2    1    2    0    0 -0.19854163445E+03 -0.18026105921E+03 -0.12529834625E+04  0.12839067970E+04  0.80847237937E+02 0.  0.
        254    2    1    2    0    0  0.19854163445E+03  0.18026105921E+03 -0.68112248974E+03  0.11676833366E+04  0.90974925028E+03 0.  0.
         23    2    4    4    0    0 -0.11403342259E+03  0.37205713706E+03 -0.13489124486E+02  0.40022925646E+03  0.92581674974E+02 0.  0.
         23    2    4    4    0    0  0.31257505703E+03 -0.19179607785E+03 -0.66763336525E+03  0.76745408010E+03  0.93608508748E+02 0.  0.
          2    1    3    3  502    0 -0.20486207447E+03 -0.17618678724E+03 -0.12379767082E+04  0.12671213768E+04  0.00000000000E+00 0. -1.
         -1    1    3    3    0  502  0.63204400273E+01 -0.40742719755E+01 -0.15006754296E+02  0.16785420125E+02  0.00000000000E+00 0.  1.
         11    1    5    5    0    0 -0.17400783351E+02  0.36933901767E+02 -0.30616257558E+02  0.51031907546E+02  0.00000000000E+00 0. -1.
        -11    1    5    5    0    0 -0.96632639235E+02  0.33512323530E+03  0.17127133072E+02  0.34919734891E+03  0.00000000000E+00 0.  1.
          2    1    6    6  503    0  0.95649658643E+02 -0.11382424736E+02 -0.16682649916E+03  0.19263825584E+03  0.00000000000E+00 0. -1.
         -2    1    6    6    0  503  0.21692539839E+03 -0.18041365311E+03 -0.50080686609E+03  0.57481582426E+03  0.00000000000E+00 0.  1.
<mgrwt>
<rscale>  0 0.15064954E+04</rscale>
<asrwt>0</asrwt>
<pdfrwt beam="1">  1        2 0.33736124E+00 0.15064954E+04</pdfrwt>
<pdfrwt beam="2">  1       -1 0.39806475E-01 0.15064954E+04</pdfrwt>
<totfact> 0.35265821E+01</totfact>
</mgrwt>
</event>
<event>
12    6  0.1627636E-007  0.1874368E+04  0.7818608E-02  0.8667721E-01
         -1   -1    0    0    0  501 -0.00000000000E+00  0.00000000000E+00  0.35904050649E+03  0.35904050649E+03  0.00000000000E+00 0.  1.
          2   -1    0    0  501    0  0.00000000000E+00 -0.00000000000E+00 -0.24462817493E+04  0.24462817493E+04  0.00000000000E+00 0. -1.
         24    2    1    2    0    0 -0.24564217519E+03 -0.68344069786E+03 -0.80088188845E+03  0.10840568613E+04  0.79600336578E+02 0.  0.
        254    2    1    2    0    0  0.24564217519E+03  0.68344069786E+03 -0.12863593543E+04  0.17212653945E+04  0.88351734784E+03 0.  0.
         23    2    4    4    0    0  0.35590035682E+03  0.53529089032E+03 -0.13563561289E+04  0.15037796431E+04  0.91923149192E+02 0.  0.
         23    2    4    4    0    0 -0.11025818162E+03  0.14814980754E+03  0.69996774552E+02  0.21748575137E+03  0.91078381147E+02 0.  0.
          4    1    3    3  502    0 -0.24616955841E+03 -0.66742421065E+03 -0.76436443735E+03  0.10441779166E+04  0.00000000000E+00 0. -1.
         -3    1    3    3    0  502  0.52738321439E+00 -0.16016487205E+02 -0.36517451102E+02  0.39878944700E+02  0.00000000000E+00 0.  1.
         11    1    5    5    0    0  0.34648120562E+03  0.51995644313E+03 -0.12677286722E+04  0.14133435233E+04  0.00000000000E+00 0.  1.
        -11    1    5    5    0    0  0.94191511986E+01  0.15334447190E+02 -0.88627456668E+02  0.90436119750E+02  0.00000000000E+00 0. -1.
          2    1    6    6  503    0 -0.38425426017E+02  0.22809987624E+02 -0.18174013409E+02  0.48240062846E+02  0.00000000000E+00 0. -1.
         -2    1    6    6    0  503 -0.71832755606E+02  0.12533981991E+03  0.88170787961E+02  0.16924568852E+03  0.00000000000E+00 0.  1.
<mgrwt>
<rscale>  0 0.18743684E+04</rscale>
<asrwt>0</asrwt>
<pdfrwt beam="1">  1        2 0.37635103E+00 0.18743684E+04</pdfrwt>
<pdfrwt beam="2">  1       -1 0.55237002E-01 0.18743684E+04</pdfrwt>
<totfact> 0.13247288E+01</totfact>
</mgrwt>
</event>
<event>
12    6  0.1627636E-007  0.1876942E+04  0.7818608E-02  0.8666420E-01
         -1   -1    0    0    0  501 -0.00000000000E+00  0.00000000000E+00  0.50138556729E+03  0.50138556729E+03  0.00000000000E+00 0.  1.
          2   -1    0    0  501    0  0.00000000000E+00 -0.00000000000E+00 -0.17565872322E+04  0.17565872322E+04  0.00000000000E+00 0. -1.
         24    2    1    2    0    0  0.10773705979E+03 -0.85732474085E+02 -0.13359630718E+04  0.13454405446E+04  0.80346739841E+02 0.  0.
        254    2    1    2    0    0 -0.10773705979E+03  0.85732474085E+02  0.80761406860E+02  0.91253225494E+03  0.89846278738E+03 0.  0.
         23    2    4    4    0    0  0.17128304512E+03 -0.15027889764E+03 -0.29231719619E+03  0.38148816585E+03  0.90345165197E+02 0.  0.
         23    2    4    4    0    0 -0.27902010490E+03  0.23601137172E+03  0.37307860305E+03  0.53104408909E+03  0.96263149638E+02 0.  0.
          4    1    3    3  502    0  0.99962845228E+02 -0.10100094920E+03 -0.11714488861E+04  0.11800365482E+04  0.00000000000E+00 0. -1.
         -3    1    3    3    0  502  0.77742145586E+01  0.15268475118E+02 -0.16451418565E+03  0.16540399640E+03  0.00000000000E+00 0.  1.
         11    1    5    5    0    0  0.15407943236E+03 -0.15686108898E+03 -0.23747825845E+03  0.32363837218E+03  0.00000000000E+00 0. -1.
        -11    1    5    5    0    0  0.17203612759E+02  0.65821913420E+01 -0.54838937745E+02  0.57849793671E+02  0.00000000000E+00 0.  1.
          1    1    6    6  503    0 -0.20738268848E+03  0.21673485632E+03  0.32684080066E+03  0.44362877093E+03  0.00000000000E+00 0. -1.
         -1    1    6    6    0  503 -0.71637416428E+02  0.19276515406E+02  0.46237802394E+02  0.87415318160E+02  0.00000000000E+00 0.  1.
<mgrwt>
<rscale>  0 0.18769416E+04</rscale>
<asrwt>0</asrwt>
<pdfrwt beam="1">  1        2 0.27024419E+00 0.18769416E+04</pdfrwt>
<pdfrwt beam="2">  1       -1 0.77136242E-01 0.18769416E+04</pdfrwt>
<totfact> 0.16427727E+01</totfact>
</mgrwt>
</event>
<event>
12    6  0.1627636E-007  0.2501739E+04  0.7818608E-02  0.8402366E-01
         -1   -1    0    0    0  501 -0.00000000000E+00  0.00000000000E+00  0.75796587227E+03  0.75796587227E+03  0.00000000000E+00 0.  1.
          2   -1    0    0  501    0  0.00000000000E+00 -0.00000000000E+00 -0.20643068966E+04  0.20643068966E+04  0.00000000000E+00 0. -1.
         24    2    1    2    0    0 -0.79762559007E+03 -0.73370906577E+03 -0.63337399613E+03  0.12579364033E+04  0.81888953721E+02 0.  0.
        254    2    1    2    0    0  0.79762559007E+03  0.73370906577E+03 -0.67296702816E+03  0.15643363655E+04  0.90538835219E+03 0.  0.
         23    2    4    4    0    0  0.36743746216E+03  0.41299526225E+03  0.14741110746E+03  0.57982681040E+03  0.94306522680E+02 0.  0.
         23    2    4    4    0    0  0.43018812792E+03  0.32071380352E+03 -0.82037813562E+03  0.98450955509E+03  0.91211893392E+02 0.  0.
          4    1    3    3  502    0 -0.20916876010E+03 -0.14706839089E+03 -0.13807787979E+03  0.29059625375E+03  0.00000000000E+00 0. -1.
         -3    1    3    3    0  502 -0.58845682997E+03 -0.58664067488E+03 -0.49529611634E+03  0.96734014960E+03  0.00000000000E+00 0.  1.
         11    1    5    5    0    0  0.42306221728E+02  0.28790314404E+02 -0.10667749220E+02  0.52273315122E+02  0.00000000000E+00 0.  1.
        -11    1    5    5    0    0  0.32513124043E+03  0.38420494785E+03  0.15807885668E+03  0.52755349528E+03  0.00000000000E+00 0. -1.
          2    1    6    6  503    0  0.24829617967E+03  0.16540527746E+03 -0.37736409058E+03  0.48105462840E+03  0.00000000000E+00 0.  1.
         -2    1    6    6    0  503  0.18189194825E+03  0.15530852606E+03 -0.44301404504E+03  0.50345492669E+03  0.00000000000E+00 0. -1.
<mgrwt>
<rscale>  0 0.25017387E+04</rscale>
<asrwt>0</asrwt>
<pdfrwt beam="1">  1        2 0.31758567E+00 0.25017387E+04</pdfrwt>
<pdfrwt beam="2">  1       -1 0.11661014E+00 0.25017387E+04</pdfrwt>
<totfact> 0.41430191E+00</totfact>
</mgrwt>
</event>
<event>
12    6  0.1627636E-007  0.1763238E+04  0.7818608E-02  0.8726097E-01
         -1   -1    0    0    0  501 -0.00000000000E+00  0.00000000000E+00  0.19378458800E+03  0.19378458800E+03  0.00000000000E+00 0.  1.
          2   -1    0    0  501    0  0.00000000000E+00 -0.00000000000E+00 -0.40109073181E+04  0.40109073181E+04  0.00000000000E+00 0. -1.
         24    2    1    2    0    0 -0.27464648707E+03 -0.21331118908E+03 -0.28778738820E+04  0.28998030810E+04  0.75943872190E+02 0.  0.
        254    2    1    2    0    0  0.27464648707E+03  0.21331118908E+03 -0.93924884813E+03  0.13048888251E+04  0.83642936995E+03 0.  0.
         23    2    4    4    0    0 -0.54962930816E+02 -0.24295977830E+03 -0.86343750265E+02  0.27897131967E+03  0.91210615357E+02 0.  0.
         23    2    4    4    0    0  0.32960941789E+03  0.45627096738E+03 -0.85290509787E+03  0.10259175054E+04  0.90741710137E+02 0.  0.
          2    1    3    3  502    0 -0.27771245253E+03 -0.21021104638E+03 -0.28671276138E+04  0.28882059560E+04  0.00000000000E+00 0. -1.
         -1    1    3    3    0  502  0.30659654545E+01 -0.31001427037E+01 -0.10746268157E+02  0.11597124999E+02  0.00000000000E+00 0.  1.
         11    1    5    5    0    0  0.23713372616E+02 -0.38376541873E+02 -0.23942776563E+02  0.51071905746E+02  0.00000000000E+00 0.  1.
        -11    1    5    5    0    0 -0.78676303432E+02 -0.20458323643E+03 -0.62400973702E+02  0.22789941392E+03  0.00000000000E+00 0. -1.
          4    1    6    6  503    0  0.29939272323E+03  0.36169739825E+03 -0.72931428026E+03  0.86738707047E+03  0.00000000000E+00 0. -1.
         -4    1    6    6    0  503  0.30216694655E+02  0.94573569134E+02 -0.12359081760E+03  0.15853043497E+03  0.00000000000E+00 0.  1.
<mgrwt>
<rscale>  0 0.17632380E+04</rscale>
<asrwt>0</asrwt>
<pdfrwt beam="1">  1        2 0.61706270E+00 0.17632380E+04</pdfrwt>
<pdfrwt beam="2">  1       -1 0.29813012E-01 0.17632380E+04</pdfrwt>
<totfact> 0.37869733E+00</totfact>
</mgrwt>
</event>
<event>
12    6  0.1627636E-007  0.2482351E+04  0.7818608E-02  0.8409300E-01
         -1   -1    0    0    0  501 -0.00000000000E+00  0.00000000000E+00  0.67847941160E+03  0.67847941160E+03  0.00000000000E+00 0.  1.
          2   -1    0    0  501    0  0.00000000000E+00 -0.00000000000E+00 -0.22705427269E+04  0.22705427269E+04  0.00000000000E+00 0. -1.
         24    2    1    2    0    0 -0.26325140325E+03 -0.65462416550E+03 -0.16453838719E+04  0.17920557318E+04  0.79633915278E+02 0.  0.
        254    2    1    2    0    0  0.26325140325E+03  0.65462416550E+03  0.53320556588E+02  0.11569664067E+04  0.91536554732E+03 0.  0.
         23    2    4    4    0    0 -0.65446039831E+02 -0.18603304321E+03  0.11847869940E+03  0.24736555886E+03  0.90890264622E+02 0.  0.
         23    2    4    4    0    0  0.32869744308E+03  0.84065720871E+03 -0.65158142813E+02  0.90960084788E+03  0.91550899817E+02 0.  0.
          4    1    3    3  502    0 -0.22807867400E+03 -0.61386653684E+03 -0.15471442772E+04  0.16800319703E+04  0.00000000000E+00 0. -1.
         -3    1    3    3    0  502 -0.35172729245E+02 -0.40757628651E+02 -0.98239594699E+02  0.11202376151E+03  0.00000000000E+00 0.  1.
         11    1    5    5    0    0  0.82855912140E+01 -0.69811616243E+02  0.77697319884E+01  0.70729636783E+02  0.00000000000E+00 0.  1.
        -11    1    5    5    0    0 -0.73731631045E+02 -0.11622142697E+03  0.11070896741E+03  0.17663592208E+03  0.00000000000E+00 0. -1.
          2    1    6    6  503    0  0.23429958408E+03  0.69701019093E+03 -0.56156250260E+02  0.73747747477E+03  0.00000000000E+00 0. -1.
         -2    1    6    6    0  503  0.94397859001E+02  0.14364701778E+03 -0.90018925526E+01  0.17212337311E+03  0.00000000000E+00 0.  1.
<mgrwt>
<rscale>  0 0.24823509E+04</rscale>
<asrwt>0</asrwt>
<pdfrwt beam="1">  1        2 0.34931426E+00 0.24823509E+04</pdfrwt>
<pdfrwt beam="2">  1       -1 0.10438145E+00 0.24823509E+04</pdfrwt>
<totfact> 0.41312504E+00</totfact>
</mgrwt>
</event>
<event>
12    6  0.1627636E-007  0.1313493E+04  0.7818608E-02  0.9018933E-01
         -1   -1    0    0    0  501 -0.00000000000E+00  0.00000000000E+00  0.43170840957E+03  0.43170840957E+03  0.00000000000E+00 0.  1.
          2   -1    0    0  501    0  0.00000000000E+00 -0.00000000000E+00 -0.99909104807E+03  0.99909104807E+03  0.00000000000E+00 0. -1.
         24    2    1    2    0    0  0.18750481684E+03 -0.21089946527E+03 -0.35256087960E+03  0.45893490768E+03  0.81764508655E+02 0.  0.
        254    2    1    2    0    0 -0.18750481684E+03  0.21089946527E+03 -0.21482175890E+03  0.97186454995E+03  0.90484013757E+03 0.  0.
         23    2    4    4    0    0  0.11009565450E+03  0.93073242903E+02  0.30798348229E+03  0.35222365484E+03  0.91782329375E+02 0.  0.
         23    2    4    4    0    0 -0.29760047134E+03  0.11782622237E+03 -0.52280524119E+03  0.61964089511E+03  0.90445892405E+02 0.  0.
          4    1    3    3  502    0  0.11655603714E+03 -0.95383927887E+02 -0.23696796633E+03  0.28077966551E+03  0.00000000000E+00 0. -1.
         -1    1    3    3    0  502  0.70948779700E+02 -0.11551553738E+03 -0.11559291327E+03  0.17815524218E+03  0.00000000000E+00 0.  1.
         11    1    5    5    0    0  0.64270562324E+02  0.10472047289E+03  0.23658521802E+03  0.26658891202E+03  0.00000000000E+00 0.  1.
        -11    1    5    5    0    0  0.45825092174E+02 -0.11647229984E+02  0.71398264265E+02  0.85634742827E+02  0.00000000000E+00 0. -1.
          4    1    6    6  503    0  0.37985932646E+01  0.12909819415E+02 -0.19999239224E+02  0.24105234238E+02  0.00000000000E+00 0. -1.
         -4    1    6    6    0  503 -0.30139906461E+03  0.10491640295E+03 -0.50280600197E+03  0.59553566087E+03  0.00000000000E+00 0.  1.
<mgrwt>
<rscale>  0 0.13134931E+04</rscale>
<asrwt>0</asrwt>
<pdfrwt beam="1">  1        2 0.15370631E+00 0.13134931E+04</pdfrwt>
<pdfrwt beam="2">  1       -1 0.66416679E-01 0.13134931E+04</pdfrwt>
<totfact> 0.64737515E+01</totfact>
</mgrwt>
</event>
<event>
12    6  0.1627636E-007  0.2392461E+04  0.7818608E-02  0.8442331E-01
         -1   -1    0    0    0  501 -0.00000000000E+00  0.00000000000E+00  0.37731665808E+03  0.37731665808E+03  0.00000000000E+00 0.  1.
          2   -1    0    0  501    0  0.00000000000E+00 -0.00000000000E+00 -0.37924841820E+04  0.37924841820E+04  0.00000000000E+00 0. -1.
         24    2    1    2    0    0  0.50151156158E+02 -0.13457545104E+03  0.29932639002E+03  0.34182956180E+03  0.81396996698E+02 0.  0.
        254    2    1    2    0    0 -0.50151156158E+02  0.13457545104E+03 -0.37144939139E+04  0.38279712782E+04  0.91393291890E+03 0.  0.
         23    2    4    4    0    0  0.38180977593E+03  0.25307456728E+03 -0.18872752152E+04  0.19445205765E+04  0.97606827324E+02 0.  0.
         23    2    4    4    0    0 -0.43196093208E+03 -0.11849911625E+03 -0.18272186987E+04  0.18834507018E+04  0.89588424690E+02 0.  0.
          4    1    3    3  502    0  0.23734044732E+02 -0.35417571548E+02  0.26149727964E+02  0.50015172960E+02  0.00000000000E+00 0. -1.
         -3    1    3    3    0  502  0.26417111426E+02 -0.99157879487E+02  0.27317666205E+03  0.29181438884E+03  0.00000000000E+00 0.  1.
         11    1    5    5    0    0  0.33898625468E+03  0.24702639570E+03 -0.16026973457E+04  0.16566751350E+04  0.00000000000E+00 0. -1.
        -11    1    5    5    0    0  0.42823521245E+02  0.60481715845E+01 -0.28457786957E+03  0.28784544151E+03  0.00000000000E+00 0.  1.
          2    1    6    6  503    0 -0.18927846527E+03 -0.39727686253E+02 -0.96879956070E+03  0.98791559117E+03  0.00000000000E+00 0. -1.
         -2    1    6    6    0  503 -0.24268246682E+03 -0.78771429993E+02 -0.85841913795E+03  0.89553511058E+03  0.00000000000E+00 0.  1.
<mgrwt>
<rscale>  0 0.23924610E+04</rscale>
<asrwt>0</asrwt>
<pdfrwt beam="1">  1        2 0.58345911E+00 0.23924610E+04</pdfrwt>
<pdfrwt beam="2">  1       -1 0.58048716E-01 0.23924610E+04</pdfrwt>
<totfact> 0.15365876E+00</totfact>
</mgrwt>
</event>
<event>
12    6  0.1627636E-007  0.2702478E+04  0.7818608E-02  0.8334201E-01
         -1   -1    0    0    0  501 -0.00000000000E+00  0.00000000000E+00  0.84499800101E+03  0.84499800101E+03  0.00000000000E+00 0.  1.
          2   -1    0    0  501    0  0.00000000000E+00 -0.00000000000E+00 -0.21607708229E+04  0.21607708229E+04  0.00000000000E+00 0. -1.
         24    2    1    2    0    0  0.47243296098E+03 -0.12477450532E+03 -0.18027692424E+04  0.18695446531E+04  0.80365967728E+02 0.  0.
        254    2    1    2    0    0 -0.47243296098E+03  0.12477450532E+03  0.48699642044E+03  0.11362241709E+04  0.90281685472E+03 0.  0.
         23    2    4    4    0    0 -0.13830860796E+02 -0.27046282860E+03 -0.85357326196E+02  0.29825895813E+03  0.91274851982E+02 0.  0.
         23    2    4    4    0    0 -0.45860210019E+03  0.39523733392E+03  0.57235374664E+03  0.83796521275E+03  0.89824551614E+02 0.  0.
          2    1    3    3  502    0  0.32797685789E+03 -0.78427467527E+02 -0.13722214598E+04  0.14130503961E+04  0.00000000000E+00 0. -1.
         -1    1    3    3    0  502  0.14445610309E+03 -0.46347037789E+02 -0.43054778253E+03  0.45649425699E+03  0.00000000000E+00 0.  1.
         11    1    5    5    0    0 -0.40685003869E+02 -0.70592325634E+02 -0.65463693502E+01  0.81739836860E+02  0.00000000000E+00 0.  1.
        -11    1    5    5    0    0  0.26854143073E+02 -0.19987050297E+03 -0.78810956845E+02  0.21651912127E+03  0.00000000000E+00 0. -1.
          3    1    6    6  503    0 -0.32331221445E+03  0.31962640388E+03  0.45821585017E+03  0.64548709624E+03  0.00000000000E+00 0. -1.
         -3    1    6    6    0  503 -0.13528988574E+03  0.75610930038E+02  0.11413789646E+03  0.19247811651E+03  0.00000000000E+00 0.  1.
<mgrwt>
<rscale>  0 0.27024781E+04</rscale>
<asrwt>0</asrwt>
<pdfrwt beam="1">  1        2 0.33242628E+00 0.27024781E+04</pdfrwt>
<pdfrwt beam="2">  1       -1 0.12999969E+00 0.27024781E+04</pdfrwt>
<totfact> 0.27484553E+00</totfact>
</mgrwt>
</event>
<event>
12    6  0.1627636E-007  0.1667250E+04  0.7818608E-02  0.8780266E-01
         -1   -1    0    0    0  501 -0.00000000000E+00  0.00000000000E+00  0.20574953810E+03  0.20574953810E+03  0.00000000000E+00 0.  1.
          2   -1    0    0  501    0  0.00000000000E+00 -0.00000000000E+00 -0.33775572974E+04  0.33775572974E+04  0.00000000000E+00 0. -1.
         24    2    1    2    0    0  0.48234814192E+03  0.20344565864E+03 -0.55550724959E+03  0.76804519993E+03  0.85177806624E+02 0.  0.
        254    2    1    2    0    0 -0.48234814192E+03 -0.20344565864E+03 -0.26163005097E+04  0.28152616356E+04  0.89812017769E+03 0.  0.
         23    2    4    4    0    0 -0.19485612876E+03  0.30633276975E+03 -0.54715950484E+03  0.66308600559E+03  0.92145810218E+02 0.  0.
         23    2    4    4    0    0 -0.28749201317E+03 -0.50977842840E+03 -0.20691410049E+04  0.21521756300E+04  0.89385348532E+02 0.  0.
          2    1    3    3  502    0  0.36583359602E+03  0.16559907915E+03 -0.37194636981E+03  0.54735854520E+03  0.00000000000E+00 0. -1.
         -1    1    3    3    0  502  0.11651454591E+03  0.37846579497E+02 -0.18356087978E+03  0.22068665473E+03  0.00000000000E+00 0.  1.
         11    1    5    5    0    0 -0.18693002043E+03  0.26155051635E+03 -0.51601281517E+03  0.60796441554E+03  0.00000000000E+00 0. -1.
        -11    1    5    5    0    0 -0.79261083265E+01  0.44782253404E+02 -0.31146689672E+02  0.55121590059E+02  0.00000000000E+00 0.  1.
          3    1    6    6  503    0 -0.27088877648E+03 -0.49113729749E+03 -0.20272444628E+04  0.21034059727E+04  0.00000000000E+00 0. -1.
         -3    1    6    6    0  503 -0.16603236687E+02 -0.18641130904E+02 -0.41896542128E+02  0.48769657290E+02  0.00000000000E+00 0.  1.
<mgrwt>
<rscale>  0 0.16672503E+04</rscale>
<asrwt>0</asrwt>
<pdfrwt beam="1">  1        2 0.51962417E+00 0.16672503E+04</pdfrwt>
<pdfrwt beam="2">  1       -1 0.31653777E-01 0.16672503E+04</pdfrwt>
<totfact> 0.10047558E+01</totfact>
</mgrwt>
</event>
<event>
12    6  0.1627636E-007  0.1292347E+04  0.7818608E-02  0.9035657E-01
          2   -1    0    0  501    0  0.00000000000E+00  0.00000000000E+00  0.10162597195E+04  0.10162597195E+04  0.00000000000E+00 0. -1.
         -1   -1    0    0    0  501 -0.00000000000E+00 -0.00000000000E+00 -0.41085943180E+03  0.41085943180E+03  0.00000000000E+00 0.  1.
         24    2    1    2    0    0 -0.39758504645E+02  0.18952071822E+03  0.41548042747E+03  0.46618904154E+03  0.84908159338E+02 0.  0.
        254    2    1    2    0    0  0.39758504645E+02 -0.18952071822E+03  0.18991986029E+03  0.96093010980E+03  0.92185588964E+03 0.  0.
         23    2    4    4    0    0 -0.29993112298E+03 -0.38669979071E+03 -0.33801275106E+02  0.49987350442E+03  0.96101964368E+02 0.  0.
         23    2    4    4    0    0  0.33968962763E+03  0.19717907249E+03  0.22372113539E+03  0.46105660538E+03  0.90848319744E+02 0.  0.
          4    1    3    3  502    0 -0.56554622704E+01  0.12999072276E+03  0.34072703367E+03  0.36472521675E+03  0.00000000000E+00 0. -1.
         -3    1    3    3    0  502 -0.34103042374E+02  0.59529995454E+02  0.74753393793E+02  0.10146382479E+03  0.00000000000E+00 0.  1.
         11    1    5    5    0    0 -0.29760471931E+03 -0.38673000840E+03 -0.22679554838E+02  0.48851103423E+03  0.00000000000E+00 0. -1.
        -11    1    5    5    0    0 -0.23264036691E+01  0.30217692868E-01 -0.11121720268E+02  0.11362470192E+02  0.00000000000E+00 0.  1.
          4    1    6    6  503    0  0.31218674044E+03  0.19016698684E+03  0.17641586615E+03  0.40588988854E+03  0.00000000000E+00 0. -1.
         -4    1    6    6    0  503  0.27502887190E+02  0.70120856458E+01  0.47305269245E+02  0.55166716843E+02  0.00000000000E+00 0.  1.
<mgrwt>
<rscale>  0 0.12923465E+04</rscale>
<asrwt>0</asrwt>
<pdfrwt beam="1">  1        2 0.15634765E+00 0.12923465E+04</pdfrwt>
<pdfrwt beam="2">  1       -1 0.63209144E-01 0.12923465E+04</pdfrwt>
<totfact> 0.69840323E+01</totfact>
</mgrwt>
</event>
<event>
12    6  0.1627636E-007  0.1860218E+04  0.7818608E-02  0.8674916E-01
         -1   -1    0    0    0  501 -0.00000000000E+00  0.00000000000E+00  0.37878854741E+03  0.37878854741E+03  0.00000000000E+00 0.  1.
          2   -1    0    0  501    0  0.00000000000E+00 -0.00000000000E+00 -0.22838676420E+04  0.22838676420E+04  0.00000000000E+00 0. -1.
         24    2    1    2    0    0 -0.70811836010E+03  0.69450359885E+02 -0.87030016959E+03  0.11269676703E+04  0.79867266798E+02 0.  0.
        254    2    1    2    0    0  0.70811836010E+03 -0.69450359885E+02 -0.10347789250E+04  0.15356885191E+04  0.88392128594E+03 0.  0.
         23    2    4    4    0    0 -0.18723562963E+03  0.66394531839E+02 -0.26533147433E+03  0.34365215523E+03  0.90722641428E+02 0.  0.
         23    2    4    4    0    0  0.89535398973E+03 -0.13584489172E+03 -0.76944745071E+03  0.11920363639E+04  0.93748130441E+02 0.  0.
          4    1    3    3  502    0 -0.48302690729E+01  0.73920476150E+01 -0.48792577494E+01  0.10088658159E+02  0.00000000000E+00 0. -1.
         -3    1    3    3    0  502 -0.70328809103E+03  0.62058312270E+02 -0.86542091184E+03  0.11168790121E+04  0.00000000000E+00 0.  1.
         11    1    5    5    0    0 -0.15653138402E+03  0.39288326448E+02 -0.25438102347E+03  0.30125628936E+03  0.00000000000E+00 0.  1.
        -11    1    5    5    0    0 -0.30704245603E+02  0.27106205391E+02 -0.10950450855E+02  0.42395865868E+02  0.00000000000E+00 0. -1.
          4    1    6    6  503    0  0.52589090950E+03 -0.11436863008E+03 -0.49600590432E+03  0.73189021674E+03  0.00000000000E+00 0. -1.
         -4    1    6    6    0  503  0.36946308023E+03 -0.21476261639E+02 -0.27344154639E+03  0.46014614717E+03  0.00000000000E+00 0.  1.
<mgrwt>
<rscale>  0 0.18602182E+04</rscale>
<asrwt>0</asrwt>
<pdfrwt beam="1">  1        2 0.35136425E+00 0.18602182E+04</pdfrwt>
<pdfrwt beam="2">  1       -1 0.58275162E-01 0.18602182E+04</pdfrwt>
<totfact> 0.14783802E+01</totfact>
</mgrwt>
</event>
<event>
12    6  0.1627636E-007  0.1645515E+04  0.7818608E-02  0.8793064E-01
         -3   -1    0    0    0  501 -0.00000000000E+00  0.00000000000E+00  0.66725595967E+03  0.66725595967E+03  0.00000000000E+00 0.  1.
          2   -1    0    0  501    0  0.00000000000E+00 -0.00000000000E+00 -0.10144983835E+04  0.10144983835E+04  0.00000000000E+00 0. -1.
         24    2    1    2    0    0 -0.16172046154E+03  0.28985544200E+03  0.35840475319E+03  0.49438334725E+03  0.76100210162E+02 0.  0.
        254    2    1    2    0    0  0.16172046154E+03 -0.28985544200E+03 -0.70564717706E+03  0.11873709960E+04  0.89540061350E+03 0.  0.
         23    2    4    4    0    0  0.29770791612E+03 -0.24315966475E+03 -0.86646694925E+03  0.95238792391E+03  0.92310116449E+02 0.  0.
         23    2    4    4    0    0 -0.13598745458E+03 -0.46695777256E+02  0.16081977219E+03  0.23498307206E+03  0.93171678158E+02 0.  0.
          4    1    3    3  502    0 -0.72284027546E+02  0.20169174285E+03  0.24096995668E+03  0.32244543693E+03  0.00000000000E+00 0. -1.
         -3    1    3    3    0  502 -0.89436433996E+02  0.88163699151E+02  0.11743479650E+03  0.17193791032E+03  0.00000000000E+00 0.  1.
         11    1    5    5    0    0  0.24453762081E+03 -0.23822949032E+03 -0.73163733499E+03  0.80736926372E+03  0.00000000000E+00 0. -1.
        -11    1    5    5    0    0  0.53170295312E+02 -0.49301744237E+01 -0.13482961425E+03  0.14501866019E+03  0.00000000000E+00 0.  1.
          4    1    6    6  503    0 -0.86573212517E+02 -0.21553959900E+02  0.15551329085E+03  0.17928713825E+03  0.00000000000E+00 0. -1.
         -4    1    6    6    0  503 -0.49414242062E+02 -0.25141817356E+02  0.53064813459E+01  0.55695933809E+02  0.00000000000E+00 0.  1.
<mgrwt>
<rscale>  0 0.16455152E+04</rscale>
<asrwt>0</asrwt>
<pdfrwt beam="1">  1        2 0.15607667E+00 0.16455152E+04</pdfrwt>
<pdfrwt beam="2">  1       -3 0.10265476E+00 0.16455152E+04</pdfrwt>
<totfact> 0.12269769E+01</totfact>
</mgrwt>
</event>
<event>
12    6  0.1627636E-007  0.1997740E+04  0.7818608E-02  0.8607678E-01
          2   -1    0    0  501    0  0.00000000000E+00  0.00000000000E+00  0.82345950765E+03  0.82345950765E+03  0.00000000000E+00 0. -1.
         -1   -1    0    0    0  501 -0.00000000000E+00 -0.00000000000E+00 -0.12116463762E+04  0.12116463762E+04  0.00000000000E+00 0.  1.
         24    2    1    2    0    0 -0.52342567517E+03  0.30960187355E+03  0.36408050446E+03  0.71350765793E+03  0.81919513315E+02 0.  0.
        254    2    1    2    0    0  0.52342567517E+03 -0.30960187355E+03 -0.75226737306E+03  0.13215982260E+04  0.90049314977E+03 0.  0.
         23    2    4    4    0    0  0.20344615021E+03 -0.44435498123E+03 -0.10499958115E+02  0.49752018500E+03  0.92598056027E+02 0.  0.
         23    2    4    4    0    0  0.31997952496E+03  0.13475310768E+03 -0.74176741494E+03  0.82407804097E+03  0.91325918114E+02 0.  0.
          2    1    3    3  502    0 -0.51418934082E+03  0.29078997086E+03  0.36108407705E+03  0.69233748712E+03  0.00000000000E+00 0. -1.
         -1    1    3    3    0  502 -0.92363343504E+01  0.18811902690E+02  0.29964274096E+01  0.21170170814E+02  0.00000000000E+00 0.  1.
         11    1    5    5    0    0  0.17248528604E+03 -0.39182589686E+03 -0.39637212452E+02  0.42994164251E+03  0.00000000000E+00 0. -1.
        -11    1    5    5    0    0  0.30960864167E+02 -0.52529084375E+02  0.29137254337E+02  0.67578542493E+02  0.00000000000E+00 0.  1.
          3    1    6    6  503    0  0.23525543365E+03  0.13866954973E+03 -0.53722588365E+03  0.60264916257E+03  0.00000000000E+00 0. -1.
         -3    1    6    6    0  503  0.84724091313E+02 -0.39164420503E+01 -0.20454153129E+03  0.22142887840E+03  0.00000000000E+00 0.  1.
<mgrwt>
<rscale>  0 0.19977405E+04</rscale>
<asrwt>0</asrwt>
<pdfrwt beam="1">  1        2 0.12668608E+00 0.19977405E+04</pdfrwt>
<pdfrwt beam="2">  1       -1 0.18640714E+00 0.19977405E+04</pdfrwt>
<totfact> 0.65816594E+00</totfact>
</mgrwt>
</event>
<event>
12    6  0.1627636E-007  0.1238939E+04  0.7818608E-02  0.9079440E-01
         -1   -1    0    0    0  501 -0.00000000000E+00  0.00000000000E+00  0.18982162141E+03  0.18982162141E+03  0.00000000000E+00 0.  1.
          2   -1    0    0  501    0  0.00000000000E+00 -0.00000000000E+00 -0.20215940424E+04  0.20215940424E+04  0.00000000000E+00 0. -1.
         24    2    1    2    0    0  0.23285016453E+03  0.86625651649E+02 -0.17264956305E+03  0.31301197312E+03  0.80283379668E+02 0.  0.
        254    2    1    2    0    0 -0.23285016453E+03 -0.86625651649E+02 -0.16591228580E+04  0.18984036907E+04  0.88855203137E+03 0.  0.
         23    2    4    4    0    0 -0.48576244626E+03 -0.27855555033E+03 -0.82508691472E+03  0.10014003172E+04  0.92064269480E+02 0.  0.
         23    2    4    4    0    0  0.25291228173E+03  0.19192989868E+03 -0.83403594323E+03  0.89700337346E+03  0.90539434183E+02 0.  0.
          4    1    3    3  502    0  0.13685454879E+03  0.82123762357E+01 -0.87946586309E+02  0.16288404677E+03  0.00000000000E+00 0. -1.
         -3    1    3    3    0  502  0.95995615735E+02  0.78413275413E+02 -0.84702976742E+02  0.15012792635E+03  0.00000000000E+00 0.  1.
         11    1    5    5    0    0 -0.47245088061E+03 -0.28359245693E+03 -0.78691279202E+03  0.96065928323E+03  0.00000000000E+00 0. -1.
        -11    1    5    5    0    0 -0.13311565649E+02  0.50369066021E+01 -0.38174122703E+02  0.40741034011E+02  0.00000000000E+00 0.  1.
          4    1    6    6  503    0  0.83664878269E+02  0.11705834934E+03 -0.40305779381E+03  0.42796968836E+03  0.00000000000E+00 0. -1.
         -4    1    6    6    0  503  0.16924740346E+03  0.74871549339E+02 -0.43097814942E+03  0.46903368510E+03  0.00000000000E+00 0.  1.
<mgrwt>
<rscale>  0 0.12389387E+04</rscale>
<asrwt>0</asrwt>
<pdfrwt beam="1">  1        2 0.31101448E+00 0.12389387E+04</pdfrwt>
<pdfrwt beam="2">  1       -1 0.29203325E-01 0.12389387E+04</pdfrwt>
<totfact> 0.78042391E+01</totfact>
</mgrwt>
</event>
<event>
12    6  0.1627636E-007  0.1752645E+04  0.7818608E-02  0.8731896E-01
          2   -1    0    0  501    0  0.00000000000E+00  0.00000000000E+00  0.14597529210E+04  0.14597529210E+04  0.00000000000E+00 0. -1.
         -1   -1    0    0    0  501 -0.00000000000E+00 -0.00000000000E+00 -0.52607610417E+03  0.52607610417E+03  0.00000000000E+00 0.  1.
         24    2    1    2    0    0 -0.52026791145E+03 -0.11870584036E+03  0.72849127704E+03  0.90664812911E+03  0.80879620849E+02 0.  0.
        254    2    1    2    0    0  0.52026791145E+03  0.11870584036E+03  0.20518553979E+03  0.10791808961E+04  0.91529258953E+03 0.  0.
         23    2    4    4    0    0  0.33779350804E+02  0.36008070305E+02 -0.32953550096E+03  0.34564431833E+03  0.91862520836E+02 0.  0.
         23    2    4    4    0    0  0.48648856065E+03  0.82697770055E+02  0.53472104075E+03  0.73353657773E+03  0.92947719867E+02 0.  0.
          4    1    3    3  502    0 -0.39675456849E+03 -0.12397049820E+03  0.54586582890E+03  0.68611396663E+03  0.00000000000E+00 0. -1.
         -3    1    3    3    0  502 -0.12351334296E+03  0.52646578433E+01  0.18262544814E+03  0.22053416248E+03  0.00000000000E+00 0.  1.
         11    1    5    5    0    0  0.37489131452E+02  0.22629094662E+02 -0.32884039121E+03  0.33174314430E+03  0.00000000000E+00 0.  1.
        -11    1    5    5    0    0 -0.37097806481E+01  0.13378975643E+02 -0.69510974774E+00  0.13901174025E+02  0.00000000000E+00 0. -1.
          4    1    6    6  503    0  0.20020344690E+03  0.76492758283E+01  0.27178472916E+03  0.33764903462E+03  0.00000000000E+00 0. -1.
         -4    1    6    6    0  503  0.28628511375E+03  0.75048494227E+02  0.26293631159E+03  0.39588754311E+03  0.00000000000E+00 0.  1.
<mgrwt>
<rscale>  0 0.17526450E+04</rscale>
<asrwt>0</asrwt>
<pdfrwt beam="1">  1        2 0.22457737E+00 0.17526450E+04</pdfrwt>
<pdfrwt beam="2">  1       -1 0.80934786E-01 0.17526450E+04</pdfrwt>
<totfact> 0.21983525E+01</totfact>
</mgrwt>
</event>
<event>
12    6  0.1627636E-007  0.1970782E+04  0.7818608E-02  0.8620404E-01
          2   -1    0    0  501    0  0.00000000000E+00  0.00000000000E+00  0.75947581828E+03  0.75947581828E+03  0.00000000000E+00 0. -1.
         -1   -1    0    0    0  501 -0.00000000000E+00 -0.00000000000E+00 -0.12785067950E+04  0.12785067950E+04  0.00000000000E+00 0.  1.
         24    2    1    2    0    0  0.15745676428E+03 -0.64495117700E+03  0.21502269830E+03  0.70343724317E+03  0.88512942336E+02 0.  0.
        254    2    1    2    0    0 -0.15745676428E+03  0.64495117700E+03 -0.73405367497E+03  0.13345453701E+04  0.89522170085E+03 0.  0.
         23    2    4    4    0    0 -0.31300263541E+03 -0.31783155843E+02 -0.49667718681E+03  0.59500211190E+03  0.91424649285E+02 0.  0.
         23    2    4    4    0    0  0.15554587113E+03  0.67673433284E+03 -0.23737648816E+03  0.73954325816E+03  0.91721089642E+02 0.  0.
          2    1    3    3  502    0  0.16856573745E+03 -0.58578122064E+03  0.19449094879E+03  0.63982870790E+03  0.00000000000E+00 0. -1.
         -1    1    3    3    0  502 -0.11108973171E+02 -0.59169956362E+02  0.20531749506E+02  0.63608535265E+02  0.00000000000E+00 0.  1.
         11    1    5    5    0    0 -0.27064208672E+03 -0.46288358430E+02 -0.37075049541E+03  0.46135201427E+03  0.00000000000E+00 0.  1.
        -11    1    5    5    0    0 -0.42360548694E+02  0.14505202587E+02 -0.12592669141E+03  0.13365009763E+03  0.00000000000E+00 0. -1.
          2    1    6    6  503    0  0.76791845400E+02  0.43650064324E+03 -0.19054884822E+03  0.48242995619E+03  0.00000000000E+00 0.  1.
         -2    1    6    6    0  503  0.78754025732E+02  0.24023368961E+03 -0.46827639940E+02  0.25711330198E+03  0.00000000000E+00 0. -1.
<mgrwt>
<rscale>  0 0.19707816E+04</rscale>
<asrwt>0</asrwt>
<pdfrwt beam="1">  1        2 0.11684244E+00 0.19707816E+04</pdfrwt>
<pdfrwt beam="2">  1       -1 0.19669335E+00 0.19707816E+04</pdfrwt>
<totfact> 0.62207737E+00</totfact>
</mgrwt>
</event>
<event>
12    6  0.1627636E-007  0.1227069E+04  0.7818608E-02  0.9089488E-01
         -1   -1    0    0    0  501 -0.00000000000E+00  0.00000000000E+00  0.17000127389E+03  0.17000127389E+03  0.00000000000E+00 0.  1.
          2   -1    0    0  501    0  0.00000000000E+00 -0.00000000000E+00 -0.22142438707E+04  0.22142438707E+04  0.00000000000E+00 0. -1.
         24    2    1    2    0    0  0.25914421308E+03  0.53595209295E+02 -0.60913374058E+03  0.66891160987E+03  0.79816403497E+02 0.  0.
        254    2    1    2    0    0 -0.25914421308E+03 -0.53595209295E+02 -0.14351088562E+04  0.17153335347E+04  0.90155617488E+03 0.  0.
         23    2    4    4    0    0 -0.29926838543E+03 -0.44010799739E+03 -0.83592080431E+03  0.99537122590E+03  0.93507595324E+02 0.  0.
         23    2    4    4    0    0  0.40124172345E+02  0.38651278810E+03 -0.59918805187E+03  0.71996230878E+03  0.91199342035E+02 0.  0.
          4    1    3    3  502    0  0.42758817114E+02 -0.16776784393E+01 -0.44607488298E+02  0.61813906673E+02  0.00000000000E+00 0. -1.
         -3    1    3    3    0  502  0.21638539597E+03  0.55272887734E+02 -0.56452625228E+03  0.60709770319E+03  0.00000000000E+00 0.  1.
         11    1    5    5    0    0 -0.13209570915E+03 -0.13124788737E+03 -0.24152894915E+03  0.30497789690E+03  0.00000000000E+00 0.  1.
        -11    1    5    5    0    0 -0.16717267628E+03 -0.30886011002E+03 -0.59439185516E+03  0.69039332901E+03  0.00000000000E+00 0. -1.
          2    1    6    6  503    0  0.27828318867E+02  0.38223921786E+03 -0.59161030038E+03  0.70489998051E+03  0.00000000000E+00 0. -1.
         -2    1    6    6    0  503  0.12295853478E+02  0.42735702357E+01 -0.75777514906E+01  0.15062328272E+02  0.00000000000E+00 0.  1.
<mgrwt>
<rscale>  0 0.12270685E+04</rscale>
<asrwt>0</asrwt>
<pdfrwt beam="1">  1        2 0.34065288E+00 0.12270685E+04</pdfrwt>
<pdfrwt beam="2">  1       -1 0.26154044E-01 0.12270685E+04</pdfrwt>
<totfact> 0.73918357E+01</totfact>
</mgrwt>
</event>
<event>
12    6  0.1627636E-007  0.1440141E+04  0.7818608E-02  0.8925264E-01
         -1   -1    0    0    0  501 -0.00000000000E+00  0.00000000000E+00  0.35978716421E+03  0.35978716421E+03  0.00000000000E+00 0.  1.
          2   -1    0    0  501    0  0.00000000000E+00 -0.00000000000E+00 -0.14411349896E+04  0.14411349896E+04  0.00000000000E+00 0. -1.
         24    2    1    2    0    0 -0.15638594656E+03 -0.42574816467E+03 -0.56436653577E+03  0.73128352677E+03  0.10270319282E+03 0.  0.
        254    2    1    2    0    0  0.15638594656E+03  0.42574816467E+03 -0.51698128965E+03  0.10696386271E+04  0.81923078231E+03 0.  0.
         23    2    4    4    0    0  0.17344476559E+03 -0.92203457643E+02  0.11653920831E+03  0.24618355119E+03  0.91871592396E+02 0.  0.
         23    2    4    4    0    0 -0.17058819038E+02  0.51795162232E+03 -0.63352049795E+03  0.82345507588E+03  0.90361243368E+02 0.  0.
          4    1    3    3  502    0 -0.21487869093E+02 -0.73276076666E+02 -0.16494826186E+03  0.18176644636E+03  0.00000000000E+00 0. -1.
         -3    1    3    3    0  502 -0.13489807746E+03 -0.35247208801E+03 -0.39941827391E+03  0.54951708041E+03  0.00000000000E+00 0.  1.
         11    1    5    5    0    0 -0.64641721631E+01 -0.22010445710E+02  0.61825507084E+01  0.23758560044E+02  0.00000000000E+00 0. -1.
        -11    1    5    5    0    0  0.17990893776E+03 -0.70193011933E+02  0.11035665760E+03  0.22242499114E+03  0.00000000000E+00 0.  1.
          3    1    6    6  503    0 -0.45505975438E+02  0.22424418025E+03 -0.24009122169E+03  0.33166254071E+03  0.00000000000E+00 0.  1.
         -3    1    6    6    0  503  0.28447156400E+02  0.29370744207E+03 -0.39342927626E+03  0.49179253517E+03  0.00000000000E+00 0. -1.
<mgrwt>
<rscale>  0 0.14401415E+04</rscale>
<asrwt>0</asrwt>
<pdfrwt beam="1">  1        2 0.22171308E+00 0.14401415E+04</pdfrwt>
<pdfrwt beam="2">  1       -1 0.55351870E-01 0.14401415E+04</pdfrwt>
<totfact> 0.50025577E+01</totfact>
</mgrwt>
</event>
<event>
12    6  0.1627636E-007  0.2034916E+04  0.7818608E-02  0.8590468E-01
         -1   -1    0    0    0  501 -0.00000000000E+00  0.00000000000E+00  0.53375278063E+03  0.53375278063E+03  0.00000000000E+00 0.  1.
          2   -1    0    0  501    0  0.00000000000E+00 -0.00000000000E+00 -0.19395135549E+04  0.19395135549E+04  0.00000000000E+00 0. -1.
         24    2    1    2    0    0  0.74276788369E+03  0.15129694322E+03 -0.20577366990E+03  0.78958753465E+03  0.80689389575E+02 0.  0.
        254    2    1    2    0    0 -0.74276788369E+03 -0.15129694322E+03 -0.11999871044E+04  0.16836788009E+04  0.90565465812E+03 0.  0.
         23    2    4    4    0    0 -0.55021937820E+03  0.12750959958E+03 -0.17335666366E+03  0.59877554709E+03  0.97363036266E+02 0.  0.
         23    2    4    4    0    0 -0.19254850549E+03 -0.27880654281E+03 -0.10266304407E+04  0.10849032538E+04  0.90757881134E+02 0.  0.
          4    1    3    3  502    0  0.73478680481E+02  0.35064252996E+02 -0.65998836273E+01  0.81683393583E+02  0.00000000000E+00 0. -1.
         -3    1    3    3    0  502  0.66928920321E+03  0.11623269023E+03 -0.19917378628E+03  0.70790414107E+03  0.00000000000E+00 0.  1.
         11    1    5    5    0    0 -0.24905944533E+03  0.22893701434E+02 -0.40408769657E+02  0.25335271370E+03  0.00000000000E+00 0. -1.
        -11    1    5    5    0    0 -0.30115993287E+03  0.10461589815E+03 -0.13294789400E+03  0.34542283339E+03  0.00000000000E+00 0.  1.
          3    1    6    6  503    0 -0.12112063038E+03 -0.19145176803E+03 -0.80401478347E+03  0.83532254765E+03  0.00000000000E+00 0. -1.
         -3    1    6    6    0  503 -0.71427875113E+02 -0.87354774783E+02 -0.22261565723E+03  0.24958070612E+03  0.00000000000E+00 0.  1.
<mgrwt>
<rscale>  0 0.20349160E+04</rscale>
<asrwt>0</asrwt>
<pdfrwt beam="1">  1        2 0.29838670E+00 0.20349160E+04</pdfrwt>
<pdfrwt beam="2">  1       -1 0.82115814E-01 0.20349160E+04</pdfrwt>
<totfact> 0.11232197E+01</totfact>
</mgrwt>
</event>
<event>
12    6  0.1627636E-007  0.2119286E+04  0.7818608E-02  0.8552795E-01
          2   -1    0    0  501    0  0.00000000000E+00  0.00000000000E+00  0.14922310442E+04  0.14922310442E+04  0.00000000000E+00 0. -1.
         -1   -1    0    0    0  501 -0.00000000000E+00 -0.00000000000E+00 -0.75245920637E+03  0.75245920637E+03  0.00000000000E+00 0.  1.
         24    2    1    2    0    0  0.69071772588E+03  0.43213897626E+01 -0.25503682743E+03  0.74061688303E+03  0.79749186992E+02 0.  0.
        254    2    1    2    0    0 -0.69071772588E+03 -0.43213897626E+01  0.99480866522E+03  0.15040733675E+04  0.89189840406E+03 0.  0.
         23    2    4    4    0    0 -0.77318560893E+03  0.11068510264E+03  0.39136063476E+03  0.87842250126E+03  0.91628415225E+02 0.  0.
         23    2    4    4    0    0  0.82467883044E+02 -0.11500649240E+03  0.60344803046E+03  0.62565086624E+03  0.85217579959E+02 0.  0.
          4    1    3    3  502    0  0.22251147909E+03  0.34294233228E+02 -0.64088645087E+02  0.23408290666E+03  0.00000000000E+00 0. -1.
         -3    1    3    3    0  502  0.46820624679E+03 -0.29972843465E+02 -0.19094818234E+03  0.50653397637E+03  0.00000000000E+00 0.  1.
         11    1    5    5    0    0 -0.15185381244E+03  0.54850876506E+02  0.99852764677E+02  0.18983880957E+03  0.00000000000E+00 0. -1.
        -11    1    5    5    0    0 -0.62133179649E+03  0.55834226131E+02  0.29150787009E+03  0.68858369169E+03  0.00000000000E+00 0.  1.
          3    1    6    6  503    0  0.17432432812E+02 -0.50890688855E+02  0.95946578239E+02  0.10999771726E+03  0.00000000000E+00 0. -1.
         -3    1    6    6    0  503  0.65035450232E+02 -0.64115803544E+02  0.50750145222E+03  0.51565314898E+03  0.00000000000E+00 0.  1.
<mgrwt>
<rscale>  0 0.21192857E+04</rscale>
<asrwt>0</asrwt>
<pdfrwt beam="1">  1        2 0.22957401E+00 0.21192857E+04</pdfrwt>
<pdfrwt beam="2">  1       -1 0.11576296E+00 0.21192857E+04</pdfrwt>
<totfact> 0.90812636E+00</totfact>
</mgrwt>
</event>
<event>
12    6  0.1627636E-007  0.1021853E+04  0.7818608E-02  0.9284897E-01
         -1   -1    0    0    0  501 -0.00000000000E+00  0.00000000000E+00  0.12648712455E+03  0.12648712455E+03  0.00000000000E+00 0.  1.
          2   -1    0    0  501    0  0.00000000000E+00 -0.00000000000E+00 -0.20638126321E+04  0.20638126321E+04  0.00000000000E+00 0. -1.
         24    2    1    2    0    0  0.81972888716E+02 -0.42456707554E+02 -0.30345427862E+03  0.32710893018E+03  0.79960155625E+02 0.  0.
        254    2    1    2    0    0 -0.81972888716E+02  0.42456707554E+02 -0.16338712289E+04  0.18631908264E+04  0.89074280047E+03 0.  0.
         23    2    4    4    0    0  0.35381547134E+03  0.89003680071E+02 -0.39172955298E+03  0.54287172603E+03  0.90280814267E+02 0.  0.
         23    2    4    4    0    0 -0.43578836005E+03 -0.46546972516E+02 -0.12421416759E+04  0.13203191004E+04  0.90821079226E+02 0.  0.
          2    1    3    3  502    0  0.35644403097E+02 -0.47205653167E+01 -0.22821126912E+03  0.23102638499E+03  0.00000000000E+00 0. -1.
         -1    1    3    3    0  502  0.46328485619E+02 -0.37736142238E+02 -0.75243009506E+02  0.96082545190E+02  0.00000000000E+00 0.  1.
         11    1    5    5    0    0  0.25020742081E+03  0.81757042514E+02 -0.32973213445E+03  0.42191379205E+03  0.00000000000E+00 0. -1.
        -11    1    5    5    0    0  0.10360805053E+03  0.72466375567E+01 -0.61997418527E+02  0.12095793399E+03  0.00000000000E+00 0.  1.
          2    1    6    6  503    0 -0.34984406084E+03 -0.73462707839E+02 -0.98466484260E+03  0.10475459363E+04  0.00000000000E+00 0. -1.
         -2    1    6    6    0  503 -0.85944299215E+02  0.26915735322E+02 -0.25747683330E+03  0.27277316412E+03  0.00000000000E+00 0.  1.
<mgrwt>
<rscale>  0 0.10218527E+04</rscale>
<asrwt>0</asrwt>
<pdfrwt beam="1">  1        2 0.31750962E+00 0.10218527E+04</pdfrwt>
<pdfrwt beam="2">  1       -1 0.19459558E-01 0.10218527E+04</pdfrwt>
<totfact> 0.15037355E+02</totfact>
</mgrwt>
</event>
<event>
12    6  0.1627636E-007  0.1478895E+04  0.7818608E-02  0.8898610E-01
          2   -1    0    0  501    0  0.00000000000E+00  0.00000000000E+00  0.75064908884E+03  0.75064908884E+03  0.00000000000E+00 0. -1.
         -1   -1    0    0    0  501 -0.00000000000E+00 -0.00000000000E+00 -0.72841344734E+03  0.72841344734E+03  0.00000000000E+00 0.  1.
         24    2    1    2    0    0  0.97203171408E+02 -0.99572671007E+02  0.44048232144E+03  0.47393649621E+03  0.10596203847E+03 0.  0.
        254    2    1    2    0    0 -0.97203171408E+02  0.99572671007E+02 -0.41824667994E+03  0.10051260400E+04  0.90331882389E+03 0.  0.
         23    2    4    4    0    0 -0.56706764156E+02 -0.39450345201E+03 -0.21859140054E+03  0.46295890678E+03  0.87750317557E+02 0.  0.
         23    2    4    4    0    0 -0.40496407251E+02  0.49407612301E+03 -0.19965527940E+03  0.54216713319E+03  0.91278668831E+02 0.  0.
          2    1    3    3  502    0  0.46140871069E+02 -0.99686300071E+02  0.37581554863E+03  0.39154011927E+03  0.00000000000E+00 0. -1.
         -1    1    3    3    0  502  0.51062300339E+02  0.11362906357E+00  0.64666772803E+02  0.82396376936E+02  0.00000000000E+00 0.  1.
         11    1    5    5    0    0  0.23752021834E+02 -0.10110823953E+03 -0.57405894378E+02  0.11866958900E+03  0.00000000000E+00 0. -1.
        -11    1    5    5    0    0 -0.80458785990E+02 -0.29339521247E+03 -0.16118550616E+03  0.34428931779E+03  0.00000000000E+00 0.  1.
          3    1    6    6  503    0 -0.50250697713E+02  0.16144139482E+03 -0.91519303087E+02  0.19226086295E+03  0.00000000000E+00 0. -1.
         -3    1    6    6    0  503  0.97542904621E+01  0.33263472819E+03 -0.10813597631E+03  0.34990627024E+03  0.00000000000E+00 0.  1.
<mgrwt>
<rscale>  0 0.14788954E+04</rscale>
<asrwt>0</asrwt>
<pdfrwt beam="1">  1        2 0.11548448E+00 0.14788954E+04</pdfrwt>
<pdfrwt beam="2">  1       -1 0.11206361E+00 0.14788954E+04</pdfrwt>
<totfact> 0.30237059E+01</totfact>
</mgrwt>
</event>
<event>
12    6  0.1627636E-007  0.2091582E+04  0.7818608E-02  0.8564961E-01
          2   -1    0    0  501    0  0.00000000000E+00  0.00000000000E+00  0.15397601407E+04  0.15397601407E+04  0.00000000000E+00 0. -1.
         -1   -1    0    0    0  501 -0.00000000000E+00 -0.00000000000E+00 -0.71029134678E+03  0.71029134678E+03  0.00000000000E+00 0.  1.
         24    2    1    2    0    0  0.78350659704E+03 -0.26773722684E+03  0.55335645141E+03  0.99912052753E+03  0.80452818277E+02 0.  0.
        254    2    1    2    0    0 -0.78350659704E+03  0.26773722684E+03  0.27611234255E+03  0.12509309600E+04  0.89611630425E+03 0.  0.
         23    2    4    4    0    0  0.58190696356E+02  0.17280146866E+03  0.34074456512E+03  0.39662261928E+03  0.89197190290E+02 0.  0.
         23    2    4    4    0    0 -0.84169729339E+03  0.94935758184E+02 -0.64632222575E+02  0.85430834072E+03  0.90544381040E+02 0.  0.
          2    1    3    3  502    0  0.70103583952E+03 -0.25507707485E+03  0.51956710284E+03  0.90910149970E+03  0.00000000000E+00 0. -1.
         -1    1    3    3    0  502  0.82470757516E+02 -0.12660151992E+02  0.33789348575E+02  0.90019027827E+02  0.00000000000E+00 0.  1.
         11    1    5    5    0    0 -0.96262654107E+01  0.40708929559E+02  0.27765999948E+02  0.50207894645E+02  0.00000000000E+00 0. -1.
        -11    1    5    5    0    0  0.67816961767E+02  0.13209253910E+03  0.31297856517E+03  0.34641472464E+03  0.00000000000E+00 0.  1.
          1    1    6    6  503    0 -0.60731624286E+03  0.34430670565E+02 -0.23279212913E+02  0.60873673428E+03  0.00000000000E+00 0. -1.
         -1    1    6    6    0  503 -0.23438105054E+03  0.60505087619E+02 -0.41353009662E+02  0.24557160643E+03  0.00000000000E+00 0.  1.
<mgrwt>
<rscale>  0 0.20915815E+04</rscale>
<asrwt>0</asrwt>
<pdfrwt beam="1">  1        2 0.23688617E+00 0.20915815E+04</pdfrwt>
<pdfrwt beam="2">  1       -1 0.10927559E+00 0.20915815E+04</pdfrwt>
<totfact> 0.98176687E+00</totfact>
</mgrwt>
</event>
<event>
12    6  0.1627636E-007  0.1166741E+04  0.7818608E-02  0.9142476E-01
         -1   -1    0    0    0  501 -0.00000000000E+00  0.00000000000E+00  0.37414215764E+03  0.37414215764E+03  0.00000000000E+00 0.  1.
          2   -1    0    0  501    0  0.00000000000E+00 -0.00000000000E+00 -0.90960446927E+03  0.90960446927E+03  0.00000000000E+00 0. -1.
         24    2    1    2    0    0 -0.99373072061E+02  0.19862557485E+03 -0.16579920183E+03  0.28830696786E+03  0.79400289395E+02 0.  0.
        254    2    1    2    0    0  0.99373072061E+02 -0.19862557485E+03 -0.36966310980E+03  0.99543965905E+03  0.89717455026E+03 0.  0.
         23    2    4    4    0    0 -0.15694774834E+03 -0.47256276900E+02  0.24302472268E+03  0.30751440986E+03  0.92942697504E+02 0.  0.
         23    2    4    4    0    0  0.25632082040E+03 -0.15136929795E+03 -0.61268783248E+03  0.68792524919E+03  0.96133974579E+02 0.  0.
          2    1    3    3  502    0 -0.10169919442E+03  0.20465027213E+03 -0.15647133398E+03  0.27696161898E+03  0.00000000000E+00 0. -1.
         -1    1    3    3    0  502  0.23261223591E+01 -0.60246972862E+01 -0.93278678548E+01  0.11345348886E+02  0.00000000000E+00 0.  1.
         11    1    5    5    0    0 -0.23154714113E+02  0.25638965462E+02  0.61336757334E+02  0.70396698331E+02  0.00000000000E+00 0. -1.
        -11    1    5    5    0    0 -0.13379303423E+03 -0.72895242363E+02  0.18168796535E+03  0.23711771153E+03  0.00000000000E+00 0.  1.
          3    1    6    6  503    0  0.25969287925E+03 -0.12860778589E+03 -0.56590254370E+03  0.63578773431E+03  0.00000000000E+00 0. -1.
         -3    1    6    6    0  503 -0.33720588470E+01 -0.22761512061E+02 -0.46785288778E+02  0.52137514884E+02  0.00000000000E+00 0.  1.
<mgrwt>
<rscale>  0 0.11667414E+04</rscale>
<asrwt>0</asrwt>
<pdfrwt beam="1">  1        2 0.13993915E+00 0.11667414E+04</pdfrwt>
<pdfrwt beam="2">  1       -1 0.57560333E-01 0.11667414E+04</pdfrwt>
<totfact> 0.99631212E+01</totfact>
</mgrwt>
</event>
<event>
12    6  0.1627636E-007  0.1466046E+04  0.7818608E-02  0.8907351E-01
          2   -1    0    0  501    0  0.00000000000E+00  0.00000000000E+00  0.54802285016E+03  0.54802285016E+03  0.00000000000E+00 0. -1.
         -1   -1    0    0    0  501 -0.00000000000E+00 -0.00000000000E+00 -0.98047509256E+03  0.98047509256E+03  0.00000000000E+00 0.  1.
         24    2    1    2    0    0  0.22442822395E+02 -0.41089284776E+03  0.65351923561E+02  0.42335805727E+03  0.74997054100E+02 0.  0.
        254    2    1    2    0    0 -0.22442822395E+02  0.41089284776E+03 -0.49780416596E+03  0.11051398854E+04  0.89676561382E+03 0.  0.
         23    2    4    4    0    0  0.17625508976E+03 -0.23037428058E+03 -0.10184609112E+03  0.32042796102E+03  0.90350905401E+02 0.  0.
         23    2    4    4    0    0 -0.19869791215E+03  0.64126712835E+03 -0.39595807484E+03  0.78471192443E+03  0.91025365236E+02 0.  0.
          4    1    3    3  502    0 -0.34423606945E+01 -0.23743551396E+03  0.71129418501E+02  0.24788478637E+03  0.00000000000E+00 0. -1.
         -3    1    3    3    0  502  0.25885183090E+02 -0.17345733380E+03 -0.57774949401E+01  0.17547327090E+03  0.00000000000E+00 0.  1.
         11    1    5    5    0    0  0.10979375217E+03 -0.76636132129E+02 -0.65428155258E+02  0.14902552890E+03  0.00000000000E+00 0.  1.
        -11    1    5    5    0    0  0.66461337586E+02 -0.15373814845E+03 -0.36417935863E+02  0.17140243212E+03  0.00000000000E+00 0. -1.
          3    1    6    6  503    0 -0.13051851141E+03  0.53443425675E+03 -0.33461678263E+03  0.64391260884E+03  0.00000000000E+00 0. -1.
         -3    1    6    6    0  503 -0.68179400744E+02  0.10683287160E+03 -0.61341292207E+02  0.14079931559E+03  0.00000000000E+00 0.  1.
<mgrwt>
<rscale>  0 0.14660460E+04</rscale>
<asrwt>0</asrwt>
<pdfrwt beam="1">  1        2 0.84311207E-01 0.14660460E+04</pdfrwt>
<pdfrwt beam="2">  1       -1 0.15084232E+00 0.14660460E+04</pdfrwt>
<totfact> 0.21037589E+01</totfact>
</mgrwt>
</event>
<event>
12    6  0.1627636E-007  0.2691256E+04  0.7818608E-02  0.8337848E-01
         -1   -1    0    0    0  501 -0.00000000000E+00  0.00000000000E+00  0.15632697015E+04  0.15632697015E+04  0.00000000000E+00 0.  1.
          2   -1    0    0  501    0  0.00000000000E+00 -0.00000000000E+00 -0.11582870275E+04  0.11582870275E+04  0.00000000000E+00 0. -1.
         24    2    1    2    0    0 -0.55613541016E+03 -0.15206076567E+03  0.12362804588E+04  0.13664296965E+04  0.79571802521E+02 0.  0.
        254    2    1    2    0    0  0.55613541016E+03  0.15206076567E+03 -0.83129778482E+03  0.13551270325E+04  0.90161199867E+03 0.  0.
         23    2    4    4    0    0  0.79484521327E+03  0.14079024111E+03 -0.66877043359E+03  0.10519941442E+04  0.88526727880E+02 0.  0.
         23    2    4    4    0    0 -0.23870980311E+03  0.11270524559E+02 -0.16252735123E+03  0.30313288825E+03  0.91460446184E+02 0.  0.
          2    1    3    3  502    0 -0.62503528012E+02 -0.40656207803E+02  0.19281623950E+03  0.20673103410E+03  0.00000000000E+00 0. -1.
         -3    1    3    3    0  502 -0.49363188215E+03 -0.11140455786E+03  0.10434642193E+04  0.11596986624E+04  0.00000000000E+00 0.  1.
         11    1    5    5    0    0  0.40830078464E+03  0.11672038636E+03 -0.34119548562E+03  0.54474538891E+03  0.00000000000E+00 0. -1.
        -11    1    5    5    0    0  0.38654442863E+03  0.24069854745E+02 -0.32757494797E+03  0.50724875530E+03  0.00000000000E+00 0.  1.
          4    1    6    6  503    0 -0.85258084220E+02 -0.39877679887E+02 -0.60694998123E+02  0.11199577258E+03  0.00000000000E+00 0. -1.
         -4    1    6    6    0  503 -0.15345171889E+03  0.51148204446E+02 -0.10183235310E+03  0.19113711567E+03  0.00000000000E+00 0.  1.
<mgrwt>
<rscale>  0 0.26912562E+04</rscale>
<asrwt>0</asrwt>
<pdfrwt beam="1">  1        2 0.17819800E+00 0.26912562E+04</pdfrwt>
<pdfrwt beam="2">  1       -1 0.24050303E+00 0.26912562E+04</pdfrwt>
<totfact> 0.16154115E+00</totfact>
</mgrwt>
</event>
<event>
12    6  0.1627636E-007  0.1232809E+04  0.7818608E-02  0.9084614E-01
         -1   -1    0    0    0  501 -0.00000000000E+00  0.00000000000E+00  0.35388234796E+03  0.35388234796E+03  0.00000000000E+00 0.  1.
          2   -1    0    0  501    0  0.00000000000E+00 -0.00000000000E+00 -0.10736746152E+04  0.10736746152E+04  0.00000000000E+00 0. -1.
         24    2    1    2    0    0  0.54155218674E+02  0.14218688612E+03  0.10168297207E+03  0.19930606906E+03  0.78953049730E+02 0.  0.
        254    2    1    2    0    0 -0.54155218674E+02 -0.14218688612E+03 -0.82147523932E+03  0.12282508941E+04  0.90034926101E+03 0.  0.
         23    2    4    4    0    0 -0.25176483109E+03 -0.37452621408E+03 -0.15086962818E+03  0.48573778199E+03  0.97591664287E+02 0.  0.
         23    2    4    4    0    0  0.19760961241E+03  0.23233932796E+03 -0.67060561114E+03  0.74251311214E+03  0.92642936917E+02 0.  0.
          2    1    3    3  502    0  0.36137375249E+02  0.93423049249E+01  0.20621960688E+02  0.42643332583E+02  0.00000000000E+00 0. -1.
         -1    1    3    3    0  502  0.18017843426E+02  0.13284458120E+03  0.81061011379E+02  0.15666273648E+03  0.00000000000E+00 0.  1.
         11    1    5    5    0    0 -0.33332120462E+02 -0.12729529417E+02  0.33939811095E+01  0.35841181362E+02  0.00000000000E+00 0. -1.
        -11    1    5    5    0    0 -0.21843271063E+03 -0.36179668466E+03 -0.15426360929E+03  0.44989660063E+03  0.00000000000E+00 0.  1.
          1    1    6    6  503    0 -0.70632727872E+01  0.29957718859E+02 -0.71881044527E+02  0.78193601426E+02  0.00000000000E+00 0. -1.
         -1    1    6    6    0  503  0.20467288520E+03  0.20238160910E+03 -0.59872456662E+03  0.66431951071E+03  0.00000000000E+00 0.  1.
<mgrwt>
<rscale>  0 0.12328090E+04</rscale>
<asrwt>0</asrwt>
<pdfrwt beam="1">  1        2 0.16518071E+00 0.12328090E+04</pdfrwt>
<pdfrwt beam="2">  1       -1 0.54443438E-01 0.12328090E+04</pdfrwt>
<totfact> 0.86551613E+01</totfact>
</mgrwt>
</event>
<event>
12    6  0.1627636E-007  0.1084378E+04  0.7818608E-02  0.9220553E-01
          2   -1    0    0  501    0  0.00000000000E+00  0.00000000000E+00  0.49750057720E+04  0.49750057720E+04  0.00000000000E+00 0. -1.
         -1   -1    0    0    0  501 -0.00000000000E+00 -0.00000000000E+00 -0.59089181855E+02  0.59089181855E+02  0.00000000000E+00 0.  1.
         24    2    1    2    0    0  0.13689926604E+03 -0.47518170276E+02  0.12096233129E+04  0.12208507682E+04  0.79301031413E+02 0.  0.
        254    2    1    2    0    0 -0.13689926604E+03  0.47518170276E+02  0.37062932772E+04  0.38132441856E+04  0.88499829199E+03 0.  0.
         23    2    4    4    0    0 -0.39049718171E+03  0.70371016407E+02  0.83951174342E+03  0.93375247196E+03  0.98354373001E+02 0.  0.
         23    2    4    4    0    0  0.25359791568E+03 -0.22852846131E+02  0.28667815338E+04  0.28794917136E+04  0.90564954777E+02 0.  0.
          4    1    3    3  502    0  0.75082148650E+02  0.15247544529E+02  0.60929915515E+03  0.61409712353E+03  0.00000000000E+00 0. -1.
         -3    1    3    3    0  502  0.61817117387E+02 -0.62765714805E+02  0.60032415777E+03  0.60675364470E+03  0.00000000000E+00 0.  1.
         11    1    5    5    0    0 -0.31040915679E+03  0.46316722030E+02  0.55941157493E+03  0.64143619598E+03  0.00000000000E+00 0.  1.
        -11    1    5    5    0    0 -0.80088024926E+02  0.24054294377E+02  0.28010016849E+03  0.29231627598E+03  0.00000000000E+00 0. -1.
          4    1    6    6  503    0  0.82600262521E+02 -0.46623800003E+02  0.82846161018E+03  0.83387362450E+03  0.00000000000E+00 0. -1.
         -4    1    6    6    0  503  0.17099765316E+03  0.23770953872E+02  0.20383199236E+04  0.20456180891E+04  0.00000000000E+00 0.  1.
<mgrwt>
<rscale>  0 0.10843782E+04</rscale>
<asrwt>0</asrwt>
<pdfrwt beam="1">  1        2 0.76538518E+00 0.10843782E+04</pdfrwt>
<pdfrwt beam="2">  1       -1 0.90906473E-02 0.10843782E+04</pdfrwt>
<totfact> 0.33612005E+00</totfact>
</mgrwt>
</event>
<event>
12    6  0.1627636E-007  0.1522605E+04  0.7818608E-02  0.8869559E-01
         -3   -1    0    0    0  501 -0.00000000000E+00  0.00000000000E+00  0.14483532101E+04  0.14483532101E+04  0.00000000000E+00 0.  1.
          4   -1    0    0  501    0  0.00000000000E+00 -0.00000000000E+00 -0.40016559697E+03  0.40016559697E+03  0.00000000000E+00 0. -1.
         24    2    1    2    0    0  0.26959958840E+03 -0.37833207690E+03  0.15173266004E+03  0.49523813587E+03  0.80118116692E+02 0.  0.
        254    2    1    2    0    0 -0.26959958840E+03  0.37833207690E+03  0.89645495309E+03  0.13532806712E+04  0.90106492198E+03 0.  0.
         23    2    4    4    0    0  0.29656992563E+03  0.34095127438E+02  0.45531954219E+03  0.55216303674E+03  0.91934406699E+02 0.  0.
         23    2    4    4    0    0 -0.56616951403E+03  0.34423694946E+03  0.44113541090E+03  0.80111763446E+03  0.90233128596E+02 0.  0.
          4    1    3    3  502    0  0.17521524613E+03 -0.21133208221E+03  0.12470200163E+03  0.30151653464E+03  0.00000000000E+00 0. -1.
         -3    1    3    3    0  502  0.94384342267E+02 -0.16699999468E+03  0.27030658409E+02  0.19372160123E+03  0.00000000000E+00 0.  1.
         11    1    5    5    0    0  0.25829774442E+03  0.51717205700E+02  0.42586998510E+03  0.50075706520E+03  0.00000000000E+00 0. -1.
        -11    1    5    5    0    0  0.38272181210E+02 -0.17622078262E+02  0.29449557088E+02  0.51405971535E+02  0.00000000000E+00 0.  1.
          3    1    6    6  503    0 -0.53778674583E+03  0.30522350135E+03  0.39139886906E+03  0.73182582933E+03  0.00000000000E+00 0. -1.
         -3    1    6    6    0  503 -0.28382768200E+02  0.39013448105E+02  0.49736541841E+02  0.69291805129E+02  0.00000000000E+00 0.  1.
<mgrwt>
<rscale>  0 0.15226045E+04</rscale>
<asrwt>0</asrwt>
<pdfrwt beam="1">  1        4 0.61563938E-01 0.15226045E+04</pdfrwt>
<pdfrwt beam="2">  1       -3 0.22282357E+00 0.15226045E+04</pdfrwt>
<totfact> 0.58043731E-01</totfact>
</mgrwt>
</event>
<event>
12    6  0.1627636E-007  0.1373221E+04  0.7818608E-02  0.8973434E-01
          2   -1    0    0  501    0  0.00000000000E+00  0.00000000000E+00  0.23226542891E+04  0.23226542891E+04  0.00000000000E+00 0. -1.
         -1   -1    0    0    0  501 -0.00000000000E+00 -0.00000000000E+00 -0.20297219186E+03  0.20297219186E+03  0.00000000000E+00 0.  1.
         24    2    1    2    0    0 -0.12628554472E+03  0.32751829178E+03  0.88572647683E+03  0.95618674294E+03  0.81027312445E+02 0.  0.
        254    2    1    2    0    0  0.12628554472E+03 -0.32751829178E+03  0.12339556205E+04  0.15694397381E+04  0.90403448380E+03 0.  0.
         23    2    4    4    0    0  0.25097950613E+03 -0.27000378184E+03  0.59691368556E+02  0.38359391530E+03  0.87683964731E+02 0.  0.
         23    2    4    4    0    0 -0.12469396140E+03 -0.57514509937E+02  0.11742642519E+04  0.11858458228E+04  0.92072141317E+02 0.  0.
          2    1    3    3  502    0 -0.80115326132E+02  0.17222221772E+03  0.57809674740E+03  0.60850210116E+03  0.00000000000E+00 0. -1.
         -1    1    3    3    0  502 -0.46170218591E+02  0.15529607406E+03  0.30762972943E+03  0.34768464179E+03  0.00000000000E+00 0.  1.
         11    1    5    5    0    0  0.12216260248E+03 -0.15175458725E+03  0.73425991444E+02  0.20819349754E+03  0.00000000000E+00 0.  1.
        -11    1    5    5    0    0  0.12881690365E+03 -0.11824919459E+03 -0.13734622888E+02  0.17540041776E+03  0.00000000000E+00 0. -1.
          3    1    6    6  503    0 -0.42094702038E+02 -0.10094155720E+02  0.12530510913E+03  0.13257158931E+03  0.00000000000E+00 0. -1.
         -3    1    6    6    0  503 -0.82599259367E+02 -0.47420354217E+02  0.10489591428E+04  0.10532742334E+04  0.00000000000E+00 0.  1.
<mgrwt>
<rscale>  0 0.13732214E+04</rscale>
<asrwt>0</asrwt>
<pdfrwt beam="1">  1        2 0.35733141E+00 0.13732214E+04</pdfrwt>
<pdfrwt beam="2">  1       -1 0.31226493E-01 0.13732214E+04</pdfrwt>
<totfact> 0.46595244E+01</totfact>
</mgrwt>
</event>
<event>
12    6  0.1627636E-007  0.2935095E+04  0.7818608E-02  0.8262512E-01
          2   -1    0    0  501    0  0.00000000000E+00  0.00000000000E+00  0.22542318062E+04  0.22542318062E+04  0.00000000000E+00 0. -1.
         -1   -1    0    0    0  501 -0.00000000000E+00 -0.00000000000E+00 -0.95540135193E+03  0.95540135193E+03  0.00000000000E+00 0.  1.
         24    2    1    2    0    0 -0.74199865236E+02  0.10124562449E+04  0.15236202973E+04  0.18325479501E+04  0.78993109133E+02 0.  0.
        254    2    1    2    0    0  0.74199865236E+02 -0.10124562449E+04 -0.22478984300E+03  0.13770852080E+04  0.90291745408E+03 0.  0.
         23    2    4    4    0    0 -0.37444424414E+03 -0.40287271839E+03  0.65642964668E+02  0.56111649014E+03  0.89597977106E+02 0.  0.
         23    2    4    4    0    0  0.44864410937E+03 -0.60958352650E+03 -0.29043280767E+03  0.81596871791E+03  0.92628938136E+02 0.  0.
          4    1    3    3  502    0 -0.53393252176E+02  0.66959482222E+03  0.93980844032E+03  0.11551830893E+04  0.00000000000E+00 0. -1.
         -3    1    3    3    0  502 -0.20806613060E+02  0.34286142267E+03  0.58381185697E+03  0.67736486079E+03  0.00000000000E+00 0.  1.
         11    1    5    5    0    0 -0.28642076785E+03 -0.27780818076E+03  0.81848729687E+02  0.40732475508E+03  0.00000000000E+00 0. -1.
        -11    1    5    5    0    0 -0.88023476289E+02 -0.12506453763E+03 -0.16205765019E+02  0.15379173506E+03  0.00000000000E+00 0.  1.
          4    1    6    6  503    0  0.43748632524E+03 -0.57277147138E+03 -0.29158593370E+03  0.77748556252E+03  0.00000000000E+00 0. -1.
         -4    1    6    6    0  503  0.11157784135E+02 -0.36812055122E+02  0.11531260299E+01  0.38483155390E+02  0.00000000000E+00 0.  1.
<mgrwt>
<rscale>  0 0.29350953E+04</rscale>
<asrwt>0</asrwt>
<pdfrwt beam="1">  1        2 0.34680489E+00 0.29350953E+04</pdfrwt>
<pdfrwt beam="2">  1       -1 0.14698482E+00 0.29350953E+04</pdfrwt>
<totfact> 0.17350373E+00</totfact>
</mgrwt>
</event>
<event>
12    6  0.1627636E-007  0.1601587E+04  0.7818608E-02  0.8819574E-01
          2   -1    0    0  501    0  0.00000000000E+00  0.00000000000E+00  0.27955149458E+04  0.27955149458E+04  0.00000000000E+00 0. -1.
         -1   -1    0    0    0  501 -0.00000000000E+00 -0.00000000000E+00 -0.22939244242E+03  0.22939244242E+03  0.00000000000E+00 0.  1.
         24    2    1    2    0    0  0.38097389116E+03  0.88294484745E+02  0.15937318507E+04  0.16428049152E+04  0.76744744204E+02 0.  0.
        254    2    1    2    0    0 -0.38097389116E+03 -0.88294484745E+02  0.97239065269E+03  0.13821024730E+04  0.90095873529E+03 0.  0.
         23    2    4    4    0    0  0.17245098171E+03 -0.67159476919E+02  0.75116047447E+03  0.77883644082E+03  0.89968920783E+02 0.  0.
         23    2    4    4    0    0 -0.55342487287E+03 -0.21135007826E+02  0.22123017822E+03  0.60326603219E+03  0.90891888396E+02 0.  0.
          4    1    3    3  502    0  0.33876206545E+03  0.98121632538E+02  0.13535593402E+04  0.13987531873E+04  0.00000000000E+00 0. -1.
         -3    1    3    3    0  502  0.42211825705E+02 -0.98271477933E+01  0.24017251051E+03  0.24405172785E+03  0.00000000000E+00 0.  1.
         11    1    5    5    0    0  0.27176648356E+02 -0.11600570725E+02  0.30331652813E+03  0.30475245642E+03  0.00000000000E+00 0.  1.
        -11    1    5    5    0    0  0.14527433336E+03 -0.55558906194E+02  0.44784394634E+03  0.47408398440E+03  0.00000000000E+00 0. -1.
          2    1    6    6  503    0 -0.29588325588E+02 -0.83886061597E-01  0.37448573125E+02  0.47727053933E+02  0.00000000000E+00 0. -1.
         -2    1    6    6    0  503 -0.52383654728E+03 -0.21051121764E+02  0.18378160509E+03  0.55553897826E+03  0.00000000000E+00 0.  1.
<mgrwt>
<rscale>  0 0.16015867E+04</rscale>
<asrwt>0</asrwt>
<pdfrwt beam="1">  1        2 0.43007920E+00 0.16015867E+04</pdfrwt>
<pdfrwt beam="2">  1       -1 0.35291147E-01 0.16015867E+04</pdfrwt>
<totfact> 0.19504034E+01</totfact>
</mgrwt>
</event>
<event>
12    6  0.1627636E-007  0.1160768E+04  0.7818608E-02  0.9147907E-01
         -1   -1    0    0    0  501 -0.00000000000E+00  0.00000000000E+00  0.41941844608E+03  0.41941844608E+03  0.00000000000E+00 0.  1.
          2   -1    0    0  501    0  0.00000000000E+00 -0.00000000000E+00 -0.80312483644E+03  0.80312483644E+03  0.00000000000E+00 0. -1.
         24    2    1    2    0    0 -0.47272726863E+02  0.94049104951E+02 -0.28567033446E+03  0.31390037793E+03  0.76458893688E+02 0.  0.
        254    2    1    2    0    0  0.47272726863E+02 -0.94049104951E+02 -0.98036055896E+02  0.90864290459E+03  0.89718499484E+03 0.  0.
         23    2    4    4    0    0  0.23557115968E+02  0.11817878646E+03  0.36257126162E+03  0.39279003229E+03  0.91131369078E+02 0.  0.
         23    2    4    4    0    0  0.23715610894E+02 -0.21222789141E+03 -0.46060731752E+03  0.51585287230E+03  0.91334422973E+02 0.  0.
          4    1    3    3  502    0 -0.27550301504E+02  0.36445190321E+02 -0.21856801174E+03  0.22329184214E+03  0.00000000000E+00 0. -1.
         -3    1    3    3    0  502 -0.19722425359E+02  0.57603914630E+02 -0.67102322723E+02  0.90608535788E+02  0.00000000000E+00 0.  1.
         11    1    5    5    0    0  0.34080557941E+01  0.12765538863E+03  0.28979859375E+03  0.31668712956E+03  0.00000000000E+00 0. -1.
        -11    1    5    5    0    0  0.20149060174E+02 -0.94766021681E+01  0.72772667873E+02  0.76102902730E+02  0.00000000000E+00 0.  1.
          1    1    6    6  503    0 -0.34624970528E+02 -0.93084149143E+02 -0.20991544320E+03  0.23222411739E+03  0.00000000000E+00 0. -1.
         -1    1    6    6    0  503  0.58340581422E+02 -0.11914374227E+03 -0.25069187432E+03  0.28362875491E+03  0.00000000000E+00 0.  1.
<mgrwt>
<rscale>  0 0.11607676E+04</rscale>
<asrwt>0</asrwt>
<pdfrwt beam="1">  1        2 0.12355767E+00 0.11607676E+04</pdfrwt>
<pdfrwt beam="2">  1       -1 0.64525916E-01 0.11607676E+04</pdfrwt>
<totfact> 0.94260026E+01</totfact>
</mgrwt>
</event>
<event>
12    6  0.1627636E-007  0.1285809E+04  0.7818608E-02  0.9040895E-01
          2   -1    0    0  501    0  0.00000000000E+00  0.00000000000E+00  0.36068111517E+03  0.36068111517E+03  0.00000000000E+00 0. -1.
         -1   -1    0    0    0  501 -0.00000000000E+00 -0.00000000000E+00 -0.11459593079E+04  0.11459593079E+04  0.00000000000E+00 0.  1.
         24    2    1    2    0    0 -0.12720075035E+03  0.29150569099E+01 -0.54536107375E+03  0.56587696373E+03  0.81298886024E+02 0.  0.
        254    2    1    2    0    0  0.12720075035E+03 -0.29150569099E+01 -0.23991711898E+03  0.94076345935E+03  0.90071479061E+03 0.  0.
         23    2    4    4    0    0  0.31302325799E+02 -0.18633542670E+03  0.29280935795E+03  0.36235363280E+03  0.99308147993E+02 0.  0.
         23    2    4    4    0    0  0.95898424547E+02  0.18342036979E+03 -0.53272647694E+03  0.57840982655E+03  0.88999372675E+02 0.  0.
          2    1    3    3  502    0  0.22928790990E+01  0.11052452168E+01 -0.14641339634E+03  0.14643551990E+03  0.00000000000E+00 0. -1.
         -1    1    3    3    0  502 -0.12949362945E+03  0.18098116930E+01 -0.39894767741E+03  0.41944144382E+03  0.00000000000E+00 0.  1.
         11    1    5    5    0    0  0.37834644110E+02 -0.22317932093E+02  0.99426729509E+02  0.10869786074E+03  0.00000000000E+00 0.  1.
        -11    1    5    5    0    0 -0.65323183109E+01 -0.16401749460E+03  0.19338262844E+03  0.25365577206E+03  0.00000000000E+00 0. -1.
          1    1    6    6  503    0  0.77086573969E+02  0.19023355419E+03 -0.48246807553E+03  0.52431535256E+03  0.00000000000E+00 0. -1.
         -1    1    6    6    0  503  0.18811850578E+02 -0.68131844073E+01 -0.50258401408E+02  0.54094473988E+02  0.00000000000E+00 0.  1.
<mgrwt>
<rscale>  0 0.12858085E+04</rscale>
<asrwt>0</asrwt>
<pdfrwt beam="1">  1        2 0.55489401E-01 0.12858085E+04</pdfrwt>
<pdfrwt beam="2">  1       -1 0.17630144E+00 0.12858085E+04</pdfrwt>
<totfact> 0.22208674E+01</totfact>
</mgrwt>
</event>
<event>
12    6  0.1627636E-007  0.3601585E+04  0.7818608E-02  0.8090129E-01
          2   -1    0    0  501    0  0.00000000000E+00  0.00000000000E+00  0.24554287479E+04  0.24554287479E+04  0.00000000000E+00 0. -1.
         -1   -1    0    0    0  501 -0.00000000000E+00 -0.00000000000E+00 -0.13206875932E+04  0.13206875932E+04  0.00000000000E+00 0.  1.
         24    2    1    2    0    0  0.15310043039E+04  0.64865411118E+03  0.82952074796E+03  0.18598641897E+04  0.79144162125E+02 0.  0.
        254    2    1    2    0    0 -0.15310043039E+04 -0.64865411118E+03  0.30522040677E+03  0.19162521514E+04  0.90229511619E+03 0.  0.
         23    2    4    4    0    0 -0.22259841219E+03  0.12374018095E+03 -0.17125870678E+03  0.32127014959E+03  0.94990941052E+02 0.  0.
         23    2    4    4    0    0 -0.13084058917E+04 -0.77239429212E+03  0.47647911355E+03  0.15949820018E+04  0.91740506972E+02 0.  0.
          4    1    3    3  502    0  0.10345675981E+04  0.47808259262E+03  0.57176228621E+03  0.12750706617E+04  0.00000000000E+00 0. -1.
         -3    1    3    3    0  502  0.49643670573E+03  0.17057151856E+03  0.25775846175E+03  0.58479352796E+03  0.00000000000E+00 0.  1.
         11    1    5    5    0    0 -0.73133095481E+02  0.89826802890E+02 -0.96408865645E+02  0.15070492211E+03  0.00000000000E+00 0. -1.
        -11    1    5    5    0    0 -0.14946531671E+03  0.33913378056E+02 -0.74849841132E+02  0.17056522748E+03  0.00000000000E+00 0.  1.
          3    1    6    6  503    0 -0.47504343030E+03 -0.27187338258E+03  0.12636826432E+03  0.56173867150E+03  0.00000000000E+00 0. -1.
         -3    1    6    6    0  503 -0.83336246137E+03 -0.50052090955E+03  0.35011084923E+03  0.10332433303E+04  0.00000000000E+00 0.  1.
<mgrwt>
<rscale>  0 0.36015854E+04</rscale>
<asrwt>0</asrwt>
<pdfrwt beam="1">  1        2 0.37775827E+00 0.36015854E+04</pdfrwt>
<pdfrwt beam="2">  1       -1 0.20318271E+00 0.36015854E+04</pdfrwt>
<totfact> 0.48956052E-01</totfact>
</mgrwt>
</event>
<event>
12    6  0.1627636E-007  0.1780072E+04  0.7818608E-02  0.8716969E-01
         -1   -1    0    0    0  501 -0.00000000000E+00  0.00000000000E+00  0.93688888753E+03  0.93688888753E+03  0.00000000000E+00 0.  1.
          2   -1    0    0  501    0  0.00000000000E+00 -0.00000000000E+00 -0.84552646967E+03  0.84552646967E+03  0.00000000000E+00 0. -1.
         24    2    1    2    0    0  0.42536285288E+03  0.35448137087E+03  0.42476701121E+03  0.70245804590E+03  0.80185369845E+02 0.  0.
        254    2    1    2    0    0 -0.42536285288E+03 -0.35448137087E+03 -0.33340459335E+03  0.10799573113E+04  0.86519279496E+03 0.  0.
         23    2    4    4    0    0 -0.57344404746E+03 -0.20300614582E+03  0.67569699901E+02  0.61910335430E+03  0.93132852145E+02 0.  0.
         23    2    4    4    0    0  0.14808119458E+03 -0.15147522505E+03 -0.40097429325E+03  0.46085395700E+03  0.82056089577E+02 0.  0.
          2    1    3    3  502    0  0.12742604824E+03  0.12237810745E+03  0.92483203345E+02  0.19941650347E+03  0.00000000000E+00 0. -1.
         -1    1    3    3    0  502  0.29793680464E+03  0.23210326342E+03  0.33228380786E+03  0.50304154244E+03  0.00000000000E+00 0.  1.
         11    1    5    5    0    0 -0.28419589247E+03 -0.14987185457E+03  0.38036725452E+02  0.32353619670E+03  0.00000000000E+00 0.  1.
        -11    1    5    5    0    0 -0.28924815499E+03 -0.53134291245E+02  0.29532974449E+02  0.29556715760E+03  0.00000000000E+00 0. -1.
          1    1    6    6  503    0  0.59255430014E+02 -0.10266647019E+03 -0.15747767758E+03  0.19710613644E+03  0.00000000000E+00 0. -1.
         -1    1    6    6    0  503  0.88825764568E+02 -0.48808754860E+02 -0.24349661568E+03  0.26374782055E+03  0.00000000000E+00 0.  1.
<mgrwt>
<rscale>  0 0.17800723E+04</rscale>
<asrwt>0</asrwt>
<pdfrwt beam="1">  1        2 0.13008100E+00 0.17800723E+04</pdfrwt>
<pdfrwt beam="2">  1       -1 0.14413675E+00 0.17800723E+04</pdfrwt>
<totfact> 0.13394284E+01</totfact>
</mgrwt>
</event>
<event>
12    6  0.1627636E-007  0.1907375E+04  0.7818608E-02  0.8651194E-01
          2   -1    0    0  501    0  0.00000000000E+00  0.00000000000E+00  0.22038125776E+04  0.22038125776E+04  0.00000000000E+00 0. -1.
         -1   -1    0    0    0  501 -0.00000000000E+00 -0.00000000000E+00 -0.41270281069E+03  0.41270281069E+03  0.00000000000E+00 0.  1.
         24    2    1    2    0    0  0.23416375418E+03 -0.43945118782E+03  0.14442831887E+04  0.15298078492E+04  0.80050709253E+02 0.  0.
        254    2    1    2    0    0 -0.23416375418E+03  0.43945118782E+03  0.34682657821E+03  0.10867075391E+04  0.90149575146E+03 0.  0.
         23    2    4    4    0    0  0.26013025531E+03  0.37695892506E+03 -0.11029074305E+02  0.46672835345E+03  0.89151189091E+02 0.  0.
         23    2    4    4    0    0 -0.49429400950E+03  0.62492262763E+02  0.35785565252E+03  0.61997918565E+03  0.89898119357E+02 0.  0.
          4    1    3    3  502    0  0.23747765368E+03 -0.43948117491E+03  0.14410542715E+04  0.15251808918E+04  0.00000000000E+00 0. -1.
         -3    1    3    3    0  502 -0.33138994942E+01  0.29987088249E-01  0.32289171945E+01  0.46269574595E+01  0.00000000000E+00 0.  1.
         11    1    5    5    0    0  0.20153048991E+02  0.13015885963E+01 -0.54891614916E+01  0.20927742601E+02  0.00000000000E+00 0. -1.
        -11    1    5    5    0    0  0.23997720632E+03  0.37565733647E+03 -0.55399128133E+01  0.44580061084E+03  0.00000000000E+00 0.  1.
          3    1    6    6  503    0 -0.11694277497E+03  0.47047390819E+02  0.63459269661E+02  0.14112458505E+03  0.00000000000E+00 0. -1.
         -3    1    6    6    0  503 -0.37735123453E+03  0.15444871944E+02  0.29439638286E+03  0.47885460059E+03  0.00000000000E+00 0.  1.
<mgrwt>
<rscale>  0 0.19073748E+04</rscale>
<asrwt>0</asrwt>
<pdfrwt beam="1">  1        2 0.33904808E+00 0.19073748E+04</pdfrwt>
<pdfrwt beam="2">  1       -1 0.63492742E-01 0.19073748E+04</pdfrwt>
<totfact> 0.13778742E+01</totfact>
</mgrwt>
</event>
<event>
12    6  0.1627636E-007  0.1402807E+04  0.7818608E-02  0.8951789E-01
         -1   -1    0    0    0  501 -0.00000000000E+00  0.00000000000E+00  0.19968773744E+04  0.19968773744E+04  0.00000000000E+00 0.  1.
          2   -1    0    0  501    0  0.00000000000E+00 -0.00000000000E+00 -0.24636806240E+03  0.24636806240E+03  0.00000000000E+00 0. -1.
         24    2    1    2    0    0 -0.37003233107E+02 -0.13427441703E+03 -0.94537277375E+02  0.18551010350E+03  0.77960524358E+02 0.  0.
        254    2    1    2    0    0  0.37003233107E+02  0.13427441703E+03  0.18450465894E+04  0.20577353333E+04  0.90037710244E+03 0.  0.
         23    2    4    4    0    0 -0.23905439754E+03  0.39295745396E+01  0.86393368612E+02  0.27043471944E+03  0.92242489115E+02 0.  0.
         23    2    4    4    0    0  0.27605763065E+03  0.13034484249E+03  0.17586532208E+04  0.17873006139E+04  0.91568225793E+02 0.  0.
          4    1    3    3  502    0 -0.45678085254E+02 -0.13110275775E+03 -0.62652889104E+02  0.15231482224E+03  0.00000000000E+00 0. -1.
         -3    1    3    3    0  502  0.86748521462E+01 -0.31716592811E+01 -0.31884388271E+02  0.33195281258E+02  0.00000000000E+00 0.  1.
         11    1    5    5    0    0 -0.16884629337E+03  0.34752858214E+02  0.29348696056E+02  0.17486617140E+03  0.00000000000E+00 0.  1.
        -11    1    5    5    0    0 -0.70208104168E+02 -0.30823283674E+02  0.57044672556E+02  0.95568548039E+02  0.00000000000E+00 0. -1.
          3    1    6    6  503    0  0.16425647028E+03  0.12476029132E+03  0.10906767511E+04  0.11100095016E+04  0.00000000000E+00 0. -1.
         -3    1    6    6    0  503  0.11180116037E+03  0.55845511677E+01  0.66797646972E+03  0.67729111228E+03  0.00000000000E+00 0.  1.
<mgrwt>
<rscale>  0 0.14028069E+04</rscale>
<asrwt>0</asrwt>
<pdfrwt beam="1">  1        2 0.37902780E-01 0.14028069E+04</pdfrwt>
<pdfrwt beam="2">  1       -1 0.30721189E+00 0.14028069E+04</pdfrwt>
<totfact> 0.45415541E+00</totfact>
</mgrwt>
</event>
<event>
12    6  0.1627636E-007  0.1302081E+04  0.7818608E-02  0.9027917E-01
          2   -1    0    0  501    0  0.00000000000E+00  0.00000000000E+00  0.12032764821E+04  0.12032764821E+04  0.00000000000E+00 0. -1.
         -1   -1    0    0    0  501 -0.00000000000E+00 -0.00000000000E+00 -0.35224952003E+03  0.35224952003E+03  0.00000000000E+00 0.  1.
         24    2    1    2    0    0 -0.45258664426E+02  0.23463204677E+03  0.50062793011E+03  0.56040931040E+03  0.79559579564E+02 0.  0.
        254    2    1    2    0    0  0.45258664426E+02 -0.23463204677E+03  0.35039903194E+03  0.99511669170E+03  0.90020953363E+03 0.  0.
         23    2    4    4    0    0 -0.20503127823E+03  0.25226215174E+03 -0.18437553506E+01  0.33777861547E+03  0.91744075465E+02 0.  0.
         23    2    4    4    0    0  0.25028994265E+03 -0.48689419851E+03  0.35224278729E+03  0.65733807623E+03  0.91144661538E+02 0.  0.
          4    1    3    3  502    0  0.70501518486E+01  0.78067243407E+02  0.23439532720E+03  0.24715454386E+03  0.00000000000E+00 0. -1.
         -3    1    3    3    0  502 -0.52308816274E+02  0.15656480336E+03  0.26623260291E+03  0.31325476654E+03  0.00000000000E+00 0.  1.
         11    1    5    5    0    0 -0.41550917039E+02  0.23347316689E+02 -0.27985327740E+02  0.55269833292E+02  0.00000000000E+00 0.  1.
        -11    1    5    5    0    0 -0.16348036119E+03  0.22891483506E+03  0.26141572390E+02  0.28250878218E+03  0.00000000000E+00 0. -1.
          4    1    6    6  503    0  0.17753717237E+03 -0.24706288984E+03  0.18592117012E+03  0.35654761338E+03  0.00000000000E+00 0. -1.
         -4    1    6    6    0  503  0.72752770283E+02 -0.23983130867E+03  0.16632161717E+03  0.30079046285E+03  0.00000000000E+00 0.  1.
<mgrwt>
<rscale>  0 0.13020807E+04</rscale>
<asrwt>0</asrwt>
<pdfrwt beam="1">  1        2 0.18511946E+00 0.13020807E+04</pdfrwt>
<pdfrwt beam="2">  1       -1 0.54192234E-01 0.13020807E+04</pdfrwt>
<totfact> 0.72430278E+01</totfact>
</mgrwt>
</event>
<event>
12    6  0.1627636E-007  0.2131084E+04  0.7818608E-02  0.8547673E-01
          2   -1    0    0  501    0  0.00000000000E+00  0.00000000000E+00  0.21920059878E+04  0.21920059878E+04  0.00000000000E+00 0. -1.
         -1   -1    0    0    0  501 -0.00000000000E+00 -0.00000000000E+00 -0.51796364601E+03  0.51796364601E+03  0.00000000000E+00 0.  1.
         24    2    1    2    0    0  0.35341733970E+03 -0.74896646125E+03  0.10474111247E+04  0.13375457817E+04  0.78128598094E+02 0.  0.
        254    2    1    2    0    0 -0.35341733970E+03  0.74896646125E+03  0.62663121702E+03  0.13724238521E+04  0.89723239551E+03 0.  0.
         23    2    4    4    0    0  0.12493718561E+03  0.50954241786E+03  0.63631691058E+03  0.82970085780E+03  0.90892941420E+02 0.  0.
         23    2    4    4    0    0 -0.47835452531E+03  0.23942404339E+03 -0.96856935513E+01  0.54272299429E+03  0.91145550845E+02 0.  0.
          4    1    3    3  502    0  0.16173742809E+03 -0.32413823163E+03  0.51961830449E+03  0.63342542671E+03  0.00000000000E+00 0. -1.
         -3    1    3    3    0  502  0.19167991160E+03 -0.42482822963E+03  0.52779282025E+03  0.70412035499E+03  0.00000000000E+00 0.  1.
         11    1    5    5    0    0  0.82893520156E+02  0.22610584306E+03  0.23408117582E+03  0.33584101123E+03  0.00000000000E+00 0.  1.
        -11    1    5    5    0    0  0.42043665453E+02  0.28343657479E+03  0.40223573475E+03  0.49385984656E+03  0.00000000000E+00 0. -1.
          2    1    6    6  503    0 -0.23623211201E+03  0.11945251566E+03 -0.50359207510E+02  0.26946347438E+03  0.00000000000E+00 0. -1.
         -2    1    6    6    0  503 -0.24212241330E+03  0.11997152774E+03  0.40673513958E+02  0.27325951992E+03  0.00000000000E+00 0.  1.
<mgrwt>
<rscale>  0 0.21310837E+04</rscale>
<asrwt>0</asrwt>
<pdfrwt beam="1">  1        2 0.33723168E+00 0.21310837E+04</pdfrwt>
<pdfrwt beam="2">  1       -1 0.79686716E-01 0.21310837E+04</pdfrwt>
<totfact> 0.85864965E+00</totfact>
</mgrwt>
</event>
<event>
12    6  0.1627636E-007  0.1436582E+04  0.7818608E-02  0.8927756E-01
          2   -1    0    0  501    0  0.00000000000E+00  0.00000000000E+00  0.15092959109E+04  0.15092959109E+04  0.00000000000E+00 0. -1.
         -1   -1    0    0    0  501 -0.00000000000E+00 -0.00000000000E+00 -0.34184269322E+03  0.34184269322E+03  0.00000000000E+00 0.  1.
         24    2    1    2    0    0 -0.28783842937E+03  0.31062555709E+03  0.51606149881E+03  0.67232807832E+03  0.79789574491E+02 0.  0.
        254    2    1    2    0    0  0.28783842937E+03 -0.31062555709E+03  0.65139171887E+03  0.11788105258E+04  0.88653476309E+03 0.  0.
         23    2    4    4    0    0  0.79583657080E+02 -0.60023404246E+03  0.36592882597E+03  0.71291664455E+03  0.87930496459E+02 0.  0.
         23    2    4    4    0    0  0.20825477229E+03  0.28960848537E+03  0.28546289290E+03  0.46589388124E+03  0.91241001588E+02 0.  0.
          2    1    3    3  502    0 -0.17900218491E+03  0.15254881260E+03  0.32818812590E+03  0.40375780910E+03  0.00000000000E+00 0. -1.
         -1    1    3    3    0  502 -0.10883624447E+03  0.15807674450E+03  0.18787337291E+03  0.26857026922E+03  0.00000000000E+00 0.  1.
         11    1    5    5    0    0  0.50385547278E+02 -0.33298617913E+03  0.25347357311E+03  0.42150605112E+03  0.00000000000E+00 0. -1.
        -11    1    5    5    0    0  0.29198109803E+02 -0.26724786333E+03  0.11245525286E+03  0.29141059344E+03  0.00000000000E+00 0.  1.
          1    1    6    6  503    0  0.20883768153E+03  0.28940493672E+03  0.26276111083E+03  0.44318370456E+03  0.00000000000E+00 0. -1.
         -1    1    6    6    0  503 -0.58290923338E+00  0.20354864121E+00  0.22701782075E+02  0.22710176675E+02  0.00000000000E+00 0.  1.
<mgrwt>
<rscale>  0 0.14365817E+04</rscale>
<asrwt>0</asrwt>
<pdfrwt beam="1">  1        2 0.23219937E+00 0.14365817E+04</pdfrwt>
<pdfrwt beam="2">  1       -1 0.52591185E-01 0.14365817E+04</pdfrwt>
<totfact> 0.50538029E+01</totfact>
</mgrwt>
</event>
<event>
12    6  0.1627636E-007  0.4120952E+04  0.7818608E-02  0.7980582E-01
         -1   -1    0    0    0  501 -0.00000000000E+00  0.00000000000E+00  0.15971167696E+04  0.15971167696E+04  0.00000000000E+00 0.  1.
          2   -1    0    0  501    0  0.00000000000E+00 -0.00000000000E+00 -0.26582658955E+04  0.26582658955E+04  0.00000000000E+00 0. -1.
         24    2    1    2    0    0 -0.55610632950E+03  0.13854345918E+04  0.80897810330E+03  0.16997790277E+04  0.78229876770E+02 0.  0.
        254    2    1    2    0    0  0.55610632950E+03 -0.13854345918E+04 -0.18701272291E+04  0.25556036374E+04  0.89724625403E+03 0.  0.
         23    2    4    4    0    0  0.16175947170E+03  0.74442996972E+02 -0.39072513388E+03  0.43817032023E+03  0.87288102333E+02 0.  0.
         23    2    4    4    0    0  0.39434685781E+03 -0.14598775888E+04 -0.14794020952E+04  0.21174333171E+04  0.90229012133E+02 0.  0.
          2    1    3    3  502    0 -0.68987722247E+01  0.54483547152E+02  0.24653540884E+02  0.60198397376E+02  0.00000000000E+00 0. -1.
         -1    1    3    3    0  502 -0.54920755728E+03  0.13309510447E+04  0.78432456241E+03  0.16395806304E+04  0.00000000000E+00 0.  1.
         11    1    5    5    0    0  0.53641076315E+02 -0.15871649645E+02 -0.88065549756E+02  0.10433031863E+03  0.00000000000E+00 0.  1.
        -11    1    5    5    0    0  0.10811839538E+03  0.90314646618E+02 -0.30265958412E+03  0.33384000161E+03  0.00000000000E+00 0. -1.
          3    1    6    6  503    0  0.36410064584E+03 -0.12350109485E+04 -0.12755726680E+04  0.18124312275E+04  0.00000000000E+00 0. -1.
         -3    1    6    6    0  503  0.30246211962E+02 -0.22486664026E+03 -0.20382942726E+03  0.30500208960E+03  0.00000000000E+00 0.  1.
<mgrwt>
<rscale>  0 0.41209519E+04</rscale>
<asrwt>0</asrwt>
<pdfrwt beam="1">  1        2 0.40896398E+00 0.41209519E+04</pdfrwt>
<pdfrwt beam="2">  1       -1 0.24571027E+00 0.41209519E+04</pdfrwt>
<totfact> 0.18562272E-01</totfact>
</mgrwt>
</event>
<event>
12    6  0.1627636E-007  0.2560509E+04  0.7818608E-02  0.8381741E-01
         -1   -1    0    0    0  501 -0.00000000000E+00  0.00000000000E+00  0.24633799270E+04  0.24633799270E+04  0.00000000000E+00 0.  1.
          2   -1    0    0  501    0  0.00000000000E+00 -0.00000000000E+00 -0.66536681912E+03  0.66536681912E+03  0.00000000000E+00 0. -1.
         24    2    1    2    0    0 -0.10854773635E+04 -0.22459317525E+03  0.60845755136E+03  0.12668947195E+04  0.78092493063E+02 0.  0.
        254    2    1    2    0    0  0.10854773635E+04  0.22459317525E+03  0.11895555565E+04  0.18618520266E+04  0.90705421338E+03 0.  0.
         23    2    4    4    0    0  0.62101320652E+03 -0.28130596471E+03  0.84026695995E+03  0.10859404890E+04  0.91802686614E+02 0.  0.
         23    2    4    4    0    0  0.46446415696E+03  0.50589913996E+03  0.34928859655E+03  0.77591153759E+03  0.91516651855E+02 0.  0.
          2    1    3    3  502    0 -0.63366854099E+03 -0.95925922046E+02  0.33126772800E+03  0.72144016382E+03  0.00000000000E+00 0. -1.
         -1    1    3    3    0  502 -0.45180882249E+03 -0.12866725321E+03  0.27718982336E+03  0.54545455567E+03  0.00000000000E+00 0.  1.
         11    1    5    5    0    0  0.51285207932E+03 -0.26860114683E+03  0.71284380837E+03  0.91831918551E+03  0.00000000000E+00 0.  1.
        -11    1    5    5    0    0  0.10816112720E+03 -0.12704817881E+02  0.12742315158E+03  0.16762130352E+03  0.00000000000E+00 0. -1.
          3    1    6    6  503    0  0.17837983145E+03  0.17187985372E+03  0.80389903590E+02  0.26043153607E+03  0.00000000000E+00 0. -1.
         -3    1    6    6    0  503  0.28608432551E+03  0.33401928624E+03  0.26889869296E+03  0.51548000151E+03  0.00000000000E+00 0.  1.
<mgrwt>
<rscale>  0 0.25605088E+04</rscale>
<asrwt>0</asrwt>
<pdfrwt beam="1">  1        2 0.10236413E+00 0.25605088E+04</pdfrwt>
<pdfrwt beam="2">  1       -1 0.37898152E+00 0.25605088E+04</pdfrwt>
<totfact> 0.43955739E-01</totfact>
</mgrwt>
</event>
<event>
12    6  0.1627636E-007  0.1521139E+04  0.7818608E-02  0.8870516E-01
          2   -1    0    0  501    0  0.00000000000E+00  0.00000000000E+00  0.33624426264E+04  0.33624426264E+04  0.00000000000E+00 0. -1.
         -1   -1    0    0    0  501 -0.00000000000E+00 -0.00000000000E+00 -0.17203738197E+03  0.17203738197E+03  0.00000000000E+00 0.  1.
         24    2    1    2    0    0 -0.33484176629E+03 -0.29677277207E+03  0.68259275607E+03  0.81934852854E+03  0.72152989372E+02 0.  0.
        254    2    1    2    0    0  0.33484176629E+03  0.29677277207E+03  0.25078124884E+04  0.27151314799E+04  0.93947985043E+03 0.  0.
         23    2    4    4    0    0 -0.21410552492E+03  0.20312808039E+03  0.17110744738E+04  0.17386905829E+04  0.90370876761E+02 0.  0.
         23    2    4    4    0    0  0.54894729120E+03  0.93644691681E+02  0.79673801458E+03  0.97644089695E+03  0.92373722234E+02 0.  0.
          4    1    3    3  502    0 -0.63739125590E+01 -0.17350795273E+02  0.11912584101E+02  0.21990600671E+02  0.00000000000E+00 0. -1.
         -3    1    3    3    0  502 -0.32846785373E+03 -0.27942197680E+03  0.67068017197E+03  0.79735792787E+03  0.00000000000E+00 0.  1.
         11    1    5    5    0    0 -0.15492624506E+02 -0.91058868658E+01  0.95790188155E+02  0.97461267878E+02  0.00000000000E+00 0. -1.
        -11    1    5    5    0    0 -0.19861290041E+03  0.21223396726E+03  0.16152842857E+04  0.16412293150E+04  0.00000000000E+00 0.  1.
          4    1    6    6  503    0  0.21146616605E+03  0.72139189984E+02  0.26951365731E+03  0.35008515191E+03  0.00000000000E+00 0. -1.
         -4    1    6    6    0  503  0.33748112515E+03  0.21505501697E+02  0.52722435727E+03  0.62635574503E+03  0.00000000000E+00 0.  1.
<mgrwt>
<rscale>  0 0.15211388E+04</rscale>
<asrwt>0</asrwt>
<pdfrwt beam="1">  1        2 0.51729882E+00 0.15211388E+04</pdfrwt>
<pdfrwt beam="2">  1       -1 0.26467292E-01 0.15211388E+04</pdfrwt>
<totfact> 0.14265955E+01</totfact>
</mgrwt>
</event>
<event>
12    6  0.1627636E-007  0.1812613E+04  0.7818608E-02  0.8699621E-01
          2   -1    0    0  501    0  0.00000000000E+00  0.00000000000E+00  0.11265563813E+04  0.11265563813E+04  0.00000000000E+00 0. -1.
         -1   -1    0    0    0  501 -0.00000000000E+00 -0.00000000000E+00 -0.72911669029E+03  0.72911669029E+03  0.00000000000E+00 0.  1.
         24    2    1    2    0    0 -0.27139751979E+03  0.51054614747E+03 -0.15630867250E+03  0.60425610543E+03  0.79869001502E+02 0.  0.
        254    2    1    2    0    0  0.27139751979E+03 -0.51054614747E+03  0.55374836354E+03  0.12514169662E+04  0.96181764942E+03 0.  0.
         23    2    4    4    0    0 -0.31886980859E+03  0.32173430452E+01  0.20712187926E+03  0.39082495265E+03  0.90312593931E+02 0.  0.
         23    2    4    4    0    0  0.59026732838E+03 -0.51376349052E+03  0.34662648428E+03  0.86059201355E+03  0.90001394696E+02 0.  0.
          4    1    3    3  502    0 -0.84397175901E+02  0.14938991924E+03 -0.84527760111E+02  0.19127251109E+03  0.00000000000E+00 0. -1.
         -3    1    3    3    0  502 -0.18700034389E+03  0.36115622823E+03 -0.71780912384E+02  0.41298359433E+03  0.00000000000E+00 0.  1.
         11    1    5    5    0    0 -0.10388756262E+02  0.19339402673E+02  0.19801248383E+02  0.29563967764E+02  0.00000000000E+00 0.  1.
        -11    1    5    5    0    0 -0.30848105232E+03 -0.16122059628E+02  0.18732063088E+03  0.36126098489E+03  0.00000000000E+00 0. -1.
          3    1    6    6  503    0  0.32067571739E+03 -0.23894149567E+03  0.14025010075E+03  0.42378773559E+03  0.00000000000E+00 0. -1.
         -3    1    6    6    0  503  0.26959161099E+03 -0.27482199485E+03  0.20637638353E+03  0.43680427797E+03  0.00000000000E+00 0.  1.
<mgrwt>
<rscale>  0 0.18126125E+04</rscale>
<asrwt>0</asrwt>
<pdfrwt beam="1">  1        2 0.17331637E+00 0.18126125E+04</pdfrwt>
<pdfrwt beam="2">  1       -1 0.11217180E+00 0.18126125E+04</pdfrwt>
<totfact> 0.16443936E+01</totfact>
</mgrwt>
</event>
<event>
12    6  0.1627636E-007  0.2296019E+04  0.7818608E-02  0.8479492E-01
          2   -1    0    0  501    0  0.00000000000E+00  0.00000000000E+00  0.15973030074E+04  0.15973030074E+04  0.00000000000E+00 0. -1.
         -1   -1    0    0    0  501 -0.00000000000E+00 -0.00000000000E+00 -0.82509435882E+03  0.82509435882E+03  0.00000000000E+00 0.  1.
         24    2    1    2    0    0  0.58156590492E+03  0.21010117820E+03  0.11166681801E+04  0.12788762018E+04  0.78835958155E+02 0.  0.
        254    2    1    2    0    0 -0.58156590492E+03 -0.21010117820E+03 -0.34445953156E+03  0.11435211644E+04  0.89812408809E+03 0.  0.
         23    2    4    4    0    0 -0.63018634552E+03 -0.48135107117E+03 -0.27577264971E+03  0.84482367823E+03  0.94036212047E+02 0.  0.
         23    2    4    4    0    0  0.48620440597E+02  0.27124989297E+03 -0.68686881854E+02  0.29869748613E+03  0.92530258836E+02 0.  0.
          4    1    3    3  502    0  0.31628102772E+03  0.91027043737E+02  0.52536180023E+03  0.61993921664E+03  0.00000000000E+00 0. -1.
         -3    1    3    3    0  502  0.26528487720E+03  0.11907413446E+03  0.59130637988E+03  0.65893698519E+03  0.00000000000E+00 0.  1.
         11    1    5    5    0    0 -0.61950490741E+03 -0.48474395688E+03 -0.27595414695E+03  0.83361485427E+03  0.00000000000E+00 0. -1.
        -11    1    5    5    0    0 -0.10681438105E+02  0.33928857044E+01  0.18149723972E+00  0.11208823964E+02  0.00000000000E+00 0.  1.
          3    1    6    6  503    0  0.39379484631E+02  0.52435208678E+02  0.92681718376E+01  0.66227591894E+02  0.00000000000E+00 0.  1.
         -3    1    6    6    0  503  0.92409559660E+01  0.21881468430E+03 -0.77955053692E+02  0.23246989424E+03  0.00000000000E+00 0. -1.
<mgrwt>
<rscale>  0 0.22960189E+04</rscale>
<asrwt>0</asrwt>
<pdfrwt beam="1">  1        2 0.24573892E+00 0.22960189E+04</pdfrwt>
<pdfrwt beam="2">  1       -1 0.12693759E+00 0.22960189E+04</pdfrwt>
<totfact> 0.62247794E+00</totfact>
</mgrwt>
</event>
<event>
12    6  0.1627636E-007  0.3465313E+04  0.7818608E-02  0.8122060E-01
         -1   -1    0    0    0  501 -0.00000000000E+00  0.00000000000E+00  0.24134632167E+04  0.24134632167E+04  0.00000000000E+00 0.  1.
          2   -1    0    0  501    0  0.00000000000E+00 -0.00000000000E+00 -0.12438968869E+04  0.12438968869E+04  0.00000000000E+00 0. -1.
         24    2    1    2    0    0  0.41636456115E+03  0.99347023090E+03 -0.72534725617E+03  0.13012270213E+04  0.81979092302E+02 0.  0.
        254    2    1    2    0    0 -0.41636456115E+03 -0.99347023090E+03  0.18949135860E+04  0.23561330822E+04  0.89460776615E+03 0.  0.
         23    2    4    4    0    0 -0.16347211753E+03 -0.17175844769E+03 -0.19945582849E+02  0.25511466432E+03  0.91986782275E+02 0.  0.
         23    2    4    4    0    0 -0.25289244362E+03 -0.82171178321E+03  0.19148591689E+04  0.21010184179E+04  0.91803666149E+02 0.  0.
          4    1    3    3  502    0  0.27364511379E+03  0.62142247097E+03 -0.50196701022E+03  0.84440417756E+03  0.00000000000E+00 0. -1.
         -3    1    3    3    0  502  0.14271944736E+03  0.37204775993E+03 -0.22338024595E+03  0.45682284378E+03  0.00000000000E+00 0.  1.
         11    1    5    5    0    0 -0.14810656728E+03 -0.18082293501E+03 -0.84438962694E+01  0.23388841031E+03  0.00000000000E+00 0.  1.
        -11    1    5    5    0    0 -0.15365550249E+02  0.90644873181E+01 -0.11501686579E+02  0.21226254002E+02  0.00000000000E+00 0. -1.
          4    1    6    6  503    0 -0.17656760967E+03 -0.67252701185E+03  0.15933973133E+04  0.17385004172E+04  0.00000000000E+00 0.  1.
         -4    1    6    6    0  503 -0.76324833953E+02 -0.14918477136E+03  0.32146185559E+03  0.36251800078E+03  0.00000000000E+00 0. -1.
<mgrwt>
<rscale>  0 0.34653135E+04</rscale>
<asrwt>0</asrwt>
<pdfrwt beam="1">  1        2 0.19136875E+00 0.34653135E+04</pdfrwt>
<pdfrwt beam="2">  1       -1 0.37130203E+00 0.34653135E+04</pdfrwt>
<totfact> 0.18735549E-01</totfact>
</mgrwt>
</event>
<event>
12    6  0.1627636E-007  0.1553242E+04  0.7818608E-02  0.8849799E-01
         -1   -1    0    0    0  501 -0.00000000000E+00  0.00000000000E+00  0.35421199728E+03  0.35421199728E+03  0.00000000000E+00 0.  1.
          2   -1    0    0  501    0  0.00000000000E+00 -0.00000000000E+00 -0.17027668209E+04  0.17027668209E+04  0.00000000000E+00 0. -1.
         24    2    1    2    0    0 -0.49739515818E+03 -0.12253914778E+03 -0.35313222210E+03  0.62726420566E+03  0.79625569368E+02 0.  0.
        254    2    1    2    0    0  0.49739515818E+03  0.12253914778E+03 -0.99542260154E+03  0.14297146125E+04  0.88926932452E+03 0.  0.
         23    2    4    4    0    0  0.73588367515E+03  0.27055487776E+02 -0.62865758616E+03  0.97251190055E+03  0.91171559768E+02 0.  0.
         23    2    4    4    0    0 -0.23848851697E+03  0.95483660005E+02 -0.36676501539E+03  0.45720271199E+03  0.92324651575E+02 0.  0.
          4    1    3    3  502    0 -0.47861161209E+03 -0.12703057322E+03 -0.32213470223E+03  0.59074242114E+03  0.00000000000E+00 0. -1.
         -3    1    3    3    0  502 -0.18783546095E+02  0.44914254371E+01 -0.30997519870E+02  0.36521784519E+02  0.00000000000E+00 0.  1.
         11    1    5    5    0    0  0.38080113060E+03  0.17745895791E+02 -0.38477294439E+03  0.54164068959E+03  0.00000000000E+00 0. -1.
        -11    1    5    5    0    0  0.35508254455E+03  0.93095919851E+01 -0.24388464177E+03  0.43087121096E+03  0.00000000000E+00 0.  1.
          3    1    6    6  503    0 -0.23452862548E+03  0.74587835737E+02 -0.35746367035E+03  0.43398997342E+03  0.00000000000E+00 0. -1.
         -3    1    6    6    0  503 -0.39598914849E+01  0.20895824268E+02 -0.93013450341E+01  0.23212738568E+02  0.00000000000E+00 0.  1.
<mgrwt>
<rscale>  0 0.15532423E+04</rscale>
<asrwt>0</asrwt>
<pdfrwt beam="1">  1        2 0.26196413E+00 0.15532423E+04</pdfrwt>
<pdfrwt beam="2">  1       -1 0.54494153E-01 0.15532423E+04</pdfrwt>
<totfact> 0.36441119E+01</totfact>
</mgrwt>
</event>
<event>
12    6  0.1627636E-007  0.1672180E+04  0.7818608E-02  0.8777392E-01
         -1   -1    0    0    0  501 -0.00000000000E+00  0.00000000000E+00  0.84490520206E+03  0.84490520206E+03  0.00000000000E+00 0.  1.
          2   -1    0    0  501    0  0.00000000000E+00 -0.00000000000E+00 -0.82736697775E+03  0.82736697775E+03  0.00000000000E+00 0. -1.
         24    2    1    2    0    0  0.37875923046E+03 -0.20558507034E+03  0.39639087034E+03  0.59119677108E+03  0.81634087467E+02 0.  0.
        254    2    1    2    0    0 -0.37875923046E+03  0.20558507034E+03 -0.37885264603E+03  0.10810754087E+04  0.91622646554E+03 0.  0.
         23    2    4    4    0    0 -0.57844167736E+03  0.40445098968E+03 -0.31735390870E+03  0.77810679418E+03  0.81001867962E+02 0.  0.
         23    2    4    4    0    0  0.19968244690E+03 -0.19886591934E+03 -0.61498737323E+02  0.30296861456E+03  0.92666893997E+02 0.  0.
          4    1    3    3  502    0  0.66989496949E+02 -0.38812299101E+01  0.54517080181E+02  0.86456744552E+02  0.00000000000E+00 0. -1.
         -3    1    3    3    0  502  0.31176973351E+03 -0.20170384043E+03  0.34187379016E+03  0.50474002653E+03  0.00000000000E+00 0.  1.
         11    1    5    5    0    0 -0.54207234144E+03  0.35162336215E+03 -0.29370415465E+03  0.70974892929E+03  0.00000000000E+00 0.  1.
        -11    1    5    5    0    0 -0.36369335919E+02  0.52827627524E+02 -0.23649754054E+02  0.68357864886E+02  0.00000000000E+00 0. -1.
          1    1    6    6  503    0  0.49605107242E+02 -0.65511024712E+02 -0.60768989302E+02  0.10220191331E+03  0.00000000000E+00 0. -1.
         -1    1    6    6    0  503  0.15007733966E+03 -0.13335489463E+03 -0.72974802045E+00  0.20076670125E+03  0.00000000000E+00 0.  1.
<mgrwt>
<rscale>  0 0.16721802E+04</rscale>
<asrwt>0</asrwt>
<pdfrwt beam="1">  1        2 0.12728723E+00 0.16721802E+04</pdfrwt>
<pdfrwt beam="2">  1       -1 0.12998542E+00 0.16721802E+04</pdfrwt>
<totfact> 0.18185098E+01</totfact>
</mgrwt>
</event>
<event>
12    6  0.1627636E-007  0.1354661E+04  0.7818608E-02  0.8987307E-01
          2   -1    0    0  501    0  0.00000000000E+00  0.00000000000E+00  0.10803714815E+04  0.10803714815E+04  0.00000000000E+00 0. -1.
         -1   -1    0    0    0  501 -0.00000000000E+00 -0.00000000000E+00 -0.42464729087E+03  0.42464729087E+03  0.00000000000E+00 0.  1.
         24    2    1    2    0    0 -0.25274620026E+03 -0.15449807869E+03  0.39378327161E+03  0.49914042665E+03  0.79533656120E+02 0.  0.
        254    2    1    2    0    0  0.25274620026E+03  0.15449807869E+03  0.26194091903E+03  0.10058783457E+04  0.92489345510E+03 0.  0.
         23    2    4    4    0    0 -0.98447993038E+00  0.37252520227E+03 -0.19713623030E+03  0.43063316349E+03  0.88352887201E+02 0.  0.
         23    2    4    4    0    0  0.25373068019E+03 -0.21802712357E+03  0.45907714932E+03  0.57524518224E+03  0.90775029478E+02 0.  0.
          4    1    3    3  502    0 -0.22442271311E+03 -0.11801227730E+03  0.28800730177E+03  0.38371950384E+03  0.00000000000E+00 0. -1.
         -1    1    3    3    0  502 -0.28323487143E+02 -0.36485801389E+02  0.10577596984E+03  0.11542092281E+03  0.00000000000E+00 0.  1.
         11    1    5    5    0    0  0.26974678589E+02  0.12239666756E+03 -0.31168281875E+02  0.12915122652E+03  0.00000000000E+00 0. -1.
        -11    1    5    5    0    0 -0.27959158520E+02  0.25012853471E+03 -0.16596794842E+03  0.30148193698E+03  0.00000000000E+00 0.  1.
          2    1    6    6  503    0 -0.54824357012E+01 -0.65050197331E+01  0.18843851299E+01  0.87133971712E+01  0.00000000000E+00 0. -1.
         -2    1    6    6    0  503  0.25921311589E+03 -0.21152210384E+03  0.45719276419E+03  0.56653178507E+03  0.00000000000E+00 0.  1.
<mgrwt>
<rscale>  0 0.13546613E+04</rscale>
<asrwt>0</asrwt>
<pdfrwt beam="1">  1        2 0.16621100E+00 0.13546613E+04</pdfrwt>
<pdfrwt beam="2">  1       -1 0.65330353E-01 0.13546613E+04</pdfrwt>
<totfact> 0.59274249E+01</totfact>
</mgrwt>
</event>
<event>
12    6  0.1627636E-007  0.1488234E+04  0.7818608E-02  0.8892315E-01
         -1   -1    0    0    0  501 -0.00000000000E+00  0.00000000000E+00  0.32130954800E+03  0.32130954800E+03  0.00000000000E+00 0.  1.
          2   -1    0    0  501    0  0.00000000000E+00 -0.00000000000E+00 -0.17232914875E+04  0.17232914875E+04  0.00000000000E+00 0. -1.
         24    2    1    2    0    0  0.35738634504E+03  0.22869980250E+02 -0.37653341730E+02  0.36988395043E+03  0.84547779561E+02 0.  0.
        254    2    1    2    0    0 -0.35738634504E+03 -0.22869980250E+02 -0.13643285978E+04  0.16747170851E+04  0.90279386171E+03 0.  0.
         23    2    4    4    0    0 -0.47774684076E+03  0.32082445136E+03 -0.96013065764E+03  0.11231104721E+04  0.91410504615E+02 0.  0.
         23    2    4    4    0    0  0.12036049572E+03 -0.34369443161E+03 -0.40419794017E+03  0.55160661301E+03  0.91002029786E+02 0.  0.
          4    1    3    3  502    0  0.18556102929E+02 -0.74749842077E+01 -0.21422122517E+02  0.29310606919E+02  0.00000000000E+00 0. -1.
         -3    1    3    3    0  502  0.33883024211E+03  0.30344964458E+02 -0.16231219213E+02  0.34057334352E+03  0.00000000000E+00 0.  1.
         11    1    5    5    0    0 -0.11121166536E+03  0.74420923550E+02 -0.15478357211E+03  0.20460807063E+03  0.00000000000E+00 0.  1.
        -11    1    5    5    0    0 -0.36653517540E+03  0.24640352781E+03 -0.80534708554E+03  0.91850240147E+03  0.00000000000E+00 0. -1.
          2    1    6    6  503    0  0.12117936862E+03 -0.31612467467E+03 -0.33139073450E+03  0.47375000604E+03  0.00000000000E+00 0. -1.
         -2    1    6    6    0  503 -0.81887289603E+00 -0.27569756946E+02 -0.72807205673E+02  0.77856606970E+02  0.00000000000E+00 0.  1.
<mgrwt>
<rscale>  0 0.14882339E+04</rscale>
<asrwt>0</asrwt>
<pdfrwt beam="1">  1        2 0.26512177E+00 0.14882339E+04</pdfrwt>
<pdfrwt beam="2">  1       -1 0.49432238E-01 0.14882339E+04</pdfrwt>
<totfact> 0.43015764E+01</totfact>
</mgrwt>
</event>
<event>
12    6  0.2212303E-007  0.1663598E+04  0.7818608E-02  0.8782402E-01
         -1   -1    0    0    0  501 -0.00000000000E+00  0.00000000000E+00  0.11557203747E+04  0.11557203747E+04  0.00000000000E+00 0.  1.
          2   -1    0    0  501    0  0.00000000000E+00 -0.00000000000E+00 -0.59866524379E+03  0.59866524379E+03  0.00000000000E+00 0. -1.
         24    2    1    2    0    0 -0.29396982562E+03 -0.35503486789E+03  0.57887691851E+03  0.74441370906E+03  0.81149662116E+02 0.  0.
        254    2    1    2    0    0  0.29396982562E+03  0.35503486789E+03 -0.21821787603E+02  0.10099719094E+04  0.89838691645E+03 0.  0.
         23    2    4    4    0    0  0.23312479455E+03  0.15458561714E+03 -0.44199415309E+03  0.53153307372E+03  0.94470599826E+02 0.  0.
         23    2    4    4    0    0  0.60845031062E+02  0.20044925075E+03  0.42017236548E+03  0.47843883572E+03  0.92069988996E+02 0.  0.
          2    1    3    3  502    0 -0.23252076318E+02 -0.60598087436E+02  0.11371352385E+03  0.13093339055E+03  0.00000000000E+00 0. -1.
         -1    1    3    3    0  502 -0.27071774930E+03 -0.29443678045E+03  0.46516339466E+03  0.61348031851E+03  0.00000000000E+00 0.  1.
         11    1    5    5    0    0  0.12705206006E+03  0.10797566889E+03 -0.33324290713E+03  0.37262824127E+03  0.00000000000E+00 0. -1.
        -11    1    5    5    0    0  0.10607273450E+03  0.46609948255E+02 -0.10875124596E+03  0.15890483245E+03  0.00000000000E+00 0.  1.
          1    1    6    6  503    0  0.83134102657E+02  0.17990076526E+03  0.37264118128E+03  0.42206280854E+03  0.00000000000E+00 0. -1.
         -1    1    6    6    0  503 -0.22289071594E+02  0.20548485485E+02  0.47531184209E+02  0.56376027180E+02  0.00000000000E+00 0.  1.
<mgrwt>
<rscale>  0 0.16635981E+04</rscale>
<asrwt>0</asrwt>
<pdfrwt beam="1">  1        2 0.92102345E-01 0.16635981E+04</pdfrwt>
<pdfrwt beam="2">  1       -1 0.17780313E+00 0.16635981E+04</pdfrwt>
<totfact> 0.11700755E+01</totfact>
</mgrwt>
</event>
<event>
12    6  0.1627636E-007  0.1296150E+04  0.7818608E-02  0.9032624E-01
          2   -1    0    0  501    0  0.00000000000E+00  0.00000000000E+00  0.27943946981E+03  0.27943946981E+03  0.00000000000E+00 0. -1.
         -1   -1    0    0    0  501 -0.00000000000E+00 -0.00000000000E+00 -0.15030128085E+04  0.15030128085E+04  0.00000000000E+00 0.  1.
         24    2    1    2    0    0 -0.23618880361E+03 -0.82748743549E+02 -0.60687012541E+03  0.66120923198E+03  0.79207283975E+02 0.  0.
        254    2    1    2    0    0  0.23618880361E+03  0.82748743549E+02 -0.61670321331E+03  0.11212430464E+04  0.90234727805E+03 0.  0.
         23    2    4    4    0    0  0.93850653901E+02 -0.38288813290E+03 -0.43437202273E+03  0.59334297709E+03  0.89250023933E+02 0.  0.
         23    2    4    4    0    0  0.14233814971E+03  0.46563687645E+03 -0.18233119057E+03  0.52790006927E+03  0.91410997781E+02 0.  0.
          4    1    3    3  502    0 -0.38496470442E+02 -0.48141124428E+02 -0.15260941188E+03  0.16458790567E+03  0.00000000000E+00 0. -1.
         -3    1    3    3    0  502 -0.19769233317E+03 -0.34607619122E+02 -0.45426071353E+03  0.49662132631E+03  0.00000000000E+00 0.  1.
         11    1    5    5    0    0  0.48945863654E+02 -0.31773174869E+03 -0.37781481189E+03  0.49607781020E+03  0.00000000000E+00 0. -1.
        -11    1    5    5    0    0  0.44904790247E+02 -0.65156384206E+02 -0.56557210848E+02  0.97265166883E+02  0.00000000000E+00 0.  1.
          4    1    6    6  503    0  0.14781779921E+03  0.45522824569E+03 -0.18875071496E+03  0.51449945562E+03  0.00000000000E+00 0. -1.
         -4    1    6    6    0  503 -0.54796495032E+01  0.10408630755E+02  0.64195243870E+01  0.13400613651E+02  0.00000000000E+00 0.  1.
<mgrwt>
<rscale>  0 0.12961498E+04</rscale>
<asrwt>0</asrwt>
<pdfrwt beam="1">  1        2 0.42990688E-01 0.12961498E+04</pdfrwt>
<pdfrwt beam="2">  1       -1 0.23123274E+00 0.12961498E+04</pdfrwt>
<totfact> 0.12377841E+01</totfact>
</mgrwt>
</event>
<event>
12    6  0.1627636E-007  0.2532410E+04  0.7818608E-02  0.8391529E-01
          2   -1    0    0  501    0  0.00000000000E+00  0.00000000000E+00  0.41401489650E+04  0.41401489650E+04  0.00000000000E+00 0. -1.
         -1   -1    0    0    0  501 -0.00000000000E+00 -0.00000000000E+00 -0.38725059806E+03  0.38725059806E+03  0.00000000000E+00 0.  1.
         24    2    1    2    0    0 -0.31165713384E+03 -0.56531661645E+03  0.35114353700E+02  0.65150646395E+03  0.80713126674E+02 0.  0.
        254    2    1    2    0    0  0.31165713384E+03  0.56531661645E+03  0.37177840132E+04  0.38758930991E+04  0.88539047929E+03 0.  0.
         23    2    4    4    0    0  0.17321385990E+03  0.34211046084E+03  0.35062827851E+04  0.35283114194E+04  0.88993786530E+02 0.  0.
         23    2    4    4    0    0  0.13844327395E+03  0.22320615561E+03  0.21150122813E+03  0.34758167978E+03  0.84218327061E+02 0.  0.
          2    1    3    3  502    0 -0.13322379942E+03 -0.31884527725E+03  0.33963517879E+02  0.34722386454E+03  0.00000000000E+00 0. -1.
         -1    1    3    3    0  502 -0.17843333442E+03 -0.24647133919E+03  0.11508358214E+01  0.30428259940E+03  0.00000000000E+00 0.  1.
         11    1    5    5    0    0  0.48592118790E+02  0.18362004015E+03  0.18830556377E+04  0.18926109076E+04  0.00000000000E+00 0. -1.
        -11    1    5    5    0    0  0.12462174111E+03  0.15849042069E+03  0.16232271474E+04  0.16357005117E+04  0.00000000000E+00 0.  1.
          4    1    6    6  503    0  0.75721213354E+02  0.15814913720E+03  0.18150057141E+03  0.25236344658E+03  0.00000000000E+00 0. -1.
         -4    1    6    6    0  503  0.62722060591E+02  0.65057018416E+02  0.30000656723E+02  0.95218233200E+02  0.00000000000E+00 0.  1.
<mgrwt>
<rscale>  0 0.25324100E+04</rscale>
<asrwt>0</asrwt>
<pdfrwt beam="1">  1        2 0.63694596E+00 0.25324100E+04</pdfrwt>
<pdfrwt beam="2">  1       -1 0.59577018E-01 0.25324100E+04</pdfrwt>
<totfact> 0.75912836E-01</totfact>
</mgrwt>
</event>
<event>
12    6  0.1627636E-007  0.1317495E+04  0.7818608E-02  0.9015805E-01
         -1   -1    0    0    0  501 -0.00000000000E+00  0.00000000000E+00  0.59355202802E+03  0.59355202802E+03  0.00000000000E+00 0.  1.
          2   -1    0    0  501    0  0.00000000000E+00 -0.00000000000E+00 -0.73110397734E+03  0.73110397734E+03  0.00000000000E+00 0. -1.
         24    2    1    2    0    0 -0.26203890894E+03  0.23005937323E+03 -0.80005308371E+02  0.36639802396E+03  0.79088289814E+02 0.  0.
        254    2    1    2    0    0  0.26203890894E+03 -0.23005937323E+03 -0.57546640948E+02  0.95825798140E+03  0.89070479847E+03 0.  0.
         23    2    4    4    0    0  0.33414075891E+02 -0.53927454351E+03  0.46345067743E+02  0.54987059620E+03  0.90974026615E+02 0.  0.
         23    2    4    4    0    0  0.22862483305E+03  0.30921517028E+03 -0.10389170869E+03  0.40838738520E+03  0.90019072601E+02 0.  0.
          2    1    3    3  502    0 -0.23429986958E+03  0.22984397117E+03 -0.64078289335E+02  0.33441098536E+03  0.00000000000E+00 0. -1.
         -1    1    3    3    0  502 -0.27739039367E+02  0.21540205796E+00 -0.15927019036E+02  0.31987038600E+02  0.00000000000E+00 0.  1.
         11    1    5    5    0    0  0.49285870049E+02 -0.14182124401E+03  0.11912002320E+02  0.15061294114E+03  0.00000000000E+00 0.  1.
        -11    1    5    5    0    0 -0.15871794158E+02 -0.39745329950E+03  0.34433065423E+02  0.39925765506E+03  0.00000000000E+00 0. -1.
          2    1    6    6  503    0  0.14586925436E+03  0.13275889808E+03 -0.27913288852E+02  0.19920320299E+03  0.00000000000E+00 0. -1.
         -2    1    6    6    0  503  0.82755578692E+02  0.17645627220E+03 -0.75978419839E+02  0.20918418221E+03  0.00000000000E+00 0.  1.
<mgrwt>
<rscale>  0 0.13174950E+04</rscale>
<asrwt>0</asrwt>
<pdfrwt beam="1">  1        2 0.11247754E+00 0.13174950E+04</pdfrwt>
<pdfrwt beam="2">  1       -1 0.91315696E-01 0.13174950E+04</pdfrwt>
<totfact> 0.50713752E+01</totfact>
</mgrwt>
</event>
<event>
12    6  0.1627636E-007  0.1579857E+04  0.7818608E-02  0.8833019E-01
         -1   -1    0    0    0  501 -0.00000000000E+00  0.00000000000E+00  0.51998293395E+03  0.51998293395E+03  0.00000000000E+00 0.  1.
          2   -1    0    0  501    0  0.00000000000E+00 -0.00000000000E+00 -0.12000151896E+04  0.12000151896E+04  0.00000000000E+00 0. -1.
         24    2    1    2    0    0  0.50322666597E+03 -0.10271892452E+03 -0.99739830826E+02  0.52944239828E+03  0.81073820927E+02 0.  0.
        254    2    1    2    0    0 -0.50322666597E+03  0.10271892452E+03 -0.58029242486E+03  0.11905557253E+04  0.90382264958E+03 0.  0.
         23    2    4    4    0    0 -0.47060398489E+03 -0.33708225100E+03 -0.37153062815E+03  0.69383137017E+03  0.90963773299E+02 0.  0.
         23    2    4    4    0    0 -0.32622681083E+02  0.43980117552E+03 -0.20876179672E+03  0.49672435513E+03  0.93082135239E+02 0.  0.
          2    1    3    3  502    0  0.46942481912E+03 -0.10511775065E+03 -0.73606535918E+02  0.48664907730E+03  0.00000000000E+00 0. -1.
         -1    1    3    3    0  502  0.33801846851E+02  0.23988261302E+01 -0.26133294907E+02  0.42793320975E+02  0.00000000000E+00 0.  1.
         11    1    5    5    0    0 -0.23008554516E+03 -0.15347293907E+03 -0.12493041683E+03  0.30348131765E+03  0.00000000000E+00 0. -1.
        -11    1    5    5    0    0 -0.24051843973E+03 -0.18360931193E+03 -0.24660021132E+03  0.39035005252E+03  0.00000000000E+00 0.  1.
          3    1    6    6  503    0 -0.35252685369E+02  0.90911650008E+02 -0.75189124885E+02  0.12313035545E+03  0.00000000000E+00 0. -1.
         -3    1    6    6    0  503  0.26300042857E+01  0.34888952551E+03 -0.13357267183E+03  0.37359399968E+03  0.00000000000E+00 0.  1.
<mgrwt>
<rscale>  0 0.15798575E+04</rscale>
<asrwt>0</asrwt>
<pdfrwt beam="1">  1        2 0.18461772E+00 0.15798575E+04</pdfrwt>
<pdfrwt beam="2">  1       -1 0.79997375E-01 0.15798575E+04</pdfrwt>
<totfact> 0.32361433E+01</totfact>
</mgrwt>
</event>
<event>
12    6  0.1627636E-007  0.1885341E+04  0.7818608E-02  0.8662188E-01
         -1   -1    0    0    0  501 -0.00000000000E+00  0.00000000000E+00  0.46940041029E+03  0.46940041029E+03  0.00000000000E+00 0.  1.
          2   -1    0    0  501    0  0.00000000000E+00 -0.00000000000E+00 -0.18931121511E+04  0.18931121511E+04  0.00000000000E+00 0. -1.
         24    2    1    2    0    0  0.48755382123E+03 -0.43163144147E+03 -0.10302168310E+04  0.12210593664E+04  0.74998850093E+02 0.  0.
        254    2    1    2    0    0 -0.48755382123E+03  0.43163144147E+03 -0.39349490979E+03  0.11414531950E+04  0.85091875196E+03 0.  0.
         23    2    4    4    0    0 -0.58235620189E+03  0.59557393484E+03 -0.21337520485E+03  0.86464622302E+03  0.90758223876E+02 0.  0.
         23    2    4    4    0    0  0.94802380661E+02 -0.16394249336E+03 -0.18011970494E+03  0.27680697196E+03  0.91183107572E+02 0.  0.
          4    1    3    3  502    0  0.13984221911E+03 -0.13991039421E+03 -0.37528119837E+03  0.42422487257E+03  0.00000000000E+00 0. -1.
         -3    1    3    3    0  502  0.34771160212E+03 -0.29172104726E+03 -0.65493563267E+03  0.79683449386E+03  0.00000000000E+00 0.  1.
         11    1    5    5    0    0 -0.67301562765E+02  0.10221393216E+03 -0.54369184181E+02  0.13391488516E+03  0.00000000000E+00 0.  1.
        -11    1    5    5    0    0 -0.51505463913E+03  0.49336000268E+03 -0.15900602067E+03  0.73073133787E+03  0.00000000000E+00 0. -1.
          3    1    6    6  503    0  0.66245583958E+02 -0.16291295923E+03 -0.17437369495E+03  0.24765963573E+03  0.00000000000E+00 0. -1.
         -3    1    6    6    0  503  0.28556796704E+02 -0.10295341388E+01 -0.57460099905E+01  0.29147336231E+02  0.00000000000E+00 0.  1.
<mgrwt>
<rscale>  0 0.18853409E+04</rscale>
<asrwt>0</asrwt>
<pdfrwt beam="1">  1        2 0.29124803E+00 0.18853409E+04</pdfrwt>
<pdfrwt beam="2">  1       -1 0.72215447E-01 0.18853409E+04</pdfrwt>
<totfact> 0.15824470E+01</totfact>
</mgrwt>
</event>
<event>
12    6  0.1627636E-007  0.1227401E+04  0.7818608E-02  0.9089205E-01
         -1   -1    0    0    0  501 -0.00000000000E+00  0.00000000000E+00  0.79726792523E+03  0.79726792523E+03  0.00000000000E+00 0.  1.
          2   -1    0    0  501    0  0.00000000000E+00 -0.00000000000E+00 -0.47239898325E+03  0.47239898325E+03  0.00000000000E+00 0. -1.
         24    2    1    2    0    0 -0.16695593681E+02 -0.11449240574E+03 -0.18549326364E+03  0.23322762907E+03  0.81241136658E+02 0.  0.
        254    2    1    2    0    0  0.16695593681E+02  0.11449240574E+03  0.51036220562E+03  0.10364392794E+04  0.89462257134E+03 0.  0.
         23    2    4    4    0    0  0.33614671830E+03  0.12912742816E+03 -0.59431283331E+02  0.37656034683E+03  0.92720593392E+02 0.  0.
         23    2    4    4    0    0 -0.31945112462E+03 -0.14635022414E+02  0.56979348896E+03  0.65987893258E+03  0.92262563963E+02 0.  0.
          4    1    3    3  502    0 -0.20722639101E+02 -0.84517860272E+01 -0.81999843298E+02  0.84999027990E+02  0.00000000000E+00 0. -1.
         -3    1    3    3    0  502  0.40270454193E+01 -0.10604061972E+03 -0.10349342034E+03  0.14822860108E+03  0.00000000000E+00 0.  1.
         11    1    5    5    0    0  0.27327799578E+03  0.13476531983E+03 -0.27825490635E+02  0.30596864600E+03  0.00000000000E+00 0.  1.
        -11    1    5    5    0    0  0.62868722522E+02 -0.56378916734E+01 -0.31605792695E+02  0.70591700830E+02  0.00000000000E+00 0. -1.
          3    1    6    6  503    0 -0.11265251255E+03  0.21533905513E+00  0.29401052612E+03  0.31485365557E+03  0.00000000000E+00 0. -1.
         -3    1    6    6    0  503 -0.20679861207E+03 -0.14850361469E+02  0.27578296283E+03  0.34502527701E+03  0.00000000000E+00 0.  1.
<mgrwt>
<rscale>  0 0.12274014E+04</rscale>
<asrwt>0</asrwt>
<pdfrwt beam="1">  1        2 0.72676767E-01 0.12274014E+04</pdfrwt>
<pdfrwt beam="2">  1       -1 0.12265660E+00 0.12274014E+04</pdfrwt>
<totfact> 0.43479610E+01</totfact>
</mgrwt>
</event>
<event>
12    6  0.1627636E-007  0.1890203E+04  0.7818608E-02  0.8659749E-01
          2   -1    0    0  501    0  0.00000000000E+00  0.00000000000E+00  0.15919499217E+04  0.15919499217E+04  0.00000000000E+00 0. -1.
         -1   -1    0    0    0  501 -0.00000000000E+00 -0.00000000000E+00 -0.56108326526E+03  0.56108326526E+03  0.00000000000E+00 0.  1.
         24    2    1    2    0    0 -0.85855128421E+01 -0.54408777335E+03 -0.14596082355E+03  0.56937940590E+03  0.82359757836E+02 0.  0.
        254    2    1    2    0    0  0.85855128421E+01  0.54408777335E+03  0.11768274800E+04  0.15836537811E+04  0.90935755590E+03 0.  0.
         23    2    4    4    0    0  0.16078696890E+03  0.98446382201E+02  0.10715276825E+04  0.10918322644E+04  0.91553151869E+02 0.  0.
         23    2    4    4    0    0 -0.15220145606E+03  0.44564139115E+03  0.10529979747E+03  0.49182151667E+03  0.95072731009E+02 0.  0.
          2    1    3    3  502    0 -0.25922268405E+02 -0.24193653338E+03 -0.29525172217E+02  0.24510607087E+03  0.00000000000E+00 0. -1.
         -1    1    3    3    0  502  0.17336755563E+02 -0.30215123997E+03 -0.11643565134E+03  0.32427333503E+03  0.00000000000E+00 0.  1.
         11    1    5    5    0    0  0.10035789419E+03  0.93886310638E+02  0.88765997230E+03  0.89823525463E+03  0.00000000000E+00 0. -1.
        -11    1    5    5    0    0  0.60429074710E+02  0.45600715626E+01  0.18386771023E+03  0.19359700976E+03  0.00000000000E+00 0.  1.
          2    1    6    6  503    0 -0.16390345452E+03  0.41006300610E+03  0.86830122853E+02  0.45006164202E+03  0.00000000000E+00 0. -1.
         -2    1    6    6    0  503  0.11701998468E+02  0.35578385046E+02  0.18469674620E+02  0.41759874655E+02  0.00000000000E+00 0.  1.
<mgrwt>
<rscale>  0 0.18902026E+04</rscale>
<asrwt>0</asrwt>
<pdfrwt beam="1">  1        2 0.24491537E+00 0.18902026E+04</pdfrwt>
<pdfrwt beam="2">  1       -1 0.86320503E-01 0.18902026E+04</pdfrwt>
<totfact> 0.15929330E+01</totfact>
</mgrwt>
</event>
<event>
12    6  0.1627636E-007  0.1959428E+04  0.7818608E-02  0.8625828E-01
          2   -1    0    0  501    0  0.00000000000E+00  0.00000000000E+00  0.10890851939E+04  0.10890851939E+04  0.00000000000E+00 0. -1.
         -1   -1    0    0    0  501 -0.00000000000E+00 -0.00000000000E+00 -0.88132678109E+03  0.88132678109E+03  0.00000000000E+00 0.  1.
         24    2    1    2    0    0 -0.76582696011E+03  0.12890325523E+03 -0.30107897100E+02  0.78336689323E+03  0.98235542957E+02 0.  0.
        254    2    1    2    0    0  0.76582696011E+03 -0.12890325523E+03  0.23786630986E+03  0.11870450817E+04  0.86567237602E+03 0.  0.
         23    2    4    4    0    0  0.73241518536E+03 -0.38232438439E+03  0.74379019101E+01  0.83147627683E+03  0.93239143696E+02 0.  0.
         23    2    4    4    0    0  0.33411774758E+02  0.25342112916E+03  0.23042840795E+03  0.35556880488E+03  0.89405304185E+02 0.  0.
          4    1    3    3  502    0 -0.68058854282E+03  0.82046256899E+02 -0.27133747799E+02  0.68605290843E+03  0.00000000000E+00 0. -1.
         -3    1    3    3    0  502 -0.85238417292E+02  0.46856998327E+02 -0.29741493018E+01  0.97313984805E+02  0.00000000000E+00 0.  1.
         11    1    5    5    0    0  0.30718729788E+03 -0.17022418068E+03 -0.42093985356E+02  0.35371204570E+03  0.00000000000E+00 0. -1.
        -11    1    5    5    0    0  0.42522788747E+03 -0.21210020370E+03  0.49531887267E+02  0.47776423113E+03  0.00000000000E+00 0.  1.
          4    1    6    6  503    0  0.39058653705E+02  0.19957974169E+03  0.22150308631E+03  0.30070129525E+03  0.00000000000E+00 0. -1.
         -4    1    6    6    0  503 -0.56468789475E+01  0.53841387469E+02  0.89253216437E+01  0.54867509629E+02  0.00000000000E+00 0.  1.
<mgrwt>
<rscale>  0 0.19594284E+04</rscale>
<asrwt>0</asrwt>
<pdfrwt beam="1">  1        2 0.16755157E+00 0.19594284E+04</pdfrwt>
<pdfrwt beam="2">  1       -1 0.13558874E+00 0.19594284E+04</pdfrwt>
<totfact> 0.10716241E+01</totfact>
</mgrwt>
</event>
<event>
12    6  0.1627636E-007  0.1111411E+04  0.7818608E-02  0.9194141E-01
          2   -1    0    0  501    0  0.00000000000E+00  0.00000000000E+00  0.31156984819E+03  0.31156984819E+03  0.00000000000E+00 0. -1.
         -1   -1    0    0    0  501 -0.00000000000E+00 -0.00000000000E+00 -0.99113762060E+03  0.99113762060E+03  0.00000000000E+00 0.  1.
         24    2    1    2    0    0  0.10943952577E+01 -0.85344634860E+01 -0.31879321280E+03  0.32825961918E+03  0.77789654139E+02 0.  0.
        254    2    1    2    0    0 -0.10943952577E+01  0.85344634860E+01 -0.36077455961E+03  0.97444784962E+03  0.90516092160E+03 0.  0.
         23    2    4    4    0    0 -0.18543628216E+03 -0.39378610506E+02 -0.61101579635E+03  0.64682240840E+03  0.95402489068E+02 0.  0.
         23    2    4    4    0    0  0.18434188690E+03  0.47913073992E+02  0.25024123673E+03  0.32762544122E+03  0.91870339309E+02 0.  0.
          2    1    3    3  502    0  0.34071052512E+02 -0.20624525595E+02 -0.12140328072E+03  0.12776918347E+03  0.00000000000E+00 0. -1.
         -1    1    3    3    0  502 -0.32976657255E+02  0.12090062109E+02 -0.19738993208E+03  0.20049043571E+03  0.00000000000E+00 0.  1.
         11    1    5    5    0    0  0.42139602986E+01 -0.15983313497E+02 -0.97790976630E+02  0.99178116951E+02  0.00000000000E+00 0. -1.
        -11    1    5    5    0    0 -0.18965024245E+03 -0.23395297009E+02 -0.51322481972E+03  0.54764429145E+03  0.00000000000E+00 0.  1.
          2    1    6    6  503    0  0.68336112476E+02  0.47705923146E+02  0.52897678548E+02  0.98710910072E+02  0.00000000000E+00 0. -1.
         -2    1    6    6    0  503  0.11600577442E+03  0.20715084583E+00  0.19734355819E+03  0.22891453114E+03  0.00000000000E+00 0.  1.
<mgrwt>
<rscale>  0 0.11114110E+04</rscale>
<asrwt>0</asrwt>
<pdfrwt beam="1">  1        2 0.47933822E-01 0.11114110E+04</pdfrwt>
<pdfrwt beam="2">  1       -1 0.15248271E+00 0.11114110E+04</pdfrwt>
<totfact> 0.39934242E+01</totfact>
</mgrwt>
</event>
<event>
12    6  0.1627636E-007  0.1370236E+04  0.7818608E-02  0.8975649E-01
         -1   -1    0    0    0  501 -0.00000000000E+00  0.00000000000E+00  0.89666537450E+03  0.89666537450E+03  0.00000000000E+00 0.  1.
          2   -1    0    0  501    0  0.00000000000E+00 -0.00000000000E+00 -0.52348056446E+03  0.52348056446E+03  0.00000000000E+00 0. -1.
         24    2    1    2    0    0  0.16785716964E+03  0.33689726310E+03  0.29625022947E+02  0.38604940355E+03  0.80502824280E+02 0.  0.
        254    2    1    2    0    0 -0.16785716964E+03 -0.33689726310E+03  0.34355978710E+03  0.10340965354E+04  0.89980360188E+03 0.  0.
         23    2    4    4    0    0 -0.37885842085E+03 -0.43876414619E+03  0.46853899464E+03  0.75076612734E+03  0.89851596680E+02 0.  0.
         23    2    4    4    0    0  0.21100125121E+03  0.10186688309E+03 -0.12497920755E+03  0.28333040807E+03  0.98782224800E+02 0.  0.
          2    1    3    3  502    0  0.81108719332E+02  0.24652809206E+03  0.15538620054E+02  0.25999264074E+03  0.00000000000E+00 0. -1.
         -1    1    3    3    0  502  0.86748450304E+02  0.90369171045E+02  0.14086402893E+02  0.12605676282E+03  0.00000000000E+00 0.  1.
         11    1    5    5    0    0 -0.13961343174E+03 -0.22526568239E+03  0.19092650702E+03  0.32663353941E+03  0.00000000000E+00 0. -1.
        -11    1    5    5    0    0 -0.23924498911E+03 -0.21349846381E+03  0.27761248762E+03  0.42413258793E+03  0.00000000000E+00 0.  1.
          3    1    6    6  503    0  0.30741812315E+02 -0.11392956404E+02  0.60670113781E+01  0.33341672230E+02  0.00000000000E+00 0. -1.
         -3    1    6    6    0  503  0.18025943889E+03  0.11325983950E+03 -0.13104621893E+03  0.24998873584E+03  0.00000000000E+00 0.  1.
<mgrwt>
<rscale>  0 0.13702363E+04</rscale>
<asrwt>0</asrwt>
<pdfrwt beam="1">  1        2 0.80535472E-01 0.13702363E+04</pdfrwt>
<pdfrwt beam="2">  1       -1 0.13794852E+00 0.13702363E+04</pdfrwt>
<totfact> 0.28356561E+01</totfact>
</mgrwt>
</event>
<event>
12    6  0.1627636E-007  0.2253082E+04  0.7818608E-02  0.8496653E-01
          2   -1    0    0  501    0  0.00000000000E+00  0.00000000000E+00  0.13821977179E+04  0.13821977179E+04  0.00000000000E+00 0. -1.
         -1   -1    0    0    0  501 -0.00000000000E+00 -0.00000000000E+00 -0.91817188702E+03  0.91817188702E+03  0.00000000000E+00 0.  1.
         24    2    1    2    0    0 -0.64518042715E+03  0.69015251238E+03  0.21581157034E+03  0.97236504251E+03  0.79692333833E+02 0.  0.
        254    2    1    2    0    0  0.64518042715E+03 -0.69015251238E+03  0.24821426056E+03  0.13280045624E+04  0.89967634447E+03 0.  0.
         23    2    4    4    0    0  0.46249716406E+03 -0.60085524394E+01 -0.16926312353E+03  0.50055747192E+03  0.89263924636E+02 0.  0.
         23    2    4    4    0    0  0.18268326309E+03 -0.68414395994E+03  0.41747738409E+03  0.82744709052E+03  0.94631859576E+02 0.  0.
          2    1    3    3  502    0 -0.21847227300E+03  0.24139578311E+03  0.36119696948E+02  0.32757699962E+03  0.00000000000E+00 0. -1.
         -1    1    3    3    0  502 -0.42670815415E+03  0.44875672927E+03  0.17969187339E+03  0.64478804289E+03  0.00000000000E+00 0.  1.
         11    1    5    5    0    0  0.35446711890E+03 -0.29876331982E+02 -0.15837760137E+03  0.38938797903E+03  0.00000000000E+00 0. -1.
        -11    1    5    5    0    0  0.10803004516E+03  0.23867779543E+02 -0.10885522159E+02  0.11116949289E+03  0.00000000000E+00 0.  1.
          2    1    6    6  503    0  0.14951113054E+03 -0.41780072725E+03  0.22791777025E+03  0.49885622763E+03  0.00000000000E+00 0. -1.
         -2    1    6    6    0  503  0.33172132553E+02 -0.26634323268E+03  0.18955961384E+03  0.32859086289E+03  0.00000000000E+00 0.  1.
<mgrwt>
<rscale>  0 0.22530824E+04</rscale>
<asrwt>0</asrwt>
<pdfrwt beam="1">  1        2 0.21264580E+00 0.22530824E+04</pdfrwt>
<pdfrwt beam="2">  1       -1 0.14125721E+00 0.22530824E+04</pdfrwt>
<totfact> 0.62908196E+00</totfact>
</mgrwt>
</event>
<event>
12    6  0.1627636E-007  0.1335719E+04  0.7818608E-02  0.9001710E-01
          2   -1    0    0  501    0  0.00000000000E+00  0.00000000000E+00  0.16424177290E+04  0.16424177290E+04  0.00000000000E+00 0. -1.
         -1   -1    0    0    0  501 -0.00000000000E+00 -0.00000000000E+00 -0.27157284393E+03  0.27157284393E+03  0.00000000000E+00 0.  1.
         24    2    1    2    0    0  0.35595184710E+03  0.69238288915E+02  0.33132164921E+03  0.49778357396E+03  0.80739043634E+02 0.  0.
        254    2    1    2    0    0 -0.35595184710E+03 -0.69238288915E+02  0.10395232359E+04  0.14162069990E+04  0.89080752574E+03 0.  0.
         23    2    4    4    0    0  0.15891581017E+03  0.24001303670E+03  0.58280067389E+03  0.65630686604E+03  0.90672953093E+02 0.  0.
         23    2    4    4    0    0 -0.51486765727E+03 -0.30925132561E+03  0.45672256199E+03  0.75990013294E+03  0.90153349971E+02 0.  0.
          2    1    3    3  502    0  0.30993570300E+03  0.82696316738E+02  0.30704252476E+03  0.44404271507E+03  0.00000000000E+00 0. -1.
         -1    1    3    3    0  502  0.46016144092E+02 -0.13458027823E+02  0.24279124453E+02  0.53740858889E+02  0.00000000000E+00 0.  1.
         11    1    5    5    0    0  0.40381131810E+02  0.20776044522E+02  0.15166205271E+03  0.15831505950E+03  0.00000000000E+00 0. -1.
        -11    1    5    5    0    0  0.11853467836E+03  0.21923699218E+03  0.43113862118E+03  0.49799180655E+03  0.00000000000E+00 0.  1.
          2    1    6    6  503    0 -0.21527418774E+03 -0.14151401927E+03  0.14218591345E+03  0.29425503826E+03  0.00000000000E+00 0. -1.
         -2    1    6    6    0  503 -0.29959346953E+03 -0.16773730634E+03  0.31453664854E+03  0.46564509468E+03  0.00000000000E+00 0.  1.
<mgrwt>
<rscale>  0 0.13357186E+04</rscale>
<asrwt>0</asrwt>
<pdfrwt beam="1">  1        2 0.25267964E+00 0.13357186E+04</pdfrwt>
<pdfrwt beam="2">  1       -1 0.41780438E-01 0.13357186E+04</pdfrwt>
<totfact> 0.66118904E+01</totfact>
</mgrwt>
</event>
<event>
12    6  0.1627636E-007  0.1959881E+04  0.7818608E-02  0.8625611E-01
          2   -1    0    0  501    0  0.00000000000E+00  0.00000000000E+00  0.16339413765E+04  0.16339413765E+04  0.00000000000E+00 0. -1.
         -1   -1    0    0    0  501 -0.00000000000E+00 -0.00000000000E+00 -0.58770974662E+03  0.58770974662E+03  0.00000000000E+00 0.  1.
         24    2    1    2    0    0 -0.27566398759E+02  0.59177484239E+03  0.76869266353E+03  0.97366251310E+03  0.78567856217E+02 0.  0.
        254    2    1    2    0    0  0.27566398759E+02 -0.59177484239E+03  0.27753896640E+03  0.12479886101E+04  0.10627748221E+04 0.  0.
         23    2    4    4    0    0 -0.73925637609E+02 -0.88500751350E+03  0.22229923437E+03  0.92001138245E+03  0.91108152146E+02 0.  0.
         23    2    4    4    0    0  0.10149203637E+03  0.29323267111E+03  0.55239732026E+02  0.32797722762E+03  0.90728170868E+02 0.  0.
          4    1    3    3  502    0 -0.38675357612E+02  0.55819702066E+03  0.69773480544E+03  0.89437886597E+03  0.00000000000E+00 0. -1.
         -3    1    3    3    0  502  0.11108958853E+02  0.33577821728E+02  0.70957858088E+02  0.79283647136E+02  0.00000000000E+00 0.  1.
         11    1    5    5    0    0 -0.61468123740E+02 -0.76499845806E+03  0.15900147462E+03  0.78376172400E+03  0.00000000000E+00 0. -1.
        -11    1    5    5    0    0 -0.12457513869E+02 -0.12000905544E+03  0.63297759746E+02  0.13624965845E+03  0.00000000000E+00 0.  1.
          1    1    6    6  503    0  0.10118696500E+03  0.25913099435E+03  0.19948276457E+02  0.27890071325E+03  0.00000000000E+00 0. -1.
         -1    1    6    6    0  503  0.30507137321E+00  0.34101676762E+02  0.35291455569E+02  0.49076514370E+02  0.00000000000E+00 0.  1.
<mgrwt>
<rscale>  0 0.19598809E+04</rscale>
<asrwt>0</asrwt>
<pdfrwt beam="1">  1        2 0.25137559E+00 0.19598809E+04</pdfrwt>
<pdfrwt beam="2">  1       -1 0.90416885E-01 0.19598809E+04</pdfrwt>
<totfact> 0.13551218E+01</totfact>
</mgrwt>
</event>
<event>
12    6  0.1627636E-007  0.1260720E+04  0.7818608E-02  0.9061308E-01
         -1   -1    0    0    0  501 -0.00000000000E+00  0.00000000000E+00  0.57006050726E+03  0.57006050726E+03  0.00000000000E+00 0.  1.
          2   -1    0    0  501    0  0.00000000000E+00 -0.00000000000E+00 -0.69703818252E+03  0.69703818252E+03  0.00000000000E+00 0. -1.
         24    2    1    2    0    0 -0.31499987870E+03  0.65655657796E+02 -0.12613768305E+02  0.33046925650E+03  0.74264617139E+02 0.  0.
        254    2    1    2    0    0  0.31499987870E+03 -0.65655657796E+02 -0.11436390696E+03  0.93662943328E+03  0.87215824429E+03 0.  0.
         23    2    4    4    0    0  0.28196196996E+03 -0.34651758615E+03 -0.33476880713E+03  0.56583827232E+03  0.92335292142E+02 0.  0.
         23    2    4    4    0    0  0.33037908737E+02  0.28086192835E+03  0.22040490017E+03  0.37079116096E+03  0.94513696425E+02 0.  0.
          2    1    3    3  502    0 -0.11854196235E+03  0.93252181171E+01  0.27854159879E+02  0.12212702712E+03  0.00000000000E+00 0. -1.
         -1    1    3    3    0  502 -0.19645791635E+03  0.56330439679E+02 -0.40467928184E+02  0.20834222938E+03  0.00000000000E+00 0.  1.
         11    1    5    5    0    0  0.22686869485E+03 -0.26292717369E+03 -0.30279341830E+03  0.46074283232E+03  0.00000000000E+00 0. -1.
        -11    1    5    5    0    0  0.55093275112E+02 -0.83590412461E+02 -0.31975388836E+02  0.10509544000E+03  0.00000000000E+00 0.  1.
          3    1    6    6  503    0 -0.11890092711E+02  0.22948285341E+03  0.16525391892E+03  0.28304171429E+03  0.00000000000E+00 0. -1.
         -3    1    6    6    0  503  0.44928001448E+02  0.51379074948E+02  0.55150981254E+02  0.87749446664E+02  0.00000000000E+00 0.  1.
<mgrwt>
<rscale>  0 0.12607203E+04</rscale>
<asrwt>0</asrwt>
<pdfrwt beam="1">  1        2 0.10723664E+00 0.12607203E+04</pdfrwt>
<pdfrwt beam="2">  1       -1 0.87701617E-01 0.12607203E+04</pdfrwt>
<totfact> 0.59162891E+01</totfact>
</mgrwt>
</event>
<event>
12    6  0.1627636E-007  0.2391550E+04  0.7818608E-02  0.8442674E-01
          2   -1    0    0  501    0  0.00000000000E+00  0.00000000000E+00  0.19380091682E+04  0.19380091682E+04  0.00000000000E+00 0. -1.
         -1   -1    0    0    0  501 -0.00000000000E+00 -0.00000000000E+00 -0.73780780440E+03  0.73780780440E+03  0.00000000000E+00 0.  1.
         24    2    1    2    0    0 -0.46432853118E+02  0.10202166711E+04  0.56768698559E+03  0.11709669981E+04  0.76792780310E+02 0.  0.
        254    2    1    2    0    0  0.46432853118E+02 -0.10202166711E+04  0.63251437822E+03  0.15048499746E+04  0.90636689116E+03 0.  0.
         23    2    4    4    0    0 -0.17279786716E+03 -0.75919346293E+03  0.79564671186E+03  0.11172817171E+04  0.95031195710E+02 0.  0.
         23    2    4    4    0    0  0.21923072028E+03 -0.26102320817E+03 -0.16313233364E+03  0.38756825748E+03  0.86033551626E+02 0.  0.
          2    1    3    3  502    0 -0.42066173696E+02  0.28620873678E+03  0.18218702728E+03  0.34187295431E+03  0.00000000000E+00 0. -1.
         -1    1    3    3    0  502 -0.43666794224E+01  0.73400793432E+03  0.38549995831E+03  0.82909404376E+03  0.00000000000E+00 0.  1.
         11    1    5    5    0    0  0.49641525062E+01 -0.13809156139E+03  0.13149412117E+03  0.19074754531E+03  0.00000000000E+00 0. -1.
        -11    1    5    5    0    0 -0.17776201967E+03 -0.62110190154E+03  0.66415259069E+03  0.92653417177E+03  0.00000000000E+00 0.  1.
          3    1    6    6  503    0 -0.71667987146E+01 -0.16657283630E+02 -0.12149174810E+02  0.21827289119E+02  0.00000000000E+00 0. -1.
         -3    1    6    6    0  503  0.22639751899E+03 -0.24436592454E+03 -0.15098315883E+03  0.36574096836E+03  0.00000000000E+00 0.  1.
<mgrwt>
<rscale>  0 0.23915504E+04</rscale>
<asrwt>0</asrwt>
<pdfrwt beam="1">  1        2 0.29815526E+00 0.23915504E+04</pdfrwt>
<pdfrwt beam="2">  1       -1 0.11350889E+00 0.23915504E+04</pdfrwt>
<totfact> 0.52460251E+00</totfact>
</mgrwt>
</event>
<event>
12    6  0.1627636E-007  0.1453954E+04  0.7818608E-02  0.8915664E-01
          2   -1    0    0  501    0  0.00000000000E+00  0.00000000000E+00  0.10810631385E+04  0.10810631385E+04  0.00000000000E+00 0. -1.
         -1   -1    0    0    0  501 -0.00000000000E+00 -0.00000000000E+00 -0.48886634823E+03  0.48886634823E+03  0.00000000000E+00 0.  1.
         24    2    1    2    0    0  0.20029881525E+03 -0.36116582843E+03  0.35406775138E+03  0.54973210687E+03  0.79253048761E+02 0.  0.
        254    2    1    2    0    0 -0.20029881525E+03  0.36116582843E+03  0.23812903890E+03  0.10201973799E+04  0.90196279507E+03 0.  0.
         23    2    4    4    0    0 -0.52479475912E+03  0.37917844361E+03  0.14044953790E+03  0.66892003877E+03  0.92423559070E+02 0.  0.
         23    2    4    4    0    0  0.32449594387E+03 -0.18012615179E+02  0.97679500998E+02  0.35127734109E+03  0.90732648774E+02 0.  0.
          4    1    3    3  502    0  0.14339888527E+03 -0.19237523533E+03  0.17353223512E+03  0.29611637592E+03  0.00000000000E+00 0. -1.
         -3    1    3    3    0  502  0.56899929983E+02 -0.16879059310E+03  0.18053551626E+03  0.25361573095E+03  0.00000000000E+00 0.  1.
         11    1    5    5    0    0 -0.65677809835E+02  0.19924342349E+02  0.32910587207E+02  0.76116101274E+02  0.00000000000E+00 0. -1.
        -11    1    5    5    0    0 -0.45911694929E+03  0.35925410126E+03  0.10753895070E+03  0.59280393750E+03  0.00000000000E+00 0.  1.
          1    1    6    6  503    0  0.16931886956E+03  0.35093030134E+02  0.40635429746E+02  0.17762780893E+03  0.00000000000E+00 0. -1.
         -1    1    6    6    0  503  0.15517707431E+03 -0.53105645313E+02  0.57044071252E+02  0.17364953217E+03  0.00000000000E+00 0.  1.
<mgrwt>
<rscale>  0 0.14539538E+04</rscale>
<asrwt>0</asrwt>
<pdfrwt beam="1">  1        2 0.16631741E+00 0.14539538E+04</pdfrwt>
<pdfrwt beam="2">  1       -1 0.75210208E-01 0.14539538E+04</pdfrwt>
<totfact> 0.44002708E+01</totfact>
</mgrwt>
</event>
<event>
12    6  0.1627636E-007  0.1241784E+04  0.7818608E-02  0.9077049E-01
          2   -1    0    0  501    0  0.00000000000E+00  0.00000000000E+00  0.26746889929E+04  0.26746889929E+04  0.00000000000E+00 0. -1.
         -1   -1    0    0    0  501 -0.00000000000E+00 -0.00000000000E+00 -0.14413156259E+03  0.14413156259E+03  0.00000000000E+00 0.  1.
         24    2    1    2    0    0  0.20782236409E+03  0.13345590728E+03  0.95451127812E+03  0.98916204764E+03  0.79681630395E+02 0.  0.
        254    2    1    2    0    0 -0.20782236409E+03 -0.13345590728E+03  0.15760461521E+04  0.18296585078E+04  0.89595098487E+03 0.  0.
         23    2    4    4    0    0 -0.24642580183E+03 -0.47841267199E+03  0.11477352992E+04  0.12708206437E+04  0.89913464225E+02 0.  0.
         23    2    4    4    0    0  0.38603437739E+02  0.34495676471E+03  0.42831085296E+03  0.55883786405E+03  0.91455872504E+02 0.  0.
          4    1    3    3  502    0  0.16161557026E+03  0.11973287669E+03  0.63664562184E+03  0.66766249117E+03  0.00000000000E+00 0. -1.
         -3    1    3    3    0  502  0.46206793832E+02  0.13723030596E+02  0.31786565629E+03  0.32149955647E+03  0.00000000000E+00 0.  1.
         11    1    5    5    0    0 -0.19108040812E+03 -0.31154788136E+03  0.84667028620E+03  0.92218456844E+03  0.00000000000E+00 0. -1.
        -11    1    5    5    0    0 -0.55345393709E+02 -0.16686479063E+03  0.30106501299E+03  0.34863607530E+03  0.00000000000E+00 0.  1.
          4    1    6    6  503    0  0.37539526322E+02  0.10908184787E+03  0.89513691654E+02  0.14601632294E+03  0.00000000000E+00 0. -1.
         -4    1    6    6    0  503  0.10639114172E+01  0.23587491684E+03  0.33879716130E+03  0.41282154112E+03  0.00000000000E+00 0.  1.
<mgrwt>
<rscale>  0 0.12417844E+04</rscale>
<asrwt>0</asrwt>
<pdfrwt beam="1">  1        2 0.41149058E+00 0.12417844E+04</pdfrwt>
<pdfrwt beam="2">  1       -1 0.22174089E-01 0.12417844E+04</pdfrwt>
<totfact> 0.53384891E+01</totfact>
</mgrwt>
</event>
<event>
12    6  0.1627636E-007  0.2778678E+04  0.7818608E-02  0.8309919E-01
          2   -1    0    0  501    0  0.00000000000E+00  0.00000000000E+00  0.27940539787E+04  0.27940539787E+04  0.00000000000E+00 0. -1.
         -1   -1    0    0    0  501 -0.00000000000E+00 -0.00000000000E+00 -0.69084685368E+03  0.69084685368E+03  0.00000000000E+00 0.  1.
         24    2    1    2    0    0  0.47891607078E+03  0.29909863047E+03 -0.44617399718E+03  0.72396588808E+03  0.78960608794E+02 0.  0.
        254    2    1    2    0    0 -0.47891607078E+03 -0.29909863047E+03  0.25493811222E+04  0.27609349443E+04  0.89699334827E+03 0.  0.
         23    2    4    4    0    0 -0.20615619678E+03  0.22290497400E+03  0.30948998585E+03  0.44310739372E+03  0.91504678162E+02 0.  0.
         23    2    4    4    0    0 -0.27275987400E+03 -0.52200360446E+03  0.22398911364E+04  0.23178275506E+04  0.91249874534E+02 0.  0.
          2    1    3    3  502    0  0.38116487076E+02  0.48568804654E+02 -0.33576376962E+02  0.70279217856E+02  0.00000000000E+00 0. -1.
         -1    1    3    3    0  502  0.44079958370E+03  0.25052982581E+03 -0.41259762022E+03  0.65368667022E+03  0.00000000000E+00 0.  1.
         11    1    5    5    0    0 -0.14307522388E+03  0.19398938487E+03  0.19872303337E+03  0.31239917593E+03  0.00000000000E+00 0. -1.
        -11    1    5    5    0    0 -0.63080972901E+02  0.28915589131E+02  0.11076695248E+03  0.13070821779E+03  0.00000000000E+00 0.  1.
          1    1    6    6  503    0 -0.22501426862E+03 -0.38094760819E+03  0.15415984434E+04  0.16038323671E+04  0.00000000000E+00 0. -1.
         -1    1    6    6    0  503 -0.47745605385E+02 -0.14105599627E+03  0.69829269298E+03  0.71399518344E+03  0.00000000000E+00 0.  1.
<mgrwt>
<rscale>  0 0.27786784E+04</rscale>
<asrwt>0</asrwt>
<pdfrwt beam="1">  1        2 0.42985445E+00 0.27786784E+04</pdfrwt>
<pdfrwt beam="2">  1       -1 0.10628413E+00 0.27786784E+04</pdfrwt>
<totfact> 0.19110425E+00</totfact>
</mgrwt>
</event>
<event>
12    6  0.1627636E-007  0.2257507E+04  0.7818608E-02  0.8494867E-01
         -1   -1    0    0    0  501 -0.00000000000E+00  0.00000000000E+00  0.62644206781E+03  0.62644206781E+03  0.00000000000E+00 0.  1.
          2   -1    0    0  501    0  0.00000000000E+00 -0.00000000000E+00 -0.20338419479E+04  0.20338419479E+04  0.00000000000E+00 0. -1.
         24    2    1    2    0    0 -0.79091704106E+03  0.50634983094E+03 -0.59254573861E+03  0.11135086487E+04  0.82771620385E+02 0.  0.
        254    2    1    2    0    0  0.79091704106E+03 -0.50634983094E+03 -0.81485414150E+03  0.15467753671E+04  0.92010154174E+03 0.  0.
         23    2    4    4    0    0 -0.44155300632E+02  0.94623588181E+00 -0.50934619123E+03  0.51930717355E+03  0.91081348506E+02 0.  0.
         23    2    4    4    0    0  0.83507234170E+03 -0.50729606682E+03 -0.30550795027E+03  0.10274681935E+04  0.87525229155E+02 0.  0.
          2    1    3    3  502    0 -0.10107841695E+03  0.97976990318E+02 -0.99237142267E+02  0.17223340968E+03  0.00000000000E+00 0. -1.
         -1    1    3    3    0  502 -0.68983862411E+03  0.40837284062E+03 -0.49330859634E+03  0.94127523897E+03  0.00000000000E+00 0.  1.
         11    1    5    5    0    0 -0.12859580208E+02 -0.29241185976E+02 -0.61005039001E+02  0.68862402978E+02  0.00000000000E+00 0. -1.
        -11    1    5    5    0    0 -0.31295720423E+02  0.30187421858E+02 -0.44834115223E+03  0.45044477057E+03  0.00000000000E+00 0.  1.
          3    1    6    6  503    0  0.12612121312E+02 -0.11154713085E+02 -0.18436162925E+02  0.24967685744E+02  0.00000000000E+00 0. -1.
         -3    1    6    6    0  503  0.82246022038E+03 -0.49614135373E+03 -0.28707178735E+03  0.10025005078E+04  0.00000000000E+00 0.  1.
<mgrwt>
<rscale>  0 0.22575067E+04</rscale>
<asrwt>0</asrwt>
<pdfrwt beam="1">  1        2 0.31289876E+00 0.22575067E+04</pdfrwt>
<pdfrwt beam="2">  1       -1 0.96375702E-01 0.22575067E+04</pdfrwt>
<totfact> 0.68659671E+00</totfact>
</mgrwt>
</event>
<event>
12    6  0.1627636E-007  0.1571455E+04  0.7818608E-02  0.8838279E-01
         -1   -1    0    0    0  501 -0.00000000000E+00  0.00000000000E+00  0.30683926851E+03  0.30683926851E+03  0.00000000000E+00 0.  1.
          2   -1    0    0  501    0  0.00000000000E+00 -0.00000000000E+00 -0.20120228656E+04  0.20120228656E+04  0.00000000000E+00 0. -1.
         24    2    1    2    0    0 -0.43640909536E+03 -0.20610980148E+03 -0.65914415342E+03  0.82095604603E+03  0.81016453497E+02 0.  0.
        254    2    1    2    0    0  0.43640909536E+03  0.20610980148E+03 -0.10460394437E+04  0.14979060881E+04  0.95738705978E+03 0.  0.
         23    2    4    4    0    0  0.58675916351E+03  0.39579893611E+03 -0.43801092546E+03  0.83725296991E+03  0.90530939519E+02 0.  0.
         23    2    4    4    0    0 -0.15035006815E+03 -0.18968913463E+03 -0.60802851820E+03  0.66065311817E+03  0.90425399169E+02 0.  0.
          2    1    3    3  502    0 -0.12872463089E+03 -0.24011606615E+02 -0.15511297227E+03  0.20299414281E+03  0.00000000000E+00 0. -1.
         -1    1    3    3    0  502 -0.30768446447E+03 -0.18209819487E+03 -0.50403118115E+03  0.61796190321E+03  0.00000000000E+00 0.  1.
         11    1    5    5    0    0  0.97925975267E+02  0.31500038054E+02 -0.79460967373E+02  0.12998382348E+03  0.00000000000E+00 0. -1.
        -11    1    5    5    0    0  0.48883318824E+03  0.36429889806E+03 -0.35854995809E+03  0.70726914643E+03  0.00000000000E+00 0.  1.
          3    1    6    6  503    0 -0.88871740876E+02 -0.57879545646E+02 -0.33378513410E+03  0.35022955883E+03  0.00000000000E+00 0. -1.
         -3    1    6    6    0  503 -0.61478327273E+02 -0.13180958898E+03 -0.27424338410E+03  0.31042355934E+03  0.00000000000E+00 0.  1.
<mgrwt>
<rscale>  0 0.15714549E+04</rscale>
<asrwt>0</asrwt>
<pdfrwt beam="1">  1        2 0.30954197E+00 0.15714549E+04</pdfrwt>
<pdfrwt beam="2">  1       -1 0.47206043E-01 0.15714549E+04</pdfrwt>
<totfact> 0.32246711E+01</totfact>
</mgrwt>
</event>
<event>
12    6  0.1627636E-007  0.1609887E+04  0.7818608E-02  0.8814497E-01
          2   -1    0    0  501    0  0.00000000000E+00  0.00000000000E+00  0.35366364177E+03  0.35366364177E+03  0.00000000000E+00 0. -1.
         -1   -1    0    0    0  501 -0.00000000000E+00 -0.00000000000E+00 -0.18320617761E+04  0.18320617761E+04  0.00000000000E+00 0.  1.
         24    2    1    2    0    0 -0.50883122201E+02 -0.94069382124E+02 -0.12442761336E+04  0.12513326407E+04  0.78562970492E+02 0.  0.
        254    2    1    2    0    0  0.50883122201E+02  0.94069382124E+02 -0.23412200067E+03  0.93439277708E+03  0.89824195509E+03 0.  0.
         23    2    4    4    0    0  0.22517440536E+03 -0.30900608388E+03 -0.28078269484E+03  0.48430950961E+03  0.97614070044E+02 0.  0.
         23    2    4    4    0    0 -0.17429128316E+03  0.40307546600E+03  0.46660694171E+02  0.45008326747E+03  0.86893294343E+02 0.  0.
          2    1    3    3  502    0  0.11804529165E+02 -0.36387803843E+02 -0.20266696654E+03  0.20624577209E+03  0.00000000000E+00 0. -1.
         -1    1    3    3    0  502 -0.62687651367E+02 -0.57681578281E+02 -0.10416091671E+04  0.10450868687E+04  0.00000000000E+00 0.  1.
         11    1    5    5    0    0  0.41961912293E+02 -0.89306505428E+01 -0.26840918319E+02  0.50606259480E+02  0.00000000000E+00 0. -1.
        -11    1    5    5    0    0  0.18321249307E+03 -0.30007543333E+03 -0.25394177652E+03  0.43370325013E+03  0.00000000000E+00 0.  1.
          4    1    6    6  503    0 -0.10542842733E+03  0.14879040844E+03 -0.10188703311E+01  0.18235892363E+03  0.00000000000E+00 0. -1.
         -4    1    6    6    0  503 -0.68862855828E+02  0.25428505756E+03  0.47679564502E+02  0.26772434384E+03  0.00000000000E+00 0.  1.
<mgrwt>
<rscale>  0 0.16098865E+04</rscale>
<asrwt>0</asrwt>
<pdfrwt beam="1">  1        2 0.54409790E-01 0.16098865E+04</pdfrwt>
<pdfrwt beam="2">  1       -1 0.28185566E+00 0.16098865E+04</pdfrwt>
<totfact> 0.43409340E+00</totfact>
</mgrwt>
</event>
<event>
12    6  0.1627636E-007  0.1691525E+04  0.7818608E-02  0.8766213E-01
         -1   -1    0    0    0  501 -0.00000000000E+00  0.00000000000E+00  0.61068792769E+03  0.61068792769E+03  0.00000000000E+00 0.  1.
          2   -1    0    0  501    0  0.00000000000E+00 -0.00000000000E+00 -0.11713247757E+04  0.11713247757E+04  0.00000000000E+00 0. -1.
         24    2    1    2    0    0  0.34839095090E+03  0.28802964057E+02  0.30694992340E+03  0.47205698229E+03  0.80085414719E+02 0.  0.
        254    2    1    2    0    0 -0.34839095090E+03 -0.28802964057E+02 -0.86758677142E+03  0.13099557211E+04  0.91709940570E+03 0.  0.
         23    2    4    4    0    0 -0.61874287274E+03  0.64630243292E+02 -0.37042577317E+03  0.72925685246E+03  0.87066023887E+02 0.  0.
         23    2    4    4    0    0  0.27035192184E+03 -0.93433207349E+02 -0.49716099825E+03  0.58069886866E+03  0.90676303376E+02 0.  0.
          4    1    3    3  502    0  0.36337192036E+02 -0.13221906988E+02  0.62248297219E+02  0.73280699070E+02  0.00000000000E+00 0. -1.
         -3    1    3    3    0  502  0.31205375886E+03  0.42024871045E+02  0.24470162618E+03  0.39877628322E+03  0.00000000000E+00 0.  1.
         11    1    5    5    0    0 -0.24328412499E+02  0.42297811176E+01 -0.38594029308E+02  0.45817701833E+02  0.00000000000E+00 0. -1.
        -11    1    5    5    0    0 -0.59441446024E+03  0.60400462174E+02 -0.33183174386E+03  0.68343915062E+03  0.00000000000E+00 0.  1.
          4    1    6    6  503    0  0.17247482713E+03 -0.90854905693E+02 -0.26712969787E+03  0.33069692373E+03  0.00000000000E+00 0. -1.
         -4    1    6    6    0  503  0.97877094711E+02 -0.25783016559E+01 -0.23003130039E+03  0.25000194493E+03  0.00000000000E+00 0.  1.
<mgrwt>
<rscale>  0 0.16915246E+04</rscale>
<asrwt>0</asrwt>
<pdfrwt beam="1">  1        2 0.18020381E+00 0.16915246E+04</pdfrwt>
<pdfrwt beam="2">  1       -1 0.93951990E-01 0.16915246E+04</pdfrwt>
<totfact> 0.23494299E+01</totfact>
</mgrwt>
</event>
<event>
12    6  0.1627636E-007  0.2355191E+04  0.7818608E-02  0.8456472E-01
          2   -1    0    0  501    0  0.00000000000E+00  0.00000000000E+00  0.21329001903E+04  0.21329001903E+04  0.00000000000E+00 0. -1.
         -1   -1    0    0    0  501 -0.00000000000E+00 -0.00000000000E+00 -0.65016223833E+03  0.65016223833E+03  0.00000000000E+00 0.  1.
         24    2    1    2    0    0 -0.34698092638E+03 -0.27640933661E+03  0.16799790228E+04  0.17391582969E+04  0.74459252344E+02 0.  0.
        254    2    1    2    0    0  0.34698092638E+03  0.27640933661E+03 -0.19724107084E+03  0.10439041316E+04  0.92413955190E+03 0.  0.
         23    2    4    4    0    0  0.63688708085E+03  0.26411668601E+03 -0.24440630241E+03  0.73716014031E+03  0.91037652747E+02 0.  0.
         23    2    4    4    0    0 -0.28990615447E+03  0.12292650594E+02  0.47165231572E+02  0.30674399133E+03  0.87582129964E+02 0.  0.
          4    1    3    3  502    0 -0.15769520084E+03 -0.10361173445E+03  0.58932806073E+03  0.61879781112E+03  0.00000000000E+00 0. -1.
         -3    1    3    3    0  502 -0.18928572554E+03 -0.17279760215E+03  0.10906509620E+04  0.11203604858E+04  0.00000000000E+00 0.  1.
         11    1    5    5    0    0  0.16426180431E+03  0.10111207155E+03 -0.39710052418E+02  0.19693267792E+03  0.00000000000E+00 0.  1.
        -11    1    5    5    0    0  0.47262527654E+03  0.16300461446E+03 -0.20469625000E+03  0.54022746239E+03  0.00000000000E+00 0. -1.
          1    1    6    6  503    0 -0.15963853765E+03  0.16920864181E+02  0.68721749341E+02  0.17462375892E+03  0.00000000000E+00 0. -1.
         -1    1    6    6    0  503 -0.13026761682E+03 -0.46282135866E+01 -0.21556517769E+02  0.13212023241E+03  0.00000000000E+00 0.  1.
<mgrwt>
<rscale>  0 0.23551910E+04</rscale>
<asrwt>0</asrwt>
<pdfrwt beam="1">  1        2 0.32813849E+00 0.23551910E+04</pdfrwt>
<pdfrwt beam="2">  1       -1 0.10002496E+00 0.23551910E+04</pdfrwt>
<totfact> 0.55090236E+00</totfact>
</mgrwt>
</event>
<event>
12    6  0.1627636E-007  0.2274196E+04  0.7818608E-02  0.8488165E-01
          2   -1    0    0  501    0  0.00000000000E+00  0.00000000000E+00  0.26099260414E+04  0.26099260414E+04  0.00000000000E+00 0. -1.
         -1   -1    0    0    0  501 -0.00000000000E+00 -0.00000000000E+00 -0.49541323806E+03  0.49541323806E+03  0.00000000000E+00 0.  1.
         24    2    1    2    0    0 -0.55820910405E+03 -0.44620014026E+03  0.17463719454E+04  0.18886540154E+04  0.80666281610E+02 0.  0.
        254    2    1    2    0    0  0.55820910405E+03  0.44620014026E+03  0.36814085793E+03  0.12166852641E+04  0.91329259911E+03 0.  0.
         23    2    4    4    0    0 -0.16609976161E+03  0.20769186687E+03  0.34911614850E+03  0.44834521375E+03  0.91685894090E+02 0.  0.
         23    2    4    4    0    0  0.72430886566E+03  0.23850827339E+03  0.19024709434E+02  0.76834005036E+03  0.92059568040E+02 0.  0.
          2    1    3    3  502    0 -0.55690404680E+03 -0.44548077116E+03  0.17470605628E+04  0.18870124125E+04  0.00000000000E+00 0. -1.
         -1    1    3    3    0  502 -0.13050572546E+01 -0.71936910000E+00 -0.68861732381E+00  0.16416029235E+01  0.00000000000E+00 0.  1.
         11    1    5    5    0    0  0.75812962068E+00  0.19220193880E+02  0.16838513219E+01  0.19308701888E+02  0.00000000000E+00 0. -1.
        -11    1    5    5    0    0 -0.16685789123E+03  0.18847167299E+03  0.34743229718E+03  0.42903651186E+03  0.00000000000E+00 0.  1.
          2    1    6    6  503    0  0.14010031009E+03  0.57119867267E+02 -0.31484962567E+02  0.15453827679E+03  0.00000000000E+00 0. -1.
         -2    1    6    6    0  503  0.58420855557E+03  0.18138840612E+03  0.50509672001E+02  0.61380177357E+03  0.00000000000E+00 0.  1.
<mgrwt>
<rscale>  0 0.22741960E+04</rscale>
<asrwt>0</asrwt>
<pdfrwt beam="1">  1        2 0.40152708E+00 0.22741960E+04</pdfrwt>
<pdfrwt beam="2">  1       -1 0.76217423E-01 0.22741960E+04</pdfrwt>
<totfact> 0.53654896E+00</totfact>
</mgrwt>
</event>
<event>
12    6  0.1627636E-007  0.2021779E+04  0.7818608E-02  0.8596505E-01
         -1   -1    0    0    0  501 -0.00000000000E+00  0.00000000000E+00  0.28165624040E+04  0.28165624040E+04  0.00000000000E+00 0.  1.
          2   -1    0    0  501    0  0.00000000000E+00 -0.00000000000E+00 -0.36281731524E+03  0.36281731524E+03  0.00000000000E+00 0. -1.
         24    2    1    2    0    0  0.80127059571E+02 -0.77953602462E+03  0.67509907613E+03  0.10370774913E+04  0.75327292781E+02 0.  0.
        254    2    1    2    0    0 -0.80127059571E+02  0.77953602462E+03  0.17786460126E+04  0.21423022279E+04  0.90098858936E+03 0.  0.
         23    2    4    4    0    0 -0.57985770433E+01  0.22870650844E+03 -0.32080722001E+02  0.24598219996E+03  0.84485380242E+02 0.  0.
         23    2    4    4    0    0 -0.74328482528E+02  0.55082951618E+03  0.18107267346E+04  0.18963200279E+04  0.91435560546E+02 0.  0.
          2    1    3    3  502    0  0.88282724199E+02 -0.75081223837E+03  0.63633919515E+03  0.98815000276E+03  0.00000000000E+00 0. -1.
         -1    1    3    3    0  502 -0.81556646277E+01 -0.28723786249E+02  0.38759880976E+02  0.48927488544E+02  0.00000000000E+00 0.  1.
         11    1    5    5    0    0  0.26461939028E+02  0.16524886878E+03  0.12953720959E+01  0.16735919706E+03  0.00000000000E+00 0. -1.
        -11    1    5    5    0    0 -0.32260516072E+02  0.63457639655E+02 -0.33376094097E+02  0.78623002900E+02  0.00000000000E+00 0.  1.
          1    1    6    6  503    0 -0.68790211993E+02  0.21281213042E+03  0.79138453330E+03  0.82238104043E+03  0.00000000000E+00 0. -1.
         -1    1    6    6    0  503 -0.55382705346E+01  0.33801738576E+03  0.10193422013E+04  0.10739389875E+04  0.00000000000E+00 0.  1.
<mgrwt>
<rscale>  0 0.20217790E+04</rscale>
<asrwt>0</asrwt>
<pdfrwt beam="1">  1        2 0.55818050E-01 0.20217790E+04</pdfrwt>
<pdfrwt beam="2">  1       -1 0.43331728E+00 0.20217790E+04</pdfrwt>
<totfact> 0.39745159E-01</totfact>
</mgrwt>
</event>
<event>
12    6  0.1627636E-007  0.1197322E+04  0.7818608E-02  0.9115204E-01
         -1   -1    0    0    0  501 -0.00000000000E+00  0.00000000000E+00  0.25078034566E+03  0.25078034566E+03  0.00000000000E+00 0.  1.
          2   -1    0    0  501    0  0.00000000000E+00 -0.00000000000E+00 -0.14291185277E+04  0.14291185277E+04  0.00000000000E+00 0. -1.
         24    2    1    2    0    0 -0.13828870796E+02 -0.16389237546E+03 -0.57420911892E+03  0.60262432553E+03  0.79925071555E+02 0.  0.
        254    2    1    2    0    0  0.13828870796E+02  0.16389237546E+03 -0.60412906308E+03  0.10772745478E+04  0.87663936603E+03 0.  0.
         23    2    4    4    0    0  0.21470468186E+03 -0.29372322153E+03 -0.18352971181E+03  0.41755958163E+03  0.91112116734E+02 0.  0.
         23    2    4    4    0    0 -0.20087581107E+03  0.45761559699E+03 -0.42059935127E+03  0.65971496617E+03  0.92503492977E+02 0.  0.
          4    1    3    3  502    0 -0.16162442057E+01 -0.16944077126E+03 -0.53306263457E+03  0.55934654695E+03  0.00000000000E+00 0. -1.
         -3    1    3    3    0  502 -0.12212626590E+02  0.55483957968E+01 -0.41146484357E+02  0.43277778583E+02  0.00000000000E+00 0.  1.
         11    1    5    5    0    0  0.11262472148E+03 -0.20781121497E+03 -0.15014934248E+03  0.28002616665E+03  0.00000000000E+00 0. -1.
        -11    1    5    5    0    0  0.10207996038E+03 -0.85912006558E+02 -0.33380369330E+02  0.13753341499E+03  0.00000000000E+00 0.  1.
          1    1    6    6  503    0 -0.19105850101E+03  0.37107148732E+03 -0.31540458596E+03  0.52314190460E+03  0.00000000000E+00 0. -1.
         -1    1    6    6    0  503 -0.98173100610E+01  0.86544109675E+02 -0.10519476531E+03  0.13657306156E+03  0.00000000000E+00 0.  1.
<mgrwt>
<rscale>  0 0.11973217E+04</rscale>
<asrwt>0</asrwt>
<pdfrwt beam="1">  1        2 0.21986438E+00 0.11973217E+04</pdfrwt>
<pdfrwt beam="2">  1       -1 0.38581592E-01 0.11973217E+04</pdfrwt>
<totfact> 0.10184484E+02</totfact>
</mgrwt>
</event>
<event>
12    6  0.1627636E-007  0.1991960E+04  0.7818608E-02  0.8610389E-01
         -1   -1    0    0    0  501 -0.00000000000E+00  0.00000000000E+00  0.10446281131E+04  0.10446281131E+04  0.00000000000E+00 0.  1.
          2   -1    0    0  501    0  0.00000000000E+00 -0.00000000000E+00 -0.94959734776E+03  0.94959734776E+03  0.00000000000E+00 0. -1.
         24    2    1    2    0    0  0.13541420472E+03 -0.77289022215E+03  0.22216665349E+02  0.78901677366E+03  0.79734475407E+02 0.  0.
        254    2    1    2    0    0 -0.13541420472E+03  0.77289022215E+03  0.72814099968E+02  0.12052086872E+04  0.91188254954E+03 0.  0.
         23    2    4    4    0    0  0.51330945303E+02 -0.45787776431E+02  0.30844604460E+03  0.32883066665E+03  0.90880462596E+02 0.  0.
         23    2    4    4    0    0 -0.18674515002E+03  0.81867799858E+03 -0.23563194463E+03  0.87637802052E+03  0.86073254348E+02 0.  0.
          4    1    3    3  502    0 -0.51449712758E+01 -0.77104477524E+02  0.17155952745E+02  0.79157424783E+02  0.00000000000E+00 0. -1.
         -3    1    3    3    0  502  0.14055917600E+03 -0.69578574462E+03  0.50607126039E+01  0.70985934888E+03  0.00000000000E+00 0.  1.
         11    1    5    5    0    0 -0.16890312106E+02 -0.38600983324E+02  0.81554473786E+02  0.91795701158E+02  0.00000000000E+00 0. -1.
        -11    1    5    5    0    0  0.68221257409E+02 -0.71867931068E+01  0.22689157082E+03  0.23703496549E+03  0.00000000000E+00 0.  1.
          1    1    6    6  503    0 -0.55053396475E+02  0.43414820166E+03 -0.12563568580E+03  0.45530194708E+03  0.00000000000E+00 0. -1.
         -1    1    6    6    0  503 -0.13169175355E+03  0.38452979691E+03 -0.10999625883E+03  0.42107607344E+03  0.00000000000E+00 0.  1.
<mgrwt>
<rscale>  0 0.19919599E+04</rscale>
<asrwt>0</asrwt>
<pdfrwt beam="1">  1        2 0.14609190E+00 0.19919599E+04</pdfrwt>
<pdfrwt beam="2">  1       -1 0.16071202E+00 0.19919599E+04</pdfrwt>
<totfact> 0.83165837E+00</totfact>
</mgrwt>
</event>
<event>
12    6  0.1627636E-007  0.2027516E+04  0.7818608E-02  0.8593863E-01
          2   -1    0    0  501    0  0.00000000000E+00  0.00000000000E+00  0.25964642464E+04  0.25964642464E+04  0.00000000000E+00 0. -1.
         -3   -1    0    0    0  501 -0.00000000000E+00 -0.00000000000E+00 -0.39580963556E+03  0.39580963556E+03  0.00000000000E+00 0.  1.
         24    2    1    2    0    0  0.35645114802E+03 -0.72229646556E+03  0.68482079949E+03  0.10602051728E+04  0.79283516176E+02 0.  0.
        254    2    1    2    0    0 -0.35645114802E+03  0.72229646556E+03  0.15158338113E+04  0.19320687092E+04  0.88677378635E+03 0.  0.
         23    2    4    4    0    0 -0.30681926630E+03  0.33908234272E+03  0.14581979882E+04  0.15309696944E+04  0.91716600870E+02 0.  0.
         23    2    4    4    0    0 -0.49631881726E+02  0.38321412284E+03  0.57635823118E+02  0.40109901478E+03  0.90786254064E+02 0.  0.
          2    1    3    3  502    0  0.25540975964E+03 -0.46433051078E+03  0.48756404600E+03  0.72010809432E+03  0.00000000000E+00 0. -1.
         -1    1    3    3    0  502  0.10104138839E+03 -0.25796595478E+03  0.19725675349E+03  0.34009707848E+03  0.00000000000E+00 0.  1.
         11    1    5    5    0    0 -0.60577578677E+02  0.31471970281E+02  0.29683277612E+03  0.30458139295E+03  0.00000000000E+00 0.  1.
        -11    1    5    5    0    0 -0.24624168762E+03  0.30761037244E+03  0.11613652121E+04  0.12263883014E+04  0.00000000000E+00 0. -1.
          3    1    6    6  503    0 -0.48477441144E+02  0.35670216530E+03  0.77154584694E+02  0.36815666090E+03  0.00000000000E+00 0. -1.
         -3    1    6    6    0  503 -0.11544405821E+01  0.26511957541E+02 -0.19518761576E+02  0.32942353881E+02  0.00000000000E+00 0.  1.
<mgrwt>
<rscale>  0 0.20275163E+04</rscale>
<asrwt>0</asrwt>
<pdfrwt beam="1">  1        2 0.39945603E+00 0.20275163E+04</pdfrwt>
<pdfrwt beam="2">  1       -3 0.60893792E-01 0.20275163E+04</pdfrwt>
<totfact> 0.47991165E+00</totfact>
</mgrwt>
</event>
<event>
12    6  0.1627636E-007  0.1362646E+04  0.7818608E-02  0.8981310E-01
          2   -1    0    0  501    0  0.00000000000E+00  0.00000000000E+00  0.25079262110E+04  0.25079262110E+04  0.00000000000E+00 0. -1.
         -1   -1    0    0    0  501 -0.00000000000E+00 -0.00000000000E+00 -0.18509354106E+03  0.18509354106E+03  0.00000000000E+00 0.  1.
         24    2    1    2    0    0 -0.11336792749E+02  0.32714423266E+03  0.28714149811E+03  0.44246920516E+03  0.78593166061E+02 0.  0.
        254    2    1    2    0    0  0.11336792749E+02 -0.32714423266E+03  0.20356911718E+04  0.22505505469E+04  0.90210162686E+03 0.  0.
         23    2    4    4    0    0 -0.24549086407E+03 -0.54651539441E+03  0.13822933833E+04  0.15093432970E+04  0.91855049819E+02 0.  0.
         23    2    4    4    0    0  0.25682765682E+03  0.21937116175E+03  0.65339778853E+03  0.74120724983E+03  0.91517021532E+02 0.  0.
          2    1    3    3  502    0 -0.39467656638E+00  0.11598468943E+03  0.15327390741E+03  0.19221210848E+03  0.00000000000E+00 0. -1.
         -1    1    3    3    0  502 -0.10942116182E+02  0.21115954323E+03  0.13386759069E+03  0.25025709669E+03  0.00000000000E+00 0.  1.
         11    1    5    5    0    0 -0.18107663070E+03 -0.36828353333E+03  0.84005091004E+03  0.93493691690E+03  0.00000000000E+00 0. -1.
        -11    1    5    5    0    0 -0.64414233368E+02 -0.17823186108E+03  0.54224247322E+03  0.57440638012E+03  0.00000000000E+00 0.  1.
          1    1    6    6  503    0  0.85385357544E+02  0.31410480459E+02  0.22883580583E+03  0.24625820513E+03  0.00000000000E+00 0. -1.
         -1    1    6    6    0  503  0.17144229928E+03  0.18796068129E+03  0.42456198270E+03  0.49494904470E+03  0.00000000000E+00 0.  1.
<mgrwt>
<rscale>  0 0.13626459E+04</rscale>
<asrwt>0</asrwt>
<pdfrwt beam="1">  1        2 0.38583478E+00 0.13626459E+04</pdfrwt>
<pdfrwt beam="2">  1       -1 0.28475931E-01 0.13626459E+04</pdfrwt>
<totfact> 0.42978770E+01</totfact>
</mgrwt>
</event>
<event>
12    6  0.1627636E-007  0.2599624E+04  0.7818608E-02  0.8368329E-01
         -1   -1    0    0    0  501 -0.00000000000E+00  0.00000000000E+00  0.13189409970E+04  0.13189409970E+04  0.00000000000E+00 0.  1.
          2   -1    0    0  501    0  0.00000000000E+00 -0.00000000000E+00 -0.12809607624E+04  0.12809607624E+04  0.00000000000E+00 0. -1.
         24    2    1    2    0    0 -0.68894760172E+03  0.35730480836E+03  0.85156714571E+03  0.11549350836E+04  0.79955735570E+02 0.  0.
        254    2    1    2    0    0  0.68894760172E+03 -0.35730480836E+03 -0.81358691115E+03  0.14449666758E+04  0.90757341753E+03 0.  0.
         23    2    4    4    0    0  0.18506120043E+03  0.26979383350E+03 -0.43190534343E+03  0.54868333095E+03  0.86456992047E+02 0.  0.
         23    2    4    4    0    0  0.50388640128E+03 -0.62709864186E+03 -0.38168156772E+03  0.89628334486E+03  0.10241485787E+03 0.  0.
          4    1    3    3  502    0 -0.12782607917E+02 -0.37936114674E+01  0.10589942797E+02  0.17027432031E+02  0.00000000000E+00 0. -1.
         -3    1    3    3    0  502 -0.67616499380E+03  0.36109841983E+03  0.84097720291E+03  0.11379076515E+04  0.00000000000E+00 0.  1.
         11    1    5    5    0    0  0.15702216306E+03  0.21630839550E+03 -0.39800269209E+03  0.47942822671E+03  0.00000000000E+00 0.  1.
        -11    1    5    5    0    0  0.28039037370E+02  0.53485438002E+02 -0.33902651344E+02  0.69255104239E+02  0.00000000000E+00 0. -1.
          2    1    6    6  503    0  0.28565933881E+03 -0.30990805395E+03 -0.24627932930E+03  0.48815752355E+03  0.00000000000E+00 0. -1.
         -2    1    6    6    0  503  0.21822706248E+03 -0.31719058791E+03 -0.13540223842E+03  0.40812582131E+03  0.00000000000E+00 0.  1.
<mgrwt>
<rscale>  0 0.25996243E+04</rscale>
<asrwt>0</asrwt>
<pdfrwt beam="1">  1        2 0.19707089E+00 0.25996243E+04</pdfrwt>
<pdfrwt beam="2">  1       -1 0.20291400E+00 0.25996243E+04</pdfrwt>
<totfact> 0.24567566E+00</totfact>
</mgrwt>
</event>
<event>
12    6  0.1627636E-007  0.1871666E+04  0.7818608E-02  0.8669090E-01
          2   -1    0    0  501    0  0.00000000000E+00  0.00000000000E+00  0.24207036478E+04  0.24207036478E+04  0.00000000000E+00 0. -1.
         -1   -1    0    0    0  501 -0.00000000000E+00 -0.00000000000E+00 -0.36178894178E+03  0.36178894178E+03  0.00000000000E+00 0.  1.
         24    2    1    2    0    0 -0.37485639011E+03  0.17573700094E+03 -0.62156462839E+02  0.42607980605E+03  0.79244990648E+02 0.  0.
        254    2    1    2    0    0  0.37485639011E+03 -0.17573700094E+03  0.21210711689E+04  0.23564127836E+04  0.93932821544E+03 0.  0.
         23    2    4    4    0    0 -0.26849536744E+03 -0.78221102225E+01  0.10889936329E+04  0.11252812341E+04  0.90552612244E+02 0.  0.
         23    2    4    4    0    0  0.64335175755E+03 -0.16791489071E+03  0.10320775360E+04  0.12311315495E+04  0.91673100200E+02 0.  0.
          2    1    3    3  502    0 -0.18075633567E+03  0.12784799331E+03 -0.26086864876E+02  0.22293157425E+03  0.00000000000E+00 0. -1.
         -1    1    3    3    0  502 -0.19410005444E+03  0.47889007630E+02 -0.36069597963E+02  0.20314823180E+03  0.00000000000E+00 0.  1.
         11    1    5    5    0    0 -0.18379298205E+02  0.46749869553E+01  0.20897268525E+02  0.28219672879E+02  0.00000000000E+00 0. -1.
        -11    1    5    5    0    0 -0.25011606923E+03 -0.12497097178E+02  0.10680963644E+04  0.10970615612E+04  0.00000000000E+00 0.  1.
          1    1    6    6  503    0  0.26397492028E+03 -0.11431001738E+03  0.42200405598E+03  0.51072200058E+03  0.00000000000E+00 0. -1.
         -1    1    6    6    0  503  0.37937683727E+03 -0.53604873338E+02  0.61007348002E+03  0.72040954889E+03  0.00000000000E+00 0.  1.
<mgrwt>
<rscale>  0 0.18716664E+04</rscale>
<asrwt>0</asrwt>
<pdfrwt beam="1">  1        2 0.37241594E+00 0.18716664E+04</pdfrwt>
<pdfrwt beam="2">  1       -1 0.55659839E-01 0.18716664E+04</pdfrwt>
<totfact> 0.13504279E+01</totfact>
</mgrwt>
</event>
<event>
12    6  0.1627636E-007  0.1806996E+04  0.7818608E-02  0.8702588E-01
         -3   -1    0    0    0  501 -0.00000000000E+00  0.00000000000E+00  0.40827742743E+03  0.40827742743E+03  0.00000000000E+00 0.  1.
          2   -1    0    0  501    0  0.00000000000E+00 -0.00000000000E+00 -0.19993960349E+04  0.19993960349E+04  0.00000000000E+00 0. -1.
         24    2    1    2    0    0 -0.12114531311E+03  0.45863190546E+03 -0.12478901315E+04  0.13372432508E+04  0.77267844896E+02 0.  0.
        254    2    1    2    0    0  0.12114531311E+03 -0.45863190546E+03 -0.34322847598E+03  0.10704302116E+04  0.89610023966E+03 0.  0.
         23    2    4    4    0    0  0.38676524694E+03  0.78785837695E+02 -0.17345909291E+03  0.44055507907E+03  0.90587837608E+02 0.  0.
         23    2    4    4    0    0 -0.26561993383E+03 -0.53741774315E+03 -0.16976938307E+03  0.62987513250E+03  0.92462204220E+02 0.  0.
          4    1    3    3  502    0 -0.51821950135E+02  0.32260011337E+03 -0.89337321140E+03  0.95124762418E+03  0.00000000000E+00 0. -1.
         -3    1    3    3    0  502 -0.69323362970E+02  0.13603179209E+03 -0.35451692010E+03  0.38599562659E+03  0.00000000000E+00 0.  1.
         11    1    5    5    0    0  0.65348410656E+00 -0.14260478154E+01  0.67825748826E+01  0.69616072776E+01  0.00000000000E+00 0. -1.
        -11    1    5    5    0    0  0.38611176283E+03  0.80211885510E+02 -0.18024166779E+03  0.43359347179E+03  0.00000000000E+00 0.  1.
          2    1    6    6  503    0 -0.49440490827E+02 -0.18600874957E+03 -0.33407336045E+02  0.19534499520E+03  0.00000000000E+00 0. -1.
         -2    1    6    6    0  503 -0.21617944300E+03 -0.35140899358E+03 -0.13636204703E+03  0.43453013729E+03  0.00000000000E+00 0.  1.
<mgrwt>
<rscale>  0 0.18069956E+04</rscale>
<asrwt>0</asrwt>
<pdfrwt beam="1">  1        2 0.30759940E+00 0.18069956E+04</pdfrwt>
<pdfrwt beam="2">  1       -3 0.62811910E-01 0.18069956E+04</pdfrwt>
<totfact> 0.99629019E+00</totfact>
</mgrwt>
</event>
<event>
12    6  0.1627636E-007  0.1474297E+04  0.7818608E-02  0.8901727E-01
          2   -1    0    0  501    0  0.00000000000E+00  0.00000000000E+00  0.52655744982E+03  0.52655744982E+03  0.00000000000E+00 0. -1.
         -1   -1    0    0    0  501 -0.00000000000E+00 -0.00000000000E+00 -0.10319628984E+04  0.10319628984E+04  0.00000000000E+00 0.  1.
         24    2    1    2    0    0 -0.22766609752E+03  0.15951618358E+03 -0.56443463896E+03  0.63409730665E+03  0.78839506962E+02 0.  0.
        254    2    1    2    0    0  0.22766609752E+03 -0.15951618358E+03  0.59029190396E+02  0.92442304155E+03  0.87965689314E+03 0.  0.
         23    2    4    4    0    0  0.35029689225E+03  0.26605117340E+03 -0.69070188818E+02  0.45447698650E+03  0.91035711073E+02 0.  0.
         23    2    4    4    0    0 -0.12263079473E+03 -0.42556735697E+03  0.12809937921E+03  0.46994605505E+03  0.91071162076E+02 0.  0.
          4    1    3    3  502    0 -0.69789642961E+02  0.92507138886E+02 -0.19586383802E+03  0.22757593909E+03  0.00000000000E+00 0. -1.
         -3    1    3    3    0  502 -0.15787645456E+03  0.67009044689E+02 -0.36857080094E+03  0.40652136756E+03  0.00000000000E+00 0.  1.
         11    1    5    5    0    0  0.14718410008E+03  0.15297283968E+03 -0.64862118846E+02  0.22197059143E+03  0.00000000000E+00 0. -1.
        -11    1    5    5    0    0  0.20311279217E+03  0.11307833372E+03 -0.42080699720E+01  0.23250639508E+03  0.00000000000E+00 0.  1.
          1    1    6    6  503    0 -0.11854080443E+03 -0.42505488595E+03  0.13538407377E+03  0.46157602387E+03  0.00000000000E+00 0. -1.
         -1    1    6    6    0  503 -0.40899903022E+01 -0.51247102920E+00 -0.72846945525E+01  0.83700311799E+01  0.00000000000E+00 0.  1.
<mgrwt>
<rscale>  0 0.14742968E+04</rscale>
<asrwt>0</asrwt>
<pdfrwt beam="1">  1        2 0.81008839E-01 0.14742968E+04</pdfrwt>
<pdfrwt beam="2">  1       -1 0.15876352E+00 0.14742968E+04</pdfrwt>
<totfact> 0.19153877E+01</totfact>
</mgrwt>
</event>
<event>
12    6  0.1627636E-007  0.1480215E+04  0.7818608E-02  0.8897718E-01
          2   -1    0    0  501    0  0.00000000000E+00  0.00000000000E+00  0.32958614367E+04  0.32958614367E+04  0.00000000000E+00 0. -1.
         -3   -1    0    0    0  501 -0.00000000000E+00 -0.00000000000E+00 -0.16619595992E+03  0.16619595992E+03  0.00000000000E+00 0.  1.
         24    2    1    2    0    0  0.22005320542E+03 -0.38443165227E+03  0.68541794422E+03  0.81981532216E+03  0.78027531725E+02 0.  0.
        254    2    1    2    0    0 -0.22005320542E+03  0.38443165227E+03  0.24442475326E+04  0.26422420745E+04  0.90049212718E+03 0.  0.
         23    2    4    4    0    0  0.41274107716E+01  0.36069187163E+03  0.28383793500E+03  0.46820427533E+03  0.92388355958E+02 0.  0.
         23    2    4    4    0    0 -0.22418061619E+03  0.23739780643E+02  0.21604095976E+04  0.21740377992E+04  0.90830594590E+02 0.  0.
          2    1    3    3  502    0  0.12777290746E+03 -0.15999803243E+03  0.35572614429E+03  0.41044655681E+03  0.00000000000E+00 0. -1.
         -1    1    3    3    0  502  0.92280297952E+02 -0.22443361984E+03  0.32969179993E+03  0.40936876535E+03  0.00000000000E+00 0.  1.
         11    1    5    5    0    0  0.23378360698E+02  0.28772635452E+03  0.18127756433E+03  0.34087322888E+03  0.00000000000E+00 0. -1.
        -11    1    5    5    0    0 -0.19250949926E+02  0.72965517106E+02  0.10256037067E+03  0.12733104646E+03  0.00000000000E+00 0.  1.
          3    1    6    6  503    0 -0.15673333875E+03 -0.24506046915E+02  0.13008072678E+04  0.13104447466E+04  0.00000000000E+00 0. -1.
         -3    1    6    6    0  503 -0.67447277442E+02  0.48245827558E+02  0.85960232980E+03  0.86359305261E+03  0.00000000000E+00 0.  1.
<mgrwt>
<rscale>  0 0.14802147E+04</rscale>
<asrwt>0</asrwt>
<pdfrwt beam="1">  1        2 0.50705556E+00 0.14802147E+04</pdfrwt>
<pdfrwt beam="2">  1       -3 0.25568612E-01 0.14802147E+04</pdfrwt>
<totfact> 0.10473833E+01</totfact>
</mgrwt>
</event>
<event>
12    6  0.1627636E-007  0.1414896E+04  0.7818608E-02  0.8943106E-01
          2   -1    0    0  501    0  0.00000000000E+00  0.00000000000E+00  0.87050792974E+03  0.87050792974E+03  0.00000000000E+00 0. -1.
         -1   -1    0    0    0  501 -0.00000000000E+00 -0.00000000000E+00 -0.57493183376E+03  0.57493183376E+03  0.00000000000E+00 0.  1.
         24    2    1    2    0    0 -0.60398265647E+02 -0.10389581222E+03  0.48624598694E+03  0.50719748695E+03  0.79823810135E+02 0.  0.
        254    2    1    2    0    0  0.60398265647E+02  0.10389581222E+03 -0.19066989095E+03  0.93824227655E+03  0.91076960418E+03 0.  0.
         23    2    4    4    0    0  0.92310643347E+02  0.47079323435E+03  0.47040367822E+02  0.49039222368E+03  0.90023399470E+02 0.  0.
         23    2    4    4    0    0 -0.31912377700E+02 -0.36689742213E+03 -0.23771025878E+03  0.44785005287E+03  0.91822570819E+02 0.  0.
          2    1    3    3  502    0 -0.57141371062E+02 -0.32994969660E+02  0.31479988542E+03  0.32164075017E+03  0.00000000000E+00 0. -1.
         -1    1    3    3    0  502 -0.32568945853E+01 -0.70900842564E+02  0.17144610152E+03  0.18555673678E+03  0.00000000000E+00 0.  1.
         11    1    5    5    0    0 -0.18105213741E+02  0.56571111809E+02  0.34981136345E+01  0.59500640794E+02  0.00000000000E+00 0. -1.
        -11    1    5    5    0    0  0.11041585709E+03  0.41422212255E+03  0.43542254187E+02  0.43089158289E+03  0.00000000000E+00 0.  1.
          2    1    6    6  503    0  0.36410558990E+01 -0.10353122538E+02 -0.33892152584E+02  0.35624744787E+02  0.00000000000E+00 0. -1.
         -2    1    6    6    0  503 -0.35553433599E+02 -0.35654429959E+03 -0.20381810619E+03  0.41222530808E+03  0.00000000000E+00 0.  1.
<mgrwt>
<rscale>  0 0.14148961E+04</rscale>
<asrwt>0</asrwt>
<pdfrwt beam="1">  1        2 0.13392430E+00 0.14148961E+04</pdfrwt>
<pdfrwt beam="2">  1       -1 0.88451051E-01 0.14148961E+04</pdfrwt>
<totfact> 0.42795559E+01</totfact>
</mgrwt>
</event>
<event>
12    6  0.1627636E-007  0.1530180E+04  0.7818608E-02  0.8864628E-01
          2   -1    0    0  501    0  0.00000000000E+00  0.00000000000E+00  0.13425467609E+04  0.13425467609E+04  0.00000000000E+00 0. -1.
         -1   -1    0    0    0  501 -0.00000000000E+00 -0.00000000000E+00 -0.43600941775E+03  0.43600941775E+03  0.00000000000E+00 0.  1.
         24    2    1    2    0    0  0.39387030697E+03  0.10817766625E+03  0.12807038500E+03  0.43536638579E+03  0.79408061154E+02 0.  0.
        254    2    1    2    0    0 -0.39387030697E+03 -0.10817766625E+03  0.77846695811E+03  0.13431897928E+04  0.10155352227E+04 0.  0.
         23    2    4    4    0    0 -0.34984002970E+02  0.34648636279E+02  0.91675954883E+03  0.92264110468E+03  0.91619480528E+02 0.  0.
         23    2    4    4    0    0 -0.35888630400E+03 -0.14282630253E+03 -0.13829259072E+03  0.42054868813E+03  0.92399277870E+02 0.  0.
          4    1    3    3  502    0  0.51512734927E+02 -0.96814750930E+01  0.29351412381E+02  0.60073273828E+02  0.00000000000E+00 0. -1.
         -3    1    3    3    0  502  0.34235757204E+03  0.11785914135E+03  0.98718972621E+02  0.37529311196E+03  0.00000000000E+00 0.  1.
         11    1    5    5    0    0 -0.55697802806E+01 -0.24019126423E+02  0.51218354328E+03  0.51277667936E+03  0.00000000000E+00 0.  1.
        -11    1    5    5    0    0 -0.29414222689E+02  0.58667762702E+02  0.40457600555E+03  0.40986442532E+03  0.00000000000E+00 0. -1.
          4    1    6    6  503    0 -0.71448933225E+02  0.88949222478E+01 -0.20845955832E+02  0.74957478449E+02  0.00000000000E+00 0. -1.
         -4    1    6    6    0  503 -0.28743737077E+03 -0.15172122478E+03 -0.11744663489E+03  0.34559120968E+03  0.00000000000E+00 0.  1.
<mgrwt>
<rscale>  0 0.15301804E+04</rscale>
<asrwt>0</asrwt>
<pdfrwt beam="1">  1        2 0.20654565E+00 0.15301804E+04</pdfrwt>
<pdfrwt beam="2">  1       -1 0.67078373E-01 0.15301804E+04</pdfrwt>
<totfact> 0.38631894E+01</totfact>
</mgrwt>
</event>
<event>
12    6  0.1627636E-007  0.2695017E+04  0.7818608E-02  0.8336623E-01
          2   -1    0    0  501    0  0.00000000000E+00  0.00000000000E+00  0.78615300149E+03  0.78615300149E+03  0.00000000000E+00 0. -1.
         -1   -1    0    0    0  501 -0.00000000000E+00 -0.00000000000E+00 -0.23097027640E+04  0.23097027640E+04  0.00000000000E+00 0.  1.
         24    2    1    2    0    0 -0.66305420833E+03  0.96153614742E+03 -0.40422686344E+03  0.12387089322E+04  0.82509488204E+02 0.  0.
        254    2    1    2    0    0  0.66305420833E+03 -0.96153614742E+03 -0.11193228991E+04  0.18571468333E+04  0.91209536894E+03 0.  0.
         23    2    4    4    0    0  0.12917307223E+03  0.55083984904E+02  0.87975904459E+02  0.18861036357E+03  0.90078751661E+02 0.  0.
         23    2    4    4    0    0  0.53388113610E+03 -0.10166201323E+04 -0.12072988036E+04  0.16685364697E+04  0.88870629689E+02 0.  0.
          2    1    3    3  502    0 -0.65443285959E+03  0.95639136686E+03 -0.40705998726E+03  0.12282771054E+04  0.00000000000E+00 0. -1.
         -1    1    3    3    0  502 -0.86213487303E+01  0.51447805595E+01  0.28331238179E+01  0.10431826854E+02  0.00000000000E+00 0.  1.
         11    1    5    5    0    0  0.86671069953E+02  0.79524743680E+02  0.58057053007E+02  0.13117423767E+03  0.00000000000E+00 0.  1.
        -11    1    5    5    0    0  0.42502002272E+02 -0.24440758776E+02  0.29918851451E+02  0.57436125904E+02  0.00000000000E+00 0. -1.
          3    1    6    6  503    0  0.45630592842E+03 -0.92571745366E+03 -0.10898194391E+04  0.15009577989E+04  0.00000000000E+00 0.  1.
         -3    1    6    6    0  503  0.77575207681E+02 -0.90902678663E+02 -0.11747936447E+03  0.16757867081E+03  0.00000000000E+00 0. -1.
<mgrwt>
<rscale>  0 0.26950174E+04</rscale>
<asrwt>0</asrwt>
<pdfrwt beam="1">  1        2 0.12094661E+00 0.26950174E+04</pdfrwt>
<pdfrwt beam="2">  1       -1 0.35533889E+00 0.26950174E+04</pdfrwt>
<totfact> 0.50521929E-01</totfact>
</mgrwt>
</event>
<event>
12    6  0.1627636E-007  0.2851919E+04  0.7818608E-02  0.8287328E-01
         -1   -1    0    0    0  501 -0.00000000000E+00  0.00000000000E+00  0.47498740870E+03  0.47498740870E+03  0.00000000000E+00 0.  1.
          2   -1    0    0  501    0  0.00000000000E+00 -0.00000000000E+00 -0.42808723658E+04  0.42808723658E+04  0.00000000000E+00 0. -1.
         24    2    1    2    0    0  0.75797090217E+03  0.30374429365E+03 -0.33707421365E+04  0.34690099411E+04  0.73122747806E+02 0.  0.
        254    2    1    2    0    0 -0.75797090217E+03 -0.30374429365E+03 -0.43514282052E+03  0.12868498333E+04  0.89434486345E+03 0.  0.
         23    2    4    4    0    0 -0.54213927251E+03 -0.50626196113E+03 -0.57906592244E+03  0.94559211314E+03  0.92795138919E+02 0.  0.
         23    2    4    4    0    0 -0.21583162966E+03  0.20251766748E+03  0.14392310192E+03  0.34125772018E+03  0.90256713375E+02 0.  0.
          4    1    3    3  502    0  0.59146111078E+03  0.26858464096E+03 -0.26885269540E+04  0.27658888512E+04  0.00000000000E+00 0. -1.
         -3    1    3    3    0  502  0.16650979139E+03  0.35159652692E+02 -0.68221518255E+03  0.70312108994E+03  0.00000000000E+00 0.  1.
         11    1    5    5    0    0 -0.50744617303E+02 -0.17353384376E+02 -0.31210010556E+02  0.62050148214E+02  0.00000000000E+00 0. -1.
        -11    1    5    5    0    0 -0.49139465521E+03 -0.48890857675E+03 -0.54785591189E+03  0.88354196492E+03  0.00000000000E+00 0.  1.
          2    1    6    6  503    0 -0.67561302182E+02  0.11360013442E+03  0.90929775059E+02  0.16042987280E+03  0.00000000000E+00 0. -1.
         -2    1    6    6    0  503 -0.14827032748E+03  0.88917533056E+02  0.52993326863E+02  0.18082784738E+03  0.00000000000E+00 0.  1.
<mgrwt>
<rscale>  0 0.28519190E+04</rscale>
<asrwt>0</asrwt>
<pdfrwt beam="1">  1        2 0.65859577E+00 0.28519190E+04</pdfrwt>
<pdfrwt beam="2">  1       -1 0.73074984E-01 0.28519190E+04</pdfrwt>
<totfact> 0.36705006E-01</totfact>
</mgrwt>
</event>
<event>
12    6  0.1627636E-007  0.2878089E+04  0.7818608E-02  0.8279427E-01
          2   -1    0    0  501    0  0.00000000000E+00  0.00000000000E+00  0.37685730472E+04  0.37685730472E+04  0.00000000000E+00 0. -1.
         -1   -1    0    0    0  501 -0.00000000000E+00 -0.00000000000E+00 -0.54950477041E+03  0.54950477041E+03  0.00000000000E+00 0.  1.
         24    2    1    2    0    0  0.11325737358E+04  0.57021102984E+03  0.18459393625E+04  0.22408919752E+04  0.78998917610E+02 0.  0.
        254    2    1    2    0    0 -0.11325737358E+04 -0.57021102984E+03  0.13731289144E+04  0.20771858424E+04  0.90628589468E+03 0.  0.
         23    2    4    4    0    0 -0.75846916232E+03 -0.59026064608E+03  0.42659399862E+03  0.10553472910E+04  0.89957569814E+02 0.  0.
         23    2    4    4    0    0 -0.37410457352E+03  0.20049616240E+02  0.94653491573E+03  0.10218385515E+04  0.88709974344E+02 0.  0.
          4    1    3    3  502    0  0.99545522085E+03  0.50097024066E+03  0.16651985792E+04  0.20036937358E+04  0.00000000000E+00 0. -1.
         -3    1    3    3    0  502  0.13711851500E+03  0.69240789183E+02  0.18074078328E+03  0.23719823942E+03  0.00000000000E+00 0.  1.
         11    1    5    5    0    0 -0.75167903998E+03 -0.59247121019E+03  0.41862938984E+03  0.10446502190E+04  0.00000000000E+00 0. -1.
        -11    1    5    5    0    0 -0.67901223445E+01  0.22105641084E+01  0.79646087863E+01  0.10697071947E+02  0.00000000000E+00 0.  1.
          1    1    6    6  503    0 -0.33644930467E+03  0.43210210817E+02  0.86413236496E+03  0.92832645180E+03  0.00000000000E+00 0. -1.
         -1    1    6    6    0  503 -0.37655268850E+02 -0.23160594577E+02  0.82402550764E+02  0.93512099676E+02  0.00000000000E+00 0.  1.
<mgrwt>
<rscale>  0 0.28780889E+04</rscale>
<asrwt>0</asrwt>
<pdfrwt beam="1">  1        2 0.57978045E+00 0.28780889E+04</pdfrwt>
<pdfrwt beam="2">  1       -1 0.84539198E-01 0.28780889E+04</pdfrwt>
<totfact> 0.70599905E-01</totfact>
</mgrwt>
</event>
<event>
12    6  0.1627636E-007  0.1442047E+04  0.7818608E-02  0.8923933E-01
         -1   -1    0    0    0  501 -0.00000000000E+00  0.00000000000E+00  0.19712294302E+03  0.19712294302E+03  0.00000000000E+00 0.  1.
          2   -1    0    0  501    0  0.00000000000E+00 -0.00000000000E+00 -0.26373124080E+04  0.26373124080E+04  0.00000000000E+00 0. -1.
         24    2    1    2    0    0  0.14934363416E+03  0.33423154752E+03 -0.11409995930E+04  0.12010274746E+04  0.81072036642E+02 0.  0.
        254    2    1    2    0    0 -0.14934363416E+03 -0.33423154752E+03 -0.12991898719E+04  0.16334078763E+04  0.91984385566E+03 0.  0.
         23    2    4    4    0    0  0.69083911984E+01 -0.63317084295E+03 -0.84241734197E+03  0.10584037141E+04  0.97971433346E+02 0.  0.
         23    2    4    4    0    0 -0.15625202536E+03  0.29893929543E+03 -0.45677252995E+03  0.57500416224E+03  0.90604882347E+02 0.  0.
          4    1    3    3  502    0  0.15701842473E+03  0.32211840268E+03 -0.11169524323E+04  0.11730293207E+04  0.00000000000E+00 0. -1.
         -3    1    3    3    0  502 -0.76747905769E+01  0.12113144842E+02 -0.24047160704E+02  0.27998153980E+02  0.00000000000E+00 0.  1.
         11    1    5    5    0    0 -0.44110747818E+02 -0.23171899084E+03 -0.32243955660E+03  0.39950809310E+03  0.00000000000E+00 0. -1.
        -11    1    5    5    0    0  0.51019139016E+02 -0.40145185210E+03 -0.51997778537E+03  0.65889562101E+03  0.00000000000E+00 0.  1.
          3    1    6    6  503    0  0.11604092162E+02  0.30380515827E+02 -0.39857948773E+02  0.51442072054E+02  0.00000000000E+00 0. -1.
         -3    1    6    6    0  503 -0.16785611752E+03  0.26855877960E+03 -0.41691458117E+03  0.52356209019E+03  0.00000000000E+00 0.  1.
<mgrwt>
<rscale>  0 0.14420469E+04</rscale>
<asrwt>0</asrwt>
<pdfrwt beam="1">  1        2 0.40574033E+00 0.14420469E+04</pdfrwt>
<pdfrwt beam="2">  1       -1 0.30326610E-01 0.14420469E+04</pdfrwt>
<totfact> 0.32148903E+01</totfact>
</mgrwt>
</event>
<event>
12    6  0.1627636E-007  0.1188864E+04  0.7818608E-02  0.9122660E-01
          2   -1    0    0  501    0  0.00000000000E+00  0.00000000000E+00  0.10067449118E+04  0.10067449118E+04  0.00000000000E+00 0. -1.
         -1   -1    0    0    0  501 -0.00000000000E+00 -0.00000000000E+00 -0.35098189829E+03  0.35098189829E+03  0.00000000000E+00 0.  1.
         24    2    1    2    0    0  0.55278965908E+02  0.51603233566E+02 -0.12332454555E+03  0.16459944539E+03  0.78519908948E+02 0.  0.
        254    2    1    2    0    0 -0.55278965908E+02 -0.51603233566E+02  0.77908755911E+03  0.11931273647E+04  0.90047588861E+03 0.  0.
         23    2    4    4    0    0  0.38880085847E+03 -0.16502273633E+03  0.31443200005E+03  0.53407294727E+03  0.89262642214E+02 0.  0.
         23    2    4    4    0    0 -0.44407982438E+03  0.11341950277E+03  0.46465555906E+03  0.65905441748E+03  0.91526294627E+02 0.  0.
          4    1    3    3  502    0 -0.11320882349E+02  0.18987554128E+02 -0.17278460650E+01  0.22173746660E+02  0.00000000000E+00 0. -1.
         -3    1    3    3    0  502  0.66599848257E+02  0.32615679438E+02 -0.12159669948E+03  0.14242569873E+03  0.00000000000E+00 0.  1.
         11    1    5    5    0    0  0.10431156189E+03 -0.88332240715E+01  0.10216508811E+03  0.14627587983E+03  0.00000000000E+00 0.  1.
        -11    1    5    5    0    0  0.28448929658E+03 -0.15618951226E+03  0.21226691193E+03  0.38779706744E+03  0.00000000000E+00 0. -1.
          2    1    6    6  503    0 -0.28315396767E+03  0.26407622628E+02  0.27766614007E+03  0.39745693765E+03  0.00000000000E+00 0. -1.
         -2    1    6    6    0  503 -0.16092585671E+03  0.87011880140E+02  0.18698941899E+03  0.26159747984E+03  0.00000000000E+00 0.  1.
<mgrwt>
<rscale>  0 0.11888637E+04</rscale>
<asrwt>0</asrwt>
<pdfrwt beam="1">  1        2 0.15488383E+00 0.11888637E+04</pdfrwt>
<pdfrwt beam="2">  1       -1 0.53997215E-01 0.11888637E+04</pdfrwt>
<totfact> 0.97240956E+01</totfact>
</mgrwt>
</event>
<event>
12    6  0.1627636E-007  0.5901361E+04  0.7818608E-02  0.7702754E-01
          2   -1    0    0  501    0  0.00000000000E+00  0.00000000000E+00  0.33684439191E+04  0.33684439191E+04  0.00000000000E+00 0. -1.
         -1   -1    0    0    0  501 -0.00000000000E+00 -0.00000000000E+00 -0.25847288014E+04  0.25847288014E+04  0.00000000000E+00 0.  1.
         24    2    1    2    0    0 -0.12344743727E+03  0.54812303697E+03  0.32402478233E+04  0.32895706273E+04  0.79942620264E+02 0.  0.
        254    2    1    2    0    0  0.12344743727E+03 -0.54812303697E+03 -0.24565327056E+04  0.26636020932E+04  0.86287023567E+03 0.  0.
         23    2    4    4    0    0  0.19285084699E+03 -0.60755342535E+03 -0.24505115859E+04  0.25337047901E+04  0.91325334452E+02 0.  0.
         23    2    4    4    0    0 -0.69403409721E+02  0.59430388382E+02 -0.60211196867E+01  0.12989730309E+03  0.92131705313E+02 0.  0.
          2    1    3    3  502    0 -0.67187588996E+02  0.27593028013E+03  0.14072970024E+04  0.14356658889E+04  0.00000000000E+00 0. -1.
         -1    1    3    3    0  502 -0.56259848271E+02  0.27219275685E+03  0.18329508209E+04  0.18539047384E+04  0.00000000000E+00 0.  1.
         11    1    5    5    0    0  0.13475243754E+03 -0.35399684696E+03 -0.12939094181E+04  0.13482112480E+04  0.00000000000E+00 0.  1.
        -11    1    5    5    0    0  0.58098409447E+02 -0.25355657840E+03 -0.11566021679E+04  0.11854935421E+04  0.00000000000E+00 0. -1.
          1    1    6    6  503    0 -0.40736959847E+02  0.76301023220E+02  0.18651957012E+02  0.88483001431E+02  0.00000000000E+00 0.  1.
         -1    1    6    6    0  503 -0.28666449874E+02 -0.16870634837E+02 -0.24673076699E+02  0.41414301660E+02  0.00000000000E+00 0. -1.
<mgrwt>
<rscale>  0 0.59013605E+04</rscale>
<asrwt>0</asrwt>
<pdfrwt beam="1">  1        2 0.51822215E+00 0.59013605E+04</pdfrwt>
<pdfrwt beam="2">  1       -1 0.39765058E+00 0.59013605E+04</pdfrwt>
<totfact> 0.57323943E-03</totfact>
</mgrwt>
</event>
<event>
12    6  0.1627636E-007  0.2620338E+04  0.7818608E-02  0.8361326E-01
          2   -1    0    0  501    0  0.00000000000E+00  0.00000000000E+00  0.88496419750E+03  0.88496419750E+03  0.00000000000E+00 0. -1.
         -1   -1    0    0    0  501 -0.00000000000E+00 -0.00000000000E+00 -0.19396743429E+04  0.19396743429E+04  0.00000000000E+00 0.  1.
         24    2    1    2    0    0  0.79272255375E+03  0.33460830907E+03 -0.12903342134E+04  0.15531053616E+04  0.82474931631E+02 0.  0.
        254    2    1    2    0    0 -0.79272255375E+03 -0.33460830907E+03  0.23562406793E+03  0.12715331788E+04  0.90603871648E+03 0.  0.
         23    2    4    4    0    0 -0.48670427726E+03 -0.51238406421E+03 -0.16338527289E+03  0.73038564111E+03  0.85731876075E+02 0.  0.
         23    2    4    4    0    0 -0.30601827649E+03  0.17777575514E+03  0.39900934083E+03  0.54114753772E+03  0.91546703130E+02 0.  0.
          2    1    3    3  502    0  0.27869192222E+02  0.20914224014E+02 -0.30775432919E+02  0.46488965493E+02  0.00000000000E+00 0. -1.
         -1    1    3    3    0  502  0.76485336152E+03  0.31369408506E+03 -0.12595587805E+04  0.15066163961E+04  0.00000000000E+00 0.  1.
         11    1    5    5    0    0 -0.67953091415E+02 -0.39566757008E+02 -0.34041210769E+02  0.85685208313E+02  0.00000000000E+00 0.  1.
        -11    1    5    5    0    0 -0.41875118584E+03 -0.47281730721E+03 -0.12934406213E+03  0.64470043279E+03  0.00000000000E+00 0. -1.
          2    1    6    6  503    0 -0.29855489400E+03  0.18546309073E+03  0.39703443825E+03  0.53025270194E+03  0.00000000000E+00 0. -1.
         -2    1    6    6    0  503 -0.74633824846E+01 -0.76873355885E+01  0.19749025780E+01  0.10894835784E+02  0.00000000000E+00 0.  1.
<mgrwt>
<rscale>  0 0.26203376E+04</rscale>
<asrwt>0</asrwt>
<pdfrwt beam="1">  1        2 0.13614834E+00 0.26203376E+04</pdfrwt>
<pdfrwt beam="2">  1       -1 0.29841143E+00 0.26203376E+04</pdfrwt>
<totfact> 0.10222515E+00</totfact>
</mgrwt>
</event>
<event>
12    6  0.1627636E-007  0.1957042E+04  0.7818608E-02  0.8626973E-01
          2   -1    0    0  501    0  0.00000000000E+00  0.00000000000E+00  0.16370266724E+04  0.16370266724E+04  0.00000000000E+00 0. -1.
         -1   -1    0    0    0  501 -0.00000000000E+00 -0.00000000000E+00 -0.58490382220E+03  0.58490382220E+03  0.00000000000E+00 0.  1.
         24    2    1    2    0    0 -0.10163254912E+03  0.22648613758E+03 -0.37834047213E+03  0.46009538902E+03  0.83193200382E+02 0.  0.
        254    2    1    2    0    0  0.10163254912E+03 -0.22648613758E+03  0.14304633223E+04  0.17618351056E+04  0.99810444200E+03 0.  0.
         23    2    4    4    0    0  0.37657354906E+03 -0.15274391971E+03  0.14285099710E+03  0.43983803286E+03  0.88953611035E+02 0.  0.
         23    2    4    4    0    0 -0.27494099994E+03 -0.73742217871E+02  0.12876123252E+04  0.13219970727E+04  0.93275356087E+02 0.  0.
          2    1    3    3  502    0 -0.80751052699E+01  0.35095972763E+02 -0.15220266692E+02  0.39097201274E+02  0.00000000000E+00 0. -1.
         -1    1    3    3    0  502 -0.93557443849E+02  0.19139016482E+03 -0.36312020543E+03  0.42099818775E+03  0.00000000000E+00 0.  1.
         11    1    5    5    0    0  0.28593999785E+03 -0.73085425587E+02  0.95221144711E+02  0.31011325061E+03  0.00000000000E+00 0.  1.
        -11    1    5    5    0    0  0.90633551215E+02 -0.79658494126E+02  0.47629852393E+02  0.12972478226E+03  0.00000000000E+00 0. -1.
          2    1    6    6  503    0 -0.20806759668E+03 -0.21585662727E+02  0.79085214096E+03  0.81804961615E+03  0.00000000000E+00 0. -1.
         -2    1    6    6    0  503 -0.66873403266E+02 -0.52156555144E+02  0.49676018424E+03  0.50394745655E+03  0.00000000000E+00 0.  1.
<mgrwt>
<rscale>  0 0.19570418E+04</rscale>
<asrwt>0</asrwt>
<pdfrwt beam="1">  1        2 0.25185026E+00 0.19570418E+04</pdfrwt>
<pdfrwt beam="2">  1       -1 0.89985204E-01 0.19570418E+04</pdfrwt>
<totfact> 0.13644249E+01</totfact>
</mgrwt>
</event>
<event>
12    6  0.1627636E-007  0.1511750E+04  0.7818608E-02  0.8876676E-01
         -1   -1    0    0    0  501 -0.00000000000E+00  0.00000000000E+00  0.68985753518E+03  0.68985753518E+03  0.00000000000E+00 0.  1.
          2   -1    0    0  501    0  0.00000000000E+00 -0.00000000000E+00 -0.82821058134E+03  0.82821058134E+03  0.00000000000E+00 0. -1.
         24    2    1    2    0    0 -0.17612928066E+03 -0.18918578585E+03  0.36036705291E+03  0.45095561457E+03  0.81754317422E+02 0.  0.
        254    2    1    2    0    0  0.17612928066E+03  0.18918578585E+03 -0.49872009908E+03  0.10671125019E+04  0.90730070511E+03 0.  0.
         23    2    4    4    0    0 -0.30325860219E+03 -0.14672185421E+03 -0.23037510743E+03  0.41757661462E+03  0.88342835888E+02 0.  0.
         23    2    4    4    0    0  0.47938788285E+03  0.33590764006E+03 -0.26834499165E+03  0.64953588731E+03  0.85094943993E+02 0.  0.
          2    1    3    3  502    0 -0.72886674295E+01  0.84449907409E+01  0.15765821505E+02  0.19313302909E+02  0.00000000000E+00 0. -1.
         -1    1    3    3    0  502 -0.16884061323E+03 -0.19763077659E+03  0.34460123141E+03  0.43164231167E+03  0.00000000000E+00 0.  1.
         11    1    5    5    0    0 -0.21335415848E+03 -0.13077087429E+03 -0.13039789087E+03  0.28217836282E+03  0.00000000000E+00 0. -1.
        -11    1    5    5    0    0 -0.89904443711E+02 -0.15950979919E+02 -0.99977216558E+02  0.13539825180E+03  0.00000000000E+00 0.  1.
          1    1    6    6  503    0  0.12543488089E+03  0.12371706173E+03 -0.10890563377E+03  0.20712377405E+03  0.00000000000E+00 0. -1.
         -1    1    6    6    0  503  0.35395300196E+03  0.21219057833E+03 -0.15943935787E+03  0.44241211327E+03  0.00000000000E+00 0.  1.
<mgrwt>
<rscale>  0 0.15117504E+04</rscale>
<asrwt>0</asrwt>
<pdfrwt beam="1">  1        2 0.12741701E+00 0.15117504E+04</pdfrwt>
<pdfrwt beam="2">  1       -1 0.10613193E+00 0.15117504E+04</pdfrwt>
<totfact> 0.30095150E+01</totfact>
</mgrwt>
</event>
<event>
12    6  0.1627636E-007  0.1586808E+04  0.7818608E-02  0.8828694E-01
          2   -1    0    0  501    0  0.00000000000E+00  0.00000000000E+00  0.30885358205E+04  0.30885358205E+04  0.00000000000E+00 0. -1.
         -1   -1    0    0    0  501 -0.00000000000E+00 -0.00000000000E+00 -0.20381498181E+03  0.20381498181E+03  0.00000000000E+00 0.  1.
         24    2    1    2    0    0 -0.52076313807E+03 -0.97464949954E+02  0.80965276868E+03  0.97103882539E+03  0.81762657363E+02 0.  0.
        254    2    1    2    0    0  0.52076313807E+03  0.97464949954E+02  0.20750680700E+04  0.23213119769E+04  0.89548206941E+03 0.  0.
         23    2    4    4    0    0  0.51588094955E+03 -0.17571608224E+03  0.19100664554E+04  0.19884217598E+04  0.91967032944E+02 0.  0.
         23    2    4    4    0    0  0.48821885150E+01  0.27318103220E+03  0.16500161458E+03  0.33289021710E+03  0.94544443049E+02 0.  0.
          4    1    3    3  502    0 -0.15322488590E+03 -0.60580108326E+02  0.28887570318E+03  0.33256125311E+03  0.00000000000E+00 0. -1.
         -3    1    3    3    0  502 -0.36753825216E+03 -0.36884841628E+02  0.52077706551E+03  0.63847757228E+03  0.00000000000E+00 0.  1.
         11    1    5    5    0    0  0.60686676826E+02 -0.19125769142E+02  0.13503215388E+03  0.14927273821E+03  0.00000000000E+00 0. -1.
        -11    1    5    5    0    0  0.45519427273E+03 -0.15659031310E+03  0.17750343015E+04  0.18391490216E+04  0.00000000000E+00 0.  1.
          4    1    6    6  503    0  0.16641432130E+01  0.57317361899E+02  0.85254895288E+02  0.10274456929E+03  0.00000000000E+00 0. -1.
         -4    1    6    6    0  503  0.32180453021E+01  0.21586367030E+03  0.79746719295E+02  0.23014564782E+03  0.00000000000E+00 0.  1.
<mgrwt>
<rscale>  0 0.15868080E+04</rscale>
<asrwt>0</asrwt>
<pdfrwt beam="1">  1        2 0.47515932E+00 0.15868080E+04</pdfrwt>
<pdfrwt beam="2">  1       -1 0.31356153E-01 0.15868080E+04</pdfrwt>
<totfact> 0.15900586E+01</totfact>
</mgrwt>
</event>
<event>
12    6  0.1627636E-007  0.1255601E+04  0.7818608E-02  0.9065535E-01
          2   -1    0    0  501    0  0.00000000000E+00  0.00000000000E+00  0.11332237787E+04  0.11332237787E+04  0.00000000000E+00 0. -1.
         -1   -1    0    0    0  501 -0.00000000000E+00 -0.00000000000E+00 -0.34779823590E+03  0.34779823590E+03  0.00000000000E+00 0.  1.
         24    2    1    2    0    0 -0.18543884155E+03  0.12206844298E+03 -0.35203061185E+02  0.23734894542E+03  0.76203659012E+02 0.  0.
        254    2    1    2    0    0  0.18543884155E+03 -0.12206844298E+03  0.82062860401E+03  0.12436730692E+04  0.90774618072E+03 0.  0.
         23    2    4    4    0    0  0.44138627890E+03  0.21502260061E+03  0.48073311342E+03  0.69315806306E+03  0.91143886629E+02 0.  0.
         23    2    4    4    0    0 -0.25594743734E+03 -0.33709104359E+03  0.33989549059E+03  0.55051500614E+03  0.91642594429E+02 0.  0.
          4    1    3    3  502    0 -0.39944740670E+02 -0.64025675515E+01 -0.26446636106E+01  0.40540959831E+02  0.00000000000E+00 0. -1.
         -3    1    3    3    0  502 -0.14549410088E+03  0.12847101053E+03 -0.32558397574E+02  0.19680798559E+03  0.00000000000E+00 0.  1.
         11    1    5    5    0    0  0.21546411267E+03  0.54590520536E+02  0.21350237937E+03  0.30820151651E+03  0.00000000000E+00 0. -1.
        -11    1    5    5    0    0  0.22592216623E+03  0.16043208008E+03  0.26723073405E+03  0.38495654655E+03  0.00000000000E+00 0.  1.
          4    1    6    6  503    0 -0.11864875725E+01 -0.46546709494E+02  0.33398758782E+02  0.57301666691E+02  0.00000000000E+00 0. -1.
         -4    1    6    6    0  503 -0.25476094977E+03 -0.29054433410E+03  0.30649673181E+03  0.49321333945E+03  0.00000000000E+00 0.  1.
<mgrwt>
<rscale>  0 0.12556006E+04</rscale>
<asrwt>0</asrwt>
<pdfrwt beam="1">  1        2 0.17434212E+00 0.12556006E+04</pdfrwt>
<pdfrwt beam="2">  1       -1 0.53507422E-01 0.12556006E+04</pdfrwt>
<totfact> 0.82102625E+01</totfact>
</mgrwt>
</event>
<event>
12    6  0.1627636E-007  0.1928819E+04  0.7818608E-02  0.8640643E-01
          2   -1    0    0  501    0  0.00000000000E+00  0.00000000000E+00  0.62083567567E+03  0.62083567567E+03  0.00000000000E+00 0. -1.
         -1   -1    0    0    0  501 -0.00000000000E+00 -0.00000000000E+00 -0.14981194045E+04  0.14981194045E+04  0.00000000000E+00 0.  1.
         24    2    1    2    0    0  0.56597142597E+03 -0.22446647139E+03  0.13456475920E+03  0.62840899750E+03  0.77982959191E+02 0.  0.
        254    2    1    2    0    0 -0.56597142597E+03  0.22446647139E+03 -0.10118484881E+04  0.14905460827E+04  0.90949514022E+03 0.  0.
         23    2    4    4    0    0 -0.28557141403E+03  0.56756292792E+03 -0.57029502656E+03  0.85841885505E+03  0.89262555027E+02 0.  0.
         23    2    4    4    0    0 -0.28040001194E+03 -0.34309645653E+03 -0.44155346152E+03  0.63212722767E+03  0.90972673927E+02 0.  0.
          2    1    3    3  502    0  0.48362809016E+03 -0.21491255044E+03  0.13214657382E+03  0.54547800222E+03  0.00000000000E+00 0. -1.
         -1    1    3    3    0  502  0.82343335814E+02 -0.95539209499E+01  0.24181853806E+01  0.82930995286E+02  0.00000000000E+00 0.  1.
         11    1    5    5    0    0 -0.25399257534E+03  0.47138856476E+03 -0.43764937160E+03  0.69156082869E+03  0.00000000000E+00 0.  1.
        -11    1    5    5    0    0 -0.31578838688E+02  0.96174363158E+02 -0.13264565496E+03  0.16685802636E+03  0.00000000000E+00 0. -1.
          2    1    6    6  503    0 -0.25723219471E+03 -0.26021286936E+03 -0.34694684488E+03  0.50423333145E+03  0.00000000000E+00 0. -1.
         -2    1    6    6    0  503 -0.23167817229E+02 -0.82883587166E+02 -0.94606616640E+02  0.12789389621E+03  0.00000000000E+00 0.  1.
<mgrwt>
<rscale>  0 0.19288193E+04</rscale>
<asrwt>0</asrwt>
<pdfrwt beam="1">  1        2 0.95513181E-01 0.19288193E+04</pdfrwt>
<pdfrwt beam="2">  1       -1 0.23047991E+00 0.19288193E+04</pdfrwt>
<totfact> 0.47565648E+00</totfact>
</mgrwt>
</event>
<event>
12    6  0.1627636E-007  0.1848741E+04  0.7818608E-02  0.8680801E-01
         -1   -1    0    0    0  501 -0.00000000000E+00  0.00000000000E+00  0.11430746598E+04  0.11430746598E+04  0.00000000000E+00 0.  1.
          2   -1    0    0  501    0  0.00000000000E+00 -0.00000000000E+00 -0.74751068905E+03  0.74751068905E+03  0.00000000000E+00 0. -1.
         24    2    1    2    0    0 -0.15784739260E+03 -0.58581873721E+03  0.51698479481E+03  0.80161059624E+03  0.84893331460E+02 0.  0.
        254    2    1    2    0    0  0.15784739260E+03  0.58581873721E+03 -0.12142082409E+03  0.10889747526E+04  0.89611584240E+03 0.  0.
         23    2    4    4    0    0  0.22153014538E+03 -0.73030644601E+02  0.22409423319E+03  0.33676699015E+03  0.93726730159E+02 0.  0.
         23    2    4    4    0    0 -0.63682752777E+02  0.65884938181E+03 -0.34551505729E+03  0.75220776242E+03  0.91092601871E+02 0.  0.
          2    1    3    3  502    0 -0.21477978315E+02 -0.63472391264E+02  0.25988284020E+02  0.71870987969E+02  0.00000000000E+00 0. -1.
         -1    1    3    3    0  502 -0.13636941429E+03 -0.52234634595E+03  0.49099651079E+03  0.72973960827E+03  0.00000000000E+00 0.  1.
         11    1    5    5    0    0  0.25296162098E+01 -0.16016466729E+01 -0.87397504409E+01  0.92383693367E+01  0.00000000000E+00 0.  1.
        -11    1    5    5    0    0  0.21900052917E+03 -0.71428997928E+02  0.23283398363E+03  0.32752862082E+03  0.00000000000E+00 0. -1.
          3    1    6    6  503    0 -0.69959971140E+02  0.64408270546E+03 -0.32132059931E+03  0.72317622788E+03  0.00000000000E+00 0. -1.
         -3    1    6    6    0  503  0.62772183631E+01  0.14766676355E+02 -0.24194457971E+02  0.29031534535E+02  0.00000000000E+00 0.  1.
<mgrwt>
<rscale>  0 0.18487407E+04</rscale>
<asrwt>0</asrwt>
<pdfrwt beam="1">  1        2 0.11500165E+00 0.18487407E+04</pdfrwt>
<pdfrwt beam="2">  1       -1 0.17585764E+00 0.18487407E+04</pdfrwt>
<totfact> 0.90145076E+00</totfact>
</mgrwt>
</event>
<event>
12    6  0.1627636E-007  0.1946573E+04  0.7818608E-02  0.8632015E-01
         -1   -1    0    0    0  501 -0.00000000000E+00  0.00000000000E+00  0.43951878457E+03  0.43951878457E+03  0.00000000000E+00 0.  1.
          2   -1    0    0  501    0  0.00000000000E+00 -0.00000000000E+00 -0.21552817029E+04  0.21552817029E+04  0.00000000000E+00 0. -1.
         24    2    1    2    0    0  0.63198462168E+03  0.21665605349E+03 -0.18308216589E+03  0.69714638377E+03  0.78419343162E+02 0.  0.
        254    2    1    2    0    0 -0.63198462168E+03 -0.21665605349E+03 -0.15326807524E+04  0.18976541037E+04  0.89757250447E+03 0.  0.
         23    2    4    4    0    0 -0.67989665558E+03 -0.39000142910E+03 -0.74816029082E+03  0.10876736661E+04  0.94496593021E+02 0.  0.
         23    2    4    4    0    0  0.47912033897E+02  0.17334537562E+03 -0.78452046158E+03  0.80998043760E+03  0.90839266974E+02 0.  0.
          2    1    3    3  502    0  0.33214477429E+03  0.13968364011E+03 -0.66778825218E+02  0.36645747625E+03  0.00000000000E+00 0. -1.
         -1    1    3    3    0  502  0.29983984739E+03  0.76972413379E+02 -0.11630334068E+03  0.33068890752E+03  0.00000000000E+00 0.  1.
         11    1    5    5    0    0 -0.60541851994E+03 -0.30995141404E+03 -0.64485014439E+03  0.93724765781E+03  0.00000000000E+00 0. -1.
        -11    1    5    5    0    0 -0.74478135638E+02 -0.80050015064E+02 -0.10331014644E+03  0.15042600825E+03  0.00000000000E+00 0.  1.
          3    1    6    6  503    0  0.59641318369E+02  0.12270445857E+03 -0.67628918008E+03  0.68991341928E+03  0.00000000000E+00 0. -1.
         -3    1    6    6    0  503 -0.11729284473E+02  0.50640917053E+02 -0.10823128149E+03  0.12006701832E+03  0.00000000000E+00 0.  1.
<mgrwt>
<rscale>  0 0.19465732E+04</rscale>
<asrwt>0</asrwt>
<pdfrwt beam="1">  1        2 0.33158180E+00 0.19465732E+04</pdfrwt>
<pdfrwt beam="2">  1       -1 0.67618275E-01 0.19465732E+04</pdfrwt>
<totfact> 0.12874680E+01</totfact>
</mgrwt>
</event>
<event>
12    6  0.1627636E-007  0.1731718E+04  0.7818608E-02  0.8743478E-01
         -1   -1    0    0    0  501 -0.00000000000E+00  0.00000000000E+00  0.54414701041E+03  0.54414701041E+03  0.00000000000E+00 0.  1.
          2   -1    0    0  501    0  0.00000000000E+00 -0.00000000000E+00 -0.13777746050E+04  0.13777746050E+04  0.00000000000E+00 0. -1.
         24    2    1    2    0    0  0.39112752057E+03  0.43091572358E+03 -0.15163408220E+03  0.60679376360E+03  0.80849727775E+02 0.  0.
        254    2    1    2    0    0 -0.39112752057E+03 -0.43091572358E+03 -0.68199351239E+03  0.13151278518E+04  0.96217307044E+03 0.  0.
         23    2    4    4    0    0 -0.39267240170E+03 -0.25979370382E+03 -0.90211256412E+03  0.10214718787E+04  0.88956938615E+02 0.  0.
         23    2    4    4    0    0  0.15448811334E+01 -0.17112201976E+03  0.22011905173E+03  0.29365597316E+03  0.92175383563E+02 0.  0.
          4    1    3    3  502    0  0.12328898761E+03  0.14203938454E+03 -0.88367209635E+02  0.20780790400E+03  0.00000000000E+00 0. -1.
         -3    1    3    3    0  502  0.26783853296E+03  0.28887633904E+03 -0.63266872570E+02  0.39898585960E+03  0.00000000000E+00 0.  1.
         11    1    5    5    0    0 -0.22306412547E+03 -0.10873589149E+03 -0.40585915966E+03  0.47571289203E+03  0.00000000000E+00 0. -1.
        -11    1    5    5    0    0 -0.16960827623E+03 -0.15105781233E+03 -0.49625340446E+03  0.54575898662E+03  0.00000000000E+00 0.  1.
          3    1    6    6  503    0 -0.21634588925E+02 -0.43037295866E+02  0.14507757880E+02  0.50306453981E+02  0.00000000000E+00 0. -1.
         -3    1    6    6    0  503  0.23179470059E+02 -0.12808472389E+03  0.20561129385E+03  0.24334951918E+03  0.00000000000E+00 0.  1.
<mgrwt>
<rscale>  0 0.17317181E+04</rscale>
<asrwt>0</asrwt>
<pdfrwt beam="1">  1        2 0.21196532E+00 0.17317181E+04</pdfrwt>
<pdfrwt beam="2">  1       -1 0.83714925E-01 0.17317181E+04</pdfrwt>
<totfact> 0.22814196E+01</totfact>
</mgrwt>
</event>
<event>
12    6  0.1627636E-007  0.1903526E+04  0.7818608E-02  0.8653103E-01
          2   -1    0    0  501    0  0.00000000000E+00  0.00000000000E+00  0.10608949173E+04  0.10608949173E+04  0.00000000000E+00 0. -1.
         -1   -1    0    0    0  501 -0.00000000000E+00 -0.00000000000E+00 -0.85385712051E+03  0.85385712051E+03  0.00000000000E+00 0.  1.
         24    2    1    2    0    0  0.64302745311E+03  0.23920761535E+03 -0.50773479086E+02  0.69255180275E+03  0.79658424642E+02 0.  0.
        254    2    1    2    0    0 -0.64302745311E+03 -0.23920761535E+03  0.25781127583E+03  0.12222002350E+04  0.97806041318E+03 0.  0.
         23    2    4    4    0    0 -0.21907383736E+03 -0.33114790896E+03 -0.30289894453E+03  0.50785376034E+03  0.92278857132E+02 0.  0.
         23    2    4    4    0    0 -0.42395361575E+03  0.91940293607E+02  0.56071022036E+03  0.71434647468E+03  0.87779546426E+02 0.  0.
          2    1    3    3  502    0  0.27023067972E+03  0.13835886123E+03 -0.48107918981E+01  0.30362960735E+03  0.00000000000E+00 0. -1.
         -1    1    3    3    0  502  0.37279677339E+03  0.10084875412E+03 -0.45962687188E+02  0.38892219540E+03  0.00000000000E+00 0.  1.
         11    1    5    5    0    0 -0.13563603074E+03 -0.13397369787E+03 -0.11267151997E+03  0.22145192699E+03  0.00000000000E+00 0. -1.
        -11    1    5    5    0    0 -0.83437806619E+02 -0.19717421109E+03 -0.19022742456E+03  0.28640183335E+03  0.00000000000E+00 0.  1.
          1    1    6    6  503    0 -0.18118531383E+03  0.72732245235E+02  0.29666738821E+03  0.35514734502E+03  0.00000000000E+00 0. -1.
         -1    1    6    6    0  503 -0.24276830192E+03  0.19208048371E+02  0.26404283215E+03  0.35919912966E+03  0.00000000000E+00 0.  1.
<mgrwt>
<rscale>  0 0.19035259E+04</rscale>
<asrwt>0</asrwt>
<pdfrwt beam="1">  1        2 0.16321460E+00 0.19035259E+04</pdfrwt>
<pdfrwt beam="2">  1       -1 0.13136263E+00 0.19035259E+04</pdfrwt>
<totfact> 0.12155501E+01</totfact>
</mgrwt>
</event>
<event>
12    6  0.1627636E-007  0.1438262E+04  0.7818608E-02  0.8926579E-01
         -1   -1    0    0    0  501 -0.00000000000E+00  0.00000000000E+00  0.10021363297E+04  0.10021363297E+04  0.00000000000E+00 0.  1.
          2   -1    0    0  501    0  0.00000000000E+00 -0.00000000000E+00 -0.51604705157E+03  0.51604705157E+03  0.00000000000E+00 0. -1.
         24    2    1    2    0    0  0.12546076525E+03 -0.52098673508E+02 -0.27913267388E+03  0.31999624967E+03  0.77639389351E+02 0.  0.
        254    2    1    2    0    0 -0.12546076525E+03  0.52098673508E+02  0.76522195202E+03  0.11981871316E+04  0.91193919266E+03 0.  0.
         23    2    4    4    0    0 -0.44071833765E+03 -0.18012906740E+03  0.25416097910E+03  0.54703118724E+03  0.89253473056E+02 0.  0.
         23    2    4    4    0    0  0.31525757241E+03  0.23222774091E+03  0.51106097292E+03  0.65115594437E+03  0.97486846480E+02 0.  0.
          4    1    3    3  502    0  0.69458293940E+02 -0.51621227987E+02 -0.22909188201E+03  0.24489241756E+03  0.00000000000E+00 0. -1.
         -1    1    3    3    0  502  0.56002471308E+02 -0.47744552109E+00 -0.50040791871E+02  0.75103832112E+02  0.00000000000E+00 0.  1.
         11    1    5    5    0    0 -0.37681950649E+03 -0.17647040702E+03  0.19364406293E+03  0.45894745683E+03  0.00000000000E+00 0.  1.
        -11    1    5    5    0    0 -0.63898831168E+02 -0.36586603763E+01  0.60516916175E+02  0.88083730414E+02  0.00000000000E+00 0. -1.
          1    1    6    6  503    0  0.23043542287E+02 -0.85685093694E+01  0.25647439100E+02  0.35527669870E+02  0.00000000000E+00 0. -1.
         -1    1    6    6    0  503  0.29221403012E+03  0.24079625028E+03  0.48541353382E+03  0.61562827450E+03  0.00000000000E+00 0.  1.
<mgrwt>
<rscale>  0 0.14382621E+04</rscale>
<asrwt>0</asrwt>
<pdfrwt beam="1">  1        2 0.79391854E-01 0.14382621E+04</pdfrwt>
<pdfrwt beam="2">  1       -1 0.15417482E+00 0.14382621E+04</pdfrwt>
<totfact> 0.21326774E+01</totfact>
</mgrwt>
</event>
<event>
12    6  0.1627636E-007  0.2298301E+04  0.7818608E-02  0.8478591E-01
         -1   -1    0    0    0  501 -0.00000000000E+00  0.00000000000E+00  0.65165641179E+03  0.65165641179E+03  0.00000000000E+00 0.  1.
          2   -1    0    0  501    0  0.00000000000E+00 -0.00000000000E+00 -0.20264466776E+04  0.20264466776E+04  0.00000000000E+00 0. -1.
         24    2    1    2    0    0 -0.48462479442E+03 -0.82632332113E+03 -0.79547412534E+03  0.12483883650E+04  0.89571219036E+02 0.  0.
        254    2    1    2    0    0  0.48462479442E+03  0.82632332113E+03 -0.57931614044E+03  0.14297147244E+04  0.88927250051E+03 0.  0.
         23    2    4    4    0    0 -0.49100723392E-01  0.79954339843E+03 -0.43875224785E+03  0.91651186908E+03  0.90668753089E+02 0.  0.
         23    2    4    4    0    0  0.48467389515E+03  0.26779922698E+02 -0.14056389259E+03  0.51320285532E+03  0.89403657118E+02 0.  0.
          4    1    3    3  502    0 -0.48727339247E+03 -0.82650214887E+03 -0.79276365074E+03  0.12445944589E+04  0.00000000000E+00 0. -1.
         -3    1    3    3    0  502  0.26485980402E+01  0.17882774627E+00 -0.27104746003E+01  0.37939061006E+01  0.00000000000E+00 0.  1.
         11    1    5    5    0    0 -0.20422138750E+02  0.63106829964E+03 -0.37998939608E+03  0.73692347208E+03  0.00000000000E+00 0.  1.
        -11    1    5    5    0    0  0.20373038026E+02  0.16847509879E+03 -0.58762851771E+02  0.17958839700E+03  0.00000000000E+00 0. -1.
          1    1    6    6  503    0  0.11678998436E+03 -0.69870921220E-01 -0.74340725097E+02  0.13844294397E+03  0.00000000000E+00 0. -1.
         -1    1    6    6    0  503  0.36788391079E+03  0.26849793620E+02 -0.66223167494E+02  0.37475991134E+03  0.00000000000E+00 0.  1.
<mgrwt>
<rscale>  0 0.22983011E+04</rscale>
<asrwt>0</asrwt>
<pdfrwt beam="1">  1        2 0.31176103E+00 0.22983011E+04</pdfrwt>
<pdfrwt beam="2">  1       -1 0.10025483E+00 0.22983011E+04</pdfrwt>
<totfact> 0.63148568E+00</totfact>
</mgrwt>
</event>
<event>
12    6  0.1627636E-007  0.1504555E+04  0.7818608E-02  0.8881429E-01
         -1   -1    0    0    0  501 -0.00000000000E+00  0.00000000000E+00  0.28793531573E+03  0.28793531573E+03  0.00000000000E+00 0.  1.
          2   -1    0    0  501    0  0.00000000000E+00 -0.00000000000E+00 -0.19654474907E+04  0.19654474907E+04  0.00000000000E+00 0. -1.
         24    2    1    2    0    0 -0.30668235438E+03 -0.36688537351E+01 -0.11518241534E+04  0.11945678913E+04  0.78905256755E+02 0.  0.
        254    2    1    2    0    0  0.30668235438E+03  0.36688537351E+01 -0.52568802157E+03  0.10588149152E+04  0.86641422055E+03 0.  0.
         23    2    4    4    0    0  0.57953603277E+03 -0.54828436283E+01 -0.19345142769E+03  0.61918512381E+03  0.10037274443E+03 0.  0.
         23    2    4    4    0    0 -0.27285367839E+03  0.91516973634E+01 -0.33223659388E+03  0.43962979134E+03  0.91434762243E+02 0.  0.
          4    1    3    3  502    0 -0.19656532134E+03 -0.26840618211E+01 -0.87134474683E+03  0.89324509379E+03  0.00000000000E+00 0. -1.
         -3    1    3    3    0  502 -0.11011703304E+03 -0.98479191392E+00 -0.28047940660E+03  0.30132279753E+03  0.00000000000E+00 0.  1.
         11    1    5    5    0    0  0.17555301543E+03 -0.46295969688E+02 -0.46978177503E+02  0.18753433605E+03  0.00000000000E+00 0. -1.
        -11    1    5    5    0    0  0.40398301734E+03  0.40813126059E+02 -0.14647325018E+03  0.43165078777E+03  0.00000000000E+00 0.  1.
          2    1    6    6  503    0 -0.12081493386E+02  0.22576962539E+02 -0.19320123740E+02  0.32077233379E+02  0.00000000000E+00 0. -1.
         -2    1    6    6    0  503 -0.26077218500E+03 -0.13425265176E+02 -0.31291647014E+03  0.40755255797E+03  0.00000000000E+00 0.  1.
<mgrwt>
<rscale>  0 0.15045554E+04</rscale>
<asrwt>0</asrwt>
<pdfrwt beam="1">  1        2 0.30237653E+00 0.15045554E+04</pdfrwt>
<pdfrwt beam="2">  1       -1 0.44297742E-01 0.15045554E+04</pdfrwt>
<totfact> 0.38761961E+01</totfact>
</mgrwt>
</event>
<event>
12    6  0.1627636E-007  0.1106914E+04  0.7818608E-02  0.9198479E-01
          2   -1    0    0  501    0  0.00000000000E+00  0.00000000000E+00  0.44717259130E+03  0.44717259130E+03  0.00000000000E+00 0. -1.
         -1   -1    0    0    0  501 -0.00000000000E+00 -0.00000000000E+00 -0.68500325546E+03  0.68500325546E+03  0.00000000000E+00 0.  1.
         24    2    1    2    0    0  0.14456725303E+03  0.89576316539E+02 -0.30196663811E+02  0.19063610592E+03  0.80663989741E+02 0.  0.
        254    2    1    2    0    0 -0.14456725303E+03 -0.89576316539E+02 -0.20763400034E+03  0.94153974084E+03  0.90247526190E+03 0.  0.
         23    2    4    4    0    0  0.15305116432E+03 -0.41071214961E+03 -0.21109319129E+03  0.49486465816E+03  0.90672850123E+02 0.  0.
         23    2    4    4    0    0 -0.29761841735E+03  0.32113583307E+03  0.34591909474E+01  0.44667508268E+03  0.88327333608E+02 0.  0.
          4    1    3    3  502    0  0.11204945706E+03  0.88311880063E+02  0.49288934407E+01  0.14275280375E+03  0.00000000000E+00 0. -1.
         -3    1    3    3    0  502  0.32517795971E+02  0.12644364759E+01 -0.35125557252E+02  0.47883302170E+02  0.00000000000E+00 0.  1.
         11    1    5    5    0    0  0.15429825890E+02 -0.11262575619E+03 -0.21372809198E+02  0.11566951827E+03  0.00000000000E+00 0.  1.
        -11    1    5    5    0    0  0.13762133843E+03 -0.29808639342E+03 -0.18972038209E+03  0.37919513989E+03  0.00000000000E+00 0. -1.
          1    1    6    6  503    0 -0.26329367978E+03  0.28410333968E+03  0.32010983299E+02  0.38866820359E+03  0.00000000000E+00 0. -1.
         -1    1    6    6    0  503 -0.34324737566E+02  0.37032493387E+02 -0.28551792351E+02  0.58006879091E+02  0.00000000000E+00 0.  1.
<mgrwt>
<rscale>  0 0.11069141E+04</rscale>
<asrwt>0</asrwt>
<pdfrwt beam="1">  1        2 0.68795784E-01 0.11069141E+04</pdfrwt>
<pdfrwt beam="2">  1       -1 0.10538512E+00 0.11069141E+04</pdfrwt>
<totfact> 0.67181059E+01</totfact>
</mgrwt>
</event>
<event>
12    6  0.1627636E-007  0.3025635E+04  0.7818608E-02  0.8236448E-01
         -1   -1    0    0    0  501 -0.00000000000E+00  0.00000000000E+00  0.89024914547E+03  0.89024914547E+03  0.00000000000E+00 0.  1.
          2   -1    0    0  501    0  0.00000000000E+00 -0.00000000000E+00 -0.25707601453E+04  0.25707601453E+04  0.00000000000E+00 0. -1.
         24    2    1    2    0    0 -0.23582711780E+02 -0.13654729148E+04 -0.97859402787E+03  0.16819847714E+04  0.79712447925E+02 0.  0.
        254    2    1    2    0    0  0.23582711780E+02  0.13654729148E+04 -0.70191697192E+03  0.17790245193E+04  0.89842550028E+03 0.  0.
         23    2    4    4    0    0  0.27444992428E+02  0.12911533610E+04 -0.88002595961E+03  0.15655935410E+04  0.93846772100E+02 0.  0.
         23    2    4    4    0    0 -0.38622806487E+01  0.74319553786E+02  0.17810898769E+03  0.21343097837E+03  0.91058540197E+02 0.  0.
          4    1    3    3  502    0  0.74479411573E+01 -0.82226957466E+03 -0.62861042611E+03  0.10350525557E+04  0.00000000000E+00 0. -1.
         -3    1    3    3    0  502 -0.31030652937E+02 -0.54320334016E+03 -0.34998360176E+03  0.64693221568E+03  0.00000000000E+00 0.  1.
         11    1    5    5    0    0  0.28319594980E+02  0.20776573051E+03 -0.11327664736E+03  0.23832791920E+03  0.00000000000E+00 0. -1.
        -11    1    5    5    0    0 -0.87460255218E+00  0.10833876305E+04 -0.76674931225E+03  0.13272656218E+04  0.00000000000E+00 0.  1.
          1    1    6    6  503    0 -0.38879720462E+01  0.93555480318E+02  0.11992960135E+03  0.15215404531E+03  0.00000000000E+00 0.  1.
         -1    1    6    6    0  503  0.25691397509E-01 -0.19235926532E+02  0.58179386344E+02  0.61276933058E+02  0.00000000000E+00 0. -1.
<mgrwt>
<rscale>  0 0.30256352E+04</rscale>
<asrwt>0</asrwt>
<pdfrwt beam="1">  1        2 0.39550155E+00 0.30256352E+04</pdfrwt>
<pdfrwt beam="2">  1       -1 0.13696141E+00 0.30256352E+04</pdfrwt>
<totfact> 0.13637378E+00</totfact>
</mgrwt>
</event>
<event>
12    6  0.1627636E-007  0.1276212E+04  0.7818608E-02  0.9048644E-01
         -1   -1    0    0    0  501 -0.00000000000E+00  0.00000000000E+00  0.34004904869E+03  0.34004904869E+03  0.00000000000E+00 0.  1.
          2   -1    0    0  501    0  0.00000000000E+00 -0.00000000000E+00 -0.11974142571E+04  0.11974142571E+04  0.00000000000E+00 0. -1.
         24    2    1    2    0    0 -0.31119074955E+03  0.32050463260E+02 -0.19203284678E+03  0.37558804081E+03  0.79516333906E+02 0.  0.
        254    2    1    2    0    0  0.31119074955E+03 -0.32050463260E+02 -0.66533236165E+03  0.11618752650E+04  0.89967775630E+03 0.  0.
         23    2    4    4    0    0 -0.29305207826E+03 -0.51168184170E+02 -0.36526152798E+03  0.48088512670E+03  0.96627209513E+02 0.  0.
         23    2    4    4    0    0  0.60424282781E+03  0.19117720910E+02 -0.30007083367E+03  0.68099013831E+03  0.90720345235E+02 0.  0.
          4    1    3    3  502    0 -0.30744500281E+03  0.24410952161E+02 -0.19678242613E+03  0.36584374748E+03  0.00000000000E+00 0. -1.
         -3    1    3    3    0  502 -0.37457467430E+01  0.76395110991E+01  0.47495793524E+01  0.97442933310E+01  0.00000000000E+00 0.  1.
         11    1    5    5    0    0 -0.95028148362E+02 -0.53051005376E+02 -0.86914145560E+02  0.13927967135E+03  0.00000000000E+00 0.  1.
        -11    1    5    5    0    0 -0.19802392990E+03  0.18828212057E+01 -0.27834738242E+03  0.34160545536E+03  0.00000000000E+00 0. -1.
          2    1    6    6  503    0  0.27329249170E+03 -0.35307803513E+02 -0.14690099329E+03  0.31227444474E+03  0.00000000000E+00 0. -1.
         -2    1    6    6    0  503  0.33095033611E+03  0.54425524423E+02 -0.15316984038E+03  0.36871569357E+03  0.00000000000E+00 0.  1.
<mgrwt>
<rscale>  0 0.12762125E+04</rscale>
<asrwt>0</asrwt>
<pdfrwt beam="1">  1        2 0.18421758E+00 0.12762125E+04</pdfrwt>
<pdfrwt beam="2">  1       -1 0.52315237E-01 0.12762125E+04</pdfrwt>
<totfact> 0.78293137E+01</totfact>
</mgrwt>
</event>
<event>
12    6  0.1627636E-007  0.1391101E+04  0.7818608E-02  0.8960285E-01
         -1   -1    0    0    0  501 -0.00000000000E+00  0.00000000000E+00  0.11537851258E+04  0.11537851258E+04  0.00000000000E+00 0.  1.
          2   -1    0    0  501    0  0.00000000000E+00 -0.00000000000E+00 -0.41930744970E+03  0.41930744970E+03  0.00000000000E+00 0. -1.
         24    2    1    2    0    0  0.24605338911E+03  0.18309804765E+03 -0.11455654179E+03  0.33530178043E+03  0.72366548550E+02 0.  0.
        254    2    1    2    0    0 -0.24605338911E+03 -0.18309804765E+03  0.84903421786E+03  0.12377907950E+04  0.84687648676E+03 0.  0.
         23    2    4    4    0    0  0.14389197305E+03  0.25412512641E+03  0.24396587675E+03  0.39086652307E+03  0.89290593356E+02 0.  0.
         23    2    4    4    0    0 -0.38994536216E+03 -0.43722317406E+03  0.60506834112E+03  0.84692427196E+03  0.89171383324E+02 0.  0.
          4    1    3    3  502    0  0.27560868064E+02  0.13790630569E+02 -0.37122143785E+02  0.48247657966E+02  0.00000000000E+00 0. -1.
         -3    1    3    3    0  502  0.21849252104E+03  0.16930741708E+03 -0.77434398008E+02  0.28705412247E+03  0.00000000000E+00 0.  1.
         11    1    5    5    0    0 -0.10428197499E+02  0.40646761282E+02  0.33049904254E+02  0.53415378656E+02  0.00000000000E+00 0.  1.
        -11    1    5    5    0    0  0.15432017055E+03  0.21347836513E+03  0.21091597249E+03  0.33745114442E+03  0.00000000000E+00 0. -1.
          2    1    6    6  503    0 -0.28917931080E+03 -0.37723104620E+03  0.48365806190E+03  0.67812466174E+03  0.00000000000E+00 0. -1.
         -2    1    6    6    0  503 -0.10076605136E+03 -0.59992127859E+02  0.12141027921E+03  0.16879961022E+03  0.00000000000E+00 0.  1.
<mgrwt>
<rscale>  0 0.13911013E+04</rscale>
<asrwt>0</asrwt>
<pdfrwt beam="1">  1        2 0.64508839E-01 0.13911013E+04</pdfrwt>
<pdfrwt beam="2">  1       -1 0.17750540E+00 0.13911013E+04</pdfrwt>
<totfact> 0.18218080E+01</totfact>
</mgrwt>
</event>
<event>
12    6  0.1948215E-007  0.1428628E+04  0.7818608E-02  0.8933353E-01
         -1   -1    0    0    0  501 -0.00000000000E+00  0.00000000000E+00  0.20280351735E+03  0.20280351735E+03  0.00000000000E+00 0.  1.
          2   -1    0    0  501    0  0.00000000000E+00 -0.00000000000E+00 -0.25159558409E+04  0.25159558409E+04  0.00000000000E+00 0. -1.
         24    2    1    2    0    0  0.30319339041E+03 -0.83248381814E+02 -0.15602943495E+03  0.36022203671E+03  0.80982751842E+02 0.  0.
        254    2    1    2    0    0 -0.30319339041E+03  0.83248381814E+02 -0.21571228886E+04  0.23585373215E+04  0.90036804447E+03 0.  0.
         23    2    4    4    0    0  0.64241633508E+01 -0.34389545241E+03 -0.47820171088E+03  0.59644037199E+03  0.93588936227E+02 0.  0.
         23    2    4    4    0    0 -0.30961755376E+03  0.42714383422E+03 -0.16789211777E+04  0.17620969495E+04  0.88850739553E+02 0.  0.
          2    1    3    3  502    0  0.90063733276E+01  0.93347273413E+01 -0.18357505626E+02  0.22477764744E+02  0.00000000000E+00 0. -1.
         -1    1    3    3    0  502  0.29418701708E+03 -0.92583109155E+02 -0.13767192933E+03  0.33774427196E+03  0.00000000000E+00 0.  1.
         11    1    5    5    0    0 -0.15135997365E+02 -0.31062530430E+02 -0.16426557712E+02  0.38259783209E+02  0.00000000000E+00 0.  1.
        -11    1    5    5    0    0  0.21560160716E+02 -0.31283292198E+03 -0.46177515317E+03  0.55818058878E+03  0.00000000000E+00 0. -1.
          1    1    6    6  503    0 -0.13548018304E+02  0.63216721886E+02 -0.24451633834E+03  0.25291924094E+03  0.00000000000E+00 0. -1.
         -1    1    6    6    0  503 -0.29606953546E+03  0.36392711234E+03 -0.14344048393E+04  0.15091777086E+04  0.00000000000E+00 0.  1.
<mgrwt>
<rscale>  0 0.14286283E+04</rscale>
<asrwt>0</asrwt>
<pdfrwt beam="1">  1        2 0.38707017E+00 0.14286283E+04</pdfrwt>
<pdfrwt beam="2">  1       -1 0.31200538E-01 0.14286283E+04</pdfrwt>
<totfact> 0.36020710E+01</totfact>
</mgrwt>
</event>
<event>
12    6  0.1627636E-007  0.2535059E+04  0.7818608E-02  0.8390601E-01
          2   -1    0    0  501    0  0.00000000000E+00  0.00000000000E+00  0.33290030739E+04  0.33290030739E+04  0.00000000000E+00 0. -1.
         -1   -1    0    0    0  501 -0.00000000000E+00 -0.00000000000E+00 -0.48261631425E+03  0.48261631425E+03  0.00000000000E+00 0.  1.
         24    2    1    2    0    0  0.33983728711E+03  0.94949810068E+03  0.56330209567E+03  0.11579152301E+04  0.80139904457E+02 0.  0.
        254    2    1    2    0    0 -0.33983728711E+03 -0.94949810068E+03  0.22830846640E+04  0.26537041580E+04  0.90146222906E+03 0.  0.
         23    2    4    4    0    0  0.21027480359E+03 -0.69787527873E+03  0.13791687615E+04  0.15624877258E+04  0.89532245920E+02 0.  0.
         23    2    4    4    0    0 -0.55011209070E+03 -0.25162282195E+03  0.90391590249E+03  0.10912164322E+04  0.88045364385E+02 0.  0.
          4    1    3    3  502    0  0.60368723784E+01  0.10816474712E+02  0.18932864730E+02  0.22625059562E+02  0.00000000000E+00 0. -1.
         -3    1    3    3    0  502  0.33380041473E+03  0.93868162596E+03  0.54436923094E+03  0.11352901706E+04  0.00000000000E+00 0.  1.
         11    1    5    5    0    0  0.12353541577E+02 -0.56707570581E+02  0.66583786405E+02  0.88327567399E+02  0.00000000000E+00 0. -1.
        -11    1    5    5    0    0  0.19792126201E+03 -0.64116770815E+03  0.13125849751E+04  0.14741601584E+04  0.00000000000E+00 0.  1.
          2    1    6    6  503    0 -0.33348234139E+03 -0.13256814000E+03  0.46368874536E+03  0.58633781759E+03  0.00000000000E+00 0.  1.
         -2    1    6    6    0  503 -0.21662974931E+03 -0.11905468195E+03  0.44022715713E+03  0.50487861458E+03  0.00000000000E+00 0. -1.
<mgrwt>
<rscale>  0 0.25350591E+04</rscale>
<asrwt>0</asrwt>
<pdfrwt beam="1">  1        2 0.51215431E+00 0.25350591E+04</pdfrwt>
<pdfrwt beam="2">  1       -1 0.74248666E-01 0.25350591E+04</pdfrwt>
<totfact> 0.19680581E+00</totfact>
</mgrwt>
</event>
<event>
12    6  0.1627636E-007  0.2684825E+04  0.7818608E-02  0.8339945E-01
         -1   -1    0    0    0  501 -0.00000000000E+00  0.00000000000E+00  0.65919625870E+03  0.65919625870E+03  0.00000000000E+00 0.  1.
          2   -1    0    0  501    0  0.00000000000E+00 -0.00000000000E+00 -0.27337410408E+04  0.27337410408E+04  0.00000000000E+00 0. -1.
         24    2    1    2    0    0 -0.64742658513E+03  0.77158937259E+03 -0.11782909572E+03  0.10172471063E+04  0.79978975612E+02 0.  0.
        254    2    1    2    0    0  0.64742658513E+03 -0.77158937259E+03 -0.19567156864E+04  0.23756901932E+04  0.89479398385E+03 0.  0.
         23    2    4    4    0    0  0.31541289812E+03 -0.40378914061E+03 -0.17588889955E+04  0.18342855271E+04  0.91552880794E+02 0.  0.
         23    2    4    4    0    0  0.33201368701E+03 -0.36780023198E+03 -0.19782669090E+03  0.54140466609E+03  0.92051691094E+02 0.  0.
          2    1    3    3  502    0 -0.81943188917E+02  0.14295053775E+03 -0.23852943985E+02  0.16648875455E+03  0.00000000000E+00 0. -1.
         -1    1    3    3    0  502 -0.56548339621E+03  0.62863883484E+03 -0.93976151733E+02  0.85075835179E+03  0.00000000000E+00 0.  1.
         11    1    5    5    0    0  0.41567917158E+02 -0.82488716664E+02 -0.43561165498E+03  0.44529742204E+03  0.00000000000E+00 0.  1.
        -11    1    5    5    0    0  0.27384498096E+03 -0.32130042395E+03 -0.13232773405E+04  0.13889881051E+04  0.00000000000E+00 0. -1.
          4    1    6    6  503    0  0.26815901298E+03 -0.33615226833E+03 -0.14932258105E+03  0.45519758013E+03  0.00000000000E+00 0. -1.
         -4    1    6    6    0  503  0.63854674024E+02 -0.31647963647E+02 -0.48504109844E+02  0.86207085959E+02  0.00000000000E+00 0.  1.
<mgrwt>
<rscale>  0 0.26848254E+04</rscale>
<asrwt>0</asrwt>
<pdfrwt beam="1">  1        2 0.42057554E+00 0.26848254E+04</pdfrwt>
<pdfrwt beam="2">  1       -1 0.10141481E+00 0.26848254E+04</pdfrwt>
<totfact> 0.23354076E+00</totfact>
</mgrwt>
</event>
<event>
12    6  0.1627636E-007  0.1424067E+04  0.7818608E-02  0.8936579E-01
         -1   -1    0    0    0  501 -0.00000000000E+00  0.00000000000E+00  0.58550554206E+03  0.58550554206E+03  0.00000000000E+00 0.  1.
          2   -1    0    0  501    0  0.00000000000E+00 -0.00000000000E+00 -0.86590428106E+03  0.86590428106E+03  0.00000000000E+00 0. -1.
         24    2    1    2    0    0  0.34013742034E+03 -0.22198000098E+03 -0.16462121091E+01  0.41368676675E+03  0.78520350360E+02 0.  0.
        254    2    1    2    0    0 -0.34013742034E+03  0.22198000098E+03 -0.27875252689E+03  0.10377230564E+04  0.91334417660E+03 0.  0.
         23    2    4    4    0    0 -0.88065584960E+02 -0.24369191125E+03  0.18165664940E+03  0.32916828388E+03  0.90616367061E+02 0.  0.
         23    2    4    4    0    0 -0.25207183538E+03  0.46567191223E+03 -0.46040917629E+03  0.70855477249E+03  0.98400792622E+02 0.  0.
          2    1    3    3  502    0  0.16257686183E+03 -0.12766841656E+03  0.34020709106E+02  0.20949431791E+03  0.00000000000E+00 0. -1.
         -1    1    3    3    0  502  0.17756055851E+03 -0.94311584419E+02 -0.35666921215E+02  0.20419244884E+03  0.00000000000E+00 0.  1.
         11    1    5    5    0    0 -0.41888483502E+02 -0.70191229669E+02  0.10718237246E+03  0.13479434238E+03  0.00000000000E+00 0. -1.
        -11    1    5    5    0    0 -0.46177101458E+02 -0.17350068158E+03  0.74474276940E+02  0.19437394150E+03  0.00000000000E+00 0.  1.
          4    1    6    6  503    0 -0.22772295358E+03  0.45272598076E+03 -0.41317305643E+03  0.65385818936E+03  0.00000000000E+00 0. -1.
         -4    1    6    6    0  503 -0.24348881805E+02  0.12945931462E+02 -0.47236119861E+02  0.54696583130E+02  0.00000000000E+00 0.  1.
<mgrwt>
<rscale>  0 0.14240671E+04</rscale>
<asrwt>0</asrwt>
<pdfrwt beam="1">  1        2 0.13321604E+00 0.14240671E+04</pdfrwt>
<pdfrwt beam="2">  1       -1 0.90077776E-01 0.14240671E+04</pdfrwt>
<totfact> 0.41385658E+01</totfact>
</mgrwt>
</event>
<event>
12    6  0.1627636E-007  0.1519361E+04  0.7818608E-02  0.8871679E-01
         -1   -1    0    0    0  501 -0.00000000000E+00  0.00000000000E+00  0.27258385703E+03  0.27258385703E+03  0.00000000000E+00 0.  1.
          2   -1    0    0  501    0  0.00000000000E+00 -0.00000000000E+00 -0.21172009905E+04  0.21172009905E+04  0.00000000000E+00 0. -1.
         24    2    1    2    0    0 -0.37333475994E+03 -0.21640081130E+03 -0.94898281741E+03  0.10455459123E+04  0.79935679841E+02 0.  0.
        254    2    1    2    0    0  0.37333475994E+03  0.21640081130E+03 -0.89563431602E+03  0.13442389352E+04  0.90477032040E+03 0.  0.
         23    2    4    4    0    0  0.53464392252E+02  0.25445199649E+03  0.99770087830E+02  0.29402228796E+03  0.94290909606E+02 0.  0.
         23    2    4    4    0    0  0.31987036769E+03 -0.38051185186E+02 -0.99540440385E+03  0.10502166472E+04  0.91433768711E+02 0.  0.
          2    1    3    3  502    0 -0.36389994035E+03 -0.21952914807E+03 -0.94190154807E+03  0.10333415407E+04  0.00000000000E+00 0. -1.
         -1    1    3    3    0  502 -0.94348195874E+01  0.31283367663E+01 -0.70812693409E+01  0.12204371637E+02  0.00000000000E+00 0.  1.
         11    1    5    5    0    0  0.47157925918E+02  0.25878788268E+03  0.83404006080E+02  0.27595518917E+03  0.00000000000E+00 0. -1.
        -11    1    5    5    0    0  0.63064663334E+01 -0.43358861942E+01  0.16366081750E+02  0.18067098786E+02  0.00000000000E+00 0.  1.
          2    1    6    6  503    0  0.27327718615E+03 -0.63771460567E+02 -0.80474881586E+03  0.85227218438E+03  0.00000000000E+00 0. -1.
         -2    1    6    6    0  503  0.46593181542E+02  0.25720275382E+02 -0.19065558799E+03  0.19794446283E+03  0.00000000000E+00 0.  1.
<mgrwt>
<rscale>  0 0.15193615E+04</rscale>
<asrwt>0</asrwt>
<pdfrwt beam="1">  1        2 0.32572323E+00 0.15193615E+04</pdfrwt>
<pdfrwt beam="2">  1       -1 0.41935978E-01 0.15193615E+04</pdfrwt>
<totfact> 0.35286524E+01</totfact>
</mgrwt>
</event>
<event>
12    6  0.1627636E-007  0.3384226E+04  0.7818608E-02  0.8141789E-01
         -1   -1    0    0    0  501 -0.00000000000E+00  0.00000000000E+00  0.12525258184E+04  0.12525258184E+04  0.00000000000E+00 0.  1.
          2   -1    0    0  501    0  0.00000000000E+00 -0.00000000000E+00 -0.22859779814E+04  0.22859779814E+04  0.00000000000E+00 0. -1.
         24    2    1    2    0    0  0.65786299675E+03 -0.10253759559E+04  0.54398714874E+03  0.13365262633E+04  0.78745545718E+02 0.  0.
        254    2    1    2    0    0 -0.65786299675E+03  0.10253759559E+04 -0.15774393117E+04  0.22019775365E+04  0.93606127790E+03 0.  0.
         23    2    4    4    0    0 -0.58484223675E+03  0.10389001295E+04 -0.16691716388E+04  0.20532312820E+04  0.90944031360E+02 0.  0.
         23    2    4    4    0    0 -0.73020760003E+02 -0.13524173568E+02  0.91732327141E+02  0.14874625450E+03  0.90530070821E+02 0.  0.
          4    1    3    3  502    0  0.33406613791E+03 -0.57244577962E+03  0.26546128597E+03  0.71397762531E+03  0.00000000000E+00 0. -1.
         -3    1    3    3    0  502  0.32379685885E+03 -0.45293017628E+03  0.27852586277E+03  0.62254863795E+03  0.00000000000E+00 0.  1.
         11    1    5    5    0    0 -0.56193890910E+03  0.10145087194E+04 -0.15969886999E+04  0.19736707392E+04  0.00000000000E+00 0. -1.
        -11    1    5    5    0    0 -0.22903327647E+02  0.24391410082E+02 -0.72182938889E+02  0.79560542795E+02  0.00000000000E+00 0.  1.
          4    1    6    6  503    0 -0.87338425274E+02  0.11425994261E+02  0.73184423896E+02  0.11451861759E+03  0.00000000000E+00 0. -1.
         -4    1    6    6    0  503  0.14317665271E+02 -0.24950167828E+02  0.18547903244E+02  0.34227636907E+02  0.00000000000E+00 0.  1.
<mgrwt>
<rscale>  0 0.33842260E+04</rscale>
<asrwt>0</asrwt>
<pdfrwt beam="1">  1        2 0.35168892E+00 0.33842260E+04</pdfrwt>
<pdfrwt beam="2">  1       -1 0.19269628E+00 0.33842260E+04</pdfrwt>
<totfact> 0.73658910E-01</totfact>
</mgrwt>
</event>
<event>
12    6  0.1627636E-007  0.2324884E+04  0.7818608E-02  0.8468174E-01
          2   -1    0    0  501    0  0.00000000000E+00  0.00000000000E+00  0.21635730342E+04  0.21635730342E+04  0.00000000000E+00 0. -1.
         -1   -1    0    0    0  501 -0.00000000000E+00 -0.00000000000E+00 -0.62455563916E+03  0.62455563916E+03  0.00000000000E+00 0.  1.
         24    2    1    2    0    0 -0.61338131441E+03 -0.76289712752E+03  0.79227472888E+03  0.12619393032E+04  0.80888163498E+02 0.  0.
        254    2    1    2    0    0  0.61338131441E+03  0.76289712752E+03  0.74674266611E+03  0.15261893701E+04  0.90187622203E+03 0.  0.
         23    2    4    4    0    0  0.28765351033E+03  0.43658006717E+03  0.88882605663E+03  0.10356137788E+04  0.95589972483E+02 0.  0.
         23    2    4    4    0    0  0.32572780408E+03  0.32631706035E+03 -0.14208339052E+03  0.49057559126E+03  0.88855470602E+02 0.  0.
          4    1    3    3  502    0 -0.19435936801E+03 -0.22509661244E+03  0.28750461244E+03  0.41364592472E+03  0.00000000000E+00 0. -1.
         -3    1    3    3    0  502 -0.41902194640E+03 -0.53780051508E+03  0.50477011644E+03  0.84829337852E+03  0.00000000000E+00 0.  1.
         11    1    5    5    0    0  0.17050964053E+01  0.44576714484E+02  0.10008113580E+03  0.10957291897E+03  0.00000000000E+00 0. -1.
        -11    1    5    5    0    0  0.28594841393E+03  0.39200335269E+03  0.78874492083E+03  0.92604085983E+03  0.00000000000E+00 0.  1.
          1    1    6    6  503    0  0.81276769401E+02  0.89748449436E+02  0.21088288014E+01  0.12109972989E+03  0.00000000000E+00 0. -1.
         -1    1    6    6    0  503  0.24445103468E+03  0.23656861091E+03 -0.14419221932E+03  0.36947586137E+03  0.00000000000E+00 0.  1.
<mgrwt>
<rscale>  0 0.23248843E+04</rscale>
<asrwt>0</asrwt>
<pdfrwt beam="1">  1        2 0.33285739E+00 0.23248843E+04</pdfrwt>
<pdfrwt beam="2">  1       -1 0.96085483E-01 0.23248843E+04</pdfrwt>
<totfact> 0.58159231E+00</totfact>
</mgrwt>
</event>
<event>
12    6  0.1627636E-007  0.1640475E+04  0.7818608E-02  0.8796061E-01
         -1   -1    0    0    0  501 -0.00000000000E+00  0.00000000000E+00  0.35339195283E+03  0.35339195283E+03  0.00000000000E+00 0.  1.
          2   -1    0    0  501    0  0.00000000000E+00 -0.00000000000E+00 -0.19038063347E+04  0.19038063347E+04  0.00000000000E+00 0. -1.
         24    2    1    2    0    0 -0.16462386654E+03 -0.27987656631E+03 -0.11909367935E+04  0.12367885673E+04  0.76704656134E+02 0.  0.
        254    2    1    2    0    0  0.16462386654E+03  0.27987656631E+03 -0.35947758830E+03  0.10204097202E+04  0.89809796277E+03 0.  0.
         23    2    4    4    0    0  0.46834133086E+03 -0.69378651883E+02 -0.15059535776E+03  0.50540042042E+03  0.92701799654E+02 0.  0.
         23    2    4    4    0    0 -0.30371746432E+03  0.34925521820E+03 -0.20888223054E+03  0.51500929975E+03  0.85902776553E+02 0.  0.
          4    1    3    3  502    0 -0.11793130342E+03 -0.23675972154E+03 -0.10380206965E+04  0.10711908908E+04  0.00000000000E+00 0. -1.
         -3    1    3    3    0  502 -0.46692563123E+02 -0.43116844770E+02 -0.15291609699E+03  0.16559767653E+03  0.00000000000E+00 0.  1.
         11    1    5    5    0    0  0.32611685820E+03 -0.62733375005E+02 -0.14646841678E+03  0.36296098779E+03  0.00000000000E+00 0. -1.
        -11    1    5    5    0    0  0.14222447266E+03 -0.66452768777E+01 -0.41269409749E+01  0.14243943263E+03  0.00000000000E+00 0.  1.
          3    1    6    6  503    0 -0.17712420928E+03  0.24436448480E+03 -0.10051216173E+03  0.31810325619E+03  0.00000000000E+00 0. -1.
         -3    1    6    6    0  503 -0.12659325505E+03  0.10489073339E+03 -0.10837006881E+03  0.19690604356E+03  0.00000000000E+00 0.  1.
<mgrwt>
<rscale>  0 0.16404753E+04</rscale>
<asrwt>0</asrwt>
<pdfrwt beam="1">  1        2 0.29289329E+00 0.16404753E+04</pdfrwt>
<pdfrwt beam="2">  1       -1 0.54367991E-01 0.16404753E+04</pdfrwt>
<totfact> 0.28116600E+01</totfact>
</mgrwt>
</event>
<event>
12    6  0.1627636E-007  0.1113469E+04  0.7818608E-02  0.9192163E-01
          2   -1    0    0  501    0  0.00000000000E+00  0.00000000000E+00  0.13339961066E+04  0.13339961066E+04  0.00000000000E+00 0. -1.
         -1   -1    0    0    0  501 -0.00000000000E+00 -0.00000000000E+00 -0.23234945956E+03  0.23234945956E+03  0.00000000000E+00 0.  1.
         24    2    1    2    0    0 -0.97738927786E+02  0.14755801197E+03  0.24983821484E+03  0.31605491795E+03  0.78392044643E+02 0.  0.
        254    2    1    2    0    0  0.97738927786E+02 -0.14755801197E+03  0.85180843224E+03  0.12502906482E+04  0.89795480674E+03 0.  0.
         23    2    4    4    0    0 -0.30040085908E+02 -0.36496610912E+03  0.22258655858E+02  0.37830823393E+03  0.92298453569E+02 0.  0.
         23    2    4    4    0    0  0.12777901369E+03  0.21740809714E+03  0.82954977638E+03  0.87198241432E+03  0.92772530069E+02 0.  0.
          4    1    3    3  502    0 -0.11360703935E+02  0.51736146365E+02  0.12833875772E+03  0.13883994803E+03  0.00000000000E+00 0. -1.
         -3    1    3    3    0  502 -0.86378223850E+02  0.95821865608E+02  0.12149945711E+03  0.17721496992E+03  0.00000000000E+00 0.  1.
         11    1    5    5    0    0 -0.43303248560E+02 -0.34713499157E+03  0.44888284776E+01  0.34985428865E+03  0.00000000000E+00 0.  1.
        -11    1    5    5    0    0  0.13263162653E+02 -0.17831117547E+02  0.17769827380E+02  0.28453945274E+02  0.00000000000E+00 0. -1.
          2    1    6    6  503    0  0.94141845628E+02  0.80644698320E+02  0.46298087279E+03  0.47928858012E+03  0.00000000000E+00 0.  1.
         -2    1    6    6    0  503  0.33637168066E+02  0.13676339882E+03  0.36656890360E+03  0.39269383420E+03  0.00000000000E+00 0. -1.
<mgrwt>
<rscale>  0 0.11134689E+04</rscale>
<asrwt>0</asrwt>
<pdfrwt beam="1">  1        2 0.20523017E+00 0.11134689E+04</pdfrwt>
<pdfrwt beam="2">  1       -1 0.35746072E-01 0.11134689E+04</pdfrwt>
<totfact> 0.13330165E+02</totfact>
</mgrwt>
</event>
<event>
12    6  0.1627636E-007  0.1692593E+04  0.7818608E-02  0.8765600E-01
         -1   -1    0    0    0  501 -0.00000000000E+00  0.00000000000E+00  0.24667369939E+03  0.24667369939E+03  0.00000000000E+00 0.  1.
          2   -1    0    0  501    0  0.00000000000E+00 -0.00000000000E+00 -0.29035031422E+04  0.29035031422E+04  0.00000000000E+00 0. -1.
         24    2    1    2    0    0  0.81146364265E+02 -0.61861667593E+03 -0.74139232191E+03  0.97222070745E+03  0.79241433813E+02 0.  0.
        254    2    1    2    0    0 -0.81146364265E+02  0.61861667593E+03 -0.19154371209E+04  0.21779561342E+04  0.82784191362E+03 0.  0.
         23    2    4    4    0    0 -0.36848307638E+03  0.54739412713E+03 -0.16131408301E+04  0.17452450595E+04  0.90757215391E+02 0.  0.
         23    2    4    4    0    0  0.28733671212E+03  0.71222548803E+02 -0.30229629089E+03  0.43271107467E+03  0.90668567168E+02 0.  0.
          2    1    3    3  502    0 -0.90343898899E+01 -0.50666634644E+02 -0.86748397506E+02  0.10086631022E+03  0.00000000000E+00 0. -1.
         -3    1    3    3    0  502  0.90180754155E+02 -0.56795004129E+03 -0.65464392441E+03  0.87135439723E+03  0.00000000000E+00 0.  1.
         11    1    5    5    0    0 -0.21997324184E+03  0.31123765822E+03 -0.10444339081E+04  0.11118000249E+04  0.00000000000E+00 0.  1.
        -11    1    5    5    0    0 -0.14850983454E+03  0.23615646891E+03 -0.56870692194E+03  0.63344503457E+03  0.00000000000E+00 0. -1.
          4    1    6    6  503    0  0.22268789819E+03  0.22376354788E+02 -0.18621350988E+03  0.29114613601E+03  0.00000000000E+00 0. -1.
         -4    1    6    6    0  503  0.64648813931E+02  0.48846194015E+02 -0.11608278100E+03  0.14156493866E+03  0.00000000000E+00 0.  1.
<mgrwt>
<rscale>  0 0.16925931E+04</rscale>
<asrwt>0</asrwt>
<pdfrwt beam="1">  1        2 0.44669282E+00 0.16925931E+04</pdfrwt>
<pdfrwt beam="2">  1       -1 0.37949797E-01 0.16925931E+04</pdfrwt>
<totfact> 0.14590983E+01</totfact>
</mgrwt>
</event>
<event>
12    6  0.1627636E-007  0.1175190E+04  0.7818608E-02  0.9134854E-01
          2   -1    0    0  501    0  0.00000000000E+00  0.00000000000E+00  0.25667429607E+04  0.25667429607E+04  0.00000000000E+00 0. -1.
         -1   -1    0    0    0  501 -0.00000000000E+00 -0.00000000000E+00 -0.13451606864E+03  0.13451606864E+03  0.00000000000E+00 0.  1.
         24    2    1    2    0    0 -0.20269137207E+03 -0.23633940919E+01  0.26564589828E+03  0.34380461953E+03  0.80898054341E+02 0.  0.
        254    2    1    2    0    0  0.20269137207E+03  0.23633940919E+01  0.21665809938E+04  0.23574544098E+04  0.90687855511E+03 0.  0.
         23    2    4    4    0    0 -0.82593163167E+02 -0.26731565607E+03  0.21367186483E+03  0.36349043617E+03  0.90500501598E+02 0.  0.
         23    2    4    4    0    0  0.28528453524E+03  0.26967905016E+03  0.19529091290E+04  0.19939639736E+04  0.89018009574E+02 0.  0.
          4    1    3    3  502    0 -0.11310867586E+03  0.38052030977E+02  0.15866000102E+03  0.19853091835E+03  0.00000000000E+00 0. -1.
         -3    1    3    3    0  502 -0.89582696209E+02 -0.40415425069E+02  0.10698589726E+03  0.14527370119E+03  0.00000000000E+00 0.  1.
         11    1    5    5    0    0 -0.71262696228E+02 -0.15581610155E+03  0.80125696051E+02  0.18914850394E+03  0.00000000000E+00 0. -1.
        -11    1    5    5    0    0 -0.11330466939E+02 -0.11149955452E+03  0.13354616878E+03  0.17434193223E+03  0.00000000000E+00 0.  1.
          3    1    6    6  503    0  0.26906288392E+03  0.25749968029E+03  0.17037078455E+04  0.17439384575E+04  0.00000000000E+00 0. -1.
         -3    1    6    6    0  503  0.16221651319E+02  0.12179369872E+02  0.24920128344E+03  0.25002551608E+03  0.00000000000E+00 0.  1.
<mgrwt>
<rscale>  0 0.11751905E+04</rscale>
<asrwt>0</asrwt>
<pdfrwt beam="1">  1        2 0.39488350E+00 0.11751905E+04</pdfrwt>
<pdfrwt beam="2">  1       -1 0.20694782E-01 0.11751905E+04</pdfrwt>
<totfact> 0.69754439E+01</totfact>
</mgrwt>
</event>
<event>
12    6  0.1627636E-007  0.1591587E+04  0.7818608E-02  0.8825733E-01
         -1   -1    0    0    0  501 -0.00000000000E+00  0.00000000000E+00  0.30128852431E+03  0.30128852431E+03  0.00000000000E+00 0.  1.
          2   -1    0    0  501    0  0.00000000000E+00 -0.00000000000E+00 -0.21019283964E+04  0.21019283964E+04  0.00000000000E+00 0. -1.
         24    2    1    2    0    0 -0.24515628758E+03 -0.43089604099E+03 -0.30521318325E+03  0.58799093314E+03  0.82493919423E+02 0.  0.
        254    2    1    2    0    0  0.24515628758E+03  0.43089604099E+03 -0.14954266888E+04  0.18152259876E+04  0.90164926705E+03 0.  0.
         23    2    4    4    0    0  0.19585111296E+03 -0.14478833211E+03 -0.65082165471E+02  0.26996265254E+03  0.96554782074E+02 0.  0.
         23    2    4    4    0    0  0.49305174619E+02  0.57568437310E+03 -0.14303445234E+04  0.15452633350E+04  0.90054546654E+02 0.  0.
          4    1    3    3  502    0 -0.22905568098E+03 -0.42844489960E+03 -0.29951348127E+03  0.57073624595E+03  0.00000000000E+00 0. -1.
         -3    1    3    3    0  502 -0.16100606603E+02 -0.24511413827E+01 -0.56997019853E+01  0.17254687183E+02  0.00000000000E+00 0.  1.
         11    1    5    5    0    0  0.19439585472E+03 -0.10414536086E+03 -0.47170503107E+02  0.22552396965E+03  0.00000000000E+00 0. -1.
        -11    1    5    5    0    0  0.14552582386E+01 -0.40642971253E+02 -0.17911662364E+02  0.44438682895E+02  0.00000000000E+00 0.  1.
          3    1    6    6  503    0  0.65928290505E+02  0.49277275075E+03 -0.11613800686E+04  0.12633191153E+04  0.00000000000E+00 0. -1.
         -3    1    6    6    0  503 -0.16623115886E+02  0.82911622346E+02 -0.26896445473E+03  0.28194421968E+03  0.00000000000E+00 0.  1.
<mgrwt>
<rscale>  0 0.15915865E+04</rscale>
<asrwt>0</asrwt>
<pdfrwt beam="1">  1        2 0.32337361E+00 0.15915865E+04</pdfrwt>
<pdfrwt beam="2">  1       -1 0.46352080E-01 0.15915865E+04</pdfrwt>
<totfact> 0.29692237E+01</totfact>
</mgrwt>
</event>
<event>
12    6  0.1627636E-007  0.1915105E+04  0.7818608E-02  0.8647374E-01
          2   -1    0    0  501    0  0.00000000000E+00  0.00000000000E+00  0.26149687302E+04  0.26149687302E+04  0.00000000000E+00 0. -1.
         -1   -1    0    0    0  501 -0.00000000000E+00 -0.00000000000E+00 -0.35063776447E+03  0.35063776447E+03  0.00000000000E+00 0.  1.
         24    2    1    2    0    0 -0.28109244285E+02  0.17210587801E+03 -0.23384765121E+03  0.30709487583E+03  0.95979038984E+02 0.  0.
        254    2    1    2    0    0  0.28109244285E+02 -0.17210587801E+03  0.24981786169E+04  0.26585116189E+04  0.89239960923E+03 0.  0.
         23    2    4    4    0    0 -0.39712659903E+03 -0.23282681686E+03  0.12125110904E+04  0.13001763067E+04  0.91418935551E+02 0.  0.
         23    2    4    4    0    0  0.42523584331E+03  0.60720938847E+02  0.12856675265E+04  0.13583353121E+04  0.87299923603E+02 0.  0.
          2    1    3    3  502    0  0.27708067020E+02  0.11169233266E+03 -0.15592982787E+03  0.19379635025E+03  0.00000000000E+00 0. -1.
         -1    1    3    3    0  502 -0.55817311305E+02  0.60413545352E+02 -0.77917823344E+02  0.11329852558E+03  0.00000000000E+00 0.  1.
         11    1    5    5    0    0 -0.38531809563E+03 -0.19943950043E+03  0.11257928887E+04  0.12065056060E+04  0.00000000000E+00 0. -1.
        -11    1    5    5    0    0 -0.11808503394E+02 -0.33387316428E+02  0.86718201784E+02  0.93670700709E+02  0.00000000000E+00 0.  1.
          1    1    6    6  503    0  0.80652417061E+02 -0.17711220600E+02  0.19245984522E+03  0.20942610090E+03  0.00000000000E+00 0. -1.
         -1    1    6    6    0  503  0.34458342625E+03  0.78432159447E+02  0.10932076813E+04  0.11489092113E+04  0.00000000000E+00 0.  1.
<mgrwt>
<rscale>  0 0.19151050E+04</rscale>
<asrwt>0</asrwt>
<pdfrwt beam="1">  1        2 0.40230287E+00 0.19151050E+04</pdfrwt>
<pdfrwt beam="2">  1       -1 0.53944273E-01 0.19151050E+04</pdfrwt>
<totfact> 0.11029659E+01</totfact>
</mgrwt>
</event>
<event>
12    6  0.1627636E-007  0.1462405E+04  0.7818608E-02  0.8909845E-01
          2   -1    0    0  501    0  0.00000000000E+00  0.00000000000E+00  0.23657095885E+04  0.23657095885E+04  0.00000000000E+00 0. -1.
         -1   -1    0    0    0  501 -0.00000000000E+00 -0.00000000000E+00 -0.22600279245E+03  0.22600279245E+03  0.00000000000E+00 0.  1.
         24    2    1    2    0    0  0.46111690724E+03 -0.33879766144E+02  0.67803405222E+03  0.82442691074E+03  0.78567897212E+02 0.  0.
        254    2    1    2    0    0 -0.46111690724E+03  0.33879766144E+02  0.14616727438E+04  0.17672854702E+04  0.87922356798E+03 0.  0.
         23    2    4    4    0    0  0.16222990319E+03  0.15778633140E+03  0.83442719743E+03  0.86965552931E+03  0.93898476965E+02 0.  0.
         23    2    4    4    0    0 -0.62334681044E+03 -0.12390656525E+03  0.62724554637E+03  0.89762994089E+03  0.91588494597E+02 0.  0.
          2    1    3    3  502    0  0.36610650213E+03 -0.40381919990E+02  0.48330390573E+03  0.60765725180E+03  0.00000000000E+00 0. -1.
         -1    1    3    3    0  502  0.95010405110E+02  0.65021538463E+01  0.19473014649E+03  0.21676965894E+03  0.00000000000E+00 0.  1.
         11    1    5    5    0    0  0.62103269491E+02  0.23079543909E+02  0.13513039545E+03  0.15049819003E+03  0.00000000000E+00 0. -1.
        -11    1    5    5    0    0  0.10012663370E+03  0.13470678749E+03  0.69929680199E+03  0.71915733928E+03  0.00000000000E+00 0.  1.
          3    1    6    6  503    0 -0.20809327806E+03 -0.24850644435E+02  0.15259270483E+03  0.25923907975E+03  0.00000000000E+00 0.  1.
         -3    1    6    6    0  503 -0.41525353238E+03 -0.99055920816E+02  0.47465284155E+03  0.63839086114E+03  0.00000000000E+00 0. -1.
<mgrwt>
<rscale>  0 0.14624048E+04</rscale>
<asrwt>0</asrwt>
<pdfrwt beam="1">  1        2 0.36395530E+00 0.14624048E+04</pdfrwt>
<pdfrwt beam="2">  1       -1 0.34769662E-01 0.14624048E+04</pdfrwt>
<totfact> 0.36118614E+01</totfact>
</mgrwt>
</event>
<event>
12    6  0.1627636E-007  0.3281373E+04  0.7818608E-02  0.8167651E-01
          2   -1    0    0  501    0  0.00000000000E+00  0.00000000000E+00  0.26341162904E+04  0.26341162904E+04  0.00000000000E+00 0. -1.
         -1   -1    0    0    0  501 -0.00000000000E+00 -0.00000000000E+00 -0.10219182665E+04  0.10219182665E+04  0.00000000000E+00 0.  1.
         24    2    1    2    0    0 -0.35291177432E+03 -0.64989924672E+03 -0.69392766955E+03  0.10166856328E+04  0.72099334122E+02 0.  0.
        254    2    1    2    0    0  0.35291177432E+03  0.64989924672E+03  0.23061256934E+04  0.26393489241E+04  0.10493003755E+04 0.  0.
         23    2    4    4    0    0 -0.30792354889E+03  0.36463185353E+03  0.51810469116E+03  0.70974322309E+03  0.86773677718E+02 0.  0.
         23    2    4    4    0    0  0.66083532321E+03  0.28526739319E+03  0.17880210023E+04  0.19296057010E+04  0.90984872085E+02 0.  0.
          4    1    3    3  502    0 -0.47803423972E+02 -0.66577182301E+02 -0.10660451496E+03  0.13447011250E+03  0.00000000000E+00 0. -1.
         -3    1    3    3    0  502 -0.30510835035E+03 -0.58332206442E+03 -0.58732315459E+03  0.88221552027E+03  0.00000000000E+00 0.  1.
         11    1    5    5    0    0 -0.16272228250E+03  0.22951341120E+03  0.25090196382E+03  0.37697047974E+03  0.00000000000E+00 0. -1.
        -11    1    5    5    0    0 -0.14520126638E+03  0.13511844233E+03  0.26720272735E+03  0.33277274335E+03  0.00000000000E+00 0.  1.
          2    1    6    6  503    0  0.47473811970E+03  0.24804373589E+03  0.13335112642E+04  0.14370644624E+04  0.00000000000E+00 0. -1.
         -2    1    6    6    0  503  0.18609720350E+03  0.37223657300E+02  0.45450973803E+03  0.49254123866E+03  0.00000000000E+00 0.  1.
<mgrwt>
<rscale>  0 0.32813726E+04</rscale>
<asrwt>0</asrwt>
<pdfrwt beam="1">  1        2 0.40524866E+00 0.32813726E+04</pdfrwt>
<pdfrwt beam="2">  1       -1 0.15721820E+00 0.32813726E+04</pdfrwt>
<totfact> 0.84713617E-01</totfact>
</mgrwt>
</event>
<event>
12    6  0.1627636E-007  0.1295000E+04  0.7818608E-02  0.9033539E-01
          4   -1    0    0  501    0  0.00000000000E+00  0.00000000000E+00  0.83551205247E+03  0.83551205247E+03  0.00000000000E+00 0. -1.
         -3   -1    0    0    0  501 -0.00000000000E+00 -0.00000000000E+00 -0.50179588221E+03  0.50179588221E+03  0.00000000000E+00 0.  1.
         24    2    1    2    0    0 -0.24361973042E+03  0.17227155383E+03 -0.50709890243E+02  0.31296949634E+03  0.79689091858E+02 0.  0.
        254    2    1    2    0    0  0.24361973042E+03 -0.17227155383E+03  0.38442606050E+03  0.10243384383E+04  0.90136439854E+03 0.  0.
         23    2    4    4    0    0 -0.12519015094E+03  0.22522955504E+03 -0.10020844927E+03  0.29131647201E+03  0.91774872392E+02 0.  0.
         23    2    4    4    0    0  0.36880988136E+03 -0.39750110887E+03  0.48463450978E+03  0.73302196632E+03  0.91775459119E+02 0.  0.
          4    1    3    3  502    0 -0.11637065737E+01  0.22337209411E+02  0.39288107577E+01  0.22709924950E+02  0.00000000000E+00 0. -1.
         -3    1    3    3    0  502 -0.24245602385E+03  0.14993434442E+03 -0.54638701001E+02  0.29025957139E+03  0.00000000000E+00 0.  1.
         11    1    5    5    0    0 -0.32910870035E+01  0.84526538585E+02 -0.12438020476E+02  0.85500124750E+02  0.00000000000E+00 0.  1.
        -11    1    5    5    0    0 -0.12189906394E+03  0.14070301646E+03 -0.87770428798E+02  0.20581634726E+03  0.00000000000E+00 0. -1.
          4    1    6    6  503    0  0.29821986171E+03 -0.31291658742E+03  0.43125794860E+03  0.61060240323E+03  0.00000000000E+00 0. -1.
         -4    1    6    6    0  503  0.70590019649E+02 -0.84584521459E+02  0.53376561178E+02  0.12241956309E+03  0.00000000000E+00 0.  1.
<mgrwt>
<rscale>  0 0.12950004E+04</rscale>
<asrwt>0</asrwt>
<pdfrwt beam="1">  1        4 0.12854032E+00 0.12950004E+04</pdfrwt>
<pdfrwt beam="2">  1       -3 0.77199367E-01 0.12950004E+04</pdfrwt>
<totfact> 0.15703353E+00</totfact>
</mgrwt>
</event>
<event>
12    6  0.1627636E-007  0.1101729E+04  0.7818608E-02  0.9203508E-01
         -1   -1    0    0    0  501 -0.00000000000E+00  0.00000000000E+00  0.22218504045E+03  0.22218504045E+03  0.00000000000E+00 0.  1.
          2   -1    0    0  501    0  0.00000000000E+00 -0.00000000000E+00 -0.13657621318E+04  0.13657621318E+04  0.00000000000E+00 0. -1.
         24    2    1    2    0    0 -0.61397860673E+02  0.29913027327E+02  0.52628130090E+02  0.11901052435E+03  0.82032300533E+02 0.  0.
        254    2    1    2    0    0  0.61397860673E+02 -0.29913027327E+02 -0.11962052215E+04  0.14689366479E+04  0.84982554519E+03 0.  0.
         23    2    4    4    0    0 -0.19804686181E+03 -0.33993484568E+03 -0.39177955659E+03  0.56388373266E+03  0.98465142160E+02 0.  0.
         23    2    4    4    0    0  0.25944472249E+03  0.31002181836E+03 -0.80442566488E+03  0.90505291526E+03  0.92709423566E+02 0.  0.
          2    1    3    3  502    0 -0.11487738549E+02 -0.40084448041E-01 -0.21729480717E+02  0.24579261095E+02  0.00000000000E+00 0. -1.
         -1    1    3    3    0  502 -0.49910122124E+02  0.29953111775E+02  0.74357610807E+02  0.94431263258E+02  0.00000000000E+00 0.  1.
         11    1    5    5    0    0 -0.12198936477E+03 -0.11371664741E+03 -0.16792102916E+03  0.23666506512E+03  0.00000000000E+00 0.  1.
        -11    1    5    5    0    0 -0.76057497047E+02 -0.22621819828E+03 -0.22385852742E+03  0.32721866754E+03  0.00000000000E+00 0. -1.
          4    1    6    6  503    0  0.36051312018E+02  0.64565400398E+02 -0.84380723657E+02  0.11219846056E+03  0.00000000000E+00 0. -1.
         -4    1    6    6    0  503  0.22339341047E+03  0.24545641796E+03 -0.72004494122E+03  0.79285445470E+03  0.00000000000E+00 0.  1.
<mgrwt>
<rscale>  0 0.11017294E+04</rscale>
<asrwt>0</asrwt>
<pdfrwt beam="1">  1        2 0.21011725E+00 0.11017294E+04</pdfrwt>
<pdfrwt beam="2">  1       -1 0.34182314E-01 0.11017294E+04</pdfrwt>
<totfact> 0.13854991E+02</totfact>
</mgrwt>
</event>
<event>
12    6  0.1627636E-007  0.1558884E+04  0.7818608E-02  0.8846213E-01
          2   -1    0    0  501    0  0.00000000000E+00  0.00000000000E+00  0.29511432917E+04  0.29511432917E+04  0.00000000000E+00 0. -1.
         -1   -1    0    0    0  501 -0.00000000000E+00 -0.00000000000E+00 -0.20586246950E+03  0.20586246950E+03  0.00000000000E+00 0.  1.
         24    2    1    2    0    0 -0.15938446880E+03  0.49049722457E+03  0.82742203156E+03  0.97823316380E+03  0.79510805823E+02 0.  0.
        254    2    1    2    0    0  0.15938446880E+03 -0.49049722457E+03  0.19178587906E+04  0.21787725974E+04  0.89603390235E+03 0.  0.
         23    2    4    4    0    0  0.71418159890E+02 -0.71990642187E+03  0.16496475884E+04  0.18036360447E+04  0.91651548007E+02 0.  0.
         23    2    4    4    0    0  0.87966308905E+02  0.22940919730E+03  0.26821120227E+03  0.37513655267E+03  0.91779806138E+02 0.  0.
          2    1    3    3  502    0  0.59172239797E+01  0.23196648093E+02  0.22038084051E+02  0.32538825594E+02  0.00000000000E+00 0. -1.
         -1    1    3    3    0  502 -0.16530169278E+03  0.46730057648E+03  0.80538394750E+03  0.94569433820E+03  0.00000000000E+00 0.  1.
         11    1    5    5    0    0  0.58819526978E+02 -0.18602505909E+03  0.45405977477E+03  0.49420171836E+03  0.00000000000E+00 0. -1.
        -11    1    5    5    0    0  0.12598632912E+02 -0.53388136278E+03  0.11955878136E+04  0.13094343264E+04  0.00000000000E+00 0.  1.
          3    1    6    6  503    0  0.29700138900E+01  0.60656232076E+02  0.12180183794E+03  0.13610175311E+03  0.00000000000E+00 0. -1.
         -3    1    6    6    0  503  0.84996295015E+02  0.16875296523E+03  0.14640936433E+03  0.23903479956E+03  0.00000000000E+00 0.  1.
<mgrwt>
<rscale>  0 0.15588838E+04</rscale>
<asrwt>0</asrwt>
<pdfrwt beam="1">  1        2 0.45402201E+00 0.15588838E+04</pdfrwt>
<pdfrwt beam="2">  1       -1 0.31671151E-01 0.15588838E+04</pdfrwt>
<totfact> 0.19087130E+01</totfact>
</mgrwt>
</event>
<event>
12    6  0.1627636E-007  0.2036474E+04  0.7818608E-02  0.8589755E-01
         -1   -1    0    0    0  501 -0.00000000000E+00  0.00000000000E+00  0.11170612907E+04  0.11170612907E+04  0.00000000000E+00 0.  1.
          2   -1    0    0  501    0  0.00000000000E+00 -0.00000000000E+00 -0.92815540151E+03  0.92815540151E+03  0.00000000000E+00 0. -1.
         24    2    1    2    0    0 -0.59739776016E+02  0.30310367472E+03  0.83461516475E+03  0.89351778565E+03  0.79692418558E+02 0.  0.
        254    2    1    2    0    0  0.59739776016E+02 -0.30310367472E+03 -0.64570927554E+03  0.11516989066E+04  0.90223568121E+03 0.  0.
         23    2    4    4    0    0  0.37554756909E+03 -0.45105228317E+03 -0.40946334785E+03  0.72116521598E+03  0.89078037199E+02 0.  0.
         23    2    4    4    0    0 -0.31580779307E+03  0.14794860845E+03 -0.23624592769E+03  0.43053369061E+03  0.89015546331E+02 0.  0.
          2    1    3    3  502    0 -0.57293144823E+02  0.25707723905E+03  0.77252418277E+03  0.81618920860E+03  0.00000000000E+00 0. -1.
         -1    1    3    3    0  502 -0.24466311929E+01  0.46026435663E+02  0.62090981981E+02  0.77328577042E+02  0.00000000000E+00 0.  1.
         11    1    5    5    0    0  0.18705026588E+03 -0.19295327840E+03 -0.23528925243E+03  0.35718314899E+03  0.00000000000E+00 0. -1.
        -11    1    5    5    0    0  0.18849730321E+03 -0.25809900477E+03 -0.17417409542E+03  0.36398206699E+03  0.00000000000E+00 0.  1.
          1    1    6    6  503    0 -0.20332520723E+03  0.73513503782E+02 -0.97970913593E+02  0.23736822669E+03  0.00000000000E+00 0. -1.
         -1    1    6    6    0  503 -0.11248258584E+03  0.74435104668E+02 -0.13827501410E+03  0.19316546391E+03  0.00000000000E+00 0.  1.
<mgrwt>
<rscale>  0 0.20364739E+04</rscale>
<asrwt>0</asrwt>
<pdfrwt beam="1">  1        2 0.14279314E+00 0.20364739E+04</pdfrwt>
<pdfrwt beam="2">  1       -1 0.17185558E+00 0.20364739E+04</pdfrwt>
<totfact> 0.70741037E+00</totfact>
</mgrwt>
</event>
<event>
12    6  0.1627636E-007  0.1762658E+04  0.7818608E-02  0.8726413E-01
          2   -1    0    0  501    0  0.00000000000E+00  0.00000000000E+00  0.14099436993E+04  0.14099436993E+04  0.00000000000E+00 0. -1.
         -1   -1    0    0    0  501 -0.00000000000E+00 -0.00000000000E+00 -0.55090221059E+03  0.55090221059E+03  0.00000000000E+00 0.  1.
         24    2    1    2    0    0  0.43913898604E+03  0.10514287641E+03 -0.19934444453E+03  0.50007753305E+03  0.80257448100E+02 0.  0.
        254    2    1    2    0    0 -0.43913898604E+03 -0.10514287641E+03  0.10583859333E+04  0.14607683769E+04  0.89986965367E+03 0.  0.
         23    2    4    4    0    0 -0.52850594399E+03 -0.39403321197E+03  0.55044515549E+03  0.86364696938E+03  0.91189437691E+02 0.  0.
         23    2    4    4    0    0  0.89366957951E+02  0.28889033556E+03  0.50794077778E+03  0.59712140749E+03  0.84297463790E+02 0.  0.
          4    1    3    3  502    0  0.12607313841E+03 -0.44160905360E+01 -0.68233491888E+02  0.14342157264E+03  0.00000000000E+00 0. -1.
         -3    1    3    3    0  502  0.31306584764E+03  0.10955896695E+03 -0.13111095264E+03  0.35665596041E+03  0.00000000000E+00 0.  1.
         11    1    5    5    0    0  0.23790789598E+01 -0.63122327744E+01  0.12504440715E+02  0.14207932182E+02  0.00000000000E+00 0. -1.
        -11    1    5    5    0    0 -0.53088502295E+03 -0.38772097919E+03  0.53794071477E+03  0.84943903719E+03  0.00000000000E+00 0.  1.
          4    1    6    6  503    0  0.67618014766E+02  0.86040402933E+02  0.16177763152E+03  0.19531295123E+03  0.00000000000E+00 0. -1.
         -4    1    6    6    0  503  0.21748943185E+02  0.20284993262E+03  0.34616314626E+03  0.40180845626E+03  0.00000000000E+00 0.  1.
<mgrwt>
<rscale>  0 0.17626583E+04</rscale>
<asrwt>0</asrwt>
<pdfrwt beam="1">  1        2 0.21691441E+00 0.17626583E+04</pdfrwt>
<pdfrwt beam="2">  1       -1 0.84754187E-01 0.17626583E+04</pdfrwt>
<totfact> 0.21234760E+01</totfact>
</mgrwt>
</event>
<event>
12    6  0.1627636E-007  0.1237936E+04  0.7818608E-02  0.9080284E-01
          2   -1    0    0  501    0  0.00000000000E+00  0.00000000000E+00  0.58300765052E+03  0.58300765052E+03  0.00000000000E+00 0. -1.
         -1   -1    0    0    0  501 -0.00000000000E+00 -0.00000000000E+00 -0.65714654632E+03  0.65714654632E+03  0.00000000000E+00 0.  1.
         24    2    1    2    0    0 -0.10422086664E+03  0.13006421902E+03 -0.23699282902E+03  0.29933288745E+03  0.75205627363E+02 0.  0.
        254    2    1    2    0    0  0.10422086664E+03 -0.13006421902E+03  0.16285393323E+03  0.94082130939E+03  0.91150679784E+03 0.  0.
         23    2    4    4    0    0 -0.16001880440E+03 -0.77961692951E+02  0.47619768185E+03  0.51695028850E+03  0.93751401299E+02 0.  0.
         23    2    4    4    0    0  0.26423967105E+03 -0.52102526072E+02 -0.31334374863E+03  0.42387102089E+03  0.94578330320E+02 0.  0.
          2    1    3    3  502    0 -0.62577346435E+02  0.24257629048E+02 -0.11014337513E+03  0.12898030833E+03  0.00000000000E+00 0. -1.
         -1    1    3    3    0  502 -0.41643520209E+02  0.10580658997E+03 -0.12684945390E+03  0.17035257912E+03  0.00000000000E+00 0.  1.
         11    1    5    5    0    0 -0.13669074282E+03 -0.87120274937E+02  0.45839252230E+03  0.48620778067E+03  0.00000000000E+00 0.  1.
        -11    1    5    5    0    0 -0.23328061584E+02  0.91585819854E+01  0.17805159554E+02  0.30742507835E+02  0.00000000000E+00 0. -1.
          2    1    6    6  503    0  0.31239239046E+02 -0.32755025135E+02 -0.22036678787E+02  0.50342794318E+02  0.00000000000E+00 0. -1.
         -2    1    6    6    0  503  0.23300043200E+03 -0.19347500936E+02 -0.29130706984E+03  0.37352822657E+03  0.00000000000E+00 0.  1.
<mgrwt>
<rscale>  0 0.12379361E+04</rscale>
<asrwt>0</asrwt>
<pdfrwt beam="1">  1        2 0.89693485E-01 0.12379361E+04</pdfrwt>
<pdfrwt beam="2">  1       -1 0.10109947E+00 0.12379361E+04</pdfrwt>
<totfact> 0.53719942E+01</totfact>
</mgrwt>
</event>
<event>
12    6  0.1627636E-007  0.1947961E+04  0.7818608E-02  0.8631344E-01
          2   -1    0    0  501    0  0.00000000000E+00  0.00000000000E+00  0.10115316902E+04  0.10115316902E+04  0.00000000000E+00 0. -1.
         -1   -1    0    0    0  501 -0.00000000000E+00 -0.00000000000E+00 -0.93782371167E+03  0.93782371167E+03  0.00000000000E+00 0.  1.
         24    2    1    2    0    0 -0.66280630420E+03 -0.35787342562E+03 -0.49544012951E+01  0.75750653734E+03  0.80037630879E+02 0.  0.
        254    2    1    2    0    0  0.66280630420E+03  0.35787342562E+03  0.78662379825E+02  0.11918488645E+04  0.92028819411E+03 0.  0.
         23    2    4    4    0    0 -0.19133313840E+03  0.23385752685E+03  0.74717772882E+02  0.32387977501E+03  0.89541333259E+02 0.  0.
         23    2    4    4    0    0  0.85413944260E+03  0.12401589878E+03  0.39446069430E+01  0.86796908952E+03  0.91764099083E+02 0.  0.
          2    1    3    3  502    0 -0.24434427816E+03 -0.14186570267E+03  0.35898418263E+02  0.28481344824E+03  0.00000000000E+00 0. -1.
         -1    1    3    3    0  502 -0.41846202605E+03 -0.21600772296E+03 -0.40852819558E+02  0.47269308910E+03  0.00000000000E+00 0.  1.
         11    1    5    5    0    0 -0.34037433130E+02  0.37517881923E+02  0.49857913723E+02  0.71077069993E+02  0.00000000000E+00 0. -1.
        -11    1    5    5    0    0 -0.15729570527E+03  0.19633964492E+03  0.24859859160E+02  0.25280270501E+03  0.00000000000E+00 0.  1.
          3    1    6    6  503    0  0.21947520506E+03  0.55731487480E+02 -0.31693939019E+02  0.22864791734E+03  0.00000000000E+00 0. -1.
         -3    1    6    6    0  503  0.63466423754E+03  0.68284411296E+02  0.35638545962E+02  0.63932117218E+03  0.00000000000E+00 0.  1.
<mgrwt>
<rscale>  0 0.19479614E+04</rscale>
<asrwt>0</asrwt>
<pdfrwt beam="1">  1        2 0.15562026E+00 0.19479614E+04</pdfrwt>
<pdfrwt beam="2">  1       -1 0.14428057E+00 0.19479614E+04</pdfrwt>
<totfact> 0.10203974E+01</totfact>
</mgrwt>
</event>
<event>
12    6  0.1627636E-007  0.1492554E+04  0.7818608E-02  0.8889420E-01
          2   -1    0    0  501    0  0.00000000000E+00  0.00000000000E+00  0.11092886684E+04  0.11092886684E+04  0.00000000000E+00 0. -1.
         -1   -1    0    0    0  501 -0.00000000000E+00 -0.00000000000E+00 -0.50205978217E+03  0.50205978217E+03  0.00000000000E+00 0.  1.
         24    2    1    2    0    0  0.19474769592E+03 -0.31086732943E+03 -0.12230271691E+03  0.39547814143E+03  0.82944826313E+02 0.  0.
        254    2    1    2    0    0 -0.19474769592E+03  0.31086732943E+03  0.72953160317E+03  0.12158703092E+04  0.90086574313E+03 0.  0.
         23    2    4    4    0    0  0.13107756392E+03 -0.23694196471E+03  0.40338033879E+03  0.49444424751E+03  0.91850932350E+02 0.  0.
         23    2    4    4    0    0 -0.32582525985E+03  0.54780929415E+03  0.32615126439E+03  0.72142606167E+03  0.88452204543E+02 0.  0.
          4    1    3    3  502    0  0.14193039067E+03 -0.24396227230E+03 -0.56621190183E+02  0.28786765237E+03  0.00000000000E+00 0. -1.
         -3    1    3    3    0  502  0.52817305254E+02 -0.66905057132E+02 -0.65681526724E+02  0.10761048907E+03  0.00000000000E+00 0.  1.
         11    1    5    5    0    0  0.71606462383E+02 -0.14085351503E+03  0.30961868456E+03  0.34760743372E+03  0.00000000000E+00 0. -1.
        -11    1    5    5    0    0  0.59471101539E+02 -0.96088449680E+02  0.93761654228E+02  0.14683681379E+03  0.00000000000E+00 0.  1.
          2    1    6    6  503    0 -0.18019764904E+03  0.35094669389E+03  0.16114943179E+03  0.42615010740E+03  0.00000000000E+00 0.  1.
         -2    1    6    6    0  503 -0.14562761081E+03  0.19686260026E+03  0.16500183260E+03  0.29527595427E+03  0.00000000000E+00 0. -1.
<mgrwt>
<rscale>  0 0.14925538E+04</rscale>
<asrwt>0</asrwt>
<pdfrwt beam="1">  1        2 0.17065979E+00 0.14925538E+04</pdfrwt>
<pdfrwt beam="2">  1       -1 0.77239967E-01 0.14925538E+04</pdfrwt>
<totfact> 0.39846655E+01</totfact>
</mgrwt>
</event>
<event>
12    6  0.1627636E-007  0.1799522E+04  0.7818608E-02  0.8706554E-01
          2   -1    0    0  501    0  0.00000000000E+00  0.00000000000E+00  0.16310878846E+04  0.16310878846E+04  0.00000000000E+00 0. -1.
         -3   -1    0    0    0  501 -0.00000000000E+00 -0.00000000000E+00 -0.49633735216E+03  0.49633735216E+03  0.00000000000E+00 0.  1.
         24    2    1    2    0    0 -0.33588507393E+03  0.21090829789E+03  0.10688281651E+04  0.11433187846E+04  0.86504935688E+02 0.  0.
        254    2    1    2    0    0  0.33588507393E+03 -0.21090829789E+03  0.65922367360E+02  0.98410645209E+03  0.89823084868E+03 0.  0.
         23    2    4    4    0    0  0.45542729627E+03 -0.33475138024E+03  0.32642702713E+03  0.65899039445E+03  0.90781204988E+02 0.  0.
         23    2    4    4    0    0 -0.11954222234E+03  0.12384308235E+03 -0.26050465977E+03  0.32511605764E+03  0.90610822777E+02 0.  0.
          4    1    3    3  502    0 -0.27088664921E+03  0.14188338766E+03  0.88740680606E+03  0.93861670125E+03  0.00000000000E+00 0. -1.
         -3    1    3    3    0  502 -0.64998424723E+02  0.69024910232E+02  0.18142135899E+03  0.20470208340E+03  0.00000000000E+00 0.  1.
         11    1    5    5    0    0  0.21154286035E+03 -0.10190559958E+03  0.14710624248E+03  0.27708370498E+03  0.00000000000E+00 0.  1.
        -11    1    5    5    0    0  0.24388443592E+03 -0.23284578065E+03  0.17932078465E+03  0.38190668947E+03  0.00000000000E+00 0. -1.
          3    1    6    6  503    0 -0.32776118409E+02  0.85603505860E+02 -0.81989594805E+02  0.12298181902E+03  0.00000000000E+00 0. -1.
         -3    1    6    6    0  503 -0.86766103927E+02  0.38239576486E+02 -0.17851506497E+03  0.20213423862E+03  0.00000000000E+00 0.  1.
<mgrwt>
<rscale>  0 0.17995220E+04</rscale>
<asrwt>0</asrwt>
<pdfrwt beam="1">  1        2 0.25093660E+00 0.17995220E+04</pdfrwt>
<pdfrwt beam="2">  1       -3 0.76359593E-01 0.17995220E+04</pdfrwt>
<totfact> 0.10412869E+01</totfact>
</mgrwt>
</event>
<event>
12    6  0.1627636E-007  0.1860722E+04  0.7818608E-02  0.8674659E-01
          2   -1    0    0  501    0  0.00000000000E+00  0.00000000000E+00  0.14936756380E+04  0.14936756380E+04  0.00000000000E+00 0. -1.
         -1   -1    0    0    0  501 -0.00000000000E+00 -0.00000000000E+00 -0.57949070152E+03  0.57949070152E+03  0.00000000000E+00 0.  1.
         24    2    1    2    0    0  0.32905735328E+03  0.62372956837E+02 -0.34534678186E+03  0.48774604198E+03  0.80390759645E+02 0.  0.
        254    2    1    2    0    0 -0.32905735328E+03 -0.62372956837E+02  0.12595317184E+04  0.15854202976E+04  0.90275591546E+03 0.  0.
         23    2    4    4    0    0  0.11494064955E+03 -0.58425190828E+02  0.10899100353E+04  0.11013073277E+04  0.91373350136E+02 0.  0.
         23    2    4    4    0    0 -0.44399800283E+03 -0.39477660096E+01  0.16962168304E+03  0.48411296987E+03  0.91891462392E+02 0.  0.
          4    1    3    3  502    0  0.24619944846E+03  0.46052274868E+02 -0.30347037677E+03  0.39348348125E+03  0.00000000000E+00 0. -1.
         -3    1    3    3    0  502  0.82857904827E+02  0.16320681970E+02 -0.41876405081E+02  0.94262560727E+02  0.00000000000E+00 0.  1.
         11    1    5    5    0    0  0.55793162439E+02  0.20335535608E+02  0.43350555564E+03  0.43755397125E+03  0.00000000000E+00 0.  1.
        -11    1    5    5    0    0  0.59147487111E+02 -0.78760726436E+02  0.65640447969E+03  0.66375335647E+03  0.00000000000E+00 0. -1.
          1    1    6    6  503    0 -0.35305471850E+03  0.34156702984E+02  0.13725818651E+03  0.38033422720E+03  0.00000000000E+00 0. -1.
         -1    1    6    6    0  503 -0.90943284331E+02 -0.38104468994E+02  0.32363496534E+02  0.10377874267E+03  0.00000000000E+00 0.  1.
<mgrwt>
<rscale>  0 0.18607215E+04</rscale>
<asrwt>0</asrwt>
<pdfrwt beam="1">  1        2 0.22979625E+00 0.18607215E+04</pdfrwt>
<pdfrwt beam="2">  1       -1 0.89152416E-01 0.18607215E+04</pdfrwt>
<totfact> 0.16899878E+01</totfact>
</mgrwt>
</event>
<event>
12    6  0.1627636E-007  0.1679865E+04  0.7818608E-02  0.8772932E-01
          2   -1    0    0  501    0  0.00000000000E+00  0.00000000000E+00  0.24313078644E+04  0.24313078644E+04  0.00000000000E+00 0. -1.
         -1   -1    0    0    0  501 -0.00000000000E+00 -0.00000000000E+00 -0.29016741448E+03  0.29016741448E+03  0.00000000000E+00 0.  1.
         24    2    1    2    0    0  0.44543980998E+03  0.14169254202E+03  0.12181444286E+04  0.13071671619E+04  0.79477918829E+02 0.  0.
        254    2    1    2    0    0 -0.44543980998E+03 -0.14169254202E+03  0.92299602140E+03  0.14143081170E+04  0.96428854266E+03 0.  0.
         23    2    4    4    0    0 -0.24360696282E+03 -0.24817951903E+03  0.10704068596E+04  0.11290490163E+04  0.89685060543E+02 0.  0.
         23    2    4    4    0    0 -0.20183284716E+03  0.10648697701E+03 -0.14741083819E+03  0.28525910072E+03  0.86987498320E+02 0.  0.
          4    1    3    3  502    0  0.35241119666E+03  0.13551958195E+03  0.10337074999E+04  0.11005046134E+04  0.00000000000E+00 0. -1.
         -3    1    3    3    0  502  0.93028613314E+02  0.61729600729E+01  0.18443692863E+03  0.20666254855E+03  0.00000000000E+00 0.  1.
         11    1    5    5    0    0 -0.32043086838E+02 -0.74006076452E+02  0.32529913088E+03  0.33514651022E+03  0.00000000000E+00 0. -1.
        -11    1    5    5    0    0 -0.21156387598E+03 -0.17417344258E+03  0.74510772871E+03  0.79390250605E+03  0.00000000000E+00 0.  1.
          3    1    6    6  503    0 -0.53421823681E+02  0.15749676233E+02  0.23170058149E+01  0.55743269216E+02  0.00000000000E+00 0. -1.
         -3    1    6    6    0  503 -0.14841102348E+03  0.90737300780E+02 -0.14972784400E+03  0.22951583151E+03  0.00000000000E+00 0.  1.
<mgrwt>
<rscale>  0 0.16798647E+04</rscale>
<asrwt>0</asrwt>
<pdfrwt beam="1">  1        2 0.37404735E+00 0.16798647E+04</pdfrwt>
<pdfrwt beam="2">  1       -1 0.44641142E-01 0.16798647E+04</pdfrwt>
<totfact> 0.20607645E+01</totfact>
</mgrwt>
</event>
<event>
12    6  0.1627636E-007  0.1120696E+04  0.7818608E-02  0.9185251E-01
         -1   -1    0    0    0  501 -0.00000000000E+00  0.00000000000E+00  0.28908101710E+03  0.28908101710E+03  0.00000000000E+00 0.  1.
          2   -1    0    0  501    0  0.00000000000E+00 -0.00000000000E+00 -0.10861660522E+04  0.10861660522E+04  0.00000000000E+00 0. -1.
         24    2    1    2    0    0 -0.19262558298E+02  0.14054876362E+03 -0.30174593241E+03  0.34227126115E+03  0.77291703175E+02 0.  0.
        254    2    1    2    0    0  0.19262558298E+02 -0.14054876362E+03 -0.49533910268E+03  0.10329758081E+04  0.89529503094E+03 0.  0.
         23    2    4    4    0    0 -0.19961867905E+03  0.26689902815E+02  0.18824716526E+03  0.29029555035E+03  0.90964517186E+02 0.  0.
         23    2    4    4    0    0  0.21888123735E+03 -0.16723866643E+03 -0.68358626794E+03  0.74268025778E+03  0.91684305967E+02 0.  0.
          4    1    3    3  502    0 -0.10568493847E+02  0.10981114396E+03 -0.28624048181E+03  0.30676341670E+03  0.00000000000E+00 0. -1.
         -3    1    3    3    0  502 -0.86940644510E+01  0.30737619663E+02 -0.15505450592E+02  0.35507844447E+02  0.00000000000E+00 0.  1.
         11    1    5    5    0    0 -0.11049261419E+03  0.25154855170E+02  0.16138525418E+03  0.19719681740E+03  0.00000000000E+00 0. -1.
        -11    1    5    5    0    0 -0.89126064863E+02  0.15350476456E+01  0.26861911083E+02  0.93098732947E+02  0.00000000000E+00 0.  1.
          2    1    6    6  503    0  0.17327456733E+03 -0.17132998815E+03 -0.59487038330E+03  0.64284431510E+03  0.00000000000E+00 0. -1.
         -2    1    6    6    0  503  0.45606670022E+02  0.40913217136E+01 -0.88715884636E+02  0.99835942679E+02  0.00000000000E+00 0.  1.
<mgrwt>
<rscale>  0 0.11206962E+04</rscale>
<asrwt>0</asrwt>
<pdfrwt beam="1">  1        2 0.16710247E+00 0.11206962E+04</pdfrwt>
<pdfrwt beam="2">  1       -1 0.44474003E-01 0.11206962E+04</pdfrwt>
<totfact> 0.12570478E+02</totfact>
</mgrwt>
</event>
<event>
12    6  0.1627636E-007  0.1180467E+04  0.7818608E-02  0.9130128E-01
         -1   -1    0    0    0  501 -0.00000000000E+00  0.00000000000E+00  0.24345689681E+03  0.24345689681E+03  0.00000000000E+00 0.  1.
          2   -1    0    0  501    0  0.00000000000E+00 -0.00000000000E+00 -0.14309528551E+04  0.14309528551E+04  0.00000000000E+00 0. -1.
         24    2    1    2    0    0 -0.12827854248E+03 -0.19484910501E+03 -0.19534983803E+03  0.31483173172E+03  0.80844924955E+02 0.  0.
        254    2    1    2    0    0  0.12827854248E+03  0.19484910501E+03 -0.99214612026E+03  0.13595780202E+04  0.89982048814E+03 0.  0.
         23    2    4    4    0    0  0.12371503513E+03  0.43661254346E+03 -0.16189355741E+03  0.48994879256E+03  0.88906537292E+02 0.  0.
         23    2    4    4    0    0  0.45635073574E+01 -0.24176343845E+03 -0.83025256285E+03  0.86962922764E+03  0.92007008892E+02 0.  0.
          2    1    3    3  502    0 -0.71616183569E+02 -0.97436711045E+02 -0.15165475094E+03  0.19396379531E+03  0.00000000000E+00 0. -1.
         -1    1    3    3    0  502 -0.56662358916E+02 -0.97412393962E+02 -0.43695087099E+02  0.12086793641E+03  0.00000000000E+00 0.  1.
         11    1    5    5    0    0  0.12241627329E+03  0.35498397763E+03 -0.10326616842E+03  0.38943968709E+03  0.00000000000E+00 0.  1.
        -11    1    5    5    0    0  0.12987618340E+01  0.81628565831E+02 -0.58627388990E+02  0.10050910547E+03  0.00000000000E+00 0. -1.
          4    1    6    6  503    0  0.33381919997E+02 -0.32103559810E+02 -0.12480816327E+03  0.13312426058E+03  0.00000000000E+00 0. -1.
         -4    1    6    6    0  503 -0.28818412639E+02 -0.20965987864E+03 -0.70544439958E+03  0.73650496707E+03  0.00000000000E+00 0.  1.
<mgrwt>
<rscale>  0 0.11804666E+04</rscale>
<asrwt>0</asrwt>
<pdfrwt beam="1">  1        2 0.22014659E+00 0.11804666E+04</pdfrwt>
<pdfrwt beam="2">  1       -1 0.37454907E-01 0.11804666E+04</pdfrwt>
<totfact> 0.10733237E+02</totfact>
</mgrwt>
</event>
<event>
12    6  0.1627636E-007  0.2212145E+04  0.7818608E-02  0.8513390E-01
          2   -1    0    0  501    0  0.00000000000E+00  0.00000000000E+00  0.19017281030E+04  0.19017281030E+04  0.00000000000E+00 0. -1.
         -1   -1    0    0    0  501 -0.00000000000E+00 -0.00000000000E+00 -0.64330758637E+03  0.64330758637E+03  0.00000000000E+00 0.  1.
         24    2    1    2    0    0 -0.89289024516E+03 -0.69489079742E+02  0.32931206412E+03  0.95735403969E+03  0.77450627005E+02 0.  0.
        254    2    1    2    0    0  0.89289024516E+03  0.69489079742E+02  0.92910845253E+03  0.15876816497E+04  0.92488311808E+03 0.  0.
         23    2    4    4    0    0  0.10727278948E+04  0.23538676593E+02  0.72634426175E+03  0.12989675156E+04  0.91877170129E+02 0.  0.
         23    2    4    4    0    0 -0.17983764961E+03  0.45950403150E+02  0.20276419077E+03  0.28871413413E+03  0.88258225801E+02 0.  0.
          2    1    3    3  502    0 -0.78331614793E+03 -0.67998801379E+02  0.26208584127E+03  0.82879250286E+03  0.00000000000E+00 0. -1.
         -1    1    3    3    0  502 -0.10957409723E+03 -0.14902783631E+01  0.67226222849E+02  0.12856153683E+03  0.00000000000E+00 0.  1.
         11    1    5    5    0    0  0.65413232040E+03  0.35491658771E+02  0.49031502864E+03  0.81826498015E+03  0.00000000000E+00 0. -1.
        -11    1    5    5    0    0  0.41859557437E+03 -0.11952982178E+02  0.23602923311E+03  0.48070253541E+03  0.00000000000E+00 0.  1.
          2    1    6    6  503    0 -0.96898293933E+02  0.46339058396E+02  0.58497575013E+02  0.12230516744E+03  0.00000000000E+00 0. -1.
         -2    1    6    6    0  503 -0.82939355677E+02 -0.38865524596E+00  0.14426661576E+03  0.16640896669E+03  0.00000000000E+00 0.  1.
<mgrwt>
<rscale>  0 0.22121448E+04</rscale>
<asrwt>0</asrwt>
<pdfrwt beam="1">  1        2 0.29257355E+00 0.22121448E+04</pdfrwt>
<pdfrwt beam="2">  1       -1 0.98970399E-01 0.22121448E+04</pdfrwt>
<totfact> 0.76858329E+00</totfact>
</mgrwt>
</event>
<event>
12    6  0.1627636E-007  0.1405094E+04  0.7818608E-02  0.8950140E-01
         -1   -1    0    0    0  501 -0.00000000000E+00  0.00000000000E+00  0.34788231407E+03  0.34788231407E+03  0.00000000000E+00 0.  1.
          2   -1    0    0  501    0  0.00000000000E+00 -0.00000000000E+00 -0.14187900360E+04  0.14187900360E+04  0.00000000000E+00 0. -1.
         24    2    1    2    0    0 -0.30132398930E+03  0.97119610762E+02 -0.67871441288E+03  0.75534045576E+03  0.98273010156E+02 0.  0.
        254    2    1    2    0    0  0.30132398930E+03 -0.97119610762E+02 -0.39219330908E+03  0.10113318943E+04  0.87678289416E+03 0.  0.
         23    2    4    4    0    0  0.49788777549E+02  0.17860881746E+03  0.21163010199E+03  0.29585833590E+03  0.91459405250E+02 0.  0.
         23    2    4    4    0    0  0.25153521176E+03 -0.27572842822E+03 -0.60382341106E+03  0.71547355844E+03  0.89462686008E+02 0.  0.
          2    1    3    3  502    0 -0.20601427441E+03  0.91747291382E+02 -0.55505945395E+03  0.59912473171E+03  0.00000000000E+00 0. -1.
         -1    1    3    3    0  502 -0.95309714895E+02  0.53723193806E+01 -0.12365495893E+03  0.15621572404E+03  0.00000000000E+00 0.  1.
         11    1    5    5    0    0 -0.91959167757E+01 -0.71256568265E+01  0.15433214680E+02  0.19326768636E+02  0.00000000000E+00 0. -1.
        -11    1    5    5    0    0  0.58984694325E+02  0.18573447429E+03  0.19619688731E+03  0.27653156726E+03  0.00000000000E+00 0.  1.
          4    1    6    6  503    0  0.85791982463E+02 -0.43133869873E+02 -0.12062781776E+03  0.15418127449E+03  0.00000000000E+00 0. -1.
         -4    1    6    6    0  503  0.16574322929E+03 -0.23259455835E+03 -0.48319559331E+03  0.56129228395E+03  0.00000000000E+00 0.  1.
<mgrwt>
<rscale>  0 0.14050935E+04</rscale>
<asrwt>0</asrwt>
<pdfrwt beam="1">  1        2 0.21827539E+00 0.14050935E+04</pdfrwt>
<pdfrwt beam="2">  1       -1 0.53520357E-01 0.14050935E+04</pdfrwt>
<totfact> 0.55129718E+01</totfact>
</mgrwt>
</event>
<event>
12    6  0.1627636E-007  0.2015771E+04  0.7818608E-02  0.8599282E-01
         -1   -1    0    0    0  501 -0.00000000000E+00  0.00000000000E+00  0.54150694913E+03  0.54150694913E+03  0.00000000000E+00 0.  1.
          2   -1    0    0  501    0  0.00000000000E+00 -0.00000000000E+00 -0.18759383532E+04  0.18759383532E+04  0.00000000000E+00 0. -1.
         24    2    1    2    0    0 -0.46555081425E+02 -0.23226586162E+03  0.38737127043E+03  0.46095620969E+03  0.79431228223E+02 0.  0.
        254    2    1    2    0    0  0.46555081425E+02  0.23226586162E+03 -0.17218026745E+04  0.19564890926E+04  0.89840431524E+03 0.  0.
         23    2    4    4    0    0 -0.28243182715E+03  0.32842575215E+03 -0.14248796172E+04  0.14921246941E+04  0.92319919903E+02 0.  0.
         23    2    4    4    0    0  0.32898690857E+03 -0.96159890526E+02 -0.29692305731E+03  0.46436439855E+03  0.99959402345E+02 0.  0.
          2    1    3    3  502    0  0.18938159527E+02 -0.31512576216E+02  0.79926555572E+02  0.87976989217E+02  0.00000000000E+00 0. -1.
         -1    1    3    3    0  502 -0.65493240952E+02 -0.20075328541E+03  0.30744471486E+03  0.37297922047E+03  0.00000000000E+00 0.  1.
         11    1    5    5    0    0 -0.17658865984E+03  0.17096216232E+03 -0.93560548201E+03  0.96735165978E+03  0.00000000000E+00 0. -1.
        -11    1    5    5    0    0 -0.10584316731E+03  0.15746358983E+03 -0.48927413517E+03  0.52477303431E+03  0.00000000000E+00 0.  1.
          1    1    6    6  503    0  0.16904115312E+03  0.16894737310E+01 -0.15280347094E+03  0.22787423396E+03  0.00000000000E+00 0. -1.
         -1    1    6    6    0  503  0.15994575545E+03 -0.97849364257E+02 -0.14411958638E+03  0.23649016459E+03  0.00000000000E+00 0.  1.
<mgrwt>
<rscale>  0 0.20157715E+04</rscale>
<asrwt>0</asrwt>
<pdfrwt beam="1">  1        2 0.28860590E+00 0.20157715E+04</pdfrwt>
<pdfrwt beam="2">  1       -1 0.83308761E-01 0.20157715E+04</pdfrwt>
<totfact> 0.11830159E+01</totfact>
</mgrwt>
</event>
<event>
12    6  0.1627636E-007  0.2035139E+04  0.7818608E-02  0.8590366E-01
          2   -1    0    0  501    0  0.00000000000E+00  0.00000000000E+00  0.11094977426E+04  0.11094977426E+04  0.00000000000E+00 0. -1.
         -1   -1    0    0    0  501 -0.00000000000E+00 -0.00000000000E+00 -0.93325822727E+03  0.93325822727E+03  0.00000000000E+00 0.  1.
         24    2    1    2    0    0 -0.11479456978E+03 -0.24045128758E+03  0.84053618597E+03  0.88578320705E+03  0.84357542802E+02 0.  0.
        254    2    1    2    0    0  0.11479456978E+03  0.24045128758E+03 -0.66429667061E+03  0.11569727628E+04  0.90901116189E+03 0.  0.
         23    2    4    4    0    0  0.40793127659E+03 -0.10007687260E+03 -0.11868963901E+03  0.44442315448E+03  0.83674386621E+02 0.  0.
         23    2    4    4    0    0 -0.29313670681E+03  0.34052816018E+03 -0.54560703160E+03  0.71254960837E+03  0.90284853076E+02 0.  0.
          4    1    3    3  502    0 -0.67777367641E+02 -0.13654419880E+03  0.60751885133E+03  0.62635233257E+03  0.00000000000E+00 0. -1.
         -3    1    3    3    0  502 -0.47017202141E+02 -0.10390708878E+03  0.23301733463E+03  0.25943087448E+03  0.00000000000E+00 0.  1.
         11    1    5    5    0    0  0.30071767534E+03 -0.10186426157E+03 -0.11311576627E+03  0.33704988448E+03  0.00000000000E+00 0. -1.
        -11    1    5    5    0    0  0.10721360125E+03  0.17873889727E+01 -0.55738727333E+01  0.10737327000E+03  0.00000000000E+00 0.  1.
          3    1    6    6  503    0 -0.13613904886E+03  0.15307417142E+03 -0.17992363033E+03  0.27265006021E+03  0.00000000000E+00 0. -1.
         -3    1    6    6    0  503 -0.15699765795E+03  0.18745398876E+03 -0.36568340127E+03  0.43989954816E+03  0.00000000000E+00 0.  1.
<mgrwt>
<rscale>  0 0.20351392E+04</rscale>
<asrwt>0</asrwt>
<pdfrwt beam="1">  1        2 0.17069196E+00 0.20351392E+04</pdfrwt>
<pdfrwt beam="2">  1       -1 0.14357819E+00 0.20351392E+04</pdfrwt>
<totfact> 0.89068044E+00</totfact>
</mgrwt>
</event>
<event>
12    6  0.1627636E-007  0.1404077E+04  0.7818608E-02  0.8950873E-01
          2   -1    0    0  501    0  0.00000000000E+00  0.00000000000E+00  0.23258620468E+04  0.23258620468E+04  0.00000000000E+00 0. -1.
         -1   -1    0    0    0  501 -0.00000000000E+00 -0.00000000000E+00 -0.21190328195E+03  0.21190328195E+03  0.00000000000E+00 0.  1.
         24    2    1    2    0    0 -0.34153433059E+03  0.66358407783E+02  0.25530958320E+03  0.43900688234E+03  0.80591080244E+02 0.  0.
        254    2    1    2    0    0  0.34153433059E+03 -0.66358407783E+02  0.18586491816E+04  0.20987584464E+04  0.91058283458E+03 0.  0.
         23    2    4    4    0    0  0.64079870495E+03  0.30999091039E+02  0.12179709148E+04  0.13795635877E+04  0.90325075779E+02 0.  0.
         23    2    4    4    0    0 -0.29926437436E+03 -0.97357498822E+02  0.64067826683E+03  0.71919485867E+03  0.87948591900E+02 0.  0.
          2    1    3    3  502    0 -0.61851594484E+01  0.23935908428E+01  0.28204124403E+02  0.28973403456E+02  0.00000000000E+00 0. -1.
         -1    1    3    3    0  502 -0.33534917114E+03  0.63964816940E+02  0.22710545879E+03  0.41003347888E+03  0.00000000000E+00 0.  1.
         11    1    5    5    0    0  0.30734363528E+03  0.38070930902E+02  0.50427647045E+03  0.59178058821E+03  0.00000000000E+00 0. -1.
        -11    1    5    5    0    0  0.33345506967E+03 -0.70718398629E+01  0.71369444434E+03  0.78778299949E+03  0.00000000000E+00 0.  1.
          4    1    6    6  503    0 -0.19168241702E+03 -0.10176342422E+03  0.46492435172E+03  0.51308147143E+03  0.00000000000E+00 0. -1.
         -4    1    6    6    0  503 -0.10758195735E+03  0.44059254010E+01  0.17575391511E+03  0.20611338724E+03  0.00000000000E+00 0.  1.
<mgrwt>
<rscale>  0 0.14040766E+04</rscale>
<asrwt>0</asrwt>
<pdfrwt beam="1">  1        2 0.35782491E+00 0.14040766E+04</pdfrwt>
<pdfrwt beam="2">  1       -1 0.32600507E-01 0.14040766E+04</pdfrwt>
<totfact> 0.42886722E+01</totfact>
</mgrwt>
</event>
<event>
12    6  0.1627636E-007  0.1325858E+04  0.7818608E-02  0.9009307E-01
          2   -1    0    0  501    0  0.00000000000E+00  0.00000000000E+00  0.15199459672E+04  0.15199459672E+04  0.00000000000E+00 0. -1.
         -1   -1    0    0    0  501 -0.00000000000E+00 -0.00000000000E+00 -0.28913836535E+03  0.28913836535E+03  0.00000000000E+00 0.  1.
         24    2    1    2    0    0  0.31964874019E+03  0.12076044446E+03  0.40507502645E+03  0.53609859969E+03  0.80978574249E+02 0.  0.
        254    2    1    2    0    0 -0.31964874019E+03 -0.12076044446E+03  0.82573257543E+03  0.12729857329E+04  0.90658699966E+03 0.  0.
         23    2    4    4    0    0  0.11047487179E+03 -0.73535363766E+02  0.81470127586E+03  0.83064680408E+03  0.92864402300E+02 0.  0.
         23    2    4    4    0    0 -0.43012361198E+03 -0.47225080694E+02  0.11031299569E+02  0.44233892881E+03  0.91134562832E+02 0.  0.
          4    1    3    3  502    0  0.14298029051E+03  0.88604816411E+02  0.23315080536E+03  0.28749517389E+03  0.00000000000E+00 0. -1.
         -3    1    3    3    0  502  0.17666844967E+03  0.32155628050E+02  0.17192422109E+03  0.24860342580E+03  0.00000000000E+00 0.  1.
         11    1    5    5    0    0  0.10483498590E+03 -0.92852100014E+02  0.74718028050E+03  0.76019093544E+03  0.00000000000E+00 0.  1.
        -11    1    5    5    0    0  0.56398858934E+01  0.19316736247E+02  0.67520995356E+02  0.70455868641E+02  0.00000000000E+00 0. -1.
          2    1    6    6  503    0 -0.13242966537E+03 -0.55457788344E+02  0.16217975773E+02  0.14448600380E+03  0.00000000000E+00 0. -1.
         -2    1    6    6    0  503 -0.29769394661E+03  0.82327076491E+01 -0.51866762037E+01  0.29785292500E+03  0.00000000000E+00 0.  1.
<mgrwt>
<rscale>  0 0.13258577E+04</rscale>
<asrwt>0</asrwt>
<pdfrwt beam="1">  1        2 0.23383784E+00 0.13258577E+04</pdfrwt>
<pdfrwt beam="2">  1       -1 0.44482827E-01 0.13258577E+04</pdfrwt>
<totfact> 0.68991887E+01</totfact>
</mgrwt>
</event>
<event>
12    6  0.1627636E-007  0.3579613E+04  0.7818608E-02  0.8095178E-01
          2   -1    0    0  501    0  0.00000000000E+00  0.00000000000E+00  0.64922278543E+03  0.64922278543E+03  0.00000000000E+00 0. -1.
         -1   -1    0    0    0  501 -0.00000000000E+00 -0.00000000000E+00 -0.49342192265E+04  0.49342192265E+04  0.00000000000E+00 0.  1.
         24    2    1    2    0    0  0.13242751425E+04 -0.99866181071E+03 -0.22936498898E+04  0.28319311052E+04  0.89296709935E+02 0.  0.
        254    2    1    2    0    0 -0.13242751425E+04  0.99866181071E+03 -0.19913465513E+04  0.27515109067E+04  0.92429492991E+03 0.  0.
         23    2    4    4    0    0 -0.12038485216E+04  0.11032497740E+04 -0.19805149295E+04  0.25681873522E+04  0.82070478306E+02 0.  0.
         23    2    4    4    0    0 -0.12042662089E+03 -0.10458796327E+03 -0.10831621794E+02  0.18332355453E+03  0.89716155384E+02 0.  0.
          2    1    3    3  502    0  0.14530788353E+02 -0.25214760050E+02 -0.37545034534E+02  0.47503237287E+02  0.00000000000E+00 0. -1.
         -1    1    3    3    0  502  0.13097443541E+04 -0.97344705066E+03 -0.22561048552E+04  0.27844278679E+04  0.00000000000E+00 0.  1.
         11    1    5    5    0    0 -0.64549633120E+03  0.58580373073E+03 -0.99309359836E+03  0.13213880655E+04  0.00000000000E+00 0. -1.
        -11    1    5    5    0    0 -0.55835219039E+03  0.51744604325E+03 -0.98742133111E+03  0.12467992867E+04  0.00000000000E+00 0.  1.
          4    1    6    6  503    0 -0.13119405410E+03 -0.93337386766E+02  0.50407626772E+01  0.16108742001E+03  0.00000000000E+00 0. -1.
         -4    1    6    6    0  503  0.10767433208E+02 -0.11250576502E+02 -0.15872384471E+02  0.22236134519E+02  0.00000000000E+00 0.  1.
<mgrwt>
<rscale>  0 0.35796131E+04</rscale>
<asrwt>0</asrwt>
<pdfrwt beam="1">  1        2 0.99880430E-01 0.35796131E+04</pdfrwt>
<pdfrwt beam="2">  1       -1 0.75911064E+00 0.35796131E+04</pdfrwt>
<totfact> 0.48472702E-03</totfact>
</mgrwt>
</event>
<event>
12    6  0.1627636E-007  0.2029667E+04  0.7818608E-02  0.8592875E-01
          2   -1    0    0  501    0  0.00000000000E+00  0.00000000000E+00  0.20458537679E+04  0.20458537679E+04  0.00000000000E+00 0. -1.
         -1   -1    0    0    0  501 -0.00000000000E+00 -0.00000000000E+00 -0.50340194072E+03  0.50340194072E+03  0.00000000000E+00 0.  1.
         24    2    1    2    0    0  0.71787698996E+03 -0.35032955477E+03  0.39427331367E+03  0.89433735799E+03  0.79433584533E+02 0.  0.
        254    2    1    2    0    0 -0.71787698996E+03  0.35032955477E+03  0.11481785135E+04  0.16549183507E+04  0.88451267868E+03 0.  0.
         23    2    4    4    0    0 -0.13697326048E+03 -0.42669190747E+02  0.88387846040E+03  0.89999507097E+03  0.90375113266E+02 0.  0.
         23    2    4    4    0    0 -0.58090372948E+03  0.39299874552E+03  0.26430005314E+03  0.75492327969E+03  0.90318786655E+02 0.  0.
          4    1    3    3  502    0  0.12676302829E+03 -0.51125706578E+02  0.36923595945E+02  0.14158409215E+03  0.00000000000E+00 0. -1.
         -3    1    3    3    0  502  0.59111396168E+03 -0.29920384820E+03  0.35734971772E+03  0.75275326583E+03  0.00000000000E+00 0.  1.
         11    1    5    5    0    0 -0.49827413388E+02  0.27933723571E+02  0.27436615531E+03  0.28024962304E+03  0.00000000000E+00 0. -1.
        -11    1    5    5    0    0 -0.87145847096E+02 -0.70602914318E+02  0.60951230509E+03  0.61974544793E+03  0.00000000000E+00 0.  1.
          1    1    6    6  503    0 -0.10248150689E+03  0.66007021719E+02  0.10694832815E+02  0.12236733886E+03  0.00000000000E+00 0. -1.
         -1    1    6    6    0  503 -0.47842222259E+03  0.32699172380E+03  0.25360522033E+03  0.63255594083E+03  0.00000000000E+00 0.  1.
<mgrwt>
<rscale>  0 0.20296667E+04</rscale>
<asrwt>0</asrwt>
<pdfrwt beam="1">  1        2 0.31474673E+00 0.20296667E+04</pdfrwt>
<pdfrwt beam="2">  1       -1 0.77446453E-01 0.20296667E+04</pdfrwt>
<totfact> 0.11107710E+01</totfact>
</mgrwt>
</event>
