<event>
12    1  0.1519630E-007  0.1453697E+04  0.7818608E-02  0.8915841E-01
         -1   -1    0    0    0  501 -0.00000000000E+00  0.00000000000E+00  0.49793952890E+03  0.49793952890E+03  0.00000000000E+00 0.  1.
          1   -1    0    0  501    0  0.00000000000E+00 -0.00000000000E+00 -0.10609900220E+04  0.10609900220E+04  0.00000000000E+00 0. -1.
         23    2    1    2    0    0 -0.18025345483E+03 -0.14721602448E+03 -0.58440234572E+03  0.63562593036E+03  0.91270782945E+02 0.  0.
        254    2    1    2    0    0  0.18025345483E+03  0.14721602448E+03  0.21351852663E+02  0.92330362049E+03  0.89323558380E+03 0.  0.
        -24    2    4    4    0    0 -0.13648379825E+03  0.42649712601E+03 -0.12116772325E+03  0.47083507203E+03  0.80476221448E+02 0.  0.
         24    2    4    4    0    0  0.31673725308E+03 -0.27928110153E+03  0.14251957591E+03  0.45246854846E+03  0.78073917980E+02 0.  0.
         13    1    3    3    0    0 -0.58781715471E+02 -0.53223905436E+02 -0.10099713922E+03  0.12840753995E+03  0.00000000000E+00 0.  1.
        -13    1    3    3    0    0 -0.12147173936E+03 -0.93992119046E+02 -0.48340520650E+03  0.50721839041E+03  0.00000000000E+00 0. -1.
          4    1    6    6  502    0  0.41154373151E+02 -0.13725247586E+02  0.32665380049E+02  0.54305542116E+02  0.00000000000E+00 0. -1.
          3    1    5    5  503    0 -0.11015753815E+03  0.24502623703E+03 -0.45544244305E+02  0.27248269345E+03  0.00000000000E+00 0. -1.
         -4    1    5    5    0  503 -0.26326260092E+02  0.18147088899E+03 -0.75623478943E+02  0.19835237858E+03  0.00000000000E+00 0.  1.
         -3    1    6    6    0  502  0.27558287993E+03 -0.26555585394E+03  0.10985419586E+03  0.39816300634E+03  0.00000000000E+00 0.  1.
<mgrwt>
<rscale>  0 0.14536972E+04</rscale>
<asrwt>0</asrwt>
<pdfrwt beam="1">  1        1 0.16322923E+00 0.14536972E+04</pdfrwt>
<pdfrwt beam="2">  1       -1 0.76606082E-01 0.14536972E+04</pdfrwt>
<totfact> 0.22541001E+01</totfact>
</mgrwt>
</event>
<event>
12    1  0.1519630E-007  0.2313080E+04  0.7818608E-02  0.8472782E-01
         -2   -1    0    0    0  501 -0.00000000000E+00  0.00000000000E+00  0.17719978552E+04  0.17719978552E+04  0.00000000000E+00 0.  1.
          2   -1    0    0  501    0  0.00000000000E+00 -0.00000000000E+00 -0.75484528281E+03  0.75484528281E+03  0.00000000000E+00 0. -1.
         23    2    1    2    0    0 -0.46292466445E+03  0.74157804630E+03 -0.38729786590E+02  0.87960026173E+03  0.89215359339E+02 0.  0.
        254    2    1    2    0    0  0.46292466445E+03 -0.74157804630E+03  0.10558823590E+04  0.16472428763E+04  0.91339164316E+03 0.  0.
        -24    2    4    4    0    0 -0.24829943487E+03 -0.36521600492E+03  0.29575771622E+03  0.53746701087E+03  0.79767295712E+02 0.  0.
         24    2    4    4    0    0  0.71122409932E+03 -0.37636204139E+03  0.76012464278E+03  0.11097758654E+04  0.79529197788E+02 0.  0.
         13    1    3    3    0    0 -0.48051693164E+02  0.11289360058E+03  0.18994991001E+02  0.12415611121E+03  0.00000000000E+00 0. -1.
        -13    1    3    3    0    0 -0.41487297129E+03  0.62868444572E+03 -0.57724777591E+02  0.75544415051E+03  0.00000000000E+00 0.  1.
          2    1    6    6  502    0  0.11579605012E+03 -0.63777243557E+02  0.16782115402E+03  0.21363567529E+03  0.00000000000E+00 0. -1.
          1    1    5    5  503    0 -0.61238140032E+01 -0.42560080132E+02  0.13383180343E+02  0.45032999399E+02  0.00000000000E+00 0. -1.
         -2    1    5    5    0  503 -0.24217562087E+03 -0.32265592479E+03  0.28237453588E+03  0.49243401147E+03  0.00000000000E+00 0.  1.
         -1    1    6    6    0  502  0.59542804920E+03 -0.31258479783E+03  0.59230348876E+03  0.89614019015E+03  0.00000000000E+00 0.  1.
<mgrwt>
<rscale>  0 0.23130795E+04</rscale>
<asrwt>0</asrwt>
<pdfrwt beam="1">  1        2 0.11613004E+00 0.23130795E+04</pdfrwt>
<pdfrwt beam="2">  1       -2 0.27261505E+00 0.23130795E+04</pdfrwt>
<totfact> 0.15733963E+00</totfact>
</mgrwt>
</event>
<event>
12    1  0.1519630E-007  0.1598023E+04  0.7818608E-02  0.8821764E-01
          2   -1    0    0  501    0  0.00000000000E+00  0.00000000000E+00  0.24399566481E+04  0.24399566481E+04  0.00000000000E+00 0. -1.
         -2   -1    0    0    0  501 -0.00000000000E+00 -0.00000000000E+00 -0.26165184744E+03  0.26165184744E+03  0.00000000000E+00 0.  1.
         23    2    1    2    0    0  0.16125262142E+02  0.45217973121E+03  0.29669925803E+03  0.54832870757E+03  0.88923497680E+02 0.  0.
        254    2    1    2    0    0 -0.16125262142E+02 -0.45217973121E+03  0.18816055426E+04  0.21532797880E+04  0.94416518355E+03 0.  0.
        -24    2    4    4    0    0  0.18455168108E+03 -0.50054651073E+03  0.18531521597E+04  0.19304530117E+04  0.88711730031E+02 0.  0.
         24    2    4    4    0    0 -0.20067694322E+03  0.48366779520E+02  0.28453382932E+02  0.22282677626E+03  0.78940460578E+02 0.  0.
         11    1    3    3    0    0  0.83140118200E+01  0.81973253845E+01 -0.36584164789E+01  0.12235315572E+02  0.00000000000E+00 0. -1.
        -11    1    3    3    0    0  0.78112503225E+01  0.44398240583E+03  0.30035767451E+03  0.53609339200E+03  0.00000000000E+00 0.  1.
          4    1    6    6  502    0 -0.16475482840E+03  0.23019951036E+02  0.50218489116E+02  0.17376987160E+03  0.00000000000E+00 0. -1.
          3    1    5    5  503    0  0.97899205734E+02 -0.17330115985E+03  0.58702229328E+03  0.61984894877E+03  0.00000000000E+00 0. -1.
         -4    1    5    5    0  503  0.86652475342E+02 -0.32724535088E+03  0.12661298664E+04  0.13106040629E+04  0.00000000000E+00 0.  1.
         -3    1    6    6    0  502 -0.35922114814E+02  0.25346828484E+02 -0.21765106184E+02  0.49056904653E+02  0.00000000000E+00 0.  1.
<mgrwt>
<rscale>  0 0.15980227E+04</rscale>
<asrwt>0</asrwt>
<pdfrwt beam="1">  1        2 0.37537793E+00 0.15980227E+04</pdfrwt>
<pdfrwt beam="2">  1       -2 0.40254132E-01 0.15980227E+04</pdfrwt>
<totfact> 0.21163134E+01</totfact>
</mgrwt>
</event>
<event>
12    1  0.1519630E-007  0.1518900E+04  0.7818608E-02  0.8871981E-01
         -2   -1    0    0    0  501 -0.00000000000E+00  0.00000000000E+00  0.96408025386E+03  0.96408025386E+03  0.00000000000E+00 0.  1.
          2   -1    0    0  501    0  0.00000000000E+00 -0.00000000000E+00 -0.59825318397E+03  0.59825318397E+03  0.00000000000E+00 0. -1.
         23    2    1    2    0    0  0.45108360361E+02 -0.35272398881E+03  0.48562316307E+03  0.60875422800E+03  0.91120124793E+02 0.  0.
        254    2    1    2    0    0 -0.45108360361E+02  0.35272398881E+03 -0.11979609317E+03  0.95357920983E+03  0.87664886301E+03 0.  0.
        -24    2    4    4    0    0  0.28425588197E+03  0.34173231070E+03  0.19337725396E+03  0.49202509543E+03  0.84330027674E+02 0.  0.
         24    2    4    4    0    0 -0.32936424233E+03  0.10991678113E+02 -0.31317334713E+03  0.46155411440E+03  0.79705922315E+02 0.  0.
         13    1    3    3    0    0 -0.99116087581E+01 -0.12854043851E+03  0.23487714368E+03  0.26793312028E+03  0.00000000000E+00 0.  1.
        -13    1    3    3    0    0  0.55019969119E+02 -0.22418355030E+03  0.25074601939E+03  0.34082110772E+03  0.00000000000E+00 0. -1.
          2    1    6    6  502    0 -0.10226501684E+03 -0.31836277048E+02 -0.84339985429E+02  0.13632650274E+03  0.00000000000E+00 0. -1.
          1    1    5    5  503    0  0.13111442159E+03  0.22278936011E+03  0.10837057651E+03  0.28030389291E+03  0.00000000000E+00 0. -1.
         -2    1    5    5    0  503  0.15314146039E+03  0.11894295059E+03  0.85006677457E+02  0.21172120252E+03  0.00000000000E+00 0.  1.
         -1    1    6    6    0  502 -0.22709922549E+03  0.42827955161E+02 -0.22883336170E+03  0.32522761167E+03  0.00000000000E+00 0.  1.
<mgrwt>
<rscale>  0 0.15188997E+04</rscale>
<asrwt>0</asrwt>
<pdfrwt beam="1">  1        2 0.92038952E-01 0.15188997E+04</pdfrwt>
<pdfrwt beam="2">  1       -2 0.14832004E+00 0.15188997E+04</pdfrwt>
<totfact> 0.14813333E+01</totfact>
</mgrwt>
</event>
<event>
12    1  0.1519630E-007  0.2897284E+04  0.7818608E-02  0.8273686E-01
          1   -1    0    0  501    0  0.00000000000E+00  0.00000000000E+00  0.11761492266E+04  0.11761492266E+04  0.00000000000E+00 0. -1.
         -1   -1    0    0    0  501 -0.00000000000E+00 -0.00000000000E+00 -0.17842661643E+04  0.17842661643E+04  0.00000000000E+00 0.  1.
         23    2    1    2    0    0  0.48248765707E+03 -0.75417477487E+02  0.96756650853E+03  0.10876591928E+04  0.91298609903E+02 0.  0.
        254    2    1    2    0    0 -0.48248765707E+03  0.75417477487E+02 -0.15756834462E+04  0.18727561981E+04  0.88654121153E+03 0.  0.
        -24    2    4    4    0    0 -0.62670363908E+03  0.13714870797E+03 -0.15688182919E+04  0.16967717296E+04  0.79222787358E+02 0.  0.
         24    2    4    4    0    0  0.14421598201E+03 -0.61731230486E+02 -0.68651542609E+01  0.17598446846E+03  0.79463252586E+02 0.  0.
         11    1    3    3    0    0  0.38691123677E+03 -0.64639072879E+02  0.84700010319E+03  0.93342792421E+03  0.00000000000E+00 0. -1.
        -11    1    3    3    0    0  0.95576420299E+02 -0.10778404607E+02  0.12056640534E+03  0.15423126862E+03  0.00000000000E+00 0.  1.
          2    1    6    6  502    0  0.54776642275E+01 -0.22017999560E+02 -0.21086937180E+02  0.30975087242E+02  0.00000000000E+00 0. -1.
          3    1    5    5  503    0 -0.44528851633E+02  0.31579872091E+02 -0.14294667511E+03  0.15301587785E+03  0.00000000000E+00 0. -1.
         -4    1    5    5    0  503 -0.58217478745E+03  0.10556883588E+03 -0.14258716168E+04  0.15437558518E+04  0.00000000000E+00 0.  1.
         -1    1    6    6    0  502  0.13873831778E+03 -0.39713230926E+02  0.14221782919E+02  0.14500938122E+03  0.00000000000E+00 0.  1.
<mgrwt>
<rscale>  0 0.28972837E+04</rscale>
<asrwt>0</asrwt>
<pdfrwt beam="1">  1        1 0.18094604E+00 0.28972837E+04</pdfrwt>
<pdfrwt beam="2">  1       -1 0.27450249E+00 0.28972837E+04</pdfrwt>
<totfact> 0.46142279E-01</totfact>
</mgrwt>
</event>
<event>
12    1  0.1519630E-007  0.3293122E+04  0.7818608E-02  0.8164648E-01
          2   -1    0    0  501    0  0.00000000000E+00  0.00000000000E+00  0.18992705239E+04  0.18992705239E+04  0.00000000000E+00 0. -1.
         -2   -1    0    0    0  501 -0.00000000000E+00 -0.00000000000E+00 -0.14274764192E+04  0.14274764192E+04  0.00000000000E+00 0.  1.
         23    2    1    2    0    0  0.64039493305E+03  0.54601075384E+03  0.14977767038E+04  0.17204635377E+04  0.91794971734E+02 0.  0.
        254    2    1    2    0    0 -0.64039493305E+03 -0.54601075384E+03 -0.10259825990E+04  0.16062834053E+04  0.90513682457E+03 0.  0.
        -24    2    4    4    0    0 -0.61517855140E+03 -0.30591348548E+03 -0.16788075814E+03  0.71171191298E+03  0.79512184148E+02 0.  0.
         24    2    4    4    0    0 -0.25216381649E+02 -0.24009726835E+03 -0.85810184088E+03  0.89457149235E+03  0.75078768263E+02 0.  0.
         13    1    3    3    0    0  0.21032267494E+03  0.16676299598E+03  0.39578311960E+03  0.47821522579E+03  0.00000000000E+00 0. -1.
        -13    1    3    3    0    0  0.43007225811E+03  0.37924775785E+03  0.11019935842E+04  0.12422483120E+04  0.00000000000E+00 0.  1.
          4    1    6    6  502    0 -0.26626564879E+02 -0.14591087264E+03 -0.39368532073E+03  0.42069833429E+03  0.00000000000E+00 0. -1.
          3    1    5    5  503    0 -0.11619815965E+03 -0.34071429381E+02 -0.52040474843E+02  0.13179941437E+03  0.00000000000E+00 0. -1.
         -4    1    5    5    0  503 -0.49898039175E+03 -0.27184205610E+03 -0.11584028330E+03  0.57991249861E+03  0.00000000000E+00 0.  1.
         -3    1    6    6    0  502  0.14101832293E+01 -0.94186395712E+02 -0.46441652015E+03  0.47387315807E+03  0.00000000000E+00 0.  1.
<mgrwt>
<rscale>  0 0.32931225E+04</rscale>
<asrwt>0</asrwt>
<pdfrwt beam="1">  1        2 0.29219547E+00 0.32931225E+04</pdfrwt>
<pdfrwt beam="2">  1       -2 0.21961176E+00 0.32931225E+04</pdfrwt>
<totfact> 0.63137943E-01</totfact>
</mgrwt>
</event>
<event>
12    1  0.1519630E-007  0.2419125E+04  0.7818608E-02  0.8432378E-01
         -2   -1    0    0    0  501 -0.00000000000E+00  0.00000000000E+00  0.60989068911E+03  0.60989068911E+03  0.00000000000E+00 0.  1.
          2   -1    0    0  501    0  0.00000000000E+00 -0.00000000000E+00 -0.23988593610E+04  0.23988593610E+04  0.00000000000E+00 0. -1.
         23    2    1    2    0    0 -0.58515664097E+03  0.52921179821E+03  0.76098575664E+02  0.79509729694E+03  0.62572330451E+02 0.  0.
        254    2    1    2    0    0  0.58515664097E+03 -0.52921179821E+03 -0.18650672476E+04  0.22136527532E+04  0.89404096770E+03 0.  0.
        -24    2    4    4    0    0  0.61242243243E+03 -0.72222260532E+03 -0.16976787975E+04  0.19456224999E+04  0.81650997803E+02 0.  0.
         24    2    4    4    0    0 -0.27265791450E+02  0.19301080710E+03 -0.16738845014E+03  0.26803025331E+03  0.76319908333E+02 0.  0.
         13    1    3    3    0    0 -0.53241824219E+03  0.45718640336E+03  0.75511148089E+02  0.70582612980E+03  0.00000000000E+00 0.  1.
        -13    1    3    3    0    0 -0.52738398789E+02  0.72025394850E+02  0.58742757508E+00  0.89271167133E+02  0.00000000000E+00 0. -1.
          4    1    6    6  502    0  0.76568509067E+01  0.15548482201E+03 -0.14249932015E+03  0.21104552467E+03  0.00000000000E+00 0. -1.
          3    1    5    5  503    0  0.33817911180E+03 -0.45789808101E+03 -0.10412633278E+04  0.11867034516E+04  0.00000000000E+00 0. -1.
         -4    1    5    5    0  503  0.27424332063E+03 -0.26432452430E+03 -0.65641546966E+03  0.75891904830E+03  0.00000000000E+00 0.  1.
         -3    1    6    6    0  502 -0.34922642357E+02  0.37525985093E+02 -0.24889129992E+02  0.56984728640E+02  0.00000000000E+00 0.  1.
<mgrwt>
<rscale>  0 0.24191255E+04</rscale>
<asrwt>0</asrwt>
<pdfrwt beam="1">  1        2 0.36905529E+00 0.24191255E+04</pdfrwt>
<pdfrwt beam="2">  1       -2 0.93829337E-01 0.24191255E+04</pdfrwt>
<totfact> 0.34290102E+00</totfact>
</mgrwt>
</event>
<event>
12    1  0.1519630E-007  0.4361113E+04  0.7818608E-02  0.7935413E-01
         -2   -1    0    0    0  501 -0.00000000000E+00  0.00000000000E+00  0.11982394913E+04  0.11982394913E+04  0.00000000000E+00 0.  1.
          2   -1    0    0  501    0  0.00000000000E+00 -0.00000000000E+00 -0.39681776873E+04  0.39681776873E+04  0.00000000000E+00 0. -1.
         23    2    1    2    0    0  0.14979504730E+04  0.23037672800E+03 -0.30209983480E+04  0.33810252180E+04  0.89282978415E+02 0.  0.
        254    2    1    2    0    0 -0.14979504730E+04 -0.23037672800E+03  0.25106015195E+03  0.17853919605E+04  0.90976051596E+03 0.  0.
        -24    2    4    4    0    0 -0.56959193565E+03 -0.12746495748E+03  0.54546614827E+03  0.80289983780E+03  0.80203130215E+02 0.  0.
         24    2    4    4    0    0 -0.92835853736E+03 -0.10291177052E+03 -0.29440599632E+03  0.98249212272E+03  0.78584184948E+02 0.  0.
         11    1    3    3    0    0  0.12862991755E+04  0.22466001598E+03 -0.26338498052E+04  0.29397623183E+04  0.00000000000E+00 0. -1.
        -11    1    3    3    0    0  0.21165129753E+03  0.57167120173E+01 -0.38714854277E+03  0.44126289976E+03  0.00000000000E+00 0.  1.
          2    1    6    6  502    0 -0.54226247007E+03 -0.82346610273E+02 -0.13925737504E+03  0.56588176077E+03  0.00000000000E+00 0. -1.
          1    1    5    5  503    0 -0.27954197047E+03 -0.61290295739E+02  0.32215462477E+03  0.43091044994E+03  0.00000000000E+00 0. -1.
         -2    1    5    5    0  503 -0.29004996518E+03 -0.66174661739E+02  0.22331152350E+03  0.37198938787E+03  0.00000000000E+00 0.  1.
         -1    1    6    6    0  502 -0.38609606730E+03 -0.20565160244E+02 -0.15514862128E+03  0.41661036195E+03  0.00000000000E+00 0.  1.
<mgrwt>
<rscale>  0 0.43611133E+04</rscale>
<asrwt>0</asrwt>
<pdfrwt beam="1">  1        2 0.61048886E+00 0.43611133E+04</pdfrwt>
<pdfrwt beam="2">  1       -2 0.18434454E+00 0.43611133E+04</pdfrwt>
<totfact> 0.46894824E-02</totfact>
</mgrwt>
</event>
<event>
12    1  0.1519630E-007  0.2319378E+04  0.7818608E-02  0.8470319E-01
         -1   -1    0    0    0  501 -0.00000000000E+00  0.00000000000E+00  0.93392291670E+03  0.93392291670E+03  0.00000000000E+00 0.  1.
          1   -1    0    0  501    0  0.00000000000E+00 -0.00000000000E+00 -0.14400320955E+04  0.14400320955E+04  0.00000000000E+00 0. -1.
         23    2    1    2    0    0  0.21724539834E+03 -0.82063896702E+03 -0.73104353888E+03  0.11241121351E+04  0.92517886076E+02 0.  0.
        254    2    1    2    0    0 -0.21724539834E+03  0.82063896702E+03  0.22493436008E+03  0.12498428771E+04  0.88930752488E+03 0.  0.
        -24    2    4    4    0    0 -0.37330998568E+03  0.92606517984E+03  0.93956262511E+02  0.10061287787E+04  0.80686289279E+02 0.  0.
         24    2    4    4    0    0  0.15606458735E+03 -0.10542621281E+03  0.13097809757E+03  0.24371409844E+03  0.82282792620E+02 0.  0.
         13    1    3    3    0    0  0.17355837680E+03 -0.50880882896E+03 -0.49244151300E+03  0.72904566271E+03  0.00000000000E+00 0. -1.
        -13    1    3    3    0    0  0.43687021534E+02 -0.31183013806E+03 -0.23860202589E+03  0.39506647239E+03  0.00000000000E+00 0.  1.
          2    1    6    6  502    0  0.11891319733E+03 -0.75906535946E+02  0.13605402955E+03  0.19599196324E+03  0.00000000000E+00 0. -1.
          1    1    5    5  503    0 -0.25662285805E+03  0.59488030870E+03  0.25469537180E+02  0.64837224669E+03  0.00000000000E+00 0. -1.
         -2    1    5    5    0  503 -0.11668712763E+03  0.33118487114E+03  0.68486725332E+02  0.35775653198E+03  0.00000000000E+00 0.  1.
         -1    1    6    6    0  502  0.37151390017E+02 -0.29519676868E+02 -0.50759319719E+01  0.47722135199E+02  0.00000000000E+00 0.  1.
<mgrwt>
<rscale>  0 0.23193783E+04</rscale>
<asrwt>0</asrwt>
<pdfrwt beam="1">  1        1 0.22154340E+00 0.23193783E+04</pdfrwt>
<pdfrwt beam="2">  1       -1 0.14368045E+00 0.23193783E+04</pdfrwt>
<totfact> 0.25442308E+00</totfact>
</mgrwt>
</event>
<event>
12    1  0.1519630E-007  0.2117087E+04  0.7818608E-02  0.8553754E-01
          1   -1    0    0  501    0  0.00000000000E+00  0.00000000000E+00  0.25955598086E+04  0.25955598086E+04  0.00000000000E+00 0. -1.
         -1   -1    0    0    0  501 -0.00000000000E+00 -0.00000000000E+00 -0.43170424960E+03  0.43170424960E+03  0.00000000000E+00 0.  1.
         23    2    1    2    0    0  0.79298453080E+03  0.13910919302E+03  0.13351884944E+04  0.15616629460E+04  0.88808826132E+02 0.  0.
        254    2    1    2    0    0 -0.79298453080E+03 -0.13910919302E+03  0.82866706453E+03  0.14656011122E+04  0.90173260031E+03 0.  0.
        -24    2    4    4    0    0  0.84546409168E+02 -0.22507212326E+03  0.42066101734E+03  0.49083160084E+03  0.78450066306E+02 0.  0.
         24    2    4    4    0    0 -0.87753093996E+03  0.85962930237E+02  0.40800604719E+03  0.97476951132E+03  0.79097975201E+02 0.  0.
         13    1    3    3    0    0  0.17262259595E+03  0.67506080454E+02  0.31808656970E+03  0.36815037329E+03  0.00000000000E+00 0.  1.
        -13    1    3    3    0    0  0.62036193484E+03  0.71603112569E+02  0.10171019247E+04  0.11935125727E+04  0.00000000000E+00 0. -1.
          4    1    6    6  502    0 -0.42311893740E+03  0.41640344601E+02  0.15327554234E+03  0.45194794542E+03  0.00000000000E+00 0. -1.
          3    1    5    5  503    0  0.32536417506E+02 -0.63042795066E+02  0.19976447710E+03  0.21198787415E+03  0.00000000000E+00 0. -1.
         -4    1    5    5    0  503  0.52009991663E+02 -0.16202932819E+03  0.22089654024E+03  0.27884372670E+03  0.00000000000E+00 0.  1.
         -1    1    6    6    0  502 -0.45441200256E+03  0.44322585636E+02  0.25473050485E+03  0.52282156590E+03  0.00000000000E+00 0.  1.
<mgrwt>
<rscale>  0 0.21170869E+04</rscale>
<asrwt>0</asrwt>
<pdfrwt beam="1">  1        1 0.39931688E+00 0.21170869E+04</pdfrwt>
<pdfrwt beam="2">  1       -1 0.66416040E-01 0.21170869E+04</pdfrwt>
<totfact> 0.24524398E+00</totfact>
</mgrwt>
</event>
<event>
12    1  0.1519630E-007  0.1410370E+04  0.7818608E-02  0.8946346E-01
         -2   -1    0    0    0  501 -0.00000000000E+00  0.00000000000E+00  0.49152390049E+03  0.49152390049E+03  0.00000000000E+00 0.  1.
          2   -1    0    0  501    0  0.00000000000E+00 -0.00000000000E+00 -0.10117230753E+04  0.10117230753E+04  0.00000000000E+00 0. -1.
         23    2    1    2    0    0 -0.53170361167E+02  0.70186946965E+02 -0.57581337610E+03  0.59076261499E+03  0.98418130142E+02 0.  0.
        254    2    1    2    0    0  0.53170361167E+02 -0.70186946965E+02  0.55614201293E+02  0.91248436081E+03  0.90652163488E+03 0.  0.
        -24    2    4    4    0    0 -0.36526868925E+03 -0.20699149325E+03 -0.10063189378E+03  0.43916756400E+03  0.80465381385E+02 0.  0.
         24    2    4    4    0    0  0.41843905041E+03  0.13680454628E+03  0.15624609507E+03  0.47331679681E+03  0.76218272921E+02 0.  0.
         13    1    3    3    0    0 -0.71678047735E+02  0.68531662019E+02 -0.33861971257E+03  0.35284223240E+03  0.00000000000E+00 0. -1.
        -13    1    3    3    0    0  0.18507686568E+02  0.16552849458E+01 -0.23719366354E+03  0.23792038259E+03  0.00000000000E+00 0.  1.
          2    1    6    6  502    0  0.41454057300E+03  0.13235630087E+03  0.16268508852E+03  0.46457347650E+03  0.00000000000E+00 0. -1.
          1    1    5    5  503    0 -0.22855676342E+03 -0.83880182997E+02 -0.54140952472E+02  0.24940994755E+03  0.00000000000E+00 0. -1.
         -2    1    5    5    0  503 -0.13671192583E+03 -0.12311131025E+03 -0.46490941303E+02  0.18975761645E+03  0.00000000000E+00 0.  1.
         -1    1    6    6    0  502  0.38984774157E+01  0.44482454173E+01 -0.64389934510E+01  0.87433203141E+01  0.00000000000E+00 0.  1.
<mgrwt>
<rscale>  0 0.14103703E+04</rscale>
<asrwt>0</asrwt>
<pdfrwt beam="1">  1        2 0.15564970E+00 0.14103703E+04</pdfrwt>
<pdfrwt beam="2">  1       -2 0.75619063E-01 0.14103703E+04</pdfrwt>
<totfact> 0.37759861E+01</totfact>
</mgrwt>
</event>
<event>
12    1  0.1519630E-007  0.2517989E+04  0.7818608E-02  0.8396605E-01
         -2   -1    0    0    0  501 -0.00000000000E+00  0.00000000000E+00  0.75610612422E+03  0.75610612422E+03  0.00000000000E+00 0. -1.
          2   -1    0    0  501    0  0.00000000000E+00 -0.00000000000E+00 -0.20963551343E+04  0.20963551343E+04  0.00000000000E+00 0.  1.
         23    2    1    2    0    0 -0.67585264353E+03 -0.75140274857E+03 -0.10802196171E+04  0.14814692952E+04  0.80585142711E+02 0.  0.
        254    2    1    2    0    0  0.67585264353E+03  0.75140274857E+03 -0.26002939300E+03  0.13709919633E+04  0.88916859588E+03 0.  0.
        -24    2    4    4    0    0  0.76149596330E+03  0.39200167870E+03  0.79475664115E+02  0.86298115821E+03  0.69847548400E+02 0.  0.
         24    2    4    4    0    0 -0.85643319776E+02  0.35940106988E+03 -0.33950505711E+03  0.50801080509E+03  0.79419059654E+02 0.  0.
         13    1    3    3    0    0 -0.16492735954E+03 -0.17321374180E+03 -0.30644758050E+03  0.38873404002E+03  0.00000000000E+00 0. -1.
        -13    1    3    3    0    0 -0.51092528399E+03 -0.57818900677E+03 -0.77377203661E+03  0.10927352552E+04  0.00000000000E+00 0.  1.
          4    1    6    6  502    0 -0.15061029426E+02  0.13608582172E+03 -0.17313050551E+03  0.22072688422E+03  0.00000000000E+00 0. -1.
          3    1    5    5  503    0  0.24699333899E+03  0.11688357655E+03  0.56834120423E+02  0.27910141027E+03  0.00000000000E+00 0. -1.
         -4    1    5    5    0  503  0.51450262431E+03  0.27511810214E+03  0.22641543692E+02  0.58387974794E+03  0.00000000000E+00 0.  1.
         -3    1    6    6    0  502 -0.70582290349E+02  0.22331524816E+03 -0.16637455161E+03  0.28728392087E+03  0.00000000000E+00 0.  1.
<mgrwt>
<rscale>  0 0.25179888E+04</rscale>
<asrwt>0</asrwt>
<pdfrwt beam="1">  1        2 0.32251617E+00 0.25179888E+04</pdfrwt>
<pdfrwt beam="2">  1       -2 0.11632402E+00 0.25179888E+04</pdfrwt>
<totfact> 0.30142566E+00</totfact>
</mgrwt>
</event>
<event>
12    1  0.1519630E-007  0.2026451E+04  0.7818608E-02  0.8594353E-01
          2   -1    0    0  501    0  0.00000000000E+00  0.00000000000E+00  0.13321277050E+04  0.13321277050E+04  0.00000000000E+00 0. -1.
         -2   -1    0    0    0  501 -0.00000000000E+00 -0.00000000000E+00 -0.77066633884E+03  0.77066633884E+03  0.00000000000E+00 0.  1.
         23    2    1    2    0    0  0.34661926028E+03  0.48629994278E+03  0.79232560454E+03  0.99664899446E+03  0.94322895504E+02 0.  0.
        254    2    1    2    0    0 -0.34661926028E+03 -0.48629994278E+03 -0.23086423834E+03  0.11061450494E+04  0.90201221048E+03 0.  0.
        -24    2    4    4    0    0  0.98915429624E+02 -0.58967845667E+03 -0.22197484935E+03  0.64234722327E+03  0.76368691380E+02 0.  0.
         24    2    4    4    0    0 -0.44553468990E+03  0.10337851389E+03 -0.88893889964E+01  0.46379782615E+03  0.76427254713E+02 0.  0.
         11    1    3    3    0    0  0.21945045997E+01  0.22934774061E+01  0.30139702825E+02  0.30306394959E+02  0.00000000000E+00 0.  1.
        -11    1    3    3    0    0  0.34442475568E+03  0.48400646537E+03  0.76218590171E+03  0.96634259950E+03  0.00000000000E+00 0. -1.
          4    1    6    6  502    0 -0.28831074506E+02 -0.88178869209E+01 -0.11439359397E+02  0.32246626651E+02  0.00000000000E+00 0. -1.
          1    1    5    5  503    0  0.30467373390E+02 -0.17906929856E+03 -0.10561236160E+03  0.21011436279E+03  0.00000000000E+00 0. -1.
         -2    1    5    5    0  503  0.68448056234E+02 -0.41060915810E+03 -0.11636248775E+03  0.43223286048E+03  0.00000000000E+00 0.  1.
         -3    1    6    6    0  502 -0.41670361539E+03  0.11219640081E+03  0.25499704007E+01  0.43155119950E+03  0.00000000000E+00 0.  1.
<mgrwt>
<rscale>  0 0.20264511E+04</rscale>
<asrwt>0</asrwt>
<pdfrwt beam="1">  1        2 0.20494272E+00 0.20264511E+04</pdfrwt>
<pdfrwt beam="2">  1       -2 0.11856405E+00 0.20264511E+04</pdfrwt>
<totfact> 0.80332140E+00</totfact>
</mgrwt>
</event>
<event>
12    1  0.1519630E-007  0.2005728E+04  0.7818608E-02  0.8603947E-01
          2   -1    0    0  501    0  0.00000000000E+00  0.00000000000E+00  0.30008311302E+04  0.30008311302E+04  0.00000000000E+00 0.  1.
         -2   -1    0    0    0  501 -0.00000000000E+00 -0.00000000000E+00 -0.33515266269E+03  0.33515266269E+03  0.00000000000E+00 0. -1.
         23    2    1    2    0    0  0.33769976058E+03 -0.15256195332E+03  0.22484239786E+04  0.22805130360E+04  0.89515596450E+02 0.  0.
        254    2    1    2    0    0 -0.33769976058E+03  0.15256195332E+03  0.41725448895E+03  0.10554707569E+04  0.89587997649E+03 0.  0.
        -24    2    4    4    0    0 -0.13578649069E+03  0.10252699867E+03  0.68314004068E+03  0.70846934810E+03  0.79364636435E+02 0.  0.
         24    2    4    4    0    0 -0.20191326989E+03  0.50034954647E+02 -0.26588555172E+03  0.34700140882E+03  0.80264474478E+02 0.  0.
         13    1    3    3    0    0  0.98342906756E+02 -0.98481491401E+01  0.45906376657E+03  0.46958263930E+03  0.00000000000E+00 0. -1.
        -13    1    3    3    0    0  0.23935685382E+03 -0.14271380418E+03  0.17893602120E+04  0.18109303967E+04  0.00000000000E+00 0.  1.
          2    1    6    6  502    0 -0.16756678167E+03  0.67379648222E+01 -0.19975284475E+03  0.26081645936E+03  0.00000000000E+00 0. -1.
          1    1    5    5  503    0 -0.37899151371E+02  0.69240338373E+02  0.38213656167E+03  0.39020369283E+03  0.00000000000E+00 0. -1.
         -2    1    5    5    0  503 -0.97887339324E+02  0.33286660295E+02  0.30100347901E+03  0.31826565527E+03  0.00000000000E+00 0.  1.
         -1    1    6    6    0  502 -0.34346488215E+02  0.43296989825E+02 -0.66132706975E+02  0.86184949455E+02  0.00000000000E+00 0.  1.
<mgrwt>
<rscale>  0 0.20057283E+04</rscale>
<asrwt>0</asrwt>
<pdfrwt beam="1">  1        2 0.46166631E+00 0.20057283E+04</pdfrwt>
<pdfrwt beam="2">  1       -2 0.51561950E-01 0.20057283E+04</pdfrwt>
<totfact> 0.57515961E+00</totfact>
</mgrwt>
</event>
<event>
12    1  0.1519630E-007  0.1083885E+04  0.7818608E-02  0.9221043E-01
          2   -1    0    0  501    0  0.00000000000E+00  0.00000000000E+00  0.63698578363E+03  0.63698578363E+03  0.00000000000E+00 0. -1.
         -2   -1    0    0    0  501 -0.00000000000E+00 -0.00000000000E+00 -0.46108007494E+03  0.46108007494E+03  0.00000000000E+00 0.  1.
         23    2    1    2    0    0 -0.34024687272E+02 -0.95740724809E+02  0.13757901418E+03  0.19280269835E+03  0.88999604578E+02 0.  0.
        254    2    1    2    0    0  0.34024687272E+02  0.95740724809E+02  0.38326694505E+02  0.90526316022E+03  0.89872603612E+03 0.  0.
        -24    2    4    4    0    0  0.16893676815E+03 -0.36841894651E+03  0.44560462012E+02  0.41491643719E+03  0.76797547487E+02 0.  0.
         24    2    4    4    0    0 -0.13491208088E+03  0.46415967131E+03 -0.62337675074E+01  0.49034672303E+03  0.82192328610E+02 0.  0.
         11    1    3    3    0    0 -0.96865000629E+01  0.97155522493E+01 -0.42809127027E+01  0.14371724063E+02  0.00000000000E+00 0.  1.
        -11    1    3    3    0    0 -0.24338187209E+02 -0.10545627706E+03  0.14185992688E+03  0.17843097428E+03  0.00000000000E+00 0. -1.
          4    1    6    6  502    0 -0.18777069622E+02  0.12121624015E+02 -0.76615231356E+01  0.23626490410E+02  0.00000000000E+00 0. -1.
          3    1    5    5  503    0  0.51676147623E+02 -0.45822204943E+02  0.26109701267E+01  0.69115236120E+02  0.00000000000E+00 0. -1.
         -4    1    5    5    0  503  0.11726062053E+03 -0.32259674156E+03  0.41949491886E+02  0.34580120107E+03  0.00000000000E+00 0.  1.
         -3    1    6    6    0  502 -0.11613501126E+03  0.45203804730E+03  0.14277556281E+01  0.46672023262E+03  0.00000000000E+00 0.  1.
<mgrwt>
<rscale>  0 0.10838846E+04</rscale>
<asrwt>0</asrwt>
<pdfrwt beam="1">  1        2 0.97997812E-01 0.10838846E+04</pdfrwt>
<pdfrwt beam="2">  1       -2 0.70935397E-01 0.10838846E+04</pdfrwt>
<totfact> 0.82779762E+01</totfact>
</mgrwt>
</event>
<event>
12    1  0.1519630E-007  0.1728942E+04  0.7818608E-02  0.8745028E-01
         -2   -1    0    0    0  501 -0.00000000000E+00  0.00000000000E+00  0.24179871002E+03  0.24179871002E+03  0.00000000000E+00 0. -1.
          2   -1    0    0  501    0  0.00000000000E+00 -0.00000000000E+00 -0.30906299528E+04  0.30906299528E+04  0.00000000000E+00 0.  1.
         23    2    1    2    0    0  0.43166634888E+03 -0.27580738958E+02 -0.18804794492E+04  0.19316934665E+04  0.90222813096E+02 0.  0.
        254    2    1    2    0    0 -0.43166634888E+03  0.27580738958E+02 -0.96835179359E+03  0.14007351963E+04  0.91501768289E+03 0.  0.
        -24    2    4    4    0    0 -0.96194221330E+02  0.34208894373E+03 -0.45990299591E+02  0.36697634792E+03  0.79236094268E+02 0.  0.
         24    2    4    4    0    0 -0.33547212755E+03 -0.31450820477E+03 -0.92236149400E+03  0.10337588484E+04  0.80309848062E+02 0.  0.
         13    1    3    3    0    0  0.15607113143E+03  0.27029285797E+02 -0.77964883891E+03  0.79557595009E+03  0.00000000000E+00 0. -1.
        -13    1    3    3    0    0  0.27559521745E+03 -0.54610024755E+02 -0.11008306103E+04  0.11361175164E+04  0.00000000000E+00 0.  1.
          2    1    6    6  502    0 -0.28866047364E+03 -0.26837019857E+03 -0.71773013414E+03  0.81883086042E+03  0.00000000000E+00 0. -1.
          3    1    5    5  503    0 -0.98348270271E+02  0.31412883005E+03 -0.61604109225E+02  0.33487963570E+03  0.00000000000E+00 0. -1.
         -4    1    5    5    0  503  0.21540489413E+01  0.27960113682E+02  0.15613809634E+02  0.32096712219E+02  0.00000000000E+00 0.  1.
         -1    1    6    6    0  502 -0.46811653911E+02 -0.46138006209E+02 -0.20463135986E+03  0.21492798793E+03  0.00000000000E+00 0.  1.
<mgrwt>
<rscale>  0 0.17289423E+04</rscale>
<asrwt>0</asrwt>
<pdfrwt beam="1">  1        2 0.47548152E+00 0.17289423E+04</pdfrwt>
<pdfrwt beam="2">  1       -2 0.37199803E-01 0.17289423E+04</pdfrwt>
<totfact> 0.99203179E+00</totfact>
</mgrwt>
</event>
<event>
12    1  0.1519630E-007  0.1139568E+04  0.7818608E-02  0.9167462E-01
          2   -1    0    0  501    0  0.00000000000E+00  0.00000000000E+00  0.36107452909E+03  0.36107452909E+03  0.00000000000E+00 0. -1.
         -2   -1    0    0    0  501 -0.00000000000E+00 -0.00000000000E+00 -0.89913259625E+03  0.89913259625E+03  0.00000000000E+00 0.  1.
         23    2    1    2    0    0 -0.10889639401E+03 -0.16739789465E+03 -0.12181655822E+03  0.25125340317E+03  0.91697977017E+02 0.  0.
        254    2    1    2    0    0  0.10889639401E+03  0.16739789465E+03 -0.41624150894E+03  0.10089537222E+04  0.89713440462E+03 0.  0.
        -24    2    4    4    0    0  0.53345183326E+02 -0.11401067864E+03 -0.62673453778E+03  0.64417657964E+03  0.79518183327E+02 0.  0.
         24    2    4    4    0    0  0.55551210687E+02  0.28140857329E+03  0.21049302884E+03  0.36477714253E+03  0.80488051254E+02 0.  0.
         11    1    3    3    0    0  0.90002343815E+01 -0.18900058527E+02  0.69471701352E+01  0.22056282646E+02  0.00000000000E+00 0. -1.
        -11    1    3    3    0    0 -0.11789662839E+03 -0.14849783612E+03 -0.12876372835E+03  0.22919712053E+03  0.00000000000E+00 0.  1.
          4    1    6    6  502    0 -0.11033019959E+02  0.14826842177E+03  0.11436622110E+03  0.18757634433E+03  0.00000000000E+00 0. -1.
          3    1    5    5  503    0  0.31439847211E+02 -0.18740121280E+02 -0.70682642598E+02  0.79597060893E+02  0.00000000000E+00 0. -1.
         -4    1    5    5    0  503  0.21905336114E+02 -0.95270557360E+02 -0.55605189518E+03  0.56457951875E+03  0.00000000000E+00 0.  1.
         -3    1    6    6    0  502  0.66584230646E+02  0.13314015152E+03  0.96126807739E+02  0.17720079820E+03  0.00000000000E+00 0.  1.
<mgrwt>
<rscale>  0 0.11395681E+04</rscale>
<asrwt>0</asrwt>
<pdfrwt beam="1">  1        2 0.55549928E-01 0.11395681E+04</pdfrwt>
<pdfrwt beam="2">  1       -2 0.13832809E+00 0.11395681E+04</pdfrwt>
<totfact> 0.32722335E+01</totfact>
</mgrwt>
</event>
<event>
12    1  0.1519630E-007  0.3345134E+04  0.7818608E-02  0.8151505E-01
         -1   -1    0    0    0  501 -0.00000000000E+00  0.00000000000E+00  0.19249234235E+04  0.19249234235E+04  0.00000000000E+00 0.  1.
          1   -1    0    0  501    0  0.00000000000E+00 -0.00000000000E+00 -0.14532945310E+04  0.14532945310E+04  0.00000000000E+00 0. -1.
         23    2    1    2    0    0 -0.75628498622E+03 -0.39425808643E+03  0.15305705065E+04  0.17543760966E+04  0.88221279143E+02 0.  0.
        254    2    1    2    0    0  0.75628498622E+03  0.39425808643E+03 -0.10589416140E+04  0.16238418579E+04  0.88774918668E+03 0.  0.
        -24    2    4    4    0    0  0.77417894098E+03 -0.35748940351E+02 -0.79251041851E+03  0.11116206934E+04  0.83646775749E+02 0.  0.
         24    2    4    4    0    0 -0.17893954760E+02  0.43000702678E+03 -0.26643119547E+03  0.51222116449E+03  0.78477402731E+02 0.  0.
         11    1    3    3    0    0 -0.82704033220E+02 -0.33848771464E+02  0.21916920004E+03  0.23668720854E+03  0.00000000000E+00 0. -1.
        -11    1    3    3    0    0 -0.67358095300E+03 -0.36040931496E+03  0.13114013064E+04  0.15176888881E+04  0.00000000000E+00 0.  1.
          4    1    6    6  502    0 -0.31939479088E+02  0.73179335477E+02 -0.39178630638E+02  0.88939926714E+02  0.00000000000E+00 0. -1.
          3    1    5    5  503    0  0.10124715284E+03 -0.77775423866E+01 -0.14743544580E+03  0.17902147023E+03  0.00000000000E+00 0. -1.
         -4    1    5    5    0  503  0.67293178815E+03 -0.27971397965E+02 -0.64507497270E+03  0.93259922314E+03  0.00000000000E+00 0.  1.
         -3    1    6    6    0  502  0.14045524327E+02  0.35682769130E+03 -0.22725256483E+03  0.42328123778E+03  0.00000000000E+00 0.  1.
<mgrwt>
<rscale>  0 0.33451342E+04</rscale>
<asrwt>0</asrwt>
<pdfrwt beam="1">  1        1 0.22358377E+00 0.33451342E+04</pdfrwt>
<pdfrwt beam="2">  1       -1 0.29614207E+00 0.33451342E+04</pdfrwt>
<totfact> 0.20380941E-01</totfact>
</mgrwt>
</event>
<event>
12    1  0.1519630E-007  0.1529832E+04  0.7818608E-02  0.8864854E-01
         -1   -1    0    0    0  501 -0.00000000000E+00  0.00000000000E+00  0.19912660699E+03  0.19912660699E+03  0.00000000000E+00 0.  1.
          1   -1    0    0  501    0  0.00000000000E+00 -0.00000000000E+00 -0.29383149882E+04  0.29383149882E+04  0.00000000000E+00 0. -1.
         23    2    1    2    0    0 -0.12838406556E+02  0.20254084478E+03  0.24696864926E+02  0.22284306075E+03  0.88664965452E+02 0.  0.
        254    2    1    2    0    0  0.12838406556E+02 -0.20254084478E+03 -0.27638852461E+04  0.29145985345E+04  0.90257151779E+03 0.  0.
        -24    2    4    4    0    0 -0.37107532529E+03  0.11498879418E+03 -0.88855235519E+03  0.97264766076E+03  0.74825558818E+02 0.  0.
         24    2    4    4    0    0  0.38391373184E+03 -0.31752963896E+03 -0.18753328910E+04  0.19419508737E+04  0.78005889723E+02 0.  0.
         13    1    3    3    0    0 -0.30566729202E+02  0.27095901923E+02 -0.12312661884E+02  0.42662799695E+02  0.00000000000E+00 0. -1.
        -13    1    3    3    0    0  0.17728322647E+02  0.17544494286E+03  0.37009526810E+02  0.18018026105E+03  0.00000000000E+00 0.  1.
          4    1    6    6  502    0  0.27752523900E+03 -0.18851495106E+03 -0.13215815371E+04  0.13635013400E+04  0.00000000000E+00 0. -1.
          1    1    5    5  503    0 -0.31357173280E+03  0.12437595531E+03 -0.76124521395E+03  0.83264091038E+03  0.00000000000E+00 0. -1.
         -2    1    5    5    0  503 -0.57503592486E+02 -0.93871611385E+01 -0.12730714123E+03  0.14000675038E+03  0.00000000000E+00 0.  1.
         -3    1    6    6    0  502  0.10638849284E+03 -0.12901468789E+03 -0.55375135384E+03  0.57844953365E+03  0.00000000000E+00 0.  1.
<mgrwt>
<rscale>  0 0.15298323E+04</rscale>
<asrwt>0</asrwt>
<pdfrwt beam="1">  1        1 0.45204841E+00 0.15298323E+04</pdfrwt>
<pdfrwt beam="2">  1       -1 0.30634866E-01 0.15298323E+04</pdfrwt>
<totfact> 0.63238817E+00</totfact>
</mgrwt>
</event>
<event>
12    1  0.1519630E-007  0.1698998E+04  0.7818608E-02  0.8761936E-01
          2   -1    0    0  501    0  0.00000000000E+00  0.00000000000E+00  0.23918398457E+04  0.23918398457E+04  0.00000000000E+00 0.  1.
         -2   -1    0    0    0  501 -0.00000000000E+00 -0.00000000000E+00 -0.30171264723E+03  0.30171264723E+03  0.00000000000E+00 0. -1.
         23    2    1    2    0    0 -0.67153555949E+02 -0.13627378277E+03 -0.17834086595E+03  0.25202680460E+03  0.92908028843E+02 0.  0.
        254    2    1    2    0    0  0.67153555949E+02  0.13627378277E+03  0.22684680644E+04  0.24415256883E+04  0.88995515815E+03 0.  0.
        -24    2    4    4    0    0 -0.22640414169E+03 -0.76369605210E+02  0.19069861848E+04  0.19235890371E+04  0.80667977227E+02 0.  0.
         24    2    4    4    0    0  0.29355769764E+03  0.21264338798E+03  0.36148187957E+03  0.51793665120E+03  0.78713995645E+02 0.  0.
         11    1    3    3    0    0 -0.53711806242E+01 -0.64541065104E+02 -0.13109769489E+03  0.14622244791E+03  0.00000000000E+00 0. -1.
        -11    1    3    3    0    0 -0.61782375325E+02 -0.71732717661E+02 -0.47243171062E+02  0.10580435670E+03  0.00000000000E+00 0.  1.
          4    1    6    6  502    0  0.19595431312E+03  0.18088103327E+03  0.28195796250E+03  0.38809320227E+03  0.00000000000E+00 0. -1.
          3    1    5    5  503    0 -0.17320633655E+03 -0.63374002784E+02  0.16798488683E+04  0.16899434664E+04  0.00000000000E+00 0. -1.
         -4    1    5    5    0  503 -0.53197805143E+02 -0.12995602426E+02  0.22713731649E+03  0.23364557067E+03  0.00000000000E+00 0.  1.
         -3    1    6    6    0  502  0.97603384520E+02  0.31762354703E+02  0.79523917064E+02  0.12984344893E+03  0.00000000000E+00 0.  1.
<mgrwt>
<rscale>  0 0.16989977E+04</rscale>
<asrwt>0</asrwt>
<pdfrwt beam="1">  1        2 0.36797535E+00 0.16989977E+04</pdfrwt>
<pdfrwt beam="2">  1       -2 0.46417332E-01 0.16989977E+04</pdfrwt>
<totfact> 0.16847254E+01</totfact>
</mgrwt>
</event>
<event>
12    1  0.1519630E-007  0.1698929E+04  0.7818608E-02  0.8761975E-01
         -2   -1    0    0    0  501 -0.00000000000E+00  0.00000000000E+00  0.84519866009E+03  0.84519866009E+03  0.00000000000E+00 0.  1.
          2   -1    0    0  501    0  0.00000000000E+00 -0.00000000000E+00 -0.85375217222E+03  0.85375217222E+03  0.00000000000E+00 0. -1.
         23    2    1    2    0    0  0.19491917786E+03  0.32985121987E+01  0.56980061343E+03  0.60862560709E+03  0.88022863285E+02 0.  0.
        254    2    1    2    0    0 -0.19491917786E+03 -0.32985121987E+01 -0.57835412556E+03  0.10903252252E+04  0.90349943891E+03 0.  0.
        -24    2    4    4    0    0 -0.28680106979E+02 -0.43970328621E+03 -0.24349272366E+03  0.50976510543E+03  0.80063898261E+02 0.  0.
         24    2    4    4    0    0 -0.16623907088E+03  0.43640477401E+03 -0.33486140190E+03  0.58056011979E+03  0.82664011149E+02 0.  0.
         11    1    3    3    0    0  0.91752516650E+01 -0.12503677625E+02  0.96396420280E+01  0.18260610496E+02  0.00000000000E+00 0. -1.
        -11    1    3    3    0    0  0.18574392619E+03  0.15802189824E+02  0.56016097141E+03  0.59036499660E+03  0.00000000000E+00 0.  1.
          4    1    6    6  502    0 -0.14349999244E+03  0.37589908844E+03 -0.32035509249E+03  0.51431484307E+03  0.00000000000E+00 0. -1.
          1    1    5    5  503    0 -0.34804903852E+02 -0.39806270175E+03 -0.19216569265E+03  0.44338803467E+03  0.00000000000E+00 0. -1.
         -4    1    5    5    0  503  0.61247968725E+01 -0.41640584450E+02 -0.51327031010E+02  0.66377070758E+02  0.00000000000E+00 0.  1.
         -3    1    6    6    0  502 -0.22739078437E+02  0.60505685569E+02 -0.14506309415E+02  0.66245276716E+02  0.00000000000E+00 0.  1.
<mgrwt>
<rscale>  0 0.16989293E+04</rscale>
<asrwt>0</asrwt>
<pdfrwt beam="1">  1        2 0.13134649E+00 0.16989293E+04</pdfrwt>
<pdfrwt beam="2">  1       -2 0.13003056E+00 0.16989293E+04</pdfrwt>
<totfact> 0.13029061E+01</totfact>
</mgrwt>
</event>
<event>
12    1  0.1519630E-007  0.1895219E+04  0.7818608E-02  0.8657240E-01
         -1   -1    0    0    0  501 -0.00000000000E+00  0.00000000000E+00  0.12675556262E+04  0.12675556262E+04  0.00000000000E+00 0.  1.
          1   -1    0    0  501    0  0.00000000000E+00 -0.00000000000E+00 -0.70842176095E+03  0.70842176095E+03  0.00000000000E+00 0. -1.
         23    2    1    2    0    0  0.13204356834E+03 -0.71719506312E+03  0.24222054891E+03  0.77392524902E+03  0.92115331212E+02 0.  0.
        254    2    1    2    0    0 -0.13204356834E+03  0.71719506312E+03  0.31691331633E+03  0.12020521381E+04  0.90149377712E+03 0.  0.
        -24    2    4    4    0    0 -0.18137893974E+02  0.84647266420E+03  0.20750451610E+02  0.85080478802E+03  0.81198840158E+02 0.  0.
         24    2    4    4    0    0 -0.11390567437E+03 -0.12927760107E+03  0.29616286472E+03  0.35124735010E+03  0.77298497554E+02 0.  0.
         11    1    3    3    0    0  0.12395130206E+03 -0.57605068294E+03  0.16081154177E+03  0.61078528680E+03  0.00000000000E+00 0. -1.
        -11    1    3    3    0    0  0.80922662832E+01 -0.14114438018E+03  0.81409007137E+02  0.16313996222E+03  0.00000000000E+00 0.  1.
          4    1    6    6  502    0 -0.10810844646E+03 -0.12300807215E+03  0.30007645701E+03  0.34185421170E+03  0.00000000000E+00 0. -1.
          3    1    5    5  503    0  0.26766335625E+02  0.40188229460E+03 -0.99881339013E+01  0.40289648578E+03  0.00000000000E+00 0. -1.
         -4    1    5    5    0  503 -0.44904229600E+02  0.44459036960E+03  0.30738585511E+02  0.44790830224E+03  0.00000000000E+00 0.  1.
         -3    1    6    6    0  502 -0.57972279058E+01 -0.62695289298E+01 -0.39135922897E+01  0.93931384001E+01  0.00000000000E+00 0.  1.
<mgrwt>
<rscale>  0 0.18952192E+04</rscale>
<asrwt>0</asrwt>
<pdfrwt beam="1">  1        1 0.10898796E+00 0.18952192E+04</pdfrwt>
<pdfrwt beam="2">  1       -1 0.19500856E+00 0.18952192E+04</pdfrwt>
<totfact> 0.40806801E+00</totfact>
</mgrwt>
</event>
<event>
12    1  0.1519630E-007  0.2289426E+04  0.7818608E-02  0.8482102E-01
          1   -1    0    0  501    0  0.00000000000E+00  0.00000000000E+00  0.14242028364E+04  0.14242028364E+04  0.00000000000E+00 0. -1.
         -1   -1    0    0    0  501 -0.00000000000E+00 -0.00000000000E+00 -0.92007112414E+03  0.92007112414E+03  0.00000000000E+00 0.  1.
         23    2    1    2    0    0  0.44497960626E+02 -0.41101119539E+03  0.11104510850E+04  0.11895132927E+04  0.10454659377E+03 0.  0.
        254    2    1    2    0    0 -0.44497960626E+02  0.41101119539E+03 -0.60631937270E+03  0.11547606678E+04  0.89159337533E+03 0.  0.
        -24    2    4    4    0    0 -0.86405357431E+02  0.23084062003E+03 -0.82056289197E+03  0.86061794748E+03  0.81157342191E+02 0.  0.
         24    2    4    4    0    0  0.41907396805E+02  0.18017057536E+03  0.21424351927E+03  0.29414272031E+03  0.80012425469E+02 0.  0.
         13    1    3    3    0    0 -0.18032931098E+02 -0.43449463011E+02  0.20448435029E+03  0.20982586102E+03  0.00000000000E+00 0.  1.
        -13    1    3    3    0    0  0.62530891724E+02 -0.36756173238E+03  0.90596673467E+03  0.97968743172E+03  0.00000000000E+00 0. -1.
          2    1    6    6  502    0  0.49990722363E+02  0.12803392572E+03  0.19373024626E+03  0.23753561159E+03  0.00000000000E+00 0. -1.
          3    1    5    5  503    0 -0.82643100688E+02  0.16609558905E+03 -0.69448719516E+03  0.71883940560E+03  0.00000000000E+00 0. -1.
         -4    1    5    5    0  503 -0.37622567424E+01  0.64745030978E+02 -0.12607569681E+03  0.14177854188E+03  0.00000000000E+00 0.  1.
         -1    1    6    6    0  502 -0.80833255577E+01  0.52136649644E+02  0.20513273009E+02  0.56607108721E+02  0.00000000000E+00 0.  1.
<mgrwt>
<rscale>  0 0.22894260E+04</rscale>
<asrwt>0</asrwt>
<pdfrwt beam="1">  1        1 0.21910813E+00 0.22894260E+04</pdfrwt>
<pdfrwt beam="2">  1       -1 0.14154940E+00 0.22894260E+04</pdfrwt>
<totfact> 0.27220341E+00</totfact>
</mgrwt>
</event>
<event>
12    1  0.1519630E-007  0.1950926E+04  0.7818608E-02  0.8629914E-01
          2   -1    0    0  501    0  0.00000000000E+00  0.00000000000E+00  0.62647956890E+03  0.62647956890E+03  0.00000000000E+00 0. -1.
         -2   -1    0    0    0  501 -0.00000000000E+00 -0.00000000000E+00 -0.15188494525E+04  0.15188494525E+04  0.00000000000E+00 0.  1.
         23    2    1    2    0    0  0.25625481406E+02  0.33629091647E+03 -0.11061197235E+04  0.11593637942E+04  0.82917541847E+02 0.  0.
        254    2    1    2    0    0 -0.25625481406E+02 -0.33629091647E+03  0.21374983988E+03  0.98596522723E+03  0.90149331082E+03 0.  0.
        -24    2    4    4    0    0 -0.47454199421E+02  0.90598200340E+02  0.46565832499E+03  0.48348307259E+03  0.80363367918E+02 0.  0.
         24    2    4    4    0    0  0.21828718015E+02 -0.42688911681E+03 -0.25190848511E+03  0.50248215464E+03  0.79496036865E+02 0.  0.
         11    1    3    3    0    0  0.23807337805E+02  0.44550884474E+02 -0.10364346699E+03  0.11529761008E+03  0.00000000000E+00 0. -1.
        -11    1    3    3    0    0  0.18181436014E+01  0.29174003200E+03 -0.10024762565E+04  0.10440661841E+04  0.00000000000E+00 0.  1.
          2    1    6    6  502    0  0.76497511908E+01 -0.24099302957E+02  0.32068806130E+01  0.25486843264E+02  0.00000000000E+00 0. -1.
          1    1    5    5  503    0  0.12575999822E+02  0.57439211802E+01  0.16078029283E+03  0.16137363776E+03  0.00000000000E+00 0. -1.
         -2    1    5    5    0  503 -0.60030199243E+02  0.84854279160E+02  0.30487803216E+03  0.32210943483E+03  0.00000000000E+00 0.  1.
         -1    1    6    6    0  502  0.14178966824E+02 -0.40278981385E+03 -0.25511536572E+03  0.47699531137E+03  0.00000000000E+00 0.  1.
<mgrwt>
<rscale>  0 0.19509261E+04</rscale>
<asrwt>0</asrwt>
<pdfrwt beam="1">  1        2 0.96381473E-01 0.19509261E+04</pdfrwt>
<pdfrwt beam="2">  1       -2 0.23366914E+00 0.19509261E+04</pdfrwt>
<totfact> 0.35577987E+00</totfact>
</mgrwt>
</event>
<event>
12    1  0.1519630E-007  0.1365118E+04  0.7818608E-02  0.8979462E-01
         -2   -1    0    0    0  501 -0.00000000000E+00  0.00000000000E+00  0.62085781438E+03  0.62085781438E+03  0.00000000000E+00 0.  1.
          2   -1    0    0  501    0  0.00000000000E+00 -0.00000000000E+00 -0.75039234634E+03  0.75039234634E+03  0.00000000000E+00 0. -1.
         23    2    1    2    0    0 -0.21911757601E+03  0.30951192073E+03 -0.13167189246E+02  0.39383545039E+03  0.10546490374E+03 0.  0.
        254    2    1    2    0    0  0.21911757601E+03 -0.30951192073E+03 -0.11636734271E+03  0.97741471033E+03  0.89330174988E+03 0.  0.
        -24    2    4    4    0    0  0.79245774661E+02  0.20694342853E+03  0.23481900721E+03  0.33255950056E+03  0.79689270636E+02 0.  0.
         24    2    4    4    0    0  0.13987180135E+03 -0.51645534925E+03 -0.35118634991E+03  0.64485520977E+03  0.78842505160E+02 0.  0.
         13    1    3    3    0    0 -0.21967970888E+02  0.67050029204E+02 -0.38381249738E+02  0.80320722685E+02  0.00000000000E+00 0. -1.
        -13    1    3    3    0    0 -0.19714960512E+03  0.24246189152E+03  0.25214060492E+02  0.31351472770E+03  0.00000000000E+00 0.  1.
          2    1    6    6  502    0  0.19865942531E+01 -0.11894742683E+03 -0.95117438615E+02  0.15231468752E+03  0.00000000000E+00 0. -1.
          3    1    5    5  503    0  0.60247509780E+02  0.14510844506E+03  0.21218979009E+03  0.26402789679E+03  0.00000000000E+00 0. -1.
         -4    1    5    5    0  503  0.18998264881E+02  0.61834983462E+02  0.22629217118E+02  0.68531603772E+02  0.00000000000E+00 0.  1.
         -1    1    6    6    0  502  0.13788520710E+03 -0.39750792242E+03 -0.25606891130E+03  0.49254052225E+03  0.00000000000E+00 0.  1.
<mgrwt>
<rscale>  0 0.13651182E+04</rscale>
<asrwt>0</asrwt>
<pdfrwt beam="1">  1        2 0.11544498E+00 0.13651182E+04</pdfrwt>
<pdfrwt beam="2">  1       -2 0.95516587E-01 0.13651182E+04</pdfrwt>
<totfact> 0.33659013E+01</totfact>
</mgrwt>
</event>
<event>
12    1  0.1519630E-007  0.1225274E+04  0.7818608E-02  0.9091018E-01
          2   -1    0    0  501    0  0.00000000000E+00  0.00000000000E+00  0.88021405049E+03  0.88021405049E+03  0.00000000000E+00 0.  1.
         -2   -1    0    0    0  501 -0.00000000000E+00 -0.00000000000E+00 -0.42640081551E+03  0.42640081551E+03  0.00000000000E+00 0. -1.
         23    2    1    2    0    0 -0.19659284994E+03  0.14097331159E+02  0.30265785047E+03  0.37261495873E+03  0.91611405565E+02 0.  0.
        254    2    1    2    0    0  0.19659284994E+03 -0.14097331159E+02  0.15115538452E+03  0.93399990727E+03  0.90036681032E+03 0.  0.
        -24    2    4    4    0    0  0.20670494301E+03 -0.22438513374E+03  0.45623139871E+03  0.55470726315E+03  0.80482525542E+02 0.  0.
         24    2    4    4    0    0 -0.10112093070E+02  0.21028780259E+03 -0.30507601419E+03  0.37929264412E+03  0.80425873346E+02 0.  0.
         13    1    3    3    0    0 -0.84103981198E+00 -0.15937872097E+02  0.44285363281E+02  0.47073522450E+02  0.00000000000E+00 0. -1.
        -13    1    3    3    0    0 -0.19575181012E+03  0.30035203256E+02  0.25837248718E+03  0.32554143628E+03  0.00000000000E+00 0.  1.
          2    1    6    6  502    0 -0.99337748057E+01  0.45339084252E+02 -0.21320154476E+02  0.51077014690E+02  0.00000000000E+00 0. -1.
          1    1    5    5  503    0  0.87884929776E+02 -0.42844902980E+02  0.12410645846E+03  0.15799322652E+03  0.00000000000E+00 0. -1.
         -2    1    5    5    0  503  0.11882001323E+03 -0.18154023076E+03  0.33212494025E+03  0.39671403664E+03  0.00000000000E+00 0.  1.
         -1    1    6    6    0  502 -0.17831826444E+00  0.16494871833E+03 -0.28375585972E+03  0.32821562943E+03  0.00000000000E+00 0.  1.
<mgrwt>
<rscale>  0 0.12252738E+04</rscale>
<asrwt>0</asrwt>
<pdfrwt beam="1">  1        2 0.13541755E+00 0.12252738E+04</pdfrwt>
<pdfrwt beam="2">  1       -2 0.65600125E-01 0.12252738E+04</pdfrwt>
<totfact> 0.63794968E+01</totfact>
</mgrwt>
</event>
<event>
12    1  0.1519630E-007  0.2232932E+04  0.7818608E-02  0.8504845E-01
         -2   -1    0    0    0  501 -0.00000000000E+00  0.00000000000E+00  0.13587520203E+04  0.13587520203E+04  0.00000000000E+00 0. -1.
          2   -1    0    0  501    0  0.00000000000E+00 -0.00000000000E+00 -0.91738301085E+03  0.91738301085E+03  0.00000000000E+00 0.  1.
         23    2    1    2    0    0  0.47566232093E+03 -0.42884892440E+03  0.87830150172E+03  0.10908624649E+04  0.91658856066E+02 0.  0.
        254    2    1    2    0    0 -0.47566232093E+03  0.42884892440E+03 -0.43693249228E+03  0.11852725662E+04  0.89654615606E+03 0.  0.
        -24    2    4    4    0    0 -0.64099480444E+02 -0.25876005649E+02 -0.54715770332E+03  0.55702587362E+03  0.78217392638E+02 0.  0.
         24    2    4    4    0    0 -0.41156284049E+03  0.45472493005E+03  0.11022521104E+03  0.62824669262E+03  0.79909798933E+02 0.  0.
         11    1    3    3    0    0  0.31819337626E+03 -0.26023584897E+03  0.62685886602E+03  0.74961440734E+03  0.00000000000E+00 0. -1.
        -11    1    3    3    0    0  0.15746894467E+03 -0.16861307542E+03  0.25144263570E+03  0.34124805756E+03  0.00000000000E+00 0.  1.
          2    1    6    6  502    0 -0.28355228433E+03  0.35851571040E+03  0.63848921854E+02  0.46153233622E+03  0.00000000000E+00 0. -1.
          3    1    5    5  503    0 -0.44307495676E+02 -0.38966693184E+02 -0.50668985575E+03  0.51011387677E+03  0.00000000000E+00 0. -1.
         -4    1    5    5    0  503 -0.19791984768E+02  0.13090687536E+02 -0.40467847576E+02  0.46911996852E+02  0.00000000000E+00 0.  1.
         -1    1    6    6    0  502 -0.12801055616E+03  0.96209219647E+02  0.46376289186E+02  0.16671435640E+03  0.00000000000E+00 0.  1.
<mgrwt>
<rscale>  0 0.22329317E+04</rscale>
<asrwt>0</asrwt>
<pdfrwt beam="1">  1        2 0.14113585E+00 0.22329317E+04</pdfrwt>
<pdfrwt beam="2">  1       -2 0.20903877E+00 0.22329317E+04</pdfrwt>
<totfact> 0.30210240E+00</totfact>
</mgrwt>
</event>
<event>
12    1  0.1519630E-007  0.1486047E+04  0.7818608E-02  0.8893785E-01
         -2   -1    0    0    0  501 -0.00000000000E+00  0.00000000000E+00  0.15610423176E+03  0.15610423176E+03  0.00000000000E+00 0.  1.
          2   -1    0    0  501    0  0.00000000000E+00 -0.00000000000E+00 -0.35366354815E+04  0.35366354815E+04  0.00000000000E+00 0. -1.
         23    2    1    2    0    0  0.43501870157E+02 -0.24442246847E+03 -0.20075178731E+04  0.20248078733E+04  0.89911941194E+02 0.  0.
        254    2    1    2    0    0 -0.43501870157E+02  0.24442246847E+03 -0.13730133766E+04  0.16679318400E+04  0.91389065784E+03 0.  0.
        -24    2    4    4    0    0  0.24226760601E+03  0.46325208718E+03 -0.53417612588E+03  0.75177559056E+03  0.80785616969E+02 0.  0.
         24    2    4    4    0    0 -0.28576947617E+03 -0.21882961871E+03 -0.83883725076E+03  0.91615624939E+03  0.78382041925E+02 0.  0.
         13    1    3    3    0    0  0.25607753140E+02 -0.87613178980E+01 -0.16721265008E+03  0.16938886640E+03  0.00000000000E+00 0.  1.
        -13    1    3    3    0    0  0.17894117017E+02 -0.23566115057E+03 -0.18403052230E+04  0.18554190069E+04  0.00000000000E+00 0. -1.
          2    1    6    6  502    0 -0.25175161078E+03 -0.21822459836E+03 -0.73759175105E+03  0.80934692195E+03  0.00000000000E+00 0. -1.
          3    1    5    5  503    0  0.20984777569E+03  0.33845418602E+03 -0.42934573650E+03  0.58559805878E+03  0.00000000000E+00 0. -1.
         -4    1    5    5    0  503  0.32419830316E+02  0.12479790116E+03 -0.10483038938E+03  0.16617753179E+03  0.00000000000E+00 0.  1.
         -1    1    6    6    0  502 -0.34017865388E+02 -0.60502034668E+00 -0.10124549971E+03  0.10680932744E+03  0.00000000000E+00 0.  1.
<mgrwt>
<rscale>  0 0.14860468E+04</rscale>
<asrwt>0</asrwt>
<pdfrwt beam="1">  1        2 0.54409776E+00 0.14860468E+04</pdfrwt>
<pdfrwt beam="2">  1       -2 0.24016036E-01 0.14860468E+04</pdfrwt>
<totfact> 0.11607004E+01</totfact>
</mgrwt>
</event>
<event>
12    1  0.1519630E-007  0.1382600E+04  0.7818608E-02  0.8966511E-01
          2   -1    0    0  501    0  0.00000000000E+00  0.00000000000E+00  0.10879311315E+04  0.10879311315E+04  0.00000000000E+00 0. -1.
         -2   -1    0    0    0  501 -0.00000000000E+00 -0.00000000000E+00 -0.43927016491E+03  0.43927016491E+03  0.00000000000E+00 0.  1.
         23    2    1    2    0    0 -0.37636921121E+03  0.50805007774E+02  0.91153904665E+02  0.40197137755E+03  0.95063252997E+02 0.  0.
        254    2    1    2    0    0  0.37636921121E+03 -0.50805007774E+02  0.55750706188E+03  0.11252299188E+04  0.90060719194E+03 0.  0.
        -24    2    4    4    0    0 -0.68678406692E+02  0.20985306274E+03  0.55623801921E+03  0.60338383509E+03  0.76917403418E+02 0.  0.
         24    2    4    4    0    0  0.44504761790E+03 -0.26065807051E+03  0.12690426765E+01  0.52184608372E+03  0.79446288190E+02 0.  0.
         13    1    3    3    0    0 -0.23801888339E+03  0.76573448596E+02  0.70114471055E+02  0.25967772513E+03  0.00000000000E+00 0. -1.
        -13    1    3    3    0    0 -0.13835032782E+03 -0.25768440822E+02  0.21039433610E+02  0.14229365241E+03  0.00000000000E+00 0.  1.
          4    1    6    6  502    0  0.22651992609E+03 -0.16940304981E+03 -0.22989915753E+02  0.28379077932E+03  0.00000000000E+00 0. -1.
          3    1    5    5  503    0 -0.50270563959E+01  0.23079906416E+02  0.14898324393E+03  0.15084415915E+03  0.00000000000E+00 0. -1.
         -4    1    5    5    0  503 -0.63651350296E+02  0.18677315632E+03  0.40725477527E+03  0.45253967594E+03  0.00000000000E+00 0.  1.
         -3    1    6    6    0  502  0.21852769181E+03 -0.91255020705E+02  0.24258958430E+02  0.23805530441E+03  0.00000000000E+00 0.  1.
<mgrwt>
<rscale>  0 0.13826000E+04</rscale>
<asrwt>0</asrwt>
<pdfrwt beam="1">  1        2 0.16737402E+00 0.13826000E+04</pdfrwt>
<pdfrwt beam="2">  1       -2 0.67580025E-01 0.13826000E+04</pdfrwt>
<totfact> 0.43356887E+01</totfact>
</mgrwt>
</event>
<event>
12    1  0.1519630E-007  0.1260412E+04  0.7818608E-02  0.9061561E-01
          2   -1    0    0  501    0  0.00000000000E+00  0.00000000000E+00  0.74886224463E+03  0.74886224463E+03  0.00000000000E+00 0. -1.
         -2   -1    0    0    0  501 -0.00000000000E+00 -0.00000000000E+00 -0.53035089305E+03  0.53035089305E+03  0.00000000000E+00 0.  1.
         23    2    1    2    0    0  0.21849419529E+03  0.17485383914E+03 -0.30118581427E+02  0.29602992788E+03  0.91722466275E+02 0.  0.
        254    2    1    2    0    0 -0.21849419529E+03 -0.17485383914E+03  0.24862993301E+03  0.98318320979E+03  0.90913079477E+03 0.  0.
        -24    2    4    4    0    0  0.20079414485E+02  0.29484283405E+02  0.54021974016E+03  0.54713537962E+03  0.79039547830E+02 0.  0.
         24    2    4    4    0    0 -0.23857360977E+03 -0.20433812254E+03 -0.29158980716E+03  0.43604783017E+03  0.80259946128E+02 0.  0.
         13    1    3    3    0    0  0.45692250028E+01  0.35416167798E+02  0.11041631085E+02  0.37377805924E+02  0.00000000000E+00 0. -1.
        -13    1    3    3    0    0  0.21392497028E+03  0.13943767134E+03 -0.41160212512E+02  0.25865212196E+03  0.00000000000E+00 0.  1.
          4    1    6    6  502    0 -0.20482911992E+03 -0.14442167916E+03 -0.25737219337E+03  0.35923952413E+03  0.00000000000E+00 0. -1.
          3    1    5    5  503    0  0.31526801986E+02  0.14276639682E+02  0.51156692158E+03  0.51273626451E+03  0.00000000000E+00 0. -1.
         -4    1    5    5    0  503 -0.11447387501E+02  0.15207643723E+02  0.28652818580E+02  0.34399115116E+02  0.00000000000E+00 0.  1.
         -3    1    6    6    0  502 -0.33744489854E+02 -0.59916443380E+02 -0.34217613787E+02  0.76808306036E+02  0.00000000000E+00 0.  1.
<mgrwt>
<rscale>  0 0.12604123E+04</rscale>
<asrwt>0</asrwt>
<pdfrwt beam="1">  1        2 0.11520958E+00 0.12604123E+04</pdfrwt>
<pdfrwt beam="2">  1       -2 0.81592445E-01 0.12604123E+04</pdfrwt>
<totfact> 0.48847901E+01</totfact>
</mgrwt>
</event>
<event>
12    1  0.1519630E-007  0.1598256E+04  0.7818608E-02  0.8821620E-01
          2   -1    0    0  501    0  0.00000000000E+00  0.00000000000E+00  0.24256535234E+04  0.24256535234E+04  0.00000000000E+00 0. -1.
         -2   -1    0    0    0  501 -0.00000000000E+00 -0.00000000000E+00 -0.26327150959E+03  0.26327150959E+03  0.00000000000E+00 0.  1.
         23    2    1    2    0    0 -0.53381898631E+03  0.23843781351E+02  0.63107158323E+03  0.83183522824E+03  0.90372936965E+02 0.  0.
        254    2    1    2    0    0  0.53381898631E+03 -0.23843781351E+02  0.15313104306E+04  0.18570898047E+04  0.90462128651E+03 0.  0.
        -24    2    4    4    0    0 -0.19466996215E+03  0.29757911334E+02  0.74530340829E+02  0.22551776447E+03  0.80756194428E+02 0.  0.
         24    2    4    4    0    0  0.72848894846E+03 -0.53601692685E+02  0.14567800897E+04  0.16315720402E+04  0.79055696752E+02 0.  0.
         11    1    3    3    0    0 -0.50878090798E+03  0.34786640548E+01  0.58129936012E+03  0.77251476330E+03  0.00000000000E+00 0. -1.
        -11    1    3    3    0    0 -0.25038078327E+02  0.20365117296E+02  0.49772223104E+02  0.59320464947E+02  0.00000000000E+00 0.  1.
          2    1    6    6  502    0  0.64262990706E+02 -0.18862311917E+02  0.17743776599E+03  0.18965674147E+03  0.00000000000E+00 0. -1.
          1    1    5    5  503    0  0.85877976780E+00  0.12596802566E+02  0.16621329976E+02  0.20873081894E+02  0.00000000000E+00 0. -1.
         -2    1    5    5    0  503 -0.19552874192E+03  0.17161108768E+02  0.57909010853E+02  0.20464468258E+03  0.00000000000E+00 0.  1.
         -1    1    6    6    0  502  0.66422595776E+03 -0.34739380768E+02  0.12793423237E+04  0.14419152988E+04  0.00000000000E+00 0.  1.
<mgrwt>
<rscale>  0 0.15982559E+04</rscale>
<asrwt>0</asrwt>
<pdfrwt beam="1">  1        2 0.37317745E+00 0.15982559E+04</pdfrwt>
<pdfrwt beam="2">  1       -2 0.40503311E-01 0.15982559E+04</pdfrwt>
<totfact> 0.21306316E+01</totfact>
</mgrwt>
</event>
<event>
12    1  0.1519630E-007  0.2574622E+04  0.7818608E-02  0.8376873E-01
         -2   -1    0    0    0  501 -0.00000000000E+00  0.00000000000E+00  0.12210972780E+04  0.12210972780E+04  0.00000000000E+00 0.  1.
          2   -1    0    0  501    0  0.00000000000E+00 -0.00000000000E+00 -0.13571147628E+04  0.13571147628E+04  0.00000000000E+00 0. -1.
         23    2    1    2    0    0 -0.12808313376E+03  0.98860389266E+02  0.10599728591E+04  0.10760830857E+04  0.90739625442E+02 0.  0.
        254    2    1    2    0    0  0.12808313376E+03 -0.98860389266E+02 -0.11959903438E+04  0.15021289550E+04  0.89432646685E+03 0.  0.
        -24    2    4    4    0    0  0.43781008961E+03 -0.71462618631E+02 -0.10623443333E+04  0.11540322084E+04  0.80188995254E+02 0.  0.
         24    2    4    4    0    0 -0.30972695585E+03 -0.27397770634E+02 -0.13364601052E+03  0.34809674669E+03  0.81416607084E+02 0.  0.
         11    1    3    3    0    0 -0.81413673363E+02  0.10409823969E+03  0.88935189475E+03  0.89911702376E+03  0.00000000000E+00 0.  1.
        -11    1    3    3    0    0 -0.46669460392E+02 -0.52378504198E+01  0.17062096432E+03  0.17696606193E+03  0.00000000000E+00 0. -1.
          2    1    6    6  502    0 -0.14917220474E+03 -0.15977013413E+02 -0.20664117862E+02  0.15144179539E+03  0.00000000000E+00 0. -1.
          3    1    5    5  503    0  0.81388893995E+02 -0.28679602013E+02 -0.14211653224E+03  0.16626418848E+03  0.00000000000E+00 0. -1.
         -4    1    5    5    0  503  0.35642119561E+03 -0.42783016618E+02 -0.92022780108E+03  0.98776801987E+03  0.00000000000E+00 0.  1.
         -1    1    6    6    0  502 -0.16055475111E+03 -0.11420757222E+02 -0.11298189266E+03  0.19665495130E+03  0.00000000000E+00 0.  1.
<mgrwt>
<rscale>  0 0.25746216E+04</rscale>
<asrwt>0</asrwt>
<pdfrwt beam="1">  1        2 0.20878689E+00 0.25746216E+04</pdfrwt>
<pdfrwt beam="2">  1       -2 0.18786112E+00 0.25746216E+04</pdfrwt>
<totfact> 0.21755394E+00</totfact>
</mgrwt>
</event>
<event>
12    1  0.1519630E-007  0.1897391E+04  0.7818608E-02  0.8656156E-01
         -2   -1    0    0    0  501 -0.00000000000E+00  0.00000000000E+00  0.49285692382E+03  0.49285692382E+03  0.00000000000E+00 0.  1.
          2   -1    0    0  501    0  0.00000000000E+00 -0.00000000000E+00 -0.18261347954E+04  0.18261347954E+04  0.00000000000E+00 0. -1.
         23    2    1    2    0    0 -0.59357346980E+03 -0.41670573044E+03 -0.55793577643E+03  0.91952240298E+03  0.90862473718E+02 0.  0.
        254    2    1    2    0    0  0.59357346980E+03  0.41670573044E+03 -0.77534209510E+03  0.13994693162E+04  0.91180363714E+03 0.  0.
        -24    2    4    4    0    0  0.36974107009E+03 -0.68565954068E+02  0.75667338532E+02  0.39137571088E+03  0.77715197835E+02 0.  0.
         24    2    4    4    0    0  0.22383239970E+03  0.48527168451E+03 -0.85100943363E+03  0.10080936053E+04  0.80287670323E+02 0.  0.
         11    1    3    3    0    0 -0.51618168359E+02 -0.70264682538E+02 -0.77913587916E+02  0.11692770458E+03  0.00000000000E+00 0. -1.
        -11    1    3    3    0    0 -0.54195530144E+03 -0.34644104790E+03 -0.48002218852E+03  0.80259469840E+03  0.00000000000E+00 0.  1.
          4    1    6    6  502    0  0.21220462427E+03  0.43872254117E+03 -0.72808115107E+03  0.87613379871E+03  0.00000000000E+00 0. -1.
          3    1    5    5  503    0  0.25829449556E+03 -0.80357955737E+02  0.68684962363E+02  0.27908971952E+03  0.00000000000E+00 0. -1.
         -4    1    5    5    0  503  0.11144657453E+03  0.11792001669E+02  0.69823761692E+01  0.11228599136E+03  0.00000000000E+00 0.  1.
         -3    1    6    6    0  502  0.11627775433E+02  0.46549143343E+02 -0.12292828256E+03  0.13195980661E+03  0.00000000000E+00 0.  1.
<mgrwt>
<rscale>  0 0.18973910E+04</rscale>
<asrwt>0</asrwt>
<pdfrwt beam="1">  1        2 0.28094382E+00 0.18973910E+04</pdfrwt>
<pdfrwt beam="2">  1       -2 0.75824141E-01 0.18973910E+04</pdfrwt>
<totfact> 0.12182429E+01</totfact>
</mgrwt>
</event>
<event>
12    1  0.1519630E-007  0.1793781E+04  0.7818608E-02  0.8709614E-01
          2   -1    0    0  501    0  0.00000000000E+00  0.00000000000E+00  0.45903946255E+03  0.45903946255E+03  0.00000000000E+00 0. -1.
         -2   -1    0    0    0  501 -0.00000000000E+00 -0.00000000000E+00 -0.17523813102E+04  0.17523813102E+04  0.00000000000E+00 0.  1.
         23    2    1    2    0    0 -0.19315906488E+03 -0.50759034023E+03 -0.84402171471E+01  0.55056236551E+03  0.89940553767E+02 0.  0.
        254    2    1    2    0    0  0.19315906488E+03  0.50759034023E+03 -0.12849016305E+04  0.16608584073E+04  0.90139895217E+03 0.  0.
        -24    2    4    4    0    0 -0.35653768516E+02  0.72206829594E+03 -0.92864439524E+03  0.11796402328E+04  0.80727014341E+02 0.  0.
         24    2    4    4    0    0  0.22881283339E+03 -0.21447795571E+03 -0.35625723528E+03  0.48121817444E+03  0.79344864409E+02 0.  0.
         11    1    3    3    0    0 -0.15314660166E+03 -0.28550030988E+03  0.10073864905E+02  0.32413853719E+03  0.00000000000E+00 0. -1.
        -11    1    3    3    0    0 -0.40012463214E+02 -0.22209003036E+03 -0.18514082052E+02  0.22642382832E+03  0.00000000000E+00 0.  1.
          2    1    6    6  502    0  0.33333556834E+02 -0.59686235952E+02 -0.42691815842E+02  0.80598783572E+02  0.00000000000E+00 0. -1.
          3    1    5    5  503    0  0.15624860485E+02  0.55259203527E+02 -0.56125492407E+02  0.80298111669E+02  0.00000000000E+00 0. -1.
         -2    1    5    5    0  503 -0.51278629001E+02  0.66680909241E+03 -0.87251890284E+03  0.10993421211E+04  0.00000000000E+00 0.  1.
         -1    1    6    6    0  502  0.19547927656E+03 -0.15479171976E+03 -0.31356541944E+03  0.40061939087E+03  0.00000000000E+00 0.  1.
<mgrwt>
<rscale>  0 0.17937806E+04</rscale>
<asrwt>0</asrwt>
<pdfrwt beam="1">  1        2 0.70621456E-01 0.17937806E+04</pdfrwt>
<pdfrwt beam="2">  1       -2 0.26959712E+00 0.17937806E+04</pdfrwt>
<totfact> 0.31314279E+00</totfact>
</mgrwt>
</event>
<event>
12    1  0.1519630E-007  0.1434082E+04  0.7818608E-02  0.8929511E-01
         -1   -1    0    0    0  501 -0.00000000000E+00  0.00000000000E+00  0.64731750693E+03  0.64731750693E+03  0.00000000000E+00 0.  1.
          1   -1    0    0  501    0  0.00000000000E+00 -0.00000000000E+00 -0.79427433077E+03  0.79427433077E+03  0.00000000000E+00 0. -1.
         23    2    1    2    0    0 -0.23165884545E+03 -0.34116132227E+03  0.43945570107E+02  0.42441855404E+03  0.90238724477E+02 0.  0.
        254    2    1    2    0    0  0.23165884545E+03  0.34116132227E+03 -0.19090239394E+03  0.10171732837E+04  0.91002247031E+03 0.  0.
        -24    2    4    4    0    0  0.11544436336E+03  0.55758711735E+03 -0.38638598545E+03  0.69245404562E+03  0.77250767526E+02 0.  0.
         24    2    4    4    0    0  0.11621448210E+03 -0.21642579508E+03  0.19548359151E+03  0.32471923803E+03  0.82962752929E+02 0.  0.
         13    1    3    3    0    0 -0.21114815687E+03 -0.29684971655E+03  0.90398999732E+01  0.36439678670E+03  0.00000000000E+00 0. -1.
        -13    1    3    3    0    0 -0.20510688582E+02 -0.44311605720E+02  0.34905670134E+02  0.60021767344E+02  0.00000000000E+00 0.  1.
          2    1    6    6  502    0  0.10862343553E+03 -0.11808422043E+03  0.11475693652E+03  0.19726147202E+03  0.00000000000E+00 0. -1.
          3    1    5    5  503    0  0.68002922676E+02  0.41464053532E+03 -0.31848722831E+03  0.52724309917E+03  0.00000000000E+00 0. -1.
         -4    1    5    5    0  503  0.47441440680E+02  0.14294658202E+03 -0.67898757137E+02  0.16521094645E+03  0.00000000000E+00 0.  1.
         -1    1    6    6    0  502  0.75910465621E+01 -0.98341574643E+02  0.80726654994E+02  0.12745776602E+03  0.00000000000E+00 0.  1.
<mgrwt>
<rscale>  0 0.14340818E+04</rscale>
<asrwt>0</asrwt>
<pdfrwt beam="1">  1        1 0.12219605E+00 0.14340818E+04</pdfrwt>
<pdfrwt beam="2">  1       -1 0.99587309E-01 0.14340818E+04</pdfrwt>
<totfact> 0.20935907E+01</totfact>
</mgrwt>
</event>
<event>
12    1  0.1519630E-007  0.1877668E+04  0.7818608E-02  0.8666053E-01
         -2   -1    0    0    0  501 -0.00000000000E+00  0.00000000000E+00  0.10702850208E+04  0.10702850208E+04  0.00000000000E+00 0. -1.
          2   -1    0    0  501    0  0.00000000000E+00 -0.00000000000E+00 -0.82352749121E+03  0.82352749121E+03  0.00000000000E+00 0.  1.
         23    2    1    2    0    0  0.43573786770E+03  0.17498189614E+03 -0.45553345840E+03  0.66070655324E+03  0.92391906808E+02 0.  0.
        254    2    1    2    0    0 -0.43573786770E+03 -0.17498189614E+03  0.70229098803E+03  0.12331059588E+04  0.89824914165E+03 0.  0.
        -24    2    4    4    0    0  0.11059685563E+03 -0.88888041451E+02 -0.14500477703E+03  0.21798299725E+03  0.79733639965E+02 0.  0.
         24    2    4    4    0    0 -0.54633472333E+03 -0.86093854689E+02  0.84729576506E+03  0.10151229616E+04  0.81674548553E+02 0.  0.
         13    1    3    3    0    0  0.46677007196E+02  0.40769496224E+01 -0.84294667550E+02  0.96441461501E+02  0.00000000000E+00 0. -1.
        -13    1    3    3    0    0  0.38906086051E+03  0.17090494652E+03 -0.37123879085E+03  0.56426509174E+03  0.00000000000E+00 0.  1.
          2    1    6    6  502    0 -0.94974746727E+02 -0.28222175382E+02  0.20820143671E+03  0.23057435232E+03  0.00000000000E+00 0. -1.
          1    1    5    5  503    0  0.36459545548E+02 -0.66071261535E+02 -0.34511688038E+02  0.82980519844E+02  0.00000000000E+00 0. -1.
         -2    1    5    5    0  503  0.74137310078E+02 -0.22816779916E+02 -0.11049308899E+03  0.13500247741E+03  0.00000000000E+00 0.  1.
         -1    1    6    6    0  502 -0.45135997660E+03 -0.57871679307E+02  0.63909432835E+03  0.78454860925E+03  0.00000000000E+00 0.  1.
<mgrwt>
<rscale>  0 0.18776678E+04</rscale>
<asrwt>0</asrwt>
<pdfrwt beam="1">  1        2 0.12669654E+00 0.18776678E+04</pdfrwt>
<pdfrwt beam="2">  1       -2 0.16465923E+00 0.18776678E+04</pdfrwt>
<totfact> 0.72350145E+00</totfact>
</mgrwt>
</event>
<event>
12    1  0.1519630E-007  0.1247441E+04  0.7818608E-02  0.9072316E-01
          1   -1    0    0  501    0  0.00000000000E+00  0.00000000000E+00  0.25802442056E+03  0.25802442056E+03  0.00000000000E+00 0. -1.
         -1   -1    0    0    0  501 -0.00000000000E+00 -0.00000000000E+00 -0.15077142382E+04  0.15077142382E+04  0.00000000000E+00 0.  1.
         23    2    1    2    0    0 -0.20893899779E+03 -0.14295313538E+03 -0.49120136707E+03  0.55981117140E+03  0.89546975943E+02 0.  0.
        254    2    1    2    0    0  0.20893899779E+03  0.14295313538E+03 -0.75848845054E+03  0.12059274873E+04  0.90269888189E+03 0.  0.
        -24    2    4    4    0    0 -0.11540405967E+03  0.44653205682E+03 -0.27178250708E+03  0.54196500028E+03  0.84565688143E+02 0.  0.
         24    2    4    4    0    0  0.32434305746E+03 -0.30357892145E+03 -0.48670594346E+03  0.66396248704E+03  0.81270710192E+02 0.  0.
         13    1    3    3    0    0 -0.12633485810E+03 -0.73818417263E+02 -0.18922573368E+03  0.23919873199E+03  0.00000000000E+00 0.  1.
        -13    1    3    3    0    0 -0.82604139687E+02 -0.69134718113E+02 -0.30197563339E+03  0.32061243941E+03  0.00000000000E+00 0. -1.
          4    1    6    6  502    0  0.24957189937E+03 -0.22085205548E+03 -0.31083294416E+03  0.45571798575E+03  0.00000000000E+00 0. -1.
          3    1    5    5  503    0 -0.35870043130E+02  0.17099528046E+03 -0.57393165840E+02  0.18390220613E+03  0.00000000000E+00 0. -1.
         -4    1    5    5    0  503 -0.79534016540E+02  0.27553677636E+03 -0.21438934124E+03  0.35806279415E+03  0.00000000000E+00 0.  1.
         -3    1    6    6    0  502  0.74771158087E+02 -0.82726865968E+02 -0.17587299930E+03  0.20824450129E+03  0.00000000000E+00 0.  1.
<mgrwt>
<rscale>  0 0.12474407E+04</rscale>
<asrwt>0</asrwt>
<pdfrwt beam="1">  1        1 0.39696064E-01 0.12474407E+04</pdfrwt>
<pdfrwt beam="2">  1       -1 0.23195604E+00 0.12474407E+04</pdfrwt>
<totfact> 0.96546339E+00</totfact>
</mgrwt>
</event>
<event>
12    1  0.1519630E-007  0.3360007E+04  0.7818608E-02  0.8147792E-01
         -2   -1    0    0    0  501 -0.00000000000E+00  0.00000000000E+00  0.77670333196E+03  0.77670333196E+03  0.00000000000E+00 0.  1.
          2   -1    0    0  501    0  0.00000000000E+00 -0.00000000000E+00 -0.36338353012E+04  0.36338353012E+04  0.00000000000E+00 0. -1.
         23    2    1    2    0    0  0.93970891024E+03  0.33968368857E+03 -0.29024214683E+04  0.30709567842E+04  0.91034864706E+02 0.  0.
        254    2    1    2    0    0 -0.93970891024E+03 -0.33968368857E+03  0.45289499001E+02  0.13395818490E+04  0.89106147217E+03 0.  0.
        -24    2    4    4    0    0 -0.51119027612E+03 -0.49727837187E+03  0.33592086188E+03  0.79246736209E+03  0.80996401108E+02 0.  0.
         24    2    4    4    0    0 -0.42851863412E+03  0.15759468330E+03 -0.29063136288E+03  0.54711448691E+03  0.80021051667E+02 0.  0.
         13    1    3    3    0    0  0.51778494812E+03  0.21458492077E+03 -0.17384613571E+04  0.18265803653E+04  0.00000000000E+00 0. -1.
        -13    1    3    3    0    0  0.42192396212E+03  0.12509876781E+03 -0.11639601112E+04  0.12443764189E+04  0.00000000000E+00 0.  1.
          4    1    6    6  502    0 -0.15099174313E+02 -0.21507927813E+00  0.38336217101E+01  0.15579729762E+02  0.00000000000E+00 0. -1.
          3    1    5    5  503    0 -0.87974622407E+02 -0.13235993945E+03  0.74719004588E+02  0.17561781631E+03  0.00000000000E+00 0. -1.
         -4    1    5    5    0  503 -0.42321565372E+03 -0.36491843242E+03  0.26120185729E+03  0.61684954577E+03  0.00000000000E+00 0.  1.
         -3    1    6    6    0  502 -0.41341945981E+03  0.15780976258E+03 -0.29446498459E+03  0.53153475715E+03  0.00000000000E+00 0.  1.
<mgrwt>
<rscale>  0 0.33600071E+04</rscale>
<asrwt>0</asrwt>
<pdfrwt beam="1">  1        2 0.55905158E+00 0.33600071E+04</pdfrwt>
<pdfrwt beam="2">  1       -2 0.11949282E+00 0.33600071E+04</pdfrwt>
<totfact> 0.29057887E-01</totfact>
</mgrwt>
</event>
<event>
12    1  0.1519630E-007  0.1854419E+04  0.7818608E-02  0.8677884E-01
          3   -1    0    0  501    0  0.00000000000E+00  0.00000000000E+00  0.31512309035E+03  0.31512309035E+03  0.00000000000E+00 0. -1.
         -3   -1    0    0    0  501 -0.00000000000E+00 -0.00000000000E+00 -0.27281942328E+04  0.27281942328E+04  0.00000000000E+00 0.  1.
         23    2    1    2    0    0 -0.18708145315E+03  0.63683670803E+03 -0.13040597333E+04  0.14647259354E+04  0.65496681046E+02 0.  0.
        254    2    1    2    0    0  0.18708145315E+03 -0.63683670803E+03 -0.11090114092E+04  0.15785913877E+04  0.90635754580E+03 0.  0.
        -24    2    4    4    0    0  0.53925570931E+03 -0.45737008334E+03 -0.80277473509E+03  0.10727329038E+04  0.79526690084E+02 0.  0.
         24    2    4    4    0    0 -0.35217425616E+03 -0.17946662469E+03 -0.30623667411E+03  0.50585848392E+03  0.76661131630E+02 0.  0.
         13    1    3    3    0    0 -0.15906199927E+03  0.54144323647E+03 -0.10527511522E+04  0.11944649373E+04  0.00000000000E+00 0.  1.
        -13    1    3    3    0    0 -0.28019453881E+02  0.95393471564E+02 -0.25130858105E+03  0.27026099815E+03  0.00000000000E+00 0. -1.
          2    1    6    6  502    0 -0.11753623206E+03 -0.33722472999E+02 -0.12858625004E+03  0.17744406085E+03  0.00000000000E+00 0. -1.
          1    1    5    5  503    0  0.75179012367E+02 -0.88732720112E+02 -0.99725700497E+02  0.15320115815E+03  0.00000000000E+00 0. -1.
         -2    1    5    5    0  503  0.46407669694E+03 -0.36863736323E+03 -0.70304903459E+03  0.91953174565E+03  0.00000000000E+00 0.  1.
         -3    1    6    6    0  502 -0.23463802410E+03 -0.14574415169E+03 -0.17765042406E+03  0.32841442306E+03  0.00000000000E+00 0.  1.
<mgrwt>
<rscale>  0 0.18544185E+04</rscale>
<asrwt>0</asrwt>
<pdfrwt beam="1">  1        3 0.48480476E-01 0.18544185E+04</pdfrwt>
<pdfrwt beam="2">  1       -3 0.41972219E+00 0.18544185E+04</pdfrwt>
<totfact> 0.86040362E-02</totfact>
</mgrwt>
</event>
<event>
12    1  0.1519630E-007  0.3321878E+04  0.7818608E-02  0.8157351E-01
          1   -1    0    0  501    0  0.00000000000E+00  0.00000000000E+00  0.11235498755E+04  0.11235498755E+04  0.00000000000E+00 0. -1.
         -1   -1    0    0    0  501 -0.00000000000E+00 -0.00000000000E+00 -0.24553587452E+04  0.24553587452E+04  0.00000000000E+00 0.  1.
         23    2    1    2    0    0 -0.23111921905E+03 -0.10278566410E+04 -0.18210401247E+04  0.21057952827E+04  0.91001476302E+02 0.  0.
        254    2    1    2    0    0  0.23111921905E+03  0.10278566410E+04  0.48923125499E+03  0.14731133380E+04  0.90598582654E+03 0.  0.
        -24    2    4    4    0    0 -0.17313211534E+03  0.94669192791E+03  0.38940189937E+03  0.10414415106E+04  0.82257188015E+02 0.  0.
         24    2    4    4    0    0  0.40425133439E+03  0.81164713104E+02  0.99829355620E+02  0.43167182744E+03  0.79798586153E+02 0.  0.
         11    1    3    3    0    0 -0.10149194803E+03 -0.36269931820E+03 -0.57433879185E+03  0.68681617538E+03  0.00000000000E+00 0.  1.
        -11    1    3    3    0    0 -0.12962727101E+03 -0.66515732281E+03 -0.12467013329E+04  0.14189791073E+04  0.00000000000E+00 0. -1.
          4    1    6    6  502    0  0.17753410852E+02 -0.12950537679E+02  0.22740814319E+01  0.22092339609E+02  0.00000000000E+00 0. -1.
          3    1    5    5  503    0 -0.56553174881E+02  0.15858293171E+03  0.84769215587E+02  0.18850100194E+03  0.00000000000E+00 0. -1.
         -4    1    5    5    0  503 -0.11657894046E+03  0.78810899619E+03  0.30463268378E+03  0.85294050863E+03  0.00000000000E+00 0.  1.
         -3    1    6    6    0  502  0.38649792354E+03  0.94115250783E+02  0.97555274188E+02  0.40957948783E+03  0.00000000000E+00 0.  1.
<mgrwt>
<rscale>  0 0.33218778E+04</rscale>
<asrwt>0</asrwt>
<pdfrwt beam="1">  1        1 0.17285383E+00 0.33218778E+04</pdfrwt>
<pdfrwt beam="2">  1       -1 0.37774750E+00 0.33218778E+04</pdfrwt>
<totfact> 0.10207375E-01</totfact>
</mgrwt>
</event>
<event>
12    1  0.1519630E-007  0.1282365E+04  0.7818608E-02  0.9043668E-01
         -1   -1    0    0    0  501 -0.00000000000E+00  0.00000000000E+00  0.19041858539E+03  0.19041858539E+03  0.00000000000E+00 0.  1.
          1   -1    0    0  501    0  0.00000000000E+00 -0.00000000000E+00 -0.21590050273E+04  0.21590050273E+04  0.00000000000E+00 0. -1.
         23    2    1    2    0    0 -0.28102290353E+02 -0.24048253600E+02 -0.10217869418E+04  0.10263641753E+04  0.89480771949E+02 0.  0.
        254    2    1    2    0    0  0.28102290353E+02  0.24048253600E+02 -0.94679950009E+03  0.13230594374E+04  0.92341156825E+03 0.  0.
        -24    2    4    4    0    0  0.59323885411E+01  0.28017893409E+03 -0.10063283117E+04  0.10480257026E+04  0.84414299966E+02 0.  0.
         24    2    4    4    0    0  0.22169901812E+02 -0.25613068049E+03  0.59528811557E+02  0.27503373488E+03  0.77494811980E+02 0.  0.
         11    1    3    3    0    0  0.21975553282E+02  0.93372541038E+01 -0.10849746002E+03  0.11109369058E+03  0.00000000000E+00 0.  1.
        -11    1    3    3    0    0 -0.50077843635E+02 -0.33385507704E+02 -0.91328948179E+03  0.91527048467E+03  0.00000000000E+00 0. -1.
          4    1    6    6  502    0 -0.19877887527E+02 -0.48433951563E+02  0.31957839649E+02  0.61337440373E+02  0.00000000000E+00 0. -1.
          1    1    5    5  503    0  0.37473341322E+02  0.13314939709E+03 -0.56880446216E+03  0.58538152467E+03  0.00000000000E+00 0. -1.
         -2    1    5    5    0  503 -0.31540952781E+02  0.14702953700E+03 -0.43752384949E+03  0.46264417788E+03  0.00000000000E+00 0.  1.
         -3    1    6    6    0  502  0.42047789339E+02 -0.20769672892E+03  0.27570971908E+02  0.21369629451E+03  0.00000000000E+00 0.  1.
<mgrwt>
<rscale>  0 0.12823645E+04</rscale>
<asrwt>0</asrwt>
<pdfrwt beam="1">  1        1 0.33215465E+00 0.12823645E+04</pdfrwt>
<pdfrwt beam="2">  1       -1 0.29295164E-01 0.12823645E+04</pdfrwt>
<totfact> 0.24372560E+01</totfact>
</mgrwt>
</event>
<event>
12    1  0.1519630E-007  0.2304421E+04  0.7818608E-02  0.8476180E-01
         -2   -1    0    0    0  501 -0.00000000000E+00  0.00000000000E+00  0.18711208163E+04  0.18711208163E+04  0.00000000000E+00 0. -1.
          2   -1    0    0  501    0  0.00000000000E+00 -0.00000000000E+00 -0.70951533555E+03  0.70951533555E+03  0.00000000000E+00 0.  1.
         23    2    1    2    0    0  0.56488556359E+03 -0.15174148863E+03 -0.37907106694E+03  0.70293649387E+03  0.91124427529E+02 0.  0.
        254    2    1    2    0    0 -0.56488556359E+03  0.15174148863E+03  0.15406765477E+04  0.18776996580E+04  0.89997255604E+03 0.  0.
        -24    2    4    4    0    0  0.10612414157E+03  0.30737122305E+03  0.27027303279E+03  0.43034599617E+03  0.80067234144E+02 0.  0.
         24    2    4    4    0    0 -0.67100970516E+03 -0.15562973443E+03  0.12704035149E+04  0.14473536618E+04  0.80205317745E+02 0.  0.
         11    1    3    3    0    0  0.11180040328E+03 -0.49356411011E+01 -0.42355294897E+02  0.11965643205E+03  0.00000000000E+00 0. -1.
        -11    1    3    3    0    0  0.45308516031E+03 -0.14680584753E+03 -0.33671577205E+03  0.58328006181E+03  0.00000000000E+00 0.  1.
          2    1    6    6  502    0 -0.34873976001E+03 -0.50159584944E+02  0.59160897438E+03  0.68857576398E+03  0.00000000000E+00 0. -1.
          3    1    5    5  503    0  0.42569672879E+02  0.35622705438E+02  0.51764268457E+02  0.75899233729E+02  0.00000000000E+00 0. -1.
         -4    1    5    5    0  503  0.63554468691E+02  0.27174851761E+03  0.21850876433E+03  0.35444676244E+03  0.00000000000E+00 0.  1.
         -1    1    6    6    0  502 -0.32226994515E+03 -0.10547014948E+03  0.67879454050E+03  0.75877789781E+03  0.00000000000E+00 0.  1.
<mgrwt>
<rscale>  0 0.23044209E+04</rscale>
<asrwt>0</asrwt>
<pdfrwt beam="1">  1        2 0.10915621E+00 0.23044209E+04</pdfrwt>
<pdfrwt beam="2">  1       -2 0.28786474E+00 0.23044209E+04</pdfrwt>
<totfact> 0.13766055E+00</totfact>
</mgrwt>
</event>
<event>
12    1  0.1519630E-007  0.2170476E+04  0.7818608E-02  0.8530818E-01
         -1   -1    0    0    0  501 -0.00000000000E+00  0.00000000000E+00  0.11584600184E+04  0.11584600184E+04  0.00000000000E+00 0.  1.
          1   -1    0    0  501    0  0.00000000000E+00 -0.00000000000E+00 -0.10166444010E+04  0.10166444010E+04  0.00000000000E+00 0. -1.
         23    2    1    2    0    0 -0.69097842314E+03 -0.35814537343E+03  0.49823560980E+03  0.92873081454E+03  0.92644013616E+02 0.  0.
        254    2    1    2    0    0  0.69097842314E+03  0.35814537343E+03 -0.35641999235E+03  0.12463736049E+04  0.90592089185E+03 0.  0.
        -24    2    4    4    0    0  0.43285096979E+03  0.55868233224E+03 -0.51204627060E+03  0.87637040436E+03  0.79673031875E+02 0.  0.
         24    2    4    4    0    0  0.25812745335E+03 -0.20053695881E+03  0.15562627825E+03  0.37000320054E+03  0.76406648312E+02 0.  0.
         11    1    3    3    0    0 -0.19363308904E+03 -0.90579101327E+02  0.18629107894E+03  0.28355372130E+03  0.00000000000E+00 0.  1.
        -11    1    3    3    0    0 -0.49734533410E+03 -0.26756627211E+03  0.31194453085E+03  0.64517709325E+03  0.00000000000E+00 0. -1.
          4    1    6    6  502    0  0.18488556644E+03 -0.12080031266E+03  0.13769149129E+03  0.26025820830E+03  0.00000000000E+00 0. -1.
          1    1    5    5  503    0  0.80535143884E+02  0.93787940641E+02 -0.54886773913E+02  0.13525769908E+03  0.00000000000E+00 0. -1.
         -2    1    5    5    0  503  0.35231582590E+03  0.46489439160E+03 -0.45715949669E+03  0.74111270528E+03  0.00000000000E+00 0.  1.
         -3    1    6    6    0  502  0.73241886913E+02 -0.79736646148E+02  0.17934786960E+02  0.10974499224E+03  0.00000000000E+00 0.  1.
<mgrwt>
<rscale>  0 0.21704763E+04</rscale>
<asrwt>0</asrwt>
<pdfrwt beam="1">  1        1 0.15640683E+00 0.21704763E+04</pdfrwt>
<pdfrwt beam="2">  1       -1 0.17822462E+00 0.21704763E+04</pdfrwt>
<totfact> 0.28771042E+00</totfact>
</mgrwt>
</event>
<event>
12    1  0.1519630E-007  0.4119791E+04  0.7818608E-02  0.7980808E-01
         -1   -1    0    0    0  501 -0.00000000000E+00  0.00000000000E+00  0.13235985490E+04  0.13235985490E+04  0.00000000000E+00 0.  1.
          1   -1    0    0  501    0  0.00000000000E+00 -0.00000000000E+00 -0.32057825503E+04  0.32057825503E+04  0.00000000000E+00 0. -1.
         23    2    1    2    0    0 -0.14730383642E+04  0.11932427795E+04 -0.34718788069E+03  0.19293742694E+04  0.90968640813E+02 0.  0.
        254    2    1    2    0    0  0.14730383642E+04 -0.11932427795E+04 -0.15349961206E+04  0.26000068299E+04  0.90008448046E+03 0.  0.
        -24    2    4    4    0    0  0.78496352002E+03 -0.93900924177E+03 -0.13790493503E+04  0.18455535287E+04  0.79903898073E+02 0.  0.
         24    2    4    4    0    0  0.68807484422E+03 -0.25423353772E+03 -0.15594677031E+03  0.75445330118E+03  0.82454263382E+02 0.  0.
         13    1    3    3    0    0 -0.15646379506E+03  0.96051795423E+02 -0.21101425105E+02  0.18480296727E+03  0.00000000000E+00 0. -1.
        -13    1    3    3    0    0 -0.13165745692E+04  0.10971909841E+04 -0.32608645558E+03  0.17445713021E+04  0.00000000000E+00 0.  1.
          4    1    6    6  502    0  0.66928002419E+03 -0.26052432943E+03 -0.14933206636E+03  0.73355895677E+03  0.00000000000E+00 0. -1.
          1    1    5    5  503    0  0.85248563030E+02 -0.10266749115E+03 -0.11505773440E+03  0.17619935721E+03  0.00000000000E+00 0. -1.
         -2    1    5    5    0  503  0.69971495699E+03 -0.83634175063E+03 -0.12639916159E+04  0.16693541715E+04  0.00000000000E+00 0.  1.
         -3    1    6    6    0  502  0.18794820023E+02  0.62907917167E+01 -0.66147039501E+01  0.20894344413E+02  0.00000000000E+00 0.  1.
<mgrwt>
<rscale>  0 0.41197908E+04</rscale>
<asrwt>0</asrwt>
<pdfrwt beam="1">  1        1 0.49319731E+00 0.41197908E+04</pdfrwt>
<pdfrwt beam="2">  1       -1 0.20363055E+00 0.41197908E+04</pdfrwt>
<totfact> 0.46307530E-02</totfact>
</mgrwt>
</event>
<event>
12    1  0.1519630E-007  0.1351409E+04  0.7818608E-02  0.8989762E-01
          1   -1    0    0  501    0  0.00000000000E+00  0.00000000000E+00  0.67524554764E+03  0.67524554764E+03  0.00000000000E+00 0. -1.
         -1   -1    0    0    0  501 -0.00000000000E+00 -0.00000000000E+00 -0.67616346816E+03  0.67616346816E+03  0.00000000000E+00 0.  1.
         23    2    1    2    0    0  0.11337064672E+02  0.15670111541E+03  0.33449778027E+03  0.37899624541E+03  0.84057244950E+02 0.  0.
        254    2    1    2    0    0 -0.11337064672E+02 -0.15670111541E+03 -0.33541570079E+03  0.97241277039E+03  0.89911019074E+03 0.  0.
        -24    2    4    4    0    0 -0.10232270381E+01 -0.78008154439E+02 -0.63885401457E+03  0.64882531999E+03  0.82179831924E+02 0.  0.
         24    2    4    4    0    0 -0.10313837634E+02 -0.78692960969E+02  0.30343831379E+03  0.32358745040E+03  0.79593155667E+02 0.  0.
         11    1    3    3    0    0 -0.30966514836E+02  0.78707500310E+02  0.20747736973E+03  0.22405502583E+03  0.00000000000E+00 0.  1.
        -11    1    3    3    0    0  0.42303579508E+02  0.77993615099E+02  0.12702041053E+03  0.15494121959E+03  0.00000000000E+00 0. -1.
          2    1    6    6  502    0 -0.29598809902E+01 -0.94706791627E+02  0.25325198191E+03  0.27039730697E+03  0.00000000000E+00 0. -1.
          3    1    5    5  503    0 -0.23640067873E+02 -0.47348522169E+00 -0.27991088326E+03  0.28090777768E+03  0.00000000000E+00 0. -1.
         -4    1    5    5    0  503  0.22616840835E+02 -0.77534669218E+02 -0.35894313132E+03  0.36791754231E+03  0.00000000000E+00 0.  1.
         -1    1    6    6    0  502 -0.73539566441E+01  0.16013830658E+02  0.50186331875E+02  0.53190143427E+02  0.00000000000E+00 0.  1.
<mgrwt>
<rscale>  0 0.13514087E+04</rscale>
<asrwt>0</asrwt>
<pdfrwt beam="1">  1        1 0.10388393E+00 0.13514087E+04</pdfrwt>
<pdfrwt beam="2">  1       -1 0.10402515E+00 0.13514087E+04</pdfrwt>
<totfact> 0.24510799E+01</totfact>
</mgrwt>
</event>
<event>
12    1  0.1519630E-007  0.2325785E+04  0.7818608E-02  0.8467823E-01
          1   -1    0    0  501    0  0.00000000000E+00  0.00000000000E+00  0.27285292521E+04  0.27285292521E+04  0.00000000000E+00 0. -1.
         -1   -1    0    0    0  501 -0.00000000000E+00 -0.00000000000E+00 -0.49562176169E+03  0.49562176169E+03  0.00000000000E+00 0.  1.
         23    2    1    2    0    0  0.18952818664E+03  0.51000711846E+02 -0.38879022574E+03  0.44482222401E+03  0.90481850133E+02 0.  0.
        254    2    1    2    0    0 -0.18952818664E+03 -0.51000711846E+02  0.26216977162E+04  0.27793287898E+04  0.90158061241E+03 0.  0.
        -24    2    4    4    0    0  0.29397823176E+03 -0.12965132176E+03  0.17030359890E+04  0.17351187484E+04  0.84100091043E+02 0.  0.
         24    2    4    4    0    0 -0.48350641840E+03  0.78650609910E+02  0.91866172715E+03  0.10442100414E+04  0.80441696019E+02 0.  0.
         11    1    3    3    0    0  0.15526132128E+03  0.38563048315E+02 -0.37148717950E+03  0.40446991374E+03  0.00000000000E+00 0.  1.
        -11    1    3    3    0    0  0.34266865356E+02  0.12437663531E+02 -0.17303046235E+02  0.40352310274E+02  0.00000000000E+00 0. -1.
          2    1    6    6  502    0 -0.38891747769E+03  0.88471907064E+02  0.78014765686E+03  0.87619315752E+03  0.00000000000E+00 0. -1.
          1    1    5    5  503    0  0.10465274205E+03 -0.57370722964E+02  0.43868043790E+03  0.45462525542E+03  0.00000000000E+00 0. -1.
         -2    1    5    5    0  503  0.18932548972E+03 -0.72280598792E+02  0.12643555511E+04  0.12804934930E+04  0.00000000000E+00 0.  1.
         -1    1    6    6    0  502 -0.94588940710E+02 -0.98212971535E+01  0.13851407029E+03  0.16801688383E+03  0.00000000000E+00 0.  1.
<mgrwt>
<rscale>  0 0.23257846E+04</rscale>
<asrwt>0</asrwt>
<pdfrwt beam="1">  1        1 0.41977372E+00 0.23257846E+04</pdfrwt>
<pdfrwt beam="2">  1       -1 0.76249504E-01 0.23257846E+04</pdfrwt>
<totfact> 0.14591740E+00</totfact>
</mgrwt>
</event>
<event>
12    1  0.1519630E-007  0.1305135E+04  0.7818608E-02  0.9025503E-01
          1   -1    0    0  501    0  0.00000000000E+00  0.00000000000E+00  0.69853334192E+03  0.69853334192E+03  0.00000000000E+00 0. -1.
         -1   -1    0    0    0  501 -0.00000000000E+00 -0.00000000000E+00 -0.60962638343E+03  0.60962638343E+03  0.00000000000E+00 0.  1.
         23    2    1    2    0    0 -0.31808760772E+02  0.14453933466E+03 -0.27684012028E+03  0.32977180261E+03  0.10102263644E+03 0.  0.
        254    2    1    2    0    0  0.31808760772E+02 -0.14453933466E+03  0.36574707876E+03  0.97838792275E+03  0.89530362740E+03 0.  0.
        -24    2    4    4    0    0  0.29039102164E+03  0.27562485598E+03  0.15320156607E+03  0.43587922915E+03  0.78892178802E+02 0.  0.
         24    2    4    4    0    0 -0.25858226087E+03 -0.42016419064E+03  0.21254551270E+03  0.54250869360E+03  0.75745329441E+02 0.  0.
         13    1    3    3    0    0 -0.60199612241E+01  0.98302526271E+02 -0.25341186138E+03  0.27187717464E+03  0.00000000000E+00 0.  1.
        -13    1    3    3    0    0 -0.25788799548E+02  0.46236808385E+02 -0.23428258899E+02  0.57894627962E+02  0.00000000000E+00 0. -1.
          4    1    6    6  502    0 -0.26340612424E+03 -0.41513451351E+03  0.21231896540E+03  0.53553598727E+03  0.00000000000E+00 0. -1.
          1    1    5    5  503    0  0.16514614471E+03  0.20648806710E+03  0.11064869968E+03  0.28662467742E+03  0.00000000000E+00 0. -1.
         -4    1    5    5    0  503  0.12524487693E+03  0.69136788885E+02  0.42552866383E+02  0.14925455173E+03  0.00000000000E+00 0.  1.
         -3    1    6    6    0  502  0.48238633700E+01 -0.50296771243E+01  0.22654729089E+00  0.69727063226E+01  0.00000000000E+00 0.  1.
<mgrwt>
<rscale>  0 0.13051350E+04</rscale>
<asrwt>0</asrwt>
<pdfrwt beam="1">  1        1 0.10746667E+00 0.13051350E+04</pdfrwt>
<pdfrwt beam="2">  1       -1 0.93788674E-01 0.13051350E+04</pdfrwt>
<totfact> 0.29597635E+01</totfact>
</mgrwt>
</event>
<event>
12    1  0.1519630E-007  0.1677364E+04  0.7818608E-02  0.8774381E-01
         -1   -1    0    0    0  501 -0.00000000000E+00  0.00000000000E+00  0.28842269462E+03  0.28842269462E+03  0.00000000000E+00 0.  1.
          1   -1    0    0  501    0  0.00000000000E+00 -0.00000000000E+00 -0.24387394281E+04  0.24387394281E+04  0.00000000000E+00 0. -1.
         23    2    1    2    0    0  0.19346151250E+03 -0.45227193360E+03 -0.22618422952E+03  0.54909805312E+03  0.91499221448E+02 0.  0.
        254    2    1    2    0    0 -0.19346151250E+03  0.45227193360E+03 -0.19241325040E+04  0.21780640696E+04  0.89425943649E+03 0.  0.
        -24    2    4    4    0    0  0.16921889139E+02  0.67788072598E+03 -0.14955851286E+04  0.16442904825E+04  0.84307086412E+02 0.  0.
         24    2    4    4    0    0 -0.21038340164E+03 -0.22560879238E+03 -0.42854737536E+03  0.53377358714E+03  0.78108171937E+02 0.  0.
         11    1    3    3    0    0  0.57143977371E+02 -0.13675304257E+03 -0.11584531119E+03  0.18811423372E+03  0.00000000000E+00 0. -1.
        -11    1    3    3    0    0  0.13631753513E+03 -0.31551889103E+03 -0.11033891833E+03  0.36098381941E+03  0.00000000000E+00 0.  1.
          4    1    6    6  502    0 -0.93133078592E+01 -0.50732946169E+02 -0.63462682095E+02  0.81780691786E+02  0.00000000000E+00 0. -1.
          1    1    5    5  503    0  0.39661480115E+02  0.17324474157E+03 -0.36387085012E+03  0.40495526797E+03  0.00000000000E+00 0. -1.
         -2    1    5    5    0  503 -0.22739590976E+02  0.50463598441E+03 -0.11317142785E+04  0.12393352145E+04  0.00000000000E+00 0.  1.
         -3    1    6    6    0  502 -0.20107009378E+03 -0.17487584621E+03 -0.36508469326E+03  0.45199289536E+03  0.00000000000E+00 0.  1.
<mgrwt>
<rscale>  0 0.16773644E+04</rscale>
<asrwt>0</asrwt>
<pdfrwt beam="1">  1        1 0.37519068E+00 0.16773644E+04</pdfrwt>
<pdfrwt beam="2">  1       -1 0.44372722E-01 0.16773644E+04</pdfrwt>
<totfact> 0.71704810E+00</totfact>
</mgrwt>
</event>
<event>
12    1  0.1519630E-007  0.2269462E+04  0.7818608E-02  0.8490060E-01
         -1   -1    0    0    0  501 -0.00000000000E+00  0.00000000000E+00  0.11701302074E+04  0.11701302074E+04  0.00000000000E+00 0.  1.
          1   -1    0    0  501    0  0.00000000000E+00 -0.00000000000E+00 -0.11004026913E+04  0.11004026913E+04  0.00000000000E+00 0. -1.
         23    2    1    2    0    0  0.11788421439E+03  0.35438506095E+03  0.90900056109E+03  0.98717397772E+03  0.93514612816E+02 0.  0.
        254    2    1    2    0    0 -0.11788421439E+03 -0.35438506095E+03 -0.83927304493E+03  0.12833589209E+04  0.89618380736E+03 0.  0.
        -24    2    4    4    0    0 -0.41488244595E+03 -0.58867119352E+02 -0.72519253080E+03  0.84164932886E+03  0.82925293734E+02 0.  0.
         24    2    4    4    0    0  0.29699823156E+03 -0.29551794159E+03 -0.11408051413E+03  0.44170959208E+03  0.80957993274E+02 0.  0.
         11    1    3    3    0    0  0.20481504119E+02  0.14120224748E+03  0.44537753089E+03  0.46767372357E+03  0.00000000000E+00 0.  1.
        -11    1    3    3    0    0  0.97402710272E+02  0.21318281347E+03  0.46362303020E+03  0.51950025415E+03  0.00000000000E+00 0. -1.
          4    1    6    6  502    0  0.18776710408E+03 -0.17446079627E+03 -0.29424776206E+02  0.25799006233E+03  0.00000000000E+00 0. -1.
          1    1    5    5  503    0 -0.39418825280E+02 -0.45643816672E+01 -0.12921955880E+03  0.13517533703E+03  0.00000000000E+00 0. -1.
         -2    1    5    5    0  503 -0.37546362067E+03 -0.54302737685E+02 -0.59597297201E+03  0.70647399183E+03  0.00000000000E+00 0.  1.
         -3    1    6    6    0  502  0.10923112748E+03 -0.12105714533E+03 -0.84655737927E+02  0.18371952975E+03  0.00000000000E+00 0.  1.
<mgrwt>
<rscale>  0 0.22694620E+04</rscale>
<asrwt>0</asrwt>
<pdfrwt beam="1">  1        1 0.16929272E+00 0.22694620E+04</pdfrwt>
<pdfrwt beam="2">  1       -1 0.18002003E+00 0.22694620E+04</pdfrwt>
<totfact> 0.23888764E+00</totfact>
</mgrwt>
</event>
<event>
12    1  0.1519630E-007  0.2091319E+04  0.7818608E-02  0.8565077E-01
         -2   -1    0    0    0  501 -0.00000000000E+00  0.00000000000E+00  0.44441688625E+03  0.44441688625E+03  0.00000000000E+00 0.  1.
          2   -1    0    0  501    0  0.00000000000E+00 -0.00000000000E+00 -0.24603120892E+04  0.24603120892E+04  0.00000000000E+00 0. -1.
         23    2    1    2    0    0 -0.74712719302E+03  0.18791006229E+03 -0.13435938516E+04  0.15513923237E+04  0.89802393155E+02 0.  0.
        254    2    1    2    0    0  0.74712719302E+03 -0.18791006229E+03 -0.67230135132E+03  0.13533366517E+04  0.88657867778E+03 0.  0.
        -24    2    4    4    0    0  0.43304429417E+03  0.32178960658E+03 -0.18050076890E+03  0.57456157103E+03  0.80402485788E+02 0.  0.
         24    2    4    4    0    0  0.31408289885E+03 -0.50969966887E+03 -0.49180058242E+03  0.77877508071E+03  0.78619295765E+02 0.  0.
         13    1    3    3    0    0 -0.63373071575E+03  0.16286600854E+03 -0.10705401773E+04  0.12546697685E+04  0.00000000000E+00 0. -1.
        -13    1    3    3    0    0 -0.11339647727E+03  0.25044053758E+02 -0.27305367428E+03  0.29672255513E+03  0.00000000000E+00 0.  1.
          2    1    6    6  502    0  0.16247293536E+03 -0.32307018423E+03 -0.32425745051E+03  0.48571050315E+03  0.00000000000E+00 0. -1.
          3    1    5    5  503    0  0.31612084318E+03  0.27550010995E+03 -0.14800765831E+03  0.44467849621E+03  0.00000000000E+00 0. -1.
         -4    1    5    5    0  503  0.11692345099E+03  0.46289496629E+02 -0.32493110596E+02  0.12988307483E+03  0.00000000000E+00 0.  1.
         -1    1    6    6    0  502  0.15160996349E+03 -0.18662948464E+03 -0.16754313191E+03  0.29306457755E+03  0.00000000000E+00 0.  1.
<mgrwt>
<rscale>  0 0.20913194E+04</rscale>
<asrwt>0</asrwt>
<pdfrwt beam="1">  1        2 0.37850955E+00 0.20913194E+04</pdfrwt>
<pdfrwt beam="2">  1       -2 0.68371828E-01 0.20913194E+04</pdfrwt>
<totfact> 0.66248616E+00</totfact>
</mgrwt>
</event>
<event>
12    1  0.1519630E-007  0.1510380E+04  0.7818608E-02  0.8877579E-01
         -2   -1    0    0    0  501 -0.00000000000E+00  0.00000000000E+00  0.67927505281E+03  0.67927505281E+03  0.00000000000E+00 0. -1.
          2   -1    0    0  501    0  0.00000000000E+00 -0.00000000000E+00 -0.83958960951E+03  0.83958960951E+03  0.00000000000E+00 0.  1.
         23    2    1    2    0    0  0.87403480314E+02  0.44275281228E+01  0.41872655110E+03  0.43785030808E+03  0.93391628694E+02 0.  0.
        254    2    1    2    0    0 -0.87403480314E+02 -0.44275281228E+01 -0.57904110780E+03  0.10810143542E+04  0.90864979953E+03 0.  0.
        -24    2    4    4    0    0 -0.29308615575E+03  0.20603762379E+03 -0.66890047569E+03  0.76304826933E+03  0.80397872071E+02 0.  0.
         24    2    4    4    0    0  0.20568267544E+03 -0.21046515192E+03  0.89859367894E+02  0.31796608491E+03  0.80167212824E+02 0.  0.
         13    1    3    3    0    0  0.58011317072E+02  0.47723472809E+02  0.22673033533E+03  0.23885034587E+03  0.00000000000E+00 0. -1.
        -13    1    3    3    0    0  0.29392163241E+02 -0.43295944686E+02  0.19199621578E+03  0.19899996221E+03  0.00000000000E+00 0.  1.
          2    1    6    6  502    0  0.79905311073E+02 -0.56553462560E+02 -0.43751898475E+01  0.97991301407E+02  0.00000000000E+00 0. -1.
          3    1    5    5  503    0  0.16078644090E+01  0.16948334222E+02 -0.31866996042E+02  0.36129443638E+02  0.00000000000E+00 0. -1.
         -4    1    5    5    0  503 -0.29469402016E+03  0.18908928957E+03 -0.63703347965E+03  0.72691882569E+03  0.00000000000E+00 0.  1.
         -1    1    6    6    0  502  0.12577736436E+03 -0.15391168936E+03  0.94234557742E+02  0.21997478351E+03  0.00000000000E+00 0.  1.
<mgrwt>
<rscale>  0 0.15103805E+04</rscale>
<asrwt>0</asrwt>
<pdfrwt beam="1">  1        2 0.12916763E+00 0.15103805E+04</pdfrwt>
<pdfrwt beam="2">  1       -2 0.10450385E+00 0.15103805E+04</pdfrwt>
<totfact> 0.23172202E+01</totfact>
</mgrwt>
</event>
<event>
12    1  0.1519630E-007  0.1806842E+04  0.7818608E-02  0.8702669E-01
         -2   -1    0    0    0  501 -0.00000000000E+00  0.00000000000E+00  0.68940424370E+03  0.68940424370E+03  0.00000000000E+00 0.  1.
          2   -1    0    0  501    0  0.00000000000E+00 -0.00000000000E+00 -0.11838766803E+04  0.11838766803E+04  0.00000000000E+00 0. -1.
         23    2    1    2    0    0  0.31350086883E+03 -0.17615724578E+03  0.40183956738E+03  0.54687894312E+03  0.91034996142E+02 0.  0.
        254    2    1    2    0    0 -0.31350086883E+03  0.17615724578E+03 -0.89631200401E+03  0.13264019809E+04  0.90920450748E+03 0.  0.
        -24    2    4    4    0    0 -0.58091061026E+03  0.18803638068E+03 -0.34141433172E+03  0.70530216657E+03  0.89847552512E+02 0.  0.
         24    2    4    4    0    0  0.26740974143E+03 -0.11879134898E+02 -0.55489767229E+03  0.62109981434E+03  0.78768451825E+02 0.  0.
         11    1    3    3    0    0  0.69466176433E+02 -0.86387879947E+02  0.11521957678E+03  0.15988735517E+03  0.00000000000E+00 0. -1.
        -11    1    3    3    0    0  0.24403469240E+03 -0.89769365830E+02  0.28661999060E+03  0.38699158795E+03  0.00000000000E+00 0.  1.
          2    1    6    6  502    0  0.93590906855E+01  0.39607984301E+01 -0.14789052511E+01  0.10269745051E+02  0.00000000000E+00 0. -1.
          1    1    5    5  503    0 -0.71920235389E+02  0.69798513030E+01 -0.14018286499E+02  0.73605373031E+02  0.00000000000E+00 0. -1.
         -2    1    5    5    0  503 -0.50899037487E+03  0.18105652937E+03 -0.32739604522E+03  0.63169679354E+03  0.00000000000E+00 0.  1.
         -1    1    6    6    0  502  0.25805065074E+03 -0.15839933328E+02 -0.55341876704E+03  0.61083006929E+03  0.00000000000E+00 0.  1.
<mgrwt>
<rscale>  0 0.18068421E+04</rscale>
<asrwt>0</asrwt>
<pdfrwt beam="1">  1        2 0.18213488E+00 0.18068421E+04</pdfrwt>
<pdfrwt beam="2">  1       -2 0.10606219E+00 0.18068421E+04</pdfrwt>
<totfact> 0.13114123E+01</totfact>
</mgrwt>
</event>
<event>
12    1  0.1539186E-007  0.1693391E+04  0.7818608E-02  0.8765143E-01
         -2   -1    0    0    0  501 -0.00000000000E+00  0.00000000000E+00  0.11912873322E+04  0.11912873322E+04  0.00000000000E+00 0.  1.
          2   -1    0    0  501    0  0.00000000000E+00 -0.00000000000E+00 -0.60178049899E+03  0.60178049899E+03  0.00000000000E+00 0. -1.
         23    2    1    2    0    0  0.37279035849E+03  0.30749197557E+03 -0.17055136255E+03  0.52089399815E+03  0.93374641165E+02 0.  0.
        254    2    1    2    0    0 -0.37279035849E+03 -0.30749197557E+03  0.76005819577E+03  0.12721738331E+04  0.89845079671E+03 0.  0.
        -24    2    4    4    0    0 -0.39537941754E+03  0.23056914597E+03  0.25703833160E+03  0.53100004753E+03  0.80033316056E+02 0.  0.
         24    2    4    4    0    0  0.22589059045E+02 -0.53806112155E+03  0.50301986417E+03  0.74117378552E+03  0.79306749295E+02 0.  0.
         11    1    3    3    0    0  0.14618714274E+02 -0.60160227014E+01 -0.92104097463E+01  0.18295654781E+02  0.00000000000E+00 0.  1.
        -11    1    3    3    0    0  0.35817164422E+03  0.31350799828E+03 -0.16134095281E+03  0.50259834337E+03  0.00000000000E+00 0. -1.
          4    1    6    6  502    0  0.22335504318E+02 -0.54050231120E+03  0.49674757788E+03  0.73443841083E+03  0.00000000000E+00 0. -1.
          3    1    5    5  503    0 -0.35729877989E+03  0.23233572124E+03  0.24124804647E+03  0.48973760873E+03  0.00000000000E+00 0. -1.
         -4    1    5    5    0  503 -0.38080637645E+02 -0.17665752637E+01  0.15790285131E+02  0.41262438805E+02  0.00000000000E+00 0.  1.
         -3    1    6    6    0  502  0.25355472703E+00  0.24411896563E+01  0.62722862924E+01  0.67353746942E+01  0.00000000000E+00 0.  1.
<mgrwt>
<rscale>  0 0.16933913E+04</rscale>
<asrwt>0</asrwt>
<pdfrwt beam="1">  1        2 0.92581615E-01 0.16933913E+04</pdfrwt>
<pdfrwt beam="2">  1       -2 0.18327497E+00 0.16933913E+04</pdfrwt>
<totfact> 0.80924155E+00</totfact>
</mgrwt>
</event>
<event>
12    1  0.1519630E-007  0.1901864E+04  0.7818608E-02  0.8653929E-01
         -1   -1    0    0    0  501 -0.00000000000E+00  0.00000000000E+00  0.45100020606E+03  0.45100020606E+03  0.00000000000E+00 0.  1.
          1   -1    0    0  501    0  0.00000000000E+00 -0.00000000000E+00 -0.20050360137E+04  0.20050360137E+04  0.00000000000E+00 0. -1.
         23    2    1    2    0    0  0.42919736759E+03  0.49409700646E+03 -0.17237877614E+03  0.68253297908E+03  0.88286991876E+02 0.  0.
        254    2    1    2    0    0 -0.42919736759E+03 -0.49409700646E+03 -0.13816570315E+04  0.17735032406E+04  0.89888562112E+03 0.  0.
        -24    2    4    4    0    0 -0.54169721522E+03 -0.53827323943E+03 -0.58900905043E+03  0.96759159478E+03  0.78280773843E+02 0.  0.
         24    2    4    4    0    0  0.11249984763E+03  0.44176232974E+02 -0.79264798104E+03  0.80591164586E+03  0.81209628822E+02 0.  0.
         11    1    3    3    0    0  0.23788831172E+03  0.31728075089E+03 -0.13741625095E+03  0.41969173183E+03  0.00000000000E+00 0. -1.
        -11    1    3    3    0    0  0.19130905587E+03  0.17681625556E+03 -0.34962525191E+02  0.26284124725E+03  0.00000000000E+00 0.  1.
          4    1    6    6  502    0  0.97718343509E+02  0.35221081310E+01 -0.44717360839E+03  0.45773957219E+03  0.00000000000E+00 0. -1.
          1    1    5    5  503    0 -0.49638478215E+03 -0.45801019514E+03 -0.51354576325E+03  0.84846947014E+03  0.00000000000E+00 0. -1.
         -2    1    5    5    0  503 -0.45312433068E+02 -0.80263044291E+02 -0.75463287173E+02  0.11912212465E+03  0.00000000000E+00 0.  1.
         -3    1    6    6    0  502  0.14781504121E+02  0.40654124843E+02 -0.34547437264E+03  0.34817207367E+03  0.00000000000E+00 0.  1.
<mgrwt>
<rscale>  0 0.19018640E+04</rscale>
<asrwt>0</asrwt>
<pdfrwt beam="1">  1        1 0.30846707E+00 0.19018640E+04</pdfrwt>
<pdfrwt beam="2">  1       -1 0.69384648E-01 0.19018640E+04</pdfrwt>
<totfact> 0.58110917E+00</totfact>
</mgrwt>
</event>
<event>
12    1  0.1519630E-007  0.1404234E+04  0.7818608E-02  0.8950760E-01
         -2   -1    0    0    0  501 -0.00000000000E+00  0.00000000000E+00  0.30182607922E+03  0.30182607922E+03  0.00000000000E+00 0.  1.
          2   -1    0    0  501    0  0.00000000000E+00 -0.00000000000E+00 -0.16332850695E+04  0.16332850695E+04  0.00000000000E+00 0. -1.
         23    2    1    2    0    0 -0.46037150441E+02  0.19528101352E+03  0.86518353871E+02  0.23597758284E+03  0.89139781163E+02 0.  0.
        254    2    1    2    0    0  0.46037150441E+02 -0.19528101352E+03 -0.14179773442E+04  0.16991335659E+04  0.91440747630E+03 0.  0.
        -24    2    4    4    0    0 -0.32417370753E+02 -0.52481127857E+03 -0.55440369965E+03  0.76824292335E+03  0.79724293943E+02 0.  0.
         24    2    4    4    0    0  0.78454521194E+02  0.32953026505E+03 -0.86357364451E+03  0.93089064254E+03  0.77798723599E+02 0.  0.
         13    1    3    3    0    0 -0.24811427429E+01  0.96094228473E+02 -0.19010603271E+01  0.96145051072E+02  0.00000000000E+00 0. -1.
        -13    1    3    3    0    0 -0.43556007698E+02  0.99186785045E+02  0.88419414198E+02  0.13983253177E+03  0.00000000000E+00 0.  1.
          2    1    6    6  502    0  0.45051198301E+01  0.18594575095E+03 -0.47016894583E+03  0.50562333414E+03  0.00000000000E+00 0. -1.
          1    1    5    5  503    0  0.10690008010E+02 -0.68574849513E+02 -0.10876465115E+03  0.12902145402E+03  0.00000000000E+00 0. -1.
         -2    1    5    5    0  503 -0.43107378764E+02 -0.45623642906E+03 -0.44563904850E+03  0.63922146933E+03  0.00000000000E+00 0.  1.
         -1    1    6    6    0  502  0.73949401364E+02  0.14358451410E+03 -0.39340469868E+03  0.42526730840E+03  0.00000000000E+00 0.  1.
<mgrwt>
<rscale>  0 0.14042336E+04</rscale>
<asrwt>0</asrwt>
<pdfrwt beam="1">  1        2 0.25127463E+00 0.14042336E+04</pdfrwt>
<pdfrwt beam="2">  1       -2 0.46434781E-01 0.14042336E+04</pdfrwt>
<totfact> 0.45701305E+01</totfact>
</mgrwt>
</event>
<event>
12    1  0.1519630E-007  0.1994579E+04  0.7818608E-02  0.8609159E-01
         -1   -1    0    0    0  501 -0.00000000000E+00  0.00000000000E+00  0.12605530496E+04  0.12605530496E+04  0.00000000000E+00 0.  1.
          1   -1    0    0  501    0  0.00000000000E+00 -0.00000000000E+00 -0.78900830189E+03  0.78900830189E+03  0.00000000000E+00 0. -1.
         23    2    1    2    0    0  0.16615352696E+03  0.10521073263E+03  0.97797344153E+03  0.10010980214E+04  0.84195625847E+02 0.  0.
        254    2    1    2    0    0 -0.16615352696E+03 -0.10521073263E+03 -0.50642869385E+03  0.10484633300E+04  0.89673242368E+03 0.  0.
        -24    2    4    4    0    0  0.29407757950E+02 -0.37753176723E+03  0.53712460178E+02  0.39098252147E+03  0.81161889009E+02 0.  0.
         24    2    4    4    0    0 -0.19556128491E+03  0.27232103459E+03 -0.56014115403E+03  0.65748080855E+03  0.78230039879E+02 0.  0.
         11    1    3    3    0    0  0.13777965984E+02 -0.88285884104E+01  0.29663015473E+02  0.33877290431E+02  0.00000000000E+00 0. -1.
        -11    1    3    3    0    0  0.15237556098E+03  0.11403932104E+03  0.94831042606E+03  0.96722073101E+03  0.00000000000E+00 0.  1.
          2    1    6    6  502    0 -0.14092082354E+03  0.23934922995E+03 -0.42054698217E+03  0.50399057193E+03  0.00000000000E+00 0. -1.
          3    1    5    5  503    0  0.19375263230E+02 -0.36973567849E+03  0.40174494681E+02  0.37241624937E+03  0.00000000000E+00 0. -1.
         -4    1    5    5    0  503  0.10032494720E+02 -0.77960887329E+01  0.13537965497E+02  0.18566272099E+02  0.00000000000E+00 0.  1.
         -1    1    6    6    0  502 -0.54640461371E+02  0.32971804641E+02 -0.13959417186E+03  0.15349023662E+03  0.00000000000E+00 0.  1.
<mgrwt>
<rscale>  0 0.19945795E+04</rscale>
<asrwt>0</asrwt>
<pdfrwt beam="1">  1        1 0.12138589E+00 0.19945795E+04</pdfrwt>
<pdfrwt beam="2">  1       -1 0.19393124E+00 0.19945795E+04</pdfrwt>
<totfact> 0.34789716E+00</totfact>
</mgrwt>
</event>
<event>
12    1  0.1519630E-007  0.1948953E+04  0.7818608E-02  0.8630866E-01
         -2   -1    0    0    0  501 -0.00000000000E+00  0.00000000000E+00  0.27274805591E+03  0.27274805591E+03  0.00000000000E+00 0.  1.
          2   -1    0    0  501    0  0.00000000000E+00 -0.00000000000E+00 -0.34816182124E+04  0.34816182124E+04  0.00000000000E+00 0. -1.
         23    2    1    2    0    0  0.42318677106E+02  0.68616350840E+03 -0.62662954853E+03  0.93485150536E+03  0.93120971206E+02 0.  0.
        254    2    1    2    0    0 -0.42318677106E+02 -0.68616350840E+03 -0.25822406080E+04  0.28195147630E+04  0.89949191792E+03 0.  0.
        -24    2    4    4    0    0  0.32606107152E+03 -0.77338366999E+02 -0.13615725115E+04  0.14044302236E+04  0.79041152270E+02 0.  0.
         24    2    4    4    0    0 -0.36837974863E+03 -0.60882514140E+03 -0.12206680965E+04  0.14150845393E+04  0.77858586975E+02 0.  0.
         13    1    3    3    0    0 -0.48591489302E+01  0.22846212751E+03 -0.26283669562E+03  0.34828391235E+03  0.00000000000E+00 0. -1.
        -13    1    3    3    0    0  0.47177826036E+02  0.45770138089E+03 -0.36379285291E+03  0.58656759301E+03  0.00000000000E+00 0.  1.
          4    1    6    6  502    0 -0.18123866087E+03 -0.33785679220E+03 -0.59029102374E+03  0.70387367967E+03  0.00000000000E+00 0. -1.
          3    1    5    5  503    0  0.92662052797E+02 -0.91101110009E+01 -0.52667233851E+03  0.53483923033E+03  0.00000000000E+00 0. -1.
         -4    1    5    5    0  503  0.23339901873E+03 -0.68228255998E+02 -0.83490017294E+03  0.86959099331E+03  0.00000000000E+00 0.  1.
         -3    1    6    6    0  502 -0.18714108776E+03 -0.27096834921E+03 -0.63037707277E+03  0.71121085965E+03  0.00000000000E+00 0.  1.
<mgrwt>
<rscale>  0 0.19489532E+04</rscale>
<asrwt>0</asrwt>
<pdfrwt beam="1">  1        2 0.53563359E+00 0.19489532E+04</pdfrwt>
<pdfrwt beam="2">  1       -2 0.41961238E-01 0.19489532E+04</pdfrwt>
<totfact> 0.42302987E+00</totfact>
</mgrwt>
</event>
<event>
12    1  0.1519630E-007  0.1615966E+04  0.7818608E-02  0.8810799E-01
          2   -1    0    0  501    0  0.00000000000E+00  0.00000000000E+00  0.17760708181E+04  0.17760708181E+04  0.00000000000E+00 0. -1.
         -2   -1    0    0    0  501 -0.00000000000E+00 -0.00000000000E+00 -0.36757328881E+03  0.36757328881E+03  0.00000000000E+00 0.  1.
         23    2    1    2    0    0 -0.80275614596E+02  0.49447107365E+03  0.18207312986E+03  0.54111992962E+03  0.93350611324E+02 0.  0.
        254    2    1    2    0    0  0.80275614596E+02 -0.49447107365E+03  0.12264243994E+04  0.16025241773E+04  0.90167683474E+03 0.  0.
        -24    2    4    4    0    0 -0.57846366311E+02 -0.66151380578E+03  0.48742373451E+03  0.82767968758E+03  0.80777787413E+02 0.  0.
         24    2    4    4    0    0  0.13812198091E+03  0.16704273213E+03  0.73900066491E+03  0.77484448970E+03  0.85329036759E+02 0.  0.
         11    1    3    3    0    0 -0.88749182506E+02  0.48545759584E+03  0.16565806864E+03  0.52056516447E+03  0.00000000000E+00 0.  1.
        -11    1    3    3    0    0  0.84735679094E+01  0.90134778134E+01  0.16415061222E+02  0.20554765149E+02  0.00000000000E+00 0. -1.
          2    1    6    6  502    0  0.10347511940E+03  0.16303141351E+03  0.55671438404E+03  0.58925142980E+03  0.00000000000E+00 0. -1.
          1    1    5    5  503    0  0.13493526426E+02 -0.28724872522E+03  0.19616704326E+03  0.34810259157E+03  0.00000000000E+00 0. -1.
         -2    1    5    5    0  503 -0.71339892736E+02 -0.37426508056E+03  0.29125669125E+03  0.47957709602E+03  0.00000000000E+00 0.  1.
         -1    1    6    6    0  502  0.34646861505E+02  0.40113186231E+01  0.18228628088E+03  0.18559305991E+03  0.00000000000E+00 0.  1.
<mgrwt>
<rscale>  0 0.16159656E+04</rscale>
<asrwt>0</asrwt>
<pdfrwt beam="1">  1        2 0.27324166E+00 0.16159656E+04</pdfrwt>
<pdfrwt beam="2">  1       -2 0.56549738E-01 0.16159656E+04</pdfrwt>
<totfact> 0.24996958E+01</totfact>
</mgrwt>
</event>
<event>
12    1  0.1519630E-007  0.2244189E+04  0.7818608E-02  0.8500257E-01
          1   -1    0    0  501    0  0.00000000000E+00  0.00000000000E+00  0.34992205259E+04  0.34992205259E+04  0.00000000000E+00 0. -1.
         -1   -1    0    0    0  501 -0.00000000000E+00 -0.00000000000E+00 -0.35982197537E+03  0.35982197537E+03  0.00000000000E+00 0.  1.
         23    2    1    2    0    0  0.39744921190E+03  0.80082109363E+03  0.82217543518E+03  0.12187368251E+04  0.10033295928E+03 0.  0.
        254    2    1    2    0    0 -0.39744921190E+03 -0.80082109363E+03  0.23172231154E+04  0.26403056762E+04  0.89577385373E+03 0.  0.
        -24    2    4    4    0    0  0.27487402462E+03 -0.18449637686E+03  0.78562165628E+03  0.85627781571E+03  0.80097867531E+02 0.  0.
         24    2    4    4    0    0 -0.67232323652E+03 -0.61632471677E+03  0.15316014591E+04  0.17840278605E+04  0.71257886862E+02 0.  0.
         13    1    3    3    0    0  0.98012446531E+02  0.12061987741E+03  0.12081431814E+03  0.19685449949E+03  0.00000000000E+00 0.  1.
        -13    1    3    3    0    0  0.29943676537E+03  0.68020121622E+03  0.70136111704E+03  0.10218823257E+04  0.00000000000E+00 0. -1.
          4    1    6    6  502    0 -0.25695171993E+03 -0.25953607351E+03  0.55479629423E+03  0.66421539271E+03  0.00000000000E+00 0. -1.
          3    1    5    5  503    0  0.26770662794E+02 -0.69246810277E+01  0.27199338710E+02  0.38786900108E+02  0.00000000000E+00 0. -1.
         -4    1    5    5    0  503  0.24810336183E+03 -0.17757169583E+03  0.75842231757E+03  0.81749091561E+03  0.00000000000E+00 0.  1.
         -3    1    6    6    0  502 -0.41537151659E+03 -0.35678864326E+03  0.97680516490E+03  0.11198124677E+04  0.00000000000E+00 0.  1.
<mgrwt>
<rscale>  0 0.22441893E+04</rscale>
<asrwt>0</asrwt>
<pdfrwt beam="1">  1        1 0.53834160E+00 0.22441893E+04</pdfrwt>
<pdfrwt beam="2">  1       -1 0.55357229E-01 0.22441893E+04</pdfrwt>
<totfact> 0.75167883E-01</totfact>
</mgrwt>
</event>
<event>
12    1  0.1519630E-007  0.1646429E+04  0.7818608E-02  0.8792522E-01
         -2   -1    0    0    0  501 -0.00000000000E+00  0.00000000000E+00  0.44788262485E+03  0.44788262485E+03  0.00000000000E+00 0.  1.
          2   -1    0    0  501    0  0.00000000000E+00 -0.00000000000E+00 -0.15130800896E+04  0.15130800896E+04  0.00000000000E+00 0. -1.
         23    2    1    2    0    0  0.19660957854E+03  0.11698125840E+03  0.24613607144E+03  0.35098144780E+03  0.10131668098E+03 0.  0.
        254    2    1    2    0    0 -0.19660957854E+03 -0.11698125840E+03 -0.13113335362E+04  0.16099812667E+04  0.90559598863E+03 0.  0.
        -24    2    4    4    0    0  0.13430688369E+03  0.67429714352E+02  0.63120077657E+02  0.18202300457E+03  0.81013113788E+02 0.  0.
         24    2    4    4    0    0 -0.33091646223E+03 -0.18441097275E+03 -0.13744536139E+04  0.14279582621E+04  0.80180731806E+02 0.  0.
         11    1    3    3    0    0  0.48295649673E+02 -0.11887784989E+02  0.77336158680E+02  0.91949283024E+02  0.00000000000E+00 0. -1.
        -11    1    3    3    0    0  0.14831392887E+03  0.12886904339E+03  0.16879991276E+03  0.25903216478E+03  0.00000000000E+00 0.  1.
          2    1    6    6  502    0 -0.23326128510E+03 -0.15261752250E+03 -0.11043971824E+04  0.11390329546E+04  0.00000000000E+00 0. -1.
          3    1    5    5  503    0  0.12029502930E+03  0.65862670493E+02  0.80979830059E+02  0.15926869848E+03  0.00000000000E+00 0. -1.
         -4    1    5    5    0  503  0.14011854392E+02  0.15670438593E+01 -0.17859752402E+02  0.22754306094E+02  0.00000000000E+00 0.  1.
         -1    1    6    6    0  502 -0.97655177135E+02 -0.31793450255E+02 -0.27005643150E+03  0.28892530747E+03  0.00000000000E+00 0.  1.
<mgrwt>
<rscale>  0 0.16464292E+04</rscale>
<asrwt>0</asrwt>
<pdfrwt beam="1">  1        2 0.23278155E+00 0.16464292E+04</pdfrwt>
<pdfrwt beam="2">  1       -2 0.68905019E-01 0.16464292E+04</pdfrwt>
<totfact> 0.22941294E+01</totfact>
</mgrwt>
</event>
<event>
12    1  0.1519630E-007  0.1664294E+04  0.7818608E-02  0.8781995E-01
          2   -1    0    0  501    0  0.00000000000E+00  0.00000000000E+00  0.73865716222E+03  0.73865716222E+03  0.00000000000E+00 0. -1.
         -2   -1    0    0    0  501 -0.00000000000E+00 -0.00000000000E+00 -0.93746974263E+03  0.93746974263E+03  0.00000000000E+00 0.  1.
         23    2    1    2    0    0 -0.58491619878E+03  0.69509183951E+01 -0.89269244439E+02  0.59976785908E+03  0.97863230732E+02 0.  0.
        254    2    1    2    0    0  0.58491619878E+03 -0.69509183951E+01 -0.10954333597E+03  0.10763590458E+04  0.89686887453E+03 0.  0.
        -24    2    4    4    0    0  0.37517325934E+03  0.29268779723E+03 -0.37974718252E+03  0.61468106438E+03  0.84875008726E+02 0.  0.
         24    2    4    4    0    0  0.20974293943E+03 -0.29963871562E+03  0.27020384655E+03  0.46167798139E+03  0.79755747547E+02 0.  0.
         13    1    3    3    0    0 -0.48769038076E+03  0.40499224116E+02 -0.85975406116E+02  0.49686403080E+03  0.00000000000E+00 0.  1.
        -13    1    3    3    0    0 -0.97225818012E+02 -0.33548305721E+02 -0.32938383225E+01  0.10290382829E+03  0.00000000000E+00 0. -1.
          2    1    6    6  502    0 -0.23763620600E+01  0.11027575931E+01 -0.25072855403E+01  0.36262448525E+01  0.00000000000E+00 0. -1.
          1    1    5    5  503    0  0.52855430952E+02  0.57171528879E+02 -0.10221054766E+03  0.12848842885E+03  0.00000000000E+00 0. -1.
         -4    1    5    5    0  503  0.32231782839E+03  0.23551626835E+03 -0.27753663486E+03  0.48619263553E+03  0.00000000000E+00 0.  1.
         -1    1    6    6    0  502  0.21211930149E+03 -0.30074147322E+03  0.27271113209E+03  0.45805173654E+03  0.00000000000E+00 0.  1.
<mgrwt>
<rscale>  0 0.16642941E+04</rscale>
<asrwt>0</asrwt>
<pdfrwt beam="1">  1        2 0.11363956E+00 0.16642941E+04</pdfrwt>
<pdfrwt beam="2">  1       -2 0.14422611E+00 0.16642941E+04</pdfrwt>
<totfact> 0.12122911E+01</totfact>
</mgrwt>
</event>
<event>
12    1  0.1519630E-007  0.2416666E+04  0.7818608E-02  0.8433290E-01
         -2   -1    0    0    0  501 -0.00000000000E+00  0.00000000000E+00  0.11867091926E+04  0.11867091926E+04  0.00000000000E+00 0. -1.
          2   -1    0    0  501    0  0.00000000000E+00 -0.00000000000E+00 -0.12303504834E+04  0.12303504834E+04  0.00000000000E+00 0.  1.
         23    2    1    2    0    0  0.32085051382E+03 -0.94685591082E+03  0.26269566936E+03  0.10380211377E+04  0.94856204782E+02 0.  0.
        254    2    1    2    0    0 -0.32085051382E+03  0.94685591082E+03 -0.30633696016E+03  0.13790385383E+04  0.89912390076E+03 0.  0.
        -24    2    4    4    0    0 -0.23322613883E+03 -0.10591297644E+03  0.24140304055E+02  0.26926889110E+03  0.79441746089E+02 0.  0.
         24    2    4    4    0    0 -0.87624374998E+02  0.10527688873E+04 -0.33047726422E+03  0.11097696472E+04  0.79831614284E+02 0.  0.
         11    1    3    3    0    0  0.37829960862E+02 -0.44096394165E+02  0.12880774582E+02  0.59510606374E+02  0.00000000000E+00 0.  1.
        -11    1    3    3    0    0  0.28302055296E+03 -0.90275951666E+03  0.24981489478E+03  0.97851053135E+03  0.00000000000E+00 0. -1.
          4    1    6    6  502    0 -0.91128342082E+01  0.15744514612E+02 -0.13135767824E+02  0.22438401993E+02  0.00000000000E+00 0. -1.
          3    1    5    5  503    0 -0.37851777842E+02 -0.53754837885E+02  0.10662235552E+02  0.66603475501E+02  0.00000000000E+00 0. -1.
         -4    1    5    5    0  503 -0.19537436098E+03 -0.52158138559E+02  0.13478068503E+02  0.20266541560E+03  0.00000000000E+00 0.  1.
         -3    1    6    6    0  502 -0.78511540790E+02  0.10370243727E+04 -0.31734149639E+03  0.10873312452E+04  0.00000000000E+00 0.  1.
<mgrwt>
<rscale>  0 0.24166657E+04</rscale>
<asrwt>0</asrwt>
<pdfrwt beam="1">  1        2 0.18928469E+00 0.24166657E+04</pdfrwt>
<pdfrwt beam="2">  1       -2 0.18257064E+00 0.24166657E+04</pdfrwt>
<totfact> 0.28402108E+00</totfact>
</mgrwt>
</event>
<event>
12    1  0.1519630E-007  0.4174969E+04  0.7818608E-02  0.7970151E-01
         -2   -1    0    0    0  501 -0.00000000000E+00  0.00000000000E+00  0.16187929197E+04  0.16187929197E+04  0.00000000000E+00 0.  1.
          2   -1    0    0  501    0  0.00000000000E+00 -0.00000000000E+00 -0.26918765426E+04  0.26918765426E+04  0.00000000000E+00 0. -1.
         23    2    1    2    0    0  0.78983996855E+02  0.10235196292E+04 -0.22554175855E+04  0.24796869783E+04  0.90045114379E+02 0.  0.
        254    2    1    2    0    0 -0.78983996855E+02 -0.10235196292E+04  0.11823339625E+04  0.18309824839E+04  0.94907974083E+03 0.  0.
        -24    2    4    4    0    0  0.58553284468E+02 -0.19706403067E+03  0.92554980677E+03  0.95143775308E+03  0.79552711257E+02 0.  0.
         24    2    4    4    0    0 -0.13753728132E+03 -0.82645559852E+03  0.25678415574E+03  0.87954473085E+03  0.75600733097E+02 0.  0.
         11    1    3    3    0    0  0.16196880876E+02  0.73637711025E+03 -0.16194108682E+04  0.17790461341E+04  0.00000000000E+00 0. -1.
        -11    1    3    3    0    0  0.62787115979E+02  0.28714251894E+03 -0.63600671729E+03  0.70064084420E+03  0.00000000000E+00 0.  1.
          4    1    6    6  502    0 -0.12556028946E+03 -0.59066511343E+03  0.20614798428E+03  0.63808122832E+03  0.00000000000E+00 0. -1.
          1    1    5    5  503    0  0.54362501817E+02 -0.20383945389E+03  0.86441215976E+03  0.88978322445E+03  0.00000000000E+00 0. -1.
         -4    1    5    5    0  503  0.41907826509E+01  0.67754232209E+01  0.61137647013E+02  0.61654528636E+02  0.00000000000E+00 0.  1.
         -3    1    6    6    0  502 -0.11976991866E+02 -0.23579048509E+03  0.50636171463E+02  0.24146350253E+03  0.00000000000E+00 0.  1.
<mgrwt>
<rscale>  0 0.41749686E+04</rscale>
<asrwt>0</asrwt>
<pdfrwt beam="1">  1        2 0.41413485E+00 0.41749686E+04</pdfrwt>
<pdfrwt beam="2">  1       -2 0.24904507E+00 0.41749686E+04</pdfrwt>
<totfact> 0.13603519E-01</totfact>
</mgrwt>
</event>
<event>
12    1  0.1519630E-007  0.1533212E+04  0.7818608E-02  0.8862663E-01
         -2   -1    0    0    0  501 -0.00000000000E+00  0.00000000000E+00  0.22613286377E+03  0.22613286377E+03  0.00000000000E+00 0.  1.
          2   -1    0    0  501    0  0.00000000000E+00 -0.00000000000E+00 -0.25988484073E+04  0.25988484073E+04  0.00000000000E+00 0. -1.
         23    2    1    2    0    0 -0.10819203819E+02 -0.47165914064E+03 -0.10655536835E+04  0.11700308293E+04  0.10482408541E+03 0.  0.
        254    2    1    2    0    0  0.10819203819E+02  0.47165914064E+03 -0.13071618600E+04  0.16549504418E+04  0.89867092777E+03 0.  0.
        -24    2    4    4    0    0 -0.10924130829E+03  0.70981434726E+03 -0.81373771071E+03  0.10883712096E+04  0.81318859783E+02 0.  0.
         24    2    4    4    0    0  0.12006051211E+03 -0.23815520662E+03 -0.49342414932E+03  0.56657923225E+03  0.80076252894E+02 0.  0.
         11    1    3    3    0    0 -0.15894976543E+02 -0.20608078893E+03 -0.34627802591E+03  0.40327461248E+03  0.00000000000E+00 0. -1.
        -11    1    3    3    0    0  0.50757727241E+01 -0.26557835171E+03 -0.71927565760E+03  0.76675621679E+03  0.00000000000E+00 0.  1.
          4    1    6    6  502    0  0.74030413210E+02 -0.15098519647E+03 -0.22697351207E+03  0.28247832982E+03  0.00000000000E+00 0. -1.
          1    1    5    5  503    0 -0.72382509664E+02  0.41213401341E+03 -0.53207703542E+03  0.67690445732E+03  0.00000000000E+00 0. -1.
         -4    1    5    5    0  503 -0.36858798624E+02  0.29768033385E+03 -0.28166067529E+03  0.41146675224E+03  0.00000000000E+00 0.  1.
         -3    1    6    6    0  502  0.46030098897E+02 -0.87170010149E+02 -0.26645063725E+03  0.28410090244E+03  0.00000000000E+00 0.  1.
<mgrwt>
<rscale>  0 0.15332124E+04</rscale>
<asrwt>0</asrwt>
<pdfrwt beam="1">  1        2 0.39982283E+00 0.15332124E+04</pdfrwt>
<pdfrwt beam="2">  1       -2 0.34789671E-01 0.15332124E+04</pdfrwt>
<totfact> 0.22839304E+01</totfact>
</mgrwt>
</event>
<event>
12    1  0.1519630E-007  0.2673769E+04  0.7818608E-02  0.8343567E-01
         -1   -1    0    0    0  501 -0.00000000000E+00  0.00000000000E+00  0.11651669737E+04  0.11651669737E+04  0.00000000000E+00 0.  1.
          1   -1    0    0  501    0  0.00000000000E+00 -0.00000000000E+00 -0.15339085667E+04  0.15339085667E+04  0.00000000000E+00 0. -1.
         23    2    1    2    0    0  0.11366163937E+04 -0.19132108021E+03 -0.45145849540E+03  0.12406300343E+04  0.82749783190E+02 0.  0.
        254    2    1    2    0    0 -0.11366163937E+04  0.19132108021E+03  0.82716902417E+02  0.14584455061E+04  0.88978684307E+03 0.  0.
        -24    2    4    4    0    0 -0.61088883071E+03  0.36963887204E+03 -0.30096537558E+03  0.77909491803E+03  0.81182971048E+02 0.  0.
         24    2    4    4    0    0 -0.52572756302E+03 -0.17831779184E+03  0.38368227800E+03  0.67935058807E+03  0.78220366026E+02 0.  0.
         13    1    3    3    0    0  0.47682282282E+03 -0.11485417265E+03 -0.21604541383E+03  0.53593572951E+03  0.00000000000E+00 0. -1.
        -13    1    3    3    0    0  0.65979357091E+03 -0.76466907561E+02 -0.23541308157E+03  0.70469430475E+03  0.00000000000E+00 0.  1.
          2    1    6    6  502    0 -0.59804636419E+02  0.42979342874E+01  0.35059284106E+02  0.69456606441E+02  0.00000000000E+00 0. -1.
          1    1    5    5  503    0 -0.27158176616E+03  0.20936967627E+03 -0.13002896559E+03  0.36674221048E+03  0.00000000000E+00 0. -1.
         -2    1    5    5    0  503 -0.33930706454E+03  0.16026919578E+03 -0.17093640999E+03  0.41235270755E+03  0.00000000000E+00 0.  1.
         -1    1    6    6    0  502 -0.46592292660E+03 -0.18261572613E+03  0.34862299389E+03  0.60989398163E+03  0.00000000000E+00 0.  1.
<mgrwt>
<rscale>  0 0.26737686E+04</rscale>
<asrwt>0</asrwt>
<pdfrwt beam="1">  1        1 0.23598593E+00 0.26737686E+04</pdfrwt>
<pdfrwt beam="2">  1       -1 0.17925646E+00 0.26737686E+04</pdfrwt>
<totfact> 0.11427178E+00</totfact>
</mgrwt>
</event>
<event>
12    1  0.1519630E-007  0.3573033E+04  0.7818608E-02  0.8096697E-01
          1   -1    0    0  501    0  0.00000000000E+00  0.00000000000E+00  0.16578584298E+04  0.16578584298E+04  0.00000000000E+00 0. -1.
         -1   -1    0    0    0  501 -0.00000000000E+00 -0.00000000000E+00 -0.19251585504E+04  0.19251585504E+04  0.00000000000E+00 0.  1.
         23    2    1    2    0    0 -0.85358193629E+01 -0.13096859679E+04 -0.11531978792E+04  0.17475859325E+04  0.94026847720E+02 0.  0.
        254    2    1    2    0    0  0.85358193629E+01  0.13096859679E+04  0.88589775853E+03  0.18354310477E+04  0.93200970895E+03 0.  0.
        -24    2    4    4    0    0  0.24076381590E+02  0.77146823682E+03  0.10130275762E+04  0.12761188195E+04  0.80693611132E+02 0.  0.
         24    2    4    4    0    0 -0.15540562227E+02  0.53821773110E+03 -0.12712981768E+03  0.55931222816E+03  0.82148298152E+02 0.  0.
         11    1    3    3    0    0 -0.19615741537E+02 -0.11624286081E+04 -0.10576085483E+04  0.15716745489E+04  0.00000000000E+00 0.  1.
        -11    1    3    3    0    0  0.11079922174E+02 -0.14725735981E+03 -0.95589330933E+02  0.17591138360E+03  0.00000000000E+00 0. -1.
          2    1    6    6  502    0 -0.29024248461E+02  0.64740624891E+02 -0.13907034371E+02  0.72299108674E+02  0.00000000000E+00 0. -1.
          3    1    5    5  503    0 -0.16881647363E+02  0.56048557333E+03  0.71402013801E+03  0.90788425772E+03  0.00000000000E+00 0. -1.
         -4    1    5    5    0  503  0.40958028953E+02  0.21098266348E+03  0.29900743820E+03  0.36823456183E+03  0.00000000000E+00 0.  1.
         -1    1    6    6    0  502  0.13483686234E+02  0.47347710621E+03 -0.11322278331E+03  0.48701311949E+03  0.00000000000E+00 0.  1.
<mgrwt>
<rscale>  0 0.35730325E+04</rscale>
<asrwt>0</asrwt>
<pdfrwt beam="1">  1        1 0.25505515E+00 0.35730325E+04</pdfrwt>
<pdfrwt beam="2">  1       -1 0.29617823E+00 0.35730325E+04</pdfrwt>
<totfact> 0.14437593E-01</totfact>
</mgrwt>
</event>
<event>
12    1  0.1519630E-007  0.2695219E+04  0.7818608E-02  0.8336558E-01
         -2   -1    0    0    0  501 -0.00000000000E+00  0.00000000000E+00  0.14261236565E+04  0.14261236565E+04  0.00000000000E+00 0.  1.
          2   -1    0    0  501    0  0.00000000000E+00 -0.00000000000E+00 -0.12734181894E+04  0.12734181894E+04  0.00000000000E+00 0. -1.
         23    2    1    2    0    0 -0.72976849537E+03  0.12932535878E+03  0.10061766571E+04  0.12529790239E+04  0.90982766753E+02 0.  0.
        254    2    1    2    0    0  0.72976849537E+03 -0.12932535878E+03 -0.85347118998E+03  0.14465628219E+04  0.90268700021E+03 0.  0.
        -24    2    4    4    0    0  0.82192890869E+03  0.13948664750E+03 -0.46598582740E+03  0.95836599141E+03  0.79365775887E+02 0.  0.
         24    2    4    4    0    0 -0.92160413321E+02 -0.26881200628E+03 -0.38748536258E+03  0.48819683050E+03  0.86242695873E+02 0.  0.
         13    1    3    3    0    0 -0.50062948816E+03  0.10688941298E+03  0.62772450233E+03  0.80999585298E+03  0.00000000000E+00 0.  1.
        -13    1    3    3    0    0 -0.22913900721E+03  0.22435945804E+02  0.37845215477E+03  0.44298317094E+03  0.00000000000E+00 0. -1.
          2    1    6    6  502    0 -0.44251809282E+02 -0.21422245181E+03 -0.32832411153E+03  0.39452021963E+03  0.00000000000E+00 0. -1.
          1    1    5    5  503    0  0.68678628249E+03  0.13696615944E+03 -0.36559481603E+03  0.78999664313E+03  0.00000000000E+00 0. -1.
         -2    1    5    5    0  503  0.13514262620E+03  0.25204880588E+01 -0.10039101137E+03  0.16836934828E+03  0.00000000000E+00 0.  1.
         -1    1    6    6    0  502 -0.47908604040E+02 -0.54589554472E+02 -0.59161251052E+02  0.93676610872E+02  0.00000000000E+00 0.  1.
<mgrwt>
<rscale>  0 0.26952193E+04</rscale>
<asrwt>0</asrwt>
<pdfrwt beam="1">  1        2 0.19591049E+00 0.26952193E+04</pdfrwt>
<pdfrwt beam="2">  1       -2 0.21940364E+00 0.26952193E+04</pdfrwt>
<totfact> 0.14993173E+00</totfact>
</mgrwt>
</event>
<event>
12    1  0.1519630E-007  0.1368368E+04  0.7818608E-02  0.8977039E-01
          1   -1    0    0  501    0  0.00000000000E+00  0.00000000000E+00  0.75094852972E+03  0.75094852972E+03  0.00000000000E+00 0. -1.
         -1   -1    0    0    0  501 -0.00000000000E+00 -0.00000000000E+00 -0.62335539178E+03  0.62335539178E+03  0.00000000000E+00 0.  1.
         23    2    1    2    0    0  0.14483774371E+03  0.48687651978E+02 -0.32616328955E+03  0.37171824721E+03  0.91888543364E+02 0.  0.
        254    2    1    2    0    0 -0.14483774371E+03 -0.48687651978E+02  0.45375642749E+03  0.10025856743E+04  0.88087154532E+03 0.  0.
        -24    2    4    4    0    0  0.16339714719E+03  0.12687944484E+03 -0.17199770051E+03  0.27887196669E+03  0.73412148799E+02 0.  0.
         24    2    4    4    0    0 -0.30823489090E+03 -0.17556709682E+03  0.62575412800E+03  0.72371370760E+03  0.79754300274E+02 0.  0.
         11    1    3    3    0    0  0.92865265075E+02 -0.15766013515E+02 -0.19588386123E+03  0.21735457605E+03  0.00000000000E+00 0.  1.
        -11    1    3    3    0    0  0.51972478633E+02  0.64453665493E+02 -0.13027942832E+03  0.15436367116E+03  0.00000000000E+00 0. -1.
          2    1    6    6  502    0 -0.23033984443E+03 -0.89612910414E+02  0.44196905577E+03  0.50638282347E+03  0.00000000000E+00 0. -1.
          1    1    5    5  503    0  0.16304666902E+03  0.11832812864E+03 -0.17766376555E+03  0.26860784779E+03  0.00000000000E+00 0. -1.
         -2    1    5    5    0  503  0.35047816404E+00  0.85513161992E+01  0.56660650370E+01  0.10264118895E+02  0.00000000000E+00 0.  1.
         -1    1    6    6    0  502 -0.77895046470E+02 -0.85954186406E+02  0.18378507223E+03  0.21733088413E+03  0.00000000000E+00 0.  1.
<mgrwt>
<rscale>  0 0.13683681E+04</rscale>
<asrwt>0</asrwt>
<pdfrwt beam="1">  1        1 0.11553054E+00 0.13683681E+04</pdfrwt>
<pdfrwt beam="2">  1       -1 0.95900829E-01 0.13683681E+04</pdfrwt>
<totfact> 0.25056706E+01</totfact>
</mgrwt>
</event>
<event>
12    1  0.1519630E-007  0.1059216E+04  0.7818608E-02  0.9245881E-01
          2   -1    0    0  501    0  0.00000000000E+00  0.00000000000E+00  0.41608315189E+03  0.41608315189E+03  0.00000000000E+00 0. -1.
         -2   -1    0    0    0  501 -0.00000000000E+00 -0.00000000000E+00 -0.67410654804E+03  0.67410654804E+03  0.00000000000E+00 0.  1.
         23    2    1    2    0    0  0.11797579206E+03  0.51466848242E+02 -0.17985351741E+00  0.16013310670E+03  0.95265185320E+02 0.  0.
        254    2    1    2    0    0 -0.11797579206E+03 -0.51466848242E+02 -0.25784354263E+03  0.93005659323E+03  0.88428211005E+03 0.  0.
        -24    2    4    4    0    0  0.11441969850E+03  0.30141393364E+03 -0.35786060833E+03  0.48818145565E+03  0.79465035411E+02 0.  0.
         24    2    4    4    0    0 -0.23239549056E+03 -0.35288078189E+03  0.10001706569E+03  0.44187513758E+03  0.81961658868E+02 0.  0.
         13    1    3    3    0    0  0.31381612616E+02  0.13366490244E+02 -0.44164257408E+02  0.55802780435E+02  0.00000000000E+00 0.  1.
        -13    1    3    3    0    0  0.86594179442E+02  0.38100357998E+02  0.43984403891E+02  0.10433032626E+03  0.00000000000E+00 0. -1.
          2    1    6    6  502    0 -0.18106333409E+03 -0.22901701057E+03  0.38911228941E+02  0.29452810701E+03  0.00000000000E+00 0. -1.
          1    1    5    5  503    0  0.25346720367E+02  0.31097055838E+02 -0.15602130031E+02  0.43045436188E+02  0.00000000000E+00 0. -1.
         -2    1    5    5    0  503  0.89072978135E+02  0.27031687781E+03 -0.34225847830E+03  0.44513601947E+03  0.00000000000E+00 0.  1.
         -1    1    6    6    0  502 -0.51332156474E+02 -0.12386377132E+03  0.61105836750E+02  0.14734703057E+03  0.00000000000E+00 0.  1.
<mgrwt>
<rscale>  0 0.10592155E+04</rscale>
<asrwt>0</asrwt>
<pdfrwt beam="1">  1        2 0.64012793E-01 0.10592155E+04</pdfrwt>
<pdfrwt beam="2">  1       -2 0.10370870E+00 0.10592155E+04</pdfrwt>
<totfact> 0.57317841E+01</totfact>
</mgrwt>
</event>
<event>
12    1  0.1519630E-007  0.2723554E+04  0.7818608E-02  0.8327403E-01
          1   -1    0    0  501    0  0.00000000000E+00  0.00000000000E+00  0.32877896810E+04  0.32877896810E+04  0.00000000000E+00 0. -1.
         -1   -1    0    0    0  501 -0.00000000000E+00 -0.00000000000E+00 -0.56403742818E+03  0.56403742818E+03  0.00000000000E+00 0.  1.
         23    2    1    2    0    0  0.72877583666E+03 -0.92676389867E+03  0.15870037458E+04  0.19790636663E+04  0.90036448729E+02 0.  0.
        254    2    1    2    0    0 -0.72877583666E+03  0.92676389867E+03  0.11367485071E+04  0.18727634430E+04  0.90831723584E+03 0.  0.
        -24    2    4    4    0    0 -0.78885518609E+03  0.29760231785E+03  0.57576643165E+03  0.10238977354E+04  0.77459309230E+02 0.  0.
         24    2    4    4    0    0  0.60079349435E+02  0.62916158082E+03  0.56098207546E+03  0.84886570754E+03  0.80114152567E+02 0.  0.
         11    1    3    3    0    0  0.55328596325E+03 -0.68459098983E+03  0.11198731488E+04  0.14243967319E+04  0.00000000000E+00 0. -1.
        -11    1    3    3    0    0  0.17548987340E+03 -0.24217290885E+03  0.46713059697E+03  0.55466693436E+03  0.00000000000E+00 0.  1.
          4    1    6    6  502    0 -0.76067981149E+01  0.10487702055E+03  0.62808691179E+02  0.12248258858E+03  0.00000000000E+00 0. -1.
          3    1    5    5  503    0 -0.17204521090E+03  0.31463678833E+02  0.11882579583E+03  0.21144523507E+03  0.00000000000E+00 0. -1.
         -4    1    5    5    0  503 -0.61680997519E+03  0.26613863902E+03  0.45694063582E+03  0.81245250036E+03  0.00000000000E+00 0.  1.
         -3    1    6    6    0  502  0.67686147550E+02  0.52428456027E+03  0.49817338428E+03  0.72638311896E+03  0.00000000000E+00 0.  1.
<mgrwt>
<rscale>  0 0.27235539E+04</rscale>
<asrwt>0</asrwt>
<pdfrwt beam="1">  1        1 0.50581379E+00 0.27235539E+04</pdfrwt>
<pdfrwt beam="2">  1       -1 0.86774991E-01 0.27235539E+04</pdfrwt>
<totfact> 0.41598468E-01</totfact>
</mgrwt>
</event>
<event>
12    1  0.1519630E-007  0.1806262E+04  0.7818608E-02  0.8702976E-01
          2   -1    0    0  501    0  0.00000000000E+00  0.00000000000E+00  0.99092508995E+03  0.99092508995E+03  0.00000000000E+00 0. -1.
         -2   -1    0    0    0  501 -0.00000000000E+00 -0.00000000000E+00 -0.82311552090E+03  0.82311552090E+03  0.00000000000E+00 0.  1.
         23    2    1    2    0    0  0.30371242344E+03 -0.38915400321E+03 -0.37467504432E+03  0.62618147100E+03  0.89664772397E+02 0.  0.
        254    2    1    2    0    0 -0.30371242344E+03  0.38915400321E+03  0.54248461337E+03  0.11878591399E+04  0.93436486772E+03 0.  0.
        -24    2    4    4    0    0  0.33135183557E+03  0.15721656232E+03  0.17443114473E+03  0.41390076470E+03  0.79853192592E+02 0.  0.
         24    2    4    4    0    0 -0.63506425901E+03  0.23193744089E+03  0.36805346864E+03  0.77395837516E+03  0.80290853390E+02 0.  0.
         13    1    3    3    0    0  0.18167757419E+03 -0.29829427653E+03 -0.25079229352E+03  0.42998022148E+03  0.00000000000E+00 0.  1.
        -13    1    3    3    0    0  0.12203484926E+03 -0.90859726685E+02 -0.12388275080E+03  0.19620124952E+03  0.00000000000E+00 0. -1.
          2    1    6    6  502    0 -0.35507188616E+03  0.16351691288E+03  0.23871837354E+03  0.45803961293E+03  0.00000000000E+00 0. -1.
          1    1    5    5  503    0  0.60496252135E+02  0.55903344056E+02  0.64144857455E+02  0.10440087709E+03  0.00000000000E+00 0. -1.
         -2    1    5    5    0  503  0.27085558343E+03  0.10131321827E+03  0.11028628728E+03  0.30949988762E+03  0.00000000000E+00 0.  1.
         -1    1    6    6    0  502 -0.27999237285E+03  0.68420528004E+02  0.12933509509E+03  0.31591876223E+03  0.00000000000E+00 0.  1.
<mgrwt>
<rscale>  0 0.18062622E+04</rscale>
<asrwt>0</asrwt>
<pdfrwt beam="1">  1        2 0.15245002E+00 0.18062622E+04</pdfrwt>
<pdfrwt beam="2">  1       -2 0.12663316E+00 0.18062622E+04</pdfrwt>
<totfact> 0.11179929E+01</totfact>
</mgrwt>
</event>
<event>
12    1  0.1519630E-007  0.1324582E+04  0.7818608E-02  0.9010295E-01
          2   -1    0    0  501    0  0.00000000000E+00  0.00000000000E+00  0.74491960258E+03  0.74491960258E+03  0.00000000000E+00 0. -1.
         -2   -1    0    0    0  501 -0.00000000000E+00 -0.00000000000E+00 -0.58882818135E+03  0.58882818135E+03  0.00000000000E+00 0.  1.
         23    2    1    2    0    0  0.15878232796E+03 -0.36358982202E+02  0.35988366751E+03  0.40549954388E+03  0.91541371431E+02 0.  0.
        254    2    1    2    0    0 -0.15878232796E+03  0.36358982202E+02 -0.20379224628E+03  0.92824824006E+03  0.89083091116E+03 0.  0.
        -24    2    4    4    0    0 -0.47731449731E+03 -0.16506341685E+03 -0.18020238697E+03  0.54219061447E+03  0.80141757058E+02 0.  0.
         24    2    4    4    0    0  0.31853216935E+03  0.20142239906E+03 -0.23589859306E+02  0.38605762559E+03  0.80313654269E+02 0.  0.
         13    1    3    3    0    0  0.11279788983E+03 -0.27600815304E+02  0.33031204507E+03  0.35013028443E+03  0.00000000000E+00 0. -1.
        -13    1    3    3    0    0  0.45984438136E+02 -0.87581668979E+01  0.29571622438E+02  0.55369259447E+02  0.00000000000E+00 0.  1.
          4    1    6    6  502    0  0.17695928533E+03  0.10757854536E+03  0.26966025328E+02  0.20884180283E+03  0.00000000000E+00 0. -1.
          1    1    5    5  503    0 -0.18770075732E+03 -0.28373046657E+02 -0.85750797065E+02  0.20830219219E+03  0.00000000000E+00 0. -1.
         -2    1    5    5    0  503 -0.28961373999E+03 -0.13669037020E+03 -0.94451589908E+02  0.33388842228E+03  0.00000000000E+00 0.  1.
         -3    1    6    6    0  502  0.14157288402E+03  0.93843853699E+02 -0.50555884634E+02  0.17721582276E+03  0.00000000000E+00 0.  1.
<mgrwt>
<rscale>  0 0.13245824E+04</rscale>
<asrwt>0</asrwt>
<pdfrwt beam="1">  1        2 0.11460302E+00 0.13245824E+04</pdfrwt>
<pdfrwt beam="2">  1       -2 0.90588951E-01 0.13245824E+04</pdfrwt>
<totfact> 0.38551016E+01</totfact>
</mgrwt>
</event>
<event>
12    1  0.1519630E-007  0.2771671E+04  0.7818608E-02  0.8312118E-01
          1   -1    0    0  501    0  0.00000000000E+00  0.00000000000E+00  0.39737093226E+04  0.39737093226E+04  0.00000000000E+00 0. -1.
         -1   -1    0    0    0  501 -0.00000000000E+00 -0.00000000000E+00 -0.48331169651E+03  0.48331169651E+03  0.00000000000E+00 0.  1.
         23    2    1    2    0    0  0.43832189518E+03  0.11542454497E+04  0.16911600911E+04  0.20958689153E+04  0.90749184430E+02 0.  0.
        254    2    1    2    0    0 -0.43832189518E+03 -0.11542454497E+04  0.17992375350E+04  0.23611521038E+04  0.90187299999E+03 0.  0.
        -24    2    4    4    0    0 -0.32959536188E+02  0.41925143584E+02 -0.58776751769E+02  0.11295248367E+03  0.80371066481E+02 0.  0.
         24    2    4    4    0    0 -0.40536235899E+03 -0.11961705933E+04  0.18580142868E+04  0.22481996202E+04  0.83914908844E+02 0.  0.
         13    1    3    3    0    0  0.20897344333E+03  0.65396487992E+03  0.89439599884E+03  0.11275123799E+04  0.00000000000E+00 0. -1.
        -13    1    3    3    0    0  0.22934845185E+03  0.50028056977E+03  0.79676409226E+03  0.96835653536E+03  0.00000000000E+00 0.  1.
          4    1    6    6  502    0 -0.48756298608E+01 -0.38837052138E+02  0.38310703033E+02  0.54770414935E+02  0.00000000000E+00 0. -1.
          1    1    5    5  503    0 -0.34716155934E+02  0.49449928097E+02 -0.72537782404E+01  0.60853300407E+02  0.00000000000E+00 0. -1.
         -2    1    5    5    0  503  0.17566197464E+01 -0.75247845132E+01 -0.51522973529E+02  0.52099183258E+02  0.00000000000E+00 0.  1.
         -3    1    6    6    0  502 -0.40048672913E+03 -0.11573335411E+04  0.18197035838E+04  0.21934292052E+04  0.00000000000E+00 0.  1.
<mgrwt>
<rscale>  0 0.27716711E+04</rscale>
<asrwt>0</asrwt>
<pdfrwt beam="1">  1        1 0.61133987E+00 0.27716711E+04</pdfrwt>
<pdfrwt beam="2">  1       -1 0.74355649E-01 0.27716711E+04</pdfrwt>
<totfact> 0.15993902E-01</totfact>
</mgrwt>
</event>
<event>
12    1  0.1519630E-007  0.1538631E+04  0.7818608E-02  0.8859162E-01
          2   -1    0    0  501    0  0.00000000000E+00  0.00000000000E+00  0.14186246551E+04  0.14186246551E+04  0.00000000000E+00 0. -1.
         -2   -1    0    0    0  501 -0.00000000000E+00 -0.00000000000E+00 -0.41719743918E+03  0.41719743918E+03  0.00000000000E+00 0.  1.
         23    2    1    2    0    0  0.20270895859E+03 -0.10756236564E+02 -0.21164805821E+03  0.31008015149E+03  0.10073818185E+03 0.  0.
        254    2    1    2    0    0 -0.20270895859E+03  0.10756236564E+02  0.12130752742E+04  0.15257419428E+04  0.90284563286E+03 0.  0.
        -24    2    4    4    0    0  0.11339304349E+03 -0.28449363361E+03  0.10537990597E+03  0.33392894216E+03  0.81295780629E+02 0.  0.
         24    2    4    4    0    0 -0.31610200208E+03  0.29524987018E+03  0.11076953682E+04  0.11918130007E+04  0.79600491587E+02 0.  0.
         13    1    3    3    0    0  0.11407007596E+02  0.12411910813E+02  0.73346546660E+01  0.18384028704E+02  0.00000000000E+00 0. -1.
        -13    1    3    3    0    0  0.19130195100E+03 -0.23168147377E+02 -0.21898271288E+03  0.29169612278E+03  0.00000000000E+00 0.  1.
          4    1    6    6  502    0 -0.12867571862E+03  0.69003789541E+02  0.36797700704E+03  0.39588639941E+03  0.00000000000E+00 0. -1.
          1    1    5    5  503    0  0.11003896554E+03 -0.17460639335E+03  0.59428471671E+02  0.21477362450E+03  0.00000000000E+00 0. -1.
         -2    1    5    5    0  503  0.33540779537E+01 -0.10988724027E+03  0.45951434295E+02  0.11915531766E+03  0.00000000000E+00 0.  1.
         -3    1    6    6    0  502 -0.18742628346E+03  0.22624608064E+03  0.73971836118E+03  0.79592660127E+03  0.00000000000E+00 0.  1.
<mgrwt>
<rscale>  0 0.15386313E+04</rscale>
<asrwt>0</asrwt>
<pdfrwt beam="1">  1        2 0.21824994E+00 0.15386313E+04</pdfrwt>
<pdfrwt beam="2">  1       -2 0.64184222E-01 0.15386313E+04</pdfrwt>
<totfact> 0.30512350E+01</totfact>
</mgrwt>
</event>
<event>
12    1  0.1519630E-007  0.1453152E+04  0.7818608E-02  0.8916218E-01
          2   -1    0    0  501    0  0.00000000000E+00  0.00000000000E+00  0.16824681247E+04  0.16824681247E+04  0.00000000000E+00 0. -1.
         -2   -1    0    0    0  501 -0.00000000000E+00 -0.00000000000E+00 -0.31377283687E+03  0.31377283687E+03  0.00000000000E+00 0.  1.
         23    2    1    2    0    0  0.39874727657E+03 -0.13313436464E+03  0.60490504939E+03  0.74347133428E+03  0.10057512867E+03 0.  0.
        254    2    1    2    0    0 -0.39874727657E+03  0.13313436464E+03  0.76379023842E+03  0.12527696273E+04  0.89962884630E+03 0.  0.
        -24    2    4    4    0    0  0.17690108343E+02  0.57039317810E+02  0.81248308835E+03  0.81858921047E+03  0.79956881782E+02 0.  0.
         24    2    4    4    0    0 -0.41643738491E+03  0.76095046830E+02 -0.48692849923E+02  0.43418041680E+03  0.83253162095E+02 0.  0.
         11    1    3    3    0    0  0.30745289115E+01  0.83867374543E+01  0.30392362683E+02  0.31677844034E+02  0.00000000000E+00 0.  1.
        -11    1    3    3    0    0  0.39567274766E+03 -0.14152110209E+03  0.57451268670E+03  0.71179349025E+03  0.00000000000E+00 0. -1.
          4    1    6    6  502    0 -0.11594879451E+03  0.52972750809E+02  0.71364878820E+01  0.12767601473E+03  0.00000000000E+00 0. -1.
          1    1    5    5  503    0  0.67523424882E+01  0.71172165697E+02  0.44801691540E+03  0.45368516373E+03  0.00000000000E+00 0. -1.
         -2    1    5    5    0  503  0.10937765855E+02 -0.14132847887E+02  0.36446617295E+03  0.36490404675E+03  0.00000000000E+00 0.  1.
         -3    1    6    6    0  502 -0.30048859040E+03  0.23122296021E+02 -0.55829337805E+02  0.30650440208E+03  0.00000000000E+00 0.  1.
<mgrwt>
<rscale>  0 0.14531522E+04</rscale>
<asrwt>0</asrwt>
<pdfrwt beam="1">  1        2 0.25884125E+00 0.14531522E+04</pdfrwt>
<pdfrwt beam="2">  1       -2 0.48272745E-01 0.14531522E+04</pdfrwt>
<totfact> 0.39525630E+01</totfact>
</mgrwt>
</event>
<event>
12    1  0.1519630E-007  0.1504891E+04  0.7818608E-02  0.8881207E-01
          2   -1    0    0  501    0  0.00000000000E+00  0.00000000000E+00  0.91625831075E+03  0.91625831075E+03  0.00000000000E+00 0. -1.
         -2   -1    0    0    0  501 -0.00000000000E+00 -0.00000000000E+00 -0.61792001026E+03  0.61792001026E+03  0.00000000000E+00 0.  1.
         23    2    1    2    0    0  0.13372107417E+03 -0.27205157681E+03  0.46124707121E+03  0.55976298227E+03  0.93232770519E+02 0.  0.
        254    2    1    2    0    0 -0.13372107417E+03  0.27205157681E+03 -0.16290877072E+03  0.97441533874E+03  0.91162086345E+03 0.  0.
        -24    2    4    4    0    0  0.24236152069E+03  0.45630285097E+03 -0.14871984078E+02  0.52303865863E+03  0.79980397568E+02 0.  0.
         24    2    4    4    0    0 -0.37608259486E+03 -0.18425127416E+03 -0.14803678665E+03  0.45137668012E+03  0.80245666346E+02 0.  0.
         13    1    3    3    0    0  0.11281763505E+02 -0.84104737255E+02  0.75723790078E+02  0.11373204210E+03  0.00000000000E+00 0.  1.
        -13    1    3    3    0    0  0.12243931066E+03 -0.18794683956E+03  0.38552328113E+03  0.44603094017E+03  0.00000000000E+00 0. -1.
          4    1    6    6  502    0 -0.22093747603E+03 -0.10581324474E+03 -0.44331035399E+02  0.24894788968E+03  0.00000000000E+00 0. -1.
          1    1    5    5  503    0  0.18581348219E+03  0.38152054159E+03 -0.39223033258E+02  0.42617252394E+03  0.00000000000E+00 0. -1.
         -2    1    5    5    0  503  0.56548038500E+02  0.74782309378E+02  0.24351049180E+02  0.96866134692E+02  0.00000000000E+00 0.  1.
         -3    1    6    6    0  502 -0.15514511883E+03 -0.78438029416E+02 -0.10370575125E+03  0.20242879043E+03  0.00000000000E+00 0.  1.
<mgrwt>
<rscale>  0 0.15048912E+04</rscale>
<asrwt>0</asrwt>
<pdfrwt beam="1">  1        2 0.14096282E+00 0.15048912E+04</pdfrwt>
<pdfrwt beam="2">  1       -2 0.95064617E-01 0.15048912E+04</pdfrwt>
<totfact> 0.25701513E+01</totfact>
</mgrwt>
</event>
<event>
12    1  0.1519630E-007  0.1459996E+04  0.7818608E-02  0.8911500E-01
         -2   -1    0    0    0  501 -0.00000000000E+00  0.00000000000E+00  0.17710748574E+04  0.17710748574E+04  0.00000000000E+00 0.  1.
          2   -1    0    0  501    0  0.00000000000E+00 -0.00000000000E+00 -0.30088901204E+03  0.30088901204E+03  0.00000000000E+00 0. -1.
         23    2    1    2    0    0  0.91535558751E+02 -0.33417009606E+03  0.90344339553E+03  0.97171137458E+03  0.89244691430E+02 0.  0.
        254    2    1    2    0    0 -0.91535558751E+02  0.33417009606E+03  0.56674244979E+03  0.11002524948E+04  0.87710326435E+03 0.  0.
        -24    2    4    4    0    0 -0.31442480016E+03 -0.17269998545E+03  0.32393713153E+03  0.49051487624E+03  0.83554405640E+02 0.  0.
         24    2    4    4    0    0  0.22288924141E+03  0.50687008151E+03  0.24280531826E+03  0.60973761857E+03  0.78921780673E+02 0.  0.
         13    1    3    3    0    0 -0.16794229348E+02 -0.63347189081E+02  0.18785998328E+03  0.19896302627E+03  0.00000000000E+00 0. -1.
        -13    1    3    3    0    0  0.10832978810E+03 -0.27082290698E+03  0.71558341225E+03  0.77274834831E+03  0.00000000000E+00 0.  1.
          2    1    6    6  502    0  0.75757007786E+02  0.25240663107E+03  0.13949501741E+03  0.29817292217E+03  0.00000000000E+00 0. -1.
          1    1    5    5  503    0 -0.14793346702E+02  0.90144269270E+01  0.21610308635E+02  0.27696722528E+02  0.00000000000E+00 0. -1.
         -2    1    5    5    0  503 -0.29963145346E+03 -0.18171441238E+03  0.30232682290E+03  0.46281815372E+03  0.00000000000E+00 0.  1.
         -1    1    6    6    0  502  0.14713223362E+03  0.25446345044E+03  0.10331030085E+03  0.31156469640E+03  0.00000000000E+00 0.  1.
<mgrwt>
<rscale>  0 0.14599958E+04</rscale>
<asrwt>0</asrwt>
<pdfrwt beam="1">  1        2 0.46290618E-01 0.14599958E+04</pdfrwt>
<pdfrwt beam="2">  1       -2 0.27247305E+00 0.14599958E+04</pdfrwt>
<totfact> 0.49747498E+00</totfact>
</mgrwt>
</event>
<event>
12    1  0.1519630E-007  0.1814395E+04  0.7818608E-02  0.8698682E-01
          1   -1    0    0  501    0  0.00000000000E+00  0.00000000000E+00  0.15961874814E+04  0.15961874814E+04  0.00000000000E+00 0. -1.
         -1   -1    0    0    0  501 -0.00000000000E+00 -0.00000000000E+00 -0.51560798995E+03  0.51560798995E+03  0.00000000000E+00 0.  1.
         23    2    1    2    0    0  0.48565910486E+03  0.31967367293E+03  0.79459128224E+03  0.98885012634E+03  0.91614645348E+02 0.  0.
        254    2    1    2    0    0 -0.48565910486E+03 -0.31967367293E+03  0.28598820925E+03  0.11229453450E+04  0.91714828072E+03 0.  0.
        -24    2    4    4    0    0 -0.55087038934E+03 -0.46091922597E+03 -0.69933645421E+02  0.72628736078E+03  0.81840680185E+02 0.  0.
         24    2    4    4    0    0  0.65211284478E+02  0.14124555305E+03  0.35592185468E+03  0.39665798427E+03  0.80339106131E+02 0.  0.
         13    1    3    3    0    0  0.93335287676E+02  0.27605469855E+02  0.10221464025E+03  0.14114308546E+03  0.00000000000E+00 0.  1.
        -13    1    3    3    0    0  0.39232381719E+03  0.29206820307E+03  0.69237664199E+03  0.84770704088E+03  0.00000000000E+00 0. -1.
          2    1    6    6  502    0  0.45358872532E+02  0.51623283603E+02  0.77923596178E+02  0.10389647525E+03  0.00000000000E+00 0. -1.
          1    1    5    5  503    0 -0.42654437294E+03 -0.35864676554E+03 -0.19655789321E+02  0.55763245473E+03  0.00000000000E+00 0. -1.
         -2    1    5    5    0  503 -0.12432601641E+03 -0.10227246044E+03 -0.50277856100E+02  0.16865490604E+03  0.00000000000E+00 0.  1.
         -1    1    6    6    0  502  0.19852411946E+02  0.89622269442E+02  0.27799825850E+03  0.29276150903E+03  0.00000000000E+00 0.  1.
<mgrwt>
<rscale>  0 0.18143947E+04</rscale>
<asrwt>0</asrwt>
<pdfrwt beam="1">  1        1 0.24556730E+00 0.18143947E+04</pdfrwt>
<pdfrwt beam="2">  1       -1 0.79324307E-01 0.18143947E+04</pdfrwt>
<totfact> 0.84030533E+00</totfact>
</mgrwt>
</event>
<event>
12    1  0.1519630E-007  0.2433984E+04  0.7818608E-02  0.8426889E-01
         -1   -1    0    0    0  501 -0.00000000000E+00  0.00000000000E+00  0.11845340121E+04  0.11845340121E+04  0.00000000000E+00 0.  1.
          1   -1    0    0  501    0  0.00000000000E+00 -0.00000000000E+00 -0.12503389833E+04  0.12503389833E+04  0.00000000000E+00 0. -1.
         23    2    1    2    0    0  0.98631533626E+03  0.34460929128E+03 -0.68525562731E+02  0.10511771608E+04  0.93296111567E+02 0.  0.
        254    2    1    2    0    0 -0.98631533626E+03 -0.34460929128E+03  0.27205915231E+01  0.13836958347E+04  0.90721180278E+03 0.  0.
        -24    2    4    4    0    0 -0.10530358137E+04 -0.79373486680E+02 -0.13549855026E+03  0.10676702604E+04  0.79845805163E+02 0.  0.
         24    2    4    4    0    0  0.66720477393E+02 -0.26523580460E+03  0.13821914178E+03  0.31602557427E+03  0.77239745563E+02 0.  0.
         11    1    3    3    0    0  0.61939750242E+03  0.26007681486E+03 -0.61352435967E+02  0.67457937786E+03  0.00000000000E+00 0. -1.
        -11    1    3    3    0    0  0.36691783384E+03  0.84532476421E+02 -0.71731267649E+01  0.37659778293E+03  0.00000000000E+00 0.  1.
          4    1    6    6  502    0  0.30055613947E+02 -0.13993411896E+03  0.29510289283E+02  0.14613608300E+03  0.00000000000E+00 0. -1.
          1    1    5    5  503    0 -0.64031607262E+03 -0.47186692631E+02 -0.43009671389E+02  0.64349132756E+03  0.00000000000E+00 0. -1.
         -2    1    5    5    0  503 -0.41271974103E+03 -0.32186794049E+02 -0.92488878870E+02  0.42417893284E+03  0.00000000000E+00 0.  1.
         -3    1    6    6    0  502  0.36664863446E+02 -0.12530168564E+03  0.10870885250E+03  0.16988949128E+03  0.00000000000E+00 0.  1.
<mgrwt>
<rscale>  0 0.24339836E+04</rscale>
<asrwt>0</asrwt>
<pdfrwt beam="1">  1        1 0.19235984E+00 0.24339836E+04</pdfrwt>
<pdfrwt beam="2">  1       -1 0.18223600E+00 0.24339836E+04</pdfrwt>
<totfact> 0.17601183E+00</totfact>
</mgrwt>
</event>
<event>
12    1  0.1519630E-007  0.1395945E+04  0.7818608E-02  0.8956759E-01
         -1   -1    0    0    0  501 -0.00000000000E+00  0.00000000000E+00  0.28033671270E+03  0.28033671270E+03  0.00000000000E+00 0.  1.
          1   -1    0    0  501    0  0.00000000000E+00 -0.00000000000E+00 -0.17377874987E+04  0.17377874987E+04  0.00000000000E+00 0. -1.
         23    2    1    2    0    0  0.28460658497E+03  0.27339680775E+03 -0.44049190197E+03  0.59837747176E+03  0.90971205938E+02 0.  0.
        254    2    1    2    0    0 -0.28460658497E+03 -0.27339680775E+03 -0.10169588841E+04  0.14197467397E+04  0.90869615947E+03 0.  0.
        -24    2    4    4    0    0 -0.54821797138E+03 -0.18642446316E+03 -0.32213639340E+03  0.66724332756E+03  0.78388631850E+02 0.  0.
         24    2    4    4    0    0  0.26361138641E+03 -0.86972344594E+02 -0.69482249068E+03  0.75250341213E+03  0.80174434484E+02 0.  0.
         13    1    3    3    0    0  0.47949783711E+02  0.24647937164E+02 -0.25131676280E+02  0.59483642433E+02  0.00000000000E+00 0.  1.
        -13    1    3    3    0    0  0.23665680126E+03  0.24874887059E+03 -0.41536022569E+03  0.53889382933E+03  0.00000000000E+00 0. -1.
          4    1    6    6  502    0  0.86063904925E+02 -0.33508707716E+02 -0.33784964989E+03  0.35024593525E+03  0.00000000000E+00 0. -1.
          1    1    5    5  503    0 -0.14201223790E+03 -0.20857747864E+02 -0.55383107667E+02  0.15384995929E+03  0.00000000000E+00 0. -1.
         -2    1    5    5    0  503 -0.40620573349E+03 -0.16556671529E+03 -0.26675328573E+03  0.51339336827E+03  0.00000000000E+00 0.  1.
         -3    1    6    6    0  502  0.17754748148E+03 -0.53463636878E+02 -0.35697284078E+03  0.40225747688E+03  0.00000000000E+00 0.  1.
<mgrwt>
<rscale>  0 0.13959450E+04</rscale>
<asrwt>0</asrwt>
<pdfrwt beam="1">  1        1 0.26735193E+00 0.13959450E+04</pdfrwt>
<pdfrwt beam="2">  1       -1 0.43128724E-01 0.13959450E+04</pdfrwt>
<totfact> 0.23226037E+01</totfact>
</mgrwt>
</event>
<event>
12    1  0.1519630E-007  0.2174530E+04  0.7818608E-02  0.8529105E-01
         -2   -1    0    0    0  501 -0.00000000000E+00  0.00000000000E+00  0.10557536905E+04  0.10557536905E+04  0.00000000000E+00 0.  1.
          2   -1    0    0  501    0  0.00000000000E+00 -0.00000000000E+00 -0.11197165458E+04  0.11197165458E+04  0.00000000000E+00 0. -1.
         23    2    1    2    0    0 -0.13235562623E+03  0.18087168605E+03 -0.89646182306E+03  0.92850935873E+03  0.90847401976E+02 0.  0.
        254    2    1    2    0    0  0.13235562623E+03 -0.18087168605E+03  0.83249896776E+03  0.12469608776E+04  0.90090194823E+03 0.  0.
        -24    2    4    4    0    0  0.34445564311E+03 -0.35750613615E+03  0.18070201508E+03  0.53445930434E+03  0.80828227031E+02 0.  0.
         24    2    4    4    0    0 -0.21210001688E+03  0.17663445010E+03  0.65179695268E+03  0.71250157325E+03  0.81443712106E+02 0.  0.
         13    1    3    3    0    0 -0.14084596118E+03  0.18471316913E+03 -0.86899177315E+03  0.89950166283E+03  0.00000000000E+00 0. -1.
        -13    1    3    3    0    0  0.84903349448E+01 -0.38414830805E+01 -0.27470049903E+02  0.29007695899E+02  0.00000000000E+00 0.  1.
          2    1    6    6  502    0 -0.18682008066E+03  0.18238736572E+03  0.60649758227E+03  0.66030766391E+03  0.00000000000E+00 0. -1.
          1    1    5    5  503    0  0.14348169286E+03 -0.15833799316E+03  0.12002836598E+03  0.24508105782E+03  0.00000000000E+00 0. -1.
         -2    1    5    5    0  503  0.20097395026E+03 -0.19916814299E+03  0.60673649099E+02  0.28937824652E+03  0.00000000000E+00 0.  1.
         -1    1    6    6    0  502 -0.25279936218E+02 -0.57529156218E+01  0.45299370412E+02  0.52193909348E+02  0.00000000000E+00 0.  1.
<mgrwt>
<rscale>  0 0.21745297E+04</rscale>
<asrwt>0</asrwt>
<pdfrwt beam="1">  1        2 0.17226408E+00 0.21745297E+04</pdfrwt>
<pdfrwt beam="2">  1       -2 0.16242365E+00 0.21745297E+04</pdfrwt>
<totfact> 0.46910614E+00</totfact>
</mgrwt>
</event>
<event>
12    1  0.1519630E-007  0.1347301E+04  0.7818608E-02  0.8992874E-01
          1   -1    0    0  501    0  0.00000000000E+00  0.00000000000E+00  0.10974450035E+04  0.10974450035E+04  0.00000000000E+00 0. -1.
         -1   -1    0    0    0  501 -0.00000000000E+00 -0.00000000000E+00 -0.41351046250E+03  0.41351046250E+03  0.00000000000E+00 0.  1.
         23    2    1    2    0    0  0.11102052914E+03  0.32393564348E+03  0.23639578580E+03  0.42603183060E+03  0.91434644057E+02 0.  0.
        254    2    1    2    0    0 -0.11102052914E+03 -0.32393564348E+03  0.44753875518E+03  0.10849236354E+04  0.92709681168E+03 0.  0.
        -24    2    4    4    0    0 -0.48695367278E+03 -0.22912184486E+03  0.42164673815E+03  0.68814023625E+03  0.78296320078E+02 0.  0.
         24    2    4    4    0    0  0.37593314364E+03 -0.94813798617E+02  0.25892017028E+02  0.39678339913E+03  0.80319887850E+02 0.  0.
         13    1    3    3    0    0 -0.93763770014E+01  0.67358856773E+02  0.68934023485E+02  0.96835074355E+02  0.00000000000E+00 0. -1.
        -13    1    3    3    0    0  0.12039690614E+03  0.25657678670E+03  0.16746176231E+03  0.32919675624E+03  0.00000000000E+00 0.  1.
          4    1    6    6  502    0  0.73389945995E+02 -0.52976848643E+02  0.53435409428E+01  0.90670745531E+02  0.00000000000E+00 0. -1.
          3    1    5    5  503    0 -0.13028712984E+02 -0.13756175039E+02  0.34625505201E+02  0.39470309400E+02  0.00000000000E+00 0. -1.
         -4    1    5    5    0  503 -0.47392495980E+03 -0.21536566982E+03  0.38702123295E+03  0.64866992685E+03  0.00000000000E+00 0.  1.
         -3    1    6    6    0  502  0.30254319764E+03 -0.41836949974E+02  0.20548476086E+02  0.30611265360E+03  0.00000000000E+00 0.  1.
<mgrwt>
<rscale>  0 0.13473010E+04</rscale>
<asrwt>0</asrwt>
<pdfrwt beam="1">  1        1 0.16883769E+00 0.13473010E+04</pdfrwt>
<pdfrwt beam="2">  1       -1 0.63616995E-01 0.13473010E+04</pdfrwt>
<totfact> 0.31245557E+01</totfact>
</mgrwt>
</event>
<event>
12    1  0.1519630E-007  0.2213869E+04  0.7818608E-02  0.8512678E-01
          1   -1    0    0  501    0  0.00000000000E+00  0.00000000000E+00  0.82466235776E+03  0.82466235776E+03  0.00000000000E+00 0. -1.
         -1   -1    0    0    0  501 -0.00000000000E+00 -0.00000000000E+00 -0.14858254524E+04  0.14858254524E+04  0.00000000000E+00 0.  1.
         23    2    1    2    0    0 -0.48716573215E+03 -0.61945026386E+03  0.21923810901E+03  0.82319620266E+03  0.92398915895E+02 0.  0.
        254    2    1    2    0    0  0.48716573215E+03  0.61945026386E+03 -0.88040120368E+03  0.14872916075E+04  0.90326129465E+03 0.  0.
        -24    2    4    4    0    0 -0.21970266803E+03  0.33471479512E+03 -0.16877968726E+03  0.44149654093E+03  0.78290206334E+02 0.  0.
         24    2    4    4    0    0  0.70686840018E+03  0.28473546874E+03 -0.71162151642E+03  0.10457950666E+04  0.80900657375E+02 0.  0.
         11    1    3    3    0    0 -0.48660225753E+03 -0.62006106540E+03  0.22316481209E+03  0.81918252863E+03  0.00000000000E+00 0. -1.
        -11    1    3    3    0    0 -0.56347461660E+00  0.61080153960E+00 -0.39267030780E+01  0.40136740310E+01  0.00000000000E+00 0.  1.
          4    1    6    6  502    0  0.24905235449E+03  0.13177433378E+03 -0.22737766461E+03  0.36206650312E+03  0.00000000000E+00 0. -1.
          1    1    5    5  503    0 -0.10716169703E+03  0.10504402271E+03 -0.84449385106E+02  0.17219051850E+03  0.00000000000E+00 0. -1.
         -2    1    5    5    0  503 -0.11254097100E+03  0.22967077241E+03 -0.84330302151E+02  0.26930602243E+03  0.00000000000E+00 0.  1.
         -3    1    6    6    0  502  0.45781604569E+03  0.15296113496E+03 -0.48424385181E+03  0.68372856348E+03  0.00000000000E+00 0.  1.
<mgrwt>
<rscale>  0 0.22138693E+04</rscale>
<asrwt>0</asrwt>
<pdfrwt beam="1">  1        1 0.12687113E+00 0.22138693E+04</pdfrwt>
<pdfrwt beam="2">  1       -1 0.22858853E+00 0.22138693E+04</pdfrwt>
<totfact> 0.18485442E+00</totfact>
</mgrwt>
</event>
<event>
12    1  0.1519630E-007  0.1303800E+04  0.7818608E-02  0.9026557E-01
         -1   -1    0    0    0  501 -0.00000000000E+00  0.00000000000E+00  0.56286076083E+03  0.56286076083E+03  0.00000000000E+00 0.  1.
          1   -1    0    0  501    0  0.00000000000E+00 -0.00000000000E+00 -0.75502484200E+03  0.75502484200E+03  0.00000000000E+00 0. -1.
         23    2    1    2    0    0 -0.50594921663E+02 -0.25123121842E+03  0.15989296394E+03  0.31297191494E+03  0.81906583506E+02 0.  0.
        254    2    1    2    0    0  0.50594921663E+02  0.25123121842E+03 -0.35205704510E+03  0.10049136879E+04  0.90566571421E+03 0.  0.
        -24    2    4    4    0    0 -0.22703608091E+03 -0.15121613666E+03 -0.41783219751E+03  0.50554755167E+03  0.81134947507E+02 0.  0.
         24    2    4    4    0    0  0.27763100257E+03  0.40244735508E+03  0.65775152410E+02  0.49936613622E+03  0.77442366488E+02 0.  0.
         11    1    3    3    0    0 -0.62469878099E+01 -0.27755138663E+02 -0.84658049891E+01  0.29682358953E+02  0.00000000000E+00 0. -1.
        -11    1    3    3    0    0 -0.44347933853E+02 -0.22347607976E+03  0.16835876892E+03  0.28328955599E+03  0.00000000000E+00 0.  1.
          2    1    6    6  502    0  0.69236494968E+02  0.16010934525E+03  0.38108998014E+02  0.17855248640E+03  0.00000000000E+00 0. -1.
          1    1    5    5  503    0 -0.16564737612E+03 -0.12923702894E+03 -0.36694776086E+03  0.42283793830E+03  0.00000000000E+00 0. -1.
         -2    1    5    5    0  503 -0.61388704784E+02 -0.21979107719E+02 -0.50884436651E+02  0.82709613374E+02  0.00000000000E+00 0.  1.
         -1    1    6    6    0  502  0.20839450760E+03  0.24233800983E+03  0.27666154396E+02  0.32081364981E+03  0.00000000000E+00 0.  1.
<mgrwt>
<rscale>  0 0.13038004E+04</rscale>
<asrwt>0</asrwt>
<pdfrwt beam="1">  1        1 0.11615767E+00 0.13038004E+04</pdfrwt>
<pdfrwt beam="2">  1       -1 0.86593964E-01 0.13038004E+04</pdfrwt>
<totfact> 0.31316594E+01</totfact>
</mgrwt>
</event>
<event>
12    1  0.1519630E-007  0.2617596E+04  0.7818608E-02  0.8362249E-01
          2   -1    0    0  501    0  0.00000000000E+00  0.00000000000E+00  0.13795184491E+04  0.13795184491E+04  0.00000000000E+00 0. -1.
         -2   -1    0    0    0  501 -0.00000000000E+00 -0.00000000000E+00 -0.12417027311E+04  0.12417027311E+04  0.00000000000E+00 0.  1.
         23    2    1    2    0    0 -0.63953866266E+03 -0.94044184295E+03 -0.12441288475E+03  0.11477037749E+04  0.91130829311E+02 0.  0.
        254    2    1    2    0    0  0.63953866266E+03  0.94044184295E+03  0.26222860281E+03  0.14735174053E+04  0.89947159072E+03 0.  0.
        -24    2    4    4    0    0 -0.11586251854E+03  0.56972984598E+03 -0.48589337488E+01  0.58702784585E+03  0.81005320596E+02 0.  0.
         24    2    4    4    0    0  0.75540118119E+03  0.37071199697E+03  0.26708753656E+03  0.88648955942E+03  0.80434181393E+02 0.  0.
         13    1    3    3    0    0 -0.64221675586E+02 -0.13634108206E+03  0.34583907243E+01  0.15074904556E+03  0.00000000000E+00 0.  1.
        -13    1    3    3    0    0 -0.57531698707E+03 -0.80410076089E+03 -0.12787127547E+03  0.99695472935E+03  0.00000000000E+00 0. -1.
          2    1    6    6  502    0  0.48686313643E+03  0.24381685037E+03  0.21253329253E+03  0.58451071040E+03  0.00000000000E+00 0. -1.
          3    1    5    5  503    0 -0.12189016059E+03  0.46501835793E+03 -0.19515963553E+02  0.48112384819E+03  0.00000000000E+00 0. -1.
         -2    1    5    5    0  503  0.60276420560E+01  0.10471148804E+03  0.14657029804E+02  0.10590399766E+03  0.00000000000E+00 0.  1.
         -1    1    6    6    0  502  0.26853804477E+03  0.12689514660E+03  0.54554244029E+02  0.30197884903E+03  0.00000000000E+00 0.  1.
<mgrwt>
<rscale>  0 0.26175957E+04</rscale>
<asrwt>0</asrwt>
<pdfrwt beam="1">  1        2 0.21223361E+00 0.26175957E+04</pdfrwt>
<pdfrwt beam="2">  1       -2 0.19103119E+00 0.26175957E+04</pdfrwt>
<totfact> 0.20035378E+00</totfact>
</mgrwt>
</event>
<event>
12    1  0.1519630E-007  0.2523577E+04  0.7818608E-02  0.8394634E-01
          2   -1    0    0  501    0  0.00000000000E+00  0.00000000000E+00  0.13853797908E+04  0.13853797908E+04  0.00000000000E+00 0. -1.
         -2   -1    0    0    0  501 -0.00000000000E+00 -0.00000000000E+00 -0.11492228304E+04  0.11492228304E+04  0.00000000000E+00 0.  1.
         23    2    1    2    0    0 -0.32394649415E+03 -0.35256125158E+03  0.10930784385E+04  0.11968761964E+04  0.91931439728E+02 0.  0.
        254    2    1    2    0    0  0.32394649415E+03  0.35256125158E+03 -0.85692147804E+03  0.13377264249E+04  0.90882165530E+03 0.  0.
        -24    2    4    4    0    0 -0.99595275599E+02  0.28728741814E+03  0.61895767048E+02  0.32048137175E+03  0.80149511020E+02 0.  0.
         24    2    4    4    0    0  0.42354176975E+03  0.65273833442E+02 -0.91881724508E+03  0.10172450531E+04  0.83150852228E+02 0.  0.
         11    1    3    3    0    0 -0.31458755134E+03 -0.35000202702E+03  0.10890330483E+04  0.11863640785E+04  0.00000000000E+00 0. -1.
        -11    1    3    3    0    0 -0.93589428078E+01 -0.25592245618E+01  0.40453901236E+01  0.10512117869E+02  0.00000000000E+00 0.  1.
          4    1    6    6  502    0  0.10428713209E+03 -0.36530324542E+01 -0.29821467703E+03  0.31594484354E+03  0.00000000000E+00 0. -1.
          3    1    5    5  503    0 -0.85733449805E+02  0.12940129115E+03  0.19725249506E+02  0.15647365285E+03  0.00000000000E+00 0. -1.
         -4    1    5    5    0  503 -0.13861825793E+02  0.15788612699E+03  0.42170517542E+02  0.16400771890E+03  0.00000000000E+00 0.  1.
         -3    1    6    6    0  502  0.31925463766E+03  0.68926865896E+02 -0.62060256806E+03  0.70130020960E+03  0.00000000000E+00 0.  1.
<mgrwt>
<rscale>  0 0.25235769E+04</rscale>
<asrwt>0</asrwt>
<pdfrwt beam="1">  1        2 0.21313535E+00 0.25235769E+04</pdfrwt>
<pdfrwt beam="2">  1       -2 0.17680351E+00 0.25235769E+04</pdfrwt>
<totfact> 0.25065033E+00</totfact>
</mgrwt>
</event>
<event>
12    1  0.1519630E-007  0.2430398E+04  0.7818608E-02  0.8428210E-01
         -1   -1    0    0    0  501 -0.00000000000E+00  0.00000000000E+00  0.64657696158E+03  0.64657696158E+03  0.00000000000E+00 0.  1.
          1   -1    0    0  501    0  0.00000000000E+00 -0.00000000000E+00 -0.22838859681E+04  0.22838859681E+04  0.00000000000E+00 0. -1.
         23    2    1    2    0    0 -0.10474634887E+04  0.19658726921E+03 -0.62504860046E+03  0.12394502211E+04  0.98614315336E+02 0.  0.
        254    2    1    2    0    0  0.10474634887E+04 -0.19658726921E+03 -0.10122604061E+04  0.16910127086E+04  0.83607806834E+03 0.  0.
        -24    2    4    4    0    0  0.40636288572E+03 -0.46706802138E+03 -0.65520466708E+03  0.90455548867E+03  0.75127523767E+02 0.  0.
         24    2    4    4    0    0  0.64110060295E+03  0.27048075217E+03 -0.35705573902E+03  0.78645721993E+03  0.82803004825E+02 0.  0.
         11    1    3    3    0    0 -0.11269836236E+03  0.14916231966E+01 -0.40133412255E+02  0.11964044716E+03  0.00000000000E+00 0. -1.
        -11    1    3    3    0    0 -0.93476512632E+03  0.19509564601E+03 -0.58491518820E+03  0.11198097740E+04  0.00000000000E+00 0.  1.
          2    1    6    6  502    0  0.16678597124E+03  0.33041056120E+02 -0.96261490379E+02  0.19538563438E+03  0.00000000000E+00 0. -1.
          3    1    5    5  503    0 -0.28497998195E+01 -0.46978459921E+00 -0.44529360313E+01  0.53076073592E+01  0.00000000000E+00 0. -1.
         -4    1    5    5    0  503  0.40921268554E+03 -0.46659823678E+03 -0.65075173105E+03  0.89924788131E+03  0.00000000000E+00 0.  1.
         -1    1    6    6    0  502  0.47431463171E+03  0.23743969605E+03 -0.26079424864E+03  0.59107158555E+03  0.00000000000E+00 0.  1.
<mgrwt>
<rscale>  0 0.24303975E+04</rscale>
<asrwt>0</asrwt>
<pdfrwt beam="1">  1        1 0.35136706E+00 0.24303975E+04</pdfrwt>
<pdfrwt beam="2">  1       -1 0.99473381E-01 0.24303975E+04</pdfrwt>
<totfact> 0.16456192E+00</totfact>
</mgrwt>
</event>
<event>
12    1  0.1519630E-007  0.1984613E+04  0.7818608E-02  0.8613848E-01
          2   -1    0    0  501    0  0.00000000000E+00  0.00000000000E+00  0.29393449719E+04  0.29393449719E+04  0.00000000000E+00 0. -1.
         -2   -1    0    0    0  501 -0.00000000000E+00 -0.00000000000E+00 -0.33499721029E+03  0.33499721029E+03  0.00000000000E+00 0.  1.
         23    2    1    2    0    0 -0.43068234646E+03  0.31314735716E+03  0.86089978587E+02  0.54684206972E+03  0.89867758181E+02 0.  0.
        254    2    1    2    0    0  0.43068234646E+03 -0.31314735716E+03  0.25182577830E+04  0.27275001125E+04  0.90226717268E+03 0.  0.
        -24    2    4    4    0    0 -0.14229307564E+03 -0.24813256292E+03  0.16848632323E+04  0.17108518796E+04  0.80205697698E+02 0.  0.
         24    2    4    4    0    0  0.57297542210E+03 -0.65014794239E+02  0.83339455068E+03  0.10166482329E+04  0.80618822628E+02 0.  0.
         13    1    3    3    0    0 -0.69628742228E+02  0.34299800167E+02 -0.16263142228E+02  0.79304021530E+02  0.00000000000E+00 0. -1.
        -13    1    3    3    0    0 -0.36105360423E+03  0.27884755699E+03  0.10235312082E+03  0.46753804819E+03  0.00000000000E+00 0.  1.
          4    1    6    6  502    0  0.52885213579E+03 -0.39749756252E+02  0.77671015713E+03  0.94050161767E+03  0.00000000000E+00 0. -1.
          3    1    5    5  503    0 -0.12249938491E+03 -0.24480594869E+03  0.14882206124E+04  0.15131875769E+04  0.00000000000E+00 0. -1.
         -4    1    5    5    0  503 -0.19793690737E+02 -0.33266142277E+01  0.19664261994E+03  0.19766430262E+03  0.00000000000E+00 0.  1.
         -3    1    6    6    0  502  0.44123286314E+02 -0.25265037987E+02  0.56684393548E+02  0.76146615233E+02  0.00000000000E+00 0.  1.
<mgrwt>
<rscale>  0 0.19846132E+04</rscale>
<asrwt>0</asrwt>
<pdfrwt beam="1">  1        2 0.45220690E+00 0.19846132E+04</pdfrwt>
<pdfrwt beam="2">  1       -2 0.51538034E-01 0.19846132E+04</pdfrwt>
<totfact> 0.62983554E+00</totfact>
</mgrwt>
</event>
<event>
12    1  0.2231314E-007  0.1683381E+04  0.7818608E-02  0.8770900E-01
         -2   -1    0    0    0  501 -0.00000000000E+00  0.00000000000E+00  0.11437833783E+04  0.11437833783E+04  0.00000000000E+00 0.  1.
          2   -1    0    0  501    0  0.00000000000E+00 -0.00000000000E+00 -0.61938536458E+03  0.61938536458E+03  0.00000000000E+00 0. -1.
         23    2    1    2    0    0  0.18772978084E+03 -0.23645921005E+03 -0.35685982998E+03  0.47586416873E+03  0.89119808106E+02 0.  0.
        254    2    1    2    0    0 -0.18772978084E+03  0.23645921005E+03  0.88125784365E+03  0.12873045741E+04  0.88847186275E+03 0.  0.
        -24    2    4    4    0    0  0.20750537129E+02  0.77261671993E+02  0.98670914071E+03  0.99318131193E+03  0.80088945891E+02 0.  0.
         24    2    4    4    0    0 -0.20848031797E+03  0.15919753805E+03 -0.10545129706E+03  0.29412326218E+03  0.81121009621E+02 0.  0.
         13    1    3    3    0    0  0.18094683624E+03 -0.18044654248E+03 -0.26561411722E+03  0.36858319482E+03  0.00000000000E+00 0.  1.
        -13    1    3    3    0    0  0.67829445991E+01 -0.56012667568E+02 -0.91245712763E+02  0.10728097391E+03  0.00000000000E+00 0. -1.
          4    1    6    6  502    0 -0.22948169407E+02  0.55056651725E+02 -0.82714273359E+01  0.60218517820E+02  0.00000000000E+00 0. -1.
          1    1    5    5  503    0 -0.19885561075E+02  0.27434554233E+01  0.78927048005E+02  0.81439799814E+02  0.00000000000E+00 0. -1.
         -2    1    5    5    0  503  0.40636098204E+02  0.74518216569E+02  0.90778209271E+03  0.91174151212E+03  0.00000000000E+00 0.  1.
         -3    1    6    6    0  502 -0.18553214856E+03  0.10414088633E+03 -0.97179869722E+02  0.23390474436E+03  0.00000000000E+00 0.  1.
<mgrwt>
<rscale>  0 0.16833807E+04</rscale>
<asrwt>0</asrwt>
<pdfrwt beam="1">  1        2 0.95290057E-01 0.16833807E+04</pdfrwt>
<pdfrwt beam="2">  1       -2 0.17596667E+00 0.16833807E+04</pdfrwt>
<totfact> 0.87859236E+00</totfact>
</mgrwt>
</event>
<event>
12    1  0.1519630E-007  0.1815001E+04  0.7818608E-02  0.8698363E-01
         -2   -1    0    0    0  501 -0.00000000000E+00  0.00000000000E+00  0.99609189155E+03  0.99609189155E+03  0.00000000000E+00 0. -1.
          2   -1    0    0  501    0  0.00000000000E+00 -0.00000000000E+00 -0.82678832266E+03  0.82678832266E+03  0.00000000000E+00 0.  1.
         23    2    1    2    0    0  0.34516189263E+03 -0.51459362608E+03 -0.22146155659E+03  0.66419551100E+03  0.90372139857E+02 0.  0.
        254    2    1    2    0    0 -0.34516189263E+03  0.51459362608E+03  0.39076512548E+03  0.11586847032E+04  0.89772463819E+03 0.  0.
        -24    2    4    4    0    0 -0.45226222340E+03  0.68415507977E+03  0.15407526880E+03  0.83825822046E+03  0.79551013920E+02 0.  0.
         24    2    4    4    0    0  0.10710033077E+03 -0.16956145369E+03  0.23668985669E+03  0.32042648275E+03  0.80184008110E+02 0.  0.
         13    1    3    3    0    0  0.11250750564E+03 -0.21182244484E+03 -0.12452906187E+03  0.27024835654E+03  0.00000000000E+00 0. -1.
        -13    1    3    3    0    0  0.23265438699E+03 -0.30277118124E+03 -0.96932494720E+02  0.39394715446E+03  0.00000000000E+00 0.  1.
          2    1    6    6  502    0 -0.11236633539E+02 -0.15095086811E+02  0.37552936660E+02  0.42004126356E+02  0.00000000000E+00 0. -1.
          1    1    5    5  503    0 -0.13165453549E+03  0.26528456931E+03  0.43970948303E+02  0.29940317922E+03  0.00000000000E+00 0. -1.
         -2    1    5    5    0  503 -0.32060768790E+03  0.41887051047E+03  0.11010432049E+03  0.53885504124E+03  0.00000000000E+00 0.  1.
         -1    1    6    6    0  502  0.11833696431E+03 -0.15446636688E+03  0.19913692003E+03  0.27842235639E+03  0.00000000000E+00 0.  1.
<mgrwt>
<rscale>  0 0.18150010E+04</rscale>
<asrwt>0</asrwt>
<pdfrwt beam="1">  1        2 0.12719820E+00 0.18150010E+04</pdfrwt>
<pdfrwt beam="2">  1       -2 0.15324491E+00 0.18150010E+04</pdfrwt>
<totfact> 0.87918972E+00</totfact>
</mgrwt>
</event>
<event>
12    1  0.1519630E-007  0.4318519E+04  0.7818608E-02  0.7943203E-01
         -2   -1    0    0    0  501 -0.00000000000E+00  0.00000000000E+00  0.13888955100E+04  0.13888955100E+04  0.00000000000E+00 0.  1.
          2   -1    0    0  501    0  0.00000000000E+00 -0.00000000000E+00 -0.33569128712E+04  0.33569128712E+04  0.00000000000E+00 0. -1.
         23    2    1    2    0    0  0.38079223946E+03  0.67466341495E+03  0.11614424865E+04  0.13990150881E+04  0.90117224812E+02 0.  0.
        254    2    1    2    0    0 -0.38079223946E+03 -0.67466341495E+03 -0.31294598477E+04  0.33467932931E+04  0.89851708682E+03 0.  0.
        -24    2    4    4    0    0  0.10994541401E+03 -0.66806176434E+03 -0.19885934979E+04  0.21022228979E+04  0.80265168981E+02 0.  0.
         24    2    4    4    0    0 -0.49073765347E+03 -0.66016506149E+01 -0.11408663498E+04  0.12445703952E+04  0.80699531004E+02 0.  0.
         13    1    3    3    0    0  0.37773292341E+03  0.62852121827E+03  0.11025514111E+04  0.13241377184E+04  0.00000000000E+00 0.  1.
        -13    1    3    3    0    0  0.30593160576E+01  0.46142196684E+02  0.58891075418E+02  0.74877369702E+02  0.00000000000E+00 0. -1.
          2    1    6    6  502    0 -0.26145661300E+03  0.33760011552E+02 -0.56757084249E+03  0.62580824548E+03  0.00000000000E+00 0. -1.
          1    1    5    5  503    0  0.38222607966E+02 -0.45800643373E+03 -0.13662372512E+04  0.14414697665E+04  0.00000000000E+00 0. -1.
         -2    1    5    5    0  503  0.71722806040E+02 -0.21005533061E+03 -0.62235624673E+03  0.66075313141E+03  0.00000000000E+00 0.  1.
         -1    1    6    6    0  502 -0.22928104047E+03 -0.40361662167E+02 -0.57329550727E+03  0.61876214974E+03  0.00000000000E+00 0.  1.
<mgrwt>
<rscale>  0 0.43185188E+04</rscale>
<asrwt>0</asrwt>
<pdfrwt beam="1">  1        2 0.51644812E+00 0.43185188E+04</pdfrwt>
<pdfrwt beam="2">  1       -2 0.21367624E+00 0.43185188E+04</pdfrwt>
<totfact> 0.84924902E-02</totfact>
</mgrwt>
</event>
<event>
12    1  0.1519630E-007  0.1584131E+04  0.7818608E-02  0.8830357E-01
          2   -1    0    0  501    0  0.00000000000E+00  0.00000000000E+00  0.16244248492E+04  0.16244248492E+04  0.00000000000E+00 0. -1.
         -2   -1    0    0    0  501 -0.00000000000E+00 -0.00000000000E+00 -0.38620900899E+03  0.38620900899E+03  0.00000000000E+00 0.  1.
         23    2    1    2    0    0  0.71938438029E+02 -0.33672191344E+03  0.93484702906E+03  0.10000321508E+04  0.86997408655E+02 0.  0.
        254    2    1    2    0    0 -0.71938438029E+02  0.33672191344E+03  0.30336881118E+03  0.10106017074E+04  0.90040345930E+03 0.  0.
        -24    2    4    4    0    0 -0.27929780850E+03  0.57151846596E+03  0.19903335601E+03  0.67137210354E+03  0.80533234352E+02 0.  0.
         24    2    4    4    0    0  0.20735937047E+03 -0.23479655252E+03  0.10433545517E+03  0.33922960385E+03  0.77868525901E+02 0.  0.
         11    1    3    3    0    0 -0.16053112554E+02 -0.17678083557E+02  0.74046924939E+02  0.77802083223E+02  0.00000000000E+00 0.  1.
        -11    1    3    3    0    0  0.87991550583E+02 -0.31904382988E+03  0.86080010412E+03  0.92223006761E+03  0.00000000000E+00 0. -1.
          4    1    6    6  502    0  0.22291098382E+01 -0.38922608824E+02  0.16255255917E+02  0.42239457303E+02  0.00000000000E+00 0. -1.
          3    1    5    5  503    0 -0.90145230553E+02  0.27234472535E+03  0.10031310771E+03  0.30390875538E+03  0.00000000000E+00 0. -1.
         -4    1    5    5    0  503 -0.18915257794E+03  0.29917374061E+03  0.98720248305E+02  0.36746334815E+03  0.00000000000E+00 0.  1.
         -3    1    6    6    0  502  0.20513026063E+03 -0.19587394370E+03  0.88080199251E+02  0.29699014655E+03  0.00000000000E+00 0.  1.
<mgrwt>
<rscale>  0 0.15841307E+04</rscale>
<asrwt>0</asrwt>
<pdfrwt beam="1">  1        2 0.24991151E+00 0.15841307E+04</pdfrwt>
<pdfrwt beam="2">  1       -2 0.59416772E-01 0.15841307E+04</pdfrwt>
<totfact> 0.27428530E+01</totfact>
</mgrwt>
</event>
<event>
12    1  0.1519630E-007  0.2983023E+04  0.7818608E-02  0.8248595E-01
         -1   -1    0    0    0  501 -0.00000000000E+00  0.00000000000E+00  0.11846360621E+04  0.11846360621E+04  0.00000000000E+00 0.  1.
          1   -1    0    0  501    0  0.00000000000E+00 -0.00000000000E+00 -0.18778817481E+04  0.18778817481E+04  0.00000000000E+00 0. -1.
         23    2    1    2    0    0  0.22356235725E+03  0.96183228253E+03 -0.12637028885E+04  0.16064126481E+04  0.92277507862E+02 0.  0.
        254    2    1    2    0    0 -0.22356235725E+03 -0.96183228253E+03  0.57045720250E+03  0.14561051621E+04  0.90538354080E+03 0.  0.
        -24    2    4    4    0    0 -0.11832239623E+03 -0.28249673308E+02 -0.19393532692E+03  0.24232150788E+03  0.79439087745E+02 0.  0.
         24    2    4    4    0    0 -0.10523996102E+03 -0.93358260922E+03  0.76439252942E+03  0.12137836542E+04  0.79516555713E+02 0.  0.
         13    1    3    3    0    0  0.22554272569E+03  0.94898889248E+03 -0.12588740390E+04  0.15925493039E+04  0.00000000000E+00 0. -1.
        -13    1    3    3    0    0 -0.19803684477E+01  0.12843390049E+02 -0.48288494709E+01  0.13863344270E+02  0.00000000000E+00 0.  1.
          2    1    6    6  502    0 -0.88304573690E+02 -0.63937029087E+03  0.56668983947E+03  0.85891177704E+03  0.00000000000E+00 0. -1.
          1    1    5    5  503    0 -0.70713390493E+02 -0.30289701501E+02 -0.17478451190E+03  0.19096459152E+03  0.00000000000E+00 0. -1.
         -2    1    5    5    0  503 -0.47609005737E+02  0.20400281931E+01 -0.19150815013E+02  0.51356916360E+02  0.00000000000E+00 0.  1.
         -1    1    6    6    0  502 -0.16935387326E+02 -0.29421231835E+03  0.19770268995E+03  0.35487187720E+03  0.00000000000E+00 0.  1.
<mgrwt>
<rscale>  0 0.29830229E+04</rscale>
<asrwt>0</asrwt>
<pdfrwt beam="1">  1        1 0.28890488E+00 0.29830229E+04</pdfrwt>
<pdfrwt beam="2">  1       -1 0.18225170E+00 0.29830229E+04</pdfrwt>
<totfact> 0.61638866E-01</totfact>
</mgrwt>
</event>
<event>
12    1  0.1519630E-007  0.1243614E+04  0.7818608E-02  0.9075516E-01
          1   -1    0    0  501    0  0.00000000000E+00  0.00000000000E+00  0.57086870039E+03  0.57086870039E+03  0.00000000000E+00 0. -1.
         -1   -1    0    0    0  501 -0.00000000000E+00 -0.00000000000E+00 -0.67728995181E+03  0.67728995181E+03  0.00000000000E+00 0.  1.
         23    2    1    2    0    0 -0.97138588891E+02  0.19582853720E+03  0.88663283606E+02  0.25113163077E+03  0.86146367762E+02 0.  0.
        254    2    1    2    0    0  0.97138588891E+02 -0.19582853720E+03 -0.19508453503E+03  0.99702702143E+03  0.95300586788E+03 0.  0.
        -24    2    4    4    0    0  0.44193553640E+03 -0.25790061582E+03 -0.32851897023E+03  0.61384880583E+03  0.84058887926E+02 0.  0.
         24    2    4    4    0    0 -0.34479694751E+03  0.62072078621E+02  0.13343443520E+03  0.38317821560E+03  0.79264862684E+02 0.  0.
         11    1    3    3    0    0 -0.17991963084E+02  0.27566099991E+02 -0.17220962937E+02  0.37150533896E+02  0.00000000000E+00 0. -1.
        -11    1    3    3    0    0 -0.79146625807E+02  0.16826243721E+03  0.10588424654E+03  0.21398109687E+03  0.00000000000E+00 0.  1.
          2    1    6    6  502    0 -0.42824061004E+02  0.31372494198E+02  0.41049198989E+01  0.53244567426E+02  0.00000000000E+00 0. -1.
          3    1    5    5  503    0  0.13364424700E+03 -0.12310289326E+03 -0.10422599579E+03  0.20947115620E+03  0.00000000000E+00 0. -1.
         -4    1    5    5    0  503  0.30829128940E+03 -0.13479772257E+03 -0.22429297444E+03  0.40437764962E+03  0.00000000000E+00 0.  1.
         -1    1    6    6    0  502 -0.30197288651E+03  0.30699584423E+02  0.12932951530E+03  0.32993364817E+03  0.00000000000E+00 0.  1.
<mgrwt>
<rscale>  0 0.12436135E+04</rscale>
<asrwt>0</asrwt>
<pdfrwt beam="1">  1        1 0.87825954E-01 0.12436135E+04</pdfrwt>
<pdfrwt beam="2">  1       -1 0.10419845E+00 0.12436135E+04</pdfrwt>
<totfact> 0.31475961E+01</totfact>
</mgrwt>
</event>
<event>
12    1  0.1519630E-007  0.2344189E+04  0.7818608E-02  0.8460699E-01
          1   -1    0    0  501    0  0.00000000000E+00  0.00000000000E+00  0.10532805254E+04  0.10532805254E+04  0.00000000000E+00 0. -1.
         -1   -1    0    0    0  501 -0.00000000000E+00 -0.00000000000E+00 -0.13043115007E+04  0.13043115007E+04  0.00000000000E+00 0.  1.
         23    2    1    2    0    0 -0.90510887153E+03 -0.38684872878E+03 -0.24134472645E+03  0.10177206955E+04  0.92920013368E+02 0.  0.
        254    2    1    2    0    0  0.90510887153E+03  0.38684872878E+03 -0.96862489176E+01  0.13398713306E+04  0.90900349327E+03 0.  0.
        -24    2    4    4    0    0  0.24448906054E+03 -0.99621153249E+02  0.34662780481E+03  0.44178451983E+03  0.72961990105E+02 0.  0.
         24    2    4    4    0    0  0.66061981099E+03  0.48646988203E+03 -0.35631405372E+03  0.89808681073E+03  0.80800581289E+02 0.  0.
         13    1    3    3    0    0 -0.63606078132E+03 -0.25082499280E+03 -0.12781341116E+03  0.69557369316E+03  0.00000000000E+00 0.  1.
        -13    1    3    3    0    0 -0.26904809021E+03 -0.13602373598E+03 -0.11353131529E+03  0.32214700239E+03  0.00000000000E+00 0. -1.
          2    1    6    6  502    0  0.34342491905E+03  0.28589207901E+03 -0.22651057771E+03  0.50098103524E+03  0.00000000000E+00 0. -1.
          3    1    5    5  503    0  0.18483860823E+03 -0.44041462084E+02  0.26792763281E+03  0.32846640300E+03  0.00000000000E+00 0. -1.
         -4    1    5    5    0  503  0.59650452308E+02 -0.55579691164E+02  0.78700171997E+02  0.11331811683E+03  0.00000000000E+00 0.  1.
         -1    1    6    6    0  502  0.31719489194E+03  0.20057780302E+03 -0.12980347602E+03  0.39710577549E+03  0.00000000000E+00 0.  1.
<mgrwt>
<rscale>  0 0.23441893E+04</rscale>
<asrwt>0</asrwt>
<pdfrwt beam="1">  1        1 0.16204316E+00 0.23441893E+04</pdfrwt>
<pdfrwt beam="2">  1       -1 0.20066331E+00 0.23441893E+04</pdfrwt>
<totfact> 0.18451033E+00</totfact>
</mgrwt>
</event>
<event>
12    1  0.1519630E-007  0.3068453E+04  0.7818608E-02  0.8224449E-01
         -2   -1    0    0    0  501 -0.00000000000E+00  0.00000000000E+00  0.18218877875E+04  0.18218877875E+04  0.00000000000E+00 0.  1.
          2   -1    0    0  501    0  0.00000000000E+00 -0.00000000000E+00 -0.12919849842E+04  0.12919849842E+04  0.00000000000E+00 0. -1.
         23    2    1    2    0    0  0.52646883653E+03  0.12213228595E+04 -0.21168571157E+03  0.13497253889E+04  0.90270825501E+02 0.  0.
        254    2    1    2    0    0 -0.52646883653E+03 -0.12213228595E+04  0.74158851493E+03  0.17641473828E+04  0.89076568181E+03 0.  0.
        -24    2    4    4    0    0  0.23624139394E+03 -0.20908542537E+03  0.93097061251E+02  0.33815225106E+03  0.78442149205E+02 0.  0.
         24    2    4    4    0    0 -0.76271023046E+03 -0.10122374342E+04  0.64849145367E+03  0.14259951318E+04  0.81052030337E+02 0.  0.
         13    1    3    3    0    0  0.47205337440E+03  0.10574423012E+04 -0.21074787979E+03  0.11770442971E+04  0.00000000000E+00 0. -1.
        -13    1    3    3    0    0  0.54415462122E+02  0.16388055837E+03 -0.93783178197E+00  0.17268109177E+03  0.00000000000E+00 0.  1.
          2    1    6    6  502    0 -0.74418311768E+03 -0.96381882702E+03  0.61399625348E+03  0.13637252814E+04  0.00000000000E+00 0. -1.
          1    1    5    5  503    0  0.21612189382E+03 -0.20891574864E+03  0.72192117974E+02  0.30913777659E+03  0.00000000000E+00 0. -1.
         -2    1    5    5    0  503  0.20119500117E+02 -0.16967672652E+00  0.20904943277E+02  0.29014474466E+02  0.00000000000E+00 0.  1.
         -1    1    6    6    0  502 -0.18527112785E+02 -0.48418607133E+02  0.34495200198E+02  0.62269850342E+02  0.00000000000E+00 0.  1.
<mgrwt>
<rscale>  0 0.30684535E+04</rscale>
<asrwt>0</asrwt>
<pdfrwt beam="1">  1        2 0.19876692E+00 0.30684535E+04</pdfrwt>
<pdfrwt beam="2">  1       -2 0.28029043E+00 0.30684535E+04</pdfrwt>
<totfact> 0.59656523E-01</totfact>
</mgrwt>
</event>
<event>
12    1  0.1519630E-007  0.1128683E+04  0.7818608E-02  0.9177678E-01
         -2   -1    0    0    0  501 -0.00000000000E+00  0.00000000000E+00  0.20276043753E+03  0.20276043753E+03  0.00000000000E+00 0.  1.
          2   -1    0    0  501    0  0.00000000000E+00 -0.00000000000E+00 -0.15707263067E+04  0.15707263067E+04  0.00000000000E+00 0. -1.
         23    2    1    2    0    0  0.15299466003E+03  0.45673814219E+02 -0.96905895981E+02  0.20804283395E+03  0.91638445963E+02 0.  0.
        254    2    1    2    0    0 -0.15299466003E+03 -0.45673814219E+02 -0.12710599732E+04  0.15654439102E+04  0.89973758255E+03 0.  0.
        -24    2    4    4    0    0 -0.25537523001E+03 -0.30625097779E+03 -0.19629721813E+03  0.45210999090E+03  0.82853343522E+02 0.  0.
         24    2    4    4    0    0  0.10238056997E+03  0.26057716357E+03 -0.10747627550E+04  0.11133339193E+04  0.77557701577E+02 0.  0.
         13    1    3    3    0    0  0.48324331883E+02  0.11422184351E+02 -0.83430633119E+02  0.97089535429E+02  0.00000000000E+00 0.  1.
        -13    1    3    3    0    0  0.10467032815E+03  0.34251629868E+02 -0.13475262861E+02  0.11095329852E+03  0.00000000000E+00 0. -1.
          4    1    6    6  502    0  0.71663416998E+02  0.21814519705E+03 -0.74960950207E+03  0.78398812358E+03  0.00000000000E+00 0. -1.
          3    1    5    5  503    0 -0.18502220456E+03 -0.24803082669E+03 -0.18388072845E+03  0.35995087090E+03  0.00000000000E+00 0. -1.
         -4    1    5    5    0  503 -0.70353025447E+02 -0.58220151096E+02 -0.12416489680E+02  0.92159120000E+02  0.00000000000E+00 0.  1.
         -3    1    6    6    0  502  0.30717152977E+02  0.42431966511E+02 -0.32515325297E+03  0.32934579576E+03  0.00000000000E+00 0.  1.
<mgrwt>
<rscale>  0 0.11286827E+04</rscale>
<asrwt>0</asrwt>
<pdfrwt beam="1">  1        2 0.24165019E+00 0.11286827E+04</pdfrwt>
<pdfrwt beam="2">  1       -2 0.31193915E-01 0.11286827E+04</pdfrwt>
<totfact> 0.10934988E+02</totfact>
</mgrwt>
</event>
<event>
12    1  0.1519630E-007  0.1093119E+04  0.7818608E-02  0.9211925E-01
         -2   -1    0    0    0  501 -0.00000000000E+00  0.00000000000E+00  0.17559170531E+03  0.17559170531E+03  0.00000000000E+00 0.  1.
          2   -1    0    0  501    0  0.00000000000E+00 -0.00000000000E+00 -0.17012602015E+04  0.17012602015E+04  0.00000000000E+00 0. -1.
         23    2    1    2    0    0  0.10427117881E+03  0.72374395548E+02 -0.39605276611E+03  0.42529609049E+03  0.88929405614E+02 0.  0.
        254    2    1    2    0    0 -0.10427117881E+03 -0.72374395548E+02 -0.11296157300E+04  0.14515558163E+04  0.90270264115E+03 0.  0.
        -24    2    4    4    0    0  0.32859509232E+03 -0.10462795036E+03 -0.16527931327E+03  0.39090708521E+03  0.81051558797E+02 0.  0.
         24    2    4    4    0    0 -0.43286627113E+03  0.32253554807E+02 -0.96433641677E+03  0.10606487311E+04  0.81348051736E+02 0.  0.
         13    1    3    3    0    0  0.63829533784E+01  0.54617009244E+02 -0.15780248928E+03  0.16710890286E+03  0.00000000000E+00 0.  1.
        -13    1    3    3    0    0  0.97888225437E+02  0.17757386304E+02 -0.23825027683E+03  0.25818718763E+03  0.00000000000E+00 0. -1.
          4    1    6    6  502    0 -0.24639526335E+03  0.56685387011E+02 -0.58284739619E+03  0.63532271024E+03  0.00000000000E+00 0. -1.
          1    1    5    5  503    0  0.61351502584E+02 -0.51973922890E+02 -0.23147500373E+02  0.83672589917E+02  0.00000000000E+00 0. -1.
         -2    1    5    5    0  503  0.26724358973E+03 -0.52654027465E+02 -0.14213181290E+03  0.30723449529E+03  0.00000000000E+00 0.  1.
         -3    1    6    6    0  502 -0.18647100778E+03 -0.24431832204E+02 -0.38148902058E+03  0.42532602082E+03  0.00000000000E+00 0.  1.
<mgrwt>
<rscale>  0 0.10931188E+04</rscale>
<asrwt>0</asrwt>
<pdfrwt beam="1">  1        2 0.26173235E+00 0.10931188E+04</pdfrwt>
<pdfrwt beam="2">  1       -2 0.27014107E-01 0.10931188E+04</pdfrwt>
<totfact> 0.12110738E+02</totfact>
</mgrwt>
</event>
<event>
12    1  0.1519630E-007  0.1646183E+04  0.7818608E-02  0.8792668E-01
          2   -1    0    0  501    0  0.00000000000E+00  0.00000000000E+00  0.16318238469E+04  0.16318238469E+04  0.00000000000E+00 0. -1.
         -2   -1    0    0    0  501 -0.00000000000E+00 -0.00000000000E+00 -0.41516729756E+03  0.41516729756E+03  0.00000000000E+00 0.  1.
         23    2    1    2    0    0 -0.15981112716E+03  0.18020692607E+03  0.10776193453E+04  0.11079891489E+04  0.91445984688E+02 0.  0.
        254    2    1    2    0    0  0.15981112716E+03 -0.18020692607E+03  0.13903720407E+03  0.93900199560E+03  0.89687193682E+03 0.  0.
        -24    2    4    4    0    0  0.68825678900E+02  0.62006702292E+02  0.48465708057E+03  0.49925428488E+03  0.76029928460E+02 0.  0.
         24    2    4    4    0    0  0.90985448265E+02 -0.24221362836E+03 -0.34561987649E+03  0.43974771072E+03  0.83541346034E+02 0.  0.
         11    1    3    3    0    0 -0.94087284778E+01 -0.10898578488E+02  0.65254350194E+02  0.66823898448E+02  0.00000000000E+00 0.  1.
        -11    1    3    3    0    0 -0.15040239869E+03  0.19110550456E+03  0.10123649951E+04  0.10411652505E+04  0.00000000000E+00 0. -1.
          4    1    6    6  502    0  0.10057189794E+02 -0.13412272117E+03 -0.14355392603E+03  0.19671751594E+03  0.00000000000E+00 0. -1.
          1    1    5    5  503    0  0.47009389665E+02  0.58812697485E+02  0.19931658523E+03  0.21306317666E+03  0.00000000000E+00 0. -1.
         -2    1    5    5    0  503  0.21816289235E+02  0.31940048071E+01  0.28534049534E+03  0.28619110822E+03  0.00000000000E+00 0.  1.
         -3    1    6    6    0  502  0.80928258470E+02 -0.10809090719E+03 -0.20206595047E+03  0.24303019478E+03  0.00000000000E+00 0.  1.
<mgrwt>
<rscale>  0 0.16461833E+04</rscale>
<asrwt>0</asrwt>
<pdfrwt beam="1">  1        2 0.25104982E+00 0.16461833E+04</pdfrwt>
<pdfrwt beam="2">  1       -2 0.63871893E-01 0.16461833E+04</pdfrwt>
<totfact> 0.23182883E+01</totfact>
</mgrwt>
</event>
<event>
12    1  0.1519630E-007  0.2265869E+04  0.7818608E-02  0.8491501E-01
          2   -1    0    0  501    0  0.00000000000E+00  0.00000000000E+00  0.36428406531E+04  0.36428406531E+04  0.00000000000E+00 0. -1.
         -2   -1    0    0    0  501 -0.00000000000E+00 -0.00000000000E+00 -0.35234603015E+03  0.35234603015E+03  0.00000000000E+00 0.  1.
         23    2    1    2    0    0 -0.34589259234E+03  0.26810334000E+03  0.29214897524E+04  0.29554899153E+04  0.91088855982E+02 0.  0.
        254    2    1    2    0    0  0.34589259234E+03 -0.26810334000E+03  0.36900487052E+03  0.10396967679E+04  0.86791917159E+03 0.  0.
        -24    2    4    4    0    0  0.22031063525E+03  0.26127534350E+03 -0.41590530476E+02  0.35355022150E+03  0.80413965032E+02 0.  0.
         24    2    4    4    0    0  0.12558195709E+03 -0.52937868350E+03  0.41059540100E+03  0.68614654643E+03  0.78713920994E+02 0.  0.
         13    1    3    3    0    0 -0.52811093685E+01  0.16228096623E+02  0.25391039741E+03  0.25448326300E+03  0.00000000000E+00 0.  1.
        -13    1    3    3    0    0 -0.34061148297E+03  0.25187524338E+03  0.26675793550E+04  0.27010066523E+04  0.00000000000E+00 0. -1.
          2    1    6    6  502    0  0.53134584644E+01 -0.21194364696E+02  0.40700798616E+02  0.46195118180E+02  0.00000000000E+00 0. -1.
          3    1    5    5  503    0  0.57335340088E+02  0.96504774319E+02 -0.47092561289E+02  0.12173011960E+03  0.00000000000E+00 0. -1.
         -4    1    5    5    0  503  0.16297529516E+03  0.16477056918E+03  0.55020308131E+01  0.23182010190E+03  0.00000000000E+00 0.  1.
         -1    1    6    6    0  502  0.12026849863E+03 -0.50818431881E+03  0.36989460238E+03  0.63995142825E+03  0.00000000000E+00 0.  1.
<mgrwt>
<rscale>  0 0.22658689E+04</rscale>
<asrwt>0</asrwt>
<pdfrwt beam="1">  1        2 0.56043700E+00 0.22658689E+04</pdfrwt>
<pdfrwt beam="2">  1       -2 0.54207084E-01 0.22658689E+04</pdfrwt>
<totfact> 0.18797426E+00</totfact>
</mgrwt>
</event>
<event>
12    1  0.1519630E-007  0.1580501E+04  0.7818608E-02  0.8832617E-01
          2   -1    0    0  501    0  0.00000000000E+00  0.00000000000E+00  0.15191204047E+04  0.15191204047E+04  0.00000000000E+00 0. -1.
         -2   -1    0    0    0  501 -0.00000000000E+00 -0.00000000000E+00 -0.41109056435E+03  0.41109056435E+03  0.00000000000E+00 0.  1.
         23    2    1    2    0    0  0.25746294684E+03  0.14095149765E+03  0.91551145782E+03  0.96550480926E+03  0.88790842007E+02 0.  0.
        254    2    1    2    0    0 -0.25746294684E+03 -0.14095149765E+03  0.19251838250E+03  0.96470615975E+03  0.89857673761E+03 0.  0.
        -24    2    4    4    0    0  0.14424094927E+02 -0.41303928256E+03 -0.14640554705E+03  0.44575657586E+03  0.80342001845E+02 0.  0.
         24    2    4    4    0    0 -0.27188704177E+03  0.27208778491E+03  0.33892392954E+03  0.51894958389E+03  0.80528966359E+02 0.  0.
         13    1    3    3    0    0  0.52324346540E+02  0.50974498583E+02  0.13514091002E+03  0.15362064414E+03  0.00000000000E+00 0.  1.
        -13    1    3    3    0    0  0.20513860030E+03  0.89976999067E+02  0.78037054780E+03  0.81188416512E+03  0.00000000000E+00 0. -1.
          2    1    6    6  502    0 -0.11823978739E+03  0.78303611209E+02  0.15939252493E+03  0.21334966570E+03  0.00000000000E+00 0. -1.
          1    1    5    5  503    0  0.15354941844E+02 -0.10843045391E+02 -0.76989539055E+01  0.20313044174E+02  0.00000000000E+00 0. -1.
         -2    1    5    5    0  503 -0.93084691665E+00 -0.40219623717E+03 -0.13870659314E+03  0.42544353168E+03  0.00000000000E+00 0.  1.
         -1    1    6    6    0  502 -0.15364725437E+03  0.19378417370E+03  0.17953140461E+03  0.30559991819E+03  0.00000000000E+00 0.  1.
<mgrwt>
<rscale>  0 0.15805013E+04</rscale>
<asrwt>0</asrwt>
<pdfrwt beam="1">  1        2 0.23371083E+00 0.15805013E+04</pdfrwt>
<pdfrwt beam="2">  1       -2 0.63244703E-01 0.15805013E+04</pdfrwt>
<totfact> 0.27528463E+01</totfact>
</mgrwt>
</event>
<event>
12    1  0.1519630E-007  0.1360657E+04  0.7818608E-02  0.8982800E-01
         -1   -1    0    0    0  501 -0.00000000000E+00  0.00000000000E+00  0.19877878272E+03  0.19877878272E+03  0.00000000000E+00 0.  1.
          1   -1    0    0  501    0  0.00000000000E+00 -0.00000000000E+00 -0.23284521602E+04  0.23284521602E+04  0.00000000000E+00 0. -1.
         23    2    1    2    0    0 -0.58691831705E+02 -0.25474359492E+03 -0.11071376366E+04  0.11440749489E+04  0.12171570181E+03 0.  0.
        254    2    1    2    0    0  0.58691831705E+02  0.25474359492E+03 -0.10225357409E+04  0.13831559941E+04  0.89398105807E+03 0.  0.
        -24    2    4    4    0    0 -0.13845687454E+03 -0.93194785621E+02  0.84834201332E+02  0.20316922625E+03  0.78900688242E+02 0.  0.
         24    2    4    4    0    0  0.19714870624E+03  0.34793838055E+03 -0.11073699422E+04  0.11799867678E+04  0.78561149314E+02 0.  0.
         13    1    3    3    0    0 -0.74765366221E+02 -0.24980870974E+03 -0.10870099788E+04  0.11178483553E+04  0.00000000000E+00 0. -1.
        -13    1    3    3    0    0  0.16073534516E+02 -0.49348851875E+01 -0.20127657836E+02  0.26226593633E+02  0.00000000000E+00 0.  1.
          2    1    6    6  502    0  0.93337996311E+01  0.44255133391E+02 -0.19631525486E+03  0.20145797561E+03  0.00000000000E+00 0. -1.
          1    1    5    5  503    0 -0.11343755624E+02  0.77649220134E+01  0.27975622771E+02  0.31170663691E+02  0.00000000000E+00 0. -1.
         -2    1    5    5    0  503 -0.12711311891E+03 -0.10095970763E+03  0.56858578560E+02  0.17199856256E+03  0.00000000000E+00 0.  1.
         -1    1    6    6    0  502  0.18781490661E+03  0.30368324715E+03 -0.91105468739E+03  0.97852879220E+03  0.00000000000E+00 0.  1.
<mgrwt>
<rscale>  0 0.13606570E+04</rscale>
<asrwt>0</asrwt>
<pdfrwt beam="1">  1        1 0.35822342E+00 0.13606570E+04</pdfrwt>
<pdfrwt beam="2">  1       -1 0.30581351E-01 0.13606570E+04</pdfrwt>
<totfact> 0.17214693E+01</totfact>
</mgrwt>
</event>
<event>
12    1  0.1519630E-007  0.2066513E+04  0.7818608E-02  0.8576140E-01
          1   -1    0    0  501    0  0.00000000000E+00  0.00000000000E+00  0.13741053214E+04  0.13741053214E+04  0.00000000000E+00 0. -1.
         -1   -1    0    0    0  501 -0.00000000000E+00 -0.00000000000E+00 -0.77695557287E+03  0.77695557287E+03  0.00000000000E+00 0.  1.
         23    2    1    2    0    0  0.40741111015E+03 -0.37119031210E+03  0.89234222177E+03  0.10528742794E+04  0.92214678516E+02 0.  0.
        254    2    1    2    0    0 -0.40741111015E+03  0.37119031210E+03 -0.29519247323E+03  0.10981866149E+04  0.90283397391E+03 0.  0.
        -24    2    4    4    0    0 -0.14939422526E+03 -0.28226135048E+03  0.70919772370E+01  0.32922938138E+03  0.79696831235E+02 0.  0.
         24    2    4    4    0    0 -0.25801688489E+03  0.65345166259E+03 -0.30228445047E+03  0.76895723353E+03  0.79671511709E+02 0.  0.
         13    1    3    3    0    0  0.15121341896E+03 -0.19208087328E+03  0.35058042794E+03  0.42739583106E+03  0.00000000000E+00 0.  1.
        -13    1    3    3    0    0  0.25619769119E+03 -0.17910943883E+03  0.54176179383E+03  0.62547844832E+03  0.00000000000E+00 0. -1.
          4    1    6    6  502    0 -0.21137317339E+03  0.55485709486E+03 -0.22358063268E+03  0.63445513116E+03  0.00000000000E+00 0. -1.
          1    1    5    5  503    0 -0.14119496547E+03 -0.23093337547E+03 -0.18466969126E+02  0.27130659986E+03  0.00000000000E+00 0. -1.
         -2    1    5    5    0  503 -0.81992597858E+01 -0.51327975015E+02  0.25558946363E+02  0.57922781523E+02  0.00000000000E+00 0.  1.
         -3    1    6    6    0  502 -0.46643711499E+02  0.98594567728E+02 -0.78703817788E+02  0.13450210237E+03  0.00000000000E+00 0.  1.
<mgrwt>
<rscale>  0 0.20665128E+04</rscale>
<asrwt>0</asrwt>
<pdfrwt beam="1">  1        1 0.21140082E+00 0.20665128E+04</pdfrwt>
<pdfrwt beam="2">  1       -1 0.11953163E+00 0.20665128E+04</pdfrwt>
<totfact> 0.46194822E+00</totfact>
</mgrwt>
</event>
<event>
12    1  0.1519630E-007  0.1295740E+04  0.7818608E-02  0.9032950E-01
          2   -1    0    0  501    0  0.00000000000E+00  0.00000000000E+00  0.13656361121E+04  0.13656361121E+04  0.00000000000E+00 0. -1.
         -2   -1    0    0    0  501 -0.00000000000E+00 -0.00000000000E+00 -0.30735537241E+03  0.30735537241E+03  0.00000000000E+00 0.  1.
         23    2    1    2    0    0 -0.40882204658E+02 -0.30948976004E+01 -0.13916596649E+03  0.17247908314E+03  0.93278801679E+02 0.  0.
        254    2    1    2    0    0  0.40882204658E+02  0.30948976004E+01  0.11974467062E+04  0.15005124014E+04  0.90331496143E+03 0.  0.
        -24    2    4    4    0    0 -0.25453132027E+03  0.28462766314E+03  0.24286063861E+03  0.45921437360E+03  0.78086180003E+02 0.  0.
         24    2    4    4    0    0  0.29541352493E+03 -0.28153276554E+03  0.95458606761E+03  0.10412980278E+04  0.80852789128E+02 0.  0.
         13    1    3    3    0    0 -0.32480291498E+02 -0.25578010399E+02 -0.14238211817E+03  0.14826284607E+03  0.00000000000E+00 0.  1.
        -13    1    3    3    0    0 -0.84019131599E+01  0.22483112798E+02  0.32161516819E+01  0.24216237063E+02  0.00000000000E+00 0. -1.
          2    1    6    6  502    0  0.23784529603E+02 -0.46191948092E+02  0.18085648000E+03  0.18817137475E+03  0.00000000000E+00 0. -1.
          3    1    5    5  503    0 -0.14314330676E+02  0.16463861757E+02  0.41050448244E+02  0.46487612411E+02  0.00000000000E+00 0. -1.
         -4    1    5    5    0  503 -0.24021698959E+03  0.26816380138E+03  0.20181019037E+03  0.41272676119E+03  0.00000000000E+00 0.  1.
         -1    1    6    6    0  502  0.27162899532E+03 -0.23534081745E+03  0.77372958761E+03  0.85312665308E+03  0.00000000000E+00 0.  1.
<mgrwt>
<rscale>  0 0.12957401E+04</rscale>
<asrwt>0</asrwt>
<pdfrwt beam="1">  1        2 0.21009786E+00 0.12957401E+04</pdfrwt>
<pdfrwt beam="2">  1       -2 0.47285443E-01 0.12957401E+04</pdfrwt>
<totfact> 0.62916838E+01</totfact>
</mgrwt>
</event>
<event>
12    1  0.1519630E-007  0.3119590E+04  0.7818608E-02  0.8210382E-01
          1   -1    0    0  501    0  0.00000000000E+00  0.00000000000E+00  0.11727326271E+04  0.11727326271E+04  0.00000000000E+00 0. -1.
         -1   -1    0    0    0  501 -0.00000000000E+00 -0.00000000000E+00 -0.20746081921E+04  0.20746081921E+04  0.00000000000E+00 0.  1.
         23    2    1    2    0    0 -0.11431768977E+04 -0.85902091184E+03 -0.35522994033E+03  0.14758083445E+04  0.83973880611E+02 0.  0.
        254    2    1    2    0    0  0.11431768977E+04  0.85902091184E+03 -0.54664562463E+03  0.17715324747E+04  0.89147940168E+03 0.  0.
        -24    2    4    4    0    0  0.29981087557E+03  0.26537571108E+03  0.23861236453E+03  0.47280241551E+03  0.79343773964E+02 0.  0.
         24    2    4    4    0    0  0.84336602213E+03  0.59364520076E+03 -0.78525798915E+03  0.12987300592E+04  0.79929878499E+02 0.  0.
         11    1    3    3    0    0 -0.60100436186E+03 -0.46963565985E+03 -0.14887383404E+03  0.77712760499E+03  0.00000000000E+00 0. -1.
        -11    1    3    3    0    0 -0.54217253584E+03 -0.38938525199E+03 -0.20635610629E+03  0.69868073946E+03  0.00000000000E+00 0.  1.
          4    1    6    6  502    0  0.22175581965E+03  0.15216148068E+03 -0.16196293707E+03  0.31394386876E+03  0.00000000000E+00 0. -1.
          3    1    5    5  503    0  0.85086559716E+01  0.23030668750E+02 -0.82010324386E+00  0.24565860434E+02  0.00000000000E+00 0. -1.
         -4    1    5    5    0  503  0.29130221960E+03  0.24234504233E+03  0.23943246777E+03  0.44823655508E+03  0.00000000000E+00 0.  1.
         -3    1    6    6    0  502  0.62161020249E+03  0.44148372009E+03 -0.62329505208E+03  0.98478619044E+03  0.00000000000E+00 0.  1.
<mgrwt>
<rscale>  0 0.31195902E+04</rscale>
<asrwt>0</asrwt>
<pdfrwt beam="1">  1        1 0.18042041E+00 0.31195902E+04</pdfrwt>
<pdfrwt beam="2">  1       -1 0.31917049E+00 0.31195902E+04</pdfrwt>
<totfact> 0.23357123E-01</totfact>
</mgrwt>
</event>
<event>
12    1  0.1519630E-007  0.2602130E+04  0.7818608E-02  0.8367478E-01
          1   -1    0    0  501    0  0.00000000000E+00  0.00000000000E+00  0.22477366018E+04  0.22477366018E+04  0.00000000000E+00 0. -1.
         -1   -1    0    0    0  501 -0.00000000000E+00 -0.00000000000E+00 -0.75309960131E+03  0.75309960131E+03  0.00000000000E+00 0.  1.
         23    2    1    2    0    0 -0.11031492397E+04 -0.30503638174E+03  0.62745416193E+03  0.13085131364E+04  0.92317190426E+02 0.  0.
        254    2    1    2    0    0  0.11031492397E+04  0.30503638174E+03  0.86718283859E+03  0.16923230667E+04  0.89552545891E+03 0.  0.
        -24    2    4    4    0    0  0.51833626123E+03  0.15114282758E+03  0.93040376473E+03  0.10786743220E+04  0.79815371314E+02 0.  0.
         24    2    4    4    0    0  0.58481297843E+03  0.15389355415E+03 -0.63220926135E+02  0.61364874474E+03  0.82936425493E+02 0.  0.
         11    1    3    3    0    0 -0.87604109077E+03 -0.27802579915E+03  0.48759022366E+03  0.10404280676E+04  0.00000000000E+00 0.  1.
        -11    1    3    3    0    0 -0.22710814888E+03 -0.27010582584E+02  0.13986393827E+03  0.26808506876E+03  0.00000000000E+00 0. -1.
          2    1    6    6  502    0  0.55736116815E+03  0.12695693449E+03 -0.54640599335E+02  0.57424309319E+03  0.00000000000E+00 0. -1.
          3    1    5    5  503    0  0.34859683188E+03  0.71134164627E+02  0.56023339978E+03  0.66365750414E+03  0.00000000000E+00 0. -1.
         -4    1    5    5    0  503  0.16973942935E+03  0.80008662955E+02  0.37017036495E+03  0.41501681786E+03  0.00000000000E+00 0.  1.
         -1    1    6    6    0  502  0.27451810275E+02  0.26936619663E+02 -0.85803267998E+01  0.39405651552E+02  0.00000000000E+00 0.  1.
<mgrwt>
<rscale>  0 0.26021295E+04</rscale>
<asrwt>0</asrwt>
<pdfrwt beam="1">  1        1 0.34580563E+00 0.26021295E+04</pdfrwt>
<pdfrwt beam="2">  1       -1 0.11586148E+00 0.26021295E+04</pdfrwt>
<totfact> 0.11994491E+00</totfact>
</mgrwt>
</event>
<event>
12    1  0.1519630E-007  0.1579851E+04  0.7818608E-02  0.8833023E-01
         -2   -1    0    0    0  501 -0.00000000000E+00  0.00000000000E+00  0.38922865320E+03  0.38922865320E+03  0.00000000000E+00 0.  1.
          2   -1    0    0  501    0  0.00000000000E+00 -0.00000000000E+00 -0.16031257166E+04  0.16031257166E+04  0.00000000000E+00 0. -1.
         23    2    1    2    0    0 -0.77093184035E+02  0.43013953194E+03 -0.79166394093E+03  0.90876962527E+03  0.90371790285E+02 0.  0.
        254    2    1    2    0    0  0.77093184035E+02 -0.43013953194E+03 -0.42223312248E+03  0.10835847445E+04  0.89716872044E+03 0.  0.
        -24    2    4    4    0    0 -0.23837465892E+03 -0.77967013041E+01  0.15645528107E+03  0.29624600667E+03  0.80001093275E+02 0.  0.
         24    2    4    4    0    0  0.31546784296E+03 -0.42234283064E+03 -0.57868840355E+03  0.78733873788E+03  0.84430996869E+02 0.  0.
         13    1    3    3    0    0 -0.81445094880E+02  0.42784842081E+03 -0.75370520256E+03  0.87049359966E+03  0.00000000000E+00 0. -1.
        -13    1    3    3    0    0  0.43519108452E+01  0.22911111271E+01 -0.37958738371E+02  0.38276025615E+02  0.00000000000E+00 0.  1.
          4    1    6    6  502    0  0.25647272514E+03 -0.37814043215E+03 -0.46558505898E+03  0.65233265464E+03  0.00000000000E+00 0. -1.
          1    1    5    5  503    0 -0.17043133554E+03  0.24709808462E+02  0.83507411557E+02  0.19139201278E+03  0.00000000000E+00 0. -1.
         -2    1    5    5    0  503 -0.67943323378E+02 -0.32506509766E+02  0.72947869513E+02  0.10485399389E+03  0.00000000000E+00 0.  1.
         -3    1    6    6    0  502  0.58995117821E+02 -0.44202398491E+02 -0.11310334457E+03  0.13500608324E+03  0.00000000000E+00 0.  1.
<mgrwt>
<rscale>  0 0.15798512E+04</rscale>
<asrwt>0</asrwt>
<pdfrwt beam="1">  1        2 0.24663473E+00 0.15798512E+04</pdfrwt>
<pdfrwt beam="2">  1       -2 0.59881331E-01 0.15798512E+04</pdfrwt>
<totfact> 0.27739918E+01</totfact>
</mgrwt>
</event>
<event>
12    1  0.1519630E-007  0.1293465E+04  0.7818608E-02  0.9034764E-01
          2   -1    0    0  501    0  0.00000000000E+00  0.00000000000E+00  0.12648740382E+04  0.12648740382E+04  0.00000000000E+00 0. -1.
         -2   -1    0    0    0  501 -0.00000000000E+00 -0.00000000000E+00 -0.33067530953E+03  0.33067530953E+03  0.00000000000E+00 0.  1.
         23    2    1    2    0    0 -0.27783317332E+03 -0.69140871720E+02  0.45191311577E+02  0.30379380851E+03  0.90976321684E+02 0.  0.
        254    2    1    2    0    0  0.27783317332E+03  0.69140871720E+02  0.88900741712E+03  0.12917555392E+04  0.89237125298E+03 0.  0.
        -24    2    4    4    0    0  0.48236205026E+03 -0.22947930359E+03  0.67242508252E+03  0.86238917807E+03  0.78903133991E+02 0.  0.
         24    2    4    4    0    0 -0.20452887694E+03  0.29862017531E+03  0.21658233461E+03  0.42936636118E+03  0.80258917532E+02 0.  0.
         11    1    3    3    0    0 -0.16586936774E+03 -0.81866800487E+02  0.47909697942E+02  0.19107631809E+03  0.00000000000E+00 0. -1.
        -11    1    3    3    0    0 -0.11196380557E+03  0.12725928767E+02 -0.27183863654E+01  0.11271749042E+03  0.00000000000E+00 0.  1.
          4    1    6    6  502    0 -0.88479845557E+01  0.90272226139E+01 -0.70143048824E+01  0.14456073181E+02  0.00000000000E+00 0. -1.
          3    1    5    5  503    0  0.47488845062E+02 -0.61619579073E+01  0.90382129729E+02  0.10228435611E+03  0.00000000000E+00 0. -1.
         -4    1    5    5    0  503  0.43487320520E+03 -0.22331734568E+03  0.58204295279E+03  0.76010482196E+03  0.00000000000E+00 0.  1.
         -3    1    6    6    0  502 -0.19568089239E+03  0.28959295269E+03  0.22359663949E+03  0.41491028800E+03  0.00000000000E+00 0.  1.
<mgrwt>
<rscale>  0 0.12934645E+04</rscale>
<asrwt>0</asrwt>
<pdfrwt beam="1">  1        2 0.19459600E+00 0.12934645E+04</pdfrwt>
<pdfrwt beam="2">  1       -2 0.50873125E-01 0.12934645E+04</pdfrwt>
<totfact> 0.62070741E+01</totfact>
</mgrwt>
</event>
<event>
12    1  0.1519630E-007  0.1150903E+04  0.7818608E-02  0.9156951E-01
         -2   -1    0    0    0  501 -0.00000000000E+00  0.00000000000E+00  0.75539476668E+03  0.75539476668E+03  0.00000000000E+00 0.  1.
          2   -1    0    0  501    0  0.00000000000E+00 -0.00000000000E+00 -0.43837251788E+03  0.43837251788E+03  0.00000000000E+00 0. -1.
         23    2    1    2    0    0 -0.27406160189E+02  0.10231748493E+03 -0.11476220759E+03  0.18121822346E+03  0.91922330722E+02 0.  0.
        254    2    1    2    0    0  0.27406160189E+02 -0.10231748493E+03  0.43178445639E+03  0.10125490611E+04  0.90972403455E+03 0.  0.
        -24    2    4    4    0    0  0.40474210489E+03 -0.13548512466E+03  0.44998543360E+03  0.62540451622E+03  0.80445807734E+02 0.  0.
         24    2    4    4    0    0 -0.37733594470E+03  0.33167639739E+02 -0.18200977212E+02  0.38714454489E+03  0.77891691315E+02 0.  0.
         11    1    3    3    0    0 -0.87498180556E+01  0.11403600634E+03 -0.10998651643E+03  0.15867515198E+03  0.00000000000E+00 0. -1.
        -11    1    3    3    0    0 -0.18656342133E+02 -0.11718521412E+02 -0.47756911552E+01  0.22543071483E+02  0.00000000000E+00 0.  1.
          4    1    6    6  502    0 -0.22986037924E+03  0.58139916672E+02 -0.83707709273E+01  0.23724694657E+03  0.00000000000E+00 0. -1.
          3    1    5    5  503    0  0.39497968282E+03 -0.12757024174E+03  0.40973422621E+03  0.58323687516E+03  0.00000000000E+00 0. -1.
         -4    1    5    5    0  503  0.97624220689E+01 -0.79148829257E+01  0.40251207387E+02  0.42167641060E+02  0.00000000000E+00 0.  1.
         -3    1    6    6    0  502 -0.14747556547E+03 -0.24972276934E+02 -0.98302062843E+01  0.14989759831E+03  0.00000000000E+00 0.  1.
<mgrwt>
<rscale>  0 0.11509028E+04</rscale>
<asrwt>0</asrwt>
<pdfrwt beam="1">  1        2 0.67441926E-01 0.11509028E+04</pdfrwt>
<pdfrwt beam="2">  1       -2 0.11621458E+00 0.11509028E+04</pdfrwt>
<totfact> 0.40753663E+01</totfact>
</mgrwt>
</event>
<event>
12    1  0.1519630E-007  0.1506492E+04  0.7818608E-02  0.8880147E-01
         -1   -1    0    0    0  501 -0.00000000000E+00  0.00000000000E+00  0.10178945069E+04  0.10178945069E+04  0.00000000000E+00 0.  1.
          1   -1    0    0  501    0  0.00000000000E+00 -0.00000000000E+00 -0.55740481959E+03  0.55740481959E+03  0.00000000000E+00 0. -1.
         23    2    1    2    0    0 -0.63398474816E+02  0.10633815652E+03  0.60054939050E+03  0.61945618372E+03  0.87972853665E+02 0.  0.
        254    2    1    2    0    0  0.63398474816E+02 -0.10633815652E+03 -0.14005970317E+03  0.95584314280E+03  0.93738584534E+03 0.  0.
        -24    2    4    4    0    0  0.51524301670E+02 -0.51471370947E+03 -0.12509177213E+03  0.53810710865E+03  0.79538371515E+02 0.  0.
         24    2    4    4    0    0  0.11874173147E+02  0.40837555295E+03 -0.14967931030E+02  0.41773603415E+03  0.85835697909E+02 0.  0.
         13    1    3    3    0    0 -0.23360824232E+02  0.38019830476E+01  0.29140127093E+02  0.37541046748E+02  0.00000000000E+00 0. -1.
        -13    1    3    3    0    0 -0.40037650585E+02  0.10253617348E+03  0.57140926341E+03  0.58191513698E+03  0.00000000000E+00 0.  1.
          4    1    6    6  502    0  0.19081702893E+02  0.35270564108E+02 -0.19372194148E+02  0.44535446376E+02  0.00000000000E+00 0. -1.
          1    1    5    5  503    0 -0.97178062306E+01 -0.26887269938E+03 -0.48112693832E+02  0.27331629212E+03  0.00000000000E+00 0. -1.
         -2    1    5    5    0  503  0.61242107900E+02 -0.24584101009E+03 -0.76979078303E+02  0.26479081653E+03  0.00000000000E+00 0.  1.
         -3    1    6    6    0  502 -0.72075297460E+01  0.37310498884E+03  0.44042631179E+01  0.37320058777E+03  0.00000000000E+00 0.  1.
<mgrwt>
<rscale>  0 0.15064917E+04</rscale>
<asrwt>0</asrwt>
<pdfrwt beam="1">  1        1 0.85754587E-01 0.15064917E+04</pdfrwt>
<pdfrwt beam="2">  1       -1 0.15659916E+00 0.15064917E+04</pdfrwt>
<totfact> 0.11416425E+01</totfact>
</mgrwt>
</event>
<event>
12    1  0.1519630E-007  0.1911300E+04  0.7818608E-02  0.8649252E-01
         -1   -1    0    0    0  501 -0.00000000000E+00  0.00000000000E+00  0.76903987289E+03  0.76903987289E+03  0.00000000000E+00 0.  1.
          1   -1    0    0  501    0  0.00000000000E+00 -0.00000000000E+00 -0.11875423156E+04  0.11875423156E+04  0.00000000000E+00 0. -1.
         23    2    1    2    0    0  0.37309693792E+03  0.20656402745E+03  0.44724212781E+03  0.62434369249E+03  0.88935386349E+02 0.  0.
        254    2    1    2    0    0 -0.37309693792E+03 -0.20656402745E+03 -0.86574457055E+03  0.13322384960E+04  0.91840934574E+03 0.  0.
        -24    2    4    4    0    0 -0.17022196309E+03  0.34825966539E+03 -0.21887160929E+03  0.45258001256E+03  0.81630724347E+02 0.  0.
         24    2    4    4    0    0 -0.20287497482E+03 -0.55482369284E+03 -0.64687296126E+03  0.87965848347E+03  0.79792443137E+02 0.  0.
         11    1    3    3    0    0  0.23058055449E+03  0.12998384375E+03  0.21347726054E+03  0.34005254375E+03  0.00000000000E+00 0. -1.
        -11    1    3    3    0    0  0.14251638343E+03  0.76580183701E+02  0.23376486727E+03  0.28429114874E+03  0.00000000000E+00 0.  1.
          2    1    6    6  502    0 -0.41141537419E+02 -0.93441603289E+02 -0.71636710699E+02  0.12472280323E+03  0.00000000000E+00 0. -1.
          1    1    5    5  503    0 -0.89187283392E+02  0.10952973600E+03 -0.53334922413E+02  0.15098261004E+03  0.00000000000E+00 0. -1.
         -2    1    5    5    0  503 -0.81034679702E+02  0.23872992939E+03 -0.16553668688E+03  0.30159740252E+03  0.00000000000E+00 0.  1.
         -1    1    6    6    0  502 -0.16173343740E+03 -0.46138208956E+03 -0.57523625056E+03  0.75493568024E+03  0.00000000000E+00 0.  1.
<mgrwt>
<rscale>  0 0.19113005E+04</rscale>
<asrwt>0</asrwt>
<pdfrwt beam="1">  1        1 0.18269882E+00 0.19113005E+04</pdfrwt>
<pdfrwt beam="2">  1       -1 0.11831383E+00 0.19113005E+04</pdfrwt>
<totfact> 0.65381242E+00</totfact>
</mgrwt>
</event>
<event>
12    1  0.1519630E-007  0.1641333E+04  0.7818608E-02  0.8795550E-01
          2   -1    0    0  501    0  0.00000000000E+00  0.00000000000E+00  0.20891251193E+04  0.20891251193E+04  0.00000000000E+00 0. -1.
         -2   -1    0    0    0  501 -0.00000000000E+00 -0.00000000000E+00 -0.32238059625E+03  0.32238059625E+03  0.00000000000E+00 0.  1.
         23    2    1    2    0    0 -0.41251457341E+03 -0.67332971907E+02  0.50663106407E+02  0.43354151978E+03  0.10339002196E+03 0.  0.
        254    2    1    2    0    0  0.41251457341E+03  0.67332971907E+02  0.17160814166E+04  0.19779641957E+04  0.89033978281E+03 0.  0.
        -24    2    4    4    0    0  0.20758954617E+03  0.38126962758E+03  0.36191928607E+03  0.57061394904E+03  0.78452282358E+02 0.  0.
         24    2    4    4    0    0  0.20492502723E+03 -0.31393665568E+03  0.13541621305E+04  0.14073502467E+04  0.79555958763E+02 0.  0.
         13    1    3    3    0    0 -0.38443509830E+03 -0.83541453381E+02  0.63822528932E+02  0.39855091825E+03  0.00000000000E+00 0.  1.
        -13    1    3    3    0    0 -0.28079475103E+02  0.16208481474E+02 -0.13159422526E+02  0.34990601524E+02  0.00000000000E+00 0. -1.
          2    1    6    6  502    0  0.73566519480E+02 -0.63095101146E+02  0.42980415945E+03  0.44059577853E+03  0.00000000000E+00 0. -1.
          3    1    5    5  503    0  0.17280618935E+03  0.29579183819E+03  0.24260776080E+03  0.41977769857E+03  0.00000000000E+00 0. -1.
         -4    1    5    5    0  503  0.34783356821E+02  0.85477789390E+02  0.11931152527E+03  0.15083625046E+03  0.00000000000E+00 0.  1.
         -1    1    6    6    0  502  0.13135850775E+03 -0.25084155453E+03  0.92435797107E+03  0.96675446817E+03  0.00000000000E+00 0.  1.
<mgrwt>
<rscale>  0 0.16413329E+04</rscale>
<asrwt>0</asrwt>
<pdfrwt beam="1">  1        2 0.32140386E+00 0.16413329E+04</pdfrwt>
<pdfrwt beam="2">  1       -2 0.49597016E-01 0.16413329E+04</pdfrwt>
<totfact> 0.21921614E+01</totfact>
</mgrwt>
</event>
<event>
12    1  0.1519630E-007  0.1797981E+04  0.7818608E-02  0.8707374E-01
          1   -1    0    0  501    0  0.00000000000E+00  0.00000000000E+00  0.22127016615E+04  0.22127016615E+04  0.00000000000E+00 0. -1.
         -1   -1    0    0    0  501 -0.00000000000E+00 -0.00000000000E+00 -0.36524765686E+03  0.36524765686E+03  0.00000000000E+00 0.  1.
         23    2    1    2    0    0 -0.34366396667E+03  0.33575985738E+03  0.13722700735E+04  0.14567735671E+04  0.90688848934E+02 0.  0.
        254    2    1    2    0    0  0.34366396667E+03 -0.33575985738E+03  0.47518393111E+03  0.11211757512E+04  0.89464836275E+03 0.  0.
        -24    2    4    4    0    0  0.12158105656E+03 -0.53603438614E+03  0.56923514965E+03  0.79524978493E+03  0.79238553733E+02 0.  0.
         24    2    4    4    0    0  0.22208291011E+03  0.20027452876E+03 -0.94051218543E+02  0.32592596631E+03  0.89170611589E+02 0.  0.
         13    1    3    3    0    0 -0.30987503257E+03  0.30975673852E+03  0.11539836554E+04  0.12343622037E+04  0.00000000000E+00 0. -1.
        -13    1    3    3    0    0 -0.33788934099E+02  0.26003118853E+02  0.21828641811E+03  0.22241136344E+03  0.00000000000E+00 0.  1.
          2    1    6    6  502    0  0.14560124059E+03  0.18015780428E+03 -0.56759958252E+02  0.23849161110E+03  0.00000000000E+00 0. -1.
          1    1    5    5  503    0  0.13228825163E+03 -0.49030957388E+03  0.53027404272E+03  0.73423035904E+03  0.00000000000E+00 0. -1.
         -2    1    5    5    0  503 -0.10707195071E+02 -0.45724812264E+02  0.38961106933E+02  0.61019425893E+02  0.00000000000E+00 0.  1.
         -1    1    6    6    0  502  0.76481669518E+02  0.20116724480E+02 -0.37291260291E+02  0.87434355205E+02  0.00000000000E+00 0.  1.
<mgrwt>
<rscale>  0 0.17979812E+04</rscale>
<asrwt>0</asrwt>
<pdfrwt beam="1">  1        1 0.34041563E+00 0.17979812E+04</pdfrwt>
<pdfrwt beam="2">  1       -1 0.56191949E-01 0.17979812E+04</pdfrwt>
<totfact> 0.64609470E+00</totfact>
</mgrwt>
</event>
<event>
12    1  0.1519630E-007  0.1563591E+04  0.7818608E-02  0.8843233E-01
          2   -1    0    0  501    0  0.00000000000E+00  0.00000000000E+00  0.22025710650E+04  0.22025710650E+04  0.00000000000E+00 0. -1.
         -2   -1    0    0    0  501 -0.00000000000E+00 -0.00000000000E+00 -0.27749586718E+03  0.27749586718E+03  0.00000000000E+00 0.  1.
         23    2    1    2    0    0  0.10999810498E+01 -0.35171351608E+03  0.44191285960E+02  0.36626189243E+03  0.92148232407E+02 0.  0.
        254    2    1    2    0    0 -0.10999810498E+01  0.35171351608E+03  0.18808839119E+04  0.21138050398E+04  0.89818920550E+03 0.  0.
        -24    2    4    4    0    0  0.42047506897E+03  0.33131032560E+02  0.87406171794E+03  0.97381256177E+03  0.80187715689E+02 0.  0.
         24    2    4    4    0    0 -0.42157505002E+03  0.31858248352E+03  0.10068221939E+04  0.11399924780E+04  0.81679851299E+02 0.  0.
         13    1    3    3    0    0 -0.30267189299E+02 -0.12120245185E+03  0.47371731929E+02  0.13360470826E+03  0.00000000000E+00 0. -1.
        -13    1    3    3    0    0  0.31367170349E+02 -0.23051106423E+03 -0.31804459691E+01  0.23265718416E+03  0.00000000000E+00 0.  1.
          2    1    6    6  502    0 -0.72454010403E+02  0.70227245932E+02  0.26162000049E+03  0.28040412685E+03  0.00000000000E+00 0. -1.
          3    1    5    5  503    0  0.32109533268E+03  0.43444453087E+02  0.72794232101E+03  0.79679963346E+03  0.00000000000E+00 0. -1.
         -4    1    5    5    0  503  0.99379736283E+02 -0.10313420528E+02  0.14611939693E+03  0.17701292830E+03  0.00000000000E+00 0.  1.
         -1    1    6    6    0  502 -0.34912103961E+03  0.24835523759E+03  0.74520219344E+03  0.85958835116E+03  0.00000000000E+00 0.  1.
<mgrwt>
<rscale>  0 0.15635912E+04</rscale>
<asrwt>0</asrwt>
<pdfrwt beam="1">  1        2 0.33885708E+00 0.15635912E+04</pdfrwt>
<pdfrwt beam="2">  1       -2 0.42691673E-01 0.15635912E+04</pdfrwt>
<totfact> 0.25764376E+01</totfact>
</mgrwt>
</event>
<event>
12    1  0.1519630E-007  0.2647732E+04  0.7818608E-02  0.8352166E-01
         -2   -1    0    0    0  501 -0.00000000000E+00  0.00000000000E+00  0.11885797283E+04  0.11885797283E+04  0.00000000000E+00 0.  1.
          2   -1    0    0  501    0  0.00000000000E+00 -0.00000000000E+00 -0.14745503579E+04  0.14745503579E+04  0.00000000000E+00 0. -1.
         23    2    1    2    0    0  0.27378055704E+03  0.21443339384E+03 -0.12465518370E+04  0.12971760860E+04  0.88525940080E+02 0.  0.
        254    2    1    2    0    0 -0.27378055704E+03 -0.21443339384E+03  0.96058120741E+03  0.13659540002E+04  0.90673954409E+03 0.  0.
        -24    2    4    4    0    0 -0.40140853397E+03 -0.32749518751E+03  0.16699446445E+03  0.55021538532E+03  0.80423318139E+02 0.  0.
         24    2    4    4    0    0  0.12762797694E+03  0.11306179367E+03  0.79358674296E+03  0.81573861487E+03  0.81103017854E+02 0.  0.
         11    1    3    3    0    0  0.77575379119E+02  0.50717941827E+02 -0.48843445107E+03  0.49715034151E+03  0.00000000000E+00 0.  1.
        -11    1    3    3    0    0  0.19620517792E+03  0.16371545201E+03 -0.75811738592E+03  0.80002574452E+03  0.00000000000E+00 0. -1.
          2    1    6    6  502    0  0.13045275499E+03  0.82389779503E+02  0.71212435487E+03  0.72864744139E+03  0.00000000000E+00 0. -1.
          3    1    5    5  503    0 -0.31641329966E+03 -0.21527717744E+03  0.13532213206E+03  0.40592329171E+03  0.00000000000E+00 0. -1.
         -4    1    5    5    0  503 -0.84995234314E+02 -0.11221801007E+03  0.31672332390E+02  0.14429209361E+03  0.00000000000E+00 0.  1.
         -1    1    6    6    0  502 -0.28247780534E+01  0.30672014171E+02  0.81462388091E+02  0.87091173478E+02  0.00000000000E+00 0.  1.
<mgrwt>
<rscale>  0 0.26477316E+04</rscale>
<asrwt>0</asrwt>
<pdfrwt beam="1">  1        2 0.22685390E+00 0.26477316E+04</pdfrwt>
<pdfrwt beam="2">  1       -2 0.18285842E+00 0.26477316E+04</pdfrwt>
<totfact> 0.20038110E+00</totfact>
</mgrwt>
</event>
<event>
12    1  0.1519630E-007  0.2268421E+04  0.7818608E-02  0.8490477E-01
          1   -1    0    0  501    0  0.00000000000E+00  0.00000000000E+00  0.19990763443E+04  0.19990763443E+04  0.00000000000E+00 0. -1.
         -1   -1    0    0    0  501 -0.00000000000E+00 -0.00000000000E+00 -0.64351394965E+03  0.64351394965E+03  0.00000000000E+00 0.  1.
         23    2    1    2    0    0 -0.38815354193E+03  0.81657448942E+03  0.37075495140E+03  0.98114896437E+03  0.87960146803E+02 0.  0.
        254    2    1    2    0    0  0.38815354193E+03 -0.81657448942E+03  0.98480744321E+03  0.16614413295E+04  0.98645046627E+03 0.  0.
        -24    2    4    4    0    0  0.42420339961E+03 -0.99267091432E+03  0.98673274529E+03  0.14647709628E+04  0.81045632080E+02 0.  0.
         24    2    4    4    0    0 -0.36049857682E+02  0.17609642490E+03 -0.19253020776E+01  0.19667036673E+03  0.79787112102E+02 0.  0.
         11    1    3    3    0    0 -0.66424526685E+02  0.16481828026E+03  0.10978973402E+03  0.20888051357E+03  0.00000000000E+00 0. -1.
        -11    1    3    3    0    0 -0.32172901524E+03  0.65175620916E+03  0.26096521738E+03  0.77226845081E+03  0.00000000000E+00 0.  1.
          4    1    6    6  502    0 -0.46951046843E+02  0.16613966530E+03  0.16071119493E+02  0.17339282011E+03  0.00000000000E+00 0. -1.
          1    1    5    5  503    0  0.37481671197E+03 -0.93044644935E+03  0.91528267158E+03  0.13579250832E+04  0.00000000000E+00 0. -1.
         -2    1    5    5    0  503  0.49386687638E+02 -0.62224464975E+02  0.71450073708E+02  0.10684587961E+03  0.00000000000E+00 0.  1.
         -3    1    6    6    0  502  0.10901189162E+02  0.99567596045E+01 -0.17996421570E+02  0.23277546612E+02  0.00000000000E+00 0.  1.
<mgrwt>
<rscale>  0 0.22684210E+04</rscale>
<asrwt>0</asrwt>
<pdfrwt beam="1">  1        1 0.30755020E+00 0.22684210E+04</pdfrwt>
<pdfrwt beam="2">  1       -1 0.99002147E-01 0.22684210E+04</pdfrwt>
<totfact> 0.26373081E+00</totfact>
</mgrwt>
</event>
<event>
12    1  0.1519630E-007  0.2129876E+04  0.7818608E-02  0.8548196E-01
         -2   -1    0    0    0  501 -0.00000000000E+00  0.00000000000E+00  0.75678664189E+03  0.75678664189E+03  0.00000000000E+00 0.  1.
          2   -1    0    0  501    0  0.00000000000E+00 -0.00000000000E+00 -0.14985630569E+04  0.14985630569E+04  0.00000000000E+00 0. -1.
         23    2    1    2    0    0  0.84001617033E+03 -0.22613204336E+03 -0.26828521768E+03  0.91503909860E+03  0.92502575570E+02 0.  0.
        254    2    1    2    0    0 -0.84001617033E+03  0.22613204336E+03 -0.47349119731E+03  0.13403106002E+04  0.90303694473E+03 0.  0.
        -24    2    4    4    0    0 -0.61911032181E+03  0.15380273184E+03  0.15903241487E+03  0.66251323124E+03  0.81728830232E+02 0.  0.
         24    2    4    4    0    0 -0.22090584852E+03  0.72329311522E+02 -0.63252361218E+03  0.67779736893E+03  0.72747715734E+02 0.  0.
         13    1    3    3    0    0  0.25721772665E+03 -0.98940041824E+02 -0.51557373083E+02  0.28037163462E+03  0.00000000000E+00 0.  1.
        -13    1    3    3    0    0  0.58279844368E+03 -0.12719200153E+03 -0.21672784460E+03  0.63466746398E+03  0.00000000000E+00 0. -1.
          4    1    6    6  502    0 -0.45514066964E+02  0.27407386128E+02 -0.77284834801E+02  0.93785077684E+02  0.00000000000E+00 0. -1.
          1    1    5    5  503    0 -0.57111971629E+02  0.43083462630E+01 -0.70855595908E+01  0.57710868176E+02  0.00000000000E+00 0. -1.
         -4    1    5    5    0  503 -0.56199835018E+03  0.14949438557E+03  0.16611797446E+03  0.60480236306E+03  0.00000000000E+00 0.  1.
         -3    1    6    6    0  502 -0.17539178156E+03  0.44921925394E+02 -0.55523877738E+03  0.58401229125E+03  0.00000000000E+00 0.  1.
<mgrwt>
<rscale>  0 0.21298756E+04</rscale>
<asrwt>0</asrwt>
<pdfrwt beam="1">  1        2 0.23054816E+00 0.21298756E+04</pdfrwt>
<pdfrwt beam="2">  1       -2 0.11642871E+00 0.21298756E+04</pdfrwt>
<totfact> 0.66896989E+00</totfact>
</mgrwt>
</event>
<event>
12    1  0.1519630E-007  0.1927141E+04  0.7818608E-02  0.8641463E-01
          2   -1    0    0  501    0  0.00000000000E+00  0.00000000000E+00  0.12442426232E+04  0.12442426232E+04  0.00000000000E+00 0. -1.
         -2   -1    0    0    0  501 -0.00000000000E+00 -0.00000000000E+00 -0.74621168699E+03  0.74621168699E+03  0.00000000000E+00 0.  1.
         23    2    1    2    0    0  0.24098164338E+03 -0.37557508891E+02 -0.54801955091E+03  0.60668658683E+03  0.90887114267E+02 0.  0.
        254    2    1    2    0    0 -0.24098164338E+03  0.37557508891E+02  0.10460504871E+04  0.13837677233E+04  0.87241548110E+03 0.  0.
        -24    2    4    4    0    0 -0.41708073394E+03 -0.10041899846E+03  0.10596595652E+04  0.11459173103E+04  0.78789428771E+02 0.  0.
         24    2    4    4    0    0  0.17609909056E+03  0.13797650735E+03 -0.13609078157E+02  0.23785041297E+03  0.79619128780E+02 0.  0.
         11    1    3    3    0    0  0.23647199320E+03 -0.16979736954E+02 -0.47796815539E+03  0.53353619614E+03  0.00000000000E+00 0.  1.
        -11    1    3    3    0    0  0.45096501854E+01 -0.20577771937E+02 -0.70051395524E+02  0.73150390686E+02  0.00000000000E+00 0. -1.
          2    1    6    6  502    0  0.55460134172E+02  0.78682636464E+02 -0.33578199682E+02  0.10195233816E+03  0.00000000000E+00 0. -1.
          3    1    5    5  503    0 -0.77026438890E+02 -0.34264811591E+02  0.28750180686E+03  0.29960714035E+03  0.00000000000E+00 0. -1.
         -4    1    5    5    0  503 -0.34005429505E+03 -0.66154186867E+02  0.77215775837E+03  0.84631016999E+03  0.00000000000E+00 0.  1.
         -1    1    6    6    0  502  0.12063895638E+03  0.59293870886E+02  0.19969121524E+02  0.13589807481E+03  0.00000000000E+00 0.  1.
<mgrwt>
<rscale>  0 0.19271413E+04</rscale>
<asrwt>0</asrwt>
<pdfrwt beam="1">  1        2 0.19142194E+00 0.19271413E+04</pdfrwt>
<pdfrwt beam="2">  1       -2 0.11480180E+00 0.19271413E+04</pdfrwt>
<totfact> 0.98666061E+00</totfact>
</mgrwt>
</event>
<event>
12    1  0.1519630E-007  0.1184596E+04  0.7818608E-02  0.9126448E-01
          2   -1    0    0  501    0  0.00000000000E+00  0.00000000000E+00  0.33327298074E+03  0.33327298074E+03  0.00000000000E+00 0. -1.
         -2   -1    0    0    0  501 -0.00000000000E+00 -0.00000000000E+00 -0.10526405733E+04  0.10526405733E+04  0.00000000000E+00 0.  1.
         23    2    1    2    0    0 -0.66596983356E+02 -0.12989161294E+03 -0.36119348719E+03  0.39905587843E+03  0.86474676133E+02 0.  0.
        254    2    1    2    0    0  0.66596983356E+02  0.12989161294E+03 -0.35817410539E+03  0.98685767563E+03  0.90790549777E+03 0.  0.
        -24    2    4    4    0    0 -0.97039919702E+02 -0.34315950962E+03  0.17005910081E+00  0.36622478384E+03  0.83338876438E+02 0.  0.
         24    2    4    4    0    0  0.16363690306E+03  0.47305112256E+03 -0.35834416449E+03  0.62063289179E+03  0.78868533307E+02 0.  0.
         13    1    3    3    0    0  0.43191909634E+01 -0.32113619804E+02 -0.22445820314E+02  0.39417697004E+02  0.00000000000E+00 0. -1.
        -13    1    3    3    0    0 -0.70916174319E+02 -0.97777993140E+02 -0.33874766688E+03  0.35963818142E+03  0.00000000000E+00 0.  1.
          4    1    6    6  502    0  0.12215865188E+03  0.32550329838E+03 -0.29032659864E+03  0.45295106509E+03  0.00000000000E+00 0. -1.
          3    1    5    5  503    0 -0.69432821800E+02 -0.32207048272E+03  0.11537922275E+02  0.32967170978E+03  0.00000000000E+00 0. -1.
         -4    1    5    5    0  503 -0.27607097902E+02 -0.21089026897E+02 -0.11367863175E+02  0.36553074059E+02  0.00000000000E+00 0.  1.
         -3    1    6    6    0  502  0.41478251178E+02  0.14754782418E+03 -0.68017565846E+02  0.16768182670E+03  0.00000000000E+00 0.  1.
<mgrwt>
<rscale>  0 0.11845956E+04</rscale>
<asrwt>0</asrwt>
<pdfrwt beam="1">  1        2 0.51272767E-01 0.11845956E+04</pdfrwt>
<pdfrwt beam="2">  1       -2 0.16194470E+00 0.11845956E+04</pdfrwt>
<totfact> 0.23471131E+01</totfact>
</mgrwt>
</event>
<event>
12    1  0.1519630E-007  0.2117454E+04  0.7818608E-02  0.8553593E-01
         -1   -1    0    0    0  501 -0.00000000000E+00  0.00000000000E+00  0.11091025465E+04  0.11091025465E+04  0.00000000000E+00 0.  1.
          1   -1    0    0  501    0  0.00000000000E+00 -0.00000000000E+00 -0.10106396363E+04  0.10106396363E+04  0.00000000000E+00 0. -1.
         23    2    1    2    0    0 -0.38421337879E+02  0.74297789431E+03  0.48373751031E+03  0.89200212432E+03  0.90407191461E+02 0.  0.
        254    2    1    2    0    0  0.38421337879E+02 -0.74297789431E+03 -0.38527460005E+03  0.12277400584E+04  0.89745015628E+03 0.  0.
        -24    2    4    4    0    0  0.41600624502E+03 -0.58808657607E+03 -0.12048113544E+03  0.73463867754E+03  0.79191323349E+02 0.  0.
         24    2    4    4    0    0 -0.37758490714E+03 -0.15489131824E+03 -0.26479346462E+03  0.49310138090E+03  0.80446941366E+02 0.  0.
         13    1    3    3    0    0 -0.31850363951E+02  0.17076238378E+03  0.15021640833E+03  0.22965018339E+03  0.00000000000E+00 0. -1.
        -13    1    3    3    0    0 -0.65709739280E+01  0.57221551053E+03  0.33352110198E+03  0.66235194093E+03  0.00000000000E+00 0.  1.
          2    1    6    6  502    0 -0.77348620264E+02 -0.20799194634E+02 -0.90821956961E+02  0.12109518331E+03  0.00000000000E+00 0. -1.
          1    1    5    5  503    0  0.33875209988E+02 -0.59135341347E+02 -0.34713886975E+02  0.76482497323E+02  0.00000000000E+00 0. -1.
         -2    1    5    5    0  503  0.38213103503E+03 -0.52895123472E+03 -0.85767248460E+02  0.65815618022E+03  0.00000000000E+00 0.  1.
         -1    1    6    6    0  502 -0.30023628688E+03 -0.13409212361E+03 -0.17397150766E+03  0.37200619759E+03  0.00000000000E+00 0.  1.
<mgrwt>
<rscale>  0 0.21174541E+04</rscale>
<asrwt>0</asrwt>
<pdfrwt beam="1">  1        1 0.15548302E+00 0.21174541E+04</pdfrwt>
<pdfrwt beam="2">  1       -1 0.17063116E+00 0.21174541E+04</pdfrwt>
<totfact> 0.33186068E+00</totfact>
</mgrwt>
</event>
<event>
12    1  0.1519630E-007  0.1840295E+04  0.7818608E-02  0.8685160E-01
          1   -1    0    0  501    0  0.00000000000E+00  0.00000000000E+00  0.12292529987E+04  0.12292529987E+04  0.00000000000E+00 0. -1.
         -1   -1    0    0    0  501 -0.00000000000E+00 -0.00000000000E+00 -0.68876912426E+03  0.68876912426E+03  0.00000000000E+00 0.  1.
         23    2    1    2    0    0 -0.30771971593E+03 -0.62059540804E+03  0.16336152090E+03  0.71777021611E+03  0.93150483447E+02 0.  0.
        254    2    1    2    0    0  0.30771971593E+03  0.62059540804E+03  0.37712235351E+03  0.12002519068E+04  0.90473934715E+03 0.  0.
        -24    2    4    4    0    0  0.36371191831E+03  0.81212407186E+03  0.41067831755E+03  0.98361646830E+03  0.83742513633E+02 0.  0.
         24    2    4    4    0    0 -0.55992202376E+02 -0.19152866382E+03 -0.33555964047E+02  0.21663543853E+03  0.77372829270E+02 0.  0.
         13    1    3    3    0    0 -0.27398812153E+01 -0.46869012381E+02 -0.30519719036E+01  0.47048122207E+02  0.00000000000E+00 0. -1.
        -13    1    3    3    0    0 -0.30497983471E+03 -0.57372639566E+03  0.16641349281E+03  0.67072209390E+03  0.00000000000E+00 0.  1.
          2    1    6    6  502    0 -0.44433729582E+02 -0.34072343257E+02 -0.12329076747E+02  0.57334867515E+02  0.00000000000E+00 0. -1.
          3    1    5    5  503    0  0.10210509171E+03  0.15389033312E+03  0.10183140365E+03  0.21089646547E+03  0.00000000000E+00 0. -1.
         -4    1    5    5    0  503  0.26160682660E+03  0.65823373874E+03  0.30884691391E+03  0.77272000283E+03  0.00000000000E+00 0.  1.
         -1    1    6    6    0  502 -0.11558472794E+02 -0.15745632057E+03 -0.21226887300E+02  0.15930057101E+03  0.00000000000E+00 0.  1.
<mgrwt>
<rscale>  0 0.18402951E+04</rscale>
<asrwt>0</asrwt>
<pdfrwt beam="1">  1        1 0.18911585E+00 0.18402951E+04</pdfrwt>
<pdfrwt beam="2">  1       -1 0.10596448E+00 0.18402951E+04</pdfrwt>
<totfact> 0.79731802E+00</totfact>
</mgrwt>
</event>
<event>
12    1  0.1519630E-007  0.1191684E+04  0.7818608E-02  0.9120167E-01
         -2   -1    0    0    0  501 -0.00000000000E+00  0.00000000000E+00  0.29708262847E+03  0.29708262847E+03  0.00000000000E+00 0.  1.
          2   -1    0    0  501    0  0.00000000000E+00 -0.00000000000E+00 -0.11950464298E+04  0.11950464298E+04  0.00000000000E+00 0. -1.
         23    2    1    2    0    0  0.51279665237E+02 -0.12135850924E+03  0.10271813454E+03  0.18962549551E+03  0.89718011308E+02 0.  0.
        254    2    1    2    0    0 -0.51279665237E+02  0.12135850924E+03 -0.10006819358E+04  0.13025035627E+04  0.82328227382E+03 0.  0.
        -24    2    4    4    0    0  0.37204399265E+03  0.47363974441E+01 -0.37644965653E+03  0.53532066617E+03  0.80091858571E+02 0.  0.
         24    2    4    4    0    0 -0.42332365788E+03  0.11662211180E+03 -0.62423227931E+03  0.76718289655E+03  0.78102637284E+02 0.  0.
         13    1    3    3    0    0 -0.15825876057E+01 -0.21079483318E+02 -0.15215075218E+02  0.26045109222E+02  0.00000000000E+00 0. -1.
        -13    1    3    3    0    0  0.52862252843E+02 -0.10027902592E+03  0.11793320976E+03  0.16358038629E+03  0.00000000000E+00 0.  1.
          4    1    6    6  502    0 -0.40669472499E+03  0.12068498443E+03 -0.61660329188E+03  0.74844177086E+03  0.00000000000E+00 0. -1.
          1    1    5    5  503    0  0.32353611323E+03  0.31093242564E+02 -0.32979161299E+03  0.46303878271E+03  0.00000000000E+00 0. -1.
         -2    1    5    5    0  503  0.48507879416E+02 -0.26356845120E+02 -0.46658043533E+02  0.72281883459E+02  0.00000000000E+00 0.  1.
         -3    1    6    6    0  502 -0.16628932894E+02 -0.40628726341E+01 -0.76289874217E+01  0.18741125695E+02  0.00000000000E+00 0.  1.
<mgrwt>
<rscale>  0 0.11916837E+04</rscale>
<asrwt>0</asrwt>
<pdfrwt beam="1">  1        2 0.18385330E+00 0.11916837E+04</pdfrwt>
<pdfrwt beam="2">  1       -2 0.45705019E-01 0.11916837E+04</pdfrwt>
<totfact> 0.85429914E+01</totfact>
</mgrwt>
</event>
<event>
12    1  0.1519630E-007  0.2216198E+04  0.7818608E-02  0.8511716E-01
          1   -1    0    0  501    0  0.00000000000E+00  0.00000000000E+00  0.31140641935E+04  0.31140641935E+04  0.00000000000E+00 0. -1.
         -1   -1    0    0    0  501 -0.00000000000E+00 -0.00000000000E+00 -0.39430254859E+03  0.39430254859E+03  0.00000000000E+00 0.  1.
         23    2    1    2    0    0 -0.80707940408E+03 -0.44417719233E+03  0.10709021673E+04  0.14155554445E+04  0.91078109125E+02 0.  0.
        254    2    1    2    0    0  0.80707940408E+03  0.44417719233E+03  0.16488594776E+04  0.20928112975E+04  0.90136064229E+03 0.  0.
        -24    2    4    4    0    0  0.11186177148E+03  0.23864863611E+03 -0.15339233929E+02  0.27581598329E+03  0.79830677708E+02 0.  0.
         24    2    4    4    0    0  0.69521763260E+03  0.20552855622E+03  0.16641987115E+04  0.18169953142E+04  0.79655987737E+02 0.  0.
         11    1    3    3    0    0 -0.86342697173E+02 -0.23154802857E+02  0.80195981144E+02  0.12009413658E+03  0.00000000000E+00 0.  1.
        -11    1    3    3    0    0 -0.72073670691E+03 -0.42102238948E+03  0.99070618612E+03  0.12954613079E+04  0.00000000000E+00 0. -1.
          2    1    6    6  502    0  0.33413863104E+01  0.92105356509E+01  0.29532347101E+02  0.31115243125E+02  0.00000000000E+00 0. -1.
          1    1    5    5  503    0  0.23897573258E+02  0.92692971363E+01 -0.15870572293E+02  0.30147785025E+02  0.00000000000E+00 0. -1.
         -2    1    5    5    0  503  0.87964198224E+02  0.22937933897E+03  0.53133836434E+00  0.24566819826E+03  0.00000000000E+00 0.  1.
         -1    1    6    6    0  502  0.69187624629E+03  0.19631802057E+03  0.16346663644E+04  0.17858800711E+04  0.00000000000E+00 0.  1.
<mgrwt>
<rscale>  0 0.22161980E+04</rscale>
<asrwt>0</asrwt>
<pdfrwt beam="1">  1        1 0.47908678E+00 0.22161980E+04</pdfrwt>
<pdfrwt beam="2">  1       -1 0.60661932E-01 0.22161980E+04</pdfrwt>
<totfact> 0.12376193E+00</totfact>
</mgrwt>
</event>
<event>
12    1  0.1519630E-007  0.1323815E+04  0.7818608E-02  0.9010890E-01
         -2   -1    0    0    0  501 -0.00000000000E+00  0.00000000000E+00  0.37948277069E+03  0.37948277069E+03  0.00000000000E+00 0.  1.
          2   -1    0    0  501    0  0.00000000000E+00 -0.00000000000E+00 -0.11545231200E+04  0.11545231200E+04  0.00000000000E+00 0. -1.
         23    2    1    2    0    0 -0.23956376616E+03 -0.22227180335E+03 -0.31721702895E+03  0.46489160982E+03  0.93284579633E+02 0.  0.
        254    2    1    2    0    0  0.23956376616E+03  0.22227180335E+03 -0.45782332038E+03  0.10691142809E+04  0.90917963038E+03 0.  0.
        -24    2    4    4    0    0  0.48262795723E+02  0.14098074743E+03  0.26409749231E+03  0.31354649776E+03  0.79743665686E+02 0.  0.
         24    2    4    4    0    0  0.19130097044E+03  0.81291055926E+02 -0.72192081269E+03  0.75556778313E+03  0.80676626402E+02 0.  0.
         11    1    3    3    0    0 -0.14446258589E+03 -0.13170060809E+03 -0.12478935628E+03  0.23191996968E+03  0.00000000000E+00 0.  1.
        -11    1    3    3    0    0 -0.95101180275E+02 -0.90571195260E+02 -0.19242767267E+03  0.23297164014E+03  0.00000000000E+00 0. -1.
          2    1    6    6  502    0  0.15754418683E+03  0.97699785378E+02 -0.60633194512E+03  0.63403773274E+03  0.00000000000E+00 0. -1.
          1    1    5    5  503    0  0.66540078292E+02  0.11678543358E+03  0.18371520534E+03  0.22763500651E+03  0.00000000000E+00 0. -1.
         -2    1    5    5    0  503 -0.18277282570E+02  0.24195313847E+02  0.80382286968E+02  0.85911491248E+02  0.00000000000E+00 0.  1.
         -1    1    6    6    0  502  0.33756783611E+02 -0.16408729452E+02 -0.11558886756E+03  0.12153005039E+03  0.00000000000E+00 0.  1.
<mgrwt>
<rscale>  0 0.13238151E+04</rscale>
<asrwt>0</asrwt>
<pdfrwt beam="1">  1        2 0.17761894E+00 0.13238151E+04</pdfrwt>
<pdfrwt beam="2">  1       -2 0.58381966E-01 0.13238151E+04</pdfrwt>
<totfact> 0.54167697E+01</totfact>
</mgrwt>
</event>
<event>
12    1  0.1519630E-007  0.1309110E+04  0.7818608E-02  0.9022372E-01
          2   -1    0    0  501    0  0.00000000000E+00  0.00000000000E+00  0.68020168321E+03  0.68020168321E+03  0.00000000000E+00 0. -1.
         -2   -1    0    0    0  501 -0.00000000000E+00 -0.00000000000E+00 -0.62987549756E+03  0.62987549756E+03  0.00000000000E+00 0.  1.
         23    2    1    2    0    0  0.12445502086E+02 -0.10777286784E+03 -0.30834881001E+03  0.33894679761E+03  0.89644081856E+02 0.  0.
        254    2    1    2    0    0 -0.12445502086E+02  0.10777286784E+03  0.35867499566E+03  0.97113038317E+03  0.89592219921E+03 0.  0.
        -24    2    4    4    0    0  0.11402212655E+03 -0.37927547126E+02  0.62022913263E+03  0.63666904926E+03  0.78890792583E+02 0.  0.
         24    2    4    4    0    0 -0.12646762863E+03  0.14570041496E+03 -0.26155413697E+03  0.33446133391E+03  0.78937603855E+02 0.  0.
         13    1    3    3    0    0 -0.71606908556E+01 -0.66873264869E+02 -0.72965359607E+02  0.99233324797E+02  0.00000000000E+00 0. -1.
        -13    1    3    3    0    0  0.19606192942E+02 -0.40899602969E+02 -0.23538345040E+03  0.23971347281E+03  0.00000000000E+00 0.  1.
          4    1    6    6  502    0  0.96274421262E+01  0.23475585296E+02 -0.27724151563E+02  0.37582167670E+02  0.00000000000E+00 0. -1.
          1    1    5    5  503    0  0.17206222254E+02 -0.33984433446E+02  0.91133698342E+02  0.98774221204E+02  0.00000000000E+00 0. -1.
         -2    1    5    5    0  503  0.96815904292E+02 -0.39431136798E+01  0.52909543428E+03  0.53789482806E+03  0.00000000000E+00 0.  1.
         -3    1    6    6    0  502 -0.13609507076E+03  0.12222482967E+03 -0.23382998540E+03  0.29687916624E+03  0.00000000000E+00 0.  1.
<mgrwt>
<rscale>  0 0.13091102E+04</rscale>
<asrwt>0</asrwt>
<pdfrwt beam="1">  1        2 0.10464641E+00 0.13091102E+04</pdfrwt>
<pdfrwt beam="2">  1       -2 0.96903923E-01 0.13091102E+04</pdfrwt>
<totfact> 0.37034309E+01</totfact>
</mgrwt>
</event>
<event>
12    1  0.1519630E-007  0.3244588E+04  0.7818608E-02  0.8177140E-01
          2   -1    0    0  501    0  0.00000000000E+00  0.00000000000E+00  0.39268868016E+04  0.39268868016E+04  0.00000000000E+00 0. -1.
         -2   -1    0    0    0  501 -0.00000000000E+00 -0.00000000000E+00 -0.67020964621E+03  0.67020964621E+03  0.00000000000E+00 0.  1.
         23    2    1    2    0    0 -0.11653279672E+04 -0.40578815865E+03  0.26990407913E+04  0.29691723319E+04  0.92248808932E+02 0.  0.
        254    2    1    2    0    0  0.11653279672E+04  0.40578815865E+03  0.55763636409E+03  0.16279241159E+04  0.90361790141E+03 0.  0.
        -24    2    4    4    0    0  0.51312909340E+03 -0.22448206157E+03  0.42540969716E+03  0.70784171604E+03  0.79829957246E+02 0.  0.
         24    2    4    4    0    0  0.65219887379E+03  0.63027022021E+03  0.13222666693E+03  0.92008239986E+03  0.80397820960E+02 0.  0.
         11    1    3    3    0    0 -0.84570127636E+03 -0.29047604390E+03  0.20510177686E+04  0.22374675121E+04  0.00000000000E+00 0. -1.
        -11    1    3    3    0    0 -0.31962669083E+03 -0.11531211475E+03  0.64802302270E+03  0.73170481975E+03  0.00000000000E+00 0.  1.
          2    1    6    6  502    0  0.49307883157E+02  0.72727015904E+02  0.28539423535E+02  0.92384981893E+02  0.00000000000E+00 0. -1.
          3    1    5    5  503    0  0.15034495778E+03 -0.27202560656E+02  0.11378766774E+03  0.19050254320E+03  0.00000000000E+00 0. -1.
         -4    1    5    5    0  503  0.36278413562E+03 -0.19727950091E+03  0.31162202942E+03  0.51733917284E+03  0.00000000000E+00 0.  1.
         -1    1    6    6    0  502  0.60289099063E+03  0.55754320431E+03  0.10368724340E+03  0.82769741796E+03  0.00000000000E+00 0.  1.
<mgrwt>
<rscale>  0 0.32445877E+04</rscale>
<asrwt>0</asrwt>
<pdfrwt beam="1">  1        2 0.60413642E+00 0.32445877E+04</pdfrwt>
<pdfrwt beam="2">  1       -2 0.10310918E+00 0.32445877E+04</pdfrwt>
<totfact> 0.25174448E-01</totfact>
</mgrwt>
</event>
<event>
12    1  0.1519630E-007  0.1696998E+04  0.7818608E-02  0.8763078E-01
         -2   -1    0    0    0  501 -0.00000000000E+00  0.00000000000E+00  0.12381724806E+04  0.12381724806E+04  0.00000000000E+00 0.  1.
          2   -1    0    0  501    0  0.00000000000E+00 -0.00000000000E+00 -0.58146253528E+03  0.58146253528E+03  0.00000000000E+00 0. -1.
         23    2    1    2    0    0  0.48304206579E+03 -0.27630682251E+02 -0.14746216930E+03  0.51365080780E+03  0.89436955728E+02 0.  0.
        254    2    1    2    0    0 -0.48304206579E+03  0.27630682251E+02  0.80417211462E+03  0.13059842081E+04  0.90818988650E+03 0.  0.
        -24    2    4    4    0    0 -0.63852932101E+03 -0.10439560917E+03  0.23005878234E+03  0.69143119269E+03  0.80820256662E+02 0.  0.
         24    2    4    4    0    0  0.15548725522E+03  0.13202629143E+03  0.57411333228E+03  0.61455301540E+03  0.80386953386E+02 0.  0.
         13    1    3    3    0    0  0.15677120030E+03 -0.35392267355E+02 -0.83371273413E+02  0.18105411087E+03  0.00000000000E+00 0. -1.
        -13    1    3    3    0    0  0.32627086549E+03  0.77615851039E+01 -0.64090895884E+02  0.33259669692E+03  0.00000000000E+00 0.  1.
          2    1    6    6  502    0  0.86629301809E+02  0.12139236387E+03  0.37275682378E+03  0.40148274137E+03  0.00000000000E+00 0. -1.
          1    1    5    5  503    0 -0.64004037472E+03 -0.10303404538E+03  0.23207383578E+03  0.68856805113E+03  0.00000000000E+00 0. -1.
         -2    1    5    5    0  503  0.15110537049E+01 -0.13615637927E+01 -0.20150534404E+01  0.28631415662E+01  0.00000000000E+00 0.  1.
         -1    1    6    6    0  502  0.68857953414E+02  0.10633927551E+02  0.20135650850E+03  0.21307027404E+03  0.00000000000E+00 0.  1.
<mgrwt>
<rscale>  0 0.16969984E+04</rscale>
<asrwt>0</asrwt>
<pdfrwt beam="1">  1        2 0.89455775E-01 0.16969984E+04</pdfrwt>
<pdfrwt beam="2">  1       -2 0.19048807E+00 0.16969984E+04</pdfrwt>
<totfact> 0.75351340E+00</totfact>
</mgrwt>
</event>
<event>
12    1  0.1614941E-007  0.1971016E+04  0.7818608E-02  0.8620293E-01
          1   -1    0    0  501    0  0.00000000000E+00  0.00000000000E+00  0.11898012567E+04  0.11898012567E+04  0.00000000000E+00 0. -1.
         -1   -1    0    0    0  501 -0.00000000000E+00 -0.00000000000E+00 -0.81629288005E+03  0.81629288005E+03  0.00000000000E+00 0.  1.
         23    2    1    2    0    0 -0.56919189635E+02  0.24296820843E+03  0.86614917134E+03  0.90605580894E+03  0.91920604032E+02 0.  0.
        254    2    1    2    0    0  0.56919189635E+02 -0.24296820843E+03 -0.49264079466E+03  0.11000383278E+04  0.95137585932E+03 0.  0.
        -24    2    4    4    0    0 -0.14127359990E+03 -0.46150440849E+03  0.34989229229E+02  0.49031143752E+03  0.78971580412E+02 0.  0.
         24    2    4    4    0    0  0.19819278954E+03  0.21853620006E+03 -0.52763002389E+03  0.60972689032E+03  0.79592625976E+02 0.  0.
         11    1    3    3    0    0 -0.66921675277E+02  0.18435495473E+03  0.53959661496E+03  0.57413392761E+03  0.00000000000E+00 0. -1.
        -11    1    3    3    0    0  0.10002485641E+02  0.58613253699E+02  0.32655255638E+03  0.33192188133E+03  0.00000000000E+00 0.  1.
          2    1    6    6  502    0  0.18120723179E+03  0.20631720158E+03 -0.51885417620E+03  0.58703705563E+03  0.00000000000E+00 0. -1.
          3    1    5    5  503    0 -0.14603663490E+03 -0.45273697284E+03  0.42815957020E+02  0.47763026651E+03  0.00000000000E+00 0. -1.
         -4    1    5    5    0  503  0.47630349968E+01 -0.87674356513E+01 -0.78267277905E+01  0.12681171010E+02  0.00000000000E+00 0.  1.
         -1    1    6    6    0  502  0.16985557743E+02  0.12218998486E+02 -0.87758476941E+01  0.22689834697E+02  0.00000000000E+00 0.  1.
<mgrwt>
<rscale>  0 0.19710163E+04</rscale>
<asrwt>0</asrwt>
<pdfrwt beam="1">  1        1 0.18304635E+00 0.19710163E+04</pdfrwt>
<pdfrwt beam="2">  1       -1 0.12558352E+00 0.19710163E+04</pdfrwt>
<totfact> 0.55929558E+00</totfact>
</mgrwt>
</event>
<event>
12    1  0.1519630E-007  0.3540067E+04  0.7818608E-02  0.8104360E-01
         -2   -1    0    0    0  501 -0.00000000000E+00  0.00000000000E+00  0.21291252525E+04  0.21291252525E+04  0.00000000000E+00 0.  1.
          2   -1    0    0  501    0  0.00000000000E+00 -0.00000000000E+00 -0.14715052085E+04  0.14715052085E+04  0.00000000000E+00 0. -1.
         23    2    1    2    0    0 -0.15655646760E+04 -0.28694414528E+03 -0.59390627950E+02  0.15953217593E+04  0.90523874095E+02 0.  0.
        254    2    1    2    0    0  0.15655646760E+04  0.28694414528E+03  0.71701067195E+03  0.20053087016E+04  0.98682773969E+03 0.  0.
        -24    2    4    4    0    0  0.80449613703E+03  0.73021380901E+02  0.87693034620E+03  0.11949329672E+04  0.79446884494E+02 0.  0.
         24    2    4    4    0    0  0.76106853901E+03  0.21392276438E+03 -0.15991967425E+03  0.81037573443E+03  0.78398077539E+02 0.  0.
         11    1    3    3    0    0 -0.10554871833E+03 -0.26124304734E+00 -0.16315860356E+02  0.10680265675E+03  0.00000000000E+00 0.  1.
        -11    1    3    3    0    0 -0.14600159577E+04 -0.28668290223E+03 -0.43074767594E+02  0.14885191026E+04  0.00000000000E+00 0. -1.
          4    1    6    6  502    0  0.17326611790E+02  0.10254708469E+02  0.71405224946E+01  0.21362527552E+02  0.00000000000E+00 0. -1.
          3    1    5    5  503    0  0.71659430433E+02  0.12629861409E+02  0.11470110818E+03  0.13583420625E+03  0.00000000000E+00 0. -1.
         -4    1    5    5    0  503  0.73283670660E+03  0.60391519492E+02  0.76222923802E+03  0.10590987610E+04  0.00000000000E+00 0.  1.
         -1    1    6    6    0  502  0.74374192722E+03  0.20366805591E+03 -0.16706019675E+03  0.78901320688E+03  0.00000000000E+00 0.  1.
<mgrwt>
<rscale>  0 0.35400672E+04</rscale>
<asrwt>0</asrwt>
<pdfrwt beam="1">  1        2 0.22638542E+00 0.35400672E+04</pdfrwt>
<pdfrwt beam="2">  1       -2 0.32755773E+00 0.35400672E+04</pdfrwt>
<totfact> 0.23189518E-01</totfact>
</mgrwt>
</event>
<event>
12    1  0.1519630E-007  0.2963603E+04  0.7818608E-02  0.8254201E-01
         -2   -1    0    0    0  501 -0.00000000000E+00  0.00000000000E+00  0.10861910267E+04  0.10861910267E+04  0.00000000000E+00 0.  1.
          2   -1    0    0  501    0  0.00000000000E+00 -0.00000000000E+00 -0.20215001706E+04  0.20215001706E+04  0.00000000000E+00 0. -1.
         23    2    1    2    0    0 -0.94496581806E+03  0.36404009439E+03 -0.13532397484E+04  0.16926153341E+04  0.90571877679E+02 0.  0.
        254    2    1    2    0    0  0.94496581806E+03 -0.36404009439E+03  0.41793060441E+03  0.14150758632E+04  0.89570537618E+03 0.  0.
        -24    2    4    4    0    0  0.73294882293E+03  0.18272805679E+03  0.21523186294E+03  0.78981086781E+03  0.82903150223E+02 0.  0.
         24    2    4    4    0    0  0.21201699513E+03 -0.54676815118E+03  0.20269874146E+03  0.62526499540E+03  0.77219928192E+02 0.  0.
         13    1    3    3    0    0 -0.57918505827E+03  0.21193006451E+03 -0.89438504002E+03  0.10864134958E+04  0.00000000000E+00 0. -1.
        -13    1    3    3    0    0 -0.36578075978E+03  0.15211002989E+03 -0.45885470834E+03  0.60620183832E+03  0.00000000000E+00 0.  1.
          4    1    6    6  502    0  0.17628053920E+03 -0.40323420720E+03  0.12158919858E+03  0.45657046288E+03  0.00000000000E+00 0. -1.
          1    1    5    5  503    0  0.69107514068E+03  0.15610300641E+03  0.18712309694E+03  0.73278103966E+03  0.00000000000E+00 0. -1.
         -2    1    5    5    0  503  0.41873682252E+02  0.26625050383E+02  0.28108766004E+02  0.57029828157E+02  0.00000000000E+00 0.  1.
         -3    1    6    6    0  502  0.35736455930E+02 -0.14353394398E+03  0.81109542884E+02  0.16869453253E+03  0.00000000000E+00 0.  1.
<mgrwt>
<rscale>  0 0.29636028E+04</rscale>
<asrwt>0</asrwt>
<pdfrwt beam="1">  1        2 0.31100002E+00 0.29636028E+04</pdfrwt>
<pdfrwt beam="2">  1       -2 0.16710631E+00 0.29636028E+04</pdfrwt>
<totfact> 0.12475545E+00</totfact>
</mgrwt>
</event>
<event>
12    1  0.1519630E-007  0.1613965E+04  0.7818608E-02  0.8812015E-01
          1   -1    0    0  501    0  0.00000000000E+00  0.00000000000E+00  0.96141457608E+03  0.96141457608E+03  0.00000000000E+00 0. -1.
         -1   -1    0    0    0  501 -0.00000000000E+00 -0.00000000000E+00 -0.67735671900E+03  0.67735671900E+03  0.00000000000E+00 0.  1.
         23    2    1    2    0    0 -0.16521668253E+03 -0.46800402498E+03 -0.14439145846E+03  0.52487591811E+03  0.91222346785E+02 0.  0.
        254    2    1    2    0    0  0.16521668253E+03  0.46800402498E+03  0.42844931555E+03  0.11138953770E+04  0.90048307884E+03 0.  0.
        -24    2    4    4    0    0  0.41102675386E+03  0.43460521170E+03 -0.94966564782E+01  0.60407322722E+03  0.83603797316E+02 0.  0.
         24    2    4    4    0    0 -0.24581007133E+03  0.33398813275E+02  0.43794597203E+03  0.50982214976E+03  0.81141099764E+02 0.  0.
         11    1    3    3    0    0  0.73632097558E+01 -0.54804517514E+02 -0.33550408659E+01  0.55398630823E+02  0.00000000000E+00 0. -1.
        -11    1    3    3    0    0 -0.17257989228E+03 -0.41319950747E+03 -0.14103641760E+03  0.46947728729E+03  0.00000000000E+00 0.  1.
          4    1    6    6  502    0 -0.18438817124E+02 -0.85499931946E+01  0.88554656503E+02  0.90857138129E+02  0.00000000000E+00 0. -1.
          1    1    5    5  503    0  0.22961100638E+03  0.26419398588E+03 -0.44036116668E+02  0.35278726734E+03  0.00000000000E+00 0. -1.
         -2    1    5    5    0  503  0.18141574748E+03  0.17041122583E+03  0.34539460190E+02  0.25128595988E+03  0.00000000000E+00 0.  1.
         -3    1    6    6    0  502 -0.22737125421E+03  0.41948806470E+02  0.34939131552E+03  0.41896501163E+03  0.00000000000E+00 0.  1.
<mgrwt>
<rscale>  0 0.16139648E+04</rscale>
<asrwt>0</asrwt>
<pdfrwt beam="1">  1        1 0.14790993E+00 0.16139648E+04</pdfrwt>
<pdfrwt beam="2">  1       -1 0.10420873E+00 0.16139648E+04</pdfrwt>
<totfact> 0.13482493E+01</totfact>
</mgrwt>
</event>
<event>
12    1  0.1519630E-007  0.1409633E+04  0.7818608E-02  0.8946875E-01
          2   -1    0    0  501    0  0.00000000000E+00  0.00000000000E+00  0.13041716891E+04  0.13041716891E+04  0.00000000000E+00 0.  1.
         -2   -1    0    0    0  501 -0.00000000000E+00 -0.00000000000E+00 -0.38090580125E+03  0.38090580125E+03  0.00000000000E+00 0. -1.
         23    2    1    2    0    0  0.31379815365E+03  0.20831243621E+03  0.68987046510E+02  0.39356547745E+03  0.90946248640E+02 0.  0.
        254    2    1    2    0    0 -0.31379815365E+03 -0.20831243621E+03  0.85427884133E+03  0.12915120129E+04  0.89238309507E+03 0.  0.
        -24    2    4    4    0    0 -0.15417015525E+03  0.24225540657E+03 -0.12389918185E+02  0.29829510740E+03  0.79814423786E+02 0.  0.
         24    2    4    4    0    0 -0.15962799840E+03 -0.45056784277E+03  0.86666875952E+03  0.99321690548E+03  0.82901168877E+02 0.  0.
         13    1    3    3    0    0  0.22313676736E+03  0.11799407932E+03  0.80846604466E+02  0.26504488895E+03  0.00000000000E+00 0.  1.
        -13    1    3    3    0    0  0.90661386288E+02  0.90318356884E+02 -0.11859557956E+02  0.12852058850E+03  0.00000000000E+00 0. -1.
          2    1    6    6  502    0 -0.22117327424E+02 -0.78313257038E+02  0.92054742820E+02  0.12286666788E+03  0.00000000000E+00 0. -1.
          1    1    5    5  503    0 -0.16321582350E+02 -0.30960844052E+01 -0.85307363358E+00  0.16634528057E+02  0.00000000000E+00 0. -1.
         -2    1    5    5    0  503 -0.13784857291E+03  0.24535149097E+03 -0.11536844551E+02  0.28166057934E+03  0.00000000000E+00 0.  1.
         -1    1    6    6    0  502 -0.13751067097E+03 -0.37225458574E+03  0.77461401670E+03  0.87035023760E+03  0.00000000000E+00 0.  1.
<mgrwt>
<rscale>  0 0.14096334E+04</rscale>
<asrwt>0</asrwt>
<pdfrwt beam="1">  1        2 0.20064180E+00 0.14096334E+04</pdfrwt>
<pdfrwt beam="2">  1       -2 0.58600893E-01 0.14096334E+04</pdfrwt>
<totfact> 0.43523066E+01</totfact>
</mgrwt>
</event>
<event>
12    1  0.1616261E-007  0.2260740E+04  0.7818608E-02  0.8493564E-01
         -2   -1    0    0    0  501 -0.00000000000E+00  0.00000000000E+00  0.75468497562E+03  0.75468497562E+03  0.00000000000E+00 0.  1.
          2   -1    0    0  501    0  0.00000000000E+00 -0.00000000000E+00 -0.16930720586E+04  0.16930720586E+04  0.00000000000E+00 0. -1.
         23    2    1    2    0    0  0.37042625290E+03 -0.30560201191E+02 -0.13367664592E+04  0.13908465161E+04  0.96746732746E+02 0.  0.
        254    2    1    2    0    0 -0.37042625290E+03  0.30560201191E+02  0.39837937624E+03  0.10569105181E+04  0.90565124692E+03 0.  0.
        -24    2    4    4    0    0  0.82080231978E+02  0.36962569647E+03  0.27047055453E+03  0.47178833836E+03  0.77907607943E+02 0.  0.
         24    2    4    4    0    0 -0.45250648487E+03 -0.33906549527E+03  0.12790882171E+03  0.58512217970E+03  0.79244997117E+02 0.  0.
         11    1    3    3    0    0  0.33157530617E+03 -0.22799460692E+02 -0.12738625313E+04  0.13165058859E+04  0.00000000000E+00 0. -1.
        -11    1    3    3    0    0  0.38850946721E+02 -0.77607404989E+01 -0.62903927943E+02  0.74340630243E+02  0.00000000000E+00 0.  1.
          4    1    6    6  502    0 -0.43416798130E+03 -0.30165696675E+03  0.11125940959E+03  0.54025680727E+03  0.00000000000E+00 0. -1.
          3    1    5    5  503    0  0.77221943065E+02  0.32723873379E+03  0.20547597131E+03  0.39404161223E+03  0.00000000000E+00 0. -1.
         -4    1    5    5    0  503  0.48582889130E+01  0.42386962678E+02  0.64994583220E+02  0.77746726132E+02  0.00000000000E+00 0.  1.
         -3    1    6    6    0  502 -0.18338503570E+02 -0.37408528525E+02  0.16649412115E+02  0.44865372431E+02  0.00000000000E+00 0.  1.
<mgrwt>
<rscale>  0 0.22607397E+04</rscale>
<asrwt>0</asrwt>
<pdfrwt beam="1">  1        2 0.26047262E+00 0.22607397E+04</pdfrwt>
<pdfrwt beam="2">  1       -2 0.11610538E+00 0.22607397E+04</pdfrwt>
<totfact> 0.51841526E+00</totfact>
</mgrwt>
</event>
<event>
12    1  0.1519630E-007  0.1359564E+04  0.7818608E-02  0.8983620E-01
          1   -1    0    0  501    0  0.00000000000E+00  0.00000000000E+00  0.45422061319E+03  0.45422061319E+03  0.00000000000E+00 0. -1.
         -1   -1    0    0    0  501 -0.00000000000E+00 -0.00000000000E+00 -0.10173549836E+04  0.10173549836E+04  0.00000000000E+00 0.  1.
         23    2    1    2    0    0  0.23868881545E+03 -0.84692618858E+02 -0.34588787552E+03  0.44245164946E+03  0.10945249823E+03 0.  0.
        254    2    1    2    0    0 -0.23868881545E+03  0.84692618858E+02 -0.21724649489E+03  0.10291239473E+04  0.97352702535E+03 0.  0.
        -24    2    4    4    0    0  0.35721550172E+03 -0.33558201551E+02  0.29549098105E+02  0.36851045401E+03  0.78725713457E+02 0.  0.
         24    2    4    4    0    0 -0.59590431716E+03  0.11825082041E+03 -0.24679559299E+03  0.66061349331E+03  0.80105624522E+02 0.  0.
         13    1    3    3    0    0  0.24400126380E+03 -0.94734783448E+02 -0.34150340109E+03  0.43027417874E+03  0.00000000000E+00 0.  1.
        -13    1    3    3    0    0 -0.53124483561E+01  0.10042164590E+02 -0.43844744324E+01  0.12177470724E+02  0.00000000000E+00 0. -1.
          2    1    6    6  502    0 -0.43692561133E+03  0.51038061265E+02 -0.18622889567E+03  0.47769244825E+03  0.00000000000E+00 0. -1.
          3    1    5    5  503    0  0.22172725179E+02  0.17711249359E+02  0.26754119382E+01  0.28503963317E+02  0.00000000000E+00 0. -1.
         -4    1    5    5    0  503  0.33504277654E+03 -0.51269450910E+02  0.26873686167E+02  0.34000649069E+03  0.00000000000E+00 0.  1.
         -1    1    6    6    0  502 -0.15897870583E+03  0.67212759145E+02 -0.60566697316E+02  0.18292104505E+03  0.00000000000E+00 0.  1.
<mgrwt>
<rscale>  0 0.13595641E+04</rscale>
<asrwt>0</asrwt>
<pdfrwt beam="1">  1        1 0.69880096E-01 0.13595641E+04</pdfrwt>
<pdfrwt beam="2">  1       -1 0.15651615E+00 0.13595641E+04</pdfrwt>
<totfact> 0.15363815E+01</totfact>
</mgrwt>
</event>
<event>
12    1  0.1519630E-007  0.1186246E+04  0.7818608E-02  0.9124981E-01
          2   -1    0    0  501    0  0.00000000000E+00  0.00000000000E+00  0.10743537988E+04  0.10743537988E+04  0.00000000000E+00 0. -1.
         -2   -1    0    0    0  501 -0.00000000000E+00 -0.00000000000E+00 -0.32744785852E+03  0.32744785852E+03  0.00000000000E+00 0.  1.
         23    2    1    2    0    0  0.16739611586E+03  0.90913306407E+02 -0.10725107751E+02  0.21179110970E+03  0.91944316445E+02 0.  0.
        254    2    1    2    0    0 -0.16739611586E+03 -0.90913306407E+02  0.75763104801E+03  0.11900105476E+04  0.89768235452E+03 0.  0.
        -24    2    4    4    0    0 -0.10895659645E+03 -0.52299416643E+02 -0.18657602159E+03  0.23987348030E+03  0.90121616858E+02 0.  0.
         24    2    4    4    0    0 -0.58439519406E+02 -0.38613889764E+02  0.94420706960E+03  0.95013706731E+03  0.79543990862E+02 0.  0.
         13    1    3    3    0    0  0.31822761100E+02 -0.15532351823E+02  0.13156921769E+02  0.37776271225E+02  0.00000000000E+00 0. -1.
        -13    1    3    3    0    0  0.13557335476E+03  0.10644565823E+03 -0.23882029520E+02  0.17401483848E+03  0.00000000000E+00 0.  1.
          4    1    6    6  502    0 -0.25491772263E+02  0.21889483606E+02  0.20599742229E+03  0.20871971142E+03  0.00000000000E+00 0. -1.
          3    1    5    5  503    0 -0.84922750547E+01  0.71225084008E+01  0.75132192654E+01  0.13390195116E+02  0.00000000000E+00 0. -1.
         -4    1    5    5    0  503 -0.10046432140E+03 -0.59421925044E+02 -0.19408924086E+03  0.22648328518E+03  0.00000000000E+00 0.  1.
         -3    1    6    6    0  502 -0.32947747143E+02 -0.60503373370E+02  0.73820964732E+03  0.74141735589E+03  0.00000000000E+00 0.  1.
<mgrwt>
<rscale>  0 0.11862459E+04</rscale>
<asrwt>0</asrwt>
<pdfrwt beam="1">  1        2 0.16528520E+00 0.11862459E+04</pdfrwt>
<pdfrwt beam="2">  1       -2 0.50376594E-01 0.11862459E+04</pdfrwt>
<totfact> 0.83160376E+01</totfact>
</mgrwt>
</event>
<event>
12    1  0.1519630E-007  0.2013949E+04  0.7818608E-02  0.8600127E-01
         -2   -1    0    0    0  501 -0.00000000000E+00  0.00000000000E+00  0.71658717210E+03  0.71658717210E+03  0.00000000000E+00 0.  1.
          2   -1    0    0  501    0  0.00000000000E+00 -0.00000000000E+00 -0.14150378932E+04  0.14150378932E+04  0.00000000000E+00 0. -1.
         23    2    1    2    0    0  0.17087435295E+02  0.70004937370E+03 -0.69340763799E+03  0.98915613858E+03  0.85173986632E+02 0.  0.
        254    2    1    2    0    0 -0.17087435295E+02 -0.70004937370E+03 -0.50430830719E+01  0.11424689267E+04  0.90268970841E+03 0.  0.
        -24    2    4    4    0    0 -0.30644304252E+03  0.62514458688E+02 -0.12409887879E+02  0.32299205713E+03  0.79714915796E+02 0.  0.
         24    2    4    4    0    0  0.28935560722E+03 -0.76256383239E+03  0.73668048072E+01  0.81947686955E+03  0.79106283007E+02 0.  0.
         11    1    3    3    0    0 -0.28188021310E+02  0.13865215222E+03 -0.12184880366E+03  0.18672470328E+03  0.00000000000E+00 0.  1.
        -11    1    3    3    0    0  0.45275456605E+02  0.56139722148E+03 -0.57155883433E+03  0.80243143530E+03  0.00000000000E+00 0. -1.
          4    1    6    6  502    0  0.20904509144E+03 -0.60859312859E+03 -0.19301294462E+02  0.64378411474E+03  0.00000000000E+00 0. -1.
          1    1    5    5  503    0 -0.17505975705E+03  0.43200473022E+02  0.31670858161E+02  0.18307168723E+03  0.00000000000E+00 0. -1.
         -2    1    5    5    0  503 -0.13138328546E+03  0.19313985666E+02 -0.44080746040E+02  0.13992036990E+03  0.00000000000E+00 0.  1.
         -3    1    6    6    0  502  0.80310515783E+02 -0.15397070380E+03  0.26668099269E+02  0.17569275481E+03  0.00000000000E+00 0.  1.
<mgrwt>
<rscale>  0 0.20139494E+04</rscale>
<asrwt>0</asrwt>
<pdfrwt beam="1">  1        2 0.21769813E+00 0.20139494E+04</pdfrwt>
<pdfrwt beam="2">  1       -2 0.11024418E+00 0.20139494E+04</pdfrwt>
<totfact> 0.86049394E+00</totfact>
</mgrwt>
</event>
<event>
12    1  0.1519630E-007  0.1217655E+04  0.7818608E-02  0.9097542E-01
         -1   -1    0    0    0  501 -0.00000000000E+00  0.00000000000E+00  0.44331807534E+03  0.44331807534E+03  0.00000000000E+00 0.  1.
          1   -1    0    0  501    0  0.00000000000E+00 -0.00000000000E+00 -0.83612846190E+03  0.83612846190E+03  0.00000000000E+00 0. -1.
         23    2    1    2    0    0 -0.55320729360E+02 -0.19582824989E+01  0.20124853400E+03  0.22768268540E+03  0.90962711182E+02 0.  0.
        254    2    1    2    0    0  0.55320729360E+02  0.19582824989E+01 -0.59405892056E+03  0.10517638518E+04  0.86616221401E+03 0.  0.
        -24    2    4    4    0    0 -0.76253329377E+02  0.39369739479E+03 -0.14257486343E+03  0.43368563797E+03  0.83327258389E+02 0.  0.
         24    2    4    4    0    0  0.13157405874E+03 -0.39173911229E+03 -0.45148405712E+03  0.61807821387E+03  0.86090415210E+02 0.  0.
         13    1    3    3    0    0 -0.30259617108E+02  0.15369662814E+02  0.19321490717E+03  0.19617306471E+03  0.00000000000E+00 0.  1.
        -13    1    3    3    0    0 -0.25061112252E+02 -0.17327945313E+02  0.80336268265E+01  0.31509620690E+02  0.00000000000E+00 0. -1.
          4    1    6    6  502    0  0.93199624389E+02 -0.18983607111E+03 -0.18091283215E+03  0.27830443172E+03  0.00000000000E+00 0. -1.
          3    1    5    5  503    0 -0.54320805360E+02  0.94263501926E+02 -0.47931570419E+02  0.11888563047E+03  0.00000000000E+00 0. -1.
         -4    1    5    5    0  503 -0.21932524017E+02  0.29943389287E+03 -0.94643293016E+02  0.31480000750E+03  0.00000000000E+00 0.  1.
         -3    1    6    6    0  502  0.38374434348E+02 -0.20190304119E+03 -0.27057122497E+03  0.33977378215E+03  0.00000000000E+00 0.  1.
<mgrwt>
<rscale>  0 0.12176549E+04</rscale>
<asrwt>0</asrwt>
<pdfrwt beam="1">  1        1 0.12863515E+00 0.12176549E+04</pdfrwt>
<pdfrwt beam="2">  1       -1 0.68202781E-01 0.12176549E+04</pdfrwt>
<totfact> 0.44278745E+01</totfact>
</mgrwt>
</event>
<event>
12    1  0.2508210E-007  0.2220317E+04  0.7818608E-02  0.8510019E-01
         -1   -1    0    0    0  501 -0.00000000000E+00  0.00000000000E+00  0.82620496039E+03  0.82620496039E+03  0.00000000000E+00 0.  1.
          1   -1    0    0  501    0  0.00000000000E+00 -0.00000000000E+00 -0.14917027049E+04  0.14917027049E+04  0.00000000000E+00 0. -1.
         23    2    1    2    0    0 -0.81020867217E+03 -0.29633823263E+03 -0.61674138267E+03  0.10643602674E+04  0.90765660571E+02 0.  0.
        254    2    1    2    0    0  0.81020867217E+03  0.29633823263E+03 -0.48756361863E+02  0.12535473979E+04  0.90815717552E+03 0.  0.
        -24    2    4    4    0    0  0.18782294413E+03 -0.17844397511E+03  0.28884986712E+03  0.39724965516E+03  0.85166496910E+02 0.  0.
         24    2    4    4    0    0  0.62238572804E+03  0.47478220774E+03 -0.33760622899E+03  0.85629774276E+03  0.80533962684E+02 0.  0.
         11    1    3    3    0    0 -0.60591169855E+03 -0.22739720257E+03 -0.50879901536E+03  0.82323442118E+03  0.00000000000E+00 0. -1.
        -11    1    3    3    0    0 -0.20429697361E+03 -0.68941030056E+02 -0.10794236731E+03  0.24112584621E+03  0.00000000000E+00 0.  1.
          2    1    6    6  502    0  0.72830715724E+02  0.66387871727E+02 -0.15990383336E+02  0.99836641693E+02  0.00000000000E+00 0. -1.
          3    1    5    5  503    0  0.19968089457E+02 -0.13387609357E+02 -0.73222295644E+00  0.24051794762E+02  0.00000000000E+00 0. -1.
         -4    1    5    5    0  503  0.16785485467E+03 -0.16505636576E+03  0.28958209008E+03  0.37319786040E+03  0.00000000000E+00 0.  1.
         -1    1    6    6    0  502  0.54955501232E+03  0.40839433601E+03 -0.32161584565E+03  0.75646110106E+03  0.00000000000E+00 0.  1.
<mgrwt>
<rscale>  0 0.22203173E+04</rscale>
<asrwt>0</asrwt>
<pdfrwt beam="1">  1        1 0.22949272E+00 0.22203173E+04</pdfrwt>
<pdfrwt beam="2">  1       -1 0.12710846E+00 0.22203173E+04</pdfrwt>
<totfact> 0.32380521E+00</totfact>
</mgrwt>
</event>
<event>
12    1  0.1519630E-007  0.1311870E+04  0.7818608E-02  0.9020205E-01
         -3   -1    0    0    0  501 -0.00000000000E+00  0.00000000000E+00  0.16531964338E+03  0.16531964338E+03  0.00000000000E+00 0.  1.
          3   -1    0    0  501    0  0.00000000000E+00 -0.00000000000E+00 -0.26025376529E+04  0.26025376529E+04  0.00000000000E+00 0. -1.
         23    2    1    2    0    0  0.21913142314E+03  0.28335945667E+03 -0.48289401653E+03  0.60505407941E+03  0.67769060207E+02 0.  0.
        254    2    1    2    0    0 -0.21913142314E+03 -0.28335945667E+03 -0.19543239930E+04  0.21628032169E+04  0.85441460841E+03 0.  0.
        -24    2    4    4    0    0  0.47971949703E+02  0.19206187409E+03 -0.11470326057E+03  0.24238385681E+03  0.80025149905E+02 0.  0.
         24    2    4    4    0    0 -0.26710337284E+03 -0.47542133076E+03 -0.18396207324E+04  0.19204193601E+04  0.80227338563E+02 0.  0.
         11    1    3    3    0    0  0.19704399346E+03  0.26067404236E+03 -0.40117275126E+03  0.51741363344E+03  0.00000000000E+00 0.  1.
        -11    1    3    3    0    0  0.22087429672E+02  0.22685414308E+02 -0.81721265266E+02  0.87640445963E+02  0.00000000000E+00 0. -1.
          4    1    6    6  502    0 -0.21298623122E+03 -0.37154100096E+03 -0.15481928392E+04  0.16063333768E+04  0.00000000000E+00 0. -1.
          1    1    5    5  503    0  0.11166240964E+02  0.27446393552E+02  0.11430773570E+02  0.31759282748E+02  0.00000000000E+00 0. -1.
         -2    1    5    5    0  503  0.36805708740E+02  0.16461548054E+03 -0.12613403414E+03  0.21062457406E+03  0.00000000000E+00 0.  1.
         -3    1    6    6    0  502 -0.54117141617E+02 -0.10388032980E+03 -0.29142789320E+03  0.31408598325E+03  0.00000000000E+00 0.  1.
<mgrwt>
<rscale>  0 0.13118698E+04</rscale>
<asrwt>0</asrwt>
<pdfrwt beam="1">  1        3 0.40039040E+00 0.13118698E+04</pdfrwt>
<pdfrwt beam="2">  1       -3 0.25433792E-01 0.13118698E+04</pdfrwt>
<totfact> 0.42679892E-01</totfact>
</mgrwt>
</event>
<event>
12    1  0.1519630E-007  0.1681379E+04  0.7818608E-02  0.8772057E-01
          2   -1    0    0  501    0  0.00000000000E+00  0.00000000000E+00  0.67720409737E+03  0.67720409737E+03  0.00000000000E+00 0. -1.
         -2   -1    0    0    0  501 -0.00000000000E+00 -0.00000000000E+00 -0.10436419016E+04  0.10436419016E+04  0.00000000000E+00 0.  1.
         23    2    1    2    0    0  0.22053228248E+03  0.45873772912E+03 -0.42077801716E+03  0.66654621074E+03  0.90304593474E+02 0.  0.
        254    2    1    2    0    0 -0.22053228248E+03 -0.45873772912E+03  0.54340212909E+02  0.10542997882E+04  0.92169430562E+03 0.  0.
        -24    2    4    4    0    0  0.33575743587E+03 -0.83089118001E+02  0.12161445766E+03  0.37522253118E+03  0.79781039847E+02 0.  0.
         24    2    4    4    0    0 -0.55628971835E+03 -0.37564861112E+03 -0.67274244753E+02  0.67907725706E+03  0.77781535550E+02 0.  0.
         11    1    3    3    0    0  0.18763630372E+03  0.39109112192E+03 -0.31213527402E+03  0.53440441373E+03  0.00000000000E+00 0. -1.
        -11    1    3    3    0    0  0.32895978757E+02  0.67646607197E+02 -0.10864274313E+03  0.13214179702E+03  0.00000000000E+00 0.  1.
          2    1    6    6  502    0 -0.49463131603E+03 -0.32432845428E+03 -0.34709595749E+02  0.59249796717E+03  0.00000000000E+00 0. -1.
          1    1    5    5  503    0  0.33171998495E+03 -0.69785991853E+02  0.12432051393E+03  0.36105930712E+03  0.00000000000E+00 0. -1.
         -2    1    5    5    0  503  0.40374509205E+01 -0.13303126147E+02 -0.27060562661E+01  0.14163224059E+02  0.00000000000E+00 0.  1.
         -3    1    6    6    0  502 -0.61658402315E+02 -0.51320156837E+02 -0.32564649004E+02  0.86579289894E+02  0.00000000000E+00 0.  1.
<mgrwt>
<rscale>  0 0.16813787E+04</rscale>
<asrwt>0</asrwt>
<pdfrwt beam="1">  1        2 0.10418525E+00 0.16813787E+04</pdfrwt>
<pdfrwt beam="2">  1       -2 0.16056029E+00 0.16813787E+04</pdfrwt>
<totfact> 0.10150253E+01</totfact>
</mgrwt>
</event>
<event>
12    1  0.1519630E-007  0.2058059E+04  0.7818608E-02  0.8579947E-01
          2   -1    0    0  501    0  0.00000000000E+00  0.00000000000E+00  0.62046511502E+03  0.62046511502E+03  0.00000000000E+00 0. -1.
         -2   -1    0    0    0  501 -0.00000000000E+00 -0.00000000000E+00 -0.17066262802E+04  0.17066262802E+04  0.00000000000E+00 0.  1.
         23    2    1    2    0    0 -0.78346440302E+03 -0.20534524143E+03 -0.22444924829E+03  0.84551960709E+03  0.92427279203E+02 0.  0.
        254    2    1    2    0    0  0.78346440302E+03  0.20534524143E+03 -0.86171191686E+03  0.14815717881E+04  0.89248215480E+03 0.  0.
        -24    2    4    4    0    0  0.70099987319E+03  0.24491387357E+03 -0.15292285209E+03  0.76254345077E+03  0.81874830967E+02 0.  0.
         24    2    4    4    0    0  0.82464529834E+02 -0.39568632140E+02 -0.70878906477E+03  0.71902833732E+03  0.79080567792E+02 0.  0.
         13    1    3    3    0    0 -0.29515178995E+03 -0.11748869086E+03 -0.11147089144E+03  0.33666590446E+03  0.00000000000E+00 0.  1.
        -13    1    3    3    0    0 -0.48831261307E+03 -0.87856550576E+02 -0.11297835685E+03  0.50885370263E+03  0.00000000000E+00 0. -1.
          2    1    6    6  502    0  0.74981172928E+00 -0.11686492682E+02 -0.34252667496E+03  0.34272679993E+03  0.00000000000E+00 0. -1.
          1    1    5    5  503    0  0.26923428382E+03  0.57938486719E+02 -0.76870256516E+02  0.28592482257E+03  0.00000000000E+00 0. -1.
         -2    1    5    5    0  503  0.43176558937E+03  0.18697538685E+03 -0.76052595573E+02  0.47661862820E+03  0.00000000000E+00 0.  1.
         -1    1    6    6    0  502  0.81714718105E+02 -0.27882139458E+02 -0.36626238981E+03  0.37630153740E+03  0.00000000000E+00 0.  1.
<mgrwt>
<rscale>  0 0.20580593E+04</rscale>
<asrwt>0</asrwt>
<pdfrwt beam="1">  1        2 0.95456173E-01 0.20580593E+04</pdfrwt>
<pdfrwt beam="2">  1       -2 0.26255788E+00 0.20580593E+04</pdfrwt>
<totfact> 0.23694765E+00</totfact>
</mgrwt>
</event>
<event>
12    1  0.1519630E-007  0.2296563E+04  0.7818608E-02  0.8479277E-01
          1   -1    0    0  501    0  0.00000000000E+00  0.00000000000E+00  0.28713679135E+04  0.28713679135E+04  0.00000000000E+00 0. -1.
         -1   -1    0    0    0  501 -0.00000000000E+00 -0.00000000000E+00 -0.45920641047E+03  0.45920641047E+03  0.00000000000E+00 0.  1.
         23    2    1    2    0    0 -0.28530246820E+02  0.55068174608E+03 -0.13197023183E+03  0.57444064874E+03  0.92203884833E+02 0.  0.
        254    2    1    2    0    0  0.28530246820E+02 -0.55068174608E+03  0.25441317349E+04  0.27561336753E+04  0.90531883388E+03 0.  0.
        -24    2    4    4    0    0 -0.31253386248E+03  0.37335404276E+02  0.12599039615E+04  0.13010503219E+04  0.79388918245E+02 0.  0.
         24    2    4    4    0    0  0.34106410930E+03 -0.58801715036E+03  0.12842277734E+04  0.14550833534E+04  0.77056443467E+02 0.  0.
         11    1    3    3    0    0  0.14356700703E+02  0.13231243286E+03  0.18494974415E+01  0.13310189850E+03  0.00000000000E+00 0. -1.
        -11    1    3    3    0    0 -0.42886947522E+02  0.41836931323E+03 -0.13381972927E+03  0.44133875024E+03  0.00000000000E+00 0.  1.
          4    1    6    6  502    0  0.30813364256E+03 -0.47375686291E+03  0.10532481531E+04  0.11952922567E+04  0.00000000000E+00 0. -1.
          3    1    5    5  503    0 -0.22709408442E+03 -0.67670396380E+01  0.83071572645E+03  0.86122362611E+03  0.00000000000E+00 0. -1.
         -2    1    5    5    0  503 -0.85439778062E+02  0.44102443914E+02  0.42918823501E+03  0.43982669577E+03  0.00000000000E+00 0.  1.
         -3    1    6    6    0  502  0.32930466738E+02 -0.11426028745E+03  0.23097962031E+03  0.25979109670E+03  0.00000000000E+00 0.  1.
<mgrwt>
<rscale>  0 0.22965631E+04</rscale>
<asrwt>0</asrwt>
<pdfrwt beam="1">  1        1 0.44174890E+00 0.22965631E+04</pdfrwt>
<pdfrwt beam="2">  1       -1 0.70647142E-01 0.22965631E+04</pdfrwt>
<totfact> 0.13565200E+00</totfact>
</mgrwt>
</event>
<event>
12    1  0.1519630E-007  0.2334484E+04  0.7818608E-02  0.8464447E-01
         -1   -1    0    0    0  501 -0.00000000000E+00  0.00000000000E+00  0.63049565638E+03  0.63049565638E+03  0.00000000000E+00 0.  1.
          1   -1    0    0  501    0  0.00000000000E+00 -0.00000000000E+00 -0.21609256202E+04  0.21609256202E+04  0.00000000000E+00 0. -1.
         23    2    1    2    0    0  0.50984081476E+03  0.84510933285E+03 -0.53188227248E+03  0.11248514690E+04  0.90799970498E+02 0.  0.
        254    2    1    2    0    0 -0.50984081476E+03 -0.84510933285E+03 -0.99854769132E+03  0.16665698076E+04  0.89789197055E+03 0.  0.
        -24    2    4    4    0    0  0.12756296250E+03  0.20849737851E+02 -0.41165914495E+03  0.43901719896E+03  0.81029799389E+02 0.  0.
         24    2    4    4    0    0 -0.63740377725E+03 -0.86595907070E+03 -0.58688854637E+03  0.12275526086E+04  0.79237324878E+02 0.  0.
         13    1    3    3    0    0  0.16100896682E+03  0.31165425276E+03 -0.23103005630E+03  0.42003231730E+03  0.00000000000E+00 0. -1.
        -13    1    3    3    0    0  0.34883184793E+03  0.53345508009E+03 -0.30085221617E+03  0.70481915169E+03  0.00000000000E+00 0.  1.
          4    1    6    6  502    0 -0.60913505898E+03 -0.82866768986E+03 -0.57854014457E+03  0.11800187961E+04  0.00000000000E+00 0. -1.
          1    1    5    5  503    0  0.85263009603E+02  0.45658597506E+02 -0.20574649005E+03  0.22734578620E+03  0.00000000000E+00 0. -1.
         -2    1    5    5    0  503  0.42299952892E+02 -0.24808859655E+02 -0.20591265490E+03  0.21167141276E+03  0.00000000000E+00 0.  1.
         -3    1    6    6    0  502 -0.28268718273E+02 -0.37291380843E+02 -0.83484017996E+01  0.47533812498E+02  0.00000000000E+00 0.  1.
<mgrwt>
<rscale>  0 0.23344843E+04</rscale>
<asrwt>0</asrwt>
<pdfrwt beam="1">  1        1 0.33245010E+00 0.23344843E+04</pdfrwt>
<pdfrwt beam="2">  1       -1 0.96999330E-01 0.23344843E+04</pdfrwt>
<totfact> 0.21321101E+00</totfact>
</mgrwt>
</event>
<event>
12    1  0.1519630E-007  0.1850914E+04  0.7818608E-02  0.8679683E-01
          3   -1    0    0  501    0  0.00000000000E+00  0.00000000000E+00  0.41145502292E+03  0.41145502292E+03  0.00000000000E+00 0. -1.
         -3   -1    0    0    0  501 -0.00000000000E+00 -0.00000000000E+00 -0.20815652239E+04  0.20815652239E+04  0.00000000000E+00 0.  1.
         23    2    1    2    0    0  0.32404821295E+03 -0.44491904215E+03 -0.14680913694E+03  0.57710461878E+03  0.92393830623E+02 0.  0.
        254    2    1    2    0    0 -0.32404821295E+03  0.44491904215E+03 -0.15233010641E+04  0.19159156281E+04  0.10233896442E+04 0.  0.
        -24    2    4    4    0    0  0.15891520924E+03 -0.36296428437E+02 -0.10884863081E+04  0.11034686565E+04  0.79178018305E+02 0.  0.
         24    2    4    4    0    0 -0.48296342219E+03  0.48121547059E+03 -0.43481475597E+03  0.81244697155E+03  0.78639768977E+02 0.  0.
         13    1    3    3    0    0  0.96487993592E+02 -0.20454416455E+03 -0.76212221264E+02  0.23865571611E+03  0.00000000000E+00 0. -1.
        -13    1    3    3    0    0  0.22756021936E+03 -0.24037487760E+03 -0.70596915679E+02  0.33844890267E+03  0.00000000000E+00 0.  1.
          2    1    6    6  502    0 -0.85377982509E+02  0.61874623782E+02 -0.95923162614E+02  0.14254515808E+03  0.00000000000E+00 0. -1.
          1    1    5    5  503    0 -0.72999953621E+01 -0.41100033319E+00 -0.16075889743E+02  0.17660495027E+02  0.00000000000E+00 0. -1.
         -2    1    5    5    0  503  0.16621520460E+03 -0.35885428104E+02 -0.10724104184E+04  0.10858081615E+04  0.00000000000E+00 0.  1.
         -1    1    6    6    0  502 -0.39758543968E+03  0.41934084680E+03 -0.33889159335E+03  0.66990181347E+03  0.00000000000E+00 0.  1.
<mgrwt>
<rscale>  0 0.18509138E+04</rscale>
<asrwt>0</asrwt>
<pdfrwt beam="1">  1        3 0.63300772E-01 0.18509138E+04</pdfrwt>
<pdfrwt beam="2">  1       -3 0.32024081E+00 0.18509138E+04</pdfrwt>
<totfact> 0.17500725E-01</totfact>
</mgrwt>
</event>
<event>
12    1  0.1519630E-007  0.1736642E+04  0.7818608E-02  0.8740738E-01
          2   -1    0    0  501    0  0.00000000000E+00  0.00000000000E+00  0.23715542936E+04  0.23715542936E+04  0.00000000000E+00 0. -1.
         -2   -1    0    0    0  501 -0.00000000000E+00 -0.00000000000E+00 -0.31792707403E+03  0.31792707403E+03  0.00000000000E+00 0.  1.
         23    2    1    2    0    0  0.28722059933E+03 -0.16175685152E+02  0.15883223036E+04  0.16168770585E+04  0.93628823316E+02 0.  0.
        254    2    1    2    0    0 -0.28722059933E+03  0.16175685152E+02  0.46530491598E+03  0.10726043092E+04  0.92261260221E+03 0.  0.
        -24    2    4    4    0    0  0.30384358083E+03 -0.46936578125E+01  0.33915172594E+03  0.46264855456E+03  0.81711931790E+02 0.  0.
         24    2    4    4    0    0 -0.59106418016E+03  0.20869342965E+02  0.12615319004E+03  0.60995575462E+03  0.79617841527E+02 0.  0.
         13    1    3    3    0    0  0.18352127256E+03 -0.53001955695E+02  0.10822171043E+04  0.10989463707E+04  0.00000000000E+00 0. -1.
        -13    1    3    3    0    0  0.10369932678E+03  0.36826270543E+02  0.50610519926E+03  0.51793068773E+03  0.00000000000E+00 0.  1.
          2    1    6    6  502    0 -0.46018880462E+02 -0.20000286138E+02  0.94159720948E+01  0.51053005153E+02  0.00000000000E+00 0. -1.
          1    1    5    5  503    0  0.16993244739E+02  0.13465139848E+01  0.59877185782E+02  0.62256412070E+02  0.00000000000E+00 0. -1.
         -2    1    5    5    0  503  0.28685033609E+03 -0.60401717973E+01  0.27927454016E+03  0.40039214249E+03  0.00000000000E+00 0.  1.
         -1    1    6    6    0  502 -0.54504529970E+03  0.40869629103E+02  0.11673721794E+03  0.55890274946E+03  0.00000000000E+00 0.  1.
<mgrwt>
<rscale>  0 0.17366420E+04</rscale>
<asrwt>0</asrwt>
<pdfrwt beam="1">  1        2 0.36485450E+00 0.17366420E+04</pdfrwt>
<pdfrwt beam="2">  1       -2 0.48911859E-01 0.17366420E+04</pdfrwt>
<totfact> 0.15514514E+01</totfact>
</mgrwt>
</event>
<event>
12    1  0.1519630E-007  0.1176464E+04  0.7818608E-02  0.9133711E-01
         -1   -1    0    0    0  501 -0.00000000000E+00  0.00000000000E+00  0.32882997845E+03  0.32882997845E+03  0.00000000000E+00 0.  1.
          1   -1    0    0  501    0  0.00000000000E+00 -0.00000000000E+00 -0.10522663098E+04  0.10522663098E+04  0.00000000000E+00 0. -1.
         23    2    1    2    0    0  0.32446001164E+02  0.17851087598E+03  0.28840173361E+02  0.20516641946E+03  0.91337989040E+02 0.  0.
        254    2    1    2    0    0 -0.32446001164E+02 -0.17851087598E+03 -0.75227650475E+03  0.11759298688E+04  0.88542206938E+03 0.  0.
        -24    2    4    4    0    0  0.35298855465E+03 -0.31797840921E+03 -0.34960962777E+03  0.59579009743E+03  0.83831735819E+02 0.  0.
         24    2    4    4    0    0 -0.38543455581E+03  0.13946753323E+03 -0.40266687698E+03  0.58013977138E+03  0.80065915888E+02 0.  0.
         13    1    3    3    0    0  0.44237316509E+02  0.18407259610E+03  0.31344335774E+02  0.19189092785E+03  0.00000000000E+00 0. -1.
        -13    1    3    3    0    0 -0.11791315345E+02 -0.55617201180E+01 -0.25041624123E+01  0.13275491615E+02  0.00000000000E+00 0.  1.
          4    1    6    6  502    0 -0.37670322911E+03  0.11847926768E+03 -0.37981585492E+03  0.54790760475E+03  0.00000000000E+00 0. -1.
          1    1    5    5  503    0  0.94518892558E+02 -0.39844912961E+02 -0.68036315190E+02  0.12308687308E+03  0.00000000000E+00 0. -1.
         -2    1    5    5    0  503  0.25846966209E+03 -0.27813349625E+03 -0.28157331258E+03  0.47270322436E+03  0.00000000000E+00 0.  1.
         -3    1    6    6    0  502 -0.87313267021E+01  0.20988265557E+02 -0.22851022058E+02  0.32232166638E+02  0.00000000000E+00 0.  1.
<mgrwt>
<rscale>  0 0.11764637E+04</rscale>
<asrwt>0</asrwt>
<pdfrwt beam="1">  1        1 0.16188712E+00 0.11764637E+04</pdfrwt>
<pdfrwt beam="2">  1       -1 0.50589228E-01 0.11764637E+04</pdfrwt>
<totfact> 0.53620439E+01</totfact>
</mgrwt>
</event>
<event>
12    1  0.1519630E-007  0.1183022E+04  0.7818608E-02  0.9127849E-01
         -1   -1    0    0    0  501 -0.00000000000E+00  0.00000000000E+00  0.30503401758E+03  0.30503401758E+03  0.00000000000E+00 0.  1.
          1   -1    0    0  501    0  0.00000000000E+00 -0.00000000000E+00 -0.11470364538E+04  0.11470364538E+04  0.00000000000E+00 0. -1.
         23    2    1    2    0    0 -0.96849288065E+02  0.83289993575E+02 -0.43015641401E+03  0.45812344825E+03  0.92333881609E+02 0.  0.
        254    2    1    2    0    0  0.96849288065E+02 -0.83289993575E+02 -0.41184602218E+03  0.99394702309E+03  0.89554259033E+03 0.  0.
        -24    2    4    4    0    0 -0.29427915084E+03  0.53057404263E+02 -0.47587321592E+03  0.56736293821E+03  0.77653584976E+02 0.  0.
         24    2    4    4    0    0  0.39112843890E+03 -0.13634739784E+03  0.64027193746E+02  0.42658408488E+03  0.79387853712E+02 0.  0.
         11    1    3    3    0    0 -0.25801739760E+02  0.73553427559E+02 -0.29495805662E+03  0.30508374530E+03  0.00000000000E+00 0. -1.
        -11    1    3    3    0    0 -0.71047548305E+02  0.97365660154E+01 -0.13519835738E+03  0.15303970294E+03  0.00000000000E+00 0.  1.
          2    1    6    6  502    0  0.48047334085E+02 -0.45215935929E+02  0.57871889380E+00  0.65980012808E+02  0.00000000000E+00 0. -1.
          1    1    5    5  503    0 -0.14915638602E+03  0.50030495604E+02 -0.18942872488E+03  0.24623955773E+03  0.00000000000E+00 0. -1.
         -2    1    5    5    0  503 -0.14512276481E+03  0.30269086592E+01 -0.28644449104E+03  0.32112338048E+03  0.00000000000E+00 0.  1.
         -1    1    6    6    0  502  0.34308110482E+03 -0.91131461909E+02  0.63448474853E+02  0.36060407207E+03  0.00000000000E+00 0.  1.
<mgrwt>
<rscale>  0 0.11830218E+04</rscale>
<asrwt>0</asrwt>
<pdfrwt beam="1">  1        1 0.17646715E+00 0.11830218E+04</pdfrwt>
<pdfrwt beam="2">  1       -1 0.46928310E-01 0.11830218E+04</pdfrwt>
<totfact> 0.52418981E+01</totfact>
</mgrwt>
</event>
<event>
12    1  0.1519630E-007  0.1341557E+04  0.7818608E-02  0.8997244E-01
         -2   -1    0    0    0  501 -0.00000000000E+00  0.00000000000E+00  0.14220194362E+03  0.14220194362E+03  0.00000000000E+00 0.  1.
          2   -1    0    0  501    0  0.00000000000E+00 -0.00000000000E+00 -0.31641197776E+04  0.31641197776E+04  0.00000000000E+00 0. -1.
         23    2    1    2    0    0 -0.31738471146E+03 -0.40818645568E+02 -0.43279911058E+03  0.54734627180E+03  0.99366263098E+02 0.  0.
        254    2    1    2    0    0  0.31738471146E+03  0.40818645568E+02 -0.25891187234E+04  0.27589754494E+04  0.89778090295E+03 0.  0.
        -24    2    4    4    0    0 -0.14399541767E+03  0.25803707831E+03 -0.37071202190E+03  0.48128733410E+03  0.83019760876E+02 0.  0.
         24    2    4    4    0    0  0.46138012912E+03 -0.21721843274E+03 -0.22184067015E+04  0.22776881153E+04  0.80494635188E+02 0.  0.
         11    1    3    3    0    0 -0.49591629673E+02 -0.34638009933E+01 -0.19375615623E+02  0.53354869803E+02  0.00000000000E+00 0. -1.
        -11    1    3    3    0    0 -0.26779308179E+03 -0.37354844574E+02 -0.41342349496E+03  0.49399140200E+03  0.00000000000E+00 0.  1.
          2    1    6    6  502    0  0.41795822214E+03 -0.17155420949E+03 -0.19984593566E+04  0.20488923159E+04  0.00000000000E+00 0. -1.
          3    1    5    5  503    0 -0.11331185526E+03  0.23271599587E+03 -0.35303186927E+03  0.43775314048E+03  0.00000000000E+00 0. -1.
         -4    1    5    5    0  503 -0.30683562401E+02  0.25321082435E+02 -0.17680152625E+02  0.43534193619E+02  0.00000000000E+00 0.  1.
         -1    1    6    6    0  502  0.43421906987E+02 -0.45664223247E+02 -0.21994734492E+03  0.22879579941E+03  0.00000000000E+00 0.  1.
<mgrwt>
<rscale>  0 0.13415573E+04</rscale>
<asrwt>0</asrwt>
<pdfrwt beam="1">  1        2 0.48678770E+00 0.13415573E+04</pdfrwt>
<pdfrwt beam="2">  1       -2 0.21877220E-01 0.13415573E+04</pdfrwt>
<totfact> 0.24708718E+01</totfact>
</mgrwt>
</event>
<event>
12    1  0.1519630E-007  0.2366338E+04  0.7818608E-02  0.8452215E-01
          1   -1    0    0  501    0  0.00000000000E+00  0.00000000000E+00  0.13803093403E+04  0.13803093403E+04  0.00000000000E+00 0. -1.
         -1   -1    0    0    0  501 -0.00000000000E+00 -0.00000000000E+00 -0.10141850019E+04  0.10141850019E+04  0.00000000000E+00 0.  1.
         23    2    1    2    0    0 -0.61520944499E+03 -0.46109012748E+03 -0.51095411453E+03  0.92762397942E+03  0.91243482879E+02 0.  0.
        254    2    1    2    0    0  0.61520944499E+03  0.46109012748E+03  0.87707845293E+03  0.14668703628E+04  0.88958152065E+03 0.  0.
        -24    2    4    4    0    0  0.78611562851E+03  0.14164031095E+03  0.56646091358E+03  0.98270136090E+03  0.82366492168E+02 0.  0.
         24    2    4    4    0    0 -0.17090618351E+03  0.31944981653E+03  0.31061753935E+03  0.48416900193E+03  0.81726726562E+02 0.  0.
         11    1    3    3    0    0 -0.38940293630E+03 -0.31534612234E+03 -0.28468589154E+03  0.57630190050E+03  0.00000000000E+00 0.  1.
        -11    1    3    3    0    0 -0.22580650869E+03 -0.14574400514E+03 -0.22626822299E+03  0.35132207892E+03  0.00000000000E+00 0. -1.
          2    1    6    6  502    0 -0.14555924197E+02  0.99052675115E+02  0.10061484623E+03  0.14193891172E+03  0.00000000000E+00 0. -1.
          1    1    5    5  503    0  0.48435756135E+03  0.48074143588E+02  0.32946807621E+03  0.58776065177E+03  0.00000000000E+00 0. -1.
         -2    1    5    5    0  503  0.30175806715E+03  0.93566167364E+02  0.23699283737E+03  0.39494070913E+03  0.00000000000E+00 0.  1.
         -1    1    6    6    0  502 -0.15635025931E+03  0.22039714141E+03  0.21000269312E+03  0.34223009021E+03  0.00000000000E+00 0.  1.
<mgrwt>
<rscale>  0 0.23663381E+04</rscale>
<asrwt>0</asrwt>
<pdfrwt beam="1">  1        1 0.21235528E+00 0.23663381E+04</pdfrwt>
<pdfrwt beam="2">  1       -1 0.15602846E+00 0.23663381E+04</pdfrwt>
<totfact> 0.22340846E+00</totfact>
</mgrwt>
</event>
<event>
12    1  0.1519630E-007  0.1650248E+04  0.7818608E-02  0.8790260E-01
         -1   -1    0    0    0  501 -0.00000000000E+00  0.00000000000E+00  0.90548224462E+03  0.90548224462E+03  0.00000000000E+00 0.  1.
          1   -1    0    0  501    0  0.00000000000E+00 -0.00000000000E+00 -0.75189734380E+03  0.75189734380E+03  0.00000000000E+00 0. -1.
         23    2    1    2    0    0  0.25664991322E+02 -0.16275218807E+03  0.59581037313E+03  0.62477691512E+03  0.90604781529E+02 0.  0.
        254    2    1    2    0    0 -0.25664991322E+02  0.16275218807E+03 -0.44222547230E+03  0.10326026733E+04  0.91845410668E+03 0.  0.
        -24    2    4    4    0    0  0.36158065230E+03 -0.17348394164E+03 -0.24925942652E+03  0.47878229228E+03  0.79151598618E+02 0.  0.
         24    2    4    4    0    0 -0.38724564362E+03  0.33623612971E+03 -0.19296604578E+03  0.55382038103E+03  0.80418879573E+02 0.  0.
         13    1    3    3    0    0  0.55079090439E+02 -0.78082911509E+02  0.25303561834E+03  0.27047674840E+03  0.00000000000E+00 0. -1.
        -13    1    3    3    0    0 -0.29414099117E+02 -0.84669276563E+02  0.34277475478E+03  0.35430016672E+03  0.00000000000E+00 0.  1.
          4    1    6    6  502    0 -0.31260067919E+03  0.24904910986E+03 -0.11801584687E+03  0.41674018748E+03  0.00000000000E+00 0. -1.
          1    1    5    5  503    0  0.30595706204E+03 -0.15038985349E+03 -0.24208520736E+03  0.41812926167E+03  0.00000000000E+00 0. -1.
         -2    1    5    5    0  503  0.55623590262E+02 -0.23094088150E+02 -0.71742191623E+01  0.60653030606E+02  0.00000000000E+00 0.  1.
         -3    1    6    6    0  502 -0.74644964434E+02  0.87187019854E+02 -0.74950198912E+02  0.13708019355E+03  0.00000000000E+00 0.  1.
<mgrwt>
<rscale>  0 0.16502481E+04</rscale>
<asrwt>0</asrwt>
<pdfrwt beam="1">  1        1 0.11567651E+00 0.16502481E+04</pdfrwt>
<pdfrwt beam="2">  1       -1 0.13930496E+00 0.16502481E+04</pdfrwt>
<totfact> 0.99009746E+00</totfact>
</mgrwt>
</event>
<event>
12    1  0.1519630E-007  0.1616163E+04  0.7818608E-02  0.8810680E-01
          2   -1    0    0  501    0  0.00000000000E+00  0.00000000000E+00  0.13158507764E+04  0.13158507764E+04  0.00000000000E+00 0. -1.
         -2   -1    0    0    0  501 -0.00000000000E+00 -0.00000000000E+00 -0.49625355697E+03  0.49625355697E+03  0.00000000000E+00 0.  1.
         23    2    1    2    0    0 -0.27493974959E+03 -0.17314732800E+03 -0.11110439464E+03  0.35373180933E+03  0.84912562806E+02 0.  0.
        254    2    1    2    0    0  0.27493974959E+03  0.17314732800E+03  0.93070161405E+03  0.14583725240E+04  0.10747432537E+04 0.  0.
        -24    2    4    4    0    0  0.62728604139E+03  0.61971334641E+02  0.25632148984E+03  0.68507339126E+03  0.79351252122E+02 0.  0.
         24    2    4    4    0    0 -0.35234629180E+03  0.11117599336E+03  0.67438012421E+03  0.77329913277E+03  0.81822893875E+02 0.  0.
         11    1    3    3    0    0 -0.10517944538E+02 -0.15453420801E+02  0.11939541834E+02  0.22180803208E+02  0.00000000000E+00 0. -1.
        -11    1    3    3    0    0 -0.26442180505E+03 -0.15769390720E+03 -0.12304393647E+03  0.33155100612E+03  0.00000000000E+00 0.  1.
          2    1    6    6  502    0 -0.42909213173E+02 -0.10564571762E+02  0.10519221295E+03  0.11409738129E+03  0.00000000000E+00 0. -1.
          1    1    5    5  503    0  0.27366974251E+03  0.78920715169E+00  0.14273340205E+03  0.30865607863E+03  0.00000000000E+00 0. -1.
         -2    1    5    5    0  503  0.35361629888E+03  0.61182127489E+02  0.11358808779E+03  0.37641731263E+03  0.00000000000E+00 0.  1.
         -1    1    6    6    0  502 -0.30943707863E+03  0.12174056512E+03  0.56918791126E+03  0.65920175148E+03  0.00000000000E+00 0.  1.
<mgrwt>
<rscale>  0 0.16161629E+04</rscale>
<asrwt>0</asrwt>
<pdfrwt beam="1">  1        2 0.20243858E+00 0.16161629E+04</pdfrwt>
<pdfrwt beam="2">  1       -2 0.76346702E-01 0.16161629E+04</pdfrwt>
<totfact> 0.23790752E+01</totfact>
</mgrwt>
</event>
<event>
12    1  0.1519630E-007  0.1795875E+04  0.7818608E-02  0.8708496E-01
         -1   -1    0    0    0  501 -0.00000000000E+00  0.00000000000E+00  0.10544484350E+04  0.10544484350E+04  0.00000000000E+00 0.  1.
          1   -1    0    0  501    0  0.00000000000E+00 -0.00000000000E+00 -0.76465736531E+03  0.76465736531E+03  0.00000000000E+00 0. -1.
         23    2    1    2    0    0  0.19042203965E+03  0.34662333741E+03  0.67246096781E+03  0.78553694292E+03  0.91957839438E+02 0.  0.
        254    2    1    2    0    0 -0.19042203965E+03 -0.34662333741E+03 -0.38266989809E+03  0.10335688574E+04  0.87488287268E+03 0.  0.
        -24    2    4    4    0    0 -0.34374054337E+02  0.42595335315E+02 -0.56219869261E+03  0.57053361579E+03  0.80282616886E+02 0.  0.
         24    2    4    4    0    0 -0.15604798531E+03 -0.38921867272E+03  0.17952879452E+03  0.46303524163E+03  0.79554371452E+02 0.  0.
         11    1    3    3    0    0  0.30929404980E+01  0.27071552263E+01  0.49720683662E+02  0.49890293185E+02  0.00000000000E+00 0. -1.
        -11    1    3    3    0    0  0.18732909915E+03  0.34391618218E+03  0.62274028415E+03  0.73564664973E+03  0.00000000000E+00 0.  1.
          2    1    6    6  502    0 -0.11772320075E+03 -0.33869823583E+03  0.17622296366E+03  0.39953695683E+03  0.00000000000E+00 0. -1.
          1    1    5    5  503    0 -0.49314617469E+01 -0.23556628750E+02 -0.11279437484E+03  0.11533345165E+03  0.00000000000E+00 0. -1.
         -2    1    5    5    0  503 -0.29442592590E+02  0.66151964065E+02 -0.44940431777E+03  0.45520016414E+03  0.00000000000E+00 0.  1.
         -1    1    6    6    0  502 -0.38324784561E+02 -0.50520436894E+02  0.33058308542E+01  0.63498284805E+02  0.00000000000E+00 0.  1.
<mgrwt>
<rscale>  0 0.17958750E+04</rscale>
<asrwt>0</asrwt>
<pdfrwt beam="1">  1        1 0.11763960E+00 0.17958750E+04</pdfrwt>
<pdfrwt beam="2">  1       -1 0.16222284E+00 0.17958750E+04</pdfrwt>
<totfact> 0.63056013E+00</totfact>
</mgrwt>
</event>
<event>
12    1  0.1519630E-007  0.2262406E+04  0.7818608E-02  0.8492893E-01
          1   -1    0    0  501    0  0.00000000000E+00  0.00000000000E+00  0.58679520297E+03  0.58679520297E+03  0.00000000000E+00 0. -1.
         -1   -1    0    0    0  501 -0.00000000000E+00 -0.00000000000E+00 -0.21806928147E+04  0.21806928147E+04  0.00000000000E+00 0.  1.
         23    2    1    2    0    0 -0.60986348830E+02 -0.74013891977E+03 -0.14108734194E+04  0.15969335241E+04  0.90043986579E+02 0.  0.
        254    2    1    2    0    0  0.60986348830E+02  0.74013891977E+03 -0.18302419226E+03  0.11705544935E+04  0.88610101682E+03 0.  0.
        -24    2    4    4    0    0  0.19820913018E+03  0.64461373098E+03  0.23068294850E+03  0.71732463915E+03  0.80785479825E+02 0.  0.
         24    2    4    4    0    0 -0.13722278135E+03  0.95525188795E+02 -0.41370714077E+03  0.45322985436E+03  0.79426375597E+02 0.  0.
         13    1    3    3    0    0 -0.39506526615E+02 -0.35588462617E+03 -0.77392612090E+03  0.85274631245E+03  0.00000000000E+00 0. -1.
        -13    1    3    3    0    0 -0.21479822215E+02 -0.38425429361E+03 -0.63694729854E+03  0.74418721169E+03  0.00000000000E+00 0.  1.
          4    1    6    6  502    0 -0.97291368171E+01  0.37085370511E+01  0.29648743189E+00  0.10416201566E+02  0.00000000000E+00 0. -1.
          1    1    5    5  503    0  0.11560567525E+03  0.37412075653E+03  0.91573283022E+02  0.40214012332E+03  0.00000000000E+00 0. -1.
         -2    1    5    5    0  503  0.82603454930E+02  0.27049297445E+03  0.13910966548E+03  0.31518451583E+03  0.00000000000E+00 0.  1.
         -3    1    6    6    0  502 -0.12749364453E+03  0.91816651744E+02 -0.41400362820E+03  0.44281365279E+03  0.00000000000E+00 0.  1.
<mgrwt>
<rscale>  0 0.22624059E+04</rscale>
<asrwt>0</asrwt>
<pdfrwt beam="1">  1        1 0.90276185E-01 0.22624059E+04</pdfrwt>
<pdfrwt beam="2">  1       -1 0.33549120E+00 0.22624059E+04</pdfrwt>
<totfact> 0.62174489E-01</totfact>
</mgrwt>
</event>
<event>
12    1  0.1519630E-007  0.1580254E+04  0.7818608E-02  0.8832771E-01
         -2   -1    0    0    0  501 -0.00000000000E+00  0.00000000000E+00  0.10373099311E+04  0.10373099311E+04  0.00000000000E+00 0.  1.
          2   -1    0    0  501    0  0.00000000000E+00 -0.00000000000E+00 -0.60184606291E+03  0.60184606291E+03  0.00000000000E+00 0. -1.
         23    2    1    2    0    0  0.92500012843E+02  0.39834643294E+03 -0.19729836186E+03  0.46352774049E+03  0.93248000528E+02 0.  0.
        254    2    1    2    0    0 -0.92500012843E+02 -0.39834643294E+03  0.63276223008E+03  0.11756282535E+04  0.90248413709E+03 0.  0.
        -24    2    4    4    0    0 -0.22529666307E+02  0.27023546053E+03  0.32820930355E+03  0.43311728016E+03  0.79589204319E+02 0.  0.
         24    2    4    4    0    0 -0.69970346536E+02 -0.66858189347E+03  0.30455292653E+03  0.74251097338E+03  0.81685144700E+02 0.  0.
         11    1    3    3    0    0  0.93814873098E+02  0.39667648301E+03 -0.20448412027E+03  0.45603422902E+03  0.00000000000E+00 0. -1.
        -11    1    3    3    0    0 -0.13148602548E+01  0.16699499281E+01  0.71857584162E+01  0.74935114778E+01  0.00000000000E+00 0.  1.
          2    1    6    6  502    0 -0.17905415126E+02 -0.47044947382E+03  0.23487157225E+03  0.52612542873E+03  0.00000000000E+00 0. -1.
          3    1    5    5  503    0 -0.46883908339E+02  0.17403136351E+03  0.17979052607E+03  0.25457739415E+03  0.00000000000E+00 0. -1.
         -4    1    5    5    0  503  0.24354242032E+02  0.96204097018E+02  0.14841877748E+03  0.17853988601E+03  0.00000000000E+00 0.  1.
         -1    1    6    6    0  502 -0.52064931410E+02 -0.19813241965E+03  0.69681354286E+02  0.21638554465E+03  0.00000000000E+00 0.  1.
<mgrwt>
<rscale>  0 0.15802543E+04</rscale>
<asrwt>0</asrwt>
<pdfrwt beam="1">  1        2 0.92591702E-01 0.15802543E+04</pdfrwt>
<pdfrwt beam="2">  1       -2 0.15958614E+00 0.15802543E+04</pdfrwt>
<totfact> 0.12027990E+01</totfact>
</mgrwt>
</event>
<event>
12    1  0.1519630E-007  0.1289837E+04  0.7818608E-02  0.9037664E-01
          1   -1    0    0  501    0  0.00000000000E+00  0.00000000000E+00  0.75950822189E+03  0.75950822189E+03  0.00000000000E+00 0. -1.
         -1   -1    0    0    0  501 -0.00000000000E+00 -0.00000000000E+00 -0.54761716661E+03  0.54761716661E+03  0.00000000000E+00 0.  1.
         23    2    1    2    0    0 -0.16537901873E+03  0.12573902800E+03 -0.19368723660E+03  0.29813186257E+03  0.90594364397E+02 0.  0.
        254    2    1    2    0    0  0.16537901873E+03 -0.12573902800E+03  0.40557829187E+03  0.10089935259E+04  0.90022978263E+03 0.  0.
        -24    2    4    4    0    0 -0.28481373540E+01  0.34931691099E+03  0.34102138470E+03  0.49463044089E+03  0.79581857470E+02 0.  0.
         24    2    4    4    0    0  0.16822715608E+03 -0.47505593899E+03  0.64556907176E+02  0.51436308504E+03  0.80145291674E+02 0.  0.
         11    1    3    3    0    0 -0.22994887677E+02  0.93532565290E+01  0.71353382123E+01  0.25829466088E+02  0.00000000000E+00 0. -1.
        -11    1    3    3    0    0 -0.14238413105E+03  0.11638577147E+03 -0.20082257481E+03  0.27230239648E+03  0.00000000000E+00 0.  1.
          2    1    6    6  502    0  0.64085397427E+02 -0.23689414693E+03  0.67091390054E+02  0.25441507352E+03  0.00000000000E+00 0. -1.
          3    1    5    5  503    0  0.18774930382E+01  0.12742276653E+03  0.17948476211E+03  0.22012466068E+03  0.00000000000E+00 0. -1.
         -2    1    5    5    0  503 -0.47256303922E+01  0.22189414446E+03  0.16153662259E+03  0.27450578021E+03  0.00000000000E+00 0.  1.
         -1    1    6    6    0  502  0.10414175865E+03 -0.23816179206E+03 -0.25344828781E+01  0.25994801152E+03  0.00000000000E+00 0.  1.
<mgrwt>
<rscale>  0 0.12898368E+04</rscale>
<asrwt>0</asrwt>
<pdfrwt beam="1">  1        1 0.11684742E+00 0.12898368E+04</pdfrwt>
<pdfrwt beam="2">  1       -1 0.84248795E-01 0.12898368E+04</pdfrwt>
<totfact> 0.32970146E+01</totfact>
</mgrwt>
</event>
<event>
12    1  0.1519630E-007  0.1317705E+04  0.7818608E-02  0.9015642E-01
         -2   -1    0    0    0  501 -0.00000000000E+00  0.00000000000E+00  0.27359318151E+03  0.27359318151E+03  0.00000000000E+00 0.  1.
          2   -1    0    0  501    0  0.00000000000E+00 -0.00000000000E+00 -0.15866133656E+04  0.15866133656E+04  0.00000000000E+00 0. -1.
         23    2    1    2    0    0 -0.55848303835E+02 -0.25396232462E+03 -0.77720921800E+03  0.82528038702E+03  0.97044594387E+02 0.  0.
        254    2    1    2    0    0  0.55848303835E+02  0.25396232462E+03 -0.53581096607E+03  0.10349261601E+04  0.84638222458E+03 0.  0.
        -24    2    4    4    0    0 -0.25183425789E+03 -0.17358540474E+03 -0.63058136788E+02  0.32225237726E+03  0.79485091974E+02 0.  0.
         24    2    4    4    0    0  0.30768256173E+03  0.42754772935E+03 -0.47275282929E+03  0.71267378282E+03  0.83325046974E+02 0.  0.
         13    1    3    3    0    0 -0.12410630916E+02 -0.20397939983E+03 -0.65687223316E+03  0.68792641323E+03  0.00000000000E+00 0. -1.
        -13    1    3    3    0    0 -0.43437672919E+02 -0.49982924782E+02 -0.12033698484E+03  0.13735397380E+03  0.00000000000E+00 0.  1.
          2    1    6    6  502    0  0.17791445001E+03  0.28364824315E+03 -0.25281600256E+03  0.41955429746E+03  0.00000000000E+00 0. -1.
          1    1    5    5  503    0 -0.74626807817E+02 -0.79142978402E+02 -0.53497415107E+02  0.12122188292E+03  0.00000000000E+00 0. -1.
         -2    1    5    5    0  503 -0.17720745008E+03 -0.94442426334E+02 -0.95607216807E+01  0.20103049434E+03  0.00000000000E+00 0.  1.
         -1    1    6    6    0  502  0.12976811172E+03  0.14389948620E+03 -0.21993682673E+03  0.29311948536E+03  0.00000000000E+00 0.  1.
<mgrwt>
<rscale>  0 0.13177050E+04</rscale>
<asrwt>0</asrwt>
<pdfrwt beam="1">  1        2 0.24409436E+00 0.13177050E+04</pdfrwt>
<pdfrwt beam="2">  1       -2 0.42091259E-01 0.13177050E+04</pdfrwt>
<totfact> 0.59402306E+01</totfact>
</mgrwt>
</event>
<event>
12    1  0.1519630E-007  0.1669826E+04  0.7818608E-02  0.8778763E-01
          1   -1    0    0  501    0  0.00000000000E+00  0.00000000000E+00  0.97233740225E+03  0.97233740225E+03  0.00000000000E+00 0. -1.
         -1   -1    0    0    0  501 -0.00000000000E+00 -0.00000000000E+00 -0.71691164222E+03  0.71691164222E+03  0.00000000000E+00 0.  1.
         23    2    1    2    0    0 -0.15339182473E+02  0.63496658700E+02 -0.49540659269E+03  0.50798363571E+03  0.91392373219E+02 0.  0.
        254    2    1    2    0    0  0.15339182473E+02 -0.63496658700E+02  0.75083235272E+03  0.11812654088E+04  0.90959970749E+03 0.  0.
        -24    2    4    4    0    0  0.24545496968E+03 -0.37062598371E+03  0.62281063803E+03  0.76904484158E+03  0.76974772310E+02 0.  0.
         24    2    4    4    0    0 -0.23011578721E+03  0.30712932501E+03  0.12802171470E+03  0.41222056719E+03  0.79085642007E+02 0.  0.
         13    1    3    3    0    0  0.11242440796E+02 -0.42098465951E+01 -0.64140736884E+01  0.13610864215E+02  0.00000000000E+00 0. -1.
        -13    1    3    3    0    0 -0.26581623269E+02  0.67706505295E+02 -0.48899251900E+03  0.49437277150E+03  0.00000000000E+00 0.  1.
          4    1    6    6  502    0 -0.50399942313E+02  0.22737069300E+02  0.21773122340E+02  0.59423878718E+02  0.00000000000E+00 0. -1.
          1    1    5    5  503    0 -0.45198269603E+01 -0.15477704359E+02  0.31401620330E+02  0.35299432394E+02  0.00000000000E+00 0. -1.
         -2    1    5    5    0  503  0.24997479665E+03 -0.35514827935E+03  0.59140901770E+03  0.73374540918E+03  0.00000000000E+00 0.  1.
         -3    1    6    6    0  502 -0.17971584490E+03  0.28439225571E+03  0.10624859236E+03  0.35279668847E+03  0.00000000000E+00 0.  1.
<mgrwt>
<rscale>  0 0.16698263E+04</rscale>
<asrwt>0</asrwt>
<pdfrwt beam="1">  1        1 0.14959037E+00 0.16698263E+04</pdfrwt>
<pdfrwt beam="2">  1       -1 0.11029410E+00 0.16698263E+04</pdfrwt>
<totfact> 0.11512947E+01</totfact>
</mgrwt>
</event>
<event>
12    1  0.1519630E-007  0.2057123E+04  0.7818608E-02  0.8580370E-01
          1   -1    0    0  501    0  0.00000000000E+00  0.00000000000E+00  0.10232066267E+04  0.10232066267E+04  0.00000000000E+00 0. -1.
         -1   -1    0    0    0  501 -0.00000000000E+00 -0.00000000000E+00 -0.10339441584E+04  0.10339441584E+04  0.00000000000E+00 0.  1.
         23    2    1    2    0    0  0.44615180809E+03 -0.85276732948E+02 -0.69799287240E+03  0.83802440755E+03  0.93633865032E+02 0.  0.
        254    2    1    2    0    0 -0.44615180809E+03  0.85276732948E+02  0.68725534069E+03  0.12191263776E+04  0.89867995655E+03 0.  0.
        -24    2    4    4    0    0 -0.40789154945E+03 -0.96043559560E+02  0.85580174239E+03  0.95586591026E+03  0.75386568201E+02 0.  0.
         24    2    4    4    0    0 -0.38260258636E+02  0.18132029251E+03 -0.16854640170E+03  0.26326046738E+03  0.80977084993E+02 0.  0.
         13    1    3    3    0    0  0.11248984367E+03  0.11859272356E+02 -0.13172606889E+03  0.17362708457E+03  0.00000000000E+00 0. -1.
        -13    1    3    3    0    0  0.33366196441E+03 -0.97136005304E+02 -0.56626680351E+03  0.66439732298E+03  0.00000000000E+00 0.  1.
          2    1    6    6  502    0 -0.29439516260E+01  0.33729321117E+02  0.32757442899E+01  0.34015650146E+02  0.00000000000E+00 0. -1.
          1    1    5    5  503    0 -0.22741313624E+03 -0.34170113906E+02  0.39396168127E+03  0.45616897914E+03  0.00000000000E+00 0. -1.
         -2    1    5    5    0  503 -0.18047841321E+03 -0.61873445655E+02  0.46184006112E+03  0.49969693112E+03  0.00000000000E+00 0.  1.
         -3    1    6    6    0  502 -0.35316307010E+02  0.14759097139E+03 -0.17182214599E+03  0.22924481724E+03  0.00000000000E+00 0.  1.
<mgrwt>
<rscale>  0 0.20571228E+04</rscale>
<asrwt>0</asrwt>
<pdfrwt beam="1">  1        1 0.15741640E+00 0.20571228E+04</pdfrwt>
<pdfrwt beam="2">  1       -1 0.15906833E+00 0.20571228E+04</pdfrwt>
<totfact> 0.39799112E+00</totfact>
</mgrwt>
</event>
<event>
12    1  0.1519630E-007  0.1429757E+04  0.7818608E-02  0.8932556E-01
          1   -1    0    0  501    0  0.00000000000E+00  0.00000000000E+00  0.93905689016E+03  0.93905689016E+03  0.00000000000E+00 0. -1.
         -1   -1    0    0    0  501 -0.00000000000E+00 -0.00000000000E+00 -0.54421752310E+03  0.54421752310E+03  0.00000000000E+00 0.  1.
         23    2    1    2    0    0 -0.32232071377E+03  0.28008561806E+03  0.19007962024E+03  0.47611671814E+03  0.90654681595E+02 0.  0.
        254    2    1    2    0    0  0.32232071377E+03 -0.28008561806E+03  0.20475974683E+03  0.10071576951E+04  0.88887652289E+03 0.  0.
        -24    2    4    4    0    0  0.52819044565E+03 -0.43766770178E+03  0.44255477850E+02  0.69216919987E+03  0.81249553034E+02 0.  0.
         24    2    4    4    0    0 -0.20586973188E+03  0.15758208372E+03  0.16050426898E+03  0.31498849525E+03  0.79004254087E+02 0.  0.
         11    1    3    3    0    0 -0.86448951117E+02  0.59135782239E+02  0.89111138359E+02  0.13751820559E+03  0.00000000000E+00 0. -1.
        -11    1    3    3    0    0 -0.23587176265E+03  0.22094983582E+03  0.10096848188E+03  0.33859851255E+03  0.00000000000E+00 0.  1.
          4    1    6    6  502    0 -0.13657433681E+03  0.83398551997E+02  0.13730707262E+03  0.21085800944E+03  0.00000000000E+00 0. -1.
          1    1    5    5  503    0  0.32205894620E+03 -0.23998072377E+03 -0.85247775128E+01  0.40172799808E+03  0.00000000000E+00 0. -1.
         -2    1    5    5    0  503  0.20613149945E+03 -0.19768697802E+03  0.52780255363E+02  0.29044120179E+03  0.00000000000E+00 0.  1.
         -3    1    6    6    0  502 -0.69295395067E+02  0.74183531724E+02  0.23197196355E+02  0.10413048581E+03  0.00000000000E+00 0.  1.
<mgrwt>
<rscale>  0 0.14297569E+04</rscale>
<asrwt>0</asrwt>
<pdfrwt beam="1">  1        1 0.14447029E+00 0.14297569E+04</pdfrwt>
<pdfrwt beam="2">  1       -1 0.83725773E-01 0.14297569E+04</pdfrwt>
<totfact> 0.23282316E+01</totfact>
</mgrwt>
</event>
<event>
12    1  0.2071364E-007  0.1543660E+04  0.7818608E-02  0.8855927E-01
         -2   -1    0    0    0  501 -0.00000000000E+00  0.00000000000E+00  0.30002385431E+03  0.30002385431E+03  0.00000000000E+00 0.  1.
          2   -1    0    0  501    0  0.00000000000E+00 -0.00000000000E+00 -0.19855814873E+04  0.19855814873E+04  0.00000000000E+00 0. -1.
         23    2    1    2    0    0  0.11737536300E+01 -0.49372712545E+02 -0.12812085358E+04  0.12851629687E+04  0.87803765907E+02 0.  0.
        254    2    1    2    0    0 -0.11737536300E+01  0.49372712545E+02 -0.40434909717E+03  0.10004423730E+04  0.91375473010E+03 0.  0.
        -24    2    4    4    0    0 -0.37752854537E+03  0.89442758231E+02  0.54261969246E+02  0.39982434109E+03  0.79920791114E+02 0.  0.
         24    2    4    4    0    0  0.37635479174E+03 -0.40070045686E+02 -0.45861106641E+03  0.60061803187E+03  0.84672145061E+02 0.  0.
         13    1    3    3    0    0  0.22239770836E+02 -0.66559675971E+02 -0.10539846170E+04  0.10563183094E+04  0.00000000000E+00 0. -1.
        -13    1    3    3    0    0 -0.21066017206E+02  0.17186963426E+02 -0.22722391880E+03  0.22884465925E+03  0.00000000000E+00 0.  1.
          2    1    6    6  502    0  0.38104799620E+03 -0.39769189346E+02 -0.45241508648E+03  0.59283941696E+03  0.00000000000E+00 0. -1.
          3    1    5    5  503    0 -0.33832660771E+03  0.52920639963E+02  0.50076924028E+02  0.34608262878E+03  0.00000000000E+00 0. -1.
         -4    1    5    5    0  503 -0.39201937653E+02  0.36522118267E+02  0.41850452176E+01  0.53741712309E+02  0.00000000000E+00 0.  1.
         -1    1    6    6    0  502 -0.46932044590E+01 -0.30085634028E+00 -0.61959799369E+01  0.77786149159E+01  0.00000000000E+00 0.  1.
<mgrwt>
<rscale>  0 0.15436603E+04</rscale>
<asrwt>0</asrwt>
<pdfrwt beam="1">  1        2 0.30547406E+00 0.15436603E+04</pdfrwt>
<pdfrwt beam="2">  1       -2 0.46157518E-01 0.15436603E+04</pdfrwt>
<totfact> 0.29176468E+01</totfact>
</mgrwt>
</event>
<event>
12    1  0.1519630E-007  0.1486750E+04  0.7818608E-02  0.8893312E-01
          2   -1    0    0  501    0  0.00000000000E+00  0.00000000000E+00  0.93588821773E+03  0.93588821773E+03  0.00000000000E+00 0. -1.
         -2   -1    0    0    0  501 -0.00000000000E+00 -0.00000000000E+00 -0.59046159564E+03  0.59046159564E+03  0.00000000000E+00 0.  1.
         23    2    1    2    0    0  0.44795219985E+03  0.36953227578E+02  0.35808888582E+03  0.58699023448E+03  0.11959586467E+03 0.  0.
        254    2    1    2    0    0 -0.44795219985E+03 -0.36953227578E+02 -0.12662263736E+02  0.93935957888E+03  0.82474806525E+03 0.  0.
        -24    2    4    4    0    0  0.21856072059E+03  0.60044037055E+02  0.84305488624E+02  0.25416193183E+03  0.78209955967E+02 0.  0.
         24    2    4    4    0    0 -0.66651292044E+03 -0.96997264632E+02 -0.96967752359E+02  0.68519764705E+03  0.80281554978E+02 0.  0.
         11    1    3    3    0    0  0.26065024317E+03 -0.30894058370E+02  0.16798923755E+03  0.31163019115E+03  0.00000000000E+00 0.  1.
        -11    1    3    3    0    0  0.18730195669E+03  0.67847285947E+02  0.19009964827E+03  0.27536004333E+03  0.00000000000E+00 0. -1.
          4    1    6    6  502    0 -0.41893276130E+03 -0.96316746682E+02 -0.78091634163E+02  0.43689801728E+03  0.00000000000E+00 0. -1.
          1    1    5    5  503    0  0.19887468579E+03  0.74517534252E+02  0.87149955991E+02  0.22956288547E+03  0.00000000000E+00 0. -1.
         -2    1    5    5    0  503  0.19686034799E+02 -0.14473497197E+02 -0.28444673669E+01  0.24599046360E+02  0.00000000000E+00 0.  1.
         -3    1    6    6    0  502 -0.24758015914E+03 -0.68051795040E+00 -0.18876118197E+02  0.24829962977E+03  0.00000000000E+00 0.  1.
<mgrwt>
<rscale>  0 0.14867495E+04</rscale>
<asrwt>0</asrwt>
<pdfrwt beam="1">  1        2 0.14398280E+00 0.14867495E+04</pdfrwt>
<pdfrwt beam="2">  1       -2 0.90840246E-01 0.14867495E+04</pdfrwt>
<totfact> 0.27757545E+01</totfact>
</mgrwt>
</event>
<event>
12    1  0.1519630E-007  0.1106766E+04  0.7818608E-02  0.9198622E-01
         -2   -1    0    0    0  501 -0.00000000000E+00  0.00000000000E+00  0.80167701546E+03  0.80167701546E+03  0.00000000000E+00 0.  1.
          2   -1    0    0  501    0  0.00000000000E+00 -0.00000000000E+00 -0.38199014515E+03  0.38199014515E+03  0.00000000000E+00 0. -1.
         23    2    1    2    0    0 -0.94180281198E+02 -0.44613471245E+02  0.25239677606E+03  0.28782498440E+03  0.90987921692E+02 0.  0.
        254    2    1    2    0    0  0.94180281198E+02  0.44613471245E+02  0.16729009425E+03  0.89584217621E+03  0.87389183648E+03 0.  0.
        -24    2    4    4    0    0  0.13397981135E+03 -0.27451700773E+03  0.38633910783E+03  0.49894111678E+03  0.79838301574E+02 0.  0.
         24    2    4    4    0    0 -0.39799530150E+02  0.31913047898E+03 -0.21904901358E+03  0.39690105943E+03  0.78228609958E+02 0.  0.
         11    1    3    3    0    0  0.16790693268E+02  0.26985212899E+01  0.22552829767E+02  0.28246053318E+02  0.00000000000E+00 0. -1.
        -11    1    3    3    0    0 -0.11097097447E+03 -0.47311992535E+02  0.22984394630E+03  0.25957893108E+03  0.00000000000E+00 0.  1.
          4    1    6    6  502    0  0.96992085072E+01  0.20851683355E+03 -0.15366928733E+03  0.25920569899E+03  0.00000000000E+00 0. -1.
          1    1    5    5  503    0  0.42133875379E+02 -0.10716168927E+03  0.20774926936E+03  0.23752610387E+03  0.00000000000E+00 0. -1.
         -2    1    5    5    0  503  0.91845935969E+02 -0.16735531846E+03  0.17858983847E+03  0.26141501291E+03  0.00000000000E+00 0.  1.
         -3    1    6    6    0  502 -0.49498738657E+02  0.11061364542E+03 -0.65379726248E+02  0.13769536044E+03  0.00000000000E+00 0.  1.
<mgrwt>
<rscale>  0 0.11067660E+04</rscale>
<asrwt>0</asrwt>
<pdfrwt beam="1">  1        2 0.58767715E-01 0.11067660E+04</pdfrwt>
<pdfrwt beam="2">  1       -2 0.12333493E+00 0.11067660E+04</pdfrwt>
<totfact> 0.41202278E+01</totfact>
</mgrwt>
</event>
<event>
12    1  0.1823463E-007  0.1762908E+04  0.7818608E-02  0.8726277E-01
         -2   -1    0    0    0  501 -0.00000000000E+00  0.00000000000E+00  0.29654565384E+03  0.29654565384E+03  0.00000000000E+00 0.  1.
          2   -1    0    0  501    0  0.00000000000E+00 -0.00000000000E+00 -0.26200398267E+04  0.26200398267E+04  0.00000000000E+00 0. -1.
         23    2    1    2    0    0  0.38935718368E+03 -0.41100158511E+03 -0.13692689512E+04  0.14845412354E+04  0.91890693608E+02 0.  0.
        254    2    1    2    0    0 -0.38935718368E+03  0.41100158511E+03 -0.95422522168E+03  0.14320442451E+04  0.90536380909E+03 0.  0.
        -24    2    4    4    0    0 -0.54720038323E+03  0.55614798739E+03 -0.52134199399E+03  0.94189788181E+03  0.81518720466E+02 0.  0.
         24    2    4    4    0    0  0.15784319955E+03 -0.14514640228E+03 -0.43288322770E+03  0.49014636330E+03  0.82907266867E+02 0.  0.
         11    1    3    3    0    0  0.32231019260E+03 -0.33966904802E+03 -0.10302059402E+04  0.11316285617E+04  0.00000000000E+00 0. -1.
        -11    1    3    3    0    0  0.67046991084E+02 -0.71332537084E+02 -0.33906301099E+03  0.35291267373E+03  0.00000000000E+00 0.  1.
          4    1    6    6  502    0 -0.53273077716E+01  0.50241845075E+01 -0.22765906868E+02  0.23914622171E+02  0.00000000000E+00 0. -1.
          3    1    5    5  503    0 -0.45240801004E+02  0.72147834612E+02 -0.78822428321E+02  0.11603885264E+03  0.00000000000E+00 0. -1.
         -4    1    5    5    0  503 -0.50195958223E+03  0.48400015277E+03 -0.44251956567E+03  0.82585902917E+03  0.00000000000E+00 0.  1.
         -3    1    6    6    0  502  0.16317050732E+03 -0.15017058678E+03 -0.41011732083E+03  0.46623174113E+03  0.00000000000E+00 0.  1.
<mgrwt>
<rscale>  0 0.17629083E+04</rscale>
<asrwt>0</asrwt>
<pdfrwt beam="1">  1        2 0.40308302E+00 0.17629083E+04</pdfrwt>
<pdfrwt beam="2">  1       -2 0.45622411E-01 0.17629083E+04</pdfrwt>
<totfact> 0.12800286E+01</totfact>
</mgrwt>
</event>
<event>
12    1  0.1519630E-007  0.1479396E+04  0.7818608E-02  0.8898271E-01
          1   -1    0    0  501    0  0.00000000000E+00  0.00000000000E+00  0.32481273145E+03  0.32481273145E+03  0.00000000000E+00 0. -1.
         -1   -1    0    0    0  501 -0.00000000000E+00 -0.00000000000E+00 -0.16845190679E+04  0.16845190679E+04  0.00000000000E+00 0.  1.
         23    2    1    2    0    0  0.25989847580E+03 -0.37142723982E+02 -0.95198868181E+03  0.99168665862E+03  0.90736866379E+02 0.  0.
        254    2    1    2    0    0 -0.25989847580E+03  0.37142723982E+02 -0.40771765469E+03  0.10176451408E+04  0.89467376565E+03 0.  0.
        -24    2    4    4    0    0 -0.51745397710E+03  0.69781369950E+02 -0.50344072112E+03  0.72951636088E+03  0.78188893760E+02 0.  0.
         24    2    4    4    0    0  0.25755550130E+03 -0.32638645968E+02  0.95723066427E+02  0.28812877990E+03  0.80344078163E+02 0.  0.
         11    1    3    3    0    0  0.17948821057E+02 -0.30445866960E+02 -0.13988304444E+03  0.14427881727E+03  0.00000000000E+00 0. -1.
        -11    1    3    3    0    0  0.24194965474E+03 -0.66968570218E+01 -0.81210563737E+03  0.84740784134E+03  0.00000000000E+00 0.  1.
          4    1    6    6  502    0  0.21455606130E+03  0.47907757741E+01  0.79445805830E+02  0.22884250269E+03  0.00000000000E+00 0. -1.
          3    1    5    5  503    0 -0.16458474375E+03 -0.85690832817E+01 -0.13120250992E+03  0.21065532434E+03  0.00000000000E+00 0. -1.
         -4    1    5    5    0  503 -0.35286923335E+03  0.78350453231E+02 -0.37223821119E+03  0.51886103654E+03  0.00000000000E+00 0.  1.
         -3    1    6    6    0  502  0.42999440006E+02 -0.37429421742E+02  0.16277260596E+02  0.59286277209E+02  0.00000000000E+00 0.  1.
<mgrwt>
<rscale>  0 0.14793961E+04</rscale>
<asrwt>0</asrwt>
<pdfrwt beam="1">  1        1 0.49971189E-01 0.14793961E+04</pdfrwt>
<pdfrwt beam="2">  1       -1 0.25915678E+00 0.14793961E+04</pdfrwt>
<totfact> 0.46566097E+00</totfact>
</mgrwt>
</event>
<event>
12    1  0.1519630E-007  0.1171539E+04  0.7818608E-02  0.9138140E-01
          2   -1    0    0  501    0  0.00000000000E+00  0.00000000000E+00  0.19564534129E+04  0.19564534129E+04  0.00000000000E+00 0. -1.
         -2   -1    0    0    0  501 -0.00000000000E+00 -0.00000000000E+00 -0.17538156190E+03  0.17538156190E+03  0.00000000000E+00 0.  1.
         23    2    1    2    0    0 -0.50447547089E+02 -0.13407373574E+03  0.40800355756E+02  0.17487448985E+03  0.91628033633E+02 0.  0.
        254    2    1    2    0    0  0.50447547089E+02  0.13407373574E+03  0.17402714952E+04  0.19569604849E+04  0.88353196937E+03 0.  0.
        -24    2    4    4    0    0 -0.26374529403E+03  0.34369280421E+03  0.12925948124E+04  0.13657690186E+04  0.82688205818E+02 0.  0.
         24    2    4    4    0    0  0.31419284112E+03 -0.20961906847E+03  0.44767668284E+03  0.59119146634E+03  0.80222454681E+02 0.  0.
         13    1    3    3    0    0  0.26789007639E+01 -0.42646249616E+02  0.53391676457E+02  0.68385307124E+02  0.00000000000E+00 0. -1.
        -13    1    3    3    0    0 -0.53126447853E+02 -0.91427486120E+02 -0.12591320701E+02  0.10648918272E+03  0.00000000000E+00 0.  1.
          4    1    6    6  502    0  0.16740587934E+03 -0.98953769071E+02  0.28908801942E+03  0.34840846692E+03  0.00000000000E+00 0. -1.
          3    1    5    5  503    0 -0.22005558435E+03  0.32694059150E+03  0.11662905127E+04  0.12310760215E+04  0.00000000000E+00 0. -1.
         -4    1    5    5    0  503 -0.43689709684E+02  0.16752212704E+02  0.12630429961E+03  0.13469299708E+03  0.00000000000E+00 0.  1.
         -3    1    6    6    0  502  0.14678696178E+03 -0.11066529940E+03  0.15858866342E+03  0.24278299942E+03  0.00000000000E+00 0.  1.
<mgrwt>
<rscale>  0 0.11715389E+04</rscale>
<asrwt>0</asrwt>
<pdfrwt beam="1">  1        2 0.30099282E+00 0.11715389E+04</pdfrwt>
<pdfrwt beam="2">  1       -2 0.26981780E-01 0.11715389E+04</pdfrwt>
<totfact> 0.87264875E+01</totfact>
</mgrwt>
</event>
<event>
12    1  0.1519630E-007  0.1233331E+04  0.7818608E-02  0.9084172E-01
         -1   -1    0    0    0  501 -0.00000000000E+00  0.00000000000E+00  0.18345505566E+03  0.18345505566E+03  0.00000000000E+00 0.  1.
          1   -1    0    0  501    0  0.00000000000E+00 -0.00000000000E+00 -0.20728579355E+04  0.20728579355E+04  0.00000000000E+00 0. -1.
         23    2    1    2    0    0 -0.12203387724E+03 -0.15567216799E+02  0.14820225787E+02  0.15505938073E+03  0.93215701608E+02 0.  0.
        254    2    1    2    0    0  0.12203387724E+03  0.15567216799E+02 -0.19042231057E+04  0.21012536105E+04  0.87981048749E+03 0.  0.
        -24    2    4    4    0    0 -0.23489031787E+03 -0.13061274201E+03 -0.15384986440E+04  0.15638129678E+04  0.79371096778E+02 0.  0.
         24    2    4    4    0    0  0.35692419511E+03  0.14617995881E+03 -0.36572446172E+03  0.53744064267E+03  0.79527360577E+02 0.  0.
         11    1    3    3    0    0  0.29030525596E+01 -0.60547915758E+01 -0.23173841943E+02  0.24127062929E+02  0.00000000000E+00 0. -1.
        -11    1    3    3    0    0 -0.12493692980E+03 -0.95124252236E+01  0.37994067730E+02  0.13093231780E+03  0.00000000000E+00 0.  1.
          2    1    6    6  502    0 -0.30494973159E+01  0.65058753948E+01 -0.10838759130E+02  0.13004020455E+02  0.00000000000E+00 0. -1.
          3    1    5    5  503    0 -0.41508621324E+02 -0.53842635630E+02 -0.27382692682E+03  0.28214035675E+03  0.00000000000E+00 0. -1.
         -4    1    5    5    0  503 -0.19338169655E+03 -0.76770106380E+02 -0.12646717171E+04  0.12816726111E+04  0.00000000000E+00 0.  1.
         -1    1    6    6    0  502  0.35997369243E+03  0.13967408341E+03 -0.35488570259E+03  0.52443662221E+03  0.00000000000E+00 0.  1.
<mgrwt>
<rscale>  0 0.12333309E+04</rscale>
<asrwt>0</asrwt>
<pdfrwt beam="1">  1        1 0.31890123E+00 0.12333309E+04</pdfrwt>
<pdfrwt beam="2">  1       -1 0.28223854E-01 0.12333309E+04</pdfrwt>
<totfact> 0.29874194E+01</totfact>
</mgrwt>
</event>
<event>
12    1  0.1519630E-007  0.1701994E+04  0.7818608E-02  0.8760228E-01
          1   -1    0    0  501    0  0.00000000000E+00  0.00000000000E+00  0.16911496549E+04  0.16911496549E+04  0.00000000000E+00 0. -1.
         -1   -1    0    0    0  501 -0.00000000000E+00 -0.00000000000E+00 -0.42822718868E+03  0.42822718868E+03  0.00000000000E+00 0.  1.
         23    2    1    2    0    0 -0.42587860041E+03  0.30152601981E+03  0.62292199259E+03  0.81753571775E+03  0.89678972136E+02 0.  0.
        254    2    1    2    0    0  0.42587860041E+03 -0.30152601981E+03  0.64000047365E+03  0.13018411258E+04  0.10064289283E+04 0.  0.
        -24    2    4    4    0    0  0.45021246679E+03 -0.14136214760E+03  0.87947841234E+03  0.10018201254E+04  0.86526087994E+02 0.  0.
         24    2    4    4    0    0 -0.24333866380E+02 -0.16016387221E+03 -0.23947793869E+03  0.30002100043E+03  0.80114384254E+02 0.  0.
         11    1    3    3    0    0 -0.33472002281E+03  0.22947959754E+03  0.42227707404E+03  0.58567593993E+03  0.00000000000E+00 0. -1.
        -11    1    3    3    0    0 -0.91158577598E+02  0.72046422274E+02  0.20064491854E+03  0.23185977782E+03  0.00000000000E+00 0.  1.
          4    1    6    6  502    0  0.68402803146E+00 -0.15285552917E+03 -0.18781957220E+03  0.24216001402E+03  0.00000000000E+00 0. -1.
          1    1    5    5  503    0  0.35362873925E+03 -0.74559370130E+02  0.68952668068E+03  0.77849818771E+03  0.00000000000E+00 0. -1.
         -2    1    5    5    0  503  0.96583727537E+02 -0.66802777472E+02  0.18995173165E+03  0.22332193771E+03  0.00000000000E+00 0.  1.
         -3    1    6    6    0  502 -0.25017894411E+02 -0.73083430382E+01 -0.51658366494E+02  0.57860986403E+02  0.00000000000E+00 0.  1.
<mgrwt>
<rscale>  0 0.17019944E+04</rscale>
<asrwt>0</asrwt>
<pdfrwt beam="1">  1        1 0.26017687E+00 0.17019944E+04</pdfrwt>
<pdfrwt beam="2">  1       -1 0.65881107E-01 0.17019944E+04</pdfrwt>
<totfact> 0.10737345E+01</totfact>
</mgrwt>
</event>
<event>
12    1  0.1519630E-007  0.3080947E+04  0.7818608E-02  0.8220986E-01
         -4   -1    0    0    0  501 -0.00000000000E+00  0.00000000000E+00  0.13725000893E+04  0.13725000893E+04  0.00000000000E+00 0.  1.
          4   -1    0    0  501    0  0.00000000000E+00 -0.00000000000E+00 -0.17290037739E+04  0.17290037739E+04  0.00000000000E+00 0. -1.
         23    2    1    2    0    0 -0.60917585078E+03  0.93871298996E+03 -0.10202114252E+04  0.15170071277E+04  0.90564775997E+02 0.  0.
        254    2    1    2    0    0  0.60917585078E+03 -0.93871298996E+03  0.66370774058E+03  0.15844967355E+04  0.90434763516E+03 0.  0.
        -24    2    4    4    0    0  0.13112584741E+03 -0.60940265838E+03 -0.84564497732E+02  0.63406514932E+03  0.79510196909E+02 0.  0.
         24    2    4    4    0    0  0.47805000336E+03 -0.32931033159E+03  0.74827223831E+03  0.95043158618E+03  0.80198236754E+02 0.  0.
         13    1    3    3    0    0 -0.40557962847E+03  0.65147837275E+03 -0.64487759447E+03  0.10023901521E+04  0.00000000000E+00 0. -1.
        -13    1    3    3    0    0 -0.20359622230E+03  0.28723461721E+03 -0.37533383077E+03  0.51461697561E+03  0.00000000000E+00 0.  1.
          2    1    6    6  502    0  0.16896511699E+03 -0.12638614836E+03  0.21253582103E+03  0.29948980697E+03  0.00000000000E+00 0. -1.
          3    1    5    5  503    0 -0.89102472199E+01 -0.27325849450E+02 -0.11424590723E+02  0.30929206696E+02  0.00000000000E+00 0. -1.
         -4    1    5    5    0  503  0.14003609463E+03 -0.58207680893E+03 -0.73139907009E+02  0.60313594263E+03  0.00000000000E+00 0.  1.
         -1    1    6    6    0  502  0.30908488637E+03 -0.20292418322E+03  0.53573641729E+03  0.65094177921E+03  0.00000000000E+00 0.  1.
<mgrwt>
<rscale>  0 0.30809465E+04</rscale>
<asrwt>0</asrwt>
<pdfrwt beam="1">  1        4 0.26600058E+00 0.30809465E+04</pdfrwt>
<pdfrwt beam="2">  1       -4 0.21115386E+00 0.30809465E+04</pdfrwt>
<totfact> 0.94198392E-03</totfact>
</mgrwt>
</event>
<event>
12    1  0.1519630E-007  0.1651810E+04  0.7818608E-02  0.8789336E-01
          3   -1    0    0  501    0  0.00000000000E+00  0.00000000000E+00  0.46768569062E+03  0.46768569062E+03  0.00000000000E+00 0. -1.
         -3   -1    0    0    0  501 -0.00000000000E+00 -0.00000000000E+00 -0.14584989980E+04  0.14584989980E+04  0.00000000000E+00 0.  1.
         23    2    1    2    0    0 -0.39420415672E+03 -0.27497528902E+03  0.28482934509E+02  0.48993963849E+03  0.90671081721E+02 0.  0.
        254    2    1    2    0    0  0.39420415672E+03  0.27497528902E+03 -0.10192962419E+04  0.14362450501E+04  0.89040815839E+03 0.  0.
        -24    2    4    4    0    0  0.30195499144E+02 -0.30779911436E+03 -0.30555063545E+03  0.44232637343E+03  0.81482309966E+02 0.  0.
         24    2    4    4    0    0  0.36400865757E+03  0.58277440338E+03 -0.71374560644E+03  0.99391867669E+03  0.79455881725E+02 0.  0.
         11    1    3    3    0    0 -0.13831582622E+03 -0.47054770389E+02  0.16817937908E+02  0.14706550321E+03  0.00000000000E+00 0.  1.
        -11    1    3    3    0    0 -0.25588833050E+03 -0.22792051863E+03  0.11664996601E+02  0.34287413528E+03  0.00000000000E+00 0. -1.
          4    1    6    6  502    0  0.10179571675E+03  0.20775979968E+03 -0.19882600111E+03  0.30505455419E+03  0.00000000000E+00 0. -1.
          1    1    5    5  503    0 -0.11949760481E+01  0.50111419558E+01 -0.76353482090E+01  0.92107575003E+01  0.00000000000E+00 0. -1.
         -2    1    5    5    0  503  0.31390475192E+02 -0.31281025632E+03 -0.29791528724E+03  0.43311561593E+03  0.00000000000E+00 0.  1.
         -3    1    6    6    0  502  0.26221294082E+03  0.37501460370E+03 -0.51491960533E+03  0.68886412251E+03  0.00000000000E+00 0.  1.
<mgrwt>
<rscale>  0 0.16518101E+04</rscale>
<asrwt>0</asrwt>
<pdfrwt beam="1">  1        3 0.71951646E-01 0.16518101E+04</pdfrwt>
<pdfrwt beam="2">  1       -3 0.22438446E+00 0.16518101E+04</pdfrwt>
<totfact> 0.47627439E-01</totfact>
</mgrwt>
</event>
<event>
12    1  0.1519630E-007  0.1486265E+04  0.7818608E-02  0.8893638E-01
          2   -1    0    0  501    0  0.00000000000E+00  0.00000000000E+00  0.14320414059E+04  0.14320414059E+04  0.00000000000E+00 0. -1.
         -2   -1    0    0    0  501 -0.00000000000E+00 -0.00000000000E+00 -0.38563539274E+03  0.38563539274E+03  0.00000000000E+00 0.  1.
         23    2    1    2    0    0 -0.24101397871E+03  0.21860584521E+03 -0.71684462396E+02  0.34512504407E+03  0.89979888875E+02 0.  0.
        254    2    1    2    0    0  0.24101397871E+03 -0.21860584521E+03  0.11180904756E+04  0.14725517546E+04  0.90133573373E+03 0.  0.
        -24    2    4    4    0    0 -0.14049863151E+03 -0.38835131487E+03  0.21036626023E+03  0.47022188091E+03  0.79360220658E+02 0.  0.
         24    2    4    4    0    0  0.38151261023E+03  0.16974546966E+03  0.90772421536E+03  0.10023298737E+04  0.79602313632E+02 0.  0.
         11    1    3    3    0    0 -0.23392240483E+03  0.17391658397E+03 -0.70336919108E+02  0.29985655212E+03  0.00000000000E+00 0.  1.
        -11    1    3    3    0    0 -0.70915738800E+01  0.44689261241E+02 -0.13475432882E+01  0.45268491948E+02  0.00000000000E+00 0. -1.
          4    1    6    6  502    0  0.17033436078E+03  0.42560999496E+02  0.43724051964E+03  0.47117354038E+03  0.00000000000E+00 0. -1.
          3    1    5    5  503    0 -0.45710644357E+02 -0.10844752541E+03  0.21860815674E+02  0.11970055989E+03  0.00000000000E+00 0. -1.
         -4    1    5    5    0  503 -0.94787987156E+02 -0.27990378946E+03  0.18850544456E+03  0.35052132102E+03  0.00000000000E+00 0.  1.
         -3    1    6    6    0  502  0.21117824945E+03  0.12718447016E+03  0.47048369573E+03  0.53115633333E+03  0.00000000000E+00 0.  1.
<mgrwt>
<rscale>  0 0.14862649E+04</rscale>
<asrwt>0</asrwt>
<pdfrwt beam="1">  1        2 0.22031406E+00 0.14862649E+04</pdfrwt>
<pdfrwt beam="2">  1       -2 0.59328523E-01 0.14862649E+04</pdfrwt>
<totfact> 0.35583866E+01</totfact>
</mgrwt>
</event>
<event>
12    1  0.1519630E-007  0.1516426E+04  0.7818608E-02  0.8873603E-01
         -1   -1    0    0    0  501 -0.00000000000E+00  0.00000000000E+00  0.11676375499E+04  0.11676375499E+04  0.00000000000E+00 0.  1.
          1   -1    0    0  501    0  0.00000000000E+00 -0.00000000000E+00 -0.49235024744E+03  0.49235024744E+03  0.00000000000E+00 0. -1.
         23    2    1    2    0    0 -0.25406904651E+03  0.17691915754E+03  0.62571192066E+03  0.70413966175E+03  0.91900962448E+02 0.  0.
        254    2    1    2    0    0  0.25406904651E+03 -0.17691915754E+03  0.49575381847E+02  0.95584813563E+03  0.90295983920E+03 0.  0.
        -24    2    4    4    0    0  0.41700176228E+03  0.24461766598E+03  0.73897729199E+02  0.49463208589E+03  0.73971303636E+02 0.  0.
         24    2    4    4    0    0 -0.16293271577E+03 -0.42153682353E+03 -0.24322347353E+02  0.46121604974E+03  0.88816127470E+02 0.  0.
         11    1    3    3    0    0 -0.19913201127E+03  0.17471659370E+03  0.47758680017E+03  0.54613972362E+03  0.00000000000E+00 0.  1.
        -11    1    3    3    0    0 -0.54937035242E+02  0.22025638475E+01  0.14812512049E+03  0.15799993813E+03  0.00000000000E+00 0. -1.
          2    1    6    6  502    0 -0.13084234042E+03 -0.23450518988E+03 -0.36771717504E+02  0.27104346761E+03  0.00000000000E+00 0. -1.
          3    1    5    5  503    0  0.33495078236E+03  0.21485173218E+03  0.36277284060E+02  0.39958645468E+03  0.00000000000E+00 0. -1.
         -4    1    5    5    0  503  0.82050979916E+02  0.29765933804E+02  0.37620445140E+02  0.95045631214E+02  0.00000000000E+00 0.  1.
         -1    1    6    6    0  502 -0.32090375344E+02 -0.18703163365E+03  0.12449370152E+02  0.19017258213E+03  0.00000000000E+00 0.  1.
<mgrwt>
<rscale>  0 0.15164256E+04</rscale>
<asrwt>0</asrwt>
<pdfrwt beam="1">  1        1 0.75746192E-01 0.15164256E+04</pdfrwt>
<pdfrwt beam="2">  1       -1 0.17963655E+00 0.15164256E+04</pdfrwt>
<totfact> 0.91564098E+00</totfact>
</mgrwt>
</event>
<event>
12    1  0.1519630E-007  0.1707554E+04  0.7818608E-02  0.8757068E-01
         -2   -1    0    0    0  501 -0.00000000000E+00  0.00000000000E+00  0.26207262028E+04  0.26207262028E+04  0.00000000000E+00 0.  1.
          2   -1    0    0  501    0  0.00000000000E+00 -0.00000000000E+00 -0.27814251429E+03  0.27814251429E+03  0.00000000000E+00 0. -1.
         23    2    1    2    0    0  0.51350883897E+03 -0.10021844394E+03  0.10735510592E+04  0.11981822439E+04  0.96921353119E+02 0.  0.
        254    2    1    2    0    0 -0.51350883897E+03  0.10021844394E+03  0.12690326293E+04  0.17006864732E+04  0.10040695203E+04 0.  0.
        -24    2    4    4    0    0  0.14417030040E+03 -0.10194804335E+03 -0.59677034022E+02  0.20231519536E+03  0.78686789401E+02 0.  0.
         24    2    4    4    0    0 -0.65767913937E+03  0.20216648729E+03  0.13287096634E+04  0.14983712778E+04  0.78955543233E+02 0.  0.
         11    1    3    3    0    0  0.40884591103E+03 -0.61462544557E+02  0.75717501811E+03  0.86269729998E+03  0.00000000000E+00 0. -1.
        -11    1    3    3    0    0  0.10466292794E+03 -0.38755899383E+02  0.31637604106E+03  0.33548494389E+03  0.00000000000E+00 0.  1.
          4    1    6    6  502    0 -0.33901844075E+03  0.67707647194E+02  0.70415744759E+03  0.78444600812E+03  0.00000000000E+00 0. -1.
          1    1    5    5  503    0  0.13386636896E+03 -0.10932588772E+03 -0.69494608064E+02  0.18628433916E+03  0.00000000000E+00 0. -1.
         -2    1    5    5    0  503  0.10303931435E+02  0.73778443745E+01  0.98175740418E+01  0.16030856206E+02  0.00000000000E+00 0.  1.
         -3    1    6    6    0  502 -0.31866069862E+03  0.13445884009E+03  0.62455221576E+03  0.71392526972E+03  0.00000000000E+00 0.  1.
<mgrwt>
<rscale>  0 0.17075542E+04</rscale>
<asrwt>0</asrwt>
<pdfrwt beam="1">  1        2 0.42791158E-01 0.17075542E+04</pdfrwt>
<pdfrwt beam="2">  1       -2 0.40318863E+00 0.17075542E+04</pdfrwt>
<totfact> 0.80846230E-01</totfact>
</mgrwt>
</event>
<event>
12    1  0.1519630E-007  0.2172688E+04  0.7818608E-02  0.8529883E-01
         -1   -1    0    0    0  501 -0.00000000000E+00  0.00000000000E+00  0.88124421656E+03  0.88124421656E+03  0.00000000000E+00 0.  1.
          1   -1    0    0  501    0  0.00000000000E+00 -0.00000000000E+00 -0.13391779564E+04  0.13391779564E+04  0.00000000000E+00 0. -1.
         23    2    1    2    0    0  0.32735447262E+03 -0.57711992915E+03 -0.81199409990E+03  0.10525687489E+04  0.91313687774E+02 0.  0.
        254    2    1    2    0    0 -0.32735447262E+03  0.57711992915E+03  0.35406036002E+03  0.11678534241E+04  0.89347328904E+03 0.  0.
        -24    2    4    4    0    0  0.14098679832E+02  0.68089107342E+03  0.40712486224E+03  0.79790895391E+03  0.84241430703E+02 0.  0.
         24    2    4    4    0    0 -0.34145315246E+03 -0.10377114427E+03 -0.53064502227E+02  0.36994447017E+03  0.81757959271E+02 0.  0.
         11    1    3    3    0    0  0.10957619802E+03 -0.25955573046E+03 -0.39238203640E+03  0.48305256741E+03  0.00000000000E+00 0.  1.
        -11    1    3    3    0    0  0.21777827461E+03 -0.31756419869E+03 -0.41961206350E+03  0.56951618152E+03  0.00000000000E+00 0. -1.
          4    1    6    6  502    0 -0.37677360579E+01 -0.28051698575E+01 -0.14669093547E+02  0.15402828260E+02  0.00000000000E+00 0. -1.
          1    1    5    5  503    0 -0.25530109363E+02  0.31898959306E+03  0.15902147695E+03  0.35734294046E+03  0.00000000000E+00 0. -1.
         -2    1    5    5    0  503  0.39628789195E+02  0.36190148036E+03  0.24810338529E+03  0.44056601346E+03  0.00000000000E+00 0.  1.
         -3    1    6    6    0  502 -0.33768541640E+03 -0.10096597441E+03 -0.38395408680E+02  0.35454164191E+03  0.00000000000E+00 0.  1.
<mgrwt>
<rscale>  0 0.21726876E+04</rscale>
<asrwt>0</asrwt>
<pdfrwt beam="1">  1        1 0.20602738E+00 0.21726876E+04</pdfrwt>
<pdfrwt beam="2">  1       -1 0.13557603E+00 0.21726876E+04</pdfrwt>
<totfact> 0.35321486E+00</totfact>
</mgrwt>
</event>
<event>
12    1  0.1552444E-007  0.2038701E+04  0.7818608E-02  0.8588737E-01
         -2   -1    0    0    0  501 -0.00000000000E+00  0.00000000000E+00  0.40861785430E+03  0.40861785430E+03  0.00000000000E+00 0.  1.
          2   -1    0    0  501    0  0.00000000000E+00 -0.00000000000E+00 -0.25429032133E+04  0.25429032133E+04  0.00000000000E+00 0. -1.
         23    2    1    2    0    0 -0.42706127098E+03  0.55036765430E+03 -0.26128044718E+03  0.74957506554E+03  0.91156035072E+02 0.  0.
        254    2    1    2    0    0  0.42706127098E+03 -0.55036765430E+03 -0.18730049119E+04  0.22019460021E+04  0.92473396837E+03 0.  0.
        -24    2    4    4    0    0 -0.26302321001E+03 -0.26110919121E+02 -0.59368074837E+03  0.65470240565E+03  0.79469616064E+02 0.  0.
         24    2    4    4    0    0  0.69008448099E+03 -0.52425673518E+03 -0.12793241635E+04  0.15472435964E+04  0.78934885793E+02 0.  0.
         13    1    3    3    0    0 -0.32477354892E+03  0.43652397977E+03 -0.24142792271E+03  0.59524657484E+03  0.00000000000E+00 0. -1.
        -13    1    3    3    0    0 -0.10228772205E+03  0.11384367453E+03 -0.19852524470E+02  0.15432849070E+03  0.00000000000E+00 0.  1.
          4    1    6    6  502    0  0.56974213174E+03 -0.40809719135E+03 -0.98799047043E+03  0.12113111012E+04  0.00000000000E+00 0. -1.
          3    1    5    5  503    0 -0.23034772944E+03 -0.47431116394E+01 -0.54889445211E+03  0.59528790775E+03  0.00000000000E+00 0. -1.
         -4    1    5    5    0  503 -0.32675480572E+02 -0.21367807482E+02 -0.44786296264E+02  0.59414497896E+02  0.00000000000E+00 0.  1.
         -3    1    6    6    0  502  0.12034234925E+03 -0.11615954383E+03 -0.29133369305E+03  0.33593249523E+03  0.00000000000E+00 0.  1.
<mgrwt>
<rscale>  0 0.20387012E+04</rscale>
<asrwt>0</asrwt>
<pdfrwt beam="1">  1        2 0.39121588E+00 0.20387012E+04</pdfrwt>
<pdfrwt beam="2">  1       -2 0.62864285E-01 0.20387012E+04</pdfrwt>
<totfact> 0.71431743E+00</totfact>
</mgrwt>
</event>
<event>
12    1  0.1519630E-007  0.1236555E+04  0.7818608E-02  0.9081448E-01
         -1   -1    0    0    0  501 -0.00000000000E+00  0.00000000000E+00  0.21320511664E+03  0.21320511664E+03  0.00000000000E+00 0.  1.
          1   -1    0    0  501    0  0.00000000000E+00 -0.00000000000E+00 -0.17929558158E+04  0.17929558158E+04  0.00000000000E+00 0. -1.
         23    2    1    2    0    0 -0.20423143335E+03  0.10492296624E+03 -0.62295742658E+03  0.67006457971E+03  0.90505681798E+02 0.  0.
        254    2    1    2    0    0  0.20423143335E+03 -0.10492296624E+03 -0.95679327255E+03  0.13360963527E+04  0.90386989667E+03 0.  0.
        -24    2    4    4    0    0 -0.19170099574E+03  0.16764080886E+03 -0.53557753313E+01  0.26721776468E+03  0.80770891207E+02 0.  0.
         24    2    4    4    0    0  0.39593242910E+03 -0.27256377510E+03 -0.95143749722E+03  0.10688785880E+04  0.78832892329E+02 0.  0.
         11    1    3    3    0    0 -0.16621308236E+03  0.61249864943E+02 -0.54425792645E+03  0.57235917499E+03  0.00000000000E+00 0. -1.
        -11    1    3    3    0    0 -0.38018350996E+02  0.43673101293E+02 -0.78699500131E+02  0.97705404712E+02  0.00000000000E+00 0.  1.
          4    1    6    6  502    0  0.35447688730E+03 -0.26459989149E+03 -0.83333633988E+03  0.94345981450E+03  0.00000000000E+00 0. -1.
          1    1    5    5  503    0 -0.29137646518E+02  0.72378345315E+02  0.73625012871E+01  0.78369852241E+02  0.00000000000E+00 0. -1.
         -2    1    5    5    0  503 -0.16256334923E+03  0.95262463549E+02 -0.12718276618E+02  0.18884791244E+03  0.00000000000E+00 0.  1.
         -3    1    6    6    0  502  0.41455541795E+02 -0.79638836080E+01 -0.11810115734E+03  0.12541877353E+03  0.00000000000E+00 0.  1.
<mgrwt>
<rscale>  0 0.12365555E+04</rscale>
<asrwt>0</asrwt>
<pdfrwt beam="1">  1        1 0.27583935E+00 0.12365555E+04</pdfrwt>
<pdfrwt beam="2">  1       -1 0.32800788E-01 0.12365555E+04</pdfrwt>
<totfact> 0.35454253E+01</totfact>
</mgrwt>
</event>
<event>
12    1  0.1519630E-007  0.1936090E+04  0.7818608E-02  0.8637098E-01
          2   -1    0    0  501    0  0.00000000000E+00  0.00000000000E+00  0.13067673258E+04  0.13067673258E+04  0.00000000000E+00 0.  1.
         -2   -1    0    0    0  501 -0.00000000000E+00 -0.00000000000E+00 -0.71712145722E+03  0.71712145722E+03  0.00000000000E+00 0. -1.
         23    2    1    2    0    0 -0.62792135790E+03  0.41581642920E+03  0.18513710594E+03  0.78068929512E+03  0.89506943978E+02 0.  0.
        254    2    1    2    0    0  0.62792135790E+03 -0.41581642920E+03  0.40450876260E+03  0.12431994879E+04  0.90262345035E+03 0.  0.
        -24    2    4    4    0    0  0.50419334914E+03 -0.54966676886E+03 -0.45726285741E+02  0.75120639989E+03  0.76652931570E+02 0.  0.
         24    2    4    4    0    0  0.12372800876E+03  0.13385033966E+03  0.45023504834E+03  0.49199308798E+03  0.78237243608E+02 0.  0.
         13    1    3    3    0    0 -0.45739019313E+03  0.30038013294E+03  0.92849286197E+02  0.55502702905E+03  0.00000000000E+00 0.  1.
        -13    1    3    3    0    0 -0.17053116477E+03  0.11543629626E+03  0.92287819744E+02  0.22566226606E+03  0.00000000000E+00 0. -1.
          4    1    6    6  502    0  0.10781066882E+03  0.14328179649E+03  0.41777623343E+03  0.45463149335E+03  0.00000000000E+00 0. -1.
          1    1    5    5  503    0  0.50138520273E+03 -0.53217064353E+03 -0.38820744005E+02  0.73218834019E+03  0.00000000000E+00 0. -1.
         -2    1    5    5    0  503  0.28081464106E+01 -0.17496125331E+02 -0.69055417360E+01  0.19018059694E+02  0.00000000000E+00 0.  1.
         -3    1    6    6    0  502  0.15917339943E+02 -0.94314568291E+01  0.32458814903E+02  0.37361594635E+02  0.00000000000E+00 0.  1.
<mgrwt>
<rscale>  0 0.19360898E+04</rscale>
<asrwt>0</asrwt>
<pdfrwt beam="1">  1        2 0.20104113E+00 0.19360898E+04</pdfrwt>
<pdfrwt beam="2">  1       -2 0.11032638E+00 0.19360898E+04</pdfrwt>
<totfact> 0.99810663E+00</totfact>
</mgrwt>
</event>
<event>
12    1  0.1611326E-007  0.3854506E+04  0.7818608E-02  0.8034558E-01
          4   -1    0    0  501    0  0.00000000000E+00  0.00000000000E+00  0.19769899683E+04  0.19769899683E+04  0.00000000000E+00 0.  1.
         -4   -1    0    0    0  501 -0.00000000000E+00 -0.00000000000E+00 -0.18787671116E+04  0.18787671116E+04  0.00000000000E+00 0. -1.
         23    2    1    2    0    0  0.73160243050E+03  0.29590811663E+03  0.16897729773E+04  0.18670817651E+04  0.88644643349E+02 0.  0.
        254    2    1    2    0    0 -0.73160243050E+03 -0.29590811663E+03 -0.15915501206E+04  0.19886753148E+04  0.89386463827E+03 0.  0.
        -24    2    4    4    0    0 -0.80558446376E+03 -0.36565612169E+03 -0.82873981307E+03  0.12148844806E+04  0.80398356934E+02 0.  0.
         24    2    4    4    0    0  0.73982033258E+02  0.69748005064E+02 -0.76281030753E+03  0.77379083424E+03  0.80836652663E+02 0.  0.
         11    1    3    3    0    0  0.22274235649E+03  0.94695811369E+02  0.42655431704E+03  0.49043861945E+03  0.00000000000E+00 0. -1.
        -11    1    3    3    0    0  0.50886007402E+03  0.20121230526E+03  0.12632186603E+04  0.13766431456E+04  0.00000000000E+00 0.  1.
          4    1    6    6  502    0  0.90891090366E+02  0.60442920777E+02 -0.68381155098E+03  0.69246860884E+03  0.00000000000E+00 0. -1.
          3    1    5    5  503    0 -0.77623360107E+03 -0.33614670166E+03 -0.80026169935E+03  0.11644535181E+04  0.00000000000E+00 0. -1.
         -2    1    5    5    0  503 -0.29350862692E+02 -0.29509420027E+02 -0.28478113723E+02  0.50430962437E+02  0.00000000000E+00 0.  1.
         -3    1    6    6    0  502 -0.16909057108E+02  0.93050842869E+01 -0.78998756551E+02  0.81322225391E+02  0.00000000000E+00 0.  1.
<mgrwt>
<rscale>  0 0.38545058E+04</rscale>
<asrwt>0</asrwt>
<pdfrwt beam="1">  1        4 0.30415230E+00 0.38545058E+04</pdfrwt>
<pdfrwt beam="2">  1       -4 0.28904109E+00 0.38545058E+04</pdfrwt>
<totfact> 0.16468169E-03</totfact>
</mgrwt>
</event>
<event>
12    1  0.1519630E-007  0.2494957E+04  0.7818608E-02  0.8404784E-01
         -3   -1    0    0    0  501 -0.00000000000E+00  0.00000000000E+00  0.90776780785E+03  0.90776780785E+03  0.00000000000E+00 0.  1.
          3   -1    0    0  501    0  0.00000000000E+00 -0.00000000000E+00 -0.17143175892E+04  0.17143175892E+04  0.00000000000E+00 0. -1.
         23    2    1    2    0    0  0.10292521750E+04  0.17566065946E+02  0.25133397898E+01  0.10339865242E+04  0.97227614227E+02 0.  0.
        254    2    1    2    0    0 -0.10292521750E+04 -0.17566065946E+02 -0.80906312110E+03  0.15880988728E+04  0.89878044558E+03 0.  0.
        -24    2    4    4    0    0 -0.69818971583E+03  0.23934621545E+03 -0.88406461201E+03  0.11544275383E+04  0.79857453910E+02 0.  0.
         24    2    4    4    0    0 -0.33106245918E+03 -0.25691228140E+03  0.75001490915E+02  0.43367133443E+03  0.82700244564E+02 0.  0.
         11    1    3    3    0    0  0.97980739412E+03  0.19407835459E+02  0.23401716479E+02  0.98027895722E+03  0.00000000000E+00 0.  1.
        -11    1    3    3    0    0  0.49444780895E+02 -0.18417695133E+01 -0.20888376689E+02  0.53707567003E+02  0.00000000000E+00 0. -1.
          4    1    6    6  502    0 -0.13493367203E+03 -0.99013807456E+02 -0.10672507635E+02  0.16770430029E+03  0.00000000000E+00 0. -1.
          1    1    5    5  503    0 -0.12974858821E+03  0.77462023597E+02 -0.16866069394E+03  0.22645416959E+03  0.00000000000E+00 0. -1.
         -2    1    5    5    0  503 -0.56844112762E+03  0.16188419186E+03 -0.71540391807E+03  0.92797336876E+03  0.00000000000E+00 0.  1.
         -3    1    6    6    0  502 -0.19612878715E+03 -0.15789847394E+03  0.85673998550E+02  0.26596703414E+03  0.00000000000E+00 0.  1.
<mgrwt>
<rscale>  0 0.24949568E+04</rscale>
<asrwt>0</asrwt>
<pdfrwt beam="1">  1        3 0.26374117E+00 0.24949568E+04</pdfrwt>
<pdfrwt beam="2">  1       -3 0.13965659E+00 0.24949568E+04</pdfrwt>
<totfact> 0.55546433E-02</totfact>
</mgrwt>
</event>
<event>
12    1  0.1519630E-007  0.1744190E+04  0.7818608E-02  0.8736555E-01
         -2   -1    0    0    0  501 -0.00000000000E+00  0.00000000000E+00  0.24965848009E+03  0.24965848009E+03  0.00000000000E+00 0.  1.
          2   -1    0    0  501    0  0.00000000000E+00 -0.00000000000E+00 -0.30463592663E+04  0.30463592663E+04  0.00000000000E+00 0. -1.
         23    2    1    2    0    0  0.40238109248E+03  0.36822672586E+03 -0.16710983343E+04  0.17596746067E+04  0.79897517907E+02 0.  0.
        254    2    1    2    0    0 -0.40238109248E+03 -0.36822672586E+03 -0.11256024520E+04  0.15363431398E+04  0.89211428526E+03 0.  0.
        -24    2    4    4    0    0  0.11661545985E+03 -0.36142390357E+03 -0.12816413383E+03  0.40874221467E+03  0.80110856353E+02 0.  0.
         24    2    4    4    0    0 -0.51899655233E+03 -0.68028222863E+01 -0.99743831815E+03  0.11276009251E+04  0.84834827902E+02 0.  0.
         11    1    3    3    0    0  0.26691461244E+02  0.25006886462E+02 -0.61498222022E+02  0.71552846105E+02  0.00000000000E+00 0.  1.
        -11    1    3    3    0    0  0.37568963124E+03  0.34321983939E+03 -0.16096001122E+04  0.16881217606E+04  0.00000000000E+00 0. -1.
          2    1    6    6  502    0 -0.15512107367E+03 -0.40653411481E+02 -0.31547008534E+03  0.35388786658E+03  0.00000000000E+00 0. -1.
          3    1    5    5  503    0 -0.10187272025E+02 -0.63955544076E+02 -0.21346003723E+02  0.68189031408E+02  0.00000000000E+00 0. -1.
         -2    1    5    5    0  503  0.12680273188E+03 -0.29746835949E+03 -0.10681813011E+03  0.34055318326E+03  0.00000000000E+00 0.  1.
         -1    1    6    6    0  502 -0.36387547866E+03  0.33850589195E+02 -0.68196823280E+03  0.77371305851E+03  0.00000000000E+00 0.  1.
<mgrwt>
<rscale>  0 0.17441897E+04</rscale>
<asrwt>0</asrwt>
<pdfrwt beam="1">  1        2 0.46867065E+00 0.17441897E+04</pdfrwt>
<pdfrwt beam="2">  1       -2 0.38408998E-01 0.17441897E+04</pdfrwt>
<totfact> 0.99300308E+00</totfact>
</mgrwt>
</event>
<event>
12    1  0.1519630E-007  0.1436479E+04  0.7818608E-02  0.8927829E-01
         -1   -1    0    0    0  501 -0.00000000000E+00  0.00000000000E+00  0.54865634698E+03  0.54865634698E+03  0.00000000000E+00 0.  1.
          1   -1    0    0  501    0  0.00000000000E+00 -0.00000000000E+00 -0.94023842156E+03  0.94023842156E+03  0.00000000000E+00 0. -1.
         23    2    1    2    0    0 -0.11161964924E+03 -0.40077325381E+03 -0.13813263809E+03  0.44687744295E+03  0.86837067229E+02 0.  0.
        254    2    1    2    0    0  0.11161964924E+03  0.40077325381E+03 -0.25344943650E+03  0.10420173256E+04  0.92113264132E+03 0.  0.
        -24    2    4    4    0    0  0.18957278217E+03  0.11082941457E+03 -0.55965255360E+03  0.60642309505E+03  0.79479497926E+02 0.  0.
         24    2    4    4    0    0 -0.77953132926E+02  0.28994383923E+03  0.30620311710E+03  0.43559423054E+03  0.76405915421E+02 0.  0.
         13    1    3    3    0    0 -0.73032142251E+02 -0.22240480503E+03 -0.33383764188E+02  0.23645732557E+03  0.00000000000E+00 0.  1.
        -13    1    3    3    0    0 -0.38587506990E+02 -0.17836844877E+03 -0.10474887390E+03  0.21042011738E+03  0.00000000000E+00 0. -1.
          4    1    6    6  502    0 -0.12825070884E+02  0.28006095627E+01  0.41252522576E+01  0.13760216687E+02  0.00000000000E+00 0. -1.
          1    1    5    5  503    0  0.93639313881E+01  0.35881597820E+02 -0.11474826354E+03  0.12059160940E+03  0.00000000000E+00 0. -1.
         -2    1    5    5    0  503  0.18020885078E+03  0.74947816752E+02 -0.44490429006E+03  0.48583148565E+03  0.00000000000E+00 0.  1.
         -3    1    6    6    0  502 -0.65128062043E+02  0.28714322967E+03  0.30207786485E+03  0.42183401385E+03  0.00000000000E+00 0.  1.
<mgrwt>
<rscale>  0 0.14364787E+04</rscale>
<asrwt>0</asrwt>
<pdfrwt beam="1">  1        1 0.14465206E+00 0.14364787E+04</pdfrwt>
<pdfrwt beam="2">  1       -1 0.84408670E-01 0.14364787E+04</pdfrwt>
<totfact> 0.22814359E+01</totfact>
</mgrwt>
</event>
<event>
12    1  0.1519630E-007  0.2142248E+04  0.7818608E-02  0.8542858E-01
          1   -1    0    0  501    0  0.00000000000E+00  0.00000000000E+00  0.15999423999E+04  0.15999423999E+04  0.00000000000E+00 0. -1.
         -1   -1    0    0    0  501 -0.00000000000E+00 -0.00000000000E+00 -0.71709275065E+03  0.71709275065E+03  0.00000000000E+00 0.  1.
         23    2    1    2    0    0 -0.79287322834E+03 -0.80012189418E+02  0.76636826174E+03  0.11092086242E+04  0.89294752083E+02 0.  0.
        254    2    1    2    0    0  0.79287322834E+03  0.80012189418E+02  0.11648138748E+03  0.12078265263E+04  0.90012615637E+03 0.  0.
        -24    2    4    4    0    0  0.80001626170E+02  0.28565171982E+03  0.31058952604E+03  0.43695389512E+03  0.80409499107E+02 0.  0.
         24    2    4    4    0    0  0.71287160217E+03 -0.20563953040E+03 -0.19410813856E+03  0.77087263120E+03  0.78058352800E+02 0.  0.
         11    1    3    3    0    0 -0.51646228403E+03 -0.24831814690E+02  0.44961493664E+03  0.68520325532E+03  0.00000000000E+00 0.  1.
        -11    1    3    3    0    0 -0.27641094430E+03 -0.55180374728E+02  0.31675332510E+03  0.42400536889E+03  0.00000000000E+00 0. -1.
          2    1    6    6  502    0  0.63306615396E+03 -0.18668936413E+03 -0.14667493571E+03  0.67612070722E+03  0.00000000000E+00 0. -1.
          1    1    5    5  503    0  0.36932045593E+01  0.15548476773E+03  0.14061562361E+03  0.20967094782E+03  0.00000000000E+00 0. -1.
         -2    1    5    5    0  503  0.76308421611E+02  0.13016695208E+03  0.16997390243E+03  0.22728294730E+03  0.00000000000E+00 0.  1.
         -1    1    6    6    0  502  0.79805448208E+02 -0.18950166266E+02 -0.47433202851E+02  0.94751923980E+02  0.00000000000E+00 0.  1.
<mgrwt>
<rscale>  0 0.21422484E+04</rscale>
<asrwt>0</asrwt>
<pdfrwt beam="1">  1        1 0.24614498E+00 0.21422484E+04</pdfrwt>
<pdfrwt beam="2">  1       -1 0.11032196E+00 0.21422484E+04</pdfrwt>
<totfact> 0.38754483E+00</totfact>
</mgrwt>
</event>
<event>
12    1  0.1519630E-007  0.4308283E+04  0.7818608E-02  0.7945088E-01
         -2   -1    0    0    0  501 -0.00000000000E+00  0.00000000000E+00  0.11722888164E+04  0.11722888164E+04  0.00000000000E+00 0.  1.
          2   -1    0    0  501    0  0.00000000000E+00 -0.00000000000E+00 -0.39583463251E+04  0.39583463251E+04  0.00000000000E+00 0. -1.
         23    2    1    2    0    0  0.86294968613E+03  0.11556683280E+04  0.41487717882E+03  0.15035471003E+04  0.90991012409E+02 0.  0.
        254    2    1    2    0    0 -0.86294968613E+03 -0.11556683280E+04 -0.32009346875E+04  0.36270880411E+04  0.91078720864E+03 0.  0.
        -24    2    4    4    0    0 -0.20308004179E+03 -0.93786112165E+03 -0.22417607614E+04  0.24398360712E+04  0.80521774840E+02 0.  0.
         24    2    4    4    0    0 -0.65986964434E+03 -0.21780720632E+03 -0.95917392610E+03  0.11872519699E+04  0.81759971242E+02 0.  0.
         11    1    3    3    0    0  0.42054860185E+02  0.94291802044E+02  0.35152775210E+02  0.10906545192E+03  0.00000000000E+00 0. -1.
        -11    1    3    3    0    0  0.82089482594E+03  0.10613765259E+04  0.37972440361E+03  0.13944816484E+04  0.00000000000E+00 0.  1.
          4    1    6    6  502    0 -0.59953329104E+03 -0.20131366098E+03 -0.90743491916E+03  0.11060766202E+04  0.00000000000E+00 0. -1.
          3    1    5    5  503    0 -0.69788553297E+02 -0.51200415308E+03 -0.12015025179E+04  0.13079093988E+04  0.00000000000E+00 0. -1.
         -4    1    5    5    0  503 -0.13329148849E+03 -0.42585696857E+03 -0.10402582434E+04  0.11319266724E+04  0.00000000000E+00 0.  1.
         -3    1    6    6    0  502 -0.60336353297E+02 -0.16493545339E+02 -0.51739006945E+02  0.81175349748E+02  0.00000000000E+00 0.  1.
<mgrwt>
<rscale>  0 0.43082828E+04</rscale>
<asrwt>0</asrwt>
<pdfrwt beam="1">  1        2 0.60897634E+00 0.43082828E+04</pdfrwt>
<pdfrwt beam="2">  1       -2 0.18035213E+00 0.43082828E+04</pdfrwt>
<totfact> 0.51086235E-02</totfact>
</mgrwt>
</event>
<event>
12    1  0.1519630E-007  0.1788966E+04  0.7818608E-02  0.8712190E-01
          2   -1    0    0  501    0  0.00000000000E+00  0.00000000000E+00  0.16279775382E+04  0.16279775382E+04  0.00000000000E+00 0. -1.
         -2   -1    0    0    0  501 -0.00000000000E+00 -0.00000000000E+00 -0.49146838047E+03  0.49146838047E+03  0.00000000000E+00 0.  1.
         23    2    1    2    0    0  0.34905181213E+03  0.39777010274E+03  0.91067461119E+03  0.10572119005E+04  0.91162123722E+02 0.  0.
        254    2    1    2    0    0 -0.34905181213E+03 -0.39777010274E+03  0.22583454653E+03  0.10622340182E+04  0.89290629120E+03 0.  0.
        -24    2    4    4    0    0  0.98824642163E+02  0.22838505086E+03  0.21948248972E+02  0.26194581032E+03  0.78789850580E+02 0.  0.
         24    2    4    4    0    0 -0.44787645429E+03 -0.62615515360E+03  0.20388629756E+03  0.80028820790E+03  0.78917670223E+02 0.  0.
         13    1    3    3    0    0  0.70573955033E+02  0.87162164365E+02  0.27373604470E+03  0.29581979006E+03  0.00000000000E+00 0. -1.
        -13    1    3    3    0    0  0.27847785710E+03  0.31060793837E+03  0.63693856649E+03  0.76139211039E+03  0.00000000000E+00 0.  1.
          2    1    6    6  502    0 -0.12598156925E+03 -0.20509611173E+03  0.97576750426E+02  0.25972484105E+03  0.00000000000E+00 0. -1.
          3    1    5    5  503    0  0.34856786028E+02  0.93093069572E+02 -0.29511660459E+02  0.10369307227E+03  0.00000000000E+00 0. -1.
         -4    1    5    5    0  503  0.63967856135E+02  0.13529198129E+03  0.51459909431E+02  0.15825273805E+03  0.00000000000E+00 0.  1.
         -1    1    6    6    0  502 -0.32189488505E+03 -0.42105904188E+03  0.10630954714E+03  0.54056336685E+03  0.00000000000E+00 0.  1.
<mgrwt>
<rscale>  0 0.17889656E+04</rscale>
<asrwt>0</asrwt>
<pdfrwt beam="1">  1        2 0.25045808E+00 0.17889656E+04</pdfrwt>
<pdfrwt beam="2">  1       -2 0.75610521E-01 0.17889656E+04</pdfrwt>
<totfact> 0.15939805E+01</totfact>
</mgrwt>
</event>
<event>
12    1  0.1519630E-007  0.1568224E+04  0.7818608E-02  0.8840311E-01
         -3   -1    0    0    0  501 -0.00000000000E+00  0.00000000000E+00  0.71939870032E+03  0.71939870032E+03  0.00000000000E+00 0.  1.
          3   -1    0    0  501    0  0.00000000000E+00 -0.00000000000E+00 -0.85464602999E+03  0.85464602999E+03  0.00000000000E+00 0. -1.
         23    2    1    2    0    0 -0.38907035249E+02 -0.39417607979E+03  0.29519499143E+03  0.50256840579E+03  0.92446634694E+02 0.  0.
        254    2    1    2    0    0  0.38907035249E+02  0.39417607979E+03 -0.43044232110E+03  0.10714763245E+04  0.89771509006E+03 0.  0.
        -24    2    4    4    0    0  0.39985139550E+03  0.43139463032E+03 -0.35741008533E+03  0.69277133523E+03  0.78788884158E+02 0.  0.
         24    2    4    4    0    0 -0.36094436025E+03 -0.37218550523E+02 -0.73032235770E+02  0.37870498928E+03  0.80110609424E+02 0.  0.
         13    1    3    3    0    0 -0.24942168298E+02 -0.31269592151E+03  0.27571573446E+03  0.41763622605E+03  0.00000000000E+00 0.  1.
        -13    1    3    3    0    0 -0.13964866951E+02 -0.81480158287E+02  0.19479256973E+02  0.84932179742E+02  0.00000000000E+00 0. -1.
          4    1    6    6  502    0 -0.10965545854E+03  0.25026639692E+02 -0.15912936445E+02  0.11359521921E+03  0.00000000000E+00 0. -1.
          3    1    5    5  503    0  0.48320126691E+02  0.22913081067E+02 -0.20874726312E+02  0.57407300285E+02  0.00000000000E+00 0. -1.
         -4    1    5    5    0  503  0.35153126881E+03  0.40848154925E+03 -0.33653535902E+03  0.63536403494E+03  0.00000000000E+00 0.  1.
         -3    1    6    6    0  502 -0.25128890171E+03 -0.62245190216E+02 -0.57119299325E+02  0.26510977007E+03  0.00000000000E+00 0.  1.
<mgrwt>
<rscale>  0 0.15682235E+04</rscale>
<asrwt>0</asrwt>
<pdfrwt beam="1">  1        3 0.13148400E+00 0.15682235E+04</pdfrwt>
<pdfrwt beam="2">  1       -3 0.11067672E+00 0.15682235E+04</pdfrwt>
<totfact> 0.78212657E-01</totfact>
</mgrwt>
</event>
<event>
12    1  0.1519630E-007  0.1549427E+04  0.7818608E-02  0.8852234E-01
         -2   -1    0    0    0  501 -0.00000000000E+00  0.00000000000E+00  0.58089530611E+03  0.58089530611E+03  0.00000000000E+00 0.  1.
          2   -1    0    0  501    0  0.00000000000E+00 -0.00000000000E+00 -0.10331996587E+04  0.10331996587E+04  0.00000000000E+00 0. -1.
         23    2    1    2    0    0  0.28670210872E+03  0.24697162239E+03 -0.50828534806E+03  0.64184304928E+03  0.10205598195E+03 0.  0.
        254    2    1    2    0    0 -0.28670210872E+03 -0.24697162239E+03  0.55980995450E+02  0.97225191556E+03  0.89383825944E+03 0.  0.
        -24    2    4    4    0    0 -0.14426805929E+03 -0.50173114591E+03 -0.20911154880E+03  0.56803547913E+03  0.79932784264E+02 0.  0.
         24    2    4    4    0    0 -0.14243404943E+03  0.25475952352E+03  0.26509254425E+03  0.40421643643E+03  0.89033685736E+02 0.  0.
         11    1    3    3    0    0  0.22583694400E+03  0.16838739334E+03 -0.43540599085E+03  0.51858944878E+03  0.00000000000E+00 0. -1.
        -11    1    3    3    0    0  0.60865164723E+02  0.78584229044E+02 -0.72879357208E+02  0.12325360051E+03  0.00000000000E+00 0.  1.
          2    1    6    6  502    0 -0.19776022456E+02  0.16317299034E+01  0.37363963772E+02  0.42306257166E+02  0.00000000000E+00 0. -1.
          1    1    5    5  503    0 -0.48153079103E+02 -0.65329448598E+02 -0.36643963227E+02  0.89047380209E+02  0.00000000000E+00 0. -1.
         -2    1    5    5    0  503 -0.96114980190E+02 -0.43640169731E+03 -0.17246758557E+03  0.47898809892E+03  0.00000000000E+00 0.  1.
         -1    1    6    6    0  502 -0.12265802698E+03  0.25312779362E+03  0.22772858048E+03  0.36191017926E+03  0.00000000000E+00 0.  1.
<mgrwt>
<rscale>  0 0.15494268E+04</rscale>
<asrwt>0</asrwt>
<pdfrwt beam="1">  1        2 0.15895380E+00 0.15494268E+04</pdfrwt>
<pdfrwt beam="2">  1       -2 0.89368508E-01 0.15494268E+04</pdfrwt>
<totfact> 0.24808167E+01</totfact>
</mgrwt>
</event>
<event>
12    1  0.1519630E-007  0.1777990E+04  0.7818608E-02  0.8718093E-01
         -2   -1    0    0    0  501 -0.00000000000E+00  0.00000000000E+00  0.34947927967E+03  0.34947927967E+03  0.00000000000E+00 0.  1.
          2   -1    0    0  501    0  0.00000000000E+00 -0.00000000000E+00 -0.22613978976E+04  0.22613978976E+04  0.00000000000E+00 0. -1.
         23    2    1    2    0    0 -0.49626319224E+02 -0.63927845621E+03 -0.48403629187E+03  0.80868954711E+03  0.92455046491E+02 0.  0.
        254    2    1    2    0    0  0.49626319224E+02  0.63927845621E+03 -0.14278823261E+04  0.18021876302E+04  0.89324834237E+03 0.  0.
        -24    2    4    4    0    0  0.20181628340E+03  0.56528786125E+03 -0.14882202356E+04  0.16067331926E+04  0.80696370197E+02 0.  0.
         24    2    4    4    0    0 -0.15218996418E+03  0.73990594962E+02  0.60337909551E+02  0.19545443758E+03  0.76976493182E+02 0.  0.
         11    1    3    3    0    0 -0.41656868081E+02 -0.41138663809E+03 -0.36457529201E+03  0.55126164768E+03  0.00000000000E+00 0.  1.
        -11    1    3    3    0    0 -0.79694511423E+01 -0.22789181811E+03 -0.11946099986E+03  0.25742789942E+03  0.00000000000E+00 0. -1.
          2    1    6    6  502    0 -0.55944247566E+02  0.44453834786E+02  0.62238640163E+02  0.94760490671E+02  0.00000000000E+00 0. -1.
          1    1    5    5  503    0  0.11443097628E+03  0.24380138270E+03 -0.58456752071E+03  0.64362469562E+03  0.00000000000E+00 0. -1.
         -2    1    5    5    0  503  0.87385307120E+02  0.32148647854E+03 -0.90365271493E+03  0.96310849700E+03  0.00000000000E+00 0.  1.
         -1    1    6    6    0  502 -0.96245716610E+02  0.29536760176E+02 -0.19007306122E+01  0.10069394691E+03  0.00000000000E+00 0.  1.
<mgrwt>
<rscale>  0 0.17779895E+04</rscale>
<asrwt>0</asrwt>
<pdfrwt beam="1">  1        2 0.34790737E+00 0.17779895E+04</pdfrwt>
<pdfrwt beam="2">  1       -2 0.53766043E-01 0.17779895E+04</pdfrwt>
<totfact> 0.14702186E+01</totfact>
</mgrwt>
</event>
<event>
12    1  0.1519630E-007  0.2039039E+04  0.7818608E-02  0.8588583E-01
         -2   -1    0    0    0  501 -0.00000000000E+00  0.00000000000E+00  0.58137909105E+03  0.58137909105E+03  0.00000000000E+00 0.  1.
          2   -1    0    0  501    0  0.00000000000E+00 -0.00000000000E+00 -0.17878525830E+04  0.17878525830E+04  0.00000000000E+00 0. -1.
         23    2    1    2    0    0 -0.39527395720E+03  0.43864113311E+03  0.19469895406E+03  0.62856649530E+03  0.92415428369E+02 0.  0.
        254    2    1    2    0    0  0.39527395720E+03 -0.43864113311E+03 -0.14011724460E+04  0.17406651787E+04  0.84733906799E+03 0.  0.
        -24    2    4    4    0    0  0.48860857666E+03  0.48041548672E+02 -0.91575700805E+03  0.10422207844E+04  0.81036621813E+02 0.  0.
         24    2    4    4    0    0 -0.93334619455E+02 -0.48668268179E+03 -0.48541543796E+03  0.69844439434E+03  0.81394352605E+02 0.  0.
         13    1    3    3    0    0 -0.24043910876E+03  0.21512686796E+03  0.13750603809E+03  0.35071134120E+03  0.00000000000E+00 0.  1.
        -13    1    3    3    0    0 -0.15483484844E+03  0.22351426516E+03  0.57192915971E+02  0.27785515410E+03  0.00000000000E+00 0. -1.
          2    1    6    6  502    0  0.11266861476E+02 -0.29960868231E+02 -0.46338062947E+02  0.56318841167E+02  0.00000000000E+00 0. -1.
          1    1    5    5  503    0  0.24100642426E+03  0.54616123856E+02 -0.40214453702E+03  0.47200343874E+03  0.00000000000E+00 0. -1.
         -2    1    5    5    0  503  0.24760215239E+03 -0.65745751848E+01 -0.51361247103E+03  0.57021734567E+03  0.00000000000E+00 0.  1.
         -1    1    6    6    0  502 -0.10460148093E+03 -0.45672181355E+03 -0.43907737501E+03  0.64212555317E+03  0.00000000000E+00 0.  1.
<mgrwt>
<rscale>  0 0.20390391E+04</rscale>
<asrwt>0</asrwt>
<pdfrwt beam="1">  1        2 0.27505424E+00 0.20390391E+04</pdfrwt>
<pdfrwt beam="2">  1       -2 0.89442939E-01 0.20390391E+04</pdfrwt>
<totfact> 0.87010527E+00</totfact>
</mgrwt>
</event>
<event>
12    1  0.1519630E-007  0.1315222E+04  0.7818608E-02  0.9017580E-01
          2   -1    0    0  501    0  0.00000000000E+00  0.00000000000E+00  0.31283253862E+03  0.31283253862E+03  0.00000000000E+00 0. -1.
         -2   -1    0    0    0  501 -0.00000000000E+00 -0.00000000000E+00 -0.13823759865E+04  0.13823759865E+04  0.00000000000E+00 0.  1.
         23    2    1    2    0    0 -0.13608663667E+02 -0.11706842640E+03 -0.74895929821E+03  0.76660912051E+03  0.11339885843E+03 0.  0.
        254    2    1    2    0    0  0.13608663667E+02  0.11706842640E+03 -0.32058414966E+03  0.92859940460E+03  0.86350011293E+03 0.  0.
        -24    2    4    4    0    0  0.15546480259E+03 -0.71126844827E+02  0.24596397898E+03  0.30983627161E+03  0.79195349272E+02 0.  0.
         24    2    4    4    0    0 -0.14185613893E+03  0.18819527122E+03 -0.56654812864E+03  0.61876313299E+03  0.79689449864E+02 0.  0.
         13    1    3    3    0    0 -0.46690324819E+02 -0.24103957486E+02 -0.13673093764E+03  0.14647981603E+03  0.00000000000E+00 0. -1.
        -13    1    3    3    0    0  0.33081661152E+02 -0.92964468910E+02 -0.61222836057E+03  0.62012930448E+03  0.00000000000E+00 0.  1.
          4    1    6    6  502    0 -0.38516767233E+02  0.11709890304E+03 -0.27325905912E+03  0.29977693013E+03  0.00000000000E+00 0. -1.
          1    1    5    5  503    0  0.66634822944E+02 -0.46862383731E+02  0.17681694021E+03  0.19468054084E+03  0.00000000000E+00 0. -1.
         -2    1    5    5    0  503  0.88829979650E+02 -0.24264461096E+02  0.69147038772E+02  0.11515573076E+03  0.00000000000E+00 0.  1.
         -3    1    6    6    0  502 -0.10333937169E+03  0.71096368188E+02 -0.29328906953E+03  0.31898620286E+03  0.00000000000E+00 0.  1.
<mgrwt>
<rscale>  0 0.13152219E+04</rscale>
<asrwt>0</asrwt>
<pdfrwt beam="1">  1        2 0.48128083E-01 0.13152219E+04</pdfrwt>
<pdfrwt beam="2">  1       -2 0.21267323E+00 0.13152219E+04</pdfrwt>
<totfact> 0.11286437E+01</totfact>
</mgrwt>
</event>
<event>
12    1  0.1519630E-007  0.1551363E+04  0.7818608E-02  0.8850997E-01
         -2   -1    0    0    0  501 -0.00000000000E+00  0.00000000000E+00  0.69982632901E+03  0.69982632901E+03  0.00000000000E+00 0.  1.
          2   -1    0    0  501    0  0.00000000000E+00 -0.00000000000E+00 -0.85975898567E+03  0.85975898567E+03  0.00000000000E+00 0. -1.
         23    2    1    2    0    0 -0.13861851154E+03 -0.18393655190E+03  0.41571623772E+03  0.48398045879E+03  0.91484137010E+02 0.  0.
        254    2    1    2    0    0  0.13861851154E+03  0.18393655190E+03 -0.57564889438E+03  0.10756048559E+04  0.87892343781E+03 0.  0.
        -24    2    4    4    0    0 -0.30006064887E+03 -0.63544791093E+02 -0.17047664731E+02  0.31922858306E+03  0.86844296845E+02 0.  0.
         24    2    4    4    0    0  0.43867916041E+03  0.24748134300E+03 -0.55860122965E+03  0.75637627282E+03  0.79895628299E+02 0.  0.
         13    1    3    3    0    0 -0.35653556863E+02 -0.61295148919E+01  0.30187692628E+02  0.47117341351E+02  0.00000000000E+00 0. -1.
        -13    1    3    3    0    0 -0.10296495467E+03 -0.17780703701E+03  0.38552854509E+03  0.43686311744E+03  0.00000000000E+00 0.  1.
          4    1    6    6  502    0  0.25253982617E+03  0.18278738545E+03 -0.36680822398E+03  0.48138951511E+03  0.00000000000E+00 0. -1.
          3    1    5    5  503    0 -0.87555886903E+02  0.21015210390E+02 -0.32237967699E+01  0.90100306685E+02  0.00000000000E+00 0. -1.
         -4    1    5    5    0  503 -0.21250476197E+03 -0.84560001482E+02 -0.13823867961E+02  0.22912827638E+03  0.00000000000E+00 0.  1.
         -1    1    6    6    0  502  0.18613933424E+03  0.64693957545E+02 -0.19179300567E+03  0.27498675771E+03  0.00000000000E+00 0.  1.
<mgrwt>
<rscale>  0 0.15513632E+04</rscale>
<asrwt>0</asrwt>
<pdfrwt beam="1">  1        2 0.13227061E+00 0.15513632E+04</pdfrwt>
<pdfrwt beam="2">  1       -2 0.10766559E+00 0.15513632E+04</pdfrwt>
<totfact> 0.20813799E+01</totfact>
</mgrwt>
</event>
<event>
12    1  0.1519630E-007  0.1789107E+04  0.7818608E-02  0.8712114E-01
         -1   -1    0    0    0  501 -0.00000000000E+00  0.00000000000E+00  0.39075373675E+03  0.39075373675E+03  0.00000000000E+00 0.  1.
          1   -1    0    0  501    0  0.00000000000E+00 -0.00000000000E+00 -0.20479034221E+04  0.20479034221E+04  0.00000000000E+00 0. -1.
         23    2    1    2    0    0 -0.28017327664E+03 -0.49925703427E+03 -0.27548522635E+03  0.64153288696E+03  0.88981368257E+02 0.  0.
        254    2    1    2    0    0  0.28017327664E+03  0.49925703427E+03 -0.13816644590E+04  0.17971242719E+04  0.99644584403E+03 0.  0.
        -24    2    4    4    0    0  0.60475425131E+03  0.19072042883E+03 -0.10667795487E+04  0.12435582100E+04  0.79475969502E+02 0.  0.
         24    2    4    4    0    0 -0.32458097467E+03  0.30853660544E+03 -0.31488491026E+03  0.55356606182E+03  0.82068459702E+02 0.  0.
         11    1    3    3    0    0 -0.20543569508E+03 -0.42814501980E+03 -0.20926296835E+03  0.51894409402E+03  0.00000000000E+00 0.  1.
        -11    1    3    3    0    0 -0.74737581561E+02 -0.71112014469E+02 -0.66222257997E+02  0.12258879294E+03  0.00000000000E+00 0. -1.
          2    1    6    6  502    0 -0.18775365672E+02  0.53557967466E+02 -0.46856545546E+02  0.73596916347E+02  0.00000000000E+00 0. -1.
          1    1    5    5  503    0  0.30360727342E+03  0.54167795891E+02 -0.51062373200E+03  0.59653006820E+03  0.00000000000E+00 0. -1.
         -2    1    5    5    0  503  0.30114697789E+03  0.13655263294E+03 -0.55615581673E+03  0.64702814184E+03  0.00000000000E+00 0.  1.
         -3    1    6    6    0  502 -0.30580560899E+03  0.25497863798E+03 -0.26802836471E+03  0.47996914547E+03  0.00000000000E+00 0.  1.
<mgrwt>
<rscale>  0 0.17891069E+04</rscale>
<asrwt>0</asrwt>
<pdfrwt beam="1">  1        1 0.31506206E+00 0.17891069E+04</pdfrwt>
<pdfrwt beam="2">  1       -1 0.60115961E-01 0.17891069E+04</pdfrwt>
<totfact> 0.73284625E+00</totfact>
</mgrwt>
</event>
<event>
12    1  0.1519630E-007  0.3422959E+04  0.7818608E-02  0.8132294E-01
          2   -1    0    0  501    0  0.00000000000E+00  0.00000000000E+00  0.24792465502E+04  0.24792465502E+04  0.00000000000E+00 0. -1.
         -2   -1    0    0    0  501 -0.00000000000E+00 -0.00000000000E+00 -0.11814726725E+04  0.11814726725E+04  0.00000000000E+00 0.  1.
         23    2    1    2    0    0 -0.15128031141E+04  0.28875910347E+03  0.17104470964E+03  0.15521007378E+04  0.88347754274E+02 0.  0.
        254    2    1    2    0    0  0.15128031141E+04 -0.28875910347E+03  0.11267291681E+04  0.21086184850E+04  0.89710546496E+03 0.  0.
        -24    2    4    4    0    0  0.96671620559E+03 -0.15295968111E+03  0.17108821685E+03  0.99679289382E+03  0.79925021300E+02 0.  0.
         24    2    4    4    0    0  0.54608690851E+03 -0.13579942236E+03  0.95564095122E+03  0.11118255912E+04  0.79083012122E+02 0.  0.
         11    1    3    3    0    0 -0.64911014115E+03  0.12516661196E+03  0.11743837886E+03  0.67141822207E+03  0.00000000000E+00 0.  1.
        -11    1    3    3    0    0 -0.86369297294E+03  0.16359249151E+03  0.53606330777E+02  0.88068251572E+03  0.00000000000E+00 0. -1.
          2    1    6    6  502    0  0.32935520135E+03 -0.90214627813E+02  0.65175110564E+03  0.73579415017E+03  0.00000000000E+00 0. -1.
          3    1    5    5  503    0  0.64488242158E+03 -0.10038915310E+03  0.15211664975E+03  0.67014236909E+03  0.00000000000E+00 0. -1.
         -4    1    5    5    0  503  0.32183378401E+03 -0.52570528009E+02  0.18971567095E+02  0.32665052473E+03  0.00000000000E+00 0.  1.
         -1    1    6    6    0  502  0.21673170716E+03 -0.45584794548E+02  0.30388984558E+03  0.37603144101E+03  0.00000000000E+00 0.  1.
<mgrwt>
<rscale>  0 0.34229590E+04</rscale>
<asrwt>0</asrwt>
<pdfrwt beam="1">  1        2 0.38142254E+00 0.34229590E+04</pdfrwt>
<pdfrwt beam="2">  1       -2 0.18176503E+00 0.34229590E+04</pdfrwt>
<totfact> 0.52170991E-01</totfact>
</mgrwt>
</event>
<event>
12    1  0.1519630E-007  0.1127037E+04  0.7818608E-02  0.9179233E-01
         -2   -1    0    0    0  501 -0.00000000000E+00  0.00000000000E+00  0.14484379738E+03  0.14484379738E+03  0.00000000000E+00 0.  1.
          2   -1    0    0  501    0  0.00000000000E+00 -0.00000000000E+00 -0.21923835598E+04  0.21923835598E+04  0.00000000000E+00 0. -1.
         23    2    1    2    0    0  0.14636917009E+03 -0.19644541135E+02 -0.60539354375E+03  0.62958941491E+03  0.89842343028E+02 0.  0.
        254    2    1    2    0    0 -0.14636917009E+03  0.19644541135E+02 -0.14421462186E+04  0.17076379422E+04  0.90245874359E+03 0.  0.
        -24    2    4    4    0    0  0.25997700218E+03  0.30427713806E+03 -0.57519175533E+03  0.70546363488E+03  0.81613518089E+02 0.  0.
         24    2    4    4    0    0 -0.40634617227E+03 -0.28463259692E+03 -0.86695446330E+03  0.10021743074E+04  0.81304206085E+02 0.  0.
         11    1    3    3    0    0  0.12894708528E+02  0.23681100881E+02 -0.50746791759E+02  0.57465684724E+02  0.00000000000E+00 0.  1.
        -11    1    3    3    0    0  0.13347446156E+03 -0.43325642016E+02 -0.55464675199E+03  0.57212373019E+03  0.00000000000E+00 0. -1.
          4    1    6    6  502    0 -0.32758701077E+03 -0.20871243313E+03 -0.61355912475E+03  0.72617417259E+03  0.00000000000E+00 0. -1.
          3    1    5    5  503    0  0.23566225117E+03  0.29867466863E+03 -0.55722230009E+03  0.67471471455E+03  0.00000000000E+00 0. -1.
         -4    1    5    5    0  503  0.24314751005E+02  0.56024694287E+01 -0.17969455241E+02  0.30748920336E+02  0.00000000000E+00 0.  1.
         -3    1    6    6    0  502 -0.78759161503E+02 -0.75920163788E+02 -0.25339533855E+03  0.27600013477E+03  0.00000000000E+00 0.  1.
<mgrwt>
<rscale>  0 0.11270371E+04</rscale>
<asrwt>0</asrwt>
<pdfrwt beam="1">  1        2 0.33728977E+00 0.11270371E+04</pdfrwt>
<pdfrwt beam="2">  1       -2 0.22283662E-01 0.11270371E+04</pdfrwt>
<totfact> 0.91581156E+01</totfact>
</mgrwt>
</event>
<event>
12    1  0.1519630E-007  0.1717497E+04  0.7818608E-02  0.8751447E-01
         -2   -1    0    0    0  501 -0.00000000000E+00  0.00000000000E+00  0.19770717961E+04  0.19770717961E+04  0.00000000000E+00 0.  1.
          2   -1    0    0  501    0  0.00000000000E+00 -0.00000000000E+00 -0.37300082716E+03  0.37300082716E+03  0.00000000000E+00 0. -1.
         23    2    1    2    0    0 -0.31055252226E+03 -0.21945725141E+03  0.12498207180E+04  0.13095796902E+04  0.91338839492E+02 0.  0.
        254    2    1    2    0    0  0.31055252226E+03  0.21945725141E+03  0.35425025091E+03  0.10404929330E+04  0.90140332210E+03 0.  0.
        -24    2    4    4    0    0 -0.30160184657E+03  0.14284408473E+03  0.43885021836E+02  0.34522471640E+03  0.76720944186E+02 0.  0.
         24    2    4    4    0    0  0.61215436883E+03  0.76613166675E+02  0.31036522907E+03  0.69526821660E+03  0.80428657933E+02 0.  0.
         13    1    3    3    0    0 -0.18594700201E+03 -0.18266458026E+03  0.80226653006E+03  0.84354858882E+03  0.00000000000E+00 0.  1.
        -13    1    3    3    0    0 -0.12460552024E+03 -0.36792671143E+02  0.44755418796E+03  0.46603110141E+03  0.00000000000E+00 0. -1.
          2    1    6    6  502    0  0.24905759969E+03  0.59725335894E+02  0.15943597697E+03  0.30168963268E+03  0.00000000000E+00 0. -1.
          1    1    5    5  503    0 -0.78090009170E+02  0.15277564633E+02 -0.15602018183E+02  0.81085612069E+02  0.00000000000E+00 0. -1.
         -2    1    5    5    0  503 -0.22351183740E+03  0.12756652010E+03  0.59487040018E+02  0.26413910434E+03  0.00000000000E+00 0.  1.
         -1    1    6    6    0  502  0.36309676914E+03  0.16887830781E+02  0.15092925211E+03  0.39357858393E+03  0.00000000000E+00 0.  1.
<mgrwt>
<rscale>  0 0.17174975E+04</rscale>
<asrwt>0</asrwt>
<pdfrwt beam="1">  1        2 0.57384744E-01 0.17174975E+04</pdfrwt>
<pdfrwt beam="2">  1       -2 0.30416489E+00 0.17174975E+04</pdfrwt>
<totfact> 0.24558724E+00</totfact>
</mgrwt>
</event>
<event>
12    1  0.1519630E-007  0.2214370E+04  0.7818608E-02  0.8512471E-01
         -2   -1    0    0    0  501 -0.00000000000E+00  0.00000000000E+00  0.81641941062E+03  0.81641941062E+03  0.00000000000E+00 0.  1.
          2   -1    0    0  501    0  0.00000000000E+00 -0.00000000000E+00 -0.15015060553E+04  0.15015060553E+04  0.00000000000E+00 0. -1.
         23    2    1    2    0    0 -0.45717624569E+03 -0.55241841696E+03 -0.88327776456E+03  0.11412534439E+04  0.90019925103E+02 0.  0.
        254    2    1    2    0    0  0.45717624569E+03  0.55241841696E+03  0.19819111986E+03  0.11766720220E+04  0.91164746495E+03 0.  0.
        -24    2    4    4    0    0  0.35738988397E+03 -0.13821070348E+03  0.26306048499E+03  0.47131880419E+03  0.78172045479E+02 0.  0.
         24    2    4    4    0    0  0.99786361720E+02  0.69062912044E+03 -0.64869365132E+02  0.70535321782E+03  0.79932642695E+02 0.  0.
         13    1    3    3    0    0 -0.12116217528E+03 -0.21244165967E+03 -0.28920485847E+03  0.37874949722E+03  0.00000000000E+00 0.  1.
        -13    1    3    3    0    0 -0.33601407041E+03 -0.33997675729E+03 -0.59407290610E+03  0.76250394672E+03  0.00000000000E+00 0. -1.
          4    1    6    6  502    0  0.98504920891E+02  0.69132466943E+03 -0.60704877968E+02  0.70094086784E+03  0.00000000000E+00 0. -1.
          3    1    5    5  503    0  0.31941443941E+03 -0.14287148660E+03  0.25288770419E+03  0.43172912424E+03  0.00000000000E+00 0. -1.
         -4    1    5    5    0  503  0.37975444567E+02  0.46607831221E+01  0.10172780805E+02  0.39589679952E+02  0.00000000000E+00 0.  1.
         -3    1    6    6    0  502  0.12814408281E+01 -0.69554898758E+00 -0.41644871638E+01  0.44123499779E+01  0.00000000000E+00 0.  1.
<mgrwt>
<rscale>  0 0.22143701E+04</rscale>
<asrwt>0</asrwt>
<pdfrwt beam="1">  1        2 0.23100093E+00 0.22143701E+04</pdfrwt>
<pdfrwt beam="2">  1       -2 0.12560299E+00 0.22143701E+04</pdfrwt>
<totfact> 0.54800963E+00</totfact>
</mgrwt>
</event>
<event>
12    1  0.1519630E-007  0.1548294E+04  0.7818608E-02  0.8852958E-01
         -2   -1    0    0    0  501 -0.00000000000E+00  0.00000000000E+00  0.23118851033E+03  0.23118851033E+03  0.00000000000E+00 0.  1.
          2   -1    0    0  501    0  0.00000000000E+00 -0.00000000000E+00 -0.25922711845E+04  0.25922711845E+04  0.00000000000E+00 0. -1.
         23    2    1    2    0    0  0.26303025297E+03 -0.36625654189E+03 -0.11081868511E+04  0.11999336169E+04  0.91835829429E+02 0.  0.
        254    2    1    2    0    0 -0.26303025297E+03  0.36625654189E+03 -0.12528958230E+04  0.16235260779E+04  0.92884886486E+03 0.  0.
        -24    2    4    4    0    0 -0.20912451639E+03  0.37729856044E+03 -0.78823299257E+02  0.44538242607E+03  0.77878918082E+02 0.  0.
         24    2    4    4    0    0 -0.53905736580E+02 -0.11042018556E+02 -0.11740725238E+04  0.11781436518E+04  0.80922299849E+02 0.  0.
         11    1    3    3    0    0  0.20115360701E+03 -0.23502729939E+03 -0.66121150194E+03  0.73000085984E+03  0.00000000000E+00 0. -1.
        -11    1    3    3    0    0  0.61876645960E+02 -0.13122924250E+03 -0.44697534915E+03  0.46993275705E+03  0.00000000000E+00 0.  1.
          4    1    6    6  502    0 -0.55906611587E+02 -0.10988634624E+02 -0.11746729664E+04  0.11760539432E+04  0.00000000000E+00 0. -1.
          1    1    5    5  503    0 -0.18396318722E+03  0.36789533645E+03 -0.71035322638E+02  0.41741520084E+03  0.00000000000E+00 0. -1.
         -2    1    5    5    0  503 -0.25161329174E+02  0.94032239920E+01 -0.77879766194E+01  0.27967225230E+02  0.00000000000E+00 0.  1.
         -3    1    6    6    0  502  0.20008750075E+01 -0.53383931716E-01  0.60044264854E+00  0.20897085955E+01  0.00000000000E+00 0.  1.
<mgrwt>
<rscale>  0 0.15482937E+04</rscale>
<asrwt>0</asrwt>
<pdfrwt beam="1">  1        2 0.39881095E+00 0.15482937E+04</pdfrwt>
<pdfrwt beam="2">  1       -2 0.35567463E-01 0.15482937E+04</pdfrwt>
<totfact> 0.22058402E+01</totfact>
</mgrwt>
</event>
<event>
12    1  0.1519630E-007  0.1563723E+04  0.7818608E-02  0.8843149E-01
          2   -1    0    0  501    0  0.00000000000E+00  0.00000000000E+00  0.38413132541E+04  0.38413132541E+04  0.00000000000E+00 0.  1.
         -2   -1    0    0    0  501 -0.00000000000E+00 -0.00000000000E+00 -0.15914030211E+03  0.15914030211E+03  0.00000000000E+00 0. -1.
         23    2    1    2    0    0 -0.39273021496E+02  0.28362663060E+03  0.22953289490E+04  0.23149448499E+04  0.91914297913E+02 0.  0.
        254    2    1    2    0    0  0.39273021496E+02 -0.28362663060E+03  0.13868440029E+04  0.16855087062E+04  0.91412082055E+03 0.  0.
        -24    2    4    4    0    0  0.32631556618E+03 -0.65527325574E+02  0.11488911115E+03  0.36104150924E+03  0.79848509108E+02 0.  0.
         24    2    4    4    0    0 -0.28704254468E+03 -0.21809930503E+03  0.12719548918E+04  0.13244671970E+04  0.79896056947E+02 0.  0.
         13    1    3    3    0    0  0.27644999142E+02  0.86816564992E+02  0.59017082263E+03  0.59716242499E+03  0.00000000000E+00 0. -1.
        -13    1    3    3    0    0 -0.66918020638E+02  0.19681006561E+03  0.17051581264E+04  0.17177824249E+04  0.00000000000E+00 0.  1.
          4    1    6    6  502    0 -0.21800106127E+03 -0.15379699935E+03  0.10485074123E+04  0.10819176370E+04  0.00000000000E+00 0. -1.
          1    1    5    5  503    0  0.31813726265E+03 -0.73374691440E+02  0.98330244011E+02  0.34097507257E+03  0.00000000000E+00 0. -1.
         -2    1    5    5    0  503  0.81783035311E+01  0.78473658659E+01  0.16558867137E+02  0.20066436667E+02  0.00000000000E+00 0.  1.
         -3    1    6    6    0  502 -0.69041483412E+02 -0.64302305683E+02  0.22344747950E+03  0.24254955997E+03  0.00000000000E+00 0.  1.
<mgrwt>
<rscale>  0 0.15637234E+04</rscale>
<asrwt>0</asrwt>
<pdfrwt beam="1">  1        2 0.59097120E+00 0.15637234E+04</pdfrwt>
<pdfrwt beam="2">  1       -2 0.24483126E-01 0.15637234E+04</pdfrwt>
<totfact> 0.66632827E+00</totfact>
</mgrwt>
</event>
<event>
12    1  0.1519630E-007  0.1358462E+04  0.7818608E-02  0.8984447E-01
          1   -1    0    0  501    0  0.00000000000E+00  0.00000000000E+00  0.79560655518E+03  0.79560655518E+03  0.00000000000E+00 0. -1.
         -1   -1    0    0    0  501 -0.00000000000E+00 -0.00000000000E+00 -0.57987811385E+03  0.57987811385E+03  0.00000000000E+00 0.  1.
         23    2    1    2    0    0  0.10565281690E+03  0.72630142241E+02 -0.28983801982E+03  0.33389124290E+03  0.10506963914E+03 0.  0.
        254    2    1    2    0    0 -0.10565281690E+03 -0.72630142241E+02  0.50556646115E+03  0.10415934261E+04  0.90159955824E+03 0.  0.
        -24    2    4    4    0    0  0.26490368125E+03 -0.33308667783E+03  0.14329035826E+03  0.45611249573E+03  0.79911117480E+02 0.  0.
         24    2    4    4    0    0 -0.37055649815E+03  0.26045653559E+03  0.36227610289E+03  0.58548093040E+03  0.79963866132E+02 0.  0.
         11    1    3    3    0    0  0.57352079470E+02  0.78777493167E+02 -0.10717599754E+03  0.14485112667E+03  0.00000000000E+00 0. -1.
        -11    1    3    3    0    0  0.48300737425E+02 -0.61473509255E+01 -0.18266202228E+03  0.18904011623E+03  0.00000000000E+00 0.  1.
          4    1    6    6  502    0 -0.18834055047E+03  0.17989052546E+03  0.21497695199E+03  0.33770971853E+03  0.00000000000E+00 0. -1.
          1    1    5    5  503    0  0.10978166785E+01 -0.30764789422E+02  0.18504214259E+02  0.35917731206E+02  0.00000000000E+00 0. -1.
         -2    1    5    5    0  503  0.26380586457E+03 -0.30232188841E+03  0.12478614400E+03  0.42019476452E+03  0.00000000000E+00 0.  1.
         -3    1    6    6    0  502 -0.18221594768E+03  0.80566010123E+02  0.14729915090E+03  0.24777121187E+03  0.00000000000E+00 0.  1.
<mgrwt>
<rscale>  0 0.13584621E+04</rscale>
<asrwt>0</asrwt>
<pdfrwt beam="1">  1        1 0.12240101E+00 0.13584621E+04</pdfrwt>
<pdfrwt beam="2">  1       -1 0.89212017E-01 0.13584621E+04</pdfrwt>
<totfact> 0.26884898E+01</totfact>
</mgrwt>
</event>
<event>
12    1  0.1519630E-007  0.1905579E+04  0.7818608E-02  0.8652084E-01
          1   -1    0    0  501    0  0.00000000000E+00  0.00000000000E+00  0.73280162270E+03  0.73280162270E+03  0.00000000000E+00 0.  1.
         -1   -1    0    0    0  501 -0.00000000000E+00 -0.00000000000E+00 -0.12388175627E+04  0.12388175627E+04  0.00000000000E+00 0. -1.
         23    2    1    2    0    0  0.53669579141E+03  0.48806472393E+03 -0.30452629369E+03  0.79203667164E+03  0.91303222348E+02 0.  0.
        254    2    1    2    0    0 -0.53669579141E+03 -0.48806472393E+03 -0.20148964634E+03  0.11795825138E+04  0.90805687158E+03 0.  0.
        -24    2    4    4    0    0 -0.69862345253E+02 -0.50167937580E+03  0.20680151536E+03  0.55373806809E+03  0.85416847933E+02 0.  0.
         24    2    4    4    0    0 -0.46683344615E+03  0.13614651864E+02 -0.40829116170E+03  0.62584444571E+03  0.82829779123E+02 0.  0.
         13    1    3    3    0    0  0.52508876413E+03  0.45526001796E+03 -0.27899705898E+03  0.74887866379E+03  0.00000000000E+00 0.  1.
        -13    1    3    3    0    0  0.11607027278E+02  0.32804705976E+02 -0.25529234710E+02  0.43158007846E+02  0.00000000000E+00 0. -1.
          2    1    6    6  502    0 -0.44058155602E+02  0.93656576357E+01 -0.12606903885E+02  0.46773610546E+02  0.00000000000E+00 0. -1.
          3    1    5    5  503    0 -0.14159493933E+02 -0.70222740890E+02  0.63436619583E+02  0.95686620332E+02  0.00000000000E+00 0. -1.
         -4    1    5    5    0  503 -0.55702851320E+02 -0.43145663491E+03  0.14336489578E+03  0.45805144776E+03  0.00000000000E+00 0.  1.
         -1    1    6    6    0  502 -0.42277529055E+03  0.42489942280E+01 -0.39568425782E+03  0.57907083516E+03  0.00000000000E+00 0.  1.
<mgrwt>
<rscale>  0 0.19055787E+04</rscale>
<asrwt>0</asrwt>
<pdfrwt beam="1">  1        1 0.11273871E+00 0.19055787E+04</pdfrwt>
<pdfrwt beam="2">  1       -1 0.19058731E+00 0.19055787E+04</pdfrwt>
<totfact> 0.41559204E+00</totfact>
</mgrwt>
</event>
<event>
12    1  0.1519630E-007  0.1890833E+04  0.7818608E-02  0.8659433E-01
         -2   -1    0    0    0  501 -0.00000000000E+00  0.00000000000E+00  0.23800615821E+03  0.23800615821E+03  0.00000000000E+00 0.  1.
          2   -1    0    0  501    0  0.00000000000E+00 -0.00000000000E+00 -0.37554168104E+04  0.37554168104E+04  0.00000000000E+00 0. -1.
         23    2    1    2    0    0  0.98637877779E+02 -0.53561764375E+03 -0.23852805218E+04  0.24484897874E+04  0.94463642995E+02 0.  0.
        254    2    1    2    0    0 -0.98637877779E+02  0.53561764375E+03 -0.11321301304E+04  0.15449331813E+04  0.89915750079E+03 0.  0.
        -24    2    4    4    0    0  0.76731209092E+02 -0.22864397387E+03 -0.20028322169E+03  0.32442887660E+03  0.83516356748E+02 0.  0.
         24    2    4    4    0    0 -0.17536908687E+03  0.76426161762E+03 -0.93184690874E+03  0.12205043047E+04  0.80261819440E+02 0.  0.
         13    1    3    3    0    0  0.69213208036E+02 -0.42938379226E+03 -0.20472662886E+04  0.20929548886E+04  0.00000000000E+00 0. -1.
        -13    1    3    3    0    0  0.29424669743E+02 -0.10623385149E+03 -0.33801423319E+03  0.35553489875E+03  0.00000000000E+00 0.  1.
          4    1    6    6  502    0  0.70070304907E+01  0.11738934191E+02 -0.20414181647E+02  0.24569083511E+02  0.00000000000E+00 0. -1.
          3    1    5    5  503    0 -0.57782212888E+01  0.40599802543E+01 -0.98611107460E+00  0.71304765605E+01  0.00000000000E+00 0. -1.
         -4    1    5    5    0  503  0.82509430381E+02 -0.23270395413E+03 -0.19929711062E+03  0.31729840004E+03  0.00000000000E+00 0.  1.
         -3    1    6    6    0  502 -0.18237611736E+03  0.75252268343E+03 -0.91143272710E+03  0.11959352212E+04  0.00000000000E+00 0.  1.
<mgrwt>
<rscale>  0 0.18908330E+04</rscale>
<asrwt>0</asrwt>
<pdfrwt beam="1">  1        2 0.57775636E+00 0.18908330E+04</pdfrwt>
<pdfrwt beam="2">  1       -2 0.36616336E-01 0.18908330E+04</pdfrwt>
<totfact> 0.35277608E+00</totfact>
</mgrwt>
</event>
<event>
12    1  0.1519630E-007  0.2304698E+04  0.7818608E-02  0.8476071E-01
         -1   -1    0    0    0  501 -0.00000000000E+00  0.00000000000E+00  0.76520102424E+03  0.76520102424E+03  0.00000000000E+00 0.  1.
          1   -1    0    0  501    0  0.00000000000E+00 -0.00000000000E+00 -0.17353712771E+04  0.17353712771E+04  0.00000000000E+00 0. -1.
         23    2    1    2    0    0  0.76013260711E+03  0.60207918999E+03 -0.30304080955E+03  0.10203293757E+04  0.94537670953E+02 0.  0.
        254    2    1    2    0    0 -0.76013260711E+03 -0.60207918999E+03 -0.66712944334E+03  0.14802429257E+04  0.89763940056E+03 0.  0.
        -24    2    4    4    0    0 -0.65581561641E+03 -0.57850527056E+03 -0.86931247816E+03  0.12355842630E+04  0.78751605835E+02 0.  0.
         24    2    4    4    0    0 -0.10431699070E+03 -0.23573919439E+02  0.20218303482E+03  0.24465866271E+03  0.86845365117E+02 0.  0.
         11    1    3    3    0    0  0.79220822694E+02  0.10256626112E+03 -0.47486301315E+02  0.13802436553E+03  0.00000000000E+00 0.  1.
        -11    1    3    3    0    0  0.68091178442E+03  0.49951292887E+03 -0.25555450824E+03  0.88230501016E+03  0.00000000000E+00 0. -1.
          4    1    6    6  502    0 -0.30319346382E+02 -0.47650687642E+02  0.11279269817E+03  0.12614294891E+03  0.00000000000E+00 0. -1.
          1    1    5    5  503    0 -0.90874076088E+02 -0.51798637216E+02 -0.84775867081E+02  0.13464079680E+03  0.00000000000E+00 0. -1.
         -2    1    5    5    0  503 -0.56494154032E+03 -0.52670663334E+03 -0.78453661108E+03  0.11009434662E+04  0.00000000000E+00 0.  1.
         -3    1    6    6    0  502 -0.73997644320E+02  0.24076768203E+02  0.89390336650E+02  0.11851571380E+03  0.00000000000E+00 0.  1.
<mgrwt>
<rscale>  0 0.23046977E+04</rscale>
<asrwt>0</asrwt>
<pdfrwt beam="1">  1        1 0.26698019E+00 0.23046977E+04</pdfrwt>
<pdfrwt beam="2">  1       -1 0.11772324E+00 0.23046977E+04</pdfrwt>
<totfact> 0.26422954E+00</totfact>
</mgrwt>
</event>
<event>
12    1  0.1519630E-007  0.1477071E+04  0.7818608E-02  0.8899845E-01
          2   -1    0    0  501    0  0.00000000000E+00  0.00000000000E+00  0.20125426819E+04  0.20125426819E+04  0.00000000000E+00 0. -1.
         -2   -1    0    0    0  501 -0.00000000000E+00 -0.00000000000E+00 -0.27101787673E+03  0.27101787673E+03  0.00000000000E+00 0.  1.
         23    2    1    2    0    0  0.33407629476E+03  0.30701991058E+03  0.60796244617E+03  0.76414314537E+03  0.91805307346E+02 0.  0.
        254    2    1    2    0    0 -0.33407629476E+03 -0.30701991058E+03  0.11335623590E+04  0.15194174133E+04  0.90432154556E+03 0.  0.
        -24    2    4    4    0    0  0.13713131609E+03 -0.46612803542E+03  0.42689755818E+03  0.65164257449E+03  0.79474376084E+02 0.  0.
         24    2    4    4    0    0 -0.47120761085E+03  0.15910812485E+03  0.70666480083E+03  0.86777483877E+03  0.79410466300E+02 0.  0.
         11    1    3    3    0    0  0.28417499866E+02  0.68792581340E+02  0.11692859045E+03  0.13860832879E+03  0.00000000000E+00 0. -1.
        -11    1    3    3    0    0  0.30565879489E+03  0.23822732924E+03  0.49103385571E+03  0.62553481658E+03  0.00000000000E+00 0.  1.
          4    1    6    6  502    0 -0.25829495798E+03  0.12135576015E+03  0.36312024758E+03  0.46184393473E+03  0.00000000000E+00 0. -1.
          3    1    5    5  503    0  0.12033582605E+03 -0.45688873554E+03  0.41646580009E+03  0.62981885518E+03  0.00000000000E+00 0. -1.
         -4    1    5    5    0  503  0.16795490037E+02 -0.92392998879E+01  0.10431758084E+02  0.21823719314E+02  0.00000000000E+00 0.  1.
         -3    1    6    6    0  502 -0.21291265287E+03  0.37752364695E+02  0.34354455325E+03  0.40593090405E+03  0.00000000000E+00 0.  1.
<mgrwt>
<rscale>  0 0.14770715E+04</rscale>
<asrwt>0</asrwt>
<pdfrwt beam="1">  1        2 0.30962194E+00 0.14770715E+04</pdfrwt>
<pdfrwt beam="2">  1       -2 0.41695059E-01 0.14770715E+04</pdfrwt>
<totfact> 0.34698517E+01</totfact>
</mgrwt>
</event>
<event>
12    1  0.1519630E-007  0.1821295E+04  0.7818608E-02  0.8695056E-01
         -2   -1    0    0    0  501 -0.00000000000E+00  0.00000000000E+00  0.13797121008E+04  0.13797121008E+04  0.00000000000E+00 0.  1.
          2   -1    0    0  501    0  0.00000000000E+00 -0.00000000000E+00 -0.60105216339E+03  0.60105216339E+03  0.00000000000E+00 0. -1.
         23    2    1    2    0    0  0.58804732345E+03 -0.17635487248E+03 -0.35027305021E+02  0.62143637975E+03  0.89752806724E+02 0.  0.
        254    2    1    2    0    0 -0.58804732345E+03  0.17635487248E+03  0.81368724245E+03  0.13593278845E+04  0.89932456502E+03 0.  0.
        -24    2    4    4    0    0 -0.65559651925E+03  0.38743527828E+03  0.81963485371E+03  0.11214931531E+04  0.77670510619E+02 0.  0.
         24    2    4    4    0    0  0.67549195797E+02 -0.21108040580E+03 -0.59476112508E+01  0.23783473131E+03  0.86093866072E+02 0.  0.
         11    1    3    3    0    0  0.16695219048E+03 -0.87656248678E+02 -0.30909602379E+02  0.19108127945E+03  0.00000000000E+00 0.  1.
        -11    1    3    3    0    0  0.42109513298E+03 -0.88698623802E+02 -0.41177026420E+01  0.43035510030E+03  0.00000000000E+00 0. -1.
          4    1    6    6  502    0  0.36286354679E+02 -0.15101176783E+02 -0.97848167530E+00  0.39315423214E+02  0.00000000000E+00 0. -1.
          1    1    5    5  503    0 -0.10594763679E+03  0.37171544826E+02  0.14579502980E+03  0.18401852135E+03  0.00000000000E+00 0. -1.
         -2    1    5    5    0  503 -0.54964888247E+03  0.35026373345E+03  0.67383982390E+03  0.93747463179E+03  0.00000000000E+00 0.  1.
         -3    1    6    6    0  502  0.31262841119E+02 -0.19597922901E+03 -0.49691295755E+01  0.19851930810E+03  0.00000000000E+00 0.  1.
<mgrwt>
<rscale>  0 0.18212951E+04</rscale>
<asrwt>0</asrwt>
<pdfrwt beam="1">  1        2 0.92469564E-01 0.18212951E+04</pdfrwt>
<pdfrwt beam="2">  1       -2 0.21226340E+00 0.18212951E+04</pdfrwt>
<totfact> 0.51611460E+00</totfact>
</mgrwt>
</event>
<event>
12    1  0.1519630E-007  0.1462280E+04  0.7818608E-02  0.8909931E-01
          1   -1    0    0  501    0  0.00000000000E+00  0.00000000000E+00  0.12003878966E+04  0.12003878966E+04  0.00000000000E+00 0. -1.
         -1   -1    0    0    0  501 -0.00000000000E+00 -0.00000000000E+00 -0.44532716918E+03  0.44532716918E+03  0.00000000000E+00 0.  1.
         23    2    1    2    0    0 -0.22638334663E+03 -0.38012368675E+03  0.87412561712E+02  0.46399605676E+03  0.10912354412E+03 0.  0.
        254    2    1    2    0    0  0.22638334663E+03  0.38012368675E+03  0.66764816575E+03  0.11817190091E+04  0.86888566928E+03 0.  0.
        -24    2    4    4    0    0  0.23668305474E+03  0.43697019977E+03  0.84223717572E+03  0.98115464797E+03  0.79618836837E+02 0.  0.
         24    2    4    4    0    0 -0.10299708113E+02 -0.56846513024E+02 -0.17458900997E+03  0.20056436109E+03  0.80044553259E+02 0.  0.
         11    1    3    3    0    0 -0.19528533676E+03 -0.37620632444E+03  0.86677457029E+02  0.43264366731E+03  0.00000000000E+00 0.  1.
        -11    1    3    3    0    0 -0.31098009867E+02 -0.39173623067E+01  0.73510468335E+00  0.31352389447E+02  0.00000000000E+00 0. -1.
          4    1    6    6  502    0 -0.16660101181E+02 -0.64390989892E+02 -0.17808147736E+03  0.19009674151E+03  0.00000000000E+00 0. -1.
          3    1    5    5  503    0  0.10460717354E+03  0.11659806486E+03  0.25252809090E+03  0.29716696684E+03  0.00000000000E+00 0. -1.
         -4    1    5    5    0  503  0.13207588120E+03  0.32037213492E+03  0.58970908482E+03  0.68398768114E+03  0.00000000000E+00 0.  1.
         -3    1    6    6    0  502  0.63603930685E+01  0.75444768681E+01  0.34924673961E+01  0.10467619582E+02  0.00000000000E+00 0.  1.
<mgrwt>
<rscale>  0 0.14622795E+04</rscale>
<asrwt>0</asrwt>
<pdfrwt beam="1">  1        1 0.18467506E+00 0.14622795E+04</pdfrwt>
<pdfrwt beam="2">  1       -1 0.68511873E-01 0.14622795E+04</pdfrwt>
<totfact> 0.22342419E+01</totfact>
</mgrwt>
</event>
<event>
12    1  0.1519630E-007  0.1334501E+04  0.7818608E-02  0.9002645E-01
         -1   -1    0    0    0  501 -0.00000000000E+00  0.00000000000E+00  0.19048474539E+03  0.19048474539E+03  0.00000000000E+00 0. -1.
          1   -1    0    0  501    0  0.00000000000E+00 -0.00000000000E+00 -0.23373153534E+04  0.23373153534E+04  0.00000000000E+00 0.  1.
         23    2    1    2    0    0  0.32715633081E+03  0.79497629010E+02 -0.81326840888E+03  0.88483510521E+03  0.90424115790E+02 0.  0.
        254    2    1    2    0    0 -0.32715633081E+03 -0.79497629010E+02 -0.13335621991E+04  0.16429649936E+04  0.89866272504E+03 0.  0.
        -24    2    4    4    0    0 -0.19389546500E+03 -0.47809678379E+03 -0.61751433376E+03  0.80884042436E+03  0.82017642346E+02 0.  0.
         24    2    4    4    0    0 -0.13326086581E+03  0.39859915478E+03 -0.71604786534E+03  0.83412456920E+03  0.79996918255E+02 0.  0.
         13    1    3    3    0    0  0.37507927234E+02  0.18231008764E+02 -0.44291030731E+02  0.60835102442E+02  0.00000000000E+00 0. -1.
        -13    1    3    3    0    0  0.28964840358E+03  0.61266620246E+02 -0.76897737815E+03  0.82400000277E+03  0.00000000000E+00 0.  1.
          2    1    6    6  502    0 -0.24537914007E+02  0.18206280398E+03 -0.34730274930E+03  0.39289715383E+03  0.00000000000E+00 0. -1.
          1    1    5    5  503    0 -0.16945515829E+01  0.88053770704E+00 -0.16634736856E+02  0.16743993609E+02  0.00000000000E+00 0. -1.
         -2    1    5    5    0  503 -0.19220091342E+03 -0.47897732150E+03 -0.60087959690E+03  0.79209643075E+03  0.00000000000E+00 0.  1.
         -1    1    6    6    0  502 -0.10872295180E+03  0.21653635080E+03 -0.36874511604E+03  0.44122741537E+03  0.00000000000E+00 0.  1.
<mgrwt>
<rscale>  0 0.13345005E+04</rscale>
<asrwt>0</asrwt>
<pdfrwt beam="1">  1        1 0.35958701E+00 0.13345005E+04</pdfrwt>
<pdfrwt beam="2">  1       -1 0.29305343E-01 0.13345005E+04</pdfrwt>
<totfact> 0.18337107E+01</totfact>
</mgrwt>
</event>
<event>
12    1  0.1893087E-007  0.1668204E+04  0.7818608E-02  0.8779709E-01
         -2   -1    0    0    0  501 -0.00000000000E+00  0.00000000000E+00  0.86143825441E+03  0.86143825441E+03  0.00000000000E+00 0.  1.
          2   -1    0    0  501    0  0.00000000000E+00 -0.00000000000E+00 -0.80763349428E+03  0.80763349428E+03  0.00000000000E+00 0. -1.
         23    2    1    2    0    0  0.93387647074E+02  0.16643513004E+02  0.60516021271E+03  0.61886600720E+03  0.88192928698E+02 0.  0.
        254    2    1    2    0    0 -0.93387647074E+02 -0.16643513004E+02 -0.55135545258E+03  0.10502057415E+04  0.88878625395E+03 0.  0.
        -24    2    4    4    0    0  0.31229760405E+03  0.97359728400E+02 -0.52072471702E+03  0.62036688230E+03  0.81805424788E+02 0.  0.
         24    2    4    4    0    0 -0.40568525112E+03 -0.11400324140E+03 -0.30630735557E+02  0.42983885919E+03  0.79031265208E+02 0.  0.
         13    1    3    3    0    0  0.55461273282E+01 -0.15756784965E+02  0.19099500385E+02  0.25373740673E+02  0.00000000000E+00 0. -1.
        -13    1    3    3    0    0  0.87841519746E+02  0.32400297969E+02  0.58606071233E+03  0.59349226653E+03  0.00000000000E+00 0.  1.
          2    1    6    6  502    0 -0.88127276847E+01 -0.18578425453E+02 -0.15064834868E+01  0.20617748521E+02  0.00000000000E+00 0. -1.
          1    1    5    5  503    0  0.90813164999E+02  0.67223683270E+02 -0.19383088732E+03  0.22435790026E+03  0.00000000000E+00 0. -1.
         -2    1    5    5    0  503  0.22148443905E+03  0.30136045130E+02 -0.32689382970E+03  0.39600898203E+03  0.00000000000E+00 0.  1.
         -1    1    6    6    0  502 -0.39687252344E+03 -0.95424815950E+02 -0.29124252070E+02  0.40922111067E+03  0.00000000000E+00 0.  1.
<mgrwt>
<rscale>  0 0.16682043E+04</rscale>
<asrwt>0</asrwt>
<pdfrwt beam="1">  1        2 0.12425131E+00 0.16682043E+04</pdfrwt>
<pdfrwt beam="2">  1       -2 0.13252896E+00 0.16682043E+04</pdfrwt>
<totfact> 0.13414766E+01</totfact>
</mgrwt>
</event>
<event>
12    1  0.1519630E-007  0.1803680E+04  0.7818608E-02  0.8704345E-01
         -1   -1    0    0    0  501 -0.00000000000E+00  0.00000000000E+00  0.75741951287E+03  0.75741951287E+03  0.00000000000E+00 0.  1.
          1   -1    0    0  501    0  0.00000000000E+00 -0.00000000000E+00 -0.10737981412E+04  0.10737981412E+04  0.00000000000E+00 0. -1.
         23    2    1    2    0    0  0.49861668114E+03 -0.12325755131E+03  0.31931650234E+03  0.61442003095E+03  0.10834171452E+03 0.  0.
        254    2    1    2    0    0 -0.49861668114E+03  0.12325755131E+03 -0.63569513071E+03  0.12167976232E+04  0.90148607192E+03 0.  0.
        -24    2    4    4    0    0 -0.76408486472E+02 -0.30624408028E+03  0.15940643427E+02  0.32592970979E+03  0.79701807379E+02 0.  0.
         24    2    4    4    0    0 -0.42220819467E+03  0.42950163159E+03 -0.65163577414E+03  0.89086791337E+03  0.79278280500E+02 0.  0.
         13    1    3    3    0    0  0.45299842469E+03 -0.80538706333E+02  0.26118561142E+03  0.52906708422E+03  0.00000000000E+00 0.  1.
        -13    1    3    3    0    0  0.45618256445E+02 -0.42718844973E+02  0.58130890916E+02  0.85352946730E+02  0.00000000000E+00 0. -1.
          2    1    6    6  502    0 -0.12638434487E+03  0.14956359462E+03 -0.16318532445E+03  0.25489551111E+03  0.00000000000E+00 0. -1.
          3    1    5    5  503    0  0.32410688976E+01 -0.10179556125E+03 -0.19422453027E+02  0.10368255639E+03  0.00000000000E+00 0. -1.
         -4    1    5    5    0  503 -0.79649555370E+02 -0.20444851904E+03  0.35363096454E+02  0.22224715341E+03  0.00000000000E+00 0.  1.
         -1    1    6    6    0  502 -0.29582384979E+03  0.27993803697E+03 -0.48845044969E+03  0.63597240227E+03  0.00000000000E+00 0.  1.
<mgrwt>
<rscale>  0 0.18036803E+04</rscale>
<asrwt>0</asrwt>
<pdfrwt beam="1">  1        1 0.16519971E+00 0.18036803E+04</pdfrwt>
<pdfrwt beam="2">  1       -1 0.11652608E+00 0.18036803E+04</pdfrwt>
<totfact> 0.83260515E+00</totfact>
</mgrwt>
</event>
<event>
12    1  0.1519630E-007  0.2441965E+04  0.7818608E-02  0.8423957E-01
          2   -1    0    0  501    0  0.00000000000E+00  0.00000000000E+00  0.16495435636E+04  0.16495435636E+04  0.00000000000E+00 0. -1.
         -2   -1    0    0    0  501 -0.00000000000E+00 -0.00000000000E+00 -0.90376416263E+03  0.90376416263E+03  0.00000000000E+00 0.  1.
         23    2    1    2    0    0  0.10161019265E+04  0.27780389914E+03  0.26579623547E+03  0.10904039378E+04  0.93246862108E+02 0.  0.
        254    2    1    2    0    0 -0.10161019265E+04 -0.27780389914E+03  0.47998316550E+03  0.14629037885E+04  0.89446381917E+03 0.  0.
        -24    2    4    4    0    0  0.55663795102E+02 -0.23522184874E+03 -0.56218334516E+02  0.26106486992E+03  0.81034492417E+02 0.  0.
         24    2    4    4    0    0 -0.10717657216E+04 -0.42582050408E+02  0.53620150002E+03  0.12018389186E+04  0.80060880376E+02 0.  0.
         13    1    3    3    0    0  0.48828728461E+03  0.17208324277E+03  0.15925461926E+03  0.54166331656E+03  0.00000000000E+00 0.  1.
        -13    1    3    3    0    0  0.52781464187E+03  0.10572065638E+03  0.10654161621E+03  0.54874062119E+03  0.00000000000E+00 0. -1.
          4    1    6    6  502    0 -0.10197172043E+04 -0.38983692656E+02  0.52818855258E+03  0.11490544165E+04  0.00000000000E+00 0. -1.
          1    1    5    5  503    0  0.61808182635E+02 -0.18248894868E+03 -0.71990284470E+02  0.20568196053E+03  0.00000000000E+00 0. -1.
         -2    1    5    5    0  503 -0.61443875323E+01 -0.52732900061E+02  0.15771949953E+02  0.55382909388E+02  0.00000000000E+00 0.  1.
         -3    1    6    6    0  502 -0.52048517254E+02 -0.35983577516E+01  0.80129474438E+01  0.52784502021E+02  0.00000000000E+00 0.  1.
<mgrwt>
<rscale>  0 0.24419651E+04</rscale>
<asrwt>0</asrwt>
<pdfrwt beam="1">  1        2 0.25377593E+00 0.24419651E+04</pdfrwt>
<pdfrwt beam="2">  1       -2 0.13904064E+00 0.24419651E+04</pdfrwt>
<totfact> 0.34288616E+00</totfact>
</mgrwt>
</event>
<event>
12    1  0.1519630E-007  0.1220945E+04  0.7818608E-02  0.9094719E-01
         -1   -1    0    0    0  501 -0.00000000000E+00  0.00000000000E+00  0.33264165774E+03  0.33264165774E+03  0.00000000000E+00 0.  1.
          1   -1    0    0  501    0  0.00000000000E+00 -0.00000000000E+00 -0.11203543710E+04  0.11203543710E+04  0.00000000000E+00 0. -1.
         23    2    1    2    0    0  0.21755743697E+02  0.11805833970E+03  0.98610280132E+02  0.17943354398E+03  0.89784884027E+02 0.  0.
        254    2    1    2    0    0 -0.21755743697E+02 -0.11805833970E+03 -0.88632299335E+03  0.12735624847E+04  0.90663215803E+03 0.  0.
        -24    2    4    4    0    0  0.55110600737E+02 -0.35810320846E+03 -0.24205604231E+02  0.37189942061E+03  0.80300570013E+02 0.  0.
         24    2    4    4    0    0 -0.76866344434E+02  0.24004486876E+03 -0.86211738912E+03  0.90166306411E+03  0.78866435403E+02 0.  0.
         13    1    3    3    0    0  0.99561610486E+01  0.98767308550E+02  0.24914993991E+02  0.10234677966E+03  0.00000000000E+00 0. -1.
        -13    1    3    3    0    0  0.11799582649E+02  0.19291031151E+02  0.73695286142E+02  0.77086764318E+02  0.00000000000E+00 0.  1.
          2    1    6    6  502    0 -0.86248376275E+01  0.13995233164E+03 -0.52649739340E+03  0.54484910591E+03  0.00000000000E+00 0. -1.
          1    1    5    5  503    0  0.69462116519E+02 -0.18832411813E+03 -0.12902108157E+02  0.20114030798E+03  0.00000000000E+00 0. -1.
         -2    1    5    5    0  503 -0.14351515782E+02 -0.16977909034E+03 -0.11303496073E+02  0.17075911262E+03  0.00000000000E+00 0.  1.
         -1    1    6    6    0  502 -0.68241506807E+02  0.10009253712E+03 -0.33561999572E+03  0.35681395820E+03  0.00000000000E+00 0.  1.
<mgrwt>
<rscale>  0 0.12209448E+04</rscale>
<asrwt>0</asrwt>
<pdfrwt beam="1">  1        1 0.17236221E+00 0.12209448E+04</pdfrwt>
<pdfrwt beam="2">  1       -1 0.51175640E-01 0.12209448E+04</pdfrwt>
<totfact> 0.46430865E+01</totfact>
</mgrwt>
</event>
<event>
12    1  0.1519630E-007  0.2133400E+04  0.7818608E-02  0.8546671E-01
          1   -1    0    0  501    0  0.00000000000E+00  0.00000000000E+00  0.17779689915E+04  0.17779689915E+04  0.00000000000E+00 0. -1.
         -1   -1    0    0    0  501 -0.00000000000E+00 -0.00000000000E+00 -0.63997130124E+03  0.63997130124E+03  0.00000000000E+00 0.  1.
         23    2    1    2    0    0  0.13069736949E+03  0.76793047635E+03  0.12911123695E+02  0.78436988711E+03  0.90941760434E+02 0.  0.
        254    2    1    2    0    0 -0.13069736949E+03 -0.76793047635E+03  0.11250865666E+04  0.16335704057E+04  0.89215103490E+03 0.  0.
        -24    2    4    4    0    0 -0.17022212604E+03 -0.50045882554E+03  0.67603112725E+02  0.53911035726E+03  0.81456664539E+02 0.  0.
         24    2    4    4    0    0  0.39524756553E+02 -0.26747165081E+03  0.10574834539E+04  0.10944600484E+04  0.80425443744E+02 0.  0.
         13    1    3    3    0    0  0.32406259341E+02  0.75791943077E+02  0.21677520531E+02  0.85232031398E+02  0.00000000000E+00 0. -1.
        -13    1    3    3    0    0  0.98291110144E+02  0.69213853327E+03 -0.87663968357E+01  0.69913785571E+03  0.00000000000E+00 0.  1.
          4    1    6    6  502    0  0.42154548374E+02 -0.11730507092E+03  0.60482195977E+03  0.61753306683E+03  0.00000000000E+00 0. -1.
          1    1    5    5  503    0 -0.16332827709E+03 -0.41646306441E+03  0.34881812246E+02  0.44870296516E+03  0.00000000000E+00 0. -1.
         -2    1    5    5    0  503 -0.68938489443E+01 -0.83995761125E+02  0.32721300479E+02  0.90407392094E+02  0.00000000000E+00 0.  1.
         -3    1    6    6    0  502 -0.26297918207E+01 -0.15016657989E+03  0.45266149411E+03  0.47692698160E+03  0.00000000000E+00 0.  1.
<mgrwt>
<rscale>  0 0.21334002E+04</rscale>
<asrwt>0</asrwt>
<pdfrwt beam="1">  1        1 0.27353369E+00 0.21334002E+04</pdfrwt>
<pdfrwt beam="2">  1       -1 0.98457124E-01 0.21334002E+04</pdfrwt>
<totfact> 0.38185795E+00</totfact>
</mgrwt>
</event>
<event>
12    1  0.1519630E-007  0.3540460E+04  0.7818608E-02  0.8104268E-01
         -2   -1    0    0    0  501 -0.00000000000E+00  0.00000000000E+00  0.78000629301E+03  0.78000629301E+03  0.00000000000E+00 0.  1.
          2   -1    0    0  501    0  0.00000000000E+00 -0.00000000000E+00 -0.40175500961E+04  0.40175500961E+04  0.00000000000E+00 0. -1.
         23    2    1    2    0    0  0.84453733993E+03  0.60446555360E+03 -0.32553333724E+04  0.34181992638E+04  0.90933589697E+02 0.  0.
        254    2    1    2    0    0 -0.84453733993E+03 -0.60446555360E+03  0.17789569361E+02  0.13793571252E+04  0.90757241370E+03 0.  0.
        -24    2    4    4    0    0 -0.43146850195E+03  0.18634969610E+03 -0.58283914262E+02  0.48034359486E+03  0.80260058879E+02 0.  0.
         24    2    4    4    0    0 -0.41306883798E+03 -0.79081524970E+03  0.76073483623E+02  0.89901353037E+03  0.80146920111E+02 0.  0.
         11    1    3    3    0    0  0.37075341991E+03  0.22307457665E+03 -0.14482772541E+04  0.15115314650E+04  0.00000000000E+00 0.  1.
        -11    1    3    3    0    0  0.47378392002E+03  0.38139097694E+03 -0.18070561183E+04  0.19066677988E+04  0.00000000000E+00 0. -1.
          4    1    6    6  502    0 -0.40200841052E+03 -0.72682819359E+03  0.76127542896E+02  0.83407756709E+03  0.00000000000E+00 0. -1.
          3    1    5    5  503    0 -0.40259278986E+03  0.15635060795E+03 -0.36700231786E+02  0.43344362271E+03  0.00000000000E+00 0. -1.
         -4    1    5    5    0  503 -0.28875712083E+02  0.29999088151E+02 -0.21583682475E+02  0.46899972147E+02  0.00000000000E+00 0.  1.
         -3    1    6    6    0  502 -0.11060427464E+02 -0.63987056105E+02 -0.54059272910E-01  0.64935963280E+02  0.00000000000E+00 0.  1.
<mgrwt>
<rscale>  0 0.35404601E+04</rscale>
<asrwt>0</asrwt>
<pdfrwt beam="1">  1        2 0.61808462E+00 0.35404601E+04</pdfrwt>
<pdfrwt beam="2">  1       -2 0.12000097E+00 0.35404601E+04</pdfrwt>
<totfact> 0.14356923E-01</totfact>
</mgrwt>
</event>
<event>
12    1  0.1519630E-007  0.1903144E+04  0.7818608E-02  0.8653293E-01
         -2   -1    0    0    0  501 -0.00000000000E+00  0.00000000000E+00  0.78909000160E+03  0.78909000160E+03  0.00000000000E+00 0.  1.
          2   -1    0    0  501    0  0.00000000000E+00 -0.00000000000E+00 -0.11475105852E+04  0.11475105852E+04  0.00000000000E+00 0. -1.
         23    2    1    2    0    0  0.11890514393E+03  0.11042932155E+03  0.58244122257E+03  0.61128501627E+03  0.89991805520E+02 0.  0.
        254    2    1    2    0    0 -0.11890514393E+03 -0.11042932155E+03 -0.94086180621E+03  0.13253155706E+04  0.91918842187E+03 0.  0.
        -24    2    4    4    0    0 -0.17117649236E+03  0.22395979552E+03  0.29668128661E+02  0.29431291152E+03  0.79249671792E+02 0.  0.
         24    2    4    4    0    0  0.52271348432E+02 -0.33438911707E+03 -0.97052993488E+03  0.10310026591E+04  0.80559003296E+02 0.  0.
         11    1    3    3    0    0  0.54850158344E+02  0.91735592148E+02  0.45552848645E+03  0.46789973360E+03  0.00000000000E+00 0.  1.
        -11    1    3    3    0    0  0.64054985586E+02  0.18693729402E+02  0.12691273612E+03  0.14338528267E+03  0.00000000000E+00 0. -1.
          4    1    6    6  502    0  0.27944905376E+02 -0.61434517514E+02 -0.28151482374E+03  0.28949216512E+03  0.00000000000E+00 0. -1.
          1    1    5    5  503    0 -0.33144185033E+02  0.57757357903E+02 -0.25544116639E+02  0.71322866517E+02  0.00000000000E+00 0. -1.
         -2    1    5    5    0  503 -0.13803230733E+03  0.16620243762E+03  0.55212245301E+02  0.22299004500E+03  0.00000000000E+00 0.  1.
         -3    1    6    6    0  502  0.24326443057E+02 -0.27295459956E+03 -0.68901511113E+03  0.74151049394E+03  0.00000000000E+00 0.  1.
<mgrwt>
<rscale>  0 0.19031439E+04</rscale>
<asrwt>0</asrwt>
<pdfrwt beam="1">  1        2 0.17654009E+00 0.19031439E+04</pdfrwt>
<pdfrwt beam="2">  1       -2 0.12139846E+00 0.19031439E+04</pdfrwt>
<totfact> 0.98425586E+00</totfact>
</mgrwt>
</event>
<event>
12    1  0.1519630E-007  0.3055803E+04  0.7818608E-02  0.8227973E-01
          2   -1    0    0  501    0  0.00000000000E+00  0.00000000000E+00  0.24220606528E+04  0.24220606528E+04  0.00000000000E+00 0. -1.
         -2   -1    0    0    0  501 -0.00000000000E+00 -0.00000000000E+00 -0.96384139793E+03  0.96384139793E+03  0.00000000000E+00 0.  1.
         23    2    1    2    0    0 -0.80854418776E+03 -0.82639144798E+03  0.15274160084E+04  0.19177189641E+04  0.89329915204E+02 0.  0.
        254    2    1    2    0    0  0.80854418776E+03  0.82639144798E+03 -0.69196753487E+02  0.14681830866E+04  0.90227870215E+03 0.  0.
        -24    2    4    4    0    0  0.51071404698E+02  0.38438801242E+03  0.31646759527E+03  0.50690416120E+03  0.80235013056E+02 0.  0.
         24    2    4    4    0    0  0.75747278306E+03  0.44200343556E+03 -0.38566434875E+03  0.96127892544E+03  0.78664658367E+02 0.  0.
         13    1    3    3    0    0 -0.30476277135E+03 -0.32160383881E+03  0.65721094102E+03  0.79261314457E+03  0.00000000000E+00 0.  1.
        -13    1    3    3    0    0 -0.50378141641E+03 -0.50478760917E+03  0.87020506735E+03  0.11251058195E+04  0.00000000000E+00 0. -1.
          4    1    6    6  502    0  0.21625270933E+03  0.86482351426E+02 -0.10751027888E+03  0.25652074276E+03  0.00000000000E+00 0. -1.
          1    1    5    5  503    0  0.15089614081E+02  0.10847106054E+03  0.13865571350E+03  0.17668920259E+03  0.00000000000E+00 0. -1.
         -2    1    5    5    0  503  0.35981790618E+02  0.27591695188E+03  0.17781188177E+03  0.33021495861E+03  0.00000000000E+00 0.  1.
         -3    1    6    6    0  502  0.54122007374E+03  0.35552108413E+03 -0.27815406988E+03  0.70475818269E+03  0.00000000000E+00 0.  1.
<mgrwt>
<rscale>  0 0.30558026E+04</rscale>
<asrwt>0</asrwt>
<pdfrwt beam="1">  1        2 0.37262471E+00 0.30558026E+04</pdfrwt>
<pdfrwt beam="2">  1       -2 0.14828329E+00 0.30558026E+04</pdfrwt>
<totfact> 0.10161630E+00</totfact>
</mgrwt>
</event>
<event>
12    1  0.1519630E-007  0.1508867E+04  0.7818608E-02  0.8878578E-01
         -1   -1    0    0    0  501 -0.00000000000E+00  0.00000000000E+00  0.20152073230E+03  0.20152073230E+03  0.00000000000E+00 0.  1.
          1   -1    0    0  501    0  0.00000000000E+00 -0.00000000000E+00 -0.28243730558E+04  0.28243730558E+04  0.00000000000E+00 0. -1.
         23    2    1    2    0    0 -0.35554728668E+03  0.10516487816E+02 -0.21271663299E+03  0.42483573214E+03  0.93341115108E+02 0.  0.
        254    2    1    2    0    0  0.35554728668E+03 -0.10516487816E+02 -0.24101356905E+04  0.26010580559E+04  0.91116655679E+03 0.  0.
        -24    2    4    4    0    0 -0.27981595676E+03 -0.10611864779E+02 -0.11609995796E+04  0.11972787704E+04  0.84539037506E+02 0.  0.
         24    2    4    4    0    0  0.63536324344E+03  0.95376962950E-01 -0.12491361109E+04  0.14037792855E+04  0.81048126411E+02 0.  0.
         11    1    3    3    0    0 -0.32511933503E+03 -0.18521608222E+02 -0.18639624043E+03  0.37521885671E+03  0.00000000000E+00 0.  1.
        -11    1    3    3    0    0 -0.30427951649E+02  0.29038096038E+02 -0.26320392562E+02  0.49616875432E+02  0.00000000000E+00 0. -1.
          2    1    6    6  502    0  0.81615894839E+02  0.24953733337E+02 -0.19268058461E+03  0.21073597411E+03  0.00000000000E+00 0. -1.
          3    1    5    5  503    0 -0.13764686811E+03 -0.46736878795E+02 -0.54474974805E+03  0.56381139058E+03  0.00000000000E+00 0. -1.
         -4    1    5    5    0  503 -0.14216908864E+03  0.36125014016E+02 -0.61624983158E+03  0.63346737984E+03  0.00000000000E+00 0.  1.
         -1    1    6    6    0  502  0.55374734860E+03 -0.24858356374E+02 -0.10564555262E+04  0.11930433114E+04  0.00000000000E+00 0.  1.
<mgrwt>
<rscale>  0 0.15088668E+04</rscale>
<asrwt>0</asrwt>
<pdfrwt beam="1">  1        1 0.43451892E+00 0.15088668E+04</pdfrwt>
<pdfrwt beam="2">  1       -1 0.31003190E-01 0.15088668E+04</pdfrwt>
<totfact> 0.74874546E+00</totfact>
</mgrwt>
</event>
<event>
12    1  0.1519630E-007  0.1364597E+04  0.7818608E-02  0.8979852E-01
          2   -1    0    0  501    0  0.00000000000E+00  0.00000000000E+00  0.85065059898E+03  0.85065059898E+03  0.00000000000E+00 0. -1.
         -2   -1    0    0    0  501 -0.00000000000E+00 -0.00000000000E+00 -0.54726476538E+03  0.54726476538E+03  0.00000000000E+00 0.  1.
         23    2    1    2    0    0  0.43432765859E+02 -0.42678431317E+01 -0.29883507432E+03  0.31525572276E+03  0.90438650193E+02 0.  0.
        254    2    1    2    0    0 -0.43432765859E+02  0.42678431317E+01  0.60222090793E+03  0.10826596416E+04  0.89865302424E+03 0.  0.
        -24    2    4    4    0    0 -0.10892738736E+03  0.34074393841E+03  0.63310812246E+03  0.73121588742E+03  0.76675758891E+02 0.  0.
         24    2    4    4    0    0  0.65494621501E+02 -0.33647609528E+03 -0.30887214534E+02  0.35144375419E+03  0.71084345644E+02 0.  0.
         13    1    3    3    0    0  0.68994646706E+02 -0.11155660372E+01 -0.25722367944E+03  0.26631846918E+03  0.00000000000E+00 0.  1.
        -13    1    3    3    0    0 -0.25561880847E+02 -0.31522770945E+01 -0.41611394883E+02  0.48937253575E+02  0.00000000000E+00 0. -1.
          2    1    6    6  502    0  0.10546689991E+02 -0.21721074776E+03 -0.33909284358E+02  0.22009448239E+03  0.00000000000E+00 0. -1.
          1    1    5    5  503    0 -0.26995444897E+02  0.49925940408E+02  0.16092338475E+03  0.17063906156E+03  0.00000000000E+00 0. -1.
         -2    1    5    5    0  503 -0.81931942463E+02  0.29081799800E+03  0.47218473771E+03  0.56057682586E+03  0.00000000000E+00 0.  1.
         -1    1    6    6    0  502  0.54947931510E+02 -0.11926534752E+03  0.30220698243E+01  0.13134927180E+03  0.00000000000E+00 0.  1.
<mgrwt>
<rscale>  0 0.13645968E+04</rscale>
<asrwt>0</asrwt>
<pdfrwt beam="1">  1        2 0.13086932E+00 0.13645968E+04</pdfrwt>
<pdfrwt beam="2">  1       -2 0.84194579E-01 0.13645968E+04</pdfrwt>
<totfact> 0.38107015E+01</totfact>
</mgrwt>
</event>
<event>
12    1  0.1519630E-007  0.1510938E+04  0.7818608E-02  0.8877212E-01
         -1   -1    0    0    0  501 -0.00000000000E+00  0.00000000000E+00  0.72085105118E+03  0.72085105118E+03  0.00000000000E+00 0.  1.
          1   -1    0    0  501    0  0.00000000000E+00 -0.00000000000E+00 -0.79174920547E+03  0.79174920547E+03  0.00000000000E+00 0. -1.
         23    2    1    2    0    0 -0.33350722202E+03  0.34943562786E+03 -0.30730082058E+01  0.49912377663E+03  0.12562951827E+03 0.  0.
        254    2    1    2    0    0  0.33350722202E+03 -0.34943562786E+03 -0.67825146078E+02  0.10134764800E+04  0.88837041822E+03 0.  0.
        -24    2    4    4    0    0 -0.20789846746E+03 -0.31356259916E+02 -0.26742045347E+03  0.34954857204E+03  0.80408441560E+02 0.  0.
         24    2    4    4    0    0  0.54140568948E+03 -0.31807936795E+03  0.19959530739E+03  0.66392790799E+03  0.81653997831E+02 0.  0.
         13    1    3    3    0    0 -0.28016375277E+03  0.21390469792E+03  0.12029911776E+02  0.35269202846E+03  0.00000000000E+00 0.  1.
        -13    1    3    3    0    0 -0.53343469249E+02  0.13553092994E+03 -0.15102919981E+02  0.14643174817E+03  0.00000000000E+00 0. -1.
          4    1    6    6  502    0 -0.77545866437E+00 -0.85678045403E+01  0.52207064149E+01  0.10063020732E+02  0.00000000000E+00 0. -1.
          1    1    5    5  503    0 -0.72836686566E+01 -0.73921078631E+01 -0.56607309694E+02  0.57550695900E+02  0.00000000000E+00 0. -1.
         -2    1    5    5    0  503 -0.20061479880E+03 -0.23964152053E+02 -0.21081314377E+03  0.29199787614E+03  0.00000000000E+00 0.  1.
         -3    1    6    6    0  502  0.54218114814E+03 -0.30951156341E+03  0.19437460097E+03  0.65386488725E+03  0.00000000000E+00 0.  1.
<mgrwt>
<rscale>  0 0.15109378E+04</rscale>
<asrwt>0</asrwt>
<pdfrwt beam="1">  1        1 0.12180757E+00 0.15109378E+04</pdfrwt>
<pdfrwt beam="2">  1       -1 0.11090016E+00 0.15109378E+04</pdfrwt>
<totfact> 0.16270056E+01</totfact>
</mgrwt>
</event>
<event>
12    1  0.1519630E-007  0.1436476E+04  0.7818608E-02  0.8927830E-01
          1   -1    0    0  501    0  0.00000000000E+00  0.00000000000E+00  0.11122958639E+04  0.11122958639E+04  0.00000000000E+00 0. -1.
         -1   -1    0    0    0  501 -0.00000000000E+00 -0.00000000000E+00 -0.46378481324E+03  0.46378481324E+03  0.00000000000E+00 0.  1.
         23    2    1    2    0    0 -0.34178283664E+03 -0.54590474392E+02 -0.91783894897E+02  0.36945589907E+03  0.90982144841E+02 0.  0.
        254    2    1    2    0    0  0.34178283664E+03  0.54590474392E+02  0.74029494557E+03  0.12066247781E+04  0.88775622855E+03 0.  0.
        -24    2    4    4    0    0  0.48560488803E+03  0.14381833323E+01  0.86359869619E+03  0.99450403949E+03  0.86147552776E+02 0.  0.
         24    2    4    4    0    0 -0.14382205140E+03  0.53152291059E+02 -0.12330375062E+03  0.21212073859E+03  0.79255563284E+02 0.  0.
         11    1    3    3    0    0 -0.32560967837E+03 -0.70962196977E+02 -0.94215445057E+02  0.34631466347E+03  0.00000000000E+00 0.  1.
        -11    1    3    3    0    0 -0.16173158266E+02  0.16371722585E+02  0.24315501602E+01  0.23141235596E+02  0.00000000000E+00 0. -1.
          4    1    6    6  502    0 -0.19380046051E+02  0.13202869833E+02 -0.64827063624E+02  0.68938016616E+02  0.00000000000E+00 0. -1.
          1    1    5    5  503    0  0.40748685424E+03  0.16974393833E+02  0.65954572798E+03  0.77545743515E+03  0.00000000000E+00 0. -1.
         -2    1    5    5    0  503  0.78118033794E+02 -0.15536210500E+02  0.20405296821E+03  0.21904660434E+03  0.00000000000E+00 0.  1.
         -3    1    6    6    0  502 -0.12444200535E+03  0.39949421227E+02 -0.58476686994E+02  0.14318272198E+03  0.00000000000E+00 0.  1.
<mgrwt>
<rscale>  0 0.14364761E+04</rscale>
<asrwt>0</asrwt>
<pdfrwt beam="1">  1        1 0.17112244E+00 0.14364761E+04</pdfrwt>
<pdfrwt beam="2">  1       -1 0.71351510E-01 0.14364761E+04</pdfrwt>
<totfact> 0.23937353E+01</totfact>
</mgrwt>
</event>
<event>
12    1  0.1519630E-007  0.1800318E+04  0.7818608E-02  0.8706130E-01
          1   -1    0    0  501    0  0.00000000000E+00  0.00000000000E+00  0.10726874388E+04  0.10726874388E+04  0.00000000000E+00 0. -1.
         -1   -1    0    0    0  501 -0.00000000000E+00 -0.00000000000E+00 -0.75537997930E+03  0.75537997930E+03  0.00000000000E+00 0.  1.
         23    2    1    2    0    0 -0.73431159536E+01 -0.66344717725E+03  0.16866299681E+03  0.69052240936E+03  0.90321165697E+02 0.  0.
        254    2    1    2    0    0  0.73431159536E+01  0.66344717725E+03  0.14864446266E+03  0.11375450087E+04  0.91197444714E+03 0.  0.
        -24    2    4    4    0    0 -0.42099935865E+03  0.17786876624E+03  0.13796843290E+03  0.48550402254E+03  0.88323889387E+02 0.  0.
         24    2    4    4    0    0  0.42834247460E+03  0.48557841101E+03  0.10676029767E+02  0.65204098619E+03  0.76025004250E+02 0.  0.
         11    1    3    3    0    0  0.70454520989E+01 -0.14411184876E+03 -0.38559651909E-01  0.14428397289E+03  0.00000000000E+00 0.  1.
        -11    1    3    3    0    0 -0.14388568053E+02 -0.51933532850E+03  0.16870155647E+03  0.54623843646E+03  0.00000000000E+00 0. -1.
          2    1    6    6  502    0  0.41561589164E+03  0.45729981400E+03  0.23710260303E+02  0.61840267279E+03  0.00000000000E+00 0. -1.
          1    1    5    5  503    0 -0.17233933319E+03  0.12052157637E+03  0.62474482029E+02  0.21938404008E+03  0.00000000000E+00 0. -1.
         -2    1    5    5    0  503 -0.24866002546E+03  0.57347189872E+02  0.75493950867E+02  0.26611998246E+03  0.00000000000E+00 0.  1.
         -1    1    6    6    0  502  0.12726582961E+02  0.28278597008E+02 -0.13034230536E+02  0.33638313399E+02  0.00000000000E+00 0.  1.
<mgrwt>
<rscale>  0 0.18003184E+04</rscale>
<asrwt>0</asrwt>
<pdfrwt beam="1">  1        1 0.16502884E+00 0.18003184E+04</pdfrwt>
<pdfrwt beam="2">  1       -1 0.11621230E+00 0.18003184E+04</pdfrwt>
<totfact> 0.83991346E+00</totfact>
</mgrwt>
</event>
<event>
12    1  0.1519630E-007  0.2031434E+04  0.7818608E-02  0.8592064E-01
          2   -1    0    0  501    0  0.00000000000E+00  0.00000000000E+00  0.15463625615E+04  0.15463625615E+04  0.00000000000E+00 0. -1.
         -2   -1    0    0    0  501 -0.00000000000E+00 -0.00000000000E+00 -0.66716652893E+03  0.66716652893E+03  0.00000000000E+00 0.  1.
         23    2    1    2    0    0 -0.43748903697E+03  0.43801426926E+03 -0.21848310290E+03  0.66261654565E+03  0.89847998126E+02 0.  0.
        254    2    1    2    0    0  0.43748903697E+03 -0.43801426926E+03  0.10976791354E+04  0.15509125448E+04  0.90397847295E+03 0.  0.
        -24    2    4    4    0    0 -0.55479224142E+02 -0.36529635545E+03  0.41656973743E+02  0.38058968519E+03  0.81202422344E+02 0.  0.
         24    2    4    4    0    0  0.49296826111E+03 -0.72717913817E+02  0.10560221617E+04  0.11703228596E+04  0.78531447138E+02 0.  0.
         13    1    3    3    0    0 -0.29425807031E+03  0.28848222379E+03 -0.99954658059E+02  0.42402917241E+03  0.00000000000E+00 0.  1.
        -13    1    3    3    0    0 -0.14323096666E+03  0.14953204547E+03 -0.11852844484E+03  0.23858737324E+03  0.00000000000E+00 0. -1.
          4    1    6    6  502    0  0.45442061896E+03 -0.47400933172E+02  0.93100260514E+03  0.10370683672E+04  0.00000000000E+00 0. -1.
          3    1    5    5  503    0 -0.59643818537E+02 -0.13495141694E+03  0.79919728098E+01  0.14776041977E+03  0.00000000000E+00 0. -1.
         -4    1    5    5    0  503  0.41645943949E+01 -0.23034493851E+03  0.33665000933E+02  0.23282926541E+03  0.00000000000E+00 0.  1.
         -3    1    6    6    0  502  0.38547642149E+02 -0.25316980645E+02  0.12501955655E+03  0.13325449240E+03  0.00000000000E+00 0.  1.
<mgrwt>
<rscale>  0 0.20314343E+04</rscale>
<asrwt>0</asrwt>
<pdfrwt beam="1">  1        2 0.23790193E+00 0.20314343E+04</pdfrwt>
<pdfrwt beam="2">  1       -2 0.10264100E+00 0.20314343E+04</pdfrwt>
<totfact> 0.85986077E+00</totfact>
</mgrwt>
</event>
<event>
12    1  0.1519630E-007  0.1551456E+04  0.7818608E-02  0.8850938E-01
         -2   -1    0    0    0  501 -0.00000000000E+00  0.00000000000E+00  0.75275195588E+03  0.75275195588E+03  0.00000000000E+00 0. -1.
          2   -1    0    0  501    0  0.00000000000E+00 -0.00000000000E+00 -0.79940558197E+03  0.79940558197E+03  0.00000000000E+00 0.  1.
         23    2    1    2    0    0  0.26589381513E+03 -0.32326689182E+03  0.26823381576E+03  0.50602960789E+03  0.94422348355E+02 0.  0.
        254    2    1    2    0    0 -0.26589381513E+03  0.32326689182E+03 -0.31488744185E+03  0.10461279300E+04  0.90555427255E+03 0.  0.
        -24    2    4    4    0    0  0.31079770356E+03  0.15043147943E+03 -0.25381214258E+03  0.43578253193E+03  0.79126284286E+02 0.  0.
         24    2    4    4    0    0 -0.57669151870E+03  0.17283541239E+03 -0.61075299271E+02  0.61034539803E+03  0.79662570929E+02 0.  0.
         13    1    3    3    0    0  0.24577854574E+03 -0.28854193642E+03  0.27078260594E+03  0.46581837909E+03  0.00000000000E+00 0. -1.
        -13    1    3    3    0    0  0.20115269390E+02 -0.34724955404E+02 -0.25487901725E+01  0.40211228802E+02  0.00000000000E+00 0.  1.
          4    1    6    6  502    0 -0.37155882258E+03  0.74696342824E+02 -0.54136097011E+02  0.38283967828E+03  0.00000000000E+00 0. -1.
          1    1    5    5  503    0  0.31475206081E+03  0.14293591141E+03 -0.24908618918E+03  0.42607917597E+03  0.00000000000E+00 0. -1.
         -2    1    5    5    0  503 -0.39543572460E+01  0.74955680291E+01 -0.47259534052E+01  0.97033559605E+01  0.00000000000E+00 0.  1.
         -1    1    6    6    0  502 -0.20513269612E+03  0.98139069565E+02 -0.69392022597E+01  0.22750571976E+03  0.00000000000E+00 0.  1.
<mgrwt>
<rscale>  0 0.15514562E+04</rscale>
<asrwt>0</asrwt>
<pdfrwt beam="1">  1        2 0.12298547E+00 0.15514562E+04</pdfrwt>
<pdfrwt beam="2">  1       -2 0.11580799E+00 0.15514562E+04</pdfrwt>
<totfact> 0.19236076E+01</totfact>
</mgrwt>
</event>
<event>
12    1  0.1519630E-007  0.2051175E+04  0.7818608E-02  0.8583062E-01
          2   -1    0    0  501    0  0.00000000000E+00  0.00000000000E+00  0.25300683791E+04  0.25300683791E+04  0.00000000000E+00 0. -1.
         -2   -1    0    0    0  501 -0.00000000000E+00 -0.00000000000E+00 -0.41573169914E+03  0.41573169914E+03  0.00000000000E+00 0.  1.
         23    2    1    2    0    0  0.63788024986E+03 -0.52243940677E+03  0.91801858214E+03  0.12372512420E+04  0.90544860473E+02 0.  0.
        254    2    1    2    0    0 -0.63788024986E+03  0.52243940677E+03  0.11963180978E+04  0.17085488363E+04  0.89895939162E+03 0.  0.
        -24    2    4    4    0    0 -0.20538944825E+03  0.12332612480E+03  0.10725808616E+04  0.11018987974E+04  0.79731403533E+02 0.  0.
         24    2    4    4    0    0 -0.43249080161E+03  0.39911328198E+03  0.12373723627E+03  0.60665003882E+03  0.79835209219E+02 0.  0.
         11    1    3    3    0    0  0.60378938882E+03 -0.48164666892E+03  0.88514748306E+03  0.11747472947E+04  0.00000000000E+00 0. -1.
        -11    1    3    3    0    0  0.34090861046E+02 -0.40792737849E+02  0.32871099080E+02  0.62503947258E+02  0.00000000000E+00 0.  1.
          2    1    6    6  502    0 -0.19828959688E+03  0.14815991708E+03  0.82534930524E+02  0.26092554497E+03  0.00000000000E+00 0. -1.
          3    1    5    5  503    0 -0.81923009757E+02  0.56529801667E+02  0.62333231787E+03  0.63122909986E+03  0.00000000000E+00 0. -1.
         -4    1    5    5    0  503 -0.12346643849E+03  0.66796323128E+02  0.44924854369E+03  0.47066969758E+03  0.00000000000E+00 0.  1.
         -1    1    6    6    0  502 -0.23420120473E+03  0.25095336489E+03  0.41202305748E+02  0.34572449385E+03  0.00000000000E+00 0.  1.
<mgrwt>
<rscale>  0 0.20511749E+04</rscale>
<asrwt>0</asrwt>
<pdfrwt beam="1">  1        2 0.38924128E+00 0.20511749E+04</pdfrwt>
<pdfrwt beam="2">  1       -2 0.63958724E-01 0.20511749E+04</pdfrwt>
<totfact> 0.69960458E+00</totfact>
</mgrwt>
</event>
<event>
12    1  0.1519630E-007  0.2097868E+04  0.7818608E-02  0.8562183E-01
         -1   -1    0    0    0  501 -0.00000000000E+00  0.00000000000E+00  0.93031876936E+03  0.93031876936E+03  0.00000000000E+00 0.  1.
          1   -1    0    0  501    0  0.00000000000E+00 -0.00000000000E+00 -0.11826723308E+04  0.11826723308E+04  0.00000000000E+00 0. -1.
         23    2    1    2    0    0  0.56317553522E+03 -0.74217803990E+02  0.55800853597E+03  0.80167443610E+03  0.92916141740E+02 0.  0.
        254    2    1    2    0    0 -0.56317553522E+03  0.74217803990E+02 -0.81036209740E+03  0.13113166640E+04  0.86034277972E+03 0.  0.
        -24    2    4    4    0    0 -0.70402935926E+03 -0.16906615147E+03 -0.49608398614E+03  0.88114122160E+03  0.77909106267E+02 0.  0.
         24    2    4    4    0    0  0.14085382404E+03  0.24328395546E+03 -0.31427811127E+03  0.43017544245E+03  0.85166292241E+02 0.  0.
         11    1    3    3    0    0  0.22069427890E+03 -0.73235904302E+02  0.20805870606E+03  0.31202225495E+03  0.00000000000E+00 0. -1.
        -11    1    3    3    0    0  0.34248125631E+03 -0.98189968849E+00  0.34994982991E+03  0.48965218115E+03  0.00000000000E+00 0.  1.
          2    1    6    6  502    0  0.46055077379E+02  0.16267045962E+03 -0.18941238582E+03  0.25388934693E+03  0.00000000000E+00 0. -1.
          3    1    5    5  503    0 -0.14402193755E+03 -0.51794995049E+01 -0.84090262802E+02  0.16685418187E+03  0.00000000000E+00 0. -1.
         -4    1    5    5    0  503 -0.56000742171E+03 -0.16388665196E+03 -0.41199372333E+03  0.71428703973E+03  0.00000000000E+00 0.  1.
         -1    1    6    6    0  502  0.94798746663E+02  0.80613495839E+02 -0.12486572545E+03  0.17628609552E+03  0.00000000000E+00 0.  1.
<mgrwt>
<rscale>  0 0.20978677E+04</rscale>
<asrwt>0</asrwt>
<pdfrwt beam="1">  1        1 0.18194959E+00 0.20978677E+04</pdfrwt>
<pdfrwt beam="2">  1       -1 0.14312596E+00 0.20978677E+04</pdfrwt>
<totfact> 0.40032497E+00</totfact>
</mgrwt>
</event>
<event>
12    1  0.1519630E-007  0.2232753E+04  0.7818608E-02  0.8504918E-01
         -2   -1    0    0    0  501 -0.00000000000E+00  0.00000000000E+00  0.73681598556E+03  0.73681598556E+03  0.00000000000E+00 0.  1.
          2   -1    0    0  501    0  0.00000000000E+00 -0.00000000000E+00 -0.16914630284E+04  0.16914630284E+04  0.00000000000E+00 0. -1.
         23    2    1    2    0    0  0.28020426712E+03  0.46977424286E+03  0.41696687139E+03  0.69340834028E+03  0.88042512279E+02 0.  0.
        254    2    1    2    0    0 -0.28020426712E+03 -0.46977424286E+03 -0.13716139143E+04  0.17348706737E+04  0.91063123939E+03 0.  0.
        -24    2    4    4    0    0  0.87626512771E+02 -0.63518289276E+03 -0.75608195069E+03  0.99463873881E+03  0.80688236990E+02 0.  0.
         24    2    4    4    0    0 -0.36783077989E+03  0.16540864990E+03 -0.61553196357E+03  0.74023193490E+03  0.80026340483E+02 0.  0.
         11    1    3    3    0    0  0.26993441610E+03  0.44490755284E+03  0.36741944033E+03  0.63702775819E+03  0.00000000000E+00 0.  1.
        -11    1    3    3    0    0  0.10269851023E+02  0.24866690016E+02  0.49547431061E+02  0.56380582093E+02  0.00000000000E+00 0. -1.
          4    1    6    6  502    0 -0.15535129596E+03  0.64437779655E+02 -0.32902250163E+03  0.36951597961E+03  0.00000000000E+00 0. -1.
          1    1    5    5  503    0  0.27401169950E+01  0.46156733196E+00  0.51708006582E+00  0.28264212960E+01  0.00000000000E+00 0. -1.
         -2    1    5    5    0  503  0.84886395776E+02 -0.63564446009E+03 -0.75659903075E+03  0.99181231751E+03  0.00000000000E+00 0.  1.
         -3    1    6    6    0  502 -0.21247948393E+03  0.10097087025E+03 -0.28650946194E+03  0.37071595529E+03  0.00000000000E+00 0.  1.
<mgrwt>
<rscale>  0 0.22327535E+04</rscale>
<asrwt>0</asrwt>
<pdfrwt beam="1">  1        2 0.26022508E+00 0.22327535E+04</pdfrwt>
<pdfrwt beam="2">  1       -2 0.11335631E+00 0.22327535E+04</pdfrwt>
<totfact> 0.55205171E+00</totfact>
</mgrwt>
</event>
<event>
12    1  0.1519630E-007  0.1408437E+04  0.7818608E-02  0.8947734E-01
          2   -1    0    0  501    0  0.00000000000E+00  0.00000000000E+00  0.15593805090E+04  0.15593805090E+04  0.00000000000E+00 0. -1.
         -2   -1    0    0    0  501 -0.00000000000E+00 -0.00000000000E+00 -0.31802611030E+03  0.31802611030E+03  0.00000000000E+00 0.  1.
         23    2    1    2    0    0 -0.39504630154E+03 -0.11377363586E+03  0.35705235835E+03  0.55212739094E+03  0.91390637659E+02 0.  0.
        254    2    1    2    0    0  0.39504630154E+03  0.11377363586E+03  0.88430204030E+03  0.13252792283E+04  0.89742348638E+03 0.  0.
        -24    2    4    4    0    0 -0.14766714853E+03  0.35076508427E+03  0.37365457796E+03  0.53936090388E+03  0.80316311639E+02 0.  0.
         24    2    4    4    0    0  0.54271345006E+03 -0.23699144841E+03  0.51064746235E+03  0.78591832442E+03  0.78765134184E+02 0.  0.
         11    1    3    3    0    0  0.47378373941E+00 -0.38962233578E+01 -0.38795810028E+01  0.55187114658E+01  0.00000000000E+00 0.  1.
        -11    1    3    3    0    0 -0.39552008528E+03 -0.10987741250E+03  0.36093193935E+03  0.54660867948E+03  0.00000000000E+00 0. -1.
          2    1    6    6  502    0  0.50986405043E+02 -0.19901392469E+02  0.20398246472E+02  0.58410336247E+02  0.00000000000E+00 0. -1.
          1    1    5    5  503    0 -0.29596132658E+02  0.36307975882E+02  0.18049722153E+02  0.50199528392E+02  0.00000000000E+00 0. -1.
         -2    1    5    5    0  503 -0.11807101587E+03  0.31445710838E+03  0.35560485580E+03  0.48916137549E+03  0.00000000000E+00 0.  1.
         -1    1    6    6    0  502  0.49172704502E+03 -0.21709005594E+03  0.49024921587E+03  0.72750798817E+03  0.00000000000E+00 0.  1.
<mgrwt>
<rscale>  0 0.14084370E+04</rscale>
<asrwt>0</asrwt>
<pdfrwt beam="1">  1        2 0.23990469E+00 0.14084370E+04</pdfrwt>
<pdfrwt beam="2">  1       -2 0.48927095E-01 0.14084370E+04</pdfrwt>
<totfact> 0.45207590E+01</totfact>
</mgrwt>
</event>
<event>
12    1  0.1519630E-007  0.2794582E+04  0.7818608E-02  0.8304952E-01
          2   -1    0    0  501    0  0.00000000000E+00  0.00000000000E+00  0.13491223384E+04  0.13491223384E+04  0.00000000000E+00 0.  1.
         -2   -1    0    0    0  501 -0.00000000000E+00 -0.00000000000E+00 -0.14471793079E+04  0.14471793079E+04  0.00000000000E+00 0. -1.
         23    2    1    2    0    0 -0.16250126787E+03 -0.35946325440E+03  0.11075352035E+04  0.11792017969E+04  0.90896411727E+02 0.  0.
        254    2    1    2    0    0  0.16250126787E+03  0.35946325440E+03 -0.12055921729E+04  0.16170998494E+04  0.10029650753E+04 0.  0.
        -24    2    4    4    0    0  0.33121876558E+03 -0.11732875414E+03 -0.10045687786E+04  0.10671509582E+04  0.78618251474E+02 0.  0.
         24    2    4    4    0    0 -0.16871749771E+03  0.47679200854E+03 -0.20102339429E+03  0.54994889119E+03  0.78975720452E+02 0.  0.
         13    1    3    3    0    0 -0.32397616445E+02 -0.80832995392E+02  0.14938308296E+03  0.17291293812E+03  0.00000000000E+00 0. -1.
        -13    1    3    3    0    0 -0.13010365142E+03 -0.27863025901E+03  0.95815212050E+03  0.10062888588E+04  0.00000000000E+00 0.  1.
          4    1    6    6  502    0 -0.10752900675E+02  0.13006467325E+03 -0.60453453615E+02  0.14382998351E+03  0.00000000000E+00 0. -1.
          1    1    5    5  503    0  0.98203610921E+02 -0.47329551061E+02 -0.21678449766E+03  0.24265109525E+03  0.00000000000E+00 0. -1.
         -2    1    5    5    0  503  0.23301515466E+03 -0.69999203083E+02 -0.78778428093E+03  0.82449986296E+03  0.00000000000E+00 0.  1.
         -3    1    6    6    0  502 -0.15796459704E+03  0.34672733529E+03 -0.14056994068E+03  0.40611890768E+03  0.00000000000E+00 0.  1.
<mgrwt>
<rscale>  0 0.27945819E+04</rscale>
<asrwt>0</asrwt>
<pdfrwt beam="1">  1        2 0.20755728E+00 0.27945819E+04</pdfrwt>
<pdfrwt beam="2">  1       -2 0.22264297E+00 0.27945819E+04</pdfrwt>
<totfact> 0.12816419E+00</totfact>
</mgrwt>
</event>
<event>
12    1  0.1519630E-007  0.1376327E+04  0.7818608E-02  0.8971135E-01
          2   -1    0    0  501    0  0.00000000000E+00  0.00000000000E+00  0.63604194809E+03  0.63604194809E+03  0.00000000000E+00 0. -1.
         -2   -1    0    0    0  501 -0.00000000000E+00 -0.00000000000E+00 -0.74455597910E+03  0.74455597910E+03  0.00000000000E+00 0.  1.
         23    2    1    2    0    0 -0.13216101634E+03  0.20689455151E+03 -0.33001859918E+03  0.42142668226E+03  0.91740302113E+02 0.  0.
        254    2    1    2    0    0  0.13216101634E+03 -0.20689455151E+03  0.22150456816E+03  0.95917124493E+03  0.90037398546E+03 0.  0.
        -24    2    4    4    0    0 -0.23897215715E+03  0.22315959272E+03  0.18685839060E+03  0.38489305253E+03  0.79490301526E+02 0.  0.
         24    2    4    4    0    0  0.37113317348E+03 -0.43005414423E+03  0.34646177560E+02  0.57427819240E+03  0.76867972617E+02 0.  0.
         13    1    3    3    0    0 -0.10779794412E+03  0.13624244222E+03 -0.16202472312E+03  0.23755927833E+03  0.00000000000E+00 0. -1.
        -13    1    3    3    0    0 -0.24363072220E+02  0.70652109293E+02 -0.16799387605E+03  0.18386740393E+03  0.00000000000E+00 0.  1.
          4    1    6    6  502    0  0.14966466432E+02 -0.45377065952E+00 -0.16082348989E+01  0.15059463628E+02  0.00000000000E+00 0. -1.
          3    1    5    5  503    0  0.57286529805E+01  0.10788101773E+02  0.98287605412E+01  0.15678173957E+02  0.00000000000E+00 0. -1.
         -4    1    5    5    0  503 -0.24470081013E+03  0.21237149094E+03  0.17702963006E+03  0.36921487858E+03  0.00000000000E+00 0.  1.
         -3    1    6    6    0  502  0.35616670705E+03 -0.42960037357E+03  0.36254412459E+02  0.55921872877E+03  0.00000000000E+00 0.  1.
<mgrwt>
<rscale>  0 0.13763268E+04</rscale>
<asrwt>0</asrwt>
<pdfrwt beam="1">  1        2 0.97852607E-01 0.13763268E+04</pdfrwt>
<pdfrwt beam="2">  1       -2 0.11454707E+00 0.13763268E+04</pdfrwt>
<totfact> 0.26806341E+01</totfact>
</mgrwt>
</event>
<event>
12    1  0.1863226E-007  0.2347184E+04  0.7818608E-02  0.8459546E-01
          2   -1    0    0  501    0  0.00000000000E+00  0.00000000000E+00  0.12653149608E+04  0.12653149608E+04  0.00000000000E+00 0. -1.
         -2   -1    0    0    0  501 -0.00000000000E+00 -0.00000000000E+00 -0.10885180232E+04  0.10885180232E+04  0.00000000000E+00 0.  1.
         23    2    1    2    0    0  0.60391859734E+03 -0.74492356258E+03 -0.23438857781E+02  0.96360306695E+03  0.91393130289E+02 0.  0.
        254    2    1    2    0    0 -0.60391859734E+03  0.74492356258E+03  0.20023579542E+03  0.13902299171E+04  0.98641576546E+03 0.  0.
        -24    2    4    4    0    0  0.21075776601E+03  0.29346709468E+03  0.26240888381E+03  0.45337775513E+03  0.78429554035E+02 0.  0.
         24    2    4    4    0    0 -0.81467636336E+03  0.45145646790E+03 -0.62173088381E+02  0.93685216198E+03  0.79473021036E+02 0.  0.
         13    1    3    3    0    0  0.21575174490E+03 -0.23097341649E+03 -0.44569359486E+02  0.31919267278E+03  0.00000000000E+00 0.  1.
        -13    1    3    3    0    0  0.38816685245E+03 -0.51395014609E+03  0.21130501705E+02  0.64441039417E+03  0.00000000000E+00 0. -1.
          2    1    6    6  502    0 -0.81358432313E+03  0.44887164842E+03 -0.66633945895E+02  0.93158214364E+03  0.00000000000E+00 0. -1.
          3    1    5    5  503    0  0.20761127050E+03  0.26973786632E+03  0.22190167176E+03  0.40632660274E+03  0.00000000000E+00 0. -1.
         -4    1    5    5    0  503  0.31464955070E+01  0.23729228368E+02  0.40507212048E+02  0.47051152385E+02  0.00000000000E+00 0.  1.
         -1    1    6    6    0  502 -0.10920402254E+01  0.25848194817E+01  0.44608575134E+01  0.52700183455E+01  0.00000000000E+00 0.  1.
<mgrwt>
<rscale>  0 0.23471840E+04</rscale>
<asrwt>0</asrwt>
<pdfrwt beam="1">  1        2 0.19466384E+00 0.23471840E+04</pdfrwt>
<pdfrwt beam="2">  1       -2 0.16746431E+00 0.23471840E+04</pdfrwt>
<totfact> 0.34770682E+00</totfact>
</mgrwt>
</event>
<event>
12    1  0.1519630E-007  0.1895834E+04  0.7818608E-02  0.8656933E-01
          2   -1    0    0  501    0  0.00000000000E+00  0.00000000000E+00  0.56702925906E+03  0.56702925906E+03  0.00000000000E+00 0.  1.
         -2   -1    0    0    0  501 -0.00000000000E+00 -0.00000000000E+00 -0.15846569172E+04  0.15846569172E+04  0.00000000000E+00 0. -1.
         23    2    1    2    0    0 -0.11443642815E+01 -0.71365660197E+03 -0.58345579356E+03  0.92647150895E+03  0.92853318537E+02 0.  0.
        254    2    1    2    0    0  0.11443642815E+01  0.71365660197E+03 -0.43417186460E+03  0.12252146673E+04  0.89629164781E+03 0.  0.
        -24    2    4    4    0    0  0.55081631307E+02  0.57778935767E+03 -0.69908348850E+03  0.91225362423E+03  0.81329103612E+02 0.  0.
         24    2    4    4    0    0 -0.53937267026E+02  0.13586724430E+03  0.26491162389E+03  0.31296104310E+03  0.79983180602E+02 0.  0.
         13    1    3    3    0    0 -0.10176254858E+02 -0.27696645092E+03 -0.17062084217E+03  0.32546189159E+03  0.00000000000E+00 0.  1.
        -13    1    3    3    0    0  0.90318905766E+01 -0.43669015105E+03 -0.41283495138E+03  0.60100961736E+03  0.00000000000E+00 0. -1.
          4    1    6    6  502    0 -0.22349720173E+02  0.74410284993E+02  0.64522595036E+02  0.10099289963E+03  0.00000000000E+00 0. -1.
          3    1    5    5  503    0 -0.11307781694E+02  0.26410790665E+02 -0.20045810830E+02  0.35031847257E+02  0.00000000000E+00 0. -1.
         -4    1    5    5    0  503  0.66389413002E+02  0.55137856700E+03 -0.67903767767E+03  0.87722177698E+03  0.00000000000E+00 0.  1.
         -3    1    6    6    0  502 -0.31587546852E+02  0.61456959304E+02  0.20038902886E+03  0.21196814348E+03  0.00000000000E+00 0.  1.
<mgrwt>
<rscale>  0 0.18958342E+04</rscale>
<asrwt>0</asrwt>
<pdfrwt beam="1">  1        2 0.87235272E-01 0.18958342E+04</pdfrwt>
<pdfrwt beam="2">  1       -2 0.24379337E+00 0.18958342E+04</pdfrwt>
<totfact> 0.34895412E+00</totfact>
</mgrwt>
</event>
<event>
12    1  0.1519630E-007  0.1140504E+04  0.7818608E-02  0.9166589E-01
          1   -1    0    0  501    0  0.00000000000E+00  0.00000000000E+00  0.83486745820E+03  0.83486745820E+03  0.00000000000E+00 0. -1.
         -1   -1    0    0    0  501 -0.00000000000E+00 -0.00000000000E+00 -0.38950745483E+03  0.38950745483E+03  0.00000000000E+00 0.  1.
         23    2    1    2    0    0 -0.88902415861E+02 -0.16630835016E+03 -0.22592617186E+02  0.21078942905E+03  0.91431122541E+02 0.  0.
        254    2    1    2    0    0  0.88902415861E+02  0.16630835016E+03  0.46795262056E+03  0.10135854840E+04  0.87909827175E+03 0.  0.
        -24    2    4    4    0    0  0.47280746643E+02  0.40890110580E+03  0.59339018391E+03  0.72601888679E+03  0.74538112983E+02 0.  0.
         24    2    4    4    0    0  0.41621669218E+02 -0.24259275564E+03 -0.12543756335E+03  0.28756659720E+03  0.79852095075E+02 0.  0.
         13    1    3    3    0    0 -0.43240771297E+02 -0.11073114953E+03 -0.56089878538E+02  0.13144286307E+03  0.00000000000E+00 0.  1.
        -13    1    3    3    0    0 -0.45661644564E+02 -0.55577200627E+02  0.33497261352E+02  0.79346565974E+02  0.00000000000E+00 0. -1.
          4    1    6    6  502    0 -0.18688042047E+02 -0.92009219820E+02 -0.26471588040E+02  0.97548369647E+02  0.00000000000E+00 0. -1.
          1    1    5    5  503    0  0.60369638514E+02  0.24862946351E+03  0.33236935858E+03  0.41944069176E+03  0.00000000000E+00 0. -1.
         -4    1    5    5    0  503 -0.13088891871E+02  0.16027164228E+03  0.26102082533E+03  0.30657819503E+03  0.00000000000E+00 0.  1.
         -3    1    6    6    0  502  0.60309711264E+02 -0.15058353582E+03 -0.98965975312E+02  0.19001822755E+03  0.00000000000E+00 0.  1.
<mgrwt>
<rscale>  0 0.11405036E+04</rscale>
<asrwt>0</asrwt>
<pdfrwt beam="1">  1        1 0.12844115E+00 0.11405036E+04</pdfrwt>
<pdfrwt beam="2">  1       -1 0.59924224E-01 0.11405036E+04</pdfrwt>
<totfact> 0.57891421E+01</totfact>
</mgrwt>
</event>
<event>
12    1  0.1519630E-007  0.1119459E+04  0.7818608E-02  0.9186431E-01
          1   -1    0    0  501    0  0.00000000000E+00  0.00000000000E+00  0.53099020795E+03  0.53099020795E+03  0.00000000000E+00 0. -1.
         -1   -1    0    0    0  501 -0.00000000000E+00 -0.00000000000E+00 -0.59002432002E+03  0.59002432002E+03  0.00000000000E+00 0.  1.
         23    2    1    2    0    0  0.91484401787E+02 -0.71497599886E+02  0.11732625094E+03  0.19049703727E+03  0.95091374411E+02 0.  0.
        254    2    1    2    0    0 -0.91484401787E+02  0.71497599886E+02 -0.17636036301E+03  0.93051749070E+03  0.90624418359E+03 0.  0.
        -24    2    4    4    0    0  0.38328364748E+02  0.44351773277E+03  0.70745217705E+02  0.45853604776E+03  0.84103379490E+02 0.  0.
         24    2    4    4    0    0 -0.12981276653E+03 -0.37202013289E+03 -0.24710558072E+03  0.47198144294E+03  0.80342895299E+02 0.  0.
         11    1    3    3    0    0  0.78405469108E+02 -0.48726610927E+02  0.26632393908E+02  0.96078013113E+02  0.00000000000E+00 0.  1.
        -11    1    3    3    0    0  0.13078932679E+02 -0.22770988959E+02  0.90693857036E+02  0.94419024154E+02  0.00000000000E+00 0. -1.
          2    1    6    6  502    0 -0.50281458605E+02 -0.62529211691E+02 -0.30016222005E+02  0.85668553026E+02  0.00000000000E+00 0. -1.
          1    1    5    5  503    0 -0.74220251945E+00  0.27868047850E+03  0.10977822983E+02  0.27889760228E+03  0.00000000000E+00 0. -1.
         -2    1    5    5    0  503  0.39070567267E+02  0.16483725428E+03  0.59767394722E+02  0.17963844548E+03  0.00000000000E+00 0.  1.
         -1    1    6    6    0  502 -0.79531307930E+02 -0.30949092120E+03 -0.21708935871E+03  0.38631288991E+03  0.00000000000E+00 0.  1.
<mgrwt>
<rscale>  0 0.11194590E+04</rscale>
<asrwt>0</asrwt>
<pdfrwt beam="1">  1        1 0.81690801E-01 0.11194590E+04</pdfrwt>
<pdfrwt beam="2">  1       -1 0.90772972E-01 0.11194590E+04</pdfrwt>
<totfact> 0.48111388E+01</totfact>
</mgrwt>
</event>
<event>
12    1  0.1519630E-007  0.1659399E+04  0.7818608E-02  0.8784865E-01
         -1   -1    0    0    0  501 -0.00000000000E+00  0.00000000000E+00  0.73811841975E+03  0.73811841975E+03  0.00000000000E+00 0.  1.
          1   -1    0    0  501    0  0.00000000000E+00 -0.00000000000E+00 -0.93264356684E+03  0.93264356684E+03  0.00000000000E+00 0. -1.
         23    2    1    2    0    0  0.64323532879E+02 -0.56597030524E+03 -0.15110072865E+03  0.59624853162E+03  0.90669608823E+02 0.  0.
        254    2    1    2    0    0 -0.64323532879E+02  0.56597030524E+03 -0.43424418443E+02  0.10745134550E+04  0.91007339347E+03 0.  0.
        -24    2    4    4    0    0  0.25419966096E+03  0.41999270446E+03 -0.34532529504E+03  0.60495760416E+03  0.75583093360E+02 0.  0.
         24    2    4    4    0    0 -0.31852319384E+03  0.14597760078E+03  0.30190087659E+03  0.46955585081E+03  0.81068321809E+02 0.  0.
         11    1    3    3    0    0  0.63538426092E+02 -0.42938338684E+03 -0.15125942971E+03  0.45965926463E+03  0.00000000000E+00 0. -1.
        -11    1    3    3    0    0  0.78510678755E+00 -0.13658691840E+03  0.15870105921E+00  0.13658926699E+03  0.00000000000E+00 0.  1.
          2    1    6    6  502    0 -0.26547192223E+03  0.14785525426E+03  0.27594374114E+03  0.41046493880E+03  0.00000000000E+00 0. -1.
          1    1    5    5  503    0  0.22285063724E+03  0.30645707934E+03 -0.26521281477E+03  0.46251074054E+03  0.00000000000E+00 0. -1.
         -2    1    5    5    0  503  0.31349023720E+02  0.11353562512E+03 -0.80112480267E+02  0.14244686362E+03  0.00000000000E+00 0.  1.
         -1    1    6    6    0  502 -0.53051271610E+02 -0.18776534847E+01  0.25957135453E+02  0.59090912017E+02  0.00000000000E+00 0.  1.
<mgrwt>
<rscale>  0 0.16593992E+04</rscale>
<asrwt>0</asrwt>
<pdfrwt beam="1">  1        1 0.14348363E+00 0.16593992E+04</pdfrwt>
<pdfrwt beam="2">  1       -1 0.11355668E+00 0.16593992E+04</pdfrwt>
<totfact> 0.11565625E+01</totfact>
</mgrwt>
</event>
<event>
12    1  0.1519630E-007  0.1565115E+04  0.7818608E-02  0.8842270E-01
          4   -1    0    0  501    0  0.00000000000E+00  0.00000000000E+00  0.23452886561E+04  0.23452886561E+04  0.00000000000E+00 0. -1.
         -4   -1    0    0    0  501 -0.00000000000E+00 -0.00000000000E+00 -0.26111772744E+03  0.26111772744E+03  0.00000000000E+00 0.  1.
         23    2    1    2    0    0 -0.21752561216E+03 -0.27544793192E+03  0.13366341819E+04  0.13851840752E+04  0.94631024710E+02 0.  0.
        254    2    1    2    0    0  0.21752561216E+03  0.27544793192E+03  0.74753674671E+03  0.12212223083E+04  0.89965759232E+03 0.  0.
        -24    2    4    4    0    0  0.11653846040E+02 -0.88711242050E+02  0.78454932205E+03  0.79377868901E+03  0.81002912341E+02 0.  0.
         24    2    4    4    0    0  0.20587176612E+03  0.36415917397E+03 -0.37012575344E+02  0.42744361927E+03  0.79643134335E+02 0.  0.
         11    1    3    3    0    0 -0.18569813658E+03 -0.16804653093E+03  0.97075538090E+03  0.10025414924E+04  0.00000000000E+00 0. -1.
        -11    1    3    3    0    0 -0.31827475577E+02 -0.10740140099E+03  0.36587880102E+03  0.38264258280E+03  0.00000000000E+00 0.  1.
          2    1    6    6  502    0  0.28293551971E+02  0.10867966697E+02 -0.37475952536E-01  0.30309061149E+02  0.00000000000E+00 0. -1.
          1    1    5    5  503    0 -0.34646047378E+02 -0.41537628176E+02  0.31731524505E+03  0.32189235451E+03  0.00000000000E+00 0. -1.
         -2    1    5    5    0  503  0.46299893418E+02 -0.47173613874E+02  0.46723407700E+03  0.47188633450E+03  0.00000000000E+00 0.  1.
         -1    1    6    6    0  502  0.17757821415E+03  0.35329120728E+03 -0.36975099391E+02  0.39713455812E+03  0.00000000000E+00 0.  1.
<mgrwt>
<rscale>  0 0.15651153E+04</rscale>
<asrwt>0</asrwt>
<pdfrwt beam="1">  1        4 0.36081363E+00 0.15651153E+04</pdfrwt>
<pdfrwt beam="2">  1       -4 0.40171960E-01 0.15651153E+04</pdfrwt>
<totfact> 0.14796435E-01</totfact>
</mgrwt>
</event>
<event>
12    1  0.1519630E-007  0.2704687E+04  0.7818608E-02  0.8333486E-01
         -1   -1    0    0    0  501 -0.00000000000E+00  0.00000000000E+00  0.14317721370E+04  0.14317721370E+04  0.00000000000E+00 0.  1.
          1   -1    0    0  501    0  0.00000000000E+00 -0.00000000000E+00 -0.12773214384E+04  0.12773214384E+04  0.00000000000E+00 0. -1.
         23    2    1    2    0    0 -0.30317985097E+03 -0.11537048345E+04 -0.27039103332E+02  0.11969024564E+04  0.94294802964E+02 0.  0.
        254    2    1    2    0    0  0.30317985097E+03  0.11537048345E+04  0.18148980188E+03  0.15121911190E+04  0.91149907563E+03 0.  0.
        -24    2    4    4    0    0  0.35710588874E+02  0.11987375285E+04  0.23767632224E+03  0.12253901674E+04  0.82729195908E+02 0.  0.
         24    2    4    4    0    0  0.26746926210E+03 -0.45032693929E+02 -0.56186520359E+02  0.28680095160E+03  0.74364716630E+02 0.  0.
         13    1    3    3    0    0 -0.91265394503E+02 -0.38394398534E+03 -0.52375648455E+02  0.39810245498E+03  0.00000000000E+00 0.  1.
        -13    1    3    3    0    0 -0.21191445647E+03 -0.76976084918E+03  0.25336545122E+02  0.79880000145E+03  0.00000000000E+00 0. -1.
          2    1    6    6  502    0  0.45910796614E+02 -0.32120430161E+02  0.59120048549E+01  0.56342480251E+02  0.00000000000E+00 0. -1.
          1    1    5    5  503    0  0.16334507472E+02  0.76440921612E+03  0.11135530961E+03  0.77265016068E+03  0.00000000000E+00 0. -1.
         -2    1    5    5    0  503  0.19376081402E+02  0.43432831234E+03  0.12632101263E+03  0.45274000669E+03  0.00000000000E+00 0.  1.
         -1    1    6    6    0  502  0.22155846548E+03 -0.12912263768E+02 -0.62098525214E+02  0.23045847135E+03  0.00000000000E+00 0.  1.
<mgrwt>
<rscale>  0 0.27046872E+04</rscale>
<asrwt>0</asrwt>
<pdfrwt beam="1">  1        1 0.19651099E+00 0.27046872E+04</pdfrwt>
<pdfrwt beam="2">  1       -1 0.22027264E+00 0.27046872E+04</pdfrwt>
<totfact> 0.89824436E-01</totfact>
</mgrwt>
</event>
<event>
12    1  0.1519630E-007  0.1742780E+04  0.7818608E-02  0.8737334E-01
          1   -1    0    0  501    0  0.00000000000E+00  0.00000000000E+00  0.71195595546E+03  0.71195595546E+03  0.00000000000E+00 0. -1.
         -1   -1    0    0    0  501 -0.00000000000E+00 -0.00000000000E+00 -0.10665278808E+04  0.10665278808E+04  0.00000000000E+00 0.  1.
         23    2    1    2    0    0 -0.35836367762E+03 -0.52238842274E+03 -0.78684605870E+02  0.64503892797E+03  0.92573007641E+02 0.  0.
        254    2    1    2    0    0  0.35836367762E+03  0.52238842274E+03 -0.27588731948E+03  0.11334449083E+04  0.89848169567E+03 0.  0.
        -24    2    4    4    0    0  0.14603278204E+03  0.93379976184E+02  0.31499801471E+03  0.36829797995E+03  0.79838959022E+02 0.  0.
         24    2    4    4    0    0  0.21233089558E+03  0.42900844656E+03 -0.59088533419E+03  0.76514692835E+03  0.84685815661E+02 0.  0.
         13    1    3    3    0    0 -0.94813702981E+02 -0.12351206133E+03 -0.59135521665E+02  0.16655893098E+03  0.00000000000E+00 0.  1.
        -13    1    3    3    0    0 -0.26354997464E+03 -0.39887636141E+03 -0.19549084204E+02  0.47847999699E+03  0.00000000000E+00 0. -1.
          2    1    6    6  502    0  0.14785278187E+03  0.28551645665E+03 -0.33170904714E+03  0.46196426711E+03  0.00000000000E+00 0. -1.
          1    1    5    5  503    0  0.20853147363E+02  0.50550014201E+00  0.51999017917E+01  0.21497633916E+02  0.00000000000E+00 0. -1.
         -2    1    5    5    0  503  0.12517963468E+03  0.92874476042E+02  0.30979811292E+03  0.34680034603E+03  0.00000000000E+00 0.  1.
         -1    1    6    6    0  502  0.64478113705E+02  0.14349198991E+03 -0.25917628704E+03  0.30318266125E+03  0.00000000000E+00 0.  1.
<mgrwt>
<rscale>  0 0.17427804E+04</rscale>
<asrwt>0</asrwt>
<pdfrwt beam="1">  1        1 0.10953169E+00 0.17427804E+04</pdfrwt>
<pdfrwt beam="2">  1       -1 0.16408121E+00 0.17427804E+04</pdfrwt>
<totfact> 0.68534437E+00</totfact>
</mgrwt>
</event>
<event>
12    1  0.1519630E-007  0.1209305E+04  0.7818608E-02  0.9104751E-01
          1   -1    0    0  501    0  0.00000000000E+00  0.00000000000E+00  0.51757194114E+03  0.51757194114E+03  0.00000000000E+00 0. -1.
         -1   -1    0    0    0  501 -0.00000000000E+00 -0.00000000000E+00 -0.70638428215E+03  0.70638428215E+03  0.00000000000E+00 0.  1.
         23    2    1    2    0    0  0.54862832047E+02 -0.25284645296E+03 -0.76010613545E+02  0.28509799399E+03  0.92531041742E+02 0.  0.
        254    2    1    2    0    0 -0.54862832047E+02  0.25284645296E+03 -0.11280172746E+03  0.93885822930E+03  0.89542687356E+03 0.  0.
        -24    2    4    4    0    0 -0.25684140255E+03  0.10506473450E+02 -0.41505524580E+03  0.49469847394E+03  0.79861323594E+02 0.  0.
         24    2    4    4    0    0  0.20197857050E+03  0.24233997952E+03  0.30225351835E+03  0.44415975536E+03  0.79979311800E+02 0.  0.
         11    1    3    3    0    0 -0.10945546103E+02 -0.13529605017E+02  0.12675043763E+02  0.21529327110E+02  0.00000000000E+00 0. -1.
        -11    1    3    3    0    0  0.65808378151E+02 -0.23931684795E+03 -0.88685657308E+02  0.26356866688E+03  0.00000000000E+00 0.  1.
          2    1    6    6  502    0 -0.37931544724E+01  0.54041681323E+01 -0.21678956446E+01  0.69493039637E+01  0.00000000000E+00 0. -1.
          1    1    5    5  503    0 -0.83637493746E+02 -0.34047575385E+02 -0.14283909151E+03  0.16898956717E+03  0.00000000000E+00 0. -1.
         -2    1    5    5    0  503 -0.17320390880E+03  0.44554048835E+02 -0.27221615429E+03  0.32570890677E+03  0.00000000000E+00 0.  1.
         -1    1    6    6    0  502  0.20577172497E+03  0.23693581138E+03  0.30442141399E+03  0.43721045140E+03  0.00000000000E+00 0.  1.
<mgrwt>
<rscale>  0 0.12093051E+04</rscale>
<asrwt>0</asrwt>
<pdfrwt beam="1">  1        1 0.79626453E-01 0.12093051E+04</pdfrwt>
<pdfrwt beam="2">  1       -1 0.10867450E+00 0.12093051E+04</pdfrwt>
<totfact> 0.32832726E+01</totfact>
</mgrwt>
</event>
<event>
12    1  0.1519630E-007  0.1806293E+04  0.7818608E-02  0.8702960E-01
         -2   -1    0    0    0  501 -0.00000000000E+00  0.00000000000E+00  0.69612004497E+03  0.69612004497E+03  0.00000000000E+00 0.  1.
          2   -1    0    0  501    0  0.00000000000E+00 -0.00000000000E+00 -0.11717426488E+04  0.11717426488E+04  0.00000000000E+00 0. -1.
         23    2    1    2    0    0  0.38325334235E+03 -0.52584728367E+03  0.12201541086E+01  0.65727919138E+03  0.92822176641E+02 0.  0.
        254    2    1    2    0    0 -0.38325334235E+03  0.52584728367E+03 -0.47684275792E+03  0.12105835024E+04  0.90262667272E+03 0.  0.
        -24    2    4    4    0    0 -0.51168409591E+03  0.61915066195E+03 -0.12520951571E+03  0.81683179884E+03  0.79803562387E+02 0.  0.
         24    2    4    4    0    0  0.12843075356E+03 -0.93303378279E+02 -0.35163324222E+03  0.39375170355E+03  0.78705070735E+02 0.  0.
         11    1    3    3    0    0  0.96895981762E+02 -0.11029268059E+03  0.36830993156E+02  0.15135993106E+03  0.00000000000E+00 0. -1.
        -11    1    3    3    0    0  0.28635736058E+03 -0.41555460308E+03 -0.35610839047E+02  0.50591926031E+03  0.00000000000E+00 0.  1.
          4    1    6    6  502    0  0.98451477120E+02 -0.10579128353E+03 -0.29400263029E+03  0.32760042069E+03  0.00000000000E+00 0. -1.
          1    1    5    5  503    0 -0.40721597576E+03  0.49261782650E+03 -0.13191448144E+03  0.65260907465E+03  0.00000000000E+00 0. -1.
         -2    1    5    5    0  503 -0.10446812015E+03  0.12653283545E+03  0.67049657360E+01  0.16422272419E+03  0.00000000000E+00 0.  1.
         -3    1    6    6    0  502  0.29979276443E+02  0.12487905248E+02 -0.57630611923E+02  0.66151282861E+02  0.00000000000E+00 0.  1.
<mgrwt>
<rscale>  0 0.18062929E+04</rscale>
<asrwt>0</asrwt>
<pdfrwt beam="1">  1        2 0.18026810E+00 0.18062929E+04</pdfrwt>
<pdfrwt beam="2">  1       -2 0.10709539E+00 0.18062929E+04</pdfrwt>
<totfact> 0.13029337E+01</totfact>
</mgrwt>
</event>
<event>
12    1  0.1519630E-007  0.1318356E+04  0.7818608E-02  0.9015134E-01
         -1   -1    0    0    0  501 -0.00000000000E+00  0.00000000000E+00  0.47078421290E+03  0.47078421290E+03  0.00000000000E+00 0.  1.
          1   -1    0    0  501    0  0.00000000000E+00 -0.00000000000E+00 -0.92296144560E+03  0.92296144560E+03  0.00000000000E+00 0. -1.
         23    2    1    2    0    0  0.18312388124E+03  0.23114500168E+03 -0.30003509465E+03  0.43072080815E+03  0.92395827143E+02 0.  0.
        254    2    1    2    0    0 -0.18312388124E+03 -0.23114500168E+03 -0.15214213806E+03  0.96302485035E+03  0.90405047676E+03 0.  0.
        -24    2    4    4    0    0  0.25981436475E+03  0.96490987627E+02  0.15461538355E+03  0.32730277206E+03  0.80044818334E+02 0.  0.
         24    2    4    4    0    0 -0.44293824599E+03 -0.32763598930E+03 -0.30675752161E+03  0.63572207829E+03  0.80639646035E+02 0.  0.
         11    1    3    3    0    0  0.16677437983E+03  0.21710854621E+03 -0.30368054440E+03  0.40886634449E+03  0.00000000000E+00 0. -1.
        -11    1    3    3    0    0  0.16349501406E+02  0.14036455466E+02  0.36454497494E+01  0.21854463666E+02  0.00000000000E+00 0.  1.
          4    1    6    6  502    0 -0.24614536521E+03 -0.13820765723E+03 -0.17819617743E+03  0.33383045844E+03  0.00000000000E+00 0. -1.
          1    1    5    5  503    0  0.18049653354E+03  0.10481588201E+03  0.11265242269E+03  0.23718333854E+03  0.00000000000E+00 0. -1.
         -2    1    5    5    0  503  0.79317831207E+02 -0.83248943790E+01  0.41962960862E+02  0.90119433521E+02  0.00000000000E+00 0.  1.
         -3    1    6    6    0  502 -0.19679288078E+03 -0.18942833208E+03 -0.12856134418E+03  0.30189161985E+03  0.00000000000E+00 0.  1.
<mgrwt>
<rscale>  0 0.13183561E+04</rscale>
<asrwt>0</asrwt>
<pdfrwt beam="1">  1        1 0.14199407E+00 0.13183561E+04</pdfrwt>
<pdfrwt beam="2">  1       -1 0.72428341E-01 0.13183561E+04</pdfrwt>
<totfact> 0.32888245E+01</totfact>
</mgrwt>
</event>
<event>
12    1  0.1519630E-007  0.1408722E+04  0.7818608E-02  0.8947529E-01
          2   -1    0    0  501    0  0.00000000000E+00  0.00000000000E+00  0.98042737745E+03  0.98042737745E+03  0.00000000000E+00 0. -1.
         -2   -1    0    0    0  501 -0.00000000000E+00 -0.00000000000E+00 -0.50602844443E+03  0.50602844443E+03  0.00000000000E+00 0.  1.
         23    2    1    2    0    0 -0.24965621157E+03  0.79355118514E+02 -0.19517152700E+03  0.33998102834E+03  0.94179168961E+02 0.  0.
        254    2    1    2    0    0  0.24965621157E+03 -0.79355118514E+02  0.66957046002E+03  0.11464747935E+04  0.89300301931E+03 0.  0.
        -24    2    4    4    0    0 -0.84331176783E+02  0.29805105738E+03  0.52859736788E+03  0.61716234180E+03  0.74350511929E+02 0.  0.
         24    2    4    4    0    0  0.33398738836E+03 -0.37740617589E+03  0.14097309214E+03  0.52931245175E+03  0.79468620774E+02 0.  0.
         13    1    3    3    0    0 -0.32087877154E+02 -0.20302683647E+02 -0.16854216180E+02  0.41543897585E+02  0.00000000000E+00 0. -1.
        -13    1    3    3    0    0 -0.21756833442E+03  0.99657802161E+02 -0.17831731082E+03  0.29843713075E+03  0.00000000000E+00 0.  1.
          2    1    6    6  502    0  0.25426637113E+03 -0.30240353882E+03  0.76986622202E+02  0.40252481635E+03  0.00000000000E+00 0. -1.
          1    1    5    5  503    0 -0.94238093744E+02  0.29195156369E+03  0.51242146220E+03  0.59723721316E+03  0.00000000000E+00 0. -1.
         -4    1    5    5    0  503  0.99069169607E+01  0.60994936846E+01  0.16175905675E+02  0.19925128639E+02  0.00000000000E+00 0.  1.
         -1    1    6    6    0  502  0.79721017229E+02 -0.75002637067E+02  0.63986469938E+02  0.12678763540E+03  0.00000000000E+00 0.  1.
<mgrwt>
<rscale>  0 0.14087216E+04</rscale>
<asrwt>0</asrwt>
<pdfrwt beam="1">  1        2 0.15083498E+00 0.14087216E+04</pdfrwt>
<pdfrwt beam="2">  1       -2 0.77850530E-01 0.14087216E+04</pdfrwt>
<totfact> 0.37076665E+01</totfact>
</mgrwt>
</event>
<event>
12    1  0.1519630E-007  0.3469501E+04  0.7818608E-02  0.8121056E-01
         -1   -1    0    0    0  501 -0.00000000000E+00  0.00000000000E+00  0.11347221467E+04  0.11347221467E+04  0.00000000000E+00 0.  1.
          1   -1    0    0  501    0  0.00000000000E+00 -0.00000000000E+00 -0.26520665424E+04  0.26520665424E+04  0.00000000000E+00 0. -1.
         23    2    1    2    0    0 -0.11334288842E+04  0.10736131989E+04 -0.12350025626E+04  0.19927099671E+04  0.91407586590E+02 0.  0.
        254    2    1    2    0    0  0.11334288842E+04 -0.10736131989E+04 -0.28234183316E+03  0.17940787220E+04  0.83767249789E+03 0.  0.
        -24    2    4    4    0    0  0.10533932439E+04 -0.10118482586E+04 -0.49615350505E+03  0.15447797009E+04  0.81864515117E+02 0.  0.
         24    2    4    4    0    0  0.80035640315E+02 -0.61764940279E+02  0.21381167188E+03  0.24929902119E+03  0.78828670967E+02 0.  0.
         13    1    3    3    0    0 -0.10548746132E+04  0.96722538952E+03 -0.11172219642E+04  0.18156184404E+04  0.00000000000E+00 0. -1.
        -13    1    3    3    0    0 -0.78554271027E+02  0.10638780935E+03 -0.11778059838E+03  0.17709152670E+03  0.00000000000E+00 0.  1.
          4    1    6    6  502    0  0.42533911101E+02  0.12625443849E+02  0.63871879240E+02  0.77769868095E+02  0.00000000000E+00 0. -1.
          3    1    5    5  503    0  0.36650938873E+02 -0.58920888764E+02 -0.20928955828E+02  0.72477469913E+02  0.00000000000E+00 0. -1.
         -4    1    5    5    0  503  0.10167423051E+04 -0.95292736983E+03 -0.47522454922E+03  0.14723022309E+04  0.00000000000E+00 0.  1.
         -3    1    6    6    0  502  0.37501729214E+02 -0.74390384128E+02  0.14993979264E+03  0.17152915310E+03  0.00000000000E+00 0.  1.
<mgrwt>
<rscale>  0 0.34695006E+04</rscale>
<asrwt>0</asrwt>
<pdfrwt beam="1">  1        1 0.40801024E+00 0.34695006E+04</pdfrwt>
<pdfrwt beam="2">  1       -1 0.17457264E+00 0.34695006E+04</pdfrwt>
<totfact> 0.19759313E-01</totfact>
</mgrwt>
</event>
<event>
12    1  0.1519630E-007  0.1302012E+04  0.7818608E-02  0.9027971E-01
         -1   -1    0    0    0  501 -0.00000000000E+00  0.00000000000E+00  0.59803347415E+03  0.59803347415E+03  0.00000000000E+00 0.  1.
          1   -1    0    0  501    0  0.00000000000E+00 -0.00000000000E+00 -0.70867028881E+03  0.70867028881E+03  0.00000000000E+00 0. -1.
         23    2    1    2    0    0 -0.26428269488E+03  0.17128442510E+03 -0.12621360478E+03  0.35086241799E+03  0.89391639638E+02 0.  0.
        254    2    1    2    0    0  0.26428269488E+03 -0.17128442510E+03  0.15576790111E+02  0.95584134496E+03  0.90233383138E+03 0.  0.
        -24    2    4    4    0    0  0.49269788738E+03 -0.36347734555E+03 -0.10117987862E+03  0.62557530228E+03  0.78994316479E+02 0.  0.
         24    2    4    4    0    0 -0.22841519250E+03  0.19219292045E+03  0.11675666873E+03  0.33026604268E+03  0.79573365001E+02 0.  0.
         13    1    3    3    0    0 -0.56395600064E+01 -0.63938609529E+01  0.59254128324E+01  0.10382514733E+02  0.00000000000E+00 0.  1.
        -13    1    3    3    0    0 -0.25864313487E+03  0.17767828605E+03 -0.13213901761E+03  0.34047990326E+03  0.00000000000E+00 0. -1.
          2    1    6    6  502    0 -0.95043784134E+02  0.12358936412E+03  0.82626002894E+02  0.17645029947E+03  0.00000000000E+00 0. -1.
          3    1    5    5  503    0  0.15480391523E+03 -0.70482507050E+02 -0.29505472042E+02  0.17263432118E+03  0.00000000000E+00 0. -1.
         -4    1    5    5    0  503  0.33789397215E+03 -0.29299483850E+03 -0.71674406582E+02  0.45294098110E+03  0.00000000000E+00 0.  1.
         -1    1    6    6    0  502 -0.13337140837E+03  0.68603556327E+02  0.34130665841E+02  0.15381574322E+03  0.00000000000E+00 0.  1.
<mgrwt>
<rscale>  0 0.13020116E+04</rscale>
<asrwt>0</asrwt>
<pdfrwt beam="1">  1        1 0.10902620E+00 0.13020116E+04</pdfrwt>
<pdfrwt beam="2">  1       -1 0.92005150E-01 0.13020116E+04</pdfrwt>
<totfact> 0.30229086E+01</totfact>
</mgrwt>
</event>
<event>
12    1  0.1519630E-007  0.1197113E+04  0.7818608E-02  0.9115387E-01
          2   -1    0    0  501    0  0.00000000000E+00  0.00000000000E+00  0.13488233983E+04  0.13488233983E+04  0.00000000000E+00 0. -1.
         -2   -1    0    0    0  501 -0.00000000000E+00 -0.00000000000E+00 -0.26561682073E+03  0.26561682073E+03  0.00000000000E+00 0.  1.
         23    2    1    2    0    0 -0.19956381113E+03  0.13920990660E+03  0.27222153810E+03  0.37705369556E+03  0.94126567569E+02 0.  0.
        254    2    1    2    0    0  0.19956381113E+03 -0.13920990660E+03  0.81098503946E+03  0.12373865235E+04  0.90234337222E+03 0.  0.
        -24    2    4    4    0    0  0.36768488549E+03 -0.31540423694E+03  0.84623389959E+03  0.97831904308E+03  0.79525653319E+02 0.  0.
         24    2    4    4    0    0 -0.16812107436E+03  0.17619433034E+03 -0.35248860127E+02  0.25906748038E+03  0.81020611952E+02 0.  0.
         13    1    3    3    0    0 -0.14733766744E+03  0.48544089920E+02  0.14513113365E+03  0.21243343162E+03  0.00000000000E+00 0.  1.
        -13    1    3    3    0    0 -0.52226143694E+02  0.90665816679E+02  0.12709040445E+03  0.16462026394E+03  0.00000000000E+00 0. -1.
          4    1    6    6  502    0 -0.14258993733E+03  0.11088933448E+03 -0.49976208430E+02  0.18741919896E+03  0.00000000000E+00 0. -1.
          1    1    5    5  503    0  0.14411821227E+03 -0.13296452702E+03  0.42096138659E+03  0.46439004463E+03  0.00000000000E+00 0. -1.
         -4    1    5    5    0  503  0.22356667322E+03 -0.18243970992E+03  0.42527251300E+03  0.51392899845E+03  0.00000000000E+00 0.  1.
         -3    1    6    6    0  502 -0.25531137028E+02  0.65304995858E+02  0.14727348303E+02  0.71648281417E+02  0.00000000000E+00 0.  1.
<mgrwt>
<rscale>  0 0.11971135E+04</rscale>
<asrwt>0</asrwt>
<pdfrwt beam="1">  1        2 0.20751129E+00 0.11971135E+04</pdfrwt>
<pdfrwt beam="2">  1       -2 0.40864127E-01 0.11971135E+04</pdfrwt>
<totfact> 0.86623113E+01</totfact>
</mgrwt>
</event>
<event>
12    1  0.1519630E-007  0.1235564E+04  0.7818608E-02  0.9082284E-01
         -2   -1    0    0    0  501 -0.00000000000E+00  0.00000000000E+00  0.18647541222E+03  0.18647541222E+03  0.00000000000E+00 0.  1.
          2   -1    0    0  501    0  0.00000000000E+00 -0.00000000000E+00 -0.20466756026E+04  0.20466756026E+04  0.00000000000E+00 0. -1.
         23    2    1    2    0    0 -0.63991427021E+01 -0.25250931325E+03 -0.22315475659E+03  0.34833301557E+03  0.87954204216E+02 0.  0.
        254    2    1    2    0    0  0.63991427021E+01  0.25250931325E+03 -0.16370454338E+04  0.18848179992E+04  0.89934378059E+03 0.  0.
        -24    2    4    4    0    0  0.94260837586E+02  0.30345482362E+03 -0.17062794841E+04  0.17375152453E+04  0.81238010034E+02 0.  0.
         24    2    4    4    0    0 -0.87861694884E+02 -0.50945510366E+02  0.69234050345E+02  0.14730275392E+03  0.81176506031E+02 0.  0.
         11    1    3    3    0    0 -0.11734365383E+02 -0.24467319768E+03 -0.17955561127E+03  0.30371514044E+03  0.00000000000E+00 0.  1.
        -11    1    3    3    0    0  0.53352226814E+01 -0.78361155719E+01 -0.43599145319E+02  0.44617875127E+02  0.00000000000E+00 0. -1.
          2    1    6    6  502    0  0.13650623563E+02 -0.70290037597E+01 -0.23806850650E+01  0.15537505556E+02  0.00000000000E+00 0. -1.
          1    1    5    5  503    0  0.68282712137E+02  0.27927081154E+03 -0.14020849614E+04  0.14312571236E+04  0.00000000000E+00 0. -1.
         -2    1    5    5    0  503  0.25978125449E+02  0.24184012079E+02 -0.30419452277E+03  0.30625812173E+03  0.00000000000E+00 0.  1.
         -1    1    6    6    0  502 -0.10151231845E+03 -0.43916506607E+02  0.71614735410E+02  0.13176524837E+03  0.00000000000E+00 0.  1.
<mgrwt>
<rscale>  0 0.12355641E+04</rscale>
<asrwt>0</asrwt>
<pdfrwt beam="1">  1        2 0.31487317E+00 0.12355641E+04</pdfrwt>
<pdfrwt beam="2">  1       -2 0.28688525E-01 0.12355641E+04</pdfrwt>
<totfact> 0.69140094E+01</totfact>
</mgrwt>
</event>
<event>
12    1  0.1519630E-007  0.1011714E+04  0.7818608E-02  0.9295789E-01
         -2   -1    0    0    0  501 -0.00000000000E+00  0.00000000000E+00  0.97996058018E+02  0.97996058018E+02  0.00000000000E+00 0.  1.
          2   -1    0    0  501    0  0.00000000000E+00 -0.00000000000E+00 -0.26112425728E+04  0.26112425728E+04  0.00000000000E+00 0. -1.
         23    2    1    2    0    0  0.46296572674E+01 -0.74703453010E+02 -0.21804123174E+03  0.24828611654E+03  0.92206167436E+02 0.  0.
        254    2    1    2    0    0 -0.46296572674E+01  0.74703453010E+02 -0.22952052830E+04  0.24609525143E+04  0.88471348276E+03 0.  0.
        -24    2    4    4    0    0  0.19176541866E+03  0.36038158282E+03 -0.60824259580E+03  0.73696709629E+03  0.80700586353E+02 0.  0.
         24    2    4    4    0    0 -0.19639507593E+03 -0.28567812981E+03 -0.16869626872E+04  0.17239854180E+04  0.78099894819E+02 0.  0.
         11    1    3    3    0    0  0.76575092758E+01  0.18687976252E+02 -0.73078157059E+02  0.75817510800E+02  0.00000000000E+00 0. -1.
        -11    1    3    3    0    0 -0.30278520084E+01 -0.93391429262E+02 -0.14496307468E+03  0.17246860574E+03  0.00000000000E+00 0.  1.
          4    1    6    6  502    0 -0.82097109399E+02 -0.92783022890E+02 -0.44394248716E+03  0.46090514926E+03  0.00000000000E+00 0. -1.
          1    1    5    5  503    0  0.14529367064E+02  0.10005581288E+03 -0.14132448114E+03  0.17376673205E+03  0.00000000000E+00 0. -1.
         -2    1    5    5    0  503  0.17723605160E+03  0.26032576994E+03 -0.46691811466E+03  0.56320036424E+03  0.00000000000E+00 0.  1.
         -3    1    6    6    0  502 -0.11429796653E+03 -0.19289510692E+03 -0.12430202001E+04  0.12630802687E+04  0.00000000000E+00 0.  1.
<mgrwt>
<rscale>  0 0.10117143E+04</rscale>
<asrwt>0</asrwt>
<pdfrwt beam="1">  1        2 0.40172970E+00 0.10117143E+04</pdfrwt>
<pdfrwt beam="2">  1       -2 0.15076314E-01 0.10117143E+04</pdfrwt>
<totfact> 0.10560504E+02</totfact>
</mgrwt>
</event>
<event>
12    1  0.1519630E-007  0.1308748E+04  0.7818608E-02  0.9022657E-01
          2   -1    0    0  501    0  0.00000000000E+00  0.00000000000E+00  0.12753741266E+04  0.12753741266E+04  0.00000000000E+00 0. -1.
         -2   -1    0    0    0  501 -0.00000000000E+00 -0.00000000000E+00 -0.33574873072E+03  0.33574873072E+03  0.00000000000E+00 0.  1.
         23    2    1    2    0    0 -0.46509652623E+02  0.12029690084E+03  0.63539303286E+03  0.65454914997E+03  0.89865407054E+02 0.  0.
        254    2    1    2    0    0  0.46509652623E+02 -0.12029690084E+03  0.30423236298E+03  0.95657370731E+03  0.89768671299E+03 0.  0.
        -24    2    4    4    0    0  0.42272533128E+03  0.10138842768E+02  0.34173129680E+03  0.54868508541E+03  0.73996904688E+02 0.  0.
         24    2    4    4    0    0 -0.37621567866E+03 -0.13043574361E+03 -0.37498933820E+02  0.40788862189E+03  0.80095179350E+02 0.  0.
         11    1    3    3    0    0  0.15049527068E+02  0.16136179506E+01  0.15997080214E+03  0.16068524999E+03  0.00000000000E+00 0.  1.
        -11    1    3    3    0    0 -0.61559179691E+02  0.11868328289E+03  0.47542223072E+03  0.49386389998E+03  0.00000000000E+00 0. -1.
          2    1    6    6  502    0 -0.36406436068E+03 -0.10651791405E+03 -0.35606279021E+02  0.38099439870E+03  0.00000000000E+00 0. -1.
          3    1    5    5  503    0  0.26042150020E+03  0.25283451051E+02  0.17064616665E+03  0.31237593514E+03  0.00000000000E+00 0. -1.
         -4    1    5    5    0  503  0.16230383108E+03 -0.15144608283E+02  0.17108513015E+03  0.23630915027E+03  0.00000000000E+00 0.  1.
         -1    1    6    6    0  502 -0.12151317973E+02 -0.23917829554E+02 -0.18926547989E+01  0.26894223194E+02  0.00000000000E+00 0.  1.
<mgrwt>
<rscale>  0 0.13087479E+04</rscale>
<asrwt>0</asrwt>
<pdfrwt beam="1">  1        2 0.19621140E+00 0.13087479E+04</pdfrwt>
<pdfrwt beam="2">  1       -2 0.51653652E-01 0.13087479E+04</pdfrwt>
<totfact> 0.59250552E+01</totfact>
</mgrwt>
</event>
<event>
12    1  0.1519630E-007  0.1648751E+04  0.7818608E-02  0.8791146E-01
          2   -1    0    0  501    0  0.00000000000E+00  0.00000000000E+00  0.27716710092E+04  0.27716710092E+04  0.00000000000E+00 0. -1.
         -2   -1    0    0    0  501 -0.00000000000E+00 -0.00000000000E+00 -0.24519323246E+03  0.24519323246E+03  0.00000000000E+00 0.  1.
         23    2    1    2    0    0  0.65195026047E+02 -0.32824613463E+03  0.17565769278E+04  0.17903939868E+04  0.89175154206E+02 0.  0.
        254    2    1    2    0    0 -0.65195026047E+02  0.32824613463E+03  0.76990084887E+03  0.12264702549E+04  0.89413983952E+03 0.  0.
        -24    2    4    4    0    0 -0.25376715984E+03  0.32241895832E+03  0.89364026433E+03  0.98679651968E+03  0.82599595135E+02 0.  0.
         24    2    4    4    0    0  0.18857213379E+03  0.58271763152E+01 -0.12373941546E+03  0.23967373518E+03  0.80861924096E+02 0.  0.
         11    1    3    3    0    0  0.41540700878E+02 -0.26216961690E+03  0.11756709962E+04  0.12052638006E+04  0.00000000000E+00 0. -1.
        -11    1    3    3    0    0  0.23654325169E+02 -0.66076517738E+02  0.58090593168E+03  0.58513018616E+03  0.00000000000E+00 0.  1.
          4    1    6    6  502    0  0.16221561605E+03 -0.75802859859E+01 -0.66960767409E+02  0.17565623017E+03  0.00000000000E+00 0. -1.
          3    1    5    5  503    0 -0.10621007195E+03  0.73522714070E+02  0.27971720969E+03  0.30810369401E+03  0.00000000000E+00 0. -1.
         -4    1    5    5    0  503 -0.14755708789E+03  0.24889624425E+03  0.61392305464E+03  0.67869282567E+03  0.00000000000E+00 0.  1.
         -3    1    6    6    0  502  0.26356517745E+02  0.13407462301E+02 -0.56778648050E+02  0.64017505008E+02  0.00000000000E+00 0.  1.
<mgrwt>
<rscale>  0 0.16487510E+04</rscale>
<asrwt>0</asrwt>
<pdfrwt beam="1">  1        2 0.42641090E+00 0.16487510E+04</pdfrwt>
<pdfrwt beam="2">  1       -2 0.37722038E-01 0.16487510E+04</pdfrwt>
<totfact> 0.15291839E+01</totfact>
</mgrwt>
</event>
<event>
12    1  0.1519630E-007  0.1574949E+04  0.7818608E-02  0.8836088E-01
          1   -1    0    0  501    0  0.00000000000E+00  0.00000000000E+00  0.11211054160E+04  0.11211054160E+04  0.00000000000E+00 0. -1.
         -1   -1    0    0    0  501 -0.00000000000E+00 -0.00000000000E+00 -0.55312886723E+03  0.55312886723E+03  0.00000000000E+00 0.  1.
         23    2    1    2    0    0  0.47049450867E+03  0.83442235682E+02 -0.23610039779E+02  0.49103608282E+03  0.11059525876E+03 0.  0.
        254    2    1    2    0    0 -0.47049450867E+03 -0.83442235682E+02  0.59158658851E+03  0.11831982004E+04  0.90645220517E+03 0.  0.
        -24    2    4    4    0    0 -0.20591029004E+03 -0.38900156470E+03  0.62637526651E+03  0.76970202048E+03  0.79837090132E+02 0.  0.
         24    2    4    4    0    0 -0.26458421863E+03  0.30555932902E+03 -0.34788677998E+02  0.41349617988E+03  0.79984538273E+02 0.  0.
         11    1    3    3    0    0  0.27901523836E+03  0.10170421803E+03 -0.30708695610E+02  0.29855698818E+03  0.00000000000E+00 0.  1.
        -11    1    3    3    0    0  0.19147927031E+03 -0.18261982345E+02  0.70986558311E+01  0.19247909464E+03  0.00000000000E+00 0. -1.
          2    1    6    6  502    0 -0.34711120961E+02  0.85757533897E+02 -0.22490971257E+02  0.95210610368E+02  0.00000000000E+00 0. -1.
          3    1    5    5  503    0 -0.66973601208E+02 -0.78360109248E+02  0.10534373818E+03  0.14738749321E+03  0.00000000000E+00 0. -1.
         -4    1    5    5    0  503 -0.13893668884E+03 -0.31064145545E+03  0.52103152832E+03  0.62231452727E+03  0.00000000000E+00 0.  1.
         -1    1    6    6    0  502 -0.22987309767E+03  0.21980179512E+03 -0.12297706741E+02  0.31828556952E+03  0.00000000000E+00 0.  1.
<mgrwt>
<rscale>  0 0.15749486E+04</rscale>
<asrwt>0</asrwt>
<pdfrwt beam="1">  1        1 0.17247776E+00 0.15749486E+04</pdfrwt>
<pdfrwt beam="2">  1       -1 0.85096749E-01 0.15749486E+04</pdfrwt>
<totfact> 0.16054145E+01</totfact>
</mgrwt>
</event>
<event>
12    1  0.1519630E-007  0.1436326E+04  0.7818608E-02  0.8927936E-01
         -1   -1    0    0    0  501 -0.00000000000E+00  0.00000000000E+00  0.40899525389E+03  0.40899525389E+03  0.00000000000E+00 0.  1.
          1   -1    0    0  501    0  0.00000000000E+00 -0.00000000000E+00 -0.12610365023E+04  0.12610365023E+04  0.00000000000E+00 0. -1.
         23    2    1    2    0    0 -0.51817134165E+02 -0.10750976406E+03  0.20964302973E+03  0.25793030986E+03  0.91293373645E+02 0.  0.
        254    2    1    2    0    0  0.51817134165E+02  0.10750976406E+03 -0.10616842781E+04  0.14121014463E+04  0.92337079416E+03 0.  0.
        -24    2    4    4    0    0  0.26968584507E+03 -0.10322141111E+02  0.35192600854E+02  0.28465394397E+03  0.83380735380E+02 0.  0.
         24    2    4    4    0    0 -0.21786871091E+03  0.11783190517E+03 -0.10968768789E+04  0.11274475023E+04  0.81534347677E+02 0.  0.
         11    1    3    3    0    0 -0.49678683802E+02 -0.31110717676E+02  0.14980164467E+03  0.16086137238E+03  0.00000000000E+00 0.  1.
        -11    1    3    3    0    0 -0.21384503629E+01 -0.76399046385E+02  0.59841385060E+02  0.97068937485E+02  0.00000000000E+00 0. -1.
          4    1    6    6  502    0 -0.12767591348E+02 -0.11656750230E+02 -0.52488362321E+02  0.55262278219E+02  0.00000000000E+00 0. -1.
          3    1    5    5  503    0  0.74447553685E+02  0.34634749448E+02  0.11466279273E+02  0.82906451374E+02  0.00000000000E+00 0. -1.
         -4    1    5    5    0  503  0.19523829139E+03 -0.44956890559E+02  0.23726321581E+02  0.20174749260E+03  0.00000000000E+00 0.  1.
         -3    1    6    6    0  502 -0.20510111956E+03  0.12948865540E+03 -0.10443885166E+04  0.10721852241E+04  0.00000000000E+00 0.  1.
<mgrwt>
<rscale>  0 0.14363258E+04</rscale>
<asrwt>0</asrwt>
<pdfrwt beam="1">  1        1 0.19400561E+00 0.14363258E+04</pdfrwt>
<pdfrwt beam="2">  1       -1 0.62922347E-01 0.14363258E+04</pdfrwt>
<totfact> 0.24030615E+01</totfact>
</mgrwt>
</event>
<event>
12    1  0.1519630E-007  0.1522937E+04  0.7818608E-02  0.8869342E-01
          1   -1    0    0  501    0  0.00000000000E+00  0.00000000000E+00  0.94468220546E+03  0.94468220546E+03  0.00000000000E+00 0. -1.
         -1   -1    0    0    0  501 -0.00000000000E+00 -0.00000000000E+00 -0.61378731849E+03  0.61378731849E+03  0.00000000000E+00 0.  1.
         23    2    1    2    0    0 -0.48432708843E+03  0.66917924697E+02  0.56590651499E+02  0.50010300480E+03  0.88598963501E+02 0.  0.
        254    2    1    2    0    0  0.48432708843E+03 -0.66917924697E+02  0.27430423547E+03  0.10583665191E+04  0.89768933269E+03 0.  0.
        -24    2    4    4    0    0  0.26246736795E+03  0.38910145950E+03  0.10392735589E+01  0.47682544094E+03  0.84097300878E+02 0.  0.
         24    2    4    4    0    0  0.22185972048E+03 -0.45601938420E+03  0.27326496191E+03  0.58154107821E+03  0.79629591854E+02 0.  0.
         11    1    3    3    0    0 -0.20203706941E+03  0.46356531435E+01  0.60651291089E+02  0.21099536916E+03  0.00000000000E+00 0. -1.
        -11    1    3    3    0    0 -0.28229001902E+03  0.62282271553E+02 -0.40606395900E+01  0.28910763563E+03  0.00000000000E+00 0.  1.
          4    1    6    6  502    0  0.44604446607E+01 -0.20385218198E+01 -0.44838707655E+01  0.66450157879E+01  0.00000000000E+00 0. -1.
          3    1    5    5  503    0  0.89349637222E+02  0.16049405652E+03  0.38346920732E+02  0.18764910386E+03  0.00000000000E+00 0. -1.
         -4    1    5    5    0  503  0.17311773073E+03  0.22860740298E+03 -0.37307647173E+02  0.28917633708E+03  0.00000000000E+00 0.  1.
         -3    1    6    6    0  502  0.21739927582E+03 -0.45398086238E+03  0.27774883268E+03  0.57489606242E+03  0.00000000000E+00 0.  1.
<mgrwt>
<rscale>  0 0.15229366E+04</rscale>
<asrwt>0</asrwt>
<pdfrwt beam="1">  1        1 0.14533572E+00 0.15229366E+04</pdfrwt>
<pdfrwt beam="2">  1       -1 0.94428818E-01 0.15229366E+04</pdfrwt>
<totfact> 0.17546470E+01</totfact>
</mgrwt>
</event>
<event>
12    1  0.1519630E-007  0.1915884E+04  0.7818608E-02  0.8646990E-01
          1   -1    0    0  501    0  0.00000000000E+00  0.00000000000E+00  0.21052754492E+04  0.21052754492E+04  0.00000000000E+00 0. -1.
         -1   -1    0    0    0  501 -0.00000000000E+00 -0.00000000000E+00 -0.43588271004E+03  0.43588271004E+03  0.00000000000E+00 0.  1.
         23    2    1    2    0    0 -0.55885532232E+03 -0.33194360941E+03  0.17871207198E+03  0.68018479342E+03  0.90595349916E+02 0.  0.
        254    2    1    2    0    0  0.55885532232E+03  0.33194360941E+03  0.14906806672E+04  0.18609733658E+04  0.90475808129E+03 0.  0.
        -24    2    4    4    0    0 -0.94018170363E+02 -0.78132208332E+02 -0.34257501464E+02  0.15024165469E+03  0.80342517137E+02 0.  0.
         24    2    4    4    0    0  0.65287349268E+03  0.41007581774E+03  0.15249381687E+04  0.17107317112E+04  0.82222840550E+02 0.  0.
         11    1    3    3    0    0 -0.82365557609E+02 -0.37053383625E+02  0.56876744499E+02  0.10673332368E+03  0.00000000000E+00 0. -1.
        -11    1    3    3    0    0 -0.47648976471E+03 -0.29489022578E+03  0.12183532748E+03  0.57345146975E+03  0.00000000000E+00 0.  1.
          4    1    6    6  502    0  0.27949821544E+03  0.18948590612E+03  0.58239245946E+03  0.67320512319E+03  0.00000000000E+00 0. -1.
          3    1    5    5  503    0 -0.53367548711E+02 -0.47905283159E+02  0.21539415131E+02  0.74879622155E+02  0.00000000000E+00 0. -1.
         -4    1    5    5    0  503 -0.40650621652E+02 -0.30226925173E+02 -0.55796916595E+02  0.75362032534E+02  0.00000000000E+00 0.  1.
         -3    1    6    6    0  502  0.37337527724E+03  0.22058991162E+03  0.94254570922E+03  0.10375265880E+04  0.00000000000E+00 0.  1.
<mgrwt>
<rscale>  0 0.19158843E+04</rscale>
<asrwt>0</asrwt>
<pdfrwt beam="1">  1        1 0.32388852E+00 0.19158843E+04</pdfrwt>
<pdfrwt beam="2">  1       -1 0.67058880E-01 0.19158843E+04</pdfrwt>
<totfact> 0.53201979E+00</totfact>
</mgrwt>
</event>
<event>
12    1  0.1519630E-007  0.1817194E+04  0.7818608E-02  0.8697209E-01
          2   -1    0    0  501    0  0.00000000000E+00  0.00000000000E+00  0.28401146463E+04  0.28401146463E+04  0.00000000000E+00 0.  1.
         -2   -1    0    0    0  501 -0.00000000000E+00 -0.00000000000E+00 -0.29067423474E+03  0.29067423474E+03  0.00000000000E+00 0. -1.
         23    2    1    2    0    0 -0.29809772974E+03 -0.45691772700E+02  0.20063365452E+04  0.20307582459E+04  0.87422685924E+02 0.  0.
        254    2    1    2    0    0  0.29809772974E+03  0.45691772700E+02  0.54310386635E+03  0.11000306352E+04  0.90783015706E+03 0.  0.
        -24    2    4    4    0    0 -0.74362071776E+02 -0.29638017414E+03  0.49369651720E+03  0.58595567730E+03  0.78973915398E+02 0.  0.
         24    2    4    4    0    0  0.37245980152E+03  0.34207194684E+03  0.49407349151E+02  0.51407495786E+03  0.78054183680E+02 0.  0.
         13    1    3    3    0    0 -0.23898422956E+03 -0.48540783727E+02  0.13576703406E+04  0.13793978481E+04  0.00000000000E+00 0. -1.
        -13    1    3    3    0    0 -0.59113500178E+02  0.28490110272E+01  0.64866620465E+03  0.65136039780E+03  0.00000000000E+00 0.  1.
          4    1    6    6  502    0  0.31409448182E+03  0.26351067274E+03  0.64547192239E+02  0.41504163427E+03  0.00000000000E+00 0. -1.
          3    1    5    5  503    0 -0.37856044435E+02 -0.24227996536E+03  0.34212549781E+03  0.42093053818E+03  0.00000000000E+00 0. -1.
         -4    1    5    5    0  503 -0.36506027341E+02 -0.54100208780E+02  0.15157101939E+03  0.16502513912E+03  0.00000000000E+00 0.  1.
         -3    1    6    6    0  502  0.58365319700E+02  0.78561274104E+02 -0.15139843088E+02  0.99033323590E+02  0.00000000000E+00 0.  1.
<mgrwt>
<rscale>  0 0.18171936E+04</rscale>
<asrwt>0</asrwt>
<pdfrwt beam="1">  1        2 0.43694070E+00 0.18171936E+04</pdfrwt>
<pdfrwt beam="2">  1       -2 0.44719115E-01 0.18171936E+04</pdfrwt>
<totfact> 0.98007267E+00</totfact>
</mgrwt>
</event>
<event>
12    1  0.1519630E-007  0.1434275E+04  0.7818608E-02  0.8929376E-01
          2   -1    0    0  501    0  0.00000000000E+00  0.00000000000E+00  0.18400460209E+04  0.18400460209E+04  0.00000000000E+00 0. -1.
         -2   -1    0    0    0  501 -0.00000000000E+00 -0.00000000000E+00 -0.27949635822E+03  0.27949635822E+03  0.00000000000E+00 0.  1.
         23    2    1    2    0    0  0.25554996854E+03 -0.91167081094E+02  0.93125455953E+03  0.97439335040E+03  0.92682919529E+02 0.  0.
        254    2    1    2    0    0 -0.25554996854E+03  0.91167081094E+02  0.62929510320E+03  0.11451490288E+04  0.91746212350E+03 0.  0.
        -24    2    4    4    0    0 -0.86768372220E+02 -0.16772491151E+03 -0.18053944805E+03  0.27477901567E+03  0.85138820719E+02 0.  0.
         24    2    4    4    0    0 -0.16878159632E+03  0.25889199260E+03  0.80983455125E+03  0.87037001309E+03  0.78737971795E+02 0.  0.
         13    1    3    3    0    0  0.24624344469E+03 -0.60009780747E+02  0.84593362188E+03  0.88308589643E+03  0.00000000000E+00 0. -1.
        -13    1    3    3    0    0  0.93065238583E+01 -0.31157300346E+02  0.85320937643E+02  0.91307453976E+02  0.00000000000E+00 0.  1.
          2    1    6    6  502    0 -0.75760369585E+02  0.72474120299E+02  0.35364252120E+03  0.36885656360E+03  0.00000000000E+00 0. -1.
          3    1    5    5  503    0 -0.86844920477E+02 -0.11436433646E+03 -0.16595918945E+03  0.21946228430E+03  0.00000000000E+00 0. -1.
         -4    1    5    5    0  503  0.76548257042E-01 -0.53360575046E+02 -0.14580258599E+02  0.55316731372E+02  0.00000000000E+00 0.  1.
         -1    1    6    6    0  502 -0.93021226738E+02  0.18641787230E+03  0.45619203005E+03  0.50151344949E+03  0.00000000000E+00 0.  1.
<mgrwt>
<rscale>  0 0.14342750E+04</rscale>
<asrwt>0</asrwt>
<pdfrwt beam="1">  1        2 0.28308400E+00 0.14342750E+04</pdfrwt>
<pdfrwt beam="2">  1       -2 0.42999441E-01 0.14342750E+04</pdfrwt>
<totfact> 0.40819127E+01</totfact>
</mgrwt>
</event>
<event>
12    1  0.1519630E-007  0.1259907E+04  0.7818608E-02  0.9061978E-01
          1   -1    0    0  501    0  0.00000000000E+00  0.00000000000E+00  0.16167828805E+04  0.16167828805E+04  0.00000000000E+00 0. -1.
         -1   -1    0    0    0  501 -0.00000000000E+00 -0.00000000000E+00 -0.24545137196E+03  0.24545137196E+03  0.00000000000E+00 0.  1.
         23    2    1    2    0    0 -0.18061857943E+03 -0.13600913824E+03  0.61029241871E+03  0.65696468639E+03  0.89577932045E+02 0.  0.
        254    2    1    2    0    0  0.18061857943E+03  0.13600913824E+03  0.76103908983E+03  0.12052695661E+04  0.90684765739E+03 0.  0.
        -24    2    4    4    0    0  0.15279168192E+03  0.37590345031E+03  0.12071545499E+02  0.41423173660E+03  0.82422735769E+02 0.  0.
         24    2    4    4    0    0  0.27826897509E+02 -0.23989431208E+03  0.74896754433E+03  0.79103782947E+03  0.80404278458E+02 0.  0.
         11    1    3    3    0    0 -0.38220503157E+02 -0.46069324036E+01  0.44119822923E+02  0.58554158371E+02  0.00000000000E+00 0.  1.
        -11    1    3    3    0    0 -0.14239807627E+03 -0.13140220583E+03  0.56617259579E+03  0.59841052802E+03  0.00000000000E+00 0. -1.
          2    1    6    6  502    0 -0.45521465011E+01  0.47677624301E+01  0.35097145532E+02  0.35710827782E+02  0.00000000000E+00 0. -1.
          3    1    5    5  503    0  0.26867928734E+02  0.15186398717E+02 -0.71624514432E+01  0.31683008240E+02  0.00000000000E+00 0. -1.
         -4    1    5    5    0  503  0.12592375318E+03  0.36071705160E+03  0.19233996943E+02  0.38254872836E+03  0.00000000000E+00 0.  1.
         -1    1    6    6    0  502  0.32379044011E+02 -0.24466207451E+03  0.71387039880E+03  0.75532700169E+03  0.00000000000E+00 0.  1.
<mgrwt>
<rscale>  0 0.12599073E+04</rscale>
<asrwt>0</asrwt>
<pdfrwt beam="1">  1        1 0.24873582E+00 0.12599073E+04</pdfrwt>
<pdfrwt beam="2">  1       -1 0.37761751E-01 0.12599073E+04</pdfrwt>
<totfact> 0.36228872E+01</totfact>
</mgrwt>
</event>
<event>
12    1  0.1519630E-007  0.1586022E+04  0.7818608E-02  0.8829181E-01
         -2   -1    0    0    0  501 -0.00000000000E+00  0.00000000000E+00  0.24489823482E+04  0.24489823482E+04  0.00000000000E+00 0.  1.
          2   -1    0    0  501    0  0.00000000000E+00 -0.00000000000E+00 -0.25678698588E+03  0.25678698588E+03  0.00000000000E+00 0. -1.
         23    2    1    2    0    0 -0.37316241321E+03 -0.34496387414E+03  0.10068107370E+04  0.11314729457E+04  0.91175136559E+02 0.  0.
        254    2    1    2    0    0  0.37316241321E+03  0.34496387414E+03  0.11853846253E+04  0.15742963884E+04  0.90278577059E+03 0.  0.
        -24    2    4    4    0    0  0.43562982800E+03 -0.15553231498E+03  0.31499760989E+03  0.56531866622E+03  0.79987824624E+02 0.  0.
         24    2    4    4    0    0 -0.62467414796E+02  0.50049618912E+03  0.87038701541E+03  0.10089777222E+04  0.77870880692E+02 0.  0.
         11    1    3    3    0    0 -0.24653121560E+03 -0.19109892243E+03  0.53474471347E+03  0.61907055091E+03  0.00000000000E+00 0. -1.
        -11    1    3    3    0    0 -0.12663119760E+03 -0.15386495171E+03  0.47206602354E+03  0.51240239476E+03  0.00000000000E+00 0.  1.
          2    1    6    6  502    0  0.11869693484E+02  0.15715952099E+02  0.28297620887E+02  0.34476602525E+02  0.00000000000E+00 0. -1.
          3    1    5    5  503    0  0.11290361725E+03 -0.99480351888E+01  0.99702605961E+02  0.15095297224E+03  0.00000000000E+00 0. -1.
         -4    1    5    5    0  503  0.32272621075E+03 -0.14558427979E+03  0.21529500393E+03  0.41436569398E+03  0.00000000000E+00 0.  1.
         -1    1    6    6    0  502 -0.74337108280E+02  0.48478023702E+03  0.84208939452E+03  0.97450111967E+03  0.00000000000E+00 0.  1.
<mgrwt>
<rscale>  0 0.15860224E+04</rscale>
<asrwt>0</asrwt>
<pdfrwt beam="1">  1        2 0.39505692E-01 0.15860224E+04</pdfrwt>
<pdfrwt beam="2">  1       -2 0.37676650E+00 0.15860224E+04</pdfrwt>
<totfact> 0.13265761E+00</totfact>
</mgrwt>
</event>
<event>
12    1  0.1519630E-007  0.2204763E+04  0.7818608E-02  0.8516448E-01
         -1   -1    0    0    0  501 -0.00000000000E+00  0.00000000000E+00  0.53639911770E+03  0.53639911770E+03  0.00000000000E+00 0.  1.
          1   -1    0    0  501    0  0.00000000000E+00 -0.00000000000E+00 -0.22655604662E+04  0.22655604662E+04  0.00000000000E+00 0. -1.
         23    2    1    2    0    0 -0.58551888533E+03 -0.25440950715E+03 -0.15860794001E+04  0.17121846409E+04  0.91497643536E+02 0.  0.
        254    2    1    2    0    0  0.58551888533E+03  0.25440950715E+03 -0.14308194842E+03  0.10897749430E+04  0.87153910987E+03 0.  0.
        -24    2    4    4    0    0  0.53071342162E+02  0.39144876339E+03 -0.31140451240E+03  0.50931303638E+03  0.79864240845E+02 0.  0.
         24    2    4    4    0    0  0.53244754317E+03 -0.13703925625E+03  0.16832256398E+03  0.58046190662E+03  0.79519780660E+02 0.  0.
         11    1    3    3    0    0 -0.19823787455E+03 -0.13421852516E+03 -0.59552386220E+03  0.64184229983E+03  0.00000000000E+00 0.  1.
        -11    1    3    3    0    0 -0.38728101078E+03 -0.12019098198E+03 -0.99055553790E+03  0.10703423411E+04  0.00000000000E+00 0. -1.
          4    1    6    6  502    0  0.10007946664E+03 -0.48139796123E+02  0.99596747586E+01  0.11150127683E+03  0.00000000000E+00 0. -1.
          3    1    5    5  503    0  0.19718354447E+02  0.14095988687E+03 -0.65380201641E+02  0.15663037373E+03  0.00000000000E+00 0. -1.
         -4    1    5    5    0  503  0.33352987715E+02  0.25048887653E+03 -0.24602431076E+03  0.35268266265E+03  0.00000000000E+00 0.  1.
         -3    1    6    6    0  502  0.43236807653E+03 -0.88899460122E+02  0.15836288922E+03  0.46896062979E+03  0.00000000000E+00 0.  1.
<mgrwt>
<rscale>  0 0.22047627E+04</rscale>
<asrwt>0</asrwt>
<pdfrwt beam="1">  1        1 0.34854776E+00 0.22047627E+04</pdfrwt>
<pdfrwt beam="2">  1       -1 0.82522942E-01 0.22047627E+04</pdfrwt>
<totfact> 0.26133413E+00</totfact>
</mgrwt>
</event>
<event>
12    1  0.1519630E-007  0.1953650E+04  0.7818608E-02  0.8628603E-01
         -2   -1    0    0    0  501 -0.00000000000E+00  0.00000000000E+00  0.71648962653E+03  0.71648962653E+03  0.00000000000E+00 0.  1.
          2   -1    0    0  501    0  0.00000000000E+00 -0.00000000000E+00 -0.13317532633E+04  0.13317532633E+04  0.00000000000E+00 0. -1.
         23    2    1    2    0    0 -0.16212598268E+02  0.31005464835E+03  0.48591322294E+03  0.58640697554E+03  0.10660556943E+03 0.  0.
        254    2    1    2    0    0  0.16212598268E+02 -0.31005464835E+03 -0.11011768597E+04  0.14618359143E+04  0.90993243189E+03 0.  0.
        -24    2    4    4    0    0  0.13375406260E+03  0.25679711977E+03 -0.67202946363E+03  0.73583430948E+03  0.77418479913E+02 0.  0.
         24    2    4    4    0    0 -0.11754146433E+03 -0.56685176813E+03 -0.42914739607E+03  0.72600160479E+03  0.88169834646E+02 0.  0.
         11    1    3    3    0    0 -0.36344326943E+02  0.55617051875E+02  0.58186401991E+02  0.88316611896E+02  0.00000000000E+00 0. -1.
        -11    1    3    3    0    0  0.20131728675E+02  0.25443759648E+03  0.42772682095E+03  0.49809036365E+03  0.00000000000E+00 0.  1.
          2    1    6    6  502    0 -0.60782110924E+02 -0.37067963319E+03 -0.22829771937E+03  0.43956535822E+03  0.00000000000E+00 0. -1.
          1    1    5    5  503    0  0.50451198569E+02  0.17757542090E+03 -0.40264471541E+03  0.44294595652E+03  0.00000000000E+00 0. -1.
         -2    1    5    5    0  503  0.83302864027E+02  0.79221698871E+02 -0.26938474822E+03  0.29288835296E+03  0.00000000000E+00 0.  1.
         -1    1    6    6    0  502 -0.56759353404E+02 -0.19617213493E+03 -0.20084967669E+03  0.28643624657E+03  0.00000000000E+00 0.  1.
<mgrwt>
<rscale>  0 0.19536503E+04</rscale>
<asrwt>0</asrwt>
<pdfrwt beam="1">  1        2 0.20488512E+00 0.19536503E+04</pdfrwt>
<pdfrwt beam="2">  1       -2 0.11022917E+00 0.19536503E+04</pdfrwt>
<totfact> 0.96596117E+00</totfact>
</mgrwt>
</event>
<event>
12    1  0.1519630E-007  0.1530078E+04  0.7818608E-02  0.8864694E-01
          1   -1    0    0  501    0  0.00000000000E+00  0.00000000000E+00  0.14681470498E+04  0.14681470498E+04  0.00000000000E+00 0. -1.
         -1   -1    0    0    0  501 -0.00000000000E+00 -0.00000000000E+00 -0.39865530692E+03  0.39865530692E+03  0.00000000000E+00 0.  1.
         23    2    1    2    0    0  0.14567947827E+03  0.15049292024E+03  0.90543349236E+03  0.93385183183E+03  0.91644995995E+02 0.  0.
        254    2    1    2    0    0 -0.14567947827E+03 -0.15049292024E+03  0.16405825050E+03  0.93295052488E+03  0.89420967502E+03 0.  0.
        -24    2    4    4    0    0 -0.15738594397E+03 -0.51396298254E+03  0.13247113668E+03  0.55939443199E+03  0.80282287673E+02 0.  0.
         24    2    4    4    0    0  0.11706465697E+02  0.36347006230E+03  0.31587113826E+02  0.37355609289E+03  0.79365491562E+02 0.  0.
         13    1    3    3    0    0  0.65130780773E+01  0.13919923538E+02  0.12307394228E+02  0.19688992103E+02  0.00000000000E+00 0.  1.
        -13    1    3    3    0    0  0.13916640019E+03  0.13657299671E+03  0.89312609814E+03  0.91416283973E+03  0.00000000000E+00 0. -1.
          4    1    6    6  502    0  0.24047374802E+02  0.83513027272E+02  0.33990273931E+02  0.93316883150E+02  0.00000000000E+00 0. -1.
          3    1    5    5  503    0 -0.16178266680E+01 -0.27429739532E+02 -0.96679425139E+01  0.29128630012E+02  0.00000000000E+00 0. -1.
         -4    1    5    5    0  503 -0.15576811730E+03 -0.48653324301E+03  0.14213907919E+03  0.53026580198E+03  0.00000000000E+00 0.  1.
         -3    1    6    6    0  502 -0.12340909105E+02  0.27995703502E+03 -0.24031601054E+01  0.28023920974E+03  0.00000000000E+00 0.  1.
<mgrwt>
<rscale>  0 0.15300779E+04</rscale>
<asrwt>0</asrwt>
<pdfrwt beam="1">  1        1 0.22586878E+00 0.15300779E+04</pdfrwt>
<pdfrwt beam="2">  1       -1 0.61331586E-01 0.15300779E+04</pdfrwt>
<totfact> 0.17910236E+01</totfact>
</mgrwt>
</event>
<event>
12    1  0.1519630E-007  0.1380897E+04  0.7818608E-02  0.8967763E-01
         -1   -1    0    0    0  501 -0.00000000000E+00  0.00000000000E+00  0.35788979162E+03  0.35788979162E+03  0.00000000000E+00 0.  1.
          1   -1    0    0  501    0  0.00000000000E+00 -0.00000000000E+00 -0.13320284566E+04  0.13320284566E+04  0.00000000000E+00 0. -1.
         23    2    1    2    0    0 -0.70788486369E+02  0.37050456368E+03 -0.17390215998E+03  0.42518770148E+03  0.90873421507E+02 0.  0.
        254    2    1    2    0    0  0.70788486369E+02 -0.37050456368E+03 -0.80023650504E+03  0.12647305468E+04  0.90381427874E+03 0.  0.
        -24    2    4    4    0    0 -0.40735107157E+03 -0.13175797749E+03 -0.31219672811E+03  0.53663733901E+03  0.84957497836E+02 0.  0.
         24    2    4    4    0    0  0.47813955794E+03 -0.23874658618E+03 -0.48803977693E+03  0.72809320777E+03  0.79495446758E+02 0.  0.
         11    1    3    3    0    0 -0.12144961056E+02  0.77655126292E+02  0.19040355466E+01  0.78622160170E+02  0.00000000000E+00 0.  1.
        -11    1    3    3    0    0 -0.58643525314E+02  0.29284943738E+03 -0.17580619553E+03  0.34656554131E+03  0.00000000000E+00 0. -1.
          2    1    6    6  502    0  0.68088797736E+02 -0.60274061168E+02 -0.10827162527E+03  0.14139233242E+03  0.00000000000E+00 0. -1.
          1    1    5    5  503    0 -0.64745056525E+01  0.21269662127E+01  0.47907734608E+01  0.83303492764E+01  0.00000000000E+00 0. -1.
         -2    1    5    5    0  503 -0.40087656592E+03 -0.13388494371E+03 -0.31698750157E+03  0.52830698974E+03  0.00000000000E+00 0.  1.
         -1    1    6    6    0  502  0.41005076020E+03 -0.17847252502E+03 -0.37976815166E+03  0.58670087535E+03  0.00000000000E+00 0.  1.
<mgrwt>
<rscale>  0 0.13808974E+04</rscale>
<asrwt>0</asrwt>
<pdfrwt beam="1">  1        1 0.20492745E+00 0.13808974E+04</pdfrwt>
<pdfrwt beam="2">  1       -1 0.55059969E-01 0.13808974E+04</pdfrwt>
<totfact> 0.27937199E+01</totfact>
</mgrwt>
</event>
<event>
12    1  0.1519630E-007  0.1345893E+04  0.7818608E-02  0.8993943E-01
          2   -1    0    0  501    0  0.00000000000E+00  0.00000000000E+00  0.15127344910E+04  0.15127344910E+04  0.00000000000E+00 0.  1.
         -2   -1    0    0    0  501 -0.00000000000E+00 -0.00000000000E+00 -0.29936305855E+03  0.29936305855E+03  0.00000000000E+00 0. -1.
         23    2    1    2    0    0  0.15939511742E+03  0.25394211511E+03  0.59204621006E+02  0.31609457833E+03  0.80729139839E+02 0.  0.
        254    2    1    2    0    0 -0.15939511742E+03 -0.25394211511E+03  0.11541668114E+04  0.14960029712E+04  0.90334404296E+03 0.  0.
        -24    2    4    4    0    0  0.35382956088E+03 -0.23568528762E+02  0.60630116464E+03  0.70686518194E+03  0.79413156981E+02 0.  0.
         24    2    4    4    0    0 -0.51322467830E+03 -0.23037358634E+03  0.54786564676E+03  0.78913778923E+03  0.78167280840E+02 0.  0.
         11    1    3    3    0    0  0.10927950355E+03  0.22765456437E+03  0.36633409541E+02  0.25516782178E+03  0.00000000000E+00 0. -1.
        -11    1    3    3    0    0  0.50115613868E+02  0.26287550733E+02  0.22571211465E+02  0.60926756552E+02  0.00000000000E+00 0.  1.
          4    1    6    6  502    0 -0.14059061759E+03 -0.83380673833E+02  0.11826521550E+03  0.20175410707E+03  0.00000000000E+00 0. -1.
          3    1    5    5  503    0  0.30832626979E+03  0.71687324976E+01  0.51973157669E+03  0.60434873308E+03  0.00000000000E+00 0. -1.
         -4    1    5    5    0  503  0.45503291090E+02 -0.30737261260E+02  0.86569587945E+02  0.10251644886E+03  0.00000000000E+00 0.  1.
         -3    1    6    6    0  502 -0.37263406071E+03 -0.14699291251E+03  0.42960043126E+03  0.58738368216E+03  0.00000000000E+00 0.  1.
<mgrwt>
<rscale>  0 0.13458928E+04</rscale>
<asrwt>0</asrwt>
<pdfrwt beam="1">  1        2 0.23272838E+00 0.13458928E+04</pdfrwt>
<pdfrwt beam="2">  1       -2 0.46055856E-01 0.13458928E+04</pdfrwt>
<totfact> 0.54514783E+01</totfact>
</mgrwt>
</event>
<event>
12    1  0.1519630E-007  0.1199597E+04  0.7818608E-02  0.9113210E-01
         -2   -1    0    0    0  501 -0.00000000000E+00  0.00000000000E+00  0.15750887127E+03  0.15750887127E+03  0.00000000000E+00 0.  1.
          2   -1    0    0  501    0  0.00000000000E+00 -0.00000000000E+00 -0.22840487539E+04  0.22840487539E+04  0.00000000000E+00 0. -1.
         23    2    1    2    0    0 -0.11462958291E+03 -0.82325507421E+02 -0.51638965240E+02  0.17636430826E+03  0.92305774715E+02 0.  0.
        254    2    1    2    0    0  0.11462958291E+03  0.82325507421E+02 -0.20749009174E+04  0.22651933169E+04  0.89775804953E+03 0.  0.
        -24    2    4    4    0    0 -0.92320045352E+02  0.31782293934E+03 -0.18254574211E+04  0.18569351224E+04  0.79867646891E+02 0.  0.
         24    2    4    4    0    0  0.20694962826E+03 -0.23549743192E+03 -0.24944349630E+03  0.40825819451E+03  0.78520739054E+02 0.  0.
         13    1    3    3    0    0 -0.87545303817E+01 -0.99900208331E+01 -0.46146872422E+02  0.48020580512E+02  0.00000000000E+00 0. -1.
        -13    1    3    3    0    0 -0.10587505253E+03 -0.72335486588E+02 -0.54920928181E+01  0.12834372775E+03  0.00000000000E+00 0.  1.
          2    1    6    6  502    0  0.58434559530E+02 -0.29534853850E+02 -0.27518464557E+02  0.71022329101E+02  0.00000000000E+00 0. -1.
          3    1    5    5  503    0 -0.38948501358E+01 -0.16349409330E+01 -0.90421355495E+02  0.90519966963E+02  0.00000000000E+00 0. -1.
         -4    1    5    5    0  503 -0.88425195217E+02  0.31945788027E+03 -0.17350360656E+04  0.17664151554E+04  0.00000000000E+00 0.  1.
         -1    1    6    6    0  502  0.14851506873E+03 -0.20596257807E+03 -0.22192503175E+03  0.33723586541E+03  0.00000000000E+00 0.  1.
<mgrwt>
<rscale>  0 0.11995965E+04</rscale>
<asrwt>0</asrwt>
<pdfrwt beam="1">  1        2 0.35139211E+00 0.11995965E+04</pdfrwt>
<pdfrwt beam="2">  1       -2 0.24232135E-01 0.11995965E+04</pdfrwt>
<totfact> 0.69607248E+01</totfact>
</mgrwt>
</event>
<event>
12    1  0.1519630E-007  0.1462711E+04  0.7818608E-02  0.8909636E-01
          2   -1    0    0  501    0  0.00000000000E+00  0.00000000000E+00  0.85729079924E+03  0.85729079924E+03  0.00000000000E+00 0. -1.
         -2   -1    0    0    0  501 -0.00000000000E+00 -0.00000000000E+00 -0.62391966884E+03  0.62391966884E+03  0.00000000000E+00 0.  1.
         23    2    1    2    0    0 -0.39038139144E+03 -0.26006611737E+02 -0.14652711441E+03  0.42714207201E+03  0.88916701388E+02 0.  0.
        254    2    1    2    0    0  0.39038139144E+03  0.26006611737E+02  0.37989824480E+03  0.10540683961E+04  0.90203299971E+03 0.  0.
        -24    2    4    4    0    0  0.39404406067E+03  0.38167043363E+02  0.65395267277E+03  0.76859540092E+03  0.79732974013E+02 0.  0.
         24    2    4    4    0    0 -0.36626692274E+01 -0.12160431626E+02 -0.27405442797E+03  0.28547299516E+03  0.78915842721E+02 0.  0.
         11    1    3    3    0    0 -0.10401647165E+02 -0.15271390419E+02  0.28853748061E+01  0.18701203620E+02  0.00000000000E+00 0. -1.
        -11    1    3    3    0    0 -0.37997974428E+03 -0.10735221318E+02 -0.14941248921E+03  0.40844086839E+03  0.00000000000E+00 0.  1.
          4    1    6    6  502    0  0.22319265647E+02  0.21555102194E+02 -0.17393587312E+03  0.17668180441E+03  0.00000000000E+00 0. -1.
          1    1    5    5  503    0  0.57102122981E+02 -0.13878870014E+02  0.14008945023E+03  0.15191553426E+03  0.00000000000E+00 0. -1.
         -2    1    5    5    0  503  0.33694193769E+03  0.52045913377E+02  0.51386322254E+03  0.61667986666E+03  0.00000000000E+00 0.  1.
         -3    1    6    6    0  502 -0.25981934874E+02 -0.33715533820E+02 -0.10011855484E+03  0.10879119075E+03  0.00000000000E+00 0.  1.
<mgrwt>
<rscale>  0 0.14627106E+04</rscale>
<asrwt>0</asrwt>
<pdfrwt beam="1">  1        2 0.13189089E+00 0.14627106E+04</pdfrwt>
<pdfrwt beam="2">  1       -2 0.95987642E-01 0.14627106E+04</pdfrwt>
<totfact> 0.27655512E+01</totfact>
</mgrwt>
</event>
<event>
12    1  0.1519630E-007  0.1853603E+04  0.7818608E-02  0.8678302E-01
         -2   -1    0    0    0  501 -0.00000000000E+00  0.00000000000E+00  0.56545132211E+03  0.56545132211E+03  0.00000000000E+00 0.  1.
          2   -1    0    0  501    0  0.00000000000E+00 -0.00000000000E+00 -0.15190722732E+04  0.15190722732E+04  0.00000000000E+00 0. -1.
         23    2    1    2    0    0 -0.57303004336E+03 -0.57335538369E+02 -0.81566126359E+03  0.10027033635E+04  0.91977952216E+02 0.  0.
        254    2    1    2    0    0  0.57303004336E+03  0.57335538369E+02 -0.13795968752E+03  0.10818202318E+04  0.90534598032E+03 0.  0.
        -24    2    4    4    0    0 -0.45739796171E+02  0.36493602440E+03 -0.76445375489E+02  0.38293426450E+03  0.74325800575E+02 0.  0.
         24    2    4    4    0    0  0.61876983953E+03 -0.30760048603E+03 -0.61514312030E+02  0.69888596734E+03  0.84636938947E+02 0.  0.
         11    1    3    3    0    0 -0.24298433183E+03  0.12290471040E+02 -0.29583852492E+03  0.38303116586E+03  0.00000000000E+00 0.  1.
        -11    1    3    3    0    0 -0.33004571153E+03 -0.69626009409E+02 -0.51982273867E+03  0.61967219763E+03  0.00000000000E+00 0. -1.
          2    1    6    6  502    0  0.42066972178E+03 -0.16517892537E+03 -0.48945226078E+02  0.45457972608E+03  0.00000000000E+00 0. -1.
          3    1    5    5  503    0 -0.57486723384E+02  0.35559404840E+03 -0.73833868376E+02  0.36770000101E+03  0.00000000000E+00 0. -1.
         -2    1    5    5    0  503  0.11746927213E+02  0.93419760015E+01 -0.26115071133E+01  0.15234263486E+02  0.00000000000E+00 0.  1.
         -1    1    6    6    0  502  0.19810011776E+03 -0.14242156066E+03 -0.12569085952E+02  0.24430624126E+03  0.00000000000E+00 0.  1.
<mgrwt>
<rscale>  0 0.18536034E+04</rscale>
<asrwt>0</asrwt>
<pdfrwt beam="1">  1        2 0.23370343E+00 0.18536034E+04</pdfrwt>
<pdfrwt beam="2">  1       -2 0.86992512E-01 0.18536034E+04</pdfrwt>
<totfact> 0.13302505E+01</totfact>
</mgrwt>
</event>
<event>
12    1  0.1519630E-007  0.2558709E+04  0.7818608E-02  0.8382364E-01
          1   -1    0    0  501    0  0.00000000000E+00  0.00000000000E+00  0.27269046737E+04  0.27269046737E+04  0.00000000000E+00 0. -1.
         -1   -1    0    0    0  501 -0.00000000000E+00 -0.00000000000E+00 -0.60022177339E+03  0.60022177339E+03  0.00000000000E+00 0.  1.
         23    2    1    2    0    0 -0.65737188576E+03  0.67808538492E+03  0.17243897215E+04  0.19682682657E+04  0.92857250513E+02 0.  0.
        254    2    1    2    0    0  0.65737188576E+03 -0.67808538492E+03  0.40229317885E+03  0.13588581814E+04  0.89034721870E+03 0.  0.
        -24    2    4    4    0    0  0.43537373859E+03 -0.47685258174E+03  0.68106087320E+03  0.94184059747E+03  0.79253524055E+02 0.  0.
         24    2    4    4    0    0  0.22199814718E+03 -0.20123280318E+03 -0.27876769435E+03  0.41701758388E+03  0.80090070732E+02 0.  0.
         11    1    3    3    0    0 -0.44608689865E+03  0.49906697549E+03  0.11504916880E+04  0.13310493948E+04  0.00000000000E+00 0.  1.
        -11    1    3    3    0    0 -0.21128498711E+03  0.17901840943E+03  0.57389803346E+03  0.63721887095E+03  0.00000000000E+00 0. -1.
          4    1    6    6  502    0  0.19160747346E+03 -0.19766769923E+03 -0.22668722572E+03  0.35661329407E+03  0.00000000000E+00 0. -1.
          1    1    5    5  503    0  0.30451693386E+03 -0.27702034790E+03  0.42740073767E+03  0.59341572840E+03  0.00000000000E+00 0. -1.
         -2    1    5    5    0  503  0.13085680472E+03 -0.19983223384E+03  0.25366013553E+03  0.34842486907E+03  0.00000000000E+00 0.  1.
         -3    1    6    6    0  502  0.30390673713E+02 -0.35651039531E+01 -0.52080468627E+02  0.60404289809E+02  0.00000000000E+00 0.  1.
<mgrwt>
<rscale>  0 0.25587087E+04</rscale>
<asrwt>0</asrwt>
<pdfrwt beam="1">  1        1 0.41952379E+00 0.25587087E+04</pdfrwt>
<pdfrwt beam="2">  1       -1 0.92341812E-01 0.25587087E+04</pdfrwt>
<totfact> 0.94700597E-01</totfact>
</mgrwt>
</event>
<event>
12    1  0.1519630E-007  0.1767493E+04  0.7818608E-02  0.8723780E-01
          2   -1    0    0  501    0  0.00000000000E+00  0.00000000000E+00  0.13500795240E+04  0.13500795240E+04  0.00000000000E+00 0. -1.
         -2   -1    0    0    0  501 -0.00000000000E+00 -0.00000000000E+00 -0.57849052539E+03  0.57849052539E+03  0.00000000000E+00 0.  1.
         23    2    1    2    0    0 -0.23348349616E+03 -0.64284614963E+02 -0.37840483406E+03  0.45867441842E+03  0.92438893202E+02 0.  0.
        254    2    1    2    0    0  0.23348349616E+03  0.64284614963E+02  0.11499938327E+04  0.14698956309E+04  0.88287048656E+03 0.  0.
        -24    2    4    4    0    0  0.12748790374E+01 -0.11170115315E+02 -0.13621497022E+03  0.15821185754E+03  0.79687370152E+02 0.  0.
         24    2    4    4    0    0  0.23220861712E+03  0.75454730277E+02  0.12862088029E+04  0.13116837734E+04  0.81036896788E+02 0.  0.
         13    1    3    3    0    0 -0.13441680430E+03 -0.30448530024E+02 -0.29216598000E+03  0.32304171577E+03  0.00000000000E+00 0.  1.
        -13    1    3    3    0    0 -0.99066691853E+02 -0.33836084939E+02 -0.86238854064E+02  0.13563270265E+03  0.00000000000E+00 0. -1.
          2    1    6    6  502    0  0.13920505662E+03  0.54443718822E+02  0.96881167643E+03  0.98027456903E+03  0.00000000000E+00 0. -1.
          1    1    5    5  503    0 -0.61600766727E+01 -0.12337069491E+02 -0.14556079067E+03  0.14621249471E+03  0.00000000000E+00 0. -1.
         -2    1    5    5    0  503  0.74349557101E+01  0.11669541759E+01  0.93458204510E+01  0.11999362832E+02  0.00000000000E+00 0.  1.
         -1    1    6    6    0  502  0.93003560498E+02  0.21011011456E+02  0.31739712645E+03  0.33140920438E+03  0.00000000000E+00 0.  1.
<mgrwt>
<rscale>  0 0.17674934E+04</rscale>
<asrwt>0</asrwt>
<pdfrwt beam="1">  1        2 0.20770454E+00 0.17674934E+04</pdfrwt>
<pdfrwt beam="2">  1       -2 0.88998543E-01 0.17674934E+04</pdfrwt>
<totfact> 0.15870534E+01</totfact>
</mgrwt>
</event>
<event>
12    1  0.1519630E-007  0.1310724E+04  0.7818608E-02  0.9021104E-01
         -2   -1    0    0    0  501 -0.00000000000E+00  0.00000000000E+00  0.29069372084E+03  0.29069372084E+03  0.00000000000E+00 0.  1.
          2   -1    0    0  501    0  0.00000000000E+00 -0.00000000000E+00 -0.14774985998E+04  0.14774985998E+04  0.00000000000E+00 0. -1.
         23    2    1    2    0    0 -0.87964832435E+02  0.86975456044E+02  0.11005184203E+03  0.18979481117E+03  0.92779958572E+02 0.  0.
        254    2    1    2    0    0  0.87964832435E+02 -0.86975456044E+02 -0.12968567210E+04  0.15783975095E+04  0.89117832188E+03 0.  0.
        -24    2    4    4    0    0  0.13464700038E+03  0.38620565191E+03 -0.57284698942E+03  0.70843135596E+03  0.80229000641E+02 0.  0.
         24    2    4    4    0    0 -0.46682167943E+02 -0.47318110795E+03 -0.72400973159E+03  0.86996615352E+03  0.81064363978E+02 0.  0.
         13    1    3    3    0    0 -0.47820680907E+02  0.26404763745E+02  0.10325126729E+03  0.11681118640E+03  0.00000000000E+00 0. -1.
        -13    1    3    3    0    0 -0.40144151528E+02  0.60570692300E+02  0.68005747405E+01  0.72983624769E+02  0.00000000000E+00 0.  1.
          2    1    6    6  502    0 -0.40532859870E+02 -0.44035913067E+03 -0.70297071243E+03  0.83049798268E+03  0.00000000000E+00 0. -1.
          3    1    5    5  503    0  0.13978491751E+03  0.30639054825E+03 -0.46706698216E+03  0.57581816318E+03  0.00000000000E+00 0. -1.
         -4    1    5    5    0  503 -0.51379171327E+01  0.79815103653E+02 -0.10578000727E+03  0.13261319279E+03  0.00000000000E+00 0.  1.
         -1    1    6    6    0  502 -0.61493080732E+01 -0.32821977282E+02 -0.21039019155E+02  0.39468170840E+02  0.00000000000E+00 0.  1.
<mgrwt>
<rscale>  0 0.13107243E+04</rscale>
<asrwt>0</asrwt>
<pdfrwt beam="1">  1        2 0.22730748E+00 0.13107243E+04</pdfrwt>
<pdfrwt beam="2">  1       -2 0.44722110E-01 0.13107243E+04</pdfrwt>
<totfact> 0.60685279E+01</totfact>
</mgrwt>
</event>
<event>
12    1  0.1519630E-007  0.2002253E+04  0.7818608E-02  0.8605568E-01
          1   -1    0    0  501    0  0.00000000000E+00  0.00000000000E+00  0.14594655125E+04  0.14594655125E+04  0.00000000000E+00 0. -1.
         -1   -1    0    0    0  501 -0.00000000000E+00 -0.00000000000E+00 -0.68672705070E+03  0.68672705070E+03  0.00000000000E+00 0.  1.
         23    2    1    2    0    0 -0.52222882704E+03 -0.57276279045E+03  0.49394033599E+03  0.92354474311E+03  0.90430498732E+02 0.  0.
        254    2    1    2    0    0  0.52222882704E+03  0.57276279045E+03  0.27879812582E+03  0.12226478201E+04  0.90352594602E+03 0.  0.
        -24    2    4    4    0    0  0.38673294065E+03  0.74029569189E+03  0.43345065249E+03  0.94430094154E+03  0.78896902482E+02 0.  0.
         24    2    4    4    0    0  0.13549588638E+03 -0.16753290144E+03 -0.15465252666E+03  0.27834687857E+03  0.84458110992E+02 0.  0.
         11    1    3    3    0    0 -0.20057846298E+03 -0.24866444989E+03  0.15635006585E+03  0.35568394895E+03  0.00000000000E+00 0.  1.
        -11    1    3    3    0    0 -0.32165036406E+03 -0.32409834056E+03  0.33759027014E+03  0.56786079416E+03  0.00000000000E+00 0. -1.
          4    1    6    6  502    0  0.82629468922E+02 -0.88389051391E+02 -0.13476822637E+03  0.18111523509E+03  0.00000000000E+00 0. -1.
          1    1    5    5  503    0  0.39068011975E+03  0.73116583170E+03  0.42827810403E+03  0.93308979407E+03  0.00000000000E+00 0. -1.
         -2    1    5    5    0  503 -0.39471790906E+01  0.91298601914E+01  0.51725484634E+01  0.11211147466E+02  0.00000000000E+00 0.  1.
         -3    1    6    6    0  502  0.52866417459E+02 -0.79143850053E+02 -0.19884300290E+02  0.97231643482E+02  0.00000000000E+00 0.  1.
<mgrwt>
<rscale>  0 0.20022532E+04</rscale>
<asrwt>0</asrwt>
<pdfrwt beam="1">  1        1 0.22453315E+00 0.20022532E+04</pdfrwt>
<pdfrwt beam="2">  1       -1 0.10565032E+00 0.20022532E+04</pdfrwt>
<totfact> 0.54328791E+00</totfact>
</mgrwt>
</event>
<event>
12    1  0.1519630E-007  0.1658285E+04  0.7818608E-02  0.8785520E-01
         -1   -1    0    0    0  501 -0.00000000000E+00  0.00000000000E+00  0.51415555569E+03  0.51415555569E+03  0.00000000000E+00 0.  1.
          1   -1    0    0  501    0  0.00000000000E+00 -0.00000000000E+00 -0.13370990839E+04  0.13370990839E+04  0.00000000000E+00 0. -1.
         23    2    1    2    0    0 -0.48163135528E+03 -0.30274817574E+03 -0.39381610439E+03  0.69868636825E+03  0.97192061398E+02 0.  0.
        254    2    1    2    0    0  0.48163135528E+03  0.30274817574E+03 -0.42912742381E+03  0.11525682713E+04  0.90589075163E+03 0.  0.
        -24    2    4    4    0    0  0.35146021530E+03 -0.22358433410E+03 -0.43084517858E+03  0.60435935028E+03  0.78156375159E+02 0.  0.
         24    2    4    4    0    0  0.13017113999E+03  0.52633250984E+03  0.17177547697E+01  0.54820892103E+03  0.80991566360E+02 0.  0.
         11    1    3    3    0    0 -0.42245763184E+03 -0.23745433752E+03 -0.36240019177E+03  0.60513544938E+03  0.00000000000E+00 0. -1.
        -11    1    3    3    0    0 -0.59173723450E+02 -0.65293838216E+02 -0.31415912622E+02  0.93550918872E+02  0.00000000000E+00 0.  1.
          4    1    6    6  502    0  0.40511030344E+02  0.32064440326E+03 -0.11934120128E+02  0.32341366722E+03  0.00000000000E+00 0. -1.
          3    1    5    5  503    0  0.22792952609E+02 -0.38415029984E+02 -0.64911708705E+02  0.78795705113E+02  0.00000000000E+00 0. -1.
         -4    1    5    5    0  503  0.32866726269E+03 -0.18516930412E+03 -0.36593346987E+03  0.52556364517E+03  0.00000000000E+00 0.  1.
         -3    1    6    6    0  502  0.89660109641E+02  0.20568810657E+03  0.13651874898E+02  0.22479525381E+03  0.00000000000E+00 0.  1.
<mgrwt>
<rscale>  0 0.16582846E+04</rscale>
<asrwt>0</asrwt>
<pdfrwt beam="1">  1        1 0.20570755E+00 0.16582846E+04</pdfrwt>
<pdfrwt beam="2">  1       -1 0.79100856E-01 0.16582846E+04</pdfrwt>
<totfact> 0.12987063E+01</totfact>
</mgrwt>
</event>
<event>
12    1  0.1519630E-007  0.1386353E+04  0.7818608E-02  0.8963757E-01
         -3   -1    0    0    0  501 -0.00000000000E+00  0.00000000000E+00  0.12007079720E+04  0.12007079720E+04  0.00000000000E+00 0.  1.
          3   -1    0    0  501    0  0.00000000000E+00 -0.00000000000E+00 -0.40017517494E+03  0.40017517494E+03  0.00000000000E+00 0. -1.
         23    2    1    2    0    0  0.69281940357E+02 -0.37603521279E+03  0.28826145359E+03  0.48748487685E+03  0.91347528803E+02 0.  0.
        254    2    1    2    0    0 -0.69281940357E+02  0.37603521279E+03  0.51227134347E+03  0.11133982701E+04  0.91160918708E+03 0.  0.
        -24    2    4    4    0    0 -0.14520345318E+02  0.20604165457E+02  0.69648938403E+03  0.70126726211E+03  0.77736341441E+02 0.  0.
         24    2    4    4    0    0 -0.54761595039E+02  0.35543104733E+03 -0.18421804056E+03  0.41213100797E+03  0.81151830296E+02 0.  0.
         13    1    3    3    0    0  0.12889780669E+02 -0.11213475474E+02  0.37520414743E+02  0.41227054229E+02  0.00000000000E+00 0.  1.
        -13    1    3    3    0    0  0.56392159689E+02 -0.36482173731E+03  0.25074103884E+03  0.44625782262E+03  0.00000000000E+00 0. -1.
          2    1    6    6  502    0 -0.20182005683E+01  0.15460039249E+03 -0.11696046476E+03  0.19386878245E+03  0.00000000000E+00 0. -1.
          1    1    5    5  503    0 -0.37082931240E+02  0.35970298700E+02  0.36231065529E+03  0.36597543239E+03  0.00000000000E+00 0. -1.
         -2    1    5    5    0  503  0.22562585922E+02 -0.15366133243E+02  0.33417872874E+03  0.33529182972E+03  0.00000000000E+00 0.  1.
         -1    1    6    6    0  502 -0.52743394471E+02  0.20083065484E+03 -0.67257575798E+02  0.21826222551E+03  0.00000000000E+00 0.  1.
<mgrwt>
<rscale>  0 0.13863528E+04</rscale>
<asrwt>0</asrwt>
<pdfrwt beam="1">  1        3 0.61565412E-01 0.13863528E+04</pdfrwt>
<pdfrwt beam="2">  1       -3 0.18472430E+00 0.13863528E+04</pdfrwt>
<totfact> 0.12069665E+00</totfact>
</mgrwt>
</event>
<event>
12    1  0.1519630E-007  0.1408211E+04  0.7818608E-02  0.8947896E-01
          1   -1    0    0  501    0  0.00000000000E+00  0.00000000000E+00  0.14486888221E+04  0.14486888221E+04  0.00000000000E+00 0. -1.
         -1   -1    0    0    0  501 -0.00000000000E+00 -0.00000000000E+00 -0.34221624076E+03  0.34221624076E+03  0.00000000000E+00 0.  1.
         23    2    1    2    0    0 -0.75588926747E+02 -0.14892363893E+03 -0.19799833288E+03  0.27425167492E+03  0.90103858387E+02 0.  0.
        254    2    1    2    0    0  0.75588926747E+02  0.14892363893E+03  0.13044709142E+04  0.15166533879E+04  0.75544767986E+03 0.  0.
        -24    2    4    4    0    0  0.26413514456E+03 -0.21784531795E+03  0.63579961059E+03  0.72634781427E+03  0.78205149027E+02 0.  0.
         24    2    4    4    0    0 -0.18854621781E+03  0.36676895688E+03  0.66867130361E+03  0.79030557364E+03  0.85979320055E+02 0.  0.
         11    1    3    3    0    0  0.20393351872E+02 -0.32067028505E+02 -0.31802473116E+02  0.49553813314E+02  0.00000000000E+00 0. -1.
        -11    1    3    3    0    0 -0.95982278619E+02 -0.11685661042E+03 -0.16619585977E+03  0.22469786161E+03  0.00000000000E+00 0.  1.
          2    1    6    6  502    0 -0.18767092696E+03  0.34939441974E+03  0.66192121026E+03  0.77164533690E+03  0.00000000000E+00 0. -1.
          1    1    5    5  503    0  0.22799560595E+03 -0.20328080387E+03  0.60071115086E+03  0.67391317565E+03  0.00000000000E+00 0. -1.
         -2    1    5    5    0  503  0.36139538605E+02 -0.14564514083E+02  0.35088459729E+02  0.52434638620E+02  0.00000000000E+00 0.  1.
         -1    1    6    6    0  502 -0.87529085206E+00  0.17374537141E+02  0.67500933480E+01  0.18660236739E+02  0.00000000000E+00 0.  1.
<mgrwt>
<rscale>  0 0.14082114E+04</rscale>
<asrwt>0</asrwt>
<pdfrwt beam="1">  1        1 0.22287520E+00 0.14082114E+04</pdfrwt>
<pdfrwt beam="2">  1       -1 0.52648653E-01 0.14082114E+04</pdfrwt>
<totfact> 0.25160544E+01</totfact>
</mgrwt>
</event>
<event>
12    1  0.1519630E-007  0.1565035E+04  0.7818608E-02  0.8842321E-01
          2   -1    0    0  501    0  0.00000000000E+00  0.00000000000E+00  0.74127696345E+03  0.74127696345E+03  0.00000000000E+00 0. -1.
         -2   -1    0    0    0  501 -0.00000000000E+00 -0.00000000000E+00 -0.82605261019E+03  0.82605261019E+03  0.00000000000E+00 0.  1.
         23    2    1    2    0    0 -0.51003010018E+03 -0.52415102108E+02  0.18499086555E+02  0.52139283850E+03  0.92899030209E+02 0.  0.
        254    2    1    2    0    0  0.51003010018E+03  0.52415102108E+02 -0.10327473330E+03  0.10459367351E+04  0.90578139601E+03 0.  0.
        -24    2    4    4    0    0 -0.25332562863E+03  0.62254098660E+02 -0.33168503366E+02  0.27518618004E+03  0.81103866413E+02 0.  0.
         24    2    4    4    0    0  0.76335572881E+03 -0.98389965516E+01 -0.70106229938E+02  0.77075055510E+03  0.79578641282E+02 0.  0.
         13    1    3    3    0    0 -0.73401742640E+02  0.23816563501E+02 -0.65928900724E+01  0.77450053061E+02  0.00000000000E+00 0. -1.
        -13    1    3    3    0    0 -0.43662835754E+03 -0.76231665610E+02  0.25091976627E+02  0.44394278543E+03  0.00000000000E+00 0.  1.
          4    1    6    6  502    0  0.12127493854E+03  0.22459613315E+02 -0.28032334170E+02  0.12648263401E+03  0.00000000000E+00 0. -1.
          1    1    5    5  503    0 -0.18242171670E+03  0.13572156113E+02  0.21769857350E+00  0.18292603297E+03  0.00000000000E+00 0. -1.
         -2    1    5    5    0  503 -0.70903911934E+02  0.48681942547E+02 -0.33386201939E+02  0.92260147072E+02  0.00000000000E+00 0.  1.
         -3    1    6    6    0  502  0.64208079027E+03 -0.32298609867E+02 -0.42073895768E+02  0.64426792109E+03  0.00000000000E+00 0.  1.
<mgrwt>
<rscale>  0 0.15650352E+04</rscale>
<asrwt>0</asrwt>
<pdfrwt beam="1">  1        2 0.11404261E+00 0.15650352E+04</pdfrwt>
<pdfrwt beam="2">  1       -2 0.12708502E+00 0.15650352E+04</pdfrwt>
<totfact> 0.16833049E+01</totfact>
</mgrwt>
</event>
<event>
12    1  0.1519630E-007  0.1268550E+04  0.7818608E-02  0.9054884E-01
         -2   -1    0    0    0  501 -0.00000000000E+00  0.00000000000E+00  0.48166002172E+03  0.48166002172E+03  0.00000000000E+00 0.  1.
          2   -1    0    0  501    0  0.00000000000E+00 -0.00000000000E+00 -0.83524631655E+03  0.83524631655E+03  0.00000000000E+00 0. -1.
         23    2    1    2    0    0 -0.13867887183E+03 -0.28701343678E+03 -0.17256820070E+03  0.37374648896E+03  0.91093971976E+02 0.  0.
        254    2    1    2    0    0  0.13867887183E+03  0.28701343678E+03 -0.18101809412E+03  0.94315984932E+03  0.86900771491E+03 0.  0.
        -24    2    4    4    0    0  0.47769597106E+03  0.35735110153E+02 -0.22901516444E+02  0.48621693067E+03  0.80074873433E+02 0.  0.
         24    2    4    4    0    0 -0.33901709922E+03  0.25127832662E+03 -0.15811657768E+03  0.45694291864E+03  0.75647787562E+02 0.  0.
         11    1    3    3    0    0 -0.50043916931E+02 -0.16609245876E+03 -0.51240654988E+02  0.18087759176E+03  0.00000000000E+00 0. -1.
        -11    1    3    3    0    0 -0.88634954903E+02 -0.12092097802E+03 -0.12132754571E+03  0.19286889719E+03  0.00000000000E+00 0.  1.
          2    1    6    6  502    0 -0.10349776584E+03  0.72965181439E+02 -0.85338650925E+02  0.15270360368E+03  0.00000000000E+00 0. -1.
          3    1    5    5  503    0  0.20574784617E+03 -0.28241951498E+01 -0.45104865644E+02  0.21065279772E+03  0.00000000000E+00 0. -1.
         -4    1    5    5    0  503  0.27194812489E+03  0.38559305303E+02  0.22203349200E+02  0.27556413295E+03  0.00000000000E+00 0.  1.
         -1    1    6    6    0  502 -0.23551933339E+03  0.17831314519E+03 -0.72777926753E+02  0.30423931496E+03  0.00000000000E+00 0.  1.
<mgrwt>
<rscale>  0 0.12685500E+04</rscale>
<asrwt>0</asrwt>
<pdfrwt beam="1">  1        2 0.12849943E+00 0.12685500E+04</pdfrwt>
<pdfrwt beam="2">  1       -2 0.74101543E-01 0.12685500E+04</pdfrwt>
<totfact> 0.52386209E+01</totfact>
</mgrwt>
</event>
<event>
12    1  0.1519630E-007  0.3864515E+04  0.7818608E-02  0.8032450E-01
         -2   -1    0    0    0  501 -0.00000000000E+00  0.00000000000E+00  0.20511315144E+04  0.20511315144E+04  0.00000000000E+00 0.  1.
          2   -1    0    0  501    0  0.00000000000E+00 -0.00000000000E+00 -0.18202729176E+04  0.18202729176E+04  0.00000000000E+00 0. -1.
         23    2    1    2    0    0 -0.57964248509E+03 -0.13220821474E+04 -0.10090614528E+04  0.17636517093E+04  0.91518965998E+02 0.  0.
        254    2    1    2    0    0  0.57964248509E+03  0.13220821474E+04  0.12399200496E+04  0.21077527227E+04  0.90627434902E+03 0.  0.
        -24    2    4    4    0    0  0.34308321780E+03  0.13898035887E+04  0.11309304061E+04  0.18259570341E+04  0.76520567848E+02 0.  0.
         24    2    4    4    0    0  0.23655926730E+03 -0.67721441360E+02  0.10898964345E+03  0.28179568858E+03  0.83567859591E+02 0.  0.
         13    1    3    3    0    0 -0.46563548981E+03 -0.10240436676E+04 -0.74271061438E+03  0.13479988498E+04  0.00000000000E+00 0. -1.
        -13    1    3    3    0    0 -0.11400699528E+03 -0.29803847981E+03 -0.26635083847E+03  0.41565285946E+03  0.00000000000E+00 0.  1.
          4    1    6    6  502    0  0.16053653365E+03 -0.66470381934E+02  0.38184894229E+02  0.17789990573E+03  0.00000000000E+00 0. -1.
          3    1    5    5  503    0  0.31111738783E+03  0.12071227717E+04  0.10120141490E+04  0.16056500405E+04  0.00000000000E+00 0. -1.
         -4    1    5    5    0  503  0.31965829969E+02  0.18268081705E+03  0.11891625716E+03  0.22030699358E+03  0.00000000000E+00 0.  1.
         -3    1    6    6    0  502  0.76022733643E+02 -0.12510594260E+01  0.70804749226E+02  0.10389578285E+03  0.00000000000E+00 0.  1.
<mgrwt>
<rscale>  0 0.38645151E+04</rscale>
<asrwt>0</asrwt>
<pdfrwt beam="1">  1        2 0.28004199E+00 0.38645151E+04</pdfrwt>
<pdfrwt beam="2">  1       -2 0.31555870E+00 0.38645151E+04</pdfrwt>
<totfact> 0.17102064E-01</totfact>
</mgrwt>
</event>
<event>
12    1  0.1519630E-007  0.2013553E+04  0.7818608E-02  0.8600310E-01
         -2   -1    0    0    0  501 -0.00000000000E+00  0.00000000000E+00  0.33225341689E+03  0.33225341689E+03  0.00000000000E+00 0.  1.
          2   -1    0    0  501    0  0.00000000000E+00 -0.00000000000E+00 -0.30506794958E+04  0.30506794958E+04  0.00000000000E+00 0. -1.
         23    2    1    2    0    0 -0.48470350005E+02  0.65106603146E+03 -0.30662265612E+03  0.72700581917E+03  0.91014590608E+02 0.  0.
        254    2    1    2    0    0  0.48470350005E+02 -0.65106603146E+03 -0.24118034228E+04  0.26559270935E+04  0.90050909141E+03 0.  0.
        -24    2    4    4    0    0  0.33394759624E+02 -0.84509214572E+03 -0.21957155965E+04  0.23543378809E+04  0.80274106174E+02 0.  0.
         24    2    4    4    0    0  0.15075590381E+02  0.19402611425E+03 -0.21608782630E+03  0.30158921260E+03  0.79929331553E+02 0.  0.
         11    1    3    3    0    0 -0.33494811684E+02  0.63570603740E+03 -0.30381542023E+03  0.70537073796E+03  0.00000000000E+00 0.  1.
        -11    1    3    3    0    0 -0.14975538321E+02  0.15359994064E+02 -0.28072358861E+01  0.21635081210E+02  0.00000000000E+00 0. -1.
          2    1    6    6  502    0 -0.96181689405E+01  0.18122117789E+03 -0.17606053087E+03  0.25284567432E+03  0.00000000000E+00 0. -1.
          3    1    5    5  503    0  0.54515966305E+02 -0.62311040112E+03 -0.16695496201E+04  0.17828725407E+04  0.00000000000E+00 0. -1.
         -4    1    5    5    0  503 -0.21121206681E+02 -0.22198174460E+03 -0.52616597639E+03  0.57146534017E+03  0.00000000000E+00 0.  1.
         -1    1    6    6    0  502  0.24693759321E+02  0.12804936359E+02 -0.40027295427E+02  0.48743538277E+02  0.00000000000E+00 0.  1.
<mgrwt>
<rscale>  0 0.20135528E+04</rscale>
<asrwt>0</asrwt>
<pdfrwt beam="1">  1        2 0.46933529E+00 0.20135528E+04</pdfrwt>
<pdfrwt beam="2">  1       -2 0.51115913E-01 0.20135528E+04</pdfrwt>
<totfact> 0.54440701E+00</totfact>
</mgrwt>
</event>
<event>
12    1  0.1519630E-007  0.1576559E+04  0.7818608E-02  0.8835080E-01
          2   -1    0    0  501    0  0.00000000000E+00  0.00000000000E+00  0.92994481580E+03  0.92994481580E+03  0.00000000000E+00 0. -1.
         -2   -1    0    0    0  501 -0.00000000000E+00 -0.00000000000E+00 -0.66819507990E+03  0.66819507990E+03  0.00000000000E+00 0.  1.
         23    2    1    2    0    0 -0.37835140437E+03 -0.30854369176E+03 -0.65510366109E+02  0.50093740386E+03  0.91091600073E+02 0.  0.
        254    2    1    2    0    0  0.37835140437E+03  0.30854369176E+03  0.32726010201E+03  0.10972024918E+04  0.92650155899E+03 0.  0.
        -24    2    4    4    0    0  0.26251242870E+03  0.23580095202E+03 -0.28785859649E+03  0.46203162395E+03  0.78075513192E+02 0.  0.
         24    2    4    4    0    0  0.11583897566E+03  0.72742739739E+02  0.61511869850E+03  0.63517086789E+03  0.79754897684E+02 0.  0.
         11    1    3    3    0    0 -0.31058387241E+03 -0.22995585160E+03 -0.84153910958E+02  0.39550463489E+03  0.00000000000E+00 0.  1.
        -11    1    3    3    0    0 -0.67767531957E+02 -0.78587840157E+02  0.18643544849E+02  0.10543276897E+03  0.00000000000E+00 0. -1.
          4    1    6    6  502    0  0.44118339416E+02  0.67037469547E+02  0.23561379196E+03  0.24890622563E+03  0.00000000000E+00 0. -1.
          3    1    5    5  503    0  0.59004141427E+02  0.64839558228E+02 -0.32635963846E+02  0.93545513804E+02  0.00000000000E+00 0. -1.
         -4    1    5    5    0  503  0.20350828728E+03  0.17096139379E+03 -0.25522263264E+03  0.36848611014E+03  0.00000000000E+00 0.  1.
         -3    1    6    6    0  502  0.71720636249E+02  0.57052701920E+01  0.37950490654E+03  0.38626464226E+03  0.00000000000E+00 0.  1.
<mgrwt>
<rscale>  0 0.15765590E+04</rscale>
<asrwt>0</asrwt>
<pdfrwt beam="1">  1        2 0.14306843E+00 0.15765590E+04</pdfrwt>
<pdfrwt beam="2">  1       -2 0.10279924E+00 0.15765590E+04</pdfrwt>
<totfact> 0.20801605E+01</totfact>
</mgrwt>
</event>
<event>
12    1  0.1519630E-007  0.2677180E+04  0.7818608E-02  0.8342447E-01
          1   -1    0    0  501    0  0.00000000000E+00  0.00000000000E+00  0.20495705658E+04  0.20495705658E+04  0.00000000000E+00 0. -1.
         -1   -1    0    0    0  501 -0.00000000000E+00 -0.00000000000E+00 -0.87424337729E+03  0.87424337729E+03  0.00000000000E+00 0.  1.
         23    2    1    2    0    0 -0.40662365801E+03  0.77995711905E+03  0.13916724567E+04  0.16494552684E+04  0.10136344972E+03 0.  0.
        254    2    1    2    0    0  0.40662365801E+03 -0.77995711905E+03 -0.21634526819E+03  0.12743586747E+04  0.89638655158E+03 0.  0.
        -24    2    4    4    0    0 -0.90199575767E+02 -0.28205502746E+03  0.27597903930E+03  0.41234328330E+03  0.78559220785E+02 0.  0.
         24    2    4    4    0    0  0.49682323377E+03 -0.49790209159E+03 -0.49232430748E+03  0.86201539137E+03  0.77119989642E+02 0.  0.
         11    1    3    3    0    0 -0.37856723160E+03  0.65044670176E+03  0.11675661706E+04  0.13891021645E+04  0.00000000000E+00 0. -1.
        -11    1    3    3    0    0 -0.28056426403E+02  0.12951041729E+03  0.22410628605E+03  0.26035310387E+03  0.00000000000E+00 0.  1.
          2    1    6    6  502    0  0.46767506189E+03 -0.47113956866E+03 -0.44004840246E+03  0.79645153850E+03  0.00000000000E+00 0. -1.
          1    1    5    5  503    0 -0.85514551093E+02 -0.25513792148E+03  0.27536923484E+03  0.38501469183E+03  0.00000000000E+00 0. -1.
         -2    1    5    5    0  503 -0.46850246738E+01 -0.26917105982E+02  0.60980445460E+00  0.27328591477E+02  0.00000000000E+00 0.  1.
         -1    1    6    6    0  502  0.29148171883E+02 -0.26762522927E+02 -0.52275905026E+02  0.65563852875E+02  0.00000000000E+00 0.  1.
<mgrwt>
<rscale>  0 0.26771802E+04</rscale>
<asrwt>0</asrwt>
<pdfrwt beam="1">  1        1 0.31531855E+00 0.26771802E+04</pdfrwt>
<pdfrwt beam="2">  1       -1 0.13449898E+00 0.26771802E+04</pdfrwt>
<totfact> 0.11218292E+00</totfact>
</mgrwt>
</event>
<event>
12    1  0.1519630E-007  0.3845491E+04  0.7818608E-02  0.8036462E-01
          2   -1    0    0  501    0  0.00000000000E+00  0.00000000000E+00  0.35829167622E+04  0.35829167622E+04  0.00000000000E+00 0. -1.
         -2   -1    0    0    0  501 -0.00000000000E+00 -0.00000000000E+00 -0.10318272254E+04  0.10318272254E+04  0.00000000000E+00 0.  1.
         23    2    1    2    0    0 -0.81973034768E+02 -0.21184899575E+03 -0.95610935824E+03  0.98696810674E+03  0.91440490899E+02 0.  0.
        254    2    1    2    0    0  0.81973034768E+02  0.21184899575E+03  0.35071988951E+04  0.36277758808E+04  0.89928536977E+03 0.  0.
        -24    2    4    4    0    0 -0.26968747337E+03  0.16944191885E+03  0.29145452643E+04  0.29328194036E+04  0.73577573668E+02 0.  0.
         24    2    4    4    0    0  0.35166050814E+03  0.42407076903E+02  0.59265363080E+03  0.69495647722E+03  0.79137260384E+02 0.  0.
         11    1    3    3    0    0 -0.22836479235E+02 -0.11944727325E+02 -0.41102785532E+02  0.48514124472E+02  0.00000000000E+00 0. -1.
        -11    1    3    3    0    0 -0.59136555533E+02 -0.19990426842E+03 -0.91500657271E+03  0.93845398227E+03  0.00000000000E+00 0.  1.
          4    1    6    6  502    0  0.34081858894E+03  0.56077542467E+02  0.56067015381E+03  0.65852336535E+03  0.00000000000E+00 0. -1.
          3    1    5    5  503    0 -0.14957343150E+03  0.53808473194E+02  0.15483175643E+04  0.15564558597E+04  0.00000000000E+00 0. -1.
         -4    1    5    5    0  503 -0.12011404186E+03  0.11563344565E+03  0.13662277000E+04  0.13763635439E+04  0.00000000000E+00 0.  1.
         -1    1    6    6    0  502  0.10841919196E+02 -0.13670465564E+02  0.31983476988E+02  0.36433111874E+02  0.00000000000E+00 0.  1.
<mgrwt>
<rscale>  0 0.38454914E+04</rscale>
<asrwt>0</asrwt>
<pdfrwt beam="1">  1        2 0.55121796E+00 0.38454914E+04</pdfrwt>
<pdfrwt beam="2">  1       -2 0.15874265E+00 0.38454914E+04</pdfrwt>
<totfact> 0.14570380E-01</totfact>
</mgrwt>
</event>
<event>
12    1  0.1519630E-007  0.2951635E+04  0.7818608E-02  0.8257678E-01
         -2   -1    0    0    0  501 -0.00000000000E+00  0.00000000000E+00  0.68011390772E+03  0.68011390772E+03  0.00000000000E+00 0.  1.
          2   -1    0    0  501    0  0.00000000000E+00 -0.00000000000E+00 -0.32024602615E+04  0.32024602615E+04  0.00000000000E+00 0. -1.
         23    2    1    2    0    0 -0.95686014297E+03 -0.57687019591E+03 -0.18684362187E+03  0.11365671581E+04  0.92270307665E+02 0.  0.
        254    2    1    2    0    0  0.95686014297E+03  0.57687019591E+03 -0.23355027319E+04  0.27460070111E+04  0.91521633411E+03 0.  0.
        -24    2    4    4    0    0  0.12114307308E+03 -0.18293575689E+03 -0.12957620639E+03  0.26651105461E+03  0.78083376341E+02 0.  0.
         24    2    4    4    0    0  0.83571706989E+03  0.75980595280E+03 -0.22059265255E+04  0.24794959565E+04  0.77847643120E+02 0.  0.
         13    1    3    3    0    0 -0.11405739533E+03 -0.10586933221E+03 -0.25357522872E+02  0.15767183927E+03  0.00000000000E+00 0. -1.
        -13    1    3    3    0    0 -0.84280274765E+03 -0.47100086370E+03 -0.16148609899E+03  0.97889531882E+03  0.00000000000E+00 0.  1.
          4    1    6    6  502    0  0.54162547273E+03  0.44895168151E+03 -0.13279993412E+04  0.15028300022E+04  0.00000000000E+00 0. -1.
          3    1    5    5  503    0  0.72441153522E+02 -0.15804199507E+03 -0.11932448366E+03  0.21086328587E+03  0.00000000000E+00 0. -1.
         -4    1    5    5    0  503  0.48701919556E+02 -0.24893761822E+02 -0.10251722736E+02  0.55647768735E+02  0.00000000000E+00 0.  1.
         -3    1    6    6    0  502  0.29409159716E+03  0.31085427129E+03 -0.87792718429E+03  0.97666595436E+03  0.00000000000E+00 0.  1.
<mgrwt>
<rscale>  0 0.29516353E+04</rscale>
<asrwt>0</asrwt>
<pdfrwt beam="1">  1        2 0.49268620E+00 0.29516353E+04</pdfrwt>
<pdfrwt beam="2">  1       -2 0.10463291E+00 0.29516353E+04</pdfrwt>
<totfact> 0.82255764E-01</totfact>
</mgrwt>
</event>
<event>
12    1  0.1519630E-007  0.2623013E+04  0.7818608E-02  0.8360426E-01
         -1   -1    0    0    0  501 -0.00000000000E+00  0.00000000000E+00  0.97370048650E+03  0.97370048650E+03  0.00000000000E+00 0.  1.
          1   -1    0    0  501    0  0.00000000000E+00 -0.00000000000E+00 -0.17665080784E+04  0.17665080784E+04  0.00000000000E+00 0. -1.
         23    2    1    2    0    0 -0.73700164027E+02 -0.33631618387E+03  0.80589452078E+03  0.88071702097E+03  0.87499729701E+02 0.  0.
        254    2    1    2    0    0  0.73700164027E+02  0.33631618387E+03 -0.15987021127E+04  0.18594915440E+04  0.88505370864E+03 0.  0.
        -24    2    4    4    0    0  0.33812770908E+03  0.21967176400E+03 -0.14816368766E+04  0.15375628363E+04  0.79155606559E+02 0.  0.
         24    2    4    4    0    0 -0.26442754505E+03  0.11664441987E+03 -0.11706523615E+03  0.32192870766E+03  0.80037341461E+02 0.  0.
         11    1    3    3    0    0  0.52446190295E+01 -0.33071351058E+02  0.15165250010E+03  0.15530518689E+03  0.00000000000E+00 0. -1.
        -11    1    3    3    0    0 -0.78944783056E+02 -0.30324483281E+03  0.65424202068E+03  0.72541183408E+03  0.00000000000E+00 0.  1.
          4    1    6    6  502    0 -0.80165678604E+02  0.69773186068E+02 -0.65840741955E+02  0.12501934579E+03  0.00000000000E+00 0. -1.
          3    1    5    5  503    0  0.37921370042E+02 -0.10628823848E+01 -0.15653451872E+03  0.16106587341E+03  0.00000000000E+00 0. -1.
         -4    1    5    5    0  503  0.30020633904E+03  0.22073464638E+03 -0.13251023579E+04  0.13764969629E+04  0.00000000000E+00 0.  1.
         -1    1    6    6    0  502 -0.18426186645E+03  0.46871233805E+02 -0.51224494193E+02  0.19690936187E+03  0.00000000000E+00 0.  1.
<mgrwt>
<rscale>  0 0.26230134E+04</rscale>
<asrwt>0</asrwt>
<pdfrwt beam="1">  1        1 0.27177047E+00 0.26230134E+04</pdfrwt>
<pdfrwt beam="2">  1       -1 0.14980008E+00 0.26230134E+04</pdfrwt>
<totfact> 0.13214417E+00</totfact>
</mgrwt>
</event>
<event>
12    1  0.1519630E-007  0.1755718E+04  0.7818608E-02  0.8730209E-01
          2   -1    0    0  501    0  0.00000000000E+00  0.00000000000E+00  0.11651530160E+04  0.11651530160E+04  0.00000000000E+00 0. -1.
         -2   -1    0    0    0  501 -0.00000000000E+00 -0.00000000000E+00 -0.66140380222E+03  0.66140380222E+03  0.00000000000E+00 0.  1.
         23    2    1    2    0    0 -0.19738943935E+03  0.51266274392E+03  0.54150858897E+03  0.77772726077E+03  0.99209175229E+02 0.  0.
        254    2    1    2    0    0  0.19738943935E+03 -0.51266274392E+03 -0.37759375160E+02  0.10488295575E+04  0.89265446307E+03 0.  0.
        -24    2    4    4    0    0  0.13509709667E+03  0.24005489182E+03  0.20459573944E+02  0.28722792919E+03  0.78763649771E+02 0.  0.
         24    2    4    4    0    0  0.62292342677E+02 -0.75271763575E+03 -0.58218949104E+02  0.76160162828E+03  0.78634719055E+02 0.  0.
         13    1    3    3    0    0 -0.96685934471E+02  0.30099259682E+03  0.37348859696E+03  0.48932447857E+03  0.00000000000E+00 0. -1.
        -13    1    3    3    0    0 -0.10070350488E+03  0.21167014710E+03  0.16801999200E+03  0.28840278220E+03  0.00000000000E+00 0.  1.
          4    1    6    6  502    0  0.75319450997E+02 -0.68644205734E+03 -0.40377977123E+02  0.69174135255E+03  0.00000000000E+00 0. -1.
          3    1    5    5  503    0  0.99734876548E+02  0.17754812544E+03 -0.20298428086E+02  0.20465192066E+03  0.00000000000E+00 0. -1.
         -4    1    5    5    0  503  0.35362220126E+02  0.62506766386E+02  0.40758002030E+02  0.82576008536E+02  0.00000000000E+00 0.  1.
         -3    1    6    6    0  502 -0.13027108320E+02 -0.66275578401E+02 -0.17840971981E+02  0.69860275728E+02  0.00000000000E+00 0.  1.
<mgrwt>
<rscale>  0 0.17557182E+04</rscale>
<asrwt>0</asrwt>
<pdfrwt beam="1">  1        2 0.17925431E+00 0.17557182E+04</pdfrwt>
<pdfrwt beam="2">  1       -2 0.10175443E+00 0.17557182E+04</pdfrwt>
<totfact> 0.14926702E+01</totfact>
</mgrwt>
</event>
<event>
12    1  0.1519630E-007  0.2344375E+04  0.7818608E-02  0.8460627E-01
         -2   -1    0    0    0  501 -0.00000000000E+00  0.00000000000E+00  0.48965037937E+03  0.48965037937E+03  0.00000000000E+00 0.  1.
          2   -1    0    0  501    0  0.00000000000E+00 -0.00000000000E+00 -0.28061319473E+04  0.28061319473E+04  0.00000000000E+00 0. -1.
         23    2    1    2    0    0  0.96835345745E+03  0.62416506535E+02 -0.13087464325E+04  0.16317762801E+04  0.90952541225E+02 0.  0.
        254    2    1    2    0    0 -0.96835345745E+03 -0.62416506535E+02 -0.10077351354E+04  0.16640060466E+04  0.90098933458E+03 0.  0.
        -24    2    4    4    0    0 -0.34426603572E+03 -0.10483391593E+03  0.10652521935E+03  0.38371732236E+03  0.79888095717E+02 0.  0.
         24    2    4    4    0    0 -0.62408742173E+03  0.42417409394E+02 -0.11142603547E+04  0.12802887242E+04  0.79238453962E+02 0.  0.
         13    1    3    3    0    0  0.47906227204E+02 -0.10639495140E+02 -0.44482245958E+02  0.66233493546E+02  0.00000000000E+00 0. -1.
        -13    1    3    3    0    0  0.92044723025E+03  0.73056001674E+02 -0.12642641866E+04  0.15655427865E+04  0.00000000000E+00 0.  1.
          4    1    6    6  502    0 -0.21682096700E+03 -0.22994597314E+02 -0.38724268454E+03  0.44440632305E+03  0.00000000000E+00 0. -1.
          3    1    5    5  503    0 -0.12479843370E+03 -0.23522356394E+02  0.75182878523E+02  0.14758189431E+03  0.00000000000E+00 0. -1.
         -4    1    5    5    0  503 -0.21946760202E+03 -0.81311559534E+02  0.31342340831E+02  0.23613542805E+03  0.00000000000E+00 0.  1.
         -3    1    6    6    0  502 -0.40726645473E+03  0.65412006708E+02 -0.72701767020E+03  0.83588240114E+03  0.00000000000E+00 0.  1.
<mgrwt>
<rscale>  0 0.23443750E+04</rscale>
<asrwt>0</asrwt>
<pdfrwt beam="1">  1        2 0.43171260E+00 0.23443750E+04</pdfrwt>
<pdfrwt beam="2">  1       -2 0.75330828E-01 0.23443750E+04</pdfrwt>
<totfact> 0.32758431E+00</totfact>
</mgrwt>
</event>
<event>
12    1  0.1519630E-007  0.1631115E+04  0.7818608E-02  0.8801658E-01
          2   -1    0    0  501    0  0.00000000000E+00  0.00000000000E+00  0.84180545748E+03  0.84180545748E+03  0.00000000000E+00 0. -1.
         -2   -1    0    0    0  501 -0.00000000000E+00 -0.00000000000E+00 -0.79012797976E+03  0.79012797976E+03  0.00000000000E+00 0.  1.
         23    2    1    2    0    0  0.31225197464E+03 -0.33641118986E+03  0.31942761286E+03  0.56702343891E+03  0.93849859258E+02 0.  0.
        254    2    1    2    0    0 -0.31225197464E+03  0.33641118986E+03 -0.26775013514E+03  0.10649099983E+04  0.92285935295E+03 0.  0.
        -24    2    4    4    0    0 -0.33574192930E+03 -0.24853734446E+03 -0.24804558189E+02  0.42585956858E+03  0.79042086001E+02 0.  0.
         24    2    4    4    0    0  0.23489954658E+02  0.58494853432E+03 -0.24294557695E+03  0.63905042975E+03  0.81525042945E+02 0.  0.
         13    1    3    3    0    0  0.50125126405E+02 -0.21592830966E+02  0.64617405802E+02  0.84582431857E+02  0.00000000000E+00 0.  1.
        -13    1    3    3    0    0  0.26212684824E+03 -0.31481835890E+03  0.25481020706E+03  0.48244100705E+03  0.00000000000E+00 0. -1.
          4    1    6    6  502    0  0.25099934608E+02  0.54008508440E+03 -0.24610905693E+03  0.59404677679E+03  0.00000000000E+00 0. -1.
          1    1    5    5  503    0 -0.23220778633E+03 -0.21450672362E+03 -0.16223385555E+02  0.31653876343E+03  0.00000000000E+00 0. -1.
         -2    1    5    5    0  503 -0.10353414297E+03 -0.34030620835E+02 -0.85811726341E+01  0.10932080515E+03  0.00000000000E+00 0.  1.
         -3    1    6    6    0  502 -0.16099799495E+01  0.44863449925E+02  0.31634799774E+01  0.45003652965E+02  0.00000000000E+00 0.  1.
<mgrwt>
<rscale>  0 0.16311150E+04</rscale>
<asrwt>0</asrwt>
<pdfrwt beam="1">  1        2 0.12950853E+00 0.16311150E+04</pdfrwt>
<pdfrwt beam="2">  1       -2 0.12155815E+00 0.16311150E+04</pdfrwt>
<totfact> 0.15819657E+01</totfact>
</mgrwt>
</event>
<event>
12    1  0.1519630E-007  0.1979015E+04  0.7818608E-02  0.8616495E-01
         -1   -1    0    0    0  501 -0.00000000000E+00  0.00000000000E+00  0.10040167008E+04  0.10040167008E+04  0.00000000000E+00 0.  1.
          1   -1    0    0  501    0  0.00000000000E+00 -0.00000000000E+00 -0.97520775979E+03  0.97520775979E+03  0.00000000000E+00 0. -1.
         23    2    1    2    0    0 -0.49359829668E+03 -0.28649268213E+03  0.51432351016E+03  0.77370016327E+03  0.91465480550E+02 0.  0.
        254    2    1    2    0    0  0.49359829668E+03  0.28649268213E+03 -0.48551456915E+03  0.12055242973E+04  0.94437656640E+03 0.  0.
        -24    2    4    4    0    0  0.17195750994E+03  0.63229578944E+02 -0.71683647750E+03  0.74407271669E+03  0.78881603515E+02 0.  0.
         24    2    4    4    0    0  0.32164078675E+03  0.22326310319E+03  0.23132190834E+03  0.46145158063E+03  0.78284909455E+02 0.  0.
         13    1    3    3    0    0 -0.48124645799E+03 -0.29088561065E+03  0.48909777004E+03  0.74527123953E+03  0.00000000000E+00 0.  1.
        -13    1    3    3    0    0 -0.12351838695E+02  0.43929285253E+01  0.25225740122E+02  0.28428923738E+02  0.00000000000E+00 0. -1.
          2    1    6    6  502    0  0.12165802814E+03  0.80517696775E+02  0.13094634332E+03  0.19603754777E+03  0.00000000000E+00 0. -1.
          3    1    5    5  503    0  0.11722751054E+03  0.18836220866E+02 -0.32632460717E+03  0.34725328175E+03  0.00000000000E+00 0. -1.
         -4    1    5    5    0  503  0.54729999394E+02  0.44393358078E+02 -0.39051187033E+03  0.39681943494E+03  0.00000000000E+00 0.  1.
         -1    1    6    6    0  502  0.19998275860E+03  0.14274540641E+03  0.10037556502E+03  0.26541403287E+03  0.00000000000E+00 0.  1.
<mgrwt>
<rscale>  0 0.19790148E+04</rscale>
<asrwt>0</asrwt>
<pdfrwt beam="1">  1        1 0.15003196E+00 0.19790148E+04</pdfrwt>
<pdfrwt beam="2">  1       -1 0.15446411E+00 0.19790148E+04</pdfrwt>
<totfact> 0.47386974E+00</totfact>
</mgrwt>
</event>
<event>
12    1  0.1519630E-007  0.1445108E+04  0.7818608E-02  0.8921799E-01
          2   -1    0    0  501    0  0.00000000000E+00  0.00000000000E+00  0.25862416188E+04  0.25862416188E+04  0.00000000000E+00 0.  1.
         -2   -1    0    0    0  501 -0.00000000000E+00 -0.00000000000E+00 -0.20186997291E+03  0.20186997291E+03  0.00000000000E+00 0. -1.
         23    2    1    2    0    0  0.89068977867E+02 -0.12550219606E+03  0.14350501326E+04  0.14456785287E+04  0.83267287612E+02 0.  0.
        254    2    1    2    0    0 -0.89068977867E+02  0.12550219606E+03  0.94932151330E+03  0.13424330630E+04  0.93660616542E+03 0.  0.
        -24    2    4    4    0    0 -0.24563633429E+03  0.17822331186E+03  0.10760367798E+04  0.11208625214E+04  0.79855387673E+02 0.  0.
         24    2    4    4    0    0  0.15656735643E+03 -0.52721115801E+02 -0.12671526646E+03  0.22157054161E+03  0.75788475433E+02 0.  0.
         13    1    3    3    0    0  0.37911916603E+01  0.11985911167E+02  0.76063490844E+02  0.77095329561E+02  0.00000000000E+00 0. -1.
        -13    1    3    3    0    0  0.85277786206E+02 -0.13748810723E+03  0.13589866418E+04  0.13685831991E+04  0.00000000000E+00 0.  1.
          2    1    6    6  502    0  0.11022675143E+03 -0.59226174882E+02 -0.12162390857E+03  0.17449943169E+03  0.00000000000E+00 0. -1.
          3    1    5    5  503    0 -0.57406765969E+02  0.88013903148E+02  0.36156931744E+03  0.37652935508E+03  0.00000000000E+00 0. -1.
         -2    1    5    5    0  503 -0.18822956832E+03  0.90209408712E+02  0.71446746231E+03  0.74433316634E+03  0.00000000000E+00 0.  1.
         -1    1    6    6    0  502  0.46340604991E+02  0.65050590808E+01 -0.50913578844E+01  0.47071109926E+02  0.00000000000E+00 0.  1.
<mgrwt>
<rscale>  0 0.14451083E+04</rscale>
<asrwt>0</asrwt>
<pdfrwt beam="1">  1        2 0.39788330E+00 0.14451083E+04</pdfrwt>
<pdfrwt beam="2">  1       -2 0.31056921E-01 0.14451083E+04</pdfrwt>
<totfact> 0.29020505E+01</totfact>
</mgrwt>
</event>
<event>
12    1  0.1519630E-007  0.1449531E+04  0.7818608E-02  0.8918726E-01
         -2   -1    0    0    0  501 -0.00000000000E+00  0.00000000000E+00  0.14110934264E+03  0.14110934264E+03  0.00000000000E+00 0. -1.
          2   -1    0    0  501    0  0.00000000000E+00 -0.00000000000E+00 -0.37225391829E+04  0.37225391829E+04  0.00000000000E+00 0.  1.
         23    2    1    2    0    0 -0.19043444328E+03 -0.45240873200E+02 -0.74021216791E+02  0.22804571712E+03  0.90629436520E+02 0.  0.
        254    2    1    2    0    0  0.19043444328E+03  0.45240873200E+02 -0.35074086234E+04  0.36356028084E+04  0.93668592109E+03 0.  0.
        -24    2    4    4    0    0  0.33036199962E+03 -0.13800285167E+01 -0.34360973282E+04  0.34528835928E+04  0.80618243714E+02 0.  0.
         24    2    4    4    0    0 -0.13992755634E+03  0.46620901716E+02 -0.71311295226E+02  0.18271921558E+03  0.80918362662E+02 0.  0.
         11    1    3    3    0    0 -0.16673977788E+03 -0.30415966003E+02 -0.93884292959E+02  0.19375640629E+03  0.00000000000E+00 0. -1.
        -11    1    3    3    0    0 -0.23694665403E+02 -0.14824907196E+02  0.19863076168E+02  0.34289310824E+02  0.00000000000E+00 0.  1.
          4    1    6    6  502    0 -0.13724722293E+03  0.27832052823E+02 -0.80610644033E+02  0.16158434113E+03  0.00000000000E+00 0. -1.
          3    1    5    5  503    0  0.27388052711E+03  0.27602760775E+02 -0.26655677116E+04  0.26797432117E+04  0.00000000000E+00 0. -1.
         -4    1    5    5    0  503  0.56481472511E+02 -0.28982789292E+02 -0.77052961659E+03  0.77314038108E+03  0.00000000000E+00 0.  1.
         -3    1    6    6    0  502 -0.26803334089E+01  0.18788848894E+02  0.92993488065E+01  0.21134874453E+02  0.00000000000E+00 0.  1.
<mgrwt>
<rscale>  0 0.14495310E+04</rscale>
<asrwt>0</asrwt>
<pdfrwt beam="1">  1        2 0.57269833E+00 0.14495310E+04</pdfrwt>
<pdfrwt beam="2">  1       -2 0.21709130E-01 0.14495310E+04</pdfrwt>
<totfact> 0.10272867E+01</totfact>
</mgrwt>
</event>
<event>
12    1  0.1519630E-007  0.3320821E+04  0.7818608E-02  0.8157618E-01
          1   -1    0    0  501    0  0.00000000000E+00  0.00000000000E+00  0.17084655745E+04  0.17084655745E+04  0.00000000000E+00 0. -1.
         -1   -1    0    0    0  501 -0.00000000000E+00 -0.00000000000E+00 -0.16137072111E+04  0.16137072111E+04  0.00000000000E+00 0.  1.
         23    2    1    2    0    0  0.44147664711E+03 -0.12780347266E+04 -0.68618752133E+03  0.15186678146E+04  0.84995437814E+02 0.  0.
        254    2    1    2    0    0 -0.44147664711E+03  0.12780347266E+04  0.78094588474E+03  0.18035049710E+04  0.90248507660E+03 0.  0.
        -24    2    4    4    0    0 -0.52946430376E+03  0.59426518854E+03  0.59399125053E+02  0.80230048109E+03  0.81696038009E+02 0.  0.
         24    2    4    4    0    0  0.87987656651E+02  0.68376953801E+03  0.72154675969E+03  0.10012044900E+04  0.80610765201E+02 0.  0.
         11    1    3    3    0    0  0.85073120992E+02 -0.25607660198E+03 -0.17569164275E+03  0.32199412313E+03  0.00000000000E+00 0. -1.
        -11    1    3    3    0    0  0.35640352612E+03 -0.10219581246E+04 -0.51049587858E+03  0.11966736915E+04  0.00000000000E+00 0.  1.
          4    1    6    6  502    0  0.53298580493E+02  0.39229749761E+03  0.47098593235E+03  0.61527702199E+03  0.00000000000E+00 0. -1.
          3    1    5    5  503    0 -0.30693185900E+03  0.40167497037E+03  0.47782082451E+02  0.50777266103E+03  0.00000000000E+00 0. -1.
         -4    1    5    5    0  503 -0.22253244476E+03  0.19259021818E+03  0.11617042603E+02  0.29452782006E+03  0.00000000000E+00 0.  1.
         -3    1    6    6    0  502  0.34689076157E+02  0.29147204039E+03  0.25056082733E+03  0.38592746796E+03  0.00000000000E+00 0.  1.
<mgrwt>
<rscale>  0 0.33208211E+04</rscale>
<asrwt>0</asrwt>
<pdfrwt beam="1">  1        1 0.26284086E+00 0.33208211E+04</pdfrwt>
<pdfrwt beam="2">  1       -1 0.24826265E+00 0.33208211E+04</pdfrwt>
<totfact> 0.27875637E-01</totfact>
</mgrwt>
</event>
<event>
12    1  0.1519630E-007  0.3178768E+04  0.7818608E-02  0.8194447E-01
         -2   -1    0    0    0  501 -0.00000000000E+00  0.00000000000E+00  0.10888257698E+04  0.10888257698E+04  0.00000000000E+00 0.  1.
          2   -1    0    0  501    0  0.00000000000E+00 -0.00000000000E+00 -0.23200597163E+04  0.23200597163E+04  0.00000000000E+00 0. -1.
         23    2    1    2    0    0 -0.10190112269E+04  0.10105329054E+04 -0.55562011241E+03  0.15416504074E+04  0.91714972083E+02 0.  0.
        254    2    1    2    0    0  0.10190112269E+04 -0.10105329054E+04 -0.67561383409E+03  0.18672350786E+04  0.98516605334E+03 0.  0.
        -24    2    4    4    0    0 -0.13470712075E+03 -0.24789666886E+03  0.59373046021E+02  0.29897535844E+03  0.79134945158E+02 0.  0.
         24    2    4    4    0    0  0.11537183476E+04 -0.76263623653E+03 -0.73498688011E+03  0.15682597202E+04  0.80949250204E+02 0.  0.
         11    1    3    3    0    0 -0.13121520453E+03  0.17115275696E+03 -0.67570332417E+02  0.22600098659E+03  0.00000000000E+00 0. -1.
        -11    1    3    3    0    0 -0.88779602233E+03  0.83938014843E+03 -0.48804977999E+03  0.13156494209E+04  0.00000000000E+00 0.  1.
          2    1    6    6  502    0  0.71857931302E+03 -0.51004204952E+03 -0.49681587539E+03  0.10115953417E+04  0.00000000000E+00 0. -1.
          1    1    5    5  503    0 -0.71439894146E+02 -0.14151901238E+03  0.72865159698E+02  0.17447240710E+03  0.00000000000E+00 0. -1.
         -4    1    5    5    0  503 -0.63267226606E+02 -0.10637765648E+03 -0.13492113677E+02  0.12450295134E+03  0.00000000000E+00 0.  1.
         -1    1    6    6    0  502  0.43513903459E+03 -0.25259418701E+03 -0.23817100472E+03  0.55666437844E+03  0.00000000000E+00 0.  1.
<mgrwt>
<rscale>  0 0.31787676E+04</rscale>
<asrwt>0</asrwt>
<pdfrwt beam="1">  1        2 0.35693226E+00 0.31787676E+04</pdfrwt>
<pdfrwt beam="2">  1       -2 0.16751166E+00 0.31787676E+04</pdfrwt>
<totfact> 0.82711910E-01</totfact>
</mgrwt>
</event>
<event>
12    1  0.1519630E-007  0.1908721E+04  0.7818608E-02  0.8650528E-01
          1   -1    0    0  501    0  0.00000000000E+00  0.00000000000E+00  0.54630539096E+03  0.54630539096E+03  0.00000000000E+00 0. -1.
         -1   -1    0    0    0  501 -0.00000000000E+00 -0.00000000000E+00 -0.16672063967E+04  0.16672063967E+04  0.00000000000E+00 0.  1.
         23    2    1    2    0    0 -0.57671716492E+03  0.30378135135E+03 -0.83405918660E+03  0.10624087280E+04  0.90397903168E+02 0.  0.
        254    2    1    2    0    0  0.57671716492E+03 -0.30378135135E+03 -0.28684181914E+03  0.11511030596E+04  0.90436399031E+03 0.  0.
        -24    2    4    4    0    0  0.62295520178E+03 -0.24499196511E+03 -0.54741104443E+03  0.86854622412E+03  0.81359974672E+02 0.  0.
         24    2    4    4    0    0 -0.46238036862E+02 -0.58789386244E+02  0.26056922529E+03  0.28255683552E+03  0.79673685373E+02 0.  0.
         11    1    3    3    0    0 -0.49347123469E+03  0.25660062450E+03 -0.65421615475E+03  0.85869465883E+03  0.00000000000E+00 0.  1.
        -11    1    3    3    0    0 -0.83245930228E+02  0.47180726853E+02 -0.17984303185E+03  0.20371406920E+03  0.00000000000E+00 0. -1.
          4    1    6    6  502    0 -0.36109177744E+02  0.72223292545E+01  0.53220500667E+02  0.64718285271E+02  0.00000000000E+00 0. -1.
          1    1    5    5  503    0  0.64133708788E+02 -0.53872331359E+00 -0.59026246729E+02  0.87163757541E+02  0.00000000000E+00 0. -1.
         -2    1    5    5    0  503  0.55882149299E+03 -0.24445324179E+03 -0.48838479770E+03  0.78138246658E+03  0.00000000000E+00 0.  1.
         -3    1    6    6    0  502 -0.10128859118E+02 -0.66011715499E+02  0.20734872462E+03  0.21783855025E+03  0.00000000000E+00 0.  1.
<mgrwt>
<rscale>  0 0.19087209E+04</rscale>
<asrwt>0</asrwt>
<pdfrwt beam="1">  1        1 0.84046985E-01 0.19087209E+04</pdfrwt>
<pdfrwt beam="2">  1       -1 0.25649329E+00 0.19087209E+04</pdfrwt>
<totfact> 0.23156685E+00</totfact>
</mgrwt>
</event>
<event>
12    1  0.1519630E-007  0.2276250E+04  0.7818608E-02  0.8487344E-01
          2   -1    0    0  501    0  0.00000000000E+00  0.00000000000E+00  0.20285503770E+04  0.20285503770E+04  0.00000000000E+00 0. -1.
         -2   -1    0    0    0  501 -0.00000000000E+00 -0.00000000000E+00 -0.63854912263E+03  0.63854912263E+03  0.00000000000E+00 0.  1.
         23    2    1    2    0    0  0.83963434430E+03  0.35381144407E+03  0.93527010342E+03  0.13092446373E+04  0.96036367923E+02 0.  0.
        254    2    1    2    0    0 -0.83963434430E+03 -0.35381144407E+03  0.45473115095E+03  0.13578548623E+04  0.89823217339E+03 0.  0.
        -24    2    4    4    0    0 -0.18080544347E+03 -0.23778116604E+03  0.59431437054E+03  0.66996690511E+03  0.80097388192E+02 0.  0.
         24    2    4    4    0    0 -0.65882890083E+03 -0.11603027803E+03 -0.13958321959E+03  0.68788795718E+03  0.78662700518E+02 0.  0.
         13    1    3    3    0    0  0.66018223751E+03  0.23479744927E+03  0.72568293690E+03  0.10087547540E+04  0.00000000000E+00 0. -1.
        -13    1    3    3    0    0  0.17945210679E+03  0.11901399480E+03  0.20958716652E+03  0.30048988329E+03  0.00000000000E+00 0.  1.
          4    1    6    6  502    0 -0.27079504725E+02 -0.17257020717E+02 -0.18631868533E+02  0.37124801215E+02  0.00000000000E+00 0. -1.
          1    1    5    5  503    0 -0.23499839232E+02 -0.15472300359E+02  0.20519108535E+02  0.34823387793E+02  0.00000000000E+00 0. -1.
         -2    1    5    5    0  503 -0.15730560424E+03 -0.22230886568E+03  0.57379526201E+03  0.63514351732E+03  0.00000000000E+00 0.  1.
         -3    1    6    6    0  502 -0.63174939610E+03 -0.98773257310E+02 -0.12095135106E+03  0.65076315596E+03  0.00000000000E+00 0.  1.
<mgrwt>
<rscale>  0 0.22762505E+04</rscale>
<asrwt>0</asrwt>
<pdfrwt beam="1">  1        2 0.31208467E+00 0.22762505E+04</pdfrwt>
<pdfrwt beam="2">  1       -2 0.98238327E-01 0.22762505E+04</pdfrwt>
<totfact> 0.50398103E+00</totfact>
</mgrwt>
</event>
<event>
12    1  0.1519630E-007  0.1293712E+04  0.7818608E-02  0.9034566E-01
          2   -1    0    0  501    0  0.00000000000E+00  0.00000000000E+00  0.83354225963E+03  0.83354225963E+03  0.00000000000E+00 0. -1.
         -2   -1    0    0    0  501 -0.00000000000E+00 -0.00000000000E+00 -0.50198154139E+03  0.50198154139E+03  0.00000000000E+00 0.  1.
         23    2    1    2    0    0 -0.83764337773E+02  0.10004527965E+03 -0.21689279663E+03  0.26914823986E+03  0.91502827987E+02 0.  0.
        254    2    1    2    0    0  0.83764337773E+02 -0.10004527965E+03  0.54845351486E+03  0.10663755612E+04  0.90516852421E+03 0.  0.
        -24    2    4    4    0    0  0.24372608165E+03 -0.13455728260E+03  0.74522974466E+03  0.79949036293E+03  0.79431750109E+02 0.  0.
         24    2    4    4    0    0 -0.15996174388E+03  0.34512002952E+02 -0.19677622980E+03  0.26688519822E+03  0.75683462962E+02 0.  0.
         13    1    3    3    0    0 -0.84509769848E+02  0.10088053347E+03 -0.13961477083E+03  0.19186210534E+03  0.00000000000E+00 0.  1.
        -13    1    3    3    0    0  0.74543207441E+00 -0.83525381940E+00 -0.77278025797E+02  0.77286134520E+02  0.00000000000E+00 0. -1.
          2    1    6    6  502    0 -0.47089346357E+02  0.22534905212E+02 -0.18193562879E+02  0.55283218281E+02  0.00000000000E+00 0. -1.
          3    1    5    5  503    0  0.22289746700E+03 -0.11703629151E+03  0.58361772547E+03  0.63560241016E+03  0.00000000000E+00 0. -1.
         -4    1    5    5    0  503  0.20828614651E+02 -0.17520991092E+02  0.16161201919E+03  0.16388795277E+03  0.00000000000E+00 0.  1.
         -1    1    6    6    0  502 -0.11287239752E+03  0.11977097740E+02 -0.17858266692E+03  0.21160197994E+03  0.00000000000E+00 0.  1.
<mgrwt>
<rscale>  0 0.12937122E+04</rscale>
<asrwt>0</asrwt>
<pdfrwt beam="1">  1        2 0.12823727E+00 0.12937122E+04</pdfrwt>
<pdfrwt beam="2">  1       -2 0.77227929E-01 0.12937122E+04</pdfrwt>
<totfact> 0.47837386E+01</totfact>
</mgrwt>
</event>
<event>
12    1  0.1519630E-007  0.1981005E+04  0.7818608E-02  0.8615553E-01
          1   -1    0    0  501    0  0.00000000000E+00  0.00000000000E+00  0.12892797964E+04  0.12892797964E+04  0.00000000000E+00 0. -1.
         -1   -1    0    0    0  501 -0.00000000000E+00 -0.00000000000E+00 -0.76096380933E+03  0.76096380933E+03  0.00000000000E+00 0.  1.
         23    2    1    2    0    0 -0.22507906519E+03  0.33180053767E+03  0.90801578107E+03  0.99659541559E+03  0.89205276350E+02 0.  0.
        254    2    1    2    0    0  0.22507906519E+03 -0.33180053767E+03 -0.37969979399E+03  0.10536481901E+04  0.89735744977E+03 0.  0.
        -24    2    4    4    0    0  0.21569373109E+03  0.13042167699E+03  0.18277351318E+03  0.32123359213E+03  0.79064936200E+02 0.  0.
         24    2    4    4    0    0  0.93853340967E+01 -0.46222221465E+03 -0.56247330717E+03  0.73241459801E+03  0.79482462823E+02 0.  0.
         11    1    3    3    0    0 -0.74676466446E+02  0.14783222097E+03  0.46917017636E+03  0.49754557035E+03  0.00000000000E+00 0. -1.
        -11    1    3    3    0    0 -0.15040259874E+03  0.18396831670E+03  0.43884560471E+03  0.49904984524E+03  0.00000000000E+00 0.  1.
          2    1    6    6  502    0 -0.25019002924E+02 -0.55483029236E+02 -0.76448361405E+02  0.97717291213E+02  0.00000000000E+00 0. -1.
          1    1    5    5  503    0  0.12841666075E+03  0.50343113190E+02  0.59320188758E+02  0.15014710319E+03  0.00000000000E+00 0. -1.
         -2    1    5    5    0  503  0.87277070340E+02  0.80078563796E+02  0.12345332442E+03  0.17108648894E+03  0.00000000000E+00 0.  1.
         -1    1    6    6    0  502  0.34404337021E+02 -0.40673918542E+03 -0.48602494576E+03  0.63469730680E+03  0.00000000000E+00 0.  1.
<mgrwt>
<rscale>  0 0.19810051E+04</rscale>
<asrwt>0</asrwt>
<pdfrwt beam="1">  1        1 0.19835074E+00 0.19810051E+04</pdfrwt>
<pdfrwt beam="2">  1       -1 0.11707135E+00 0.19810051E+04</pdfrwt>
<totfact> 0.56251440E+00</totfact>
</mgrwt>
</event>
<event>
12    1  0.1519630E-007  0.1137326E+04  0.7818608E-02  0.9169556E-01
          2   -1    0    0  501    0  0.00000000000E+00  0.00000000000E+00  0.28074171372E+04  0.28074171372E+04  0.00000000000E+00 0. -1.
         -2   -1    0    0    0  501 -0.00000000000E+00 -0.00000000000E+00 -0.11518695131E+03  0.11518695131E+03  0.00000000000E+00 0.  1.
         23    2    1    2    0    0 -0.72273824527E+02 -0.14768980008E+03  0.48283914719E+03  0.51819230932E+03  0.91399368851E+02 0.  0.
        254    2    1    2    0    0  0.72273824527E+02  0.14768980008E+03  0.22093910387E+04  0.24044117792E+04  0.93421167796E+03 0.  0.
        -24    2    4    4    0    0 -0.36982651493E+03  0.27647191252E+03  0.12994891953E+04  0.13814014500E+04  0.79933896418E+02 0.  0.
         24    2    4    4    0    0  0.44210033946E+03 -0.12878211245E+03  0.90990184343E+03  0.10230103292E+04  0.81186368124E+02 0.  0.
         11    1    3    3    0    0 -0.75739298167E+02 -0.13277674887E+03  0.32000196004E+03  0.35463694218E+03  0.00000000000E+00 0. -1.
        -11    1    3    3    0    0  0.34654736407E+01 -0.14913051204E+02  0.16283718715E+03  0.16355536714E+03  0.00000000000E+00 0.  1.
          2    1    6    6  502    0  0.14224714662E+03 -0.34976051312E+02  0.37597248369E+03  0.40350078485E+03  0.00000000000E+00 0. -1.
          3    1    5    5  503    0 -0.10688823849E+03  0.10316896537E+03  0.32621364013E+03  0.35844702531E+03  0.00000000000E+00 0. -1.
         -2    1    5    5    0  503 -0.26293827644E+03  0.17330294715E+03  0.97327555515E+03  0.10229544247E+04  0.00000000000E+00 0.  1.
         -3    1    6    6    0  502  0.29985319284E+03 -0.93806061134E+02  0.53392935975E+03  0.61950954437E+03  0.00000000000E+00 0.  1.
<mgrwt>
<rscale>  0 0.11373264E+04</rscale>
<asrwt>0</asrwt>
<pdfrwt beam="1">  1        2 0.43191028E+00 0.11373264E+04</pdfrwt>
<pdfrwt beam="2">  1       -2 0.17721071E-01 0.11373264E+04</pdfrwt>
<totfact> 0.60637469E+01</totfact>
</mgrwt>
</event>
<event>
12    1  0.1519630E-007  0.1773551E+04  0.7818608E-02  0.8720492E-01
          1   -1    0    0  501    0  0.00000000000E+00  0.00000000000E+00  0.13051286466E+04  0.13051286466E+04  0.00000000000E+00 0. -1.
         -1   -1    0    0    0  501 -0.00000000000E+00 -0.00000000000E+00 -0.60252372333E+03  0.60252372333E+03  0.00000000000E+00 0.  1.
         23    2    1    2    0    0 -0.46000206500E+01  0.28911094528E+03 -0.38716850940E+03  0.49163571583E+03  0.90553429161E+02 0.  0.
        254    2    1    2    0    0  0.46000206500E+01 -0.28911094528E+03  0.10897734327E+04  0.14160166541E+04  0.85667422702E+03 0.  0.
        -24    2    4    4    0    0  0.23563694351E+02 -0.42943869232E+03  0.11592365113E+04  0.12391053843E+04  0.81117360698E+02 0.  0.
         24    2    4    4    0    0 -0.18963673702E+02  0.14032774704E+03 -0.69463078620E+02  0.17691126976E+03  0.80131021263E+02 0.  0.
         13    1    3    3    0    0 -0.40161719328E+02  0.12559930436E+03 -0.20973492025E+03  0.24774358868E+03  0.00000000000E+00 0.  1.
        -13    1    3    3    0    0  0.35561698678E+02  0.16351164092E+03 -0.17743358915E+03  0.24389212715E+03  0.00000000000E+00 0. -1.
          2    1    6    6  502    0  0.94511790393E+01  0.87211796097E+02 -0.76330558644E+02  0.11628231313E+03  0.00000000000E+00 0. -1.
          1    1    5    5  503    0  0.17265861485E+02 -0.17027713437E+03  0.35467828961E+03  0.39381353657E+03  0.00000000000E+00 0. -1.
         -2    1    5    5    0  503  0.62978328667E+01 -0.25916155795E+03  0.80455822168E+03  0.84529184776E+03  0.00000000000E+00 0.  1.
         -1    1    6    6    0  502 -0.28414852741E+02  0.53115950942E+02  0.68674800235E+01  0.60628956635E+02  0.00000000000E+00 0.  1.
<mgrwt>
<rscale>  0 0.17735512E+04</rscale>
<asrwt>0</asrwt>
<pdfrwt beam="1">  1        1 0.20078902E+00 0.17735512E+04</pdfrwt>
<pdfrwt beam="2">  1       -1 0.92695958E-01 0.17735512E+04</pdfrwt>
<totfact> 0.95970721E+00</totfact>
</mgrwt>
</event>
<event>
12    1  0.1519630E-007  0.2247570E+04  0.7818608E-02  0.8498885E-01
         -2   -1    0    0    0  501 -0.00000000000E+00  0.00000000000E+00  0.13678507423E+04  0.13678507423E+04  0.00000000000E+00 0.  1.
          2   -1    0    0  501    0  0.00000000000E+00 -0.00000000000E+00 -0.92326766365E+03  0.92326766365E+03  0.00000000000E+00 0. -1.
         23    2    1    2    0    0  0.55995597822E+03  0.31986791450E+03 -0.51298324810E+03  0.82883623335E+03  0.89171231908E+02 0.  0.
        254    2    1    2    0    0 -0.55995597822E+03 -0.31986791450E+03  0.95756632677E+03  0.14622821726E+04  0.89747963873E+03 0.  0.
        -24    2    4    4    0    0 -0.71184152811E+03 -0.38294137595E+03  0.98453558639E+03  0.12763032130E+04  0.79228228431E+02 0.  0.
         24    2    4    4    0    0  0.15188554988E+03  0.63073461442E+02 -0.26969259616E+02  0.18597895959E+03  0.82543022996E+02 0.  0.
         13    1    3    3    0    0  0.47641476532E+03  0.23972209400E+03 -0.39614062834E+03  0.66435315036E+03  0.00000000000E+00 0. -1.
        -13    1    3    3    0    0  0.83541212900E+02  0.80145820499E+02 -0.11684261976E+03  0.16448308299E+03  0.00000000000E+00 0.  1.
          2    1    6    6  502    0  0.12209075193E+03  0.81425333451E+02 -0.10011487637E+02  0.14709339387E+03  0.00000000000E+00 0. -1.
          3    1    5    5  503    0 -0.59486519232E+03 -0.32784219062E+03  0.77957727900E+03  0.10339660695E+04  0.00000000000E+00 0. -1.
         -4    1    5    5    0  503 -0.11697633579E+03 -0.55099185323E+02  0.20495830739E+03  0.24233714351E+03  0.00000000000E+00 0.  1.
         -1    1    6    6    0  502  0.29794797953E+02 -0.18351872009E+02 -0.16957771980E+02  0.38885565726E+02  0.00000000000E+00 0.  1.
<mgrwt>
<rscale>  0 0.22475697E+04</rscale>
<asrwt>0</asrwt>
<pdfrwt beam="1">  1        2 0.14204118E+00 0.22475697E+04</pdfrwt>
<pdfrwt beam="2">  1       -2 0.21043858E+00 0.22475697E+04</pdfrwt>
<totfact> 0.29287574E+00</totfact>
</mgrwt>
</event>
<event>
12    1  0.1519630E-007  0.1220502E+04  0.7818608E-02  0.9095098E-01
          1   -1    0    0  501    0  0.00000000000E+00  0.00000000000E+00  0.18864458327E+04  0.18864458327E+04  0.00000000000E+00 0. -1.
         -1   -1    0    0    0  501 -0.00000000000E+00 -0.00000000000E+00 -0.19741157347E+03  0.19741157347E+03  0.00000000000E+00 0.  1.
         23    2    1    2    0    0  0.17147716767E+03 -0.13724306605E+03  0.18125326980E+03  0.29937167943E+03  0.92361119627E+02 0.  0.
        254    2    1    2    0    0 -0.17147716767E+03  0.13724306605E+03  0.15077809894E+04  0.17844857268E+04  0.92884106211E+03 0.  0.
        -24    2    4    4    0    0  0.19709208695E+03  0.37192019269E+03  0.38434282744E+03  0.57645779522E+03  0.86106098493E+02 0.  0.
         24    2    4    4    0    0 -0.36856925462E+03 -0.23467712664E+03  0.11234381620E+04  0.12080279315E+04  0.79382178878E+02 0.  0.
         13    1    3    3    0    0  0.19345696998E+02 -0.44338709349E+02  0.82372803955E+02  0.95527252501E+02  0.00000000000E+00 0. -1.
        -13    1    3    3    0    0  0.15213147067E+03 -0.92904356700E+02  0.98880465846E+02  0.20384442693E+03  0.00000000000E+00 0.  1.
          4    1    6    6  502    0 -0.27580135179E+02 -0.37595933792E+02  0.78133462270E+02  0.90988768650E+02  0.00000000000E+00 0. -1.
          1    1    5    5  503    0  0.61942580663E+02  0.74019968874E+02  0.13093025612E+03  0.16266090821E+03  0.00000000000E+00 0. -1.
         -2    1    5    5    0  503  0.13514950628E+03  0.29790022381E+03  0.25341257132E+03  0.41379688701E+03  0.00000000000E+00 0.  1.
         -3    1    6    6    0  502 -0.34098911944E+03 -0.19708119285E+03  0.10453046997E+04  0.11170391629E+04  0.00000000000E+00 0.  1.
<mgrwt>
<rscale>  0 0.12205019E+04</rscale>
<asrwt>0</asrwt>
<pdfrwt beam="1">  1        1 0.29022242E+00 0.12205019E+04</pdfrwt>
<pdfrwt beam="2">  1       -1 0.30371013E-01 0.12205019E+04</pdfrwt>
<totfact> 0.35157713E+01</totfact>
</mgrwt>
</event>
<event>
12    1  0.1632621E-007  0.2364748E+04  0.7818608E-02  0.8452820E-01
         -2   -1    0    0    0  501 -0.00000000000E+00  0.00000000000E+00  0.11102860868E+04  0.11102860868E+04  0.00000000000E+00 0.  1.
          2   -1    0    0  501    0  0.00000000000E+00 -0.00000000000E+00 -0.12591426167E+04  0.12591426167E+04  0.00000000000E+00 0. -1.
         23    2    1    2    0    0 -0.38260412278E+03  0.33858244803E+03 -0.95037824936E+03  0.10830105675E+04  0.93107913668E+02 0.  0.
        254    2    1    2    0    0  0.38260412278E+03 -0.33858244803E+03  0.80152171940E+03  0.12864181360E+04  0.86683941136E+03 0.  0.
        -24    2    4    4    0    0  0.20151836390E+03 -0.16100501710E+03  0.94620550072E+03  0.98396627324E+03  0.79702639646E+02 0.  0.
         24    2    4    4    0    0  0.18108575887E+03 -0.17757743092E+03 -0.14468378131E+03  0.30245186276E+03  0.78853894468E+02 0.  0.
         11    1    3    3    0    0 -0.74013296528E+02  0.11835627920E+03 -0.27960547837E+03  0.31251464033E+03  0.00000000000E+00 0.  1.
        -11    1    3    3    0    0 -0.30859082625E+03  0.22022616883E+03 -0.67077277099E+03  0.77049592717E+03  0.00000000000E+00 0. -1.
          4    1    6    6  502    0  0.41608871230E+02 -0.24447120576E+02  0.25473779865E+01  0.48326483465E+02  0.00000000000E+00 0. -1.
          3    1    5    5  503    0  0.19380241512E+02  0.11822007652E+01  0.29068686591E+02  0.34956829088E+02  0.00000000000E+00 0. -1.
         -4    1    5    5    0  503  0.18213812239E+03 -0.16218721787E+03  0.91713681412E+03  0.94900944415E+03  0.00000000000E+00 0.  1.
         -3    1    6    6    0  502  0.13947688764E+03 -0.15313031035E+03 -0.14723115930E+03  0.25412537930E+03  0.00000000000E+00 0.  1.
<mgrwt>
<rscale>  0 0.23647482E+04</rscale>
<asrwt>0</asrwt>
<pdfrwt beam="1">  1        2 0.19371425E+00 0.23647482E+04</pdfrwt>
<pdfrwt beam="2">  1       -2 0.17081324E+00 0.23647482E+04</pdfrwt>
<totfact> 0.33135796E+00</totfact>
</mgrwt>
</event>
<event>
12    1  0.1519630E-007  0.3712576E+04  0.7818608E-02  0.8065181E-01
         -2   -1    0    0    0  501 -0.00000000000E+00  0.00000000000E+00  0.16535946586E+04  0.16535946586E+04  0.00000000000E+00 0.  1.
          2   -1    0    0  501    0  0.00000000000E+00 -0.00000000000E+00 -0.20838267056E+04  0.20838267056E+04  0.00000000000E+00 0. -1.
         23    2    1    2    0    0 -0.85713122069E+03 -0.68326318858E+03 -0.15710652584E+04  0.19178409713E+04  0.91353329850E+02 0.  0.
        254    2    1    2    0    0  0.85713122069E+03  0.68326318858E+03  0.11408332114E+04  0.18195803929E+04  0.89880469265E+03 0.  0.
        -24    2    4    4    0    0  0.63959860899E+03  0.70250369867E+03  0.12424167695E+04  0.15660209808E+04  0.78895221093E+02 0.  0.
         24    2    4    4    0    0  0.21753261170E+03 -0.19240510086E+02 -0.10158355814E+03  0.25355941204E+03  0.79262360344E+02 0.  0.
         13    1    3    3    0    0 -0.53098948969E+03 -0.37956940652E+03 -0.98384490570E+03  0.11806665791E+04  0.00000000000E+00 0. -1.
        -13    1    3    3    0    0 -0.32614173100E+03 -0.30369378206E+03 -0.58722035267E+03  0.73717439223E+03  0.00000000000E+00 0.  1.
          2    1    6    6  502    0  0.30116203498E+01 -0.12667916619E+02  0.49769413012E+01  0.13939724291E+02  0.00000000000E+00 0. -1.
          3    1    5    5  503    0  0.41957798847E+03  0.41050678378E+03  0.73582015609E+03  0.94127191079E+03  0.00000000000E+00 0. -1.
         -4    1    5    5    0  503  0.22002062052E+03  0.29199691489E+03  0.50659661345E+03  0.62474907005E+03  0.00000000000E+00 0.  1.
         -1    1    6    6    0  502  0.21452099135E+03 -0.65725934671E+01 -0.10656049944E+03  0.23961968774E+03  0.00000000000E+00 0.  1.
<mgrwt>
<rscale>  0 0.37125758E+04</rscale>
<asrwt>0</asrwt>
<pdfrwt beam="1">  1        2 0.32058873E+00 0.37125758E+04</pdfrwt>
<pdfrwt beam="2">  1       -2 0.25439918E+00 0.37125758E+04</pdfrwt>
<totfact> 0.29257110E-01</totfact>
</mgrwt>
</event>
<event>
12    1  0.1519630E-007  0.1795802E+04  0.7818608E-02  0.8708535E-01
         -2   -1    0    0    0  501 -0.00000000000E+00  0.00000000000E+00  0.26862209281E+03  0.26862209281E+03  0.00000000000E+00 0.  1.
          2   -1    0    0  501    0  0.00000000000E+00 -0.00000000000E+00 -0.30013391384E+04  0.30013391384E+04  0.00000000000E+00 0. -1.
         23    2    1    2    0    0 -0.11635454607E+03 -0.41415101838E+03 -0.19558131594E+04  0.20046139951E+04  0.90623994865E+02 0.  0.
        254    2    1    2    0    0  0.11635454607E+03  0.41415101838E+03 -0.77690388614E+03  0.12653472361E+04  0.90136814516E+03 0.  0.
        -24    2    4    4    0    0 -0.13849336747E+03 -0.23621437384E+03 -0.14329876256E+03  0.31877181971E+03  0.78123584471E+02 0.  0.
         24    2    4    4    0    0  0.25484791354E+03  0.65036539221E+03 -0.63360512357E+03  0.94657541635E+03  0.81406165600E+02 0.  0.
         13    1    3    3    0    0 -0.11877519554E+03 -0.40959474414E+03 -0.18436439372E+04  0.18923261793E+04  0.00000000000E+00 0. -1.
        -13    1    3    3    0    0  0.24206494644E+01 -0.45562742359E+01 -0.11216922221E+03  0.11228781586E+03  0.00000000000E+00 0.  1.
          2    1    6    6  502    0  0.21844414363E+03  0.47182321249E+03 -0.49180140782E+03  0.71568401719E+03  0.00000000000E+00 0. -1.
          3    1    5    5  503    0 -0.79472032696E+02 -0.68636747951E+02 -0.34946857199E+02  0.11067108917E+03  0.00000000000E+00 0. -1.
         -4    1    5    5    0  503 -0.59021334771E+02 -0.16757762589E+03 -0.10835190536E+03  0.20810073054E+03  0.00000000000E+00 0.  1.
         -1    1    6    6    0  502  0.36403769910E+02  0.17854217973E+03 -0.14180371575E+03  0.23089139916E+03  0.00000000000E+00 0.  1.
<mgrwt>
<rscale>  0 0.17958018E+04</rscale>
<asrwt>0</asrwt>
<pdfrwt beam="1">  1        2 0.46174448E+00 0.17958018E+04</pdfrwt>
<pdfrwt beam="2">  1       -2 0.41326476E-01 0.17958018E+04</pdfrwt>
<totfact> 0.91387174E+00</totfact>
</mgrwt>
</event>
<event>
12    1  0.1519630E-007  0.2047494E+04  0.7818608E-02  0.8584732E-01
          2   -1    0    0  501    0  0.00000000000E+00  0.00000000000E+00  0.71295320570E+03  0.71295320570E+03  0.00000000000E+00 0. -1.
         -2   -1    0    0    0  501 -0.00000000000E+00 -0.00000000000E+00 -0.14700236200E+04  0.14700236200E+04  0.00000000000E+00 0.  1.
         23    2    1    2    0    0  0.16590385223E+03 -0.41051623319E+03 -0.10452498925E+04  0.11389900435E+04  0.93291562301E+02 0.  0.
        254    2    1    2    0    0 -0.16590385223E+03  0.41051623319E+03  0.28817947817E+03  0.10439867822E+04  0.90045173323E+03 0.  0.
        -24    2    4    4    0    0 -0.42103697624E+03  0.31102210812E+03 -0.12266017897E+03  0.54395616544E+03  0.82679521740E+02 0.  0.
         24    2    4    4    0    0  0.25513312401E+03  0.99494125073E+02  0.41083965715E+03  0.50003061676E+03  0.79053158804E+02 0.  0.
         13    1    3    3    0    0  0.13041903343E+03 -0.28450994385E+03 -0.62769710803E+03  0.70139767027E+03  0.00000000000E+00 0. -1.
        -13    1    3    3    0    0  0.35484818798E+02 -0.12600628934E+03 -0.41755278447E+03  0.43759237326E+03  0.00000000000E+00 0.  1.
          4    1    6    6  502    0  0.16271335742E+03  0.50796192665E+02  0.31548637743E+03  0.35859105429E+03  0.00000000000E+00 0. -1.
          3    1    5    5  503    0 -0.27316737439E+02  0.36259251698E+02 -0.31520683000E+02  0.55267449143E+02  0.00000000000E+00 0. -1.
         -4    1    5    5    0  503 -0.39372023881E+03  0.27476285642E+03 -0.91139495973E+02  0.48868871630E+03  0.00000000000E+00 0.  1.
         -3    1    6    6    0  502  0.92419766599E+02  0.48697932408E+02  0.95353279716E+02  0.14143956247E+03  0.00000000000E+00 0.  1.
<mgrwt>
<rscale>  0 0.20474941E+04</rscale>
<asrwt>0</asrwt>
<pdfrwt beam="1">  1        2 0.10968511E+00 0.20474941E+04</pdfrwt>
<pdfrwt beam="2">  1       -2 0.22615748E+00 0.20474941E+04</pdfrwt>
<totfact> 0.33465216E+00</totfact>
</mgrwt>
</event>
<event>
12    1  0.1519630E-007  0.2297741E+04  0.7818608E-02  0.8478812E-01
         -2   -1    0    0    0  501 -0.00000000000E+00  0.00000000000E+00  0.13973036837E+04  0.13973036837E+04  0.00000000000E+00 0.  1.
          2   -1    0    0  501    0  0.00000000000E+00 -0.00000000000E+00 -0.94460753577E+03  0.94460753577E+03  0.00000000000E+00 0. -1.
         23    2    1    2    0    0 -0.91271607893E+03 -0.19062169077E+03 -0.87186901580E+02  0.94109182845E+03  0.93086003511E+02 0.  0.
        254    2    1    2    0    0  0.91271607893E+03  0.19062169077E+03  0.53988304949E+03  0.14008193910E+04  0.89522845651E+03 0.  0.
        -24    2    4    4    0    0  0.85092225627E+03 -0.20151626725E+03  0.29044878646E+03  0.92483508042E+03  0.79258666570E+02 0.  0.
         24    2    4    4    0    0  0.61793822658E+02  0.39213795802E+03  0.24943426302E+03  0.47598431058E+03  0.82176381700E+02 0.  0.
         11    1    3    3    0    0 -0.31609066666E+02  0.78749814777E+01  0.59468321572E+01  0.33113641320E+02  0.00000000000E+00 0.  1.
        -11    1    3    3    0    0 -0.88110701226E+03 -0.19849667225E+03 -0.93133733737E+02  0.90797818713E+03  0.00000000000E+00 0. -1.
          2    1    6    6  502    0 -0.56554413971E+01  0.17861177109E+03  0.13847911232E+03  0.22607656521E+03  0.00000000000E+00 0. -1.
          3    1    5    5  503    0  0.26697311702E+03 -0.54234878303E+02  0.53315526654E+02  0.27759433103E+03  0.00000000000E+00 0. -1.
         -4    1    5    5    0  503  0.58394913925E+03 -0.14728138895E+03  0.23713325981E+03  0.64724074939E+03  0.00000000000E+00 0.  1.
         -1    1    6    6    0  502  0.67449264055E+02  0.21352618694E+03  0.11095515070E+03  0.24990774537E+03  0.00000000000E+00 0.  1.
<mgrwt>
<rscale>  0 0.22977411E+04</rscale>
<asrwt>0</asrwt>
<pdfrwt beam="1">  1        2 0.14532424E+00 0.22977411E+04</pdfrwt>
<pdfrwt beam="2">  1       -2 0.21496980E+00 0.22977411E+04</pdfrwt>
<totfact> 0.26402696E+00</totfact>
</mgrwt>
</event>
<event>
12    1  0.1519630E-007  0.2581901E+04  0.7818608E-02  0.8374375E-01
          1   -1    0    0  501    0  0.00000000000E+00  0.00000000000E+00  0.45562889015E+04  0.45562889015E+04  0.00000000000E+00 0. -1.
         -1   -1    0    0    0  501 -0.00000000000E+00 -0.00000000000E+00 -0.36576976044E+03  0.36576976044E+03  0.00000000000E+00 0.  1.
         23    2    1    2    0    0 -0.35434614497E+03  0.44953898179E+03 -0.12479596438E+02  0.58031769920E+03  0.94691103486E+02 0.  0.
        254    2    1    2    0    0  0.35434614497E+03 -0.44953898179E+03  0.42029987375E+04  0.43417409628E+04  0.92621256391E+03 0.  0.
        -24    2    4    4    0    0  0.55520149521E+03 -0.53962202621E+03  0.37679239840E+04  0.38475546719E+04  0.83577343294E+02 0.  0.
         24    2    4    4    0    0 -0.20085535024E+03  0.90083044420E+02  0.43507475350E+03  0.49418629088E+03  0.80450123368E+02 0.  0.
         11    1    3    3    0    0 -0.29931232131E+03  0.31353857078E+03 -0.86142127734E+01  0.43355334818E+03  0.00000000000E+00 0.  1.
        -11    1    3    3    0    0 -0.55033823660E+02  0.13600041101E+03 -0.38653836645E+01  0.14676435103E+03  0.00000000000E+00 0. -1.
          4    1    6    6  502    0 -0.95855357292E+01  0.20181341972E+02  0.96794892888E+02  0.99339923235E+02  0.00000000000E+00 0. -1.
          3    1    5    5  503    0  0.23935641770E+03 -0.28816570895E+03  0.17513892221E+04  0.17910039581E+04  0.00000000000E+00 0. -1.
         -4    1    5    5    0  503  0.31584507750E+03 -0.25145631726E+03  0.20165347619E+04  0.20565507138E+04  0.00000000000E+00 0.  1.
         -3    1    6    6    0  502 -0.19126981451E+03  0.69901702448E+02  0.33827986061E+03  0.39484636764E+03  0.00000000000E+00 0.  1.
<mgrwt>
<rscale>  0 0.25819006E+04</rscale>
<asrwt>0</asrwt>
<pdfrwt beam="1">  1        1 0.70096748E+00 0.25819006E+04</pdfrwt>
<pdfrwt beam="2">  1       -1 0.56272274E-01 0.25819006E+04</pdfrwt>
<totfact> 0.79708479E-02</totfact>
</mgrwt>
</event>
<event>
12    1  0.1519630E-007  0.1437503E+04  0.7818608E-02  0.8927110E-01
         -1   -1    0    0    0  501 -0.00000000000E+00  0.00000000000E+00  0.37011959190E+03  0.37011959190E+03  0.00000000000E+00 0.  1.
          1   -1    0    0  501    0  0.00000000000E+00 -0.00000000000E+00 -0.13957755875E+04  0.13957755875E+04  0.00000000000E+00 0. -1.
         23    2    1    2    0    0 -0.43546868762E+02  0.31997423215E+03 -0.68724695334E+03  0.76558087042E+03  0.97600487981E+02 0.  0.
        254    2    1    2    0    0  0.43546868762E+02 -0.31997423215E+03 -0.33840904230E+03  0.10003143090E+04  0.88421049412E+03 0.  0.
        -24    2    4    4    0    0  0.18517607361E+03  0.15091584533E+03 -0.42528105036E+03  0.49457988513E+03  0.81728332761E+02 0.  0.
         24    2    4    4    0    0 -0.14162920485E+03 -0.47089007748E+03  0.86872008061E+02  0.50573442389E+03  0.80151512662E+02 0.  0.
         11    1    3    3    0    0 -0.73002452655E+01  0.29044552201E+03 -0.58683964060E+03  0.65482261615E+03  0.00000000000E+00 0. -1.
        -11    1    3    3    0    0 -0.36246623496E+02  0.29528710138E+02 -0.10040731274E+03  0.11075825427E+03  0.00000000000E+00 0.  1.
          2    1    6    6  502    0 -0.15600867277E+02 -0.18467070356E+03  0.26303526122E+02  0.18718582025E+03  0.00000000000E+00 0. -1.
          1    1    5    5  503    0  0.10710907460E+03  0.13577463786E+03 -0.29418774244E+03  0.34125288856E+03  0.00000000000E+00 0. -1.
         -2    1    5    5    0  503  0.78066999009E+02  0.15141207474E+02 -0.13109330791E+03  0.15332699657E+03  0.00000000000E+00 0.  1.
         -1    1    6    6    0  502 -0.12602833757E+03 -0.28621937392E+03  0.60568481939E+02  0.31854860364E+03  0.00000000000E+00 0.  1.
<mgrwt>
<rscale>  0 0.14375032E+04</rscale>
<asrwt>0</asrwt>
<pdfrwt beam="1">  1        1 0.21473471E+00 0.14375032E+04</pdfrwt>
<pdfrwt beam="2">  1       -1 0.56941476E-01 0.14375032E+04</pdfrwt>
<totfact> 0.23480697E+01</totfact>
</mgrwt>
</event>
<event>
12    1  0.1519630E-007  0.2393386E+04  0.7818608E-02  0.8441984E-01
         -2   -1    0    0    0  501 -0.00000000000E+00  0.00000000000E+00  0.14493161860E+04  0.14493161860E+04  0.00000000000E+00 0.  1.
          2   -1    0    0  501    0  0.00000000000E+00 -0.00000000000E+00 -0.98810333665E+03  0.98810333665E+03  0.00000000000E+00 0. -1.
         23    2    1    2    0    0 -0.93244495168E+03 -0.41810856900E+03  0.10558463674E+03  0.10315058765E+04  0.92670892850E+02 0.  0.
        254    2    1    2    0    0  0.93244495168E+03  0.41810856900E+03  0.35562821260E+03  0.14059136461E+04  0.89769337268E+03 0.  0.
        -24    2    4    4    0    0  0.30980887798E+03  0.16866104697E+03  0.58917268416E+03  0.69127978048E+03  0.79468191727E+02 0.  0.
         24    2    4    4    0    0  0.62263607371E+03  0.24944752204E+03 -0.23354447156E+03  0.71463386564E+03  0.79112547640E+02 0.  0.
         11    1    3    3    0    0 -0.47675018687E+03 -0.21078801505E+03  0.10033948164E+03  0.53083927845E+03  0.00000000000E+00 0.  1.
        -11    1    3    3    0    0 -0.45569476481E+03 -0.20732055396E+03  0.52451551064E+01  0.50066659807E+03  0.00000000000E+00 0. -1.
          2    1    6    6  502    0  0.61689781522E+03  0.23619914776E+03 -0.22489856985E+03  0.69780535864E+03  0.00000000000E+00 0. -1.
          1    1    5    5  503    0  0.18146254405E+03  0.14211942385E+03  0.37127787739E+03  0.43700554661E+03  0.00000000000E+00 0. -1.
         -2    1    5    5    0  503  0.12834633393E+03  0.26541623115E+02  0.21789480677E+03  0.25427423387E+03  0.00000000000E+00 0.  1.
         -1    1    6    6    0  502  0.57382584855E+01  0.13248374279E+02 -0.86459017157E+01  0.16828507003E+02  0.00000000000E+00 0.  1.
<mgrwt>
<rscale>  0 0.23933860E+04</rscale>
<asrwt>0</asrwt>
<pdfrwt beam="1">  1        2 0.15201590E+00 0.23933860E+04</pdfrwt>
<pdfrwt beam="2">  1       -2 0.22297172E+00 0.23933860E+04</pdfrwt>
<totfact> 0.21827922E+00</totfact>
</mgrwt>
</event>
<event>
12    1  0.1519630E-007  0.2518830E+04  0.7818608E-02  0.8396308E-01
          1   -1    0    0  501    0  0.00000000000E+00  0.00000000000E+00  0.21935245383E+04  0.21935245383E+04  0.00000000000E+00 0. -1.
         -1   -1    0    0    0  501 -0.00000000000E+00 -0.00000000000E+00 -0.72309450174E+03  0.72309450174E+03  0.00000000000E+00 0.  1.
         23    2    1    2    0    0  0.36558893881E+03 -0.10623680980E+03 -0.54844270286E+03  0.67322162848E+03  0.86581931143E+02 0.  0.
        254    2    1    2    0    0 -0.36558893881E+03  0.10623680980E+03  0.20188727394E+04  0.22433974116E+04  0.90113443849E+03 0.  0.
        -24    2    4    4    0    0 -0.58683317473E+03 -0.16701081942E+03  0.13484040585E+04  0.14822156320E+04  0.80646674622E+02 0.  0.
         24    2    4    4    0    0  0.22124423591E+03  0.27324762922E+03  0.67046868098E+03  0.76118177956E+03  0.79095957964E+02 0.  0.
         13    1    3    3    0    0  0.26924746471E+03 -0.39801018295E+02 -0.35832089429E+03  0.44996908960E+03  0.00000000000E+00 0. -1.
        -13    1    3    3    0    0  0.96341474106E+02 -0.66435791502E+02 -0.19012180857E+03  0.22325253889E+03  0.00000000000E+00 0.  1.
          4    1    6    6  502    0  0.17576360397E+02  0.71212262478E+02  0.14543672458E+03  0.16288632733E+03  0.00000000000E+00 0. -1.
          3    1    5    5  503    0 -0.29866860795E+03 -0.88570158565E+02  0.59144570868E+03  0.66847261475E+03  0.00000000000E+00 0. -1.
         -4    1    5    5    0  503 -0.28816456678E+03 -0.78440660855E+02  0.75695834978E+03  0.81374301725E+03  0.00000000000E+00 0.  1.
         -3    1    6    6    0  502  0.20366787552E+03  0.20203536674E+03  0.52503195639E+03  0.59829545223E+03  0.00000000000E+00 0.  1.
<mgrwt>
<rscale>  0 0.25188295E+04</rscale>
<asrwt>0</asrwt>
<pdfrwt beam="1">  1        1 0.33746531E+00 0.25188295E+04</pdfrwt>
<pdfrwt beam="2">  1       -1 0.11124531E+00 0.25188295E+04</pdfrwt>
<totfact> 0.14500953E+00</totfact>
</mgrwt>
</event>
<event>
12    1  0.1519630E-007  0.2952040E+04  0.7818608E-02  0.8257560E-01
         -2   -1    0    0    0  501 -0.00000000000E+00  0.00000000000E+00  0.12821653245E+04  0.12821653245E+04  0.00000000000E+00 0.  1.
          2   -1    0    0  501    0  0.00000000000E+00 -0.00000000000E+00 -0.16991841661E+04  0.16991841661E+04  0.00000000000E+00 0. -1.
         23    2    1    2    0    0  0.59168918591E+03  0.91381886214E+03 -0.10129819044E+04  0.14899118067E+04  0.92432936269E+02 0.  0.
        254    2    1    2    0    0 -0.59168918591E+03 -0.91381886214E+03  0.59596306278E+03  0.14914376839E+04  0.82707520041E+03 0.  0.
        -24    2    4    4    0    0 -0.45437390213E+03 -0.10569141792E+04  0.50142662435E+03  0.12576783248E+04  0.82479597930E+02 0.  0.
         24    2    4    4    0    0 -0.13731528378E+03  0.14309531702E+03  0.94536438430E+02  0.23375935905E+03  0.79840734205E+02 0.  0.
         13    1    3    3    0    0  0.47988998551E+03  0.75008919842E+03 -0.77794634416E+03  0.11824249313E+04  0.00000000000E+00 0. -1.
        -13    1    3    3    0    0  0.11179920041E+03  0.16372966372E+03 -0.23503556021E+03  0.30748687542E+03  0.00000000000E+00 0.  1.
          2    1    6    6  502    0 -0.18408263809E+02 -0.90160720528E+01  0.12286623025E+02  0.23898009061E+02  0.00000000000E+00 0. -1.
          3    1    5    5  503    0 -0.82156288182E+02 -0.12580238195E+03  0.54439134819E+02  0.15981087069E+03  0.00000000000E+00 0. -1.
         -4    1    5    5    0  503 -0.37221761395E+03 -0.93111179721E+03  0.44698748953E+03  0.10978674541E+04  0.00000000000E+00 0.  1.
         -1    1    6    6    0  502 -0.11890701998E+03  0.15211138907E+03  0.82249815405E+02  0.20986134999E+03  0.00000000000E+00 0.  1.
<mgrwt>
<rscale>  0 0.29520400E+04</rscale>
<asrwt>0</asrwt>
<pdfrwt beam="1">  1        2 0.26141295E+00 0.29520400E+04</pdfrwt>
<pdfrwt beam="2">  1       -2 0.19725620E+00 0.29520400E+04</pdfrwt>
<totfact> 0.11699610E+00</totfact>
</mgrwt>
</event>
<event>
12    1  0.1672490E-007  0.3033725E+04  0.7818608E-02  0.8234166E-01
          2   -1    0    0  501    0  0.00000000000E+00  0.00000000000E+00  0.17793233701E+04  0.17793233701E+04  0.00000000000E+00 0. -1.
         -2   -1    0    0    0  501 -0.00000000000E+00 -0.00000000000E+00 -0.12931159302E+04  0.12931159302E+04  0.00000000000E+00 0.  1.
         23    2    1    2    0    0  0.20920518796E+03  0.35192552693E+03  0.15572104220E+04  0.16128502970E+04  0.93613007649E+02 0.  0.
        254    2    1    2    0    0 -0.20920518796E+03 -0.35192552693E+03 -0.10710029820E+04  0.14595890033E+04  0.90318009485E+03 0.  0.
        -24    2    4    4    0    0 -0.31673648529E+03  0.17619524977E+03 -0.17569603847E+03  0.41138748157E+03  0.83688678465E+02 0.  0.
         24    2    4    4    0    0  0.10753129733E+03 -0.52812077670E+03 -0.89530694357E+03  0.10482015217E+04  0.81715189453E+02 0.  0.
         13    1    3    3    0    0  0.32525786730E+01  0.19910305409E+02  0.18514805983E+03  0.18624393571E+03  0.00000000000E+00 0. -1.
        -13    1    3    3    0    0  0.20595260929E+03  0.33201522152E+03  0.13720623621E+04  0.14266063613E+04  0.00000000000E+00 0.  1.
          2    1    6    6  502    0  0.10430378973E+03 -0.35324943603E+03 -0.56519103933E+03  0.67461496837E+03  0.00000000000E+00 0. -1.
          3    1    5    5  503    0 -0.31612309715E+03  0.17298451710E+03 -0.15814015805E+03  0.39352987853E+03  0.00000000000E+00 0. -1.
         -4    1    5    5    0  503 -0.61338814501E+00  0.32107326669E+01 -0.17555880411E+02  0.17857603039E+02  0.00000000000E+00 0.  1.
         -1    1    6    6    0  502  0.32275076000E+01 -0.17487134067E+03 -0.33011590423E+03  0.37358655332E+03  0.00000000000E+00 0.  1.
<mgrwt>
<rscale>  0 0.30337247E+04</rscale>
<asrwt>0</asrwt>
<pdfrwt beam="1">  1        2 0.27374206E+00 0.30337247E+04</pdfrwt>
<pdfrwt beam="2">  1       -2 0.19894091E+00 0.30337247E+04</pdfrwt>
<totfact> 0.10223074E+00</totfact>
</mgrwt>
</event>
<event>
12    1  0.1519630E-007  0.1904221E+04  0.7818608E-02  0.8652758E-01
          2   -1    0    0  501    0  0.00000000000E+00  0.00000000000E+00  0.48475226438E+03  0.48475226438E+03  0.00000000000E+00 0. -1.
         -2   -1    0    0    0  501 -0.00000000000E+00 -0.00000000000E+00 -0.18700565319E+04  0.18700565319E+04  0.00000000000E+00 0.  1.
         23    2    1    2    0    0 -0.62437394914E+03  0.34026832279E+03 -0.29652183151E+03  0.77544121895E+03  0.88082504640E+02 0.  0.
        254    2    1    2    0    0  0.62437394914E+03 -0.34026832279E+03 -0.10887824360E+04  0.15793675773E+04  0.89628644502E+03 0.  0.
        -24    2    4    4    0    0  0.82199571801E+03 -0.36930194719E+03 -0.73603830475E+03  0.11661699259E+04  0.78351906867E+02 0.  0.
         24    2    4    4    0    0 -0.19762176887E+03  0.29033624404E+02 -0.35274413128E+03  0.41319765148E+03  0.80041003023E+02 0.  0.
         13    1    3    3    0    0 -0.21091517339E+03  0.13377135531E+03 -0.14644506756E+03  0.28952744892E+03  0.00000000000E+00 0. -1.
        -13    1    3    3    0    0 -0.41345877575E+03  0.20649696748E+03 -0.15007676395E+03  0.48591377002E+03  0.00000000000E+00 0.  1.
          4    1    6    6  502    0 -0.14223598158E+03  0.24212976997E+02 -0.17416888701E+03  0.22616839725E+03  0.00000000000E+00 0. -1.
          3    1    5    5  503    0  0.18775150467E+03 -0.11271025709E+03 -0.20662594187E+03  0.30107890895E+03  0.00000000000E+00 0. -1.
         -4    1    5    5    0  503  0.63424421334E+03 -0.25659169010E+03 -0.52941236288E+03  0.86509101692E+03  0.00000000000E+00 0.  1.
         -3    1    6    6    0  502 -0.55385787286E+02  0.48206474065E+01 -0.17857524427E+03  0.18702925423E+03  0.00000000000E+00 0.  1.
<mgrwt>
<rscale>  0 0.19042207E+04</rscale>
<asrwt>0</asrwt>
<pdfrwt beam="1">  1        2 0.74577270E-01 0.19042207E+04</pdfrwt>
<pdfrwt beam="2">  1       -2 0.28770101E+00 0.19042207E+04</pdfrwt>
<totfact> 0.22607618E+00</totfact>
</mgrwt>
</event>
<event>
12    1  0.1519630E-007  0.1575163E+04  0.7818608E-02  0.8835953E-01
         -3   -1    0    0    0  501 -0.00000000000E+00  0.00000000000E+00  0.35852628485E+03  0.35852628485E+03  0.00000000000E+00 0.  1.
          3   -1    0    0  501    0  0.00000000000E+00 -0.00000000000E+00 -0.17300955714E+04  0.17300955714E+04  0.00000000000E+00 0. -1.
         23    2    1    2    0    0  0.94347411745E+02 -0.38235528127E+03 -0.28205508387E+01  0.40232752901E+03  0.82234359442E+02 0.  0.
        254    2    1    2    0    0 -0.94347411745E+02  0.38235528127E+03 -0.13687487357E+04  0.16862943272E+04  0.90278372897E+03 0.  0.
        -24    2    4    4    0    0  0.39438023399E+03  0.23843673467E+03 -0.63801916135E+03  0.79136698300E+03  0.82494885498E+02 0.  0.
         24    2    4    4    0    0 -0.48872764573E+03  0.14391854660E+03 -0.73072957433E+03  0.89492734420E+03  0.85801986181E+02 0.  0.
         13    1    3    3    0    0  0.28187663046E+02 -0.25645432988E+03  0.17812473014E+02  0.25861293830E+03  0.00000000000E+00 0.  1.
        -13    1    3    3    0    0  0.66159748699E+02 -0.12590095140E+03 -0.20633023852E+02  0.14371459071E+03  0.00000000000E+00 0. -1.
          4    1    6    6  502    0 -0.43544236524E+03  0.10747440978E+03 -0.59978714000E+03  0.74893618922E+03  0.00000000000E+00 0. -1.
          3    1    5    5  503    0  0.24005005636E+03  0.13679432400E+03 -0.44771194288E+03  0.52610141649E+03  0.00000000000E+00 0. -1.
         -4    1    5    5    0  503  0.15433017763E+03  0.10164241067E+03 -0.19030721847E+03  0.26526556651E+03  0.00000000000E+00 0.  1.
         -3    1    6    6    0  502 -0.53285280494E+02  0.36444136819E+02 -0.13094243432E+03  0.14599115498E+03  0.00000000000E+00 0.  1.
<mgrwt>
<rscale>  0 0.15751632E+04</rscale>
<asrwt>0</asrwt>
<pdfrwt beam="1">  1        3 0.26616855E+00 0.15751632E+04</pdfrwt>
<pdfrwt beam="2">  1       -3 0.55157890E-01 0.15751632E+04</pdfrwt>
<totfact> 0.48808257E-01</totfact>
</mgrwt>
</event>
<event>
12    1  0.1519630E-007  0.2784771E+04  0.7818608E-02  0.8308012E-01
          1   -1    0    0  501    0  0.00000000000E+00  0.00000000000E+00  0.23822512587E+04  0.23822512587E+04  0.00000000000E+00 0. -1.
         -1   -1    0    0    0  501 -0.00000000000E+00 -0.00000000000E+00 -0.81382582388E+03  0.81382582388E+03  0.00000000000E+00 0.  1.
         23    2    1    2    0    0 -0.28215422293E+03  0.10653497928E+04  0.13620276458E+04  0.17543972983E+04  0.90605661533E+02 0.  0.
        254    2    1    2    0    0  0.28215422293E+03 -0.10653497928E+04  0.20639778900E+03  0.14416797842E+04  0.90623361586E+03 0.  0.
        -24    2    4    4    0    0  0.33239968860E+03 -0.58260520442E+03  0.52439294957E+03  0.85512477216E+03  0.79574073728E+02 0.  0.
         24    2    4    4    0    0 -0.50245465670E+02 -0.48274458836E+03 -0.31799516056E+03  0.58655501209E+03  0.85784122372E+02 0.  0.
         13    1    3    3    0    0 -0.21430065241E+01 -0.13961468744E+01  0.58031687299E+01  0.63418034001E+01  0.00000000000E+00 0.  1.
        -13    1    3    3    0    0 -0.28001121641E+03  0.10667459397E+04  0.13562244770E+04  0.17480554949E+04  0.00000000000E+00 0. -1.
          2    1    6    6  502    0 -0.40589289600E+02 -0.45883475255E+03 -0.27514951162E+03  0.53654829636E+03  0.00000000000E+00 0. -1.
          3    1    5    5  503    0  0.30008018376E+03 -0.50985943132E+03  0.49092513987E+03  0.76877321060E+03  0.00000000000E+00 0. -1.
         -4    1    5    5    0  503  0.32319504842E+02 -0.72745773101E+02  0.33467809701E+02  0.86351561559E+02  0.00000000000E+00 0.  1.
         -1    1    6    6    0  502 -0.96561760697E+01 -0.23909835808E+02 -0.42845648943E+02  0.50006715729E+02  0.00000000000E+00 0.  1.
<mgrwt>
<rscale>  0 0.27847712E+04</rscale>
<asrwt>0</asrwt>
<pdfrwt beam="1">  1        1 0.36650019E+00 0.27847712E+04</pdfrwt>
<pdfrwt beam="2">  1       -1 0.12520397E+00 0.27847712E+04</pdfrwt>
<totfact> 0.78921315E-01</totfact>
</mgrwt>
</event>
<event>
12    1  0.1519630E-007  0.2000508E+04  0.7818608E-02  0.8606383E-01
         -2   -1    0    0    0  501 -0.00000000000E+00  0.00000000000E+00  0.45487291206E+03  0.45487291206E+03  0.00000000000E+00 0.  1.
          2   -1    0    0  501    0  0.00000000000E+00 -0.00000000000E+00 -0.21995337061E+04  0.21995337061E+04  0.00000000000E+00 0. -1.
         23    2    1    2    0    0  0.45852826224E+03  0.59295859783E+03 -0.35744187009E+03  0.83538378357E+03  0.90847726210E+02 0.  0.
        254    2    1    2    0    0 -0.45852826224E+03 -0.59295859783E+03 -0.13872189240E+04  0.18190228346E+04  0.90698382776E+03 0.  0.
        -24    2    4    4    0    0  0.13016953381E+03 -0.10798668810E+03  0.47206444120E+02  0.19237686274E+03  0.78582291962E+02 0.  0.
         24    2    4    4    0    0 -0.58869779605E+03 -0.48497190972E+03 -0.14344253681E+04  0.16266459719E+04  0.81474737862E+02 0.  0.
         13    1    3    3    0    0  0.98167535935E+02  0.16105790654E+03 -0.53660041649E+02  0.19610179612E+03  0.00000000000E+00 0. -1.
        -13    1    3    3    0    0  0.36036072630E+03  0.43190069128E+03 -0.30378182844E+03  0.63928198745E+03  0.00000000000E+00 0.  1.
          2    1    6    6  502    0 -0.58113646554E+03 -0.46238562280E+03 -0.13774530959E+04  0.15648952320E+04  0.00000000000E+00 0. -1.
          3    1    5    5  503    0  0.91364716427E+02 -0.10481207408E+03  0.59940094480E+02  0.15141300210E+03  0.00000000000E+00 0. -1.
         -4    1    5    5    0  503  0.38804817385E+02 -0.31746140267E+01 -0.12733650360E+02  0.40963860633E+02  0.00000000000E+00 0.  1.
         -1    1    6    6    0  502 -0.75613305088E+01 -0.22586286929E+02 -0.56972272178E+02  0.61750739861E+02  0.00000000000E+00 0.  1.
<mgrwt>
<rscale>  0 0.20005082E+04</rscale>
<asrwt>0</asrwt>
<pdfrwt beam="1">  1        2 0.33838980E+00 0.20005082E+04</pdfrwt>
<pdfrwt beam="2">  1       -2 0.69980449E-01 0.20005082E+04</pdfrwt>
<totfact> 0.89288763E+00</totfact>
</mgrwt>
</event>
<event>
12    1  0.1519630E-007  0.2313452E+04  0.7818608E-02  0.8472636E-01
         -1   -1    0    0    0  501 -0.00000000000E+00  0.00000000000E+00  0.82756106343E+03  0.82756106343E+03  0.00000000000E+00 0.  1.
          1   -1    0    0  501    0  0.00000000000E+00 -0.00000000000E+00 -0.16168174503E+04  0.16168174503E+04  0.00000000000E+00 0. -1.
         23    2    1    2    0    0  0.81021407303E+03  0.54445326545E+03 -0.40764103069E+03  0.10616992672E+04  0.90321213719E+02 0.  0.
        254    2    1    2    0    0 -0.81021407303E+03 -0.54445326545E+03 -0.38161535620E+03  0.13826792466E+04  0.90182892855E+03 0.  0.
        -24    2    4    4    0    0 -0.36647355972E+03 -0.61525580256E+03 -0.53876329041E+03  0.89983158087E+03  0.81169072095E+02 0.  0.
         24    2    4    4    0    0 -0.44374051331E+03  0.70802537112E+02  0.15714793422E+03  0.48284766568E+03  0.80794508584E+02 0.  0.
         11    1    3    3    0    0  0.77731071097E+03  0.50251212724E+03 -0.37188886574E+03  0.99751276075E+03  0.00000000000E+00 0. -1.
        -11    1    3    3    0    0  0.32903362064E+02  0.41941138210E+02 -0.35752164948E+02  0.64186506432E+02  0.00000000000E+00 0.  1.
          2    1    6    6  502    0 -0.12723550250E+03  0.27043694130E+02  0.84693672996E+02  0.15522001396E+03  0.00000000000E+00 0. -1.
          3    1    5    5  503    0 -0.20666029886E+03 -0.36870254066E+03 -0.26938265253E+03  0.50121557847E+03  0.00000000000E+00 0. -1.
         -4    1    5    5    0  503 -0.15981326086E+03 -0.24655326190E+03 -0.26938063788E+03  0.39861600240E+03  0.00000000000E+00 0.  1.
         -3    1    6    6    0  502 -0.31650501081E+03  0.43758842982E+02  0.72454261221E+02  0.32762765172E+03  0.00000000000E+00 0.  1.
<mgrwt>
<rscale>  0 0.23134521E+04</rscale>
<asrwt>0</asrwt>
<pdfrwt beam="1">  1        1 0.24874114E+00 0.23134521E+04</pdfrwt>
<pdfrwt beam="2">  1       -1 0.12731709E+00 0.23134521E+04</pdfrwt>
<totfact> 0.26220454E+00</totfact>
</mgrwt>
</event>
<event>
12    1  0.1519630E-007  0.1511951E+04  0.7818608E-02  0.8876545E-01
          2   -1    0    0  501    0  0.00000000000E+00  0.00000000000E+00  0.10875469907E+04  0.10875469907E+04  0.00000000000E+00 0. -1.
         -2   -1    0    0    0  501 -0.00000000000E+00 -0.00000000000E+00 -0.52549323104E+03  0.52549323104E+03  0.00000000000E+00 0.  1.
         23    2    1    2    0    0 -0.39580596790E+02 -0.15527049259E+03  0.67375846762E+03  0.69860492752E+03  0.91775936697E+02 0.  0.
        254    2    1    2    0    0  0.39580596790E+02  0.15527049259E+03 -0.11170470797E+03  0.91443529421E+03  0.89332995920E+03 0.  0.
        -24    2    4    4    0    0  0.42056070616E+03 -0.95586201555E+02 -0.43240064557E+01  0.43954886968E+03  0.84714121095E+02 0.  0.
         24    2    4    4    0    0 -0.38098010937E+03  0.25085669414E+03 -0.10738070151E+03  0.47488642453E+03  0.76886776575E+02 0.  0.
         11    1    3    3    0    0 -0.48415749196E+02 -0.34046289951E+02  0.29295047620E+03  0.29886989835E+03  0.00000000000E+00 0.  1.
        -11    1    3    3    0    0  0.88351524056E+01 -0.12122420264E+03  0.38080799142E+03  0.39973502918E+03  0.00000000000E+00 0. -1.
          4    1    6    6  502    0 -0.68718623648E+02  0.67830229602E+02  0.26218355403E+01  0.96592252823E+02  0.00000000000E+00 0. -1.
          1    1    5    5  503    0  0.18966152417E+03 -0.24484975729E+02 -0.39875861572E+02  0.19534864249E+03  0.00000000000E+00 0. -1.
         -2    1    5    5    0  503  0.23089918199E+03 -0.71101225826E+02  0.35551855117E+02  0.24420022719E+03  0.00000000000E+00 0.  1.
         -3    1    6    6    0  502 -0.31226148572E+03  0.18302646454E+03 -0.11000253705E+03  0.37829417170E+03  0.00000000000E+00 0.  1.
<mgrwt>
<rscale>  0 0.15119505E+04</rscale>
<asrwt>0</asrwt>
<pdfrwt beam="1">  1        2 0.16731492E+00 0.15119505E+04</pdfrwt>
<pdfrwt beam="2">  1       -2 0.80845113E-01 0.15119505E+04</pdfrwt>
<totfact> 0.28904930E+01</totfact>
</mgrwt>
</event>
<event>
12    1  0.1519630E-007  0.1271934E+04  0.7818608E-02  0.9052123E-01
         -4   -1    0    0    0  501 -0.00000000000E+00  0.00000000000E+00  0.59512156825E+03  0.59512156825E+03  0.00000000000E+00 0. -1.
          4   -1    0    0  501    0  0.00000000000E+00 -0.00000000000E+00 -0.67961566384E+03  0.67961566384E+03  0.00000000000E+00 0.  1.
         23    2    1    2    0    0 -0.21690957364E+03 -0.12892004083E+03 -0.16826848048E+03  0.31713851302E+03  0.92695279565E+02 0.  0.
        254    2    1    2    0    0  0.21690957364E+03  0.12892004083E+03  0.83774384885E+02  0.95759871907E+03  0.91994946554E+03 0.  0.
        -24    2    4    4    0    0 -0.15598345897E+03  0.17466739640E+03  0.39240783522E+03  0.46411141929E+03  0.81092302556E+02 0.  0.
         24    2    4    4    0    0  0.37289303260E+03 -0.45747355571E+02 -0.30863345034E+03  0.49348729979E+03  0.84457528236E+02 0.  0.
         11    1    3    3    0    0 -0.20465848170E+03 -0.12504056063E+03 -0.17989884197E+03  0.29980631960E+03  0.00000000000E+00 0.  1.
        -11    1    3    3    0    0 -0.12251091942E+02 -0.38794802026E+01  0.11630361485E+02  0.17332193418E+02  0.00000000000E+00 0. -1.
          2    1    6    6  502    0  0.71847141154E+02 -0.43511818999E+02 -0.65527759719E+02  0.10653251794E+03  0.00000000000E+00 0. -1.
          3    1    5    5  503    0 -0.46008692009E+02  0.10949285984E+03  0.16609035011E+03  0.20418494190E+03  0.00000000000E+00 0. -1.
         -4    1    5    5    0  503 -0.10997476696E+03  0.65174536557E+02  0.22631748511E+03  0.25992647739E+03  0.00000000000E+00 0.  1.
         -1    1    6    6    0  502  0.30104589145E+03 -0.22355365720E+01 -0.24310569062E+03  0.38695478185E+03  0.00000000000E+00 0.  1.
<mgrwt>
<rscale>  0 0.12719339E+04</rscale>
<asrwt>0</asrwt>
<pdfrwt beam="1">  1        4 0.10455625E+00 0.12719339E+04</pdfrwt>
<pdfrwt beam="2">  1       -4 0.91557165E-01 0.12719339E+04</pdfrwt>
<totfact> 0.14784302E+00</totfact>
</mgrwt>
</event>
<event>
12    1  0.1519630E-007  0.1629748E+04  0.7818608E-02  0.8802478E-01
          2   -1    0    0  501    0  0.00000000000E+00  0.00000000000E+00  0.24709174500E+04  0.24709174500E+04  0.00000000000E+00 0.  1.
         -2   -1    0    0    0  501 -0.00000000000E+00 -0.00000000000E+00 -0.26873392123E+03  0.26873392123E+03  0.00000000000E+00 0. -1.
         23    2    1    2    0    0  0.20951135172E+03  0.13523056281E+03  0.15457044376E+04  0.15684854656E+04  0.93606280837E+02 0.  0.
        254    2    1    2    0    0 -0.20951135172E+03 -0.13523056281E+03  0.65647909122E+03  0.11711659057E+04  0.93727395662E+03 0.  0.
        -24    2    4    4    0    0 -0.55985121105E+03 -0.16443249065E+02  0.26162628501E+03  0.62343660870E+03  0.80753533054E+02 0.  0.
         24    2    4    4    0    0  0.35033985934E+03 -0.11878731375E+03  0.39485280621E+03  0.54772929696E+03  0.85148113493E+02 0.  0.
         11    1    3    3    0    0  0.11825655619E+03  0.12822988052E+03  0.97243589332E+03  0.98795702435E+03  0.00000000000E+00 0.  1.
        -11    1    3    3    0    0  0.91254795525E+02  0.70006822870E+01  0.57326854425E+03  0.58052844124E+03  0.00000000000E+00 0. -1.
          2    1    6    6  502    0  0.12551205240E+02 -0.22793906468E+02  0.13472198065E+02  0.29301792535E+02  0.00000000000E+00 0. -1.
          1    1    5    5  503    0 -0.17431485542E+03 -0.19069322388E+02  0.12097959752E+03  0.21303842586E+03  0.00000000000E+00 0. -1.
         -4    1    5    5    0  503 -0.38553635563E+03  0.26260733228E+01  0.14064668748E+03  0.41039818284E+03  0.00000000000E+00 0.  1.
         -1    1    6    6    0  502  0.33778865410E+03 -0.95993407277E+02  0.38138060815E+03  0.51842750443E+03  0.00000000000E+00 0.  1.
<mgrwt>
<rscale>  0 0.16297476E+04</rscale>
<asrwt>0</asrwt>
<pdfrwt beam="1">  1        2 0.38014113E+00 0.16297476E+04</pdfrwt>
<pdfrwt beam="2">  1       -2 0.41343682E-01 0.16297476E+04</pdfrwt>
<totfact> 0.19223866E+01</totfact>
</mgrwt>
</event>
<event>
12    1  0.1519630E-007  0.1997198E+04  0.7818608E-02  0.8607932E-01
          1   -1    0    0  501    0  0.00000000000E+00  0.00000000000E+00  0.82098173777E+03  0.82098173777E+03  0.00000000000E+00 0. -1.
         -1   -1    0    0    0  501 -0.00000000000E+00 -0.00000000000E+00 -0.12146432640E+04  0.12146432640E+04  0.00000000000E+00 0.  1.
         23    2    1    2    0    0 -0.28912342299E+03  0.73929551968E+03 -0.19965845355E+03  0.82260628039E+03  0.81653997591E+02 0.  0.
        254    2    1    2    0    0  0.28912342299E+03 -0.73929551968E+03 -0.19400307266E+03  0.12130187214E+04  0.89645245664E+03 0.  0.
        -24    2    4    4    0    0  0.56579993662E+03 -0.64739071221E+03 -0.26468684411E+03  0.90244539849E+03  0.71444169023E+02 0.  0.
         24    2    4    4    0    0 -0.27667651363E+03 -0.91904807476E+02  0.70683771446E+02  0.31057332286E+03  0.80394070036E+02 0.  0.
         13    1    3    3    0    0  0.34126676958E+00  0.20100062862E+02  0.51396450809E+01  0.20749576902E+02  0.00000000000E+00 0.  1.
        -13    1    3    3    0    0 -0.28946468976E+03  0.71919545682E+03 -0.20479809863E+03  0.80185670349E+03  0.00000000000E+00 0. -1.
          2    1    6    6  502    0 -0.11235461523E+03 -0.40874728854E+02  0.69930580260E+02  0.13850844406E+03  0.00000000000E+00 0. -1.
          1    1    5    5  503    0  0.70336874806E+02 -0.66005776620E+02 -0.51710572583E+02  0.10944414933E+03  0.00000000000E+00 0. -1.
         -2    1    5    5    0  503  0.49546306182E+03 -0.58138493559E+03 -0.21297627152E+03  0.79300124917E+03  0.00000000000E+00 0.  1.
         -1    1    6    6    0  502 -0.16432189841E+03 -0.51030078623E+02  0.75319118527E+00  0.17206487880E+03  0.00000000000E+00 0.  1.
<mgrwt>
<rscale>  0 0.19971980E+04</rscale>
<asrwt>0</asrwt>
<pdfrwt beam="1">  1        1 0.12630488E+00 0.19971980E+04</pdfrwt>
<pdfrwt beam="2">  1       -1 0.18686819E+00 0.19971980E+04</pdfrwt>
<totfact> 0.36572542E+00</totfact>
</mgrwt>
</event>
<event>
12    1  0.1519630E-007  0.1910638E+04  0.7818608E-02  0.8649579E-01
          2   -1    0    0  501    0  0.00000000000E+00  0.00000000000E+00  0.24726140822E+04  0.24726140822E+04  0.00000000000E+00 0. -1.
         -2   -1    0    0    0  501 -0.00000000000E+00 -0.00000000000E+00 -0.36909703003E+03  0.36909703003E+03  0.00000000000E+00 0.  1.
         23    2    1    2    0    0 -0.36415255515E+02 -0.15264788723E+03 -0.25220785620E+03  0.31032496167E+03  0.89807186763E+02 0.  0.
        254    2    1    2    0    0  0.36415255515E+02  0.15264788723E+03  0.23557249084E+04  0.25313861506E+04  0.91315308196E+03 0.  0.
        -24    2    4    4    0    0  0.43957426935E+02  0.23981692409E+03  0.23922163904E+04  0.24059493859E+04  0.80304275266E+02 0.  0.
         24    2    4    4    0    0 -0.75421714202E+01 -0.87169036859E+02 -0.36491481985E+02  0.12543676470E+03  0.82142731538E+02 0.  0.
         13    1    3    3    0    0  0.16363793486E+02 -0.37336627488E+02 -0.19240358746E+02  0.45077587492E+02  0.00000000000E+00 0. -1.
        -13    1    3    3    0    0 -0.52779049001E+02 -0.11531125975E+03 -0.23296749745E+03  0.26524737417E+03  0.00000000000E+00 0.  1.
          2    1    6    6  502    0  0.15052305718E+02 -0.37179452972E+01 -0.35761501225E+02  0.38977942410E+02  0.00000000000E+00 0. -1.
          3    1    5    5  503    0  0.25208885401E+02  0.90164453303E+02  0.13002832615E+04  0.13036493687E+04  0.00000000000E+00 0. -1.
         -4    1    5    5    0  503  0.18748541534E+02  0.14965247079E+03  0.10919331289E+04  0.11023000172E+04  0.00000000000E+00 0.  1.
         -1    1    6    6    0  502 -0.22594477138E+02 -0.83451091562E+02 -0.72998076034E+00  0.86458822291E+02  0.00000000000E+00 0.  1.
<mgrwt>
<rscale>  0 0.19106381E+04</rscale>
<asrwt>0</asrwt>
<pdfrwt beam="1">  1        2 0.38040216E+00 0.19106381E+04</pdfrwt>
<pdfrwt beam="2">  1       -2 0.56784160E-01 0.19106381E+04</pdfrwt>
<totfact> 0.98338461E+00</totfact>
</mgrwt>
</event>
<event>
12    1  0.1519630E-007  0.1921189E+04  0.7818608E-02  0.8644380E-01
         -1   -1    0    0    0  501 -0.00000000000E+00  0.00000000000E+00  0.13870304785E+04  0.13870304785E+04  0.00000000000E+00 0.  1.
          1   -1    0    0  501    0  0.00000000000E+00 -0.00000000000E+00 -0.66526441907E+03  0.66526441907E+03  0.00000000000E+00 0. -1.
         23    2    1    2    0    0  0.23368705356E+03 -0.34026368212E+03 -0.38138321527E+03  0.56934105505E+03  0.91143116611E+02 0.  0.
        254    2    1    2    0    0 -0.23368705356E+03  0.34026368212E+03  0.11031492747E+04  0.14829538425E+04  0.90101318769E+03 0.  0.
        -24    2    4    4    0    0 -0.20096107739E+03  0.53297952952E+03  0.11315593193E+04  0.12693519078E+04  0.79845095780E+02 0.  0.
         24    2    4    4    0    0 -0.32725976175E+02 -0.19271584741E+03 -0.28410044628E+02  0.21360193466E+03  0.81291257190E+02 0.  0.
         13    1    3    3    0    0  0.21661646312E+03 -0.25265392523E+03 -0.28732606772E+03  0.43967370540E+03  0.00000000000E+00 0. -1.
        -13    1    3    3    0    0  0.17070590439E+02 -0.87609756883E+02 -0.94057147548E+02  0.12966734964E+03  0.00000000000E+00 0.  1.
          2    1    6    6  502    0 -0.23165144098E+02 -0.19159285671E+03 -0.41454176200E+02  0.19739021092E+03  0.00000000000E+00 0. -1.
          1    1    5    5  503    0 -0.19697039074E+03  0.53476648099E+03  0.11277043673E+04  0.12635227200E+04  0.00000000000E+00 0. -1.
         -2    1    5    5    0  503 -0.39906866527E+01 -0.17869514657E+01  0.38549519926E+01  0.58291877964E+01  0.00000000000E+00 0.  1.
         -1    1    6    6    0  502 -0.95608320774E+01 -0.11229906989E+01  0.13044131571E+02  0.16211723738E+02  0.00000000000E+00 0.  1.
<mgrwt>
<rscale>  0 0.19211892E+04</rscale>
<asrwt>0</asrwt>
<pdfrwt beam="1">  1        1 0.10234837E+00 0.19211892E+04</pdfrwt>
<pdfrwt beam="2">  1       -1 0.21338930E+00 0.19211892E+04</pdfrwt>
<totfact> 0.33497363E+00</totfact>
</mgrwt>
</event>
<event>
12    1  0.1519630E-007  0.1553563E+04  0.7818608E-02  0.8849595E-01
          1   -1    0    0  501    0  0.00000000000E+00  0.00000000000E+00  0.50067352117E+03  0.50067352117E+03  0.00000000000E+00 0. -1.
         -1   -1    0    0    0  501 -0.00000000000E+00 -0.00000000000E+00 -0.12051549530E+04  0.12051549530E+04  0.00000000000E+00 0.  1.
         23    2    1    2    0    0 -0.21028025926E+03 -0.23350848259E+03 -0.68864072036E+03  0.76229658883E+03  0.90144598995E+02 0.  0.
        254    2    1    2    0    0  0.21028025926E+03  0.23350848259E+03 -0.15840711424E+02  0.94353188530E+03  0.88952655472E+03 0.  0.
        -24    2    4    4    0    0 -0.20216082919E+03  0.42769535512E+03 -0.45296576445E+01  0.47975900993E+03  0.79723723955E+02 0.  0.
         24    2    4    4    0    0  0.41244108845E+03 -0.19418687253E+03 -0.11311053780E+02  0.46377287537E+03  0.84505307998E+02 0.  0.
         13    1    3    3    0    0 -0.63896950917E+02 -0.92905270591E+02 -0.34754540206E+03  0.36537927710E+03  0.00000000000E+00 0. -1.
        -13    1    3    3    0    0 -0.14638330835E+03 -0.14060321200E+03 -0.34109531830E+03  0.39691731173E+03  0.00000000000E+00 0.  1.
          4    1    6    6  502    0 -0.22285878508E+01 -0.83690379090E+01  0.29499973171E+01  0.91493105478E+01  0.00000000000E+00 0. -1.
          1    1    5    5  503    0 -0.63299689026E+02  0.83114223979E+02 -0.25899251371E+02  0.10763640685E+03  0.00000000000E+00 0. -1.
         -2    1    5    5    0  503 -0.13886114016E+03  0.34458113114E+03  0.21369593727E+02  0.37212260308E+03  0.00000000000E+00 0.  1.
         -3    1    6    6    0  502  0.41466967631E+03 -0.18581783462E+03 -0.14261051097E+02  0.45462356482E+03  0.00000000000E+00 0.  1.
<mgrwt>
<rscale>  0 0.15535626E+04</rscale>
<asrwt>0</asrwt>
<pdfrwt beam="1">  1        1 0.77026697E-01 0.15535626E+04</pdfrwt>
<pdfrwt beam="2">  1       -1 0.18540845E+00 0.15535626E+04</pdfrwt>
<totfact> 0.81115122E+00</totfact>
</mgrwt>
</event>
<event>
12    1  0.1519630E-007  0.1280290E+04  0.7818608E-02  0.9045343E-01
          2   -1    0    0  501    0  0.00000000000E+00  0.00000000000E+00  0.12946551954E+04  0.12946551954E+04  0.00000000000E+00 0. -1.
         -2   -1    0    0    0  501 -0.00000000000E+00 -0.00000000000E+00 -0.31652100515E+03  0.31652100515E+03  0.00000000000E+00 0.  1.
         23    2    1    2    0    0  0.29556972750E+03  0.21758293288E+02  0.11276108667E+03  0.33013869955E+03  0.91878240773E+02 0.  0.
        254    2    1    2    0    0 -0.29556972750E+03 -0.21758293288E+02  0.86537310355E+03  0.12810375010E+04  0.89685650102E+03 0.  0.
        -24    2    4    4    0    0 -0.81549556008E+02  0.11531800446E+03 -0.15618475086E+03  0.22539265267E+03  0.80371632046E+02 0.  0.
         24    2    4    4    0    0 -0.21402017149E+03 -0.13707629775E+03  0.10215578544E+04  0.10556448483E+04  0.78810219094E+02 0.  0.
         11    1    3    3    0    0  0.27255309105E+03 -0.69685468813E+01  0.10696859566E+03  0.29287544886E+03  0.00000000000E+00 0.  1.
        -11    1    3    3    0    0  0.23016636455E+02  0.28726840170E+02  0.57924910115E+01  0.37263250689E+02  0.00000000000E+00 0. -1.
          4    1    6    6  502    0 -0.16539638525E+03 -0.12328834137E+03  0.68741894073E+03  0.71770521765E+03  0.00000000000E+00 0. -1.
          1    1    5    5  503    0 -0.55974761275E+02  0.12160600269E+03 -0.11487304664E+03  0.17640014352E+03  0.00000000000E+00 0. -1.
         -2    1    5    5    0  503 -0.25574794733E+02 -0.62879982229E+01 -0.41311704222E+02  0.48992509152E+02  0.00000000000E+00 0.  1.
         -3    1    6    6    0  502 -0.48623786241E+02 -0.13787956384E+02  0.33413891368E+03  0.33793963065E+03  0.00000000000E+00 0.  1.
<mgrwt>
<rscale>  0 0.12802899E+04</rscale>
<asrwt>0</asrwt>
<pdfrwt beam="1">  1        2 0.19917772E+00 0.12802899E+04</pdfrwt>
<pdfrwt beam="2">  1       -2 0.48695540E-01 0.12802899E+04</pdfrwt>
<totfact> 0.65247366E+01</totfact>
</mgrwt>
</event>
<event>
12    1  0.1519630E-007  0.1452172E+04  0.7818608E-02  0.8916896E-01
          1   -1    0    0  501    0  0.00000000000E+00  0.00000000000E+00  0.74342746550E+03  0.74342746550E+03  0.00000000000E+00 0.  1.
         -1   -1    0    0    0  501 -0.00000000000E+00 -0.00000000000E+00 -0.70914867296E+03  0.70914867296E+03  0.00000000000E+00 0. -1.
         23    2    1    2    0    0 -0.16371096712E+03  0.33944053147E+03 -0.22346870888E+03  0.44737361504E+03  0.90463984147E+02 0.  0.
        254    2    1    2    0    0  0.16371096712E+03 -0.33944053147E+03  0.25774750142E+03  0.10052025234E+04  0.89553178807E+03 0.  0.
        -24    2    4    4    0    0 -0.16763687512E+03  0.23772101762E+03  0.81801110520E+02  0.31226447143E+03  0.78767216015E+02 0.  0.
         24    2    4    4    0    0  0.33134784224E+03 -0.57716154908E+03  0.17594639090E+03  0.69293805199E+03  0.79367279923E+02 0.  0.
         11    1    3    3    0    0 -0.57743014011E+02  0.85733895672E+02 -0.19891647116E+02  0.10526269120E+03  0.00000000000E+00 0.  1.
        -11    1    3    3    0    0 -0.10596795311E+03  0.25370663579E+03 -0.20357706176E+03  0.34211092384E+03  0.00000000000E+00 0. -1.
          4    1    6    6  502    0  0.28905051132E+03 -0.54179168720E+03  0.15070366857E+03  0.63229741904E+03  0.00000000000E+00 0. -1.
          1    1    5    5  503    0 -0.79870706371E+02  0.16875610024E+03  0.29576236578E+02  0.18903096274E+03  0.00000000000E+00 0. -1.
         -2    1    5    5    0  503 -0.87766168752E+02  0.68964917376E+02  0.52224873942E+02  0.12323350869E+03  0.00000000000E+00 0.  1.
         -3    1    6    6    0  502  0.42297330924E+02 -0.35369861886E+02  0.25242722329E+02  0.60640632943E+02  0.00000000000E+00 0.  1.
<mgrwt>
<rscale>  0 0.14521716E+04</rscale>
<asrwt>0</asrwt>
<pdfrwt beam="1">  1        1 0.11437346E+00 0.14521716E+04</pdfrwt>
<pdfrwt beam="2">  1       -1 0.10909980E+00 0.14521716E+04</pdfrwt>
<totfact> 0.18770913E+01</totfact>
</mgrwt>
</event>
<event>
12    1  0.1519630E-007  0.1304026E+04  0.7818608E-02  0.9026379E-01
         -2   -1    0    0    0  501 -0.00000000000E+00  0.00000000000E+00  0.34050148206E+03  0.34050148206E+03  0.00000000000E+00 0.  1.
          2   -1    0    0  501    0  0.00000000000E+00 -0.00000000000E+00 -0.12485144008E+04  0.12485144008E+04  0.00000000000E+00 0. -1.
         23    2    1    2    0    0 -0.15115985307E+02 -0.23540741990E+03 -0.52644860783E+03  0.58418995968E+03  0.92112029384E+02 0.  0.
        254    2    1    2    0    0  0.15115985307E+02  0.23540741990E+03 -0.38156431090E+03  0.10048259232E+04  0.89913217390E+03 0.  0.
        -24    2    4    4    0    0  0.40175307250E+03  0.24945284168E+03 -0.36132644394E+02  0.48000505551E+03  0.73939392995E+02 0.  0.
         24    2    4    4    0    0 -0.38663708719E+03 -0.14045421776E+02 -0.34543166651E+03  0.52482086765E+03  0.80177277533E+02 0.  0.
         11    1    3    3    0    0  0.16966612590E+00 -0.41185033582E+02 -0.30208681298E+02  0.51076415335E+02  0.00000000000E+00 0.  1.
        -11    1    3    3    0    0 -0.15285651433E+02 -0.19422238632E+03 -0.49623992653E+03  0.53311354435E+03  0.00000000000E+00 0. -1.
          2    1    6    6  502    0  0.34538331026E+01 -0.27267551034E+01 -0.69571738991E+01  0.82320365133E+01  0.00000000000E+00 0. -1.
          3    1    5    5  503    0  0.17988640455E+02  0.33309771407E+02  0.20113260526E+01  0.37910123834E+02  0.00000000000E+00 0. -1.
         -4    1    5    5    0  503  0.38376443205E+03  0.21614307027E+03 -0.38143970447E+02  0.44209493167E+03  0.00000000000E+00 0.  1.
         -1    1    6    6    0  502 -0.39009092030E+03 -0.11318666673E+02 -0.33847449261E+03  0.51658883114E+03  0.00000000000E+00 0.  1.
<mgrwt>
<rscale>  0 0.13040261E+04</rscale>
<asrwt>0</asrwt>
<pdfrwt beam="1">  1        2 0.19207914E+00 0.13040261E+04</pdfrwt>
<pdfrwt beam="2">  1       -2 0.52384843E-01 0.13040261E+04</pdfrwt>
<totfact> 0.59716653E+01</totfact>
</mgrwt>
</event>
<event>
12    1  0.1519630E-007  0.1817625E+04  0.7818608E-02  0.8696982E-01
          1   -1    0    0  501    0  0.00000000000E+00  0.00000000000E+00  0.11269197798E+04  0.11269197798E+04  0.00000000000E+00 0. -1.
         -1   -1    0    0    0  501 -0.00000000000E+00 -0.00000000000E+00 -0.73291828359E+03  0.73291828359E+03  0.00000000000E+00 0.  1.
         23    2    1    2    0    0 -0.63300253010E+02 -0.65591853299E+03 -0.12917759266E+02  0.66534603692E+03  0.91007891934E+02 0.  0.
        254    2    1    2    0    0  0.63300253010E+02  0.65591853299E+03  0.40691925546E+03  0.11944920264E+04  0.90939093729E+03 0.  0.
        -24    2    4    4    0    0  0.26155873676E+03  0.18760186558E+03  0.56538156613E+03  0.65561427128E+03  0.81032861488E+02 0.  0.
         24    2    4    4    0    0 -0.19825848375E+03  0.46831666741E+03 -0.15846231067E+03  0.53887775517E+03  0.81559817088E+02 0.  0.
         11    1    3    3    0    0 -0.77967365743E+02 -0.61014120753E+03 -0.25588175935E+02  0.61563459779E+03  0.00000000000E+00 0.  1.
        -11    1    3    3    0    0  0.14667112733E+02 -0.45777325455E+02  0.12670416669E+02  0.49711439130E+02  0.00000000000E+00 0. -1.
          2    1    6    6  502    0 -0.13932786091E+03  0.37963238310E+03 -0.15263772205E+03  0.43223983310E+03  0.00000000000E+00 0. -1.
          3    1    5    5  503    0  0.18155024206E+03  0.16990627747E+03  0.44944353616E+03  0.51364202098E+03  0.00000000000E+00 0. -1.
         -4    1    5    5    0  503  0.80008494695E+02  0.17695588101E+02  0.11593802996E+03  0.14197225029E+03  0.00000000000E+00 0.  1.
         -1    1    6    6    0  502 -0.58930622834E+02  0.88684284308E+02 -0.58245886186E+01  0.10663792207E+03  0.00000000000E+00 0.  1.
<mgrwt>
<rscale>  0 0.18176249E+04</rscale>
<asrwt>0</asrwt>
<pdfrwt beam="1">  1        1 0.17337227E+00 0.18176249E+04</pdfrwt>
<pdfrwt beam="2">  1       -1 0.11275666E+00 0.18176249E+04</pdfrwt>
<totfact> 0.82060130E+00</totfact>
</mgrwt>
</event>
<event>
12    1  0.1519630E-007  0.1498478E+04  0.7818608E-02  0.8885465E-01
          1   -1    0    0  501    0  0.00000000000E+00  0.00000000000E+00  0.31475202533E+03  0.31475202533E+03  0.00000000000E+00 0. -1.
         -1   -1    0    0    0  501 -0.00000000000E+00 -0.00000000000E+00 -0.17834971878E+04  0.17834971878E+04  0.00000000000E+00 0.  1.
         23    2    1    2    0    0 -0.23149405927E+03 -0.43951888996E+03 -0.45101776848E+03  0.67727509063E+03  0.92293915233E+02 0.  0.
        254    2    1    2    0    0  0.23149405927E+03  0.43951888996E+03 -0.10177273940E+04  0.14209741225E+04  0.85827271553E+03 0.  0.
        -24    2    4    4    0    0  0.86921595891E+02 -0.17628050170E+03  0.89483553796E+01  0.21249197766E+03  0.80265736101E+02 0.  0.
         24    2    4    4    0    0  0.14457246338E+03  0.61579939167E+03 -0.10266757494E+04  0.12084821448E+04  0.79094324145E+02 0.  0.
         11    1    3    3    0    0 -0.77244308303E+01  0.53160697397E-01 -0.22815936510E+02  0.24088101141E+02  0.00000000000E+00 0. -1.
        -11    1    3    3    0    0 -0.22376962844E+03 -0.43957205066E+03 -0.42820183197E+03  0.65318698949E+03  0.00000000000E+00 0.  1.
          4    1    6    6  502    0  0.77493995353E+02  0.47281631780E+03 -0.75314889407E+03  0.89263309726E+03  0.00000000000E+00 0. -1.
          3    1    5    5  503    0  0.81873094150E+02 -0.77987461335E+02  0.14026029924E+02  0.11393847983E+03  0.00000000000E+00 0. -1.
         -4    1    5    5    0  503  0.50485017411E+01 -0.98293040370E+02 -0.50776745442E+01  0.98553497826E+02  0.00000000000E+00 0.  1.
         -3    1    6    6    0  502  0.67078468026E+02  0.14298307387E+03 -0.27352685530E+03  0.31584904757E+03  0.00000000000E+00 0.  1.
<mgrwt>
<rscale>  0 0.14984784E+04</rscale>
<asrwt>0</asrwt>
<pdfrwt beam="1">  1        1 0.48423387E-01 0.14984784E+04</pdfrwt>
<pdfrwt beam="2">  1       -1 0.27438419E+00 0.14984784E+04</pdfrwt>
<totfact> 0.38608035E+00</totfact>
</mgrwt>
</event>
<event>
12    1  0.1519630E-007  0.1333614E+04  0.7818608E-02  0.9003326E-01
         -2   -1    0    0    0  501 -0.00000000000E+00  0.00000000000E+00  0.41353516527E+03  0.41353516527E+03  0.00000000000E+00 0.  1.
          2   -1    0    0  501    0  0.00000000000E+00 -0.00000000000E+00 -0.10751957708E+04  0.10751957708E+04  0.00000000000E+00 0. -1.
         23    2    1    2    0    0  0.23081787505E+02 -0.19672339122E+02  0.21673728264E+03  0.23654196218E+03  0.89762354824E+02 0.  0.
        254    2    1    2    0    0 -0.23081787505E+02  0.19672339122E+02 -0.87839788815E+03  0.12521889739E+04  0.89189383141E+03 0.  0.
        -24    2    4    4    0    0 -0.42568796433E+03  0.49601622424E+02 -0.64621562446E+03  0.77951167098E+03  0.79832624780E+02 0.  0.
         24    2    4    4    0    0  0.40260617682E+03 -0.29929283302E+02 -0.23218226369E+03  0.47267730288E+03  0.80794390092E+02 0.  0.
         11    1    3    3    0    0  0.29385424546E+01 -0.52783541770E+02  0.94183783576E+02  0.10800612206E+03  0.00000000000E+00 0. -1.
        -11    1    3    3    0    0  0.20143245050E+02  0.33111202649E+02  0.12255349907E+03  0.12853584012E+03  0.00000000000E+00 0.  1.
          4    1    6    6  502    0  0.50344243554E+02  0.31181542285E+01 -0.17999219170E+01  0.50472819058E+02  0.00000000000E+00 0. -1.
          3    1    5    5  503    0 -0.35868396157E+02  0.19763763495E+02 -0.34578245298E+02  0.53598537650E+02  0.00000000000E+00 0. -1.
         -2    1    5    5    0  503 -0.38981956817E+03  0.29837858928E+02 -0.61163737917E+03  0.72591313333E+03  0.00000000000E+00 0.  1.
         -3    1    6    6    0  502  0.35226193327E+03 -0.33047437530E+02 -0.23038234177E+03  0.42220448382E+03  0.00000000000E+00 0.  1.
<mgrwt>
<rscale>  0 0.13336135E+04</rscale>
<asrwt>0</asrwt>
<pdfrwt beam="1">  1        2 0.16541473E+00 0.13336135E+04</pdfrwt>
<pdfrwt beam="2">  1       -2 0.63620796E-01 0.13336135E+04</pdfrwt>
<totfact> 0.50467542E+01</totfact>
</mgrwt>
</event>
<event>
12    1  0.1519630E-007  0.1811141E+04  0.7818608E-02  0.8700397E-01
         -3   -1    0    0    0  501 -0.00000000000E+00  0.00000000000E+00  0.20612472800E+04  0.20612472800E+04  0.00000000000E+00 0.  1.
          3   -1    0    0  501    0  0.00000000000E+00 -0.00000000000E+00 -0.39784527513E+03  0.39784527513E+03  0.00000000000E+00 0. -1.
         23    2    1    2    0    0 -0.26317160997E+03 -0.20303421476E+03 -0.15828097956E+03  0.37850117281E+03  0.87909502730E+02 0.  0.
        254    2    1    2    0    0  0.26317160997E+03  0.20303421476E+03  0.18216829844E+04  0.20805913823E+04  0.94860392986E+03 0.  0.
        -24    2    4    4    0    0 -0.32928196501E+03  0.38921292353E+02  0.37432322855E+03  0.50608457552E+03  0.77860379312E+02 0.  0.
         24    2    4    4    0    0  0.59245357498E+03  0.16411292241E+03  0.14473597559E+04  0.15745068068E+04  0.79291436595E+02 0.  0.
         11    1    3    3    0    0 -0.24350805951E+03 -0.19507459431E+03 -0.11914333296E+03  0.33398414060E+03  0.00000000000E+00 0. -1.
        -11    1    3    3    0    0 -0.19663550465E+02 -0.79596204533E+01 -0.39137646603E+02  0.44517032204E+02  0.00000000000E+00 0.  1.
          4    1    6    6  502    0  0.16662092225E+03  0.28361840725E+02  0.32251089719E+03  0.36411564722E+03  0.00000000000E+00 0. -1.
          1    1    5    5  503    0 -0.72675840156E+01 -0.12011683736E+02  0.21690382398E+02  0.25837395615E+02  0.00000000000E+00 0. -1.
         -2    1    5    5    0  503 -0.32201438099E+03  0.50932976088E+02  0.35263284615E+03  0.48024717990E+03  0.00000000000E+00 0.  1.
         -3    1    6    6    0  502  0.42583265272E+03  0.13575108168E+03  0.11248488587E+04  0.12103911596E+04  0.00000000000E+00 0.  1.
<mgrwt>
<rscale>  0 0.18111405E+04</rscale>
<asrwt>0</asrwt>
<pdfrwt beam="1">  1        3 0.61206967E-01 0.18111405E+04</pdfrwt>
<pdfrwt beam="2">  1       -3 0.31711496E+00 0.18111405E+04</pdfrwt>
<totfact> 0.19636939E-01</totfact>
</mgrwt>
</event>
<event>
12    1  0.1519630E-007  0.1652776E+04  0.7818608E-02  0.8788766E-01
         -1   -1    0    0    0  501 -0.00000000000E+00  0.00000000000E+00  0.18767721009E+03  0.18767721009E+03  0.00000000000E+00 0.  1.
          1   -1    0    0  501    0  0.00000000000E+00 -0.00000000000E+00 -0.36387873777E+04  0.36387873777E+04  0.00000000000E+00 0. -1.
         23    2    1    2    0    0 -0.40004117490E+03  0.41592302742E+03 -0.13290153770E+04  0.14517473369E+04  0.90904079924E+02 0.  0.
        254    2    1    2    0    0  0.40004117490E+03 -0.41592302742E+03 -0.21220947907E+04  0.23747172509E+04  0.89608638794E+03 0.  0.
        -24    2    4    4    0    0  0.26739368318E+03 -0.67000749208E+03 -0.17729907202E+04  0.19156972736E+04  0.77398507774E+02 0.  0.
         24    2    4    4    0    0  0.13264749172E+03  0.25408446466E+03 -0.34910407050E+03  0.45901997728E+03  0.81678731991E+02 0.  0.
         11    1    3    3    0    0 -0.37043190505E+03  0.39681433877E+03 -0.12876957393E+04  0.13974411375E+04  0.00000000000E+00 0.  1.
        -11    1    3    3    0    0 -0.29609269842E+02  0.19108688653E+02 -0.41319637706E+02  0.54306199488E+02  0.00000000000E+00 0. -1.
          4    1    6    6  502    0 -0.25164848854E+01  0.66351441670E+02 -0.69361519294E+02  0.96020137818E+02  0.00000000000E+00 0. -1.
          3    1    5    5  503    0  0.37977350583E+02 -0.47579349096E+02 -0.11978993135E+03  0.13437150468E+03  0.00000000000E+00 0. -1.
         -4    1    5    5    0  503  0.22941633259E+03 -0.62242814299E+03 -0.16532007888E+04  0.17813257689E+04  0.00000000000E+00 0.  1.
         -3    1    6    6    0  502  0.13516397660E+03  0.18773302299E+03 -0.27974255121E+03  0.36299983946E+03  0.00000000000E+00 0.  1.
<mgrwt>
<rscale>  0 0.16527764E+04</rscale>
<asrwt>0</asrwt>
<pdfrwt beam="1">  1        1 0.55981341E+00 0.16527764E+04</pdfrwt>
<pdfrwt beam="2">  1       -1 0.28873419E-01 0.16527764E+04</pdfrwt>
<totfact> 0.20386575E+00</totfact>
</mgrwt>
</event>
<event>
12    1  0.1519630E-007  0.1859115E+04  0.7818608E-02  0.8675479E-01
          2   -1    0    0  501    0  0.00000000000E+00  0.00000000000E+00  0.26583274309E+04  0.26583274309E+04  0.00000000000E+00 0. -1.
         -2   -1    0    0    0  501 -0.00000000000E+00 -0.00000000000E+00 -0.32504540364E+03  0.32504540364E+03  0.00000000000E+00 0.  1.
         23    2    1    2    0    0  0.20807924560E+03  0.53589044587E+03  0.30060845542E+03  0.65575373358E+03  0.95770419299E+02 0.  0.
        254    2    1    2    0    0 -0.20807924560E+03 -0.53589044587E+03  0.20326735718E+04  0.23276191009E+04  0.97753428945E+03 0.  0.
        -24    2    4    4    0    0  0.16135954172E+03  0.10082672658E+03  0.11816909024E+04  0.11996046052E+04  0.80342325599E+02 0.  0.
         24    2    4    4    0    0 -0.36943878732E+03 -0.63671717245E+03  0.85098266937E+03  0.11280144958E+04  0.79695820784E+02 0.  0.
         11    1    3    3    0    0  0.21682371919E+03  0.52348914976E+03  0.29849917754E+03  0.64043358291E+03  0.00000000000E+00 0.  1.
        -11    1    3    3    0    0 -0.87444735890E+01  0.12401296104E+02  0.21092778738E+01  0.15320150670E+02  0.00000000000E+00 0. -1.
          4    1    6    6  502    0 -0.12575232739E+03 -0.26631175143E+03  0.29442896752E+03  0.41644208926E+03  0.00000000000E+00 0. -1.
          1    1    5    5  503    0  0.10393288736E+03  0.10320453679E+03  0.92772737059E+03  0.93921844937E+03  0.00000000000E+00 0. -1.
         -2    1    5    5    0  503  0.57426654363E+02 -0.23778102034E+01  0.25396353186E+03  0.26038615579E+03  0.00000000000E+00 0.  1.
         -3    1    6    6    0  502 -0.24368645993E+03 -0.37040542102E+03  0.55655370185E+03  0.71157240652E+03  0.00000000000E+00 0.  1.
<mgrwt>
<rscale>  0 0.18591150E+04</rscale>
<asrwt>0</asrwt>
<pdfrwt beam="1">  1        2 0.40897344E+00 0.18591150E+04</pdfrwt>
<pdfrwt beam="2">  1       -2 0.50006987E-01 0.18591150E+04</pdfrwt>
<totfact> 0.10009282E+01</totfact>
</mgrwt>
</event>
<event>
12    1  0.1519630E-007  0.2287517E+04  0.7818608E-02  0.8482859E-01
         -3   -1    0    0    0  501 -0.00000000000E+00  0.00000000000E+00  0.30395700980E+04  0.30395700980E+04  0.00000000000E+00 0.  1.
          3   -1    0    0  501    0  0.00000000000E+00 -0.00000000000E+00 -0.43038455362E+03  0.43038455362E+03  0.00000000000E+00 0. -1.
         23    2    1    2    0    0  0.58734236391E+03  0.74816506708E+03  0.99560857057E+03  0.13806592534E+04  0.10129920171E+03 0.  0.
        254    2    1    2    0    0 -0.58734236391E+03 -0.74816506708E+03  0.16135769739E+04  0.20892953982E+04  0.92563631649E+03 0.  0.
        -24    2    4    4    0    0 -0.67978757062E+03 -0.13733802171E+03  0.75241646163E+03  0.10262516312E+04  0.78032079191E+02 0.  0.
         24    2    4    4    0    0  0.92445206715E+02 -0.61082704537E+03  0.86116051222E+03  0.10630437670E+04  0.82515618051E+02 0.  0.
         11    1    3    3    0    0  0.48977122935E+03  0.61861861728E+03  0.87722563974E+03  0.11798684985E+04  0.00000000000E+00 0.  1.
        -11    1    3    3    0    0  0.97571134555E+02  0.12954644980E+03  0.11838293083E+03  0.20079075493E+03  0.00000000000E+00 0. -1.
          4    1    6    6  502    0  0.18220627970E+01 -0.32485479123E+02  0.83946701065E+02  0.90031521626E+02  0.00000000000E+00 0. -1.
          3    1    5    5  503    0 -0.86076146231E+02  0.45466046027E+01  0.73686952463E+02  0.11339991855E+03  0.00000000000E+00 0. -1.
         -4    1    5    5    0  503 -0.59371142439E+03 -0.14188462632E+03  0.67872950916E+03  0.91285171263E+03  0.00000000000E+00 0.  1.
         -3    1    6    6    0  502  0.90623143918E+02 -0.57834156625E+03  0.77721381116E+03  0.97301224541E+03  0.00000000000E+00 0.  1.
<mgrwt>
<rscale>  0 0.22875174E+04</rscale>
<asrwt>0</asrwt>
<pdfrwt beam="1">  1        3 0.66213010E-01 0.22875174E+04</pdfrwt>
<pdfrwt beam="2">  1       -3 0.46762615E+00 0.22875174E+04</pdfrwt>
<totfact> 0.23603671E-02</totfact>
</mgrwt>
</event>
<event>
12    1  0.1519630E-007  0.1575019E+04  0.7818608E-02  0.8836043E-01
          1   -1    0    0  501    0  0.00000000000E+00  0.00000000000E+00  0.12674193450E+04  0.12674193450E+04  0.00000000000E+00 0. -1.
         -1   -1    0    0    0  501 -0.00000000000E+00 -0.00000000000E+00 -0.48931824463E+03  0.48931824463E+03  0.00000000000E+00 0.  1.
         23    2    1    2    0    0 -0.37922575966E+03  0.30105794565E+03  0.41938899605E+02  0.49457749494E+03  0.91651316288E+02 0.  0.
        254    2    1    2    0    0  0.37922575966E+03 -0.30105794565E+03  0.73616220077E+03  0.12621600947E+04  0.90369533327E+03 0.  0.
        -24    2    4    4    0    0 -0.17873413687E+03 -0.17376514494E+03  0.61943647599E+03  0.67264326538E+03  0.81284668880E+02 0.  0.
         24    2    4    4    0    0  0.55795989652E+03 -0.12729280071E+03  0.11672572477E+03  0.58951682931E+03  0.79890512437E+02 0.  0.
         13    1    3    3    0    0 -0.30557133624E+03  0.20918103099E+03  0.60960846038E+02  0.37529557686E+03  0.00000000000E+00 0. -1.
        -13    1    3    3    0    0 -0.73654423414E+02  0.91876914661E+02 -0.19021946433E+02  0.11928191809E+03  0.00000000000E+00 0.  1.
          2    1    6    6  502    0  0.77445684751E+02  0.82835417817E+01  0.25660187137E+02  0.82005465397E+02  0.00000000000E+00 0. -1.
          1    1    5    5  503    0 -0.84602952475E+02 -0.31543981076E+02  0.18290195671E+03  0.20397501827E+03  0.00000000000E+00 0. -1.
         -2    1    5    5    0  503 -0.94131184395E+02 -0.14222116387E+03  0.43653451928E+03  0.46866824711E+03  0.00000000000E+00 0.  1.
         -1    1    6    6    0  502  0.48051421177E+03 -0.13557634249E+03  0.91065537638E+02  0.50751136392E+03  0.00000000000E+00 0.  1.
<mgrwt>
<rscale>  0 0.15750192E+04</rscale>
<asrwt>0</asrwt>
<pdfrwt beam="1">  1        1 0.19498759E+00 0.15750192E+04</pdfrwt>
<pdfrwt beam="2">  1       -1 0.75279730E-01 0.15750192E+04</pdfrwt>
<totfact> 0.16283745E+01</totfact>
</mgrwt>
</event>
<event>
12    1  0.1574048E-007  0.1671098E+04  0.7818608E-02  0.8778022E-01
          1   -1    0    0  501    0  0.00000000000E+00  0.00000000000E+00  0.15333807309E+04  0.15333807309E+04  0.00000000000E+00 0. -1.
         -1   -1    0    0    0  501 -0.00000000000E+00 -0.00000000000E+00 -0.45529613927E+03  0.45529613927E+03  0.00000000000E+00 0.  1.
         23    2    1    2    0    0  0.17520182863E+03  0.21762241511E+03  0.10033389865E+04  0.10456566992E+04  0.93024805446E+02 0.  0.
        254    2    1    2    0    0 -0.17520182863E+03 -0.21762241511E+03  0.74745605210E+02  0.94302017105E+03  0.89757726196E+03 0.  0.
        -24    2    4    4    0    0 -0.42642225779E+03 -0.91384759838E+02 -0.24765422247E+03  0.50856491246E+03  0.84371440687E+02 0.  0.
         24    2    4    4    0    0  0.25122042916E+03 -0.12623765527E+03  0.32239982768E+03  0.43445525859E+03  0.75908320955E+02 0.  0.
         11    1    3    3    0    0 -0.58414393434E+01  0.41418820444E+02  0.14268565802E+03  0.14869041027E+03  0.00000000000E+00 0.  1.
        -11    1    3    3    0    0  0.18104326798E+03  0.17620359467E+03  0.86065332843E+03  0.89696628889E+03  0.00000000000E+00 0. -1.
          4    1    6    6  502    0  0.11079517999E+03 -0.29429309645E+02  0.87751930318E+02  0.14436778536E+03  0.00000000000E+00 0. -1.
          1    1    5    5  503    0 -0.19965486652E+03 -0.15545648101E+02 -0.75902465036E+02  0.21416096073E+03  0.00000000000E+00 0. -1.
         -2    1    5    5    0  503 -0.22676739127E+03 -0.75839111738E+02 -0.17175175743E+03  0.29440395173E+03  0.00000000000E+00 0.  1.
         -3    1    6    6    0  502  0.14042524917E+03 -0.96808345628E+02  0.23464789736E+03  0.29008747323E+03  0.00000000000E+00 0.  1.
<mgrwt>
<rscale>  0 0.16710982E+04</rscale>
<asrwt>0</asrwt>
<pdfrwt beam="1">  1        1 0.23590473E+00 0.16710982E+04</pdfrwt>
<pdfrwt beam="2">  1       -1 0.70045561E-01 0.16710982E+04</pdfrwt>
<totfact> 0.12190473E+01</totfact>
</mgrwt>
</event>
<event>
12    1  0.1519630E-007  0.1340261E+04  0.7818608E-02  0.8998233E-01
         -2   -1    0    0    0  501 -0.00000000000E+00  0.00000000000E+00  0.12857296829E+03  0.12857296829E+03  0.00000000000E+00 0.  1.
          2   -1    0    0  501    0  0.00000000000E+00 -0.00000000000E+00 -0.34927635731E+04  0.34927635731E+04  0.00000000000E+00 0. -1.
         23    2    1    2    0    0  0.32515364707E+03  0.86930017723E+02 -0.12754141281E+04  0.13222494221E+04  0.91545692113E+02 0.  0.
        254    2    1    2    0    0 -0.32515364707E+03 -0.86930017723E+02 -0.20887764767E+04  0.22990871193E+04  0.89974034614E+03 0.  0.
        -24    2    4    4    0    0 -0.36437260787E+03 -0.45103279646E+03 -0.13372558827E+04  0.14595944629E+04  0.77231595081E+02 0.  0.
         24    2    4    4    0    0  0.39218960796E+02  0.36410277874E+03 -0.75152059394E+03  0.83949265644E+03  0.76522916337E+02 0.  0.
         13    1    3    3    0    0  0.28982811737E+03  0.86944068264E+02 -0.10057748173E+04  0.10503059515E+04  0.00000000000E+00 0. -1.
        -13    1    3    3    0    0  0.35325529707E+02 -0.14050540651E-01 -0.26963931079E+03  0.27194347054E+03  0.00000000000E+00 0.  1.
          2    1    6    6  502    0 -0.16730788298E+02  0.77668083305E+02 -0.20639228749E+03  0.22115611404E+03  0.00000000000E+00 0. -1.
          3    1    5    5  503    0 -0.50677353526E+02 -0.26802242408E+02 -0.12936353019E+03  0.14149726959E+03  0.00000000000E+00 0. -1.
         -4    1    5    5    0  503 -0.31369525434E+03 -0.42423055405E+03 -0.12078923526E+04  0.13180971933E+04  0.00000000000E+00 0.  1.
         -1    1    6    6    0  502  0.55949749094E+02  0.28643469544E+03 -0.54512830645E+03  0.61833654240E+03  0.00000000000E+00 0.  1.
<mgrwt>
<rscale>  0 0.13402611E+04</rscale>
<asrwt>0</asrwt>
<pdfrwt beam="1">  1        2 0.53734821E+00 0.13402611E+04</pdfrwt>
<pdfrwt beam="2">  1       -2 0.19780458E-01 0.13402611E+04</pdfrwt>
<totfact> 0.17860793E+01</totfact>
</mgrwt>
</event>
<event>
12    1  0.1519630E-007  0.2022857E+04  0.7818608E-02  0.8596008E-01
         -2   -1    0    0    0  501 -0.00000000000E+00  0.00000000000E+00  0.13890677993E+04  0.13890677993E+04  0.00000000000E+00 0.  1.
          2   -1    0    0  501    0  0.00000000000E+00 -0.00000000000E+00 -0.73645626383E+03  0.73645626383E+03  0.00000000000E+00 0. -1.
         23    2    1    2    0    0 -0.74355272618E+03  0.12476629862E+03  0.57592131712E+03  0.95238164425E+03  0.83115262885E+02 0.  0.
        254    2    1    2    0    0  0.74355272618E+03 -0.12476629862E+03  0.76690218351E+02  0.11731424189E+04  0.89551351719E+03 0.  0.
        -24    2    4    4    0    0  0.91124835841E+03 -0.23966206868E+03  0.92714426766E+01  0.94492504958E+03  0.70610989265E+02 0.  0.
         24    2    4    4    0    0 -0.16769563223E+03  0.11489577006E+03  0.67418775674E+02  0.22821736929E+03  0.78835355555E+02 0.  0.
         13    1    3    3    0    0 -0.29185890373E+03  0.22925909089E+02  0.18425043371E+03  0.34591247349E+03  0.00000000000E+00 0. -1.
        -13    1    3    3    0    0 -0.45169382245E+03  0.10184038953E+03  0.39167088341E+03  0.60646917077E+03  0.00000000000E+00 0.  1.
          2    1    6    6  502    0 -0.40949424393E+01  0.19562323058E+02  0.28659990993E+02  0.34940637097E+02  0.00000000000E+00 0. -1.
          3    1    5    5  503    0  0.24243234662E+03 -0.39463036566E+02  0.22605483279E+02  0.24666126939E+03  0.00000000000E+00 0. -1.
         -4    1    5    5    0  503  0.66881601179E+03 -0.20019903212E+03 -0.13334040602E+02  0.69826378019E+03  0.00000000000E+00 0.  1.
         -1    1    6    6    0  502 -0.16360068979E+03  0.95333447001E+02  0.38758784681E+02  0.19327673219E+03  0.00000000000E+00 0.  1.
<mgrwt>
<rscale>  0 0.20228571E+04</rscale>
<asrwt>0</asrwt>
<pdfrwt beam="1">  1        2 0.11330096E+00 0.20228571E+04</pdfrwt>
<pdfrwt beam="2">  1       -2 0.21370274E+00 0.20228571E+04</pdfrwt>
<totfact> 0.38577375E+00</totfact>
</mgrwt>
</event>
<event>
12    1  0.1519630E-007  0.1590585E+04  0.7818608E-02  0.8826353E-01
         -2   -1    0    0    0  501 -0.00000000000E+00  0.00000000000E+00  0.18604998802E+03  0.18604998802E+03  0.00000000000E+00 0.  1.
          2   -1    0    0  501    0  0.00000000000E+00 -0.00000000000E+00 -0.33995721589E+04  0.33995721589E+04  0.00000000000E+00 0. -1.
         23    2    1    2    0    0 -0.53392471112E+03 -0.39544034570E+02 -0.11601569320E+04  0.12810347004E+04  0.91904673303E+02 0.  0.
        254    2    1    2    0    0  0.53392471112E+03  0.39544034570E+02 -0.20533652389E+04  0.23045874465E+04  0.89898563198E+03 0.  0.
        -24    2    4    4    0    0 -0.20462780202E+03 -0.35287370761E+02 -0.17344186174E+03  0.28176712259E+03  0.78694955824E+02 0.  0.
         24    2    4    4    0    0  0.73855251315E+03  0.74831405331E+02 -0.18799233771E+04  0.20228203239E+04  0.81428527052E+02 0.  0.
         13    1    3    3    0    0 -0.14562561770E+03 -0.11420048420E+02 -0.22718968736E+03  0.27009700494E+03  0.00000000000E+00 0. -1.
        -13    1    3    3    0    0 -0.38829909343E+03 -0.28123986150E+02 -0.93296724464E+03  0.10109376955E+04  0.00000000000E+00 0.  1.
          4    1    6    6  502    0  0.31121216230E+02 -0.90334359064E+01 -0.55826411017E+02  0.64550145088E+02  0.00000000000E+00 0. -1.
          3    1    5    5  503    0 -0.97244218821E+02 -0.47508641521E+02 -0.11864288709E+03  0.16059154327E+03  0.00000000000E+00 0. -1.
         -4    1    5    5    0  503 -0.10738358320E+03  0.12221270759E+02 -0.54798974650E+02  0.12117557932E+03  0.00000000000E+00 0.  1.
         -3    1    6    6    0  502  0.70743129692E+03  0.83864841238E+02 -0.18240969661E+04  0.19582701788E+04  0.00000000000E+00 0.  1.
<mgrwt>
<rscale>  0 0.15905853E+04</rscale>
<asrwt>0</asrwt>
<pdfrwt beam="1">  1        2 0.52301111E+00 0.15905853E+04</pdfrwt>
<pdfrwt beam="2">  1       -2 0.28623075E-01 0.15905853E+04</pdfrwt>
<totfact> 0.10356337E+01</totfact>
</mgrwt>
</event>
<event>
12    1  0.1519630E-007  0.1483124E+04  0.7818608E-02  0.8895753E-01
         -2   -1    0    0    0  501 -0.00000000000E+00  0.00000000000E+00  0.25851215742E+03  0.25851215742E+03  0.00000000000E+00 0.  1.
          2   -1    0    0  501    0  0.00000000000E+00 -0.00000000000E+00 -0.21272286794E+04  0.21272286794E+04  0.00000000000E+00 0. -1.
         23    2    1    2    0    0  0.40898112874E+03  0.17342680123E+03 -0.38219358728E+03  0.59303096378E+03  0.90947054916E+02 0.  0.
        254    2    1    2    0    0 -0.40898112874E+03 -0.17342680123E+03 -0.14865229347E+04  0.17927098731E+04  0.89817361041E+03 0.  0.
        -24    2    4    4    0    0 -0.65223016775E+03 -0.20978451483E+03 -0.78519639155E+03  0.10450809912E+04  0.79039044485E+02 0.  0.
         24    2    4    4    0    0  0.24324903901E+03  0.36357713599E+02 -0.70132654319E+03  0.74762888183E+03  0.81228359890E+02 0.  0.
         11    1    3    3    0    0  0.39427040528E+03  0.14386692242E+03 -0.34500955238E+03  0.54330326254E+03  0.00000000000E+00 0.  1.
        -11    1    3    3    0    0  0.14710723457E+02  0.29559878812E+02 -0.37184034899E+02  0.49727701247E+02  0.00000000000E+00 0. -1.
          4    1    6    6  502    0  0.24045408264E+03  0.22621785707E+02 -0.68372688242E+03  0.72512920283E+03  0.00000000000E+00 0. -1.
          1    1    5    5  503    0 -0.49898677563E+03 -0.19178684340E+03 -0.58768724943E+03  0.79444716546E+03  0.00000000000E+00 0. -1.
         -2    1    5    5    0  503 -0.15324339211E+03 -0.17997671435E+02 -0.19750914212E+03  0.25063382578E+03  0.00000000000E+00 0.  1.
         -3    1    6    6    0  502  0.27949563708E+01  0.13735927893E+02 -0.17599660766E+02  0.22499679004E+02  0.00000000000E+00 0.  1.
<mgrwt>
<rscale>  0 0.14831244E+04</rscale>
<asrwt>0</asrwt>
<pdfrwt beam="1">  1        2 0.32726594E+00 0.14831244E+04</pdfrwt>
<pdfrwt beam="2">  1       -2 0.39771103E-01 0.14831244E+04</pdfrwt>
<totfact> 0.32854624E+01</totfact>
</mgrwt>
</event>
<event>
12    1  0.1519630E-007  0.1829373E+04  0.7818608E-02  0.8690833E-01
         -1   -1    0    0    0  501 -0.00000000000E+00  0.00000000000E+00  0.12124079204E+04  0.12124079204E+04  0.00000000000E+00 0.  1.
          1   -1    0    0  501    0  0.00000000000E+00 -0.00000000000E+00 -0.69007416062E+03  0.69007416062E+03  0.00000000000E+00 0. -1.
         23    2    1    2    0    0 -0.82591651439E+02 -0.25992191668E+03  0.85637788844E+03  0.90335036401E+03  0.90983562757E+02 0.  0.
        254    2    1    2    0    0  0.82591651439E+02  0.25992191668E+03 -0.33404412870E+03  0.99913171697E+03  0.90127572046E+03 0.  0.
        -24    2    4    4    0    0  0.42875226222E+03  0.33630510407E+03 -0.31603667048E+03  0.63501188684E+03  0.80195348735E+02 0.  0.
         24    2    4    4    0    0 -0.34616061078E+03 -0.76383187390E+02 -0.18007458213E+02  0.36411983013E+03  0.81224518317E+02 0.  0.
         13    1    3    3    0    0 -0.30159820120E+02 -0.20442348700E+03  0.69028722901E+03  0.72055189634E+03  0.00000000000E+00 0.  1.
        -13    1    3    3    0    0 -0.52431831320E+02 -0.55498429673E+02  0.16609065943E+03  0.18279846766E+03  0.00000000000E+00 0. -1.
          2    1    6    6  502    0 -0.29844214859E+03 -0.80406885304E+02 -0.39560050474E+02  0.31160548912E+03  0.00000000000E+00 0. -1.
          1    1    5    5  503    0  0.37647187468E+03  0.26376467893E+03 -0.28231088391E+03  0.53944630266E+03  0.00000000000E+00 0. -1.
         -2    1    5    5    0  503  0.52280387539E+02  0.72540425134E+02 -0.33725786568E+02  0.95565584179E+02  0.00000000000E+00 0.  1.
         -1    1    6    6    0  502 -0.47718462190E+02  0.40236979141E+01  0.21552592261E+02  0.52514341011E+02  0.00000000000E+00 0.  1.
<mgrwt>
<rscale>  0 0.18293730E+04</rscale>
<asrwt>0</asrwt>
<pdfrwt beam="1">  1        1 0.10616526E+00 0.18293730E+04</pdfrwt>
<pdfrwt beam="2">  1       -1 0.18652430E+00 0.18293730E+04</pdfrwt>
<totfact> 0.48988595E+00</totfact>
</mgrwt>
</event>
<event>
12    1  0.1519630E-007  0.1148098E+04  0.7818608E-02  0.9159540E-01
          2   -1    0    0  501    0  0.00000000000E+00  0.00000000000E+00  0.75649231800E+03  0.75649231800E+03  0.00000000000E+00 0. -1.
         -2   -1    0    0    0  501 -0.00000000000E+00 -0.00000000000E+00 -0.43560549823E+03  0.43560549823E+03  0.00000000000E+00 0.  1.
         23    2    1    2    0    0 -0.73512526731E+02 -0.17726360839E+03  0.32149111071E+02  0.21504009608E+03  0.91554350714E+02 0.  0.
        254    2    1    2    0    0  0.73512526731E+02  0.17726360839E+03  0.28873770870E+03  0.97705772015E+03  0.91348007402E+03 0.  0.
        -24    2    4    4    0    0  0.36959570328E+03 -0.13639453827E+03 -0.74481372519E+02  0.40875007973E+03  0.79527975451E+02 0.  0.
         24    2    4    4    0    0 -0.29608317655E+03  0.31365814667E+03  0.36321908122E+03  0.56830764042E+03  0.70702141329E+02 0.  0.
         13    1    3    3    0    0 -0.23445339893E+02 -0.94558202722E+02  0.60016759938E+02  0.11442442544E+03  0.00000000000E+00 0. -1.
        -13    1    3    3    0    0 -0.50067186838E+02 -0.82705405670E+02 -0.27867648867E+02  0.10061567064E+03  0.00000000000E+00 0.  1.
          2    1    6    6  502    0 -0.72099303177E+01  0.10956147988E+01  0.20837213359E+02  0.22076524354E+02  0.00000000000E+00 0. -1.
          3    1    5    5  503    0  0.73113605955E+02  0.47649680957E+01 -0.19374127728E+02  0.75786945591E+02  0.00000000000E+00 0. -1.
         -2    1    5    5    0  503  0.29648209732E+03 -0.14115950637E+03 -0.55107244791E+02  0.33296313414E+03  0.00000000000E+00 0.  1.
         -1    1    6    6    0  502 -0.28887324623E+03  0.31256253187E+03  0.34238186786E+03  0.54623111606E+03  0.00000000000E+00 0.  1.
<mgrwt>
<rscale>  0 0.11480979E+04</rscale>
<asrwt>0</asrwt>
<pdfrwt beam="1">  1        2 0.11638343E+00 0.11480979E+04</pdfrwt>
<pdfrwt beam="2">  1       -2 0.67016231E-01 0.11480979E+04</pdfrwt>
<totfact> 0.75064009E+01</totfact>
</mgrwt>
</event>
<event>
12    1  0.1519630E-007  0.1510648E+04  0.7818608E-02  0.8877403E-01
         -1   -1    0    0    0  501 -0.00000000000E+00  0.00000000000E+00  0.13162189342E+04  0.13162189342E+04  0.00000000000E+00 0.  1.
          1   -1    0    0  501    0  0.00000000000E+00 -0.00000000000E+00 -0.43344966104E+03  0.43344966104E+03  0.00000000000E+00 0. -1.
         23    2    1    2    0    0  0.13383810905E+03 -0.52937045171E+02 -0.24424450358E+03  0.29830628748E+03  0.92823991713E+02 0.  0.
        254    2    1    2    0    0 -0.13383810905E+03  0.52937045171E+02  0.11270137767E+04  0.14513623077E+04  0.90309330927E+03 0.  0.
        -24    2    4    4    0    0 -0.24862221796E+03  0.39132333392E+03  0.33496529037E+03  0.57884206043E+03  0.88934955087E+02 0.  0.
         24    2    4    4    0    0  0.11478410890E+03 -0.33838628875E+03  0.79204848635E+03  0.87252024732E+03  0.79183995713E+02 0.  0.
         11    1    3    3    0    0  0.17133154140E+02 -0.21779040898E+02 -0.12693554877E+03  0.12992499811E+03  0.00000000000E+00 0.  1.
        -11    1    3    3    0    0  0.11670495491E+03 -0.31158004273E+02 -0.11730895481E+03  0.16838128937E+03  0.00000000000E+00 0. -1.
          2    1    6    6  502    0  0.16340023656E+02 -0.54113444304E+01  0.23070954409E+02  0.28784509010E+02  0.00000000000E+00 0. -1.
          1    1    5    5  503    0 -0.52616348057E+02  0.15832203076E+03  0.10301879030E+03  0.19607961817E+03  0.00000000000E+00 0. -1.
         -2    1    5    5    0  503 -0.19600586990E+03  0.23300130316E+03  0.23194650007E+03  0.38276244226E+03  0.00000000000E+00 0.  1.
         -1    1    6    6    0  502  0.98444085248E+02 -0.33297494432E+03  0.76897753194E+03  0.84373573831E+03  0.00000000000E+00 0.  1.
<mgrwt>
<rscale>  0 0.15106484E+04</rscale>
<asrwt>0</asrwt>
<pdfrwt beam="1">  1        1 0.66684564E-01 0.15106484E+04</pdfrwt>
<pdfrwt beam="2">  1       -1 0.20249522E+00 0.15106484E+04</pdfrwt>
<totfact> 0.75305641E+00</totfact>
</mgrwt>
</event>
<event>
12    1  0.1519630E-007  0.1561042E+04  0.7818608E-02  0.8844846E-01
          2   -1    0    0  501    0  0.00000000000E+00  0.00000000000E+00  0.16669994385E+04  0.16669994385E+04  0.00000000000E+00 0. -1.
         -2   -1    0    0    0  501 -0.00000000000E+00 -0.00000000000E+00 -0.36545478424E+03  0.36545478424E+03  0.00000000000E+00 0.  1.
         23    2    1    2    0    0  0.13821842421E+03  0.48928389463E+03  0.51506278275E+03  0.72961835506E+03  0.92467353885E+02 0.  0.
        254    2    1    2    0    0 -0.13821842421E+03 -0.48928389463E+03  0.78648187155E+03  0.13028358677E+04  0.90571767211E+03 0.  0.
        -24    2    4    4    0    0  0.15691878272E+03  0.78628517743E+02 -0.91163432976E+02  0.21387664983E+03  0.81403327079E+02 0.  0.
         24    2    4    4    0    0 -0.29513720693E+03 -0.56791241237E+03  0.87764530452E+03  0.10889592179E+04  0.77074111078E+02 0.  0.
         13    1    3    3    0    0  0.60821626374E+01  0.22510320117E+02  0.60403809662E+02  0.64748184807E+02  0.00000000000E+00 0. -1.
        -13    1    3    3    0    0  0.13213626157E+03  0.46677357451E+03  0.45465897308E+03  0.66487017025E+03  0.00000000000E+00 0.  1.
          2    1    6    6  502    0 -0.17594379992E+03 -0.33805057047E+03  0.45747132037E+03  0.59541113349E+03  0.00000000000E+00 0. -1.
          3    1    5    5  503    0 -0.42870535025E+01 -0.88031346976E+01 -0.73463965806E+01  0.12241060042E+02  0.00000000000E+00 0. -1.
         -4    1    5    5    0  503  0.16120583622E+03  0.87431652440E+02 -0.83817036395E+02  0.20163558979E+03  0.00000000000E+00 0.  1.
         -1    1    6    6    0  502 -0.11919340701E+03 -0.22986184191E+03  0.42017398415E+03  0.49354808438E+03  0.00000000000E+00 0.  1.
<mgrwt>
<rscale>  0 0.15610419E+04</rscale>
<asrwt>0</asrwt>
<pdfrwt beam="1">  1        2 0.25646145E+00 0.15610419E+04</pdfrwt>
<pdfrwt beam="2">  1       -2 0.56223814E-01 0.15610419E+04</pdfrwt>
<totfact> 0.29215309E+01</totfact>
</mgrwt>
</event>
<event>
12    1  0.1519630E-007  0.1603449E+04  0.7818608E-02  0.8818432E-01
         -2   -1    0    0    0  501 -0.00000000000E+00  0.00000000000E+00  0.87777511706E+03  0.87777511706E+03  0.00000000000E+00 0.  1.
          2   -1    0    0  501    0  0.00000000000E+00 -0.00000000000E+00 -0.73226255965E+03  0.73226255965E+03  0.00000000000E+00 0. -1.
         23    2    1    2    0    0 -0.44900913769E+01  0.54637484446E+03  0.34815763248E+02  0.55514982212E+03  0.91834394714E+02 0.  0.
        254    2    1    2    0    0  0.44900913769E+01 -0.54637484446E+03  0.11069679417E+03  0.10548878546E+04  0.89553837101E+03 0.  0.
        -24    2    4    4    0    0 -0.43342484169E+03 -0.26119612673E+03 -0.10045587628E+02  0.51265959559E+03  0.81476604689E+02 0.  0.
         24    2    4    4    0    0  0.43791493307E+03 -0.28517871773E+03  0.12074238180E+03  0.54222825900E+03  0.79601334483E+02 0.  0.
         11    1    3    3    0    0 -0.80274850267E+01  0.54889008295E+03  0.37181468594E+02  0.55020652966E+03  0.00000000000E+00 0. -1.
        -11    1    3    3    0    0  0.35373936498E+01 -0.25152384941E+01 -0.23657053461E+01  0.49432924554E+01  0.00000000000E+00 0.  1.
          4    1    6    6  502    0  0.41489448295E+03 -0.28771438381E+03  0.11018755967E+03  0.51677683476E+03  0.00000000000E+00 0. -1.
          3    1    5    5  503    0 -0.26693249169E+03 -0.13401290457E+03 -0.38760576936E+02  0.30118897064E+03  0.00000000000E+00 0. -1.
         -4    1    5    5    0  503 -0.16649235000E+03 -0.12718322216E+03  0.28714989308E+02  0.21147062495E+03  0.00000000000E+00 0.  1.
         -3    1    6    6    0  502  0.23020450114E+02  0.25356660845E+01  0.10554822125E+02  0.25451424244E+02  0.00000000000E+00 0.  1.
<mgrwt>
<rscale>  0 0.16034486E+04</rscale>
<asrwt>0</asrwt>
<pdfrwt beam="1">  1        2 0.11265578E+00 0.16034486E+04</pdfrwt>
<pdfrwt beam="2">  1       -2 0.13504233E+00 0.16034486E+04</pdfrwt>
<totfact> 0.14612482E+01</totfact>
</mgrwt>
</event>
<event>
12    1  0.1519630E-007  0.2425800E+04  0.7818608E-02  0.8429907E-01
         -2   -1    0    0    0  501 -0.00000000000E+00  0.00000000000E+00  0.88539234066E+03  0.88539234066E+03  0.00000000000E+00 0.  1.
          2   -1    0    0  501    0  0.00000000000E+00 -0.00000000000E+00 -0.16615530973E+04  0.16615530973E+04  0.00000000000E+00 0. -1.
         23    2    1    2    0    0 -0.76345923363E+03  0.69647796557E+03 -0.15156430529E+03  0.10483003395E+04  0.89500308603E+02 0.  0.
        254    2    1    2    0    0  0.76345923363E+03 -0.69647796557E+03 -0.62459645135E+03  0.14986450985E+04  0.88761751118E+03 0.  0.
        -24    2    4    4    0    0  0.21151888319E+03 -0.51778825162E+03 -0.70966071195E+03  0.90710798261E+03  0.79885258785E+02 0.  0.
         24    2    4    4    0    0  0.55194035043E+03 -0.17868971395E+03  0.85064260601E+02  0.59153711584E+03  0.78179707605E+02 0.  0.
         11    1    3    3    0    0 -0.74713686287E+03  0.67109008395E+03 -0.13346741637E+03  0.10131085548E+04  0.00000000000E+00 0.  1.
        -11    1    3    3    0    0 -0.16322370757E+02  0.25387881620E+02 -0.18096888921E+02  0.35191784679E+02  0.00000000000E+00 0. -1.
          4    1    6    6  502    0  0.15949065467E+03 -0.16438561543E+02  0.32924133695E+02  0.16368107347E+03  0.00000000000E+00 0. -1.
          1    1    5    5  503    0  0.27308693030E+01 -0.30577117944E+02 -0.17631283442E+02  0.35401694094E+02  0.00000000000E+00 0. -1.
         -4    1    5    5    0  503  0.20878801389E+03 -0.48721113368E+03 -0.69202942851E+03  0.87170628852E+03  0.00000000000E+00 0.  1.
         -3    1    6    6    0  502  0.39244969576E+03 -0.16225115240E+03  0.52140126905E+02  0.42785604237E+03  0.00000000000E+00 0.  1.
<mgrwt>
<rscale>  0 0.24258000E+04</rscale>
<asrwt>0</asrwt>
<pdfrwt beam="1">  1        2 0.25562355E+00 0.24258000E+04</pdfrwt>
<pdfrwt beam="2">  1       -2 0.13621421E+00 0.24258000E+04</pdfrwt>
<totfact> 0.35651656E+00</totfact>
</mgrwt>
</event>
<event>
12    1  0.1519630E-007  0.1241362E+04  0.7818608E-02  0.9077403E-01
          1   -1    0    0  501    0  0.00000000000E+00  0.00000000000E+00  0.77197987907E+03  0.77197987907E+03  0.00000000000E+00 0. -1.
         -1   -1    0    0    0  501 -0.00000000000E+00 -0.00000000000E+00 -0.49903494916E+03  0.49903494916E+03  0.00000000000E+00 0.  1.
         23    2    1    2    0    0  0.46525624567E+02 -0.18215659565E+03 -0.14480904751E+03  0.25464527838E+03  0.92352035603E+02 0.  0.
        254    2    1    2    0    0 -0.46525624567E+02  0.18215659565E+03  0.41775397742E+03  0.10163695499E+04  0.90727229492E+03 0.  0.
        -24    2    4    4    0    0  0.35290953295E+03  0.32572515732E+03  0.29702115189E+03  0.56912358890E+03  0.70979421096E+02 0.  0.
         24    2    4    4    0    0 -0.39943515751E+03 -0.14356856167E+03  0.12073282553E+03  0.44724596095E+03  0.72747216204E+02 0.  0.
         13    1    3    3    0    0  0.21132512602E+02 -0.65308804094E+00 -0.35305603403E+02  0.41152098908E+02  0.00000000000E+00 0. -1.
        -13    1    3    3    0    0  0.25393111965E+02 -0.18150350761E+03 -0.10950344411E+03  0.21349317947E+03  0.00000000000E+00 0.  1.
          4    1    6    6  502    0 -0.21412154180E+02 -0.27125816994E+02  0.15889886938E+02  0.38036545599E+02  0.00000000000E+00 0. -1.
          3    1    5    5  503    0  0.50268508580E+02  0.83132245417E+02  0.69472870355E+02  0.11943355014E+03  0.00000000000E+00 0. -1.
         -4    1    5    5    0  503  0.30264102437E+03  0.24259291190E+03  0.22754828154E+03  0.44969003877E+03  0.00000000000E+00 0.  1.
         -3    1    6    6    0  502 -0.37802300333E+03 -0.11644274468E+03  0.10484293859E+03  0.40920941535E+03  0.00000000000E+00 0.  1.
<mgrwt>
<rscale>  0 0.12413621E+04</rscale>
<asrwt>0</asrwt>
<pdfrwt beam="1">  1        1 0.11876614E+00 0.12413621E+04</pdfrwt>
<pdfrwt beam="2">  1       -1 0.76774607E-01 0.12413621E+04</pdfrwt>
<totfact> 0.39327270E+01</totfact>
</mgrwt>
</event>
<event>
12    1  0.1519630E-007  0.1441430E+04  0.7818608E-02  0.8924363E-01
         -1   -1    0    0    0  501 -0.00000000000E+00  0.00000000000E+00  0.57521566865E+03  0.57521566865E+03  0.00000000000E+00 0.  1.
          1   -1    0    0  501    0  0.00000000000E+00 -0.00000000000E+00 -0.90301854237E+03  0.90301854237E+03  0.00000000000E+00 0. -1.
         23    2    1    2    0    0  0.42659978495E+03  0.97767780930E+02 -0.89071412817E+02  0.45581259286E+03  0.91024654506E+02 0.  0.
        254    2    1    2    0    0 -0.42659978495E+03 -0.97767780930E+02 -0.23873146090E+03  0.10224216182E+04  0.89264065522E+03 0.  0.
        -24    2    4    4    0    0  0.23512191769E+03  0.16521621063E+01 -0.24436994923E+03  0.34842208482E+03  0.79976442065E+02 0.  0.
         24    2    4    4    0    0 -0.66172170264E+03 -0.99419943036E+02  0.56384883278E+01  0.67399953334E+03  0.80521062907E+02 0.  0.
         13    1    3    3    0    0  0.22227368727E+03  0.48606439010E+02 -0.92543869362E+02  0.24562684243E+03  0.00000000000E+00 0. -1.
        -13    1    3    3    0    0  0.20432609767E+03  0.49161341920E+02  0.34724565450E+01  0.21018575043E+03  0.00000000000E+00 0.  1.
          2    1    6    6  502    0 -0.39161785566E+03 -0.97126786284E+02 -0.77119176446E+01  0.40355623048E+03  0.00000000000E+00 0. -1.
          1    1    5    5  503    0  0.82027376860E+02  0.16068236769E+02 -0.40004313797E+02  0.92666196155E+02  0.00000000000E+00 0. -1.
         -2    1    5    5    0  503  0.15309454083E+03 -0.14416074663E+02 -0.20436563544E+03  0.25575588867E+03  0.00000000000E+00 0.  1.
         -1    1    6    6    0  502 -0.27010384698E+03 -0.22931567524E+01  0.13350405972E+02  0.27044330286E+03  0.00000000000E+00 0.  1.
<mgrwt>
<rscale>  0 0.14414304E+04</rscale>
<asrwt>0</asrwt>
<pdfrwt beam="1">  1        1 0.13892593E+00 0.14414304E+04</pdfrwt>
<pdfrwt beam="2">  1       -1 0.88494719E-01 0.14414304E+04</pdfrwt>
<totfact> 0.22053060E+01</totfact>
</mgrwt>
</event>
<event>
12    1  0.1519630E-007  0.1804687E+04  0.7818608E-02  0.8703811E-01
          1   -1    0    0  501    0  0.00000000000E+00  0.00000000000E+00  0.12115293435E+04  0.12115293435E+04  0.00000000000E+00 0. -1.
         -1   -1    0    0    0  501 -0.00000000000E+00 -0.00000000000E+00 -0.67206273039E+03  0.67206273039E+03  0.00000000000E+00 0.  1.
         23    2    1    2    0    0  0.14205477763E+03 -0.61879633914E+03  0.42635574423E+03  0.77086675911E+03  0.96787760048E+02 0.  0.
        254    2    1    2    0    0 -0.14205477763E+03  0.61879633914E+03  0.11311086890E+03  0.11127253148E+04  0.90679385108E+03 0.  0.
        -24    2    4    4    0    0  0.25598995113E+03  0.34336108129E+01  0.24526493708E+03  0.36377160085E+03  0.81438587076E+02 0.  0.
         24    2    4    4    0    0 -0.39804472876E+03  0.61536272832E+03 -0.13215406818E+03  0.74895371395E+03  0.79724992324E+02 0.  0.
         13    1    3    3    0    0 -0.11539871828E+02 -0.48486048885E+02  0.18797394938E+02  0.53267322391E+02  0.00000000000E+00 0.  1.
        -13    1    3    3    0    0  0.15359464946E+03 -0.57031029025E+03  0.40755834929E+03  0.71759943672E+03  0.00000000000E+00 0. -1.
          2    1    6    6  502    0 -0.67792547603E+01  0.18697942237E+02 -0.17093624260E+02  0.26225242217E+02  0.00000000000E+00 0. -1.
          1    1    5    5  503    0  0.59511495717E+02  0.31924642548E+02  0.41427757258E+02  0.79227899099E+02  0.00000000000E+00 0. -1.
         -2    1    5    5    0  503  0.19647845541E+03 -0.28491031735E+02  0.20383717982E+03  0.28454370175E+03  0.00000000000E+00 0.  1.
         -1    1    6    6    0  502 -0.39126547400E+03  0.59666478609E+03 -0.11506044392E+03  0.72272847173E+03  0.00000000000E+00 0.  1.
<mgrwt>
<rscale>  0 0.18046869E+04</rscale>
<asrwt>0</asrwt>
<pdfrwt beam="1">  1        1 0.18638913E+00 0.18046869E+04</pdfrwt>
<pdfrwt beam="2">  1       -1 0.10339427E+00 0.18046869E+04</pdfrwt>
<totfact> 0.87241189E+00</totfact>
</mgrwt>
</event>
<event>
12    1  0.1519630E-007  0.1464293E+04  0.7818608E-02  0.8908551E-01
          3   -1    0    0  501    0  0.00000000000E+00  0.00000000000E+00  0.90357177289E+03  0.90357177289E+03  0.00000000000E+00 0. -1.
         -3   -1    0    0    0  501 -0.00000000000E+00 -0.00000000000E+00 -0.59324375425E+03  0.59324375425E+03  0.00000000000E+00 0.  1.
         23    2    1    2    0    0 -0.37095050111E+03  0.22953735275E+03 -0.12442088272E+02  0.44538218344E+03  0.88987713639E+02 0.  0.
        254    2    1    2    0    0  0.37095050111E+03 -0.22953735275E+03  0.32277010692E+03  0.10514333437E+04  0.90057751679E+03 0.  0.
        -24    2    4    4    0    0 -0.44714147293E+02 -0.48249239887E+03  0.25468574569E+03  0.55253982980E+03  0.75081053037E+02 0.  0.
         24    2    4    4    0    0  0.41566464841E+03  0.25295504613E+03  0.68084361229E+02  0.49889351390E+03  0.86578881199E+02 0.  0.
         11    1    3    3    0    0 -0.17186297727E+03  0.12443860448E+03  0.35701821312E+02  0.21516614345E+03  0.00000000000E+00 0.  1.
        -11    1    3    3    0    0 -0.19908752385E+03  0.10509874827E+03 -0.48143909584E+02  0.23021603999E+03  0.00000000000E+00 0. -1.
          2    1    6    6  502    0  0.38553839557E+03  0.23149447635E+03  0.38159085900E+02  0.45131548043E+03  0.00000000000E+00 0. -1.
          3    1    5    5  503    0 -0.28293672564E+02 -0.45851923958E+03  0.22704376579E+03  0.51243467541E+03  0.00000000000E+00 0. -1.
         -4    1    5    5    0  503 -0.16420474728E+02 -0.23973159290E+02  0.27641979894E+02  0.40105154396E+02  0.00000000000E+00 0.  1.
         -1    1    6    6    0  502  0.30126252833E+02  0.21460569778E+02  0.29925275328E+02  0.47578033465E+02  0.00000000000E+00 0.  1.
<mgrwt>
<rscale>  0 0.14642927E+04</rscale>
<asrwt>0</asrwt>
<pdfrwt beam="1">  1        3 0.13901104E+00 0.14642927E+04</pdfrwt>
<pdfrwt beam="2">  1       -3 0.91268270E-01 0.14642927E+04</pdfrwt>
<totfact> 0.10773824E+00</totfact>
</mgrwt>
</event>
<event>
12    1  0.1519630E-007  0.1761661E+04  0.7818608E-02  0.8726958E-01
         -1   -1    0    0    0  501 -0.00000000000E+00  0.00000000000E+00  0.52302529356E+03  0.52302529356E+03  0.00000000000E+00 0.  1.
          1   -1    0    0  501    0  0.00000000000E+00 -0.00000000000E+00 -0.14834128220E+04  0.14834128220E+04  0.00000000000E+00 0. -1.
         23    2    1    2    0    0 -0.33403857136E+03 -0.43400262755E+03  0.30476336679E+02  0.55604590242E+03  0.91204115186E+02 0.  0.
        254    2    1    2    0    0  0.33403857136E+03  0.43400262755E+03 -0.99086386515E+03  0.14503922132E+04  0.90657946419E+03 0.  0.
        -24    2    4    4    0    0  0.13120996237E+03 -0.76303380415E+02  0.12016542457E+03  0.20832844201E+03  0.76959407476E+02 0.  0.
         24    2    4    4    0    0  0.20282860898E+03  0.51030600796E+03 -0.11110292897E+04  0.12420637712E+04  0.82369063461E+02 0.  0.
         13    1    3    3    0    0 -0.25612354137E+03 -0.33912754627E+03 -0.14691537944E+02  0.42523240983E+03  0.00000000000E+00 0. -1.
        -13    1    3    3    0    0 -0.77915029989E+02 -0.94875081278E+02  0.45167874622E+02  0.13081349259E+03  0.00000000000E+00 0.  1.
          2    1    6    6  502    0  0.18016076177E+03  0.46581814712E+03 -0.94739889091E+03  0.10709851095E+04  0.00000000000E+00 0. -1.
          3    1    5    5  503    0  0.51582763593E+02 -0.54707461136E+02  0.18565651321E+02  0.77449152435E+02  0.00000000000E+00 0. -1.
         -2    1    5    5    0  503  0.79627198781E+02 -0.21595919279E+02  0.10159977325E+03  0.13087928958E+03  0.00000000000E+00 0.  1.
         -1    1    6    6    0  502  0.22667847219E+02  0.44487860841E+02 -0.16363039882E+03  0.17107866166E+03  0.00000000000E+00 0.  1.
<mgrwt>
<rscale>  0 0.17616611E+04</rscale>
<asrwt>0</asrwt>
<pdfrwt beam="1">  1        1 0.22821735E+00 0.17616611E+04</pdfrwt>
<pdfrwt beam="2">  1       -1 0.80465431E-01 0.17616611E+04</pdfrwt>
<totfact> 0.97975460E+00</totfact>
</mgrwt>
</event>
<event>
12    1  0.1519630E-007  0.2015122E+04  0.7818608E-02  0.8599583E-01
         -2   -1    0    0    0  501 -0.00000000000E+00  0.00000000000E+00  0.59133091155E+03  0.59133091155E+03  0.00000000000E+00 0.  1.
          2   -1    0    0  501    0  0.00000000000E+00 -0.00000000000E+00 -0.17167700073E+04  0.17167700073E+04  0.00000000000E+00 0. -1.
         23    2    1    2    0    0  0.69200977218E+03 -0.31740928935E+03 -0.11835603978E+03  0.77571924701E+03  0.90033417462E+02 0.  0.
        254    2    1    2    0    0 -0.69200977218E+03  0.31740928935E+03 -0.10070830560E+04  0.15323816719E+04  0.86853389390E+03 0.  0.
        -24    2    4    4    0    0 -0.28992587402E+03 -0.66355942480E+02  0.71556966644E+02  0.31630186526E+03  0.80413599358E+02 0.  0.
         24    2    4    4    0    0 -0.40208389817E+03  0.38376523183E+03 -0.10786400226E+04  0.12160798066E+04  0.80240783219E+02 0.  0.
         13    1    3    3    0    0  0.23215744844E+03 -0.60874904535E+02 -0.32453150322E+02  0.24219009441E+03  0.00000000000E+00 0. -1.
        -13    1    3    3    0    0  0.45985232375E+03 -0.25653438481E+03 -0.85902889459E+02  0.53352915259E+03  0.00000000000E+00 0.  1.
          2    1    6    6  502    0 -0.99899441339E+02  0.82406345476E+02 -0.18570412475E+03  0.22639948344E+03  0.00000000000E+00 0. -1.
          1    1    5    5  503    0 -0.19281346937E+02 -0.40557521398E+01  0.29409103978E+02  0.35399362451E+02  0.00000000000E+00 0. -1.
         -2    1    5    5    0  503 -0.27064452708E+03 -0.62300190340E+02  0.42147862667E+02  0.28090250280E+03  0.00000000000E+00 0.  1.
         -1    1    6    6    0  502 -0.30218445683E+03  0.30135888635E+03 -0.89293589789E+03  0.98968032317E+03  0.00000000000E+00 0.  1.
<mgrwt>
<rscale>  0 0.20151220E+04</rscale>
<asrwt>0</asrwt>
<pdfrwt beam="1">  1        2 0.26411846E+00 0.20151220E+04</pdfrwt>
<pdfrwt beam="2">  1       -2 0.90973986E-01 0.20151220E+04</pdfrwt>
<totfact> 0.91811143E+00</totfact>
</mgrwt>
</event>
<event>
12    1  0.1519630E-007  0.1803684E+04  0.7818608E-02  0.8704343E-01
         -1   -1    0    0    0  501 -0.00000000000E+00  0.00000000000E+00  0.54986031409E+03  0.54986031409E+03  0.00000000000E+00 0.  1.
          1   -1    0    0  501    0  0.00000000000E+00 -0.00000000000E+00 -0.14791373550E+04  0.14791373550E+04  0.00000000000E+00 0. -1.
         23    2    1    2    0    0 -0.67634625371E+03  0.41294242627E+02 -0.30550617286E+03  0.74877163949E+03  0.90418344739E+02 0.  0.
        254    2    1    2    0    0  0.67634625371E+03 -0.41294242627E+02 -0.62377086800E+03  0.12802260296E+04  0.88923513291E+03 0.  0.
        -24    2    4    4    0    0  0.79506984903E+03 -0.27383556342E+03 -0.49999921723E+03  0.98093970811E+03  0.71564747485E+02 0.  0.
         24    2    4    4    0    0 -0.11872359532E+03  0.23254132080E+03 -0.12377165077E+03  0.29928632145E+03  0.77987965127E+02 0.  0.
         13    1    3    3    0    0 -0.19914437130E+03  0.46684470678E+02 -0.66838746017E+02  0.21518675237E+03  0.00000000000E+00 0. -1.
        -13    1    3    3    0    0 -0.47720188241E+03 -0.53902280512E+01 -0.23866742684E+03  0.53358488712E+03  0.00000000000E+00 0.  1.
          2    1    6    6  502    0  0.90939784144E+01  0.62863011577E+01 -0.12259323330E+02  0.16507847654E+02  0.00000000000E+00 0. -1.
          3    1    5    5  503    0  0.19486024969E+03 -0.99862635453E+02 -0.12415192072E+03  0.25170769215E+03  0.00000000000E+00 0. -1.
         -4    1    5    5    0  503  0.60020959934E+03 -0.17397292797E+03 -0.37584729651E+03  0.72923201596E+03  0.00000000000E+00 0.  1.
         -1    1    6    6    0  502 -0.12781757374E+03  0.22625501964E+03 -0.11151232744E+03  0.28277847379E+03  0.00000000000E+00 0.  1.
<mgrwt>
<rscale>  0 0.18036839E+04</rscale>
<asrwt>0</asrwt>
<pdfrwt beam="1">  1        1 0.22755959E+00 0.18036839E+04</pdfrwt>
<pdfrwt beam="2">  1       -1 0.84593896E-01 0.18036839E+04</pdfrwt>
<totfact> 0.88261088E+00</totfact>
</mgrwt>
</event>
<event>
12    1  0.1519630E-007  0.1699322E+04  0.7818608E-02  0.8761751E-01
          1   -1    0    0  501    0  0.00000000000E+00  0.00000000000E+00  0.17416027973E+04  0.17416027973E+04  0.00000000000E+00 0. -1.
         -1   -1    0    0    0  501 -0.00000000000E+00 -0.00000000000E+00 -0.41451678168E+03  0.41451678168E+03  0.00000000000E+00 0.  1.
         23    2    1    2    0    0  0.17892741531E+03  0.20652501589E+03  0.11765490493E+04  0.12113248801E+04  0.91502446040E+02 0.  0.
        254    2    1    2    0    0 -0.17892741531E+03 -0.20652501589E+03  0.15053696626E+03  0.94479469881E+03  0.89180044996E+03 0.  0.
        -24    2    4    4    0    0  0.19327130908E+03  0.13231903058E+02 -0.26540013694E+03  0.33959405098E+03  0.85778812066E+02 0.  0.
         24    2    4    4    0    0 -0.37219872439E+03 -0.21975691895E+03  0.41593710320E+03  0.60520064783E+03  0.80244354577E+02 0.  0.
         13    1    3    3    0    0  0.39701687905E+02  0.43028989730E+02  0.44729360021E+03  0.45110894778E+03  0.00000000000E+00 0.  1.
        -13    1    3    3    0    0  0.13922572741E+03  0.16349602616E+03  0.72925544912E+03  0.76021593236E+03  0.00000000000E+00 0. -1.
          2    1    6    6  502    0 -0.30379408957E+03 -0.14267127745E+03  0.30105803965E+03  0.45086792468E+03  0.00000000000E+00 0. -1.
          1    1    5    5  503    0  0.18925202168E+03 -0.65261557549E+01 -0.22236938122E+03  0.29207372378E+03  0.00000000000E+00 0. -1.
         -2    1    5    5    0  503  0.40192874038E+01  0.19758058813E+02 -0.43030755718E+02  0.47520327198E+02  0.00000000000E+00 0.  1.
         -1    1    6    6    0  502 -0.68404634824E+02 -0.77085641504E+02  0.11487906355E+03  0.15433272315E+03  0.00000000000E+00 0.  1.
<mgrwt>
<rscale>  0 0.16993217E+04</rscale>
<asrwt>0</asrwt>
<pdfrwt beam="1">  1        1 0.26793889E+00 0.16993217E+04</pdfrwt>
<pdfrwt beam="2">  1       -1 0.63771814E-01 0.16993217E+04</pdfrwt>
<totfact> 0.10595217E+01</totfact>
</mgrwt>
</event>
<event>
12    1  0.1519630E-007  0.1717083E+04  0.7818608E-02  0.8751681E-01
         -2   -1    0    0    0  501 -0.00000000000E+00  0.00000000000E+00  0.23903227009E+03  0.23903227009E+03  0.00000000000E+00 0. -1.
          2   -1    0    0  501    0  0.00000000000E+00 -0.00000000000E+00 -0.30836584310E+04  0.30836584310E+04  0.00000000000E+00 0.  1.
         23    2    1    2    0    0 -0.42533366561E+03  0.44695737143E+03 -0.10055417691E+04  0.11831403284E+04  0.89594465533E+02 0.  0.
        254    2    1    2    0    0  0.42533366561E+03 -0.44695737143E+03 -0.18390843918E+04  0.21395503727E+04  0.90264321757E+03 0.  0.
        -24    2    4    4    0    0 -0.33478592843E+01  0.25044132078E+03 -0.56380475634E+03  0.62211638501E+03  0.80130705158E+02 0.  0.
         24    2    4    4    0    0  0.42868152489E+03 -0.69739869221E+03 -0.12752796354E+04  0.15174339877E+04  0.78326066627E+02 0.  0.
         11    1    3    3    0    0 -0.24526320784E+03  0.21523419185E+03 -0.59325794582E+03  0.67707812602E+03  0.00000000000E+00 0. -1.
        -11    1    3    3    0    0 -0.18007045777E+03  0.23172317957E+03 -0.41228382332E+03  0.50606220239E+03  0.00000000000E+00 0.  1.
          4    1    6    6  502    0  0.23592986359E+03 -0.30920955331E+03 -0.60614327512E+03  0.72019658314E+03  0.00000000000E+00 0. -1.
          3    1    5    5  503    0  0.26636062632E+02  0.20514891414E+03 -0.47376719353E+03  0.51696316162E+03  0.00000000000E+00 0. -1.
         -4    1    5    5    0  503 -0.29983921916E+02  0.45292406639E+02 -0.90037562815E+02  0.10515322339E+03  0.00000000000E+00 0.  1.
         -1    1    6    6    0  502  0.19275166130E+03 -0.38818913890E+03 -0.66913636029E+03  0.79723740451E+03  0.00000000000E+00 0.  1.
<mgrwt>
<rscale>  0 0.17170834E+04</rscale>
<asrwt>0</asrwt>
<pdfrwt beam="1">  1        2 0.47440896E+00 0.17170834E+04</pdfrwt>
<pdfrwt beam="2">  1       -2 0.36774198E-01 0.17170834E+04</pdfrwt>
<totfact> 0.10258274E+01</totfact>
</mgrwt>
</event>
<event>
12    1  0.1519630E-007  0.1640605E+04  0.7818608E-02  0.8795984E-01
          2   -1    0    0  501    0  0.00000000000E+00  0.00000000000E+00  0.15239597648E+04  0.15239597648E+04  0.00000000000E+00 0. -1.
         -2   -1    0    0    0  501 -0.00000000000E+00 -0.00000000000E+00 -0.44154432436E+03  0.44154432436E+03  0.00000000000E+00 0.  1.
         23    2    1    2    0    0 -0.28467000884E+02 -0.53021231163E+03  0.25021058114E+03  0.59447082618E+03  0.94099748777E+02 0.  0.
        254    2    1    2    0    0  0.28467000884E+02  0.53021231163E+03  0.83220485929E+03  0.13710332630E+04  0.95143671088E+03 0.  0.
        -24    2    4    4    0    0 -0.27447694622E+03  0.54095719966E+03  0.16505897332E+03  0.63407708464E+03  0.82686145870E+02 0.  0.
         24    2    4    4    0    0  0.30294394710E+03 -0.10744888026E+02  0.66714588597E+03  0.73695617834E+03  0.78296155207E+02 0.  0.
         11    1    3    3    0    0 -0.46662454484E+02 -0.15806653351E+03  0.54370763416E+02  0.17354709329E+03  0.00000000000E+00 0.  1.
        -11    1    3    3    0    0  0.18195453600E+02 -0.37214577812E+03  0.19583981773E+03  0.42092373289E+03  0.00000000000E+00 0. -1.
          4    1    6    6  502    0  0.28447584597E+03 -0.11022084987E+02  0.65666085522E+03  0.71571745268E+03  0.00000000000E+00 0. -1.
          1    1    5    5  503    0 -0.27324409163E+03  0.51547765759E+03  0.17084317206E+03  0.60792017447E+03  0.00000000000E+00 0. -1.
         -2    1    5    5    0  503 -0.12328545946E+01  0.25479542068E+02 -0.57841987458E+01  0.26156910169E+02  0.00000000000E+00 0.  1.
         -3    1    6    6    0  502  0.18468101139E+02  0.27719696137E+00  0.10485030756E+02  0.21238725663E+02  0.00000000000E+00 0.  1.
<mgrwt>
<rscale>  0 0.16406045E+04</rscale>
<asrwt>0</asrwt>
<pdfrwt beam="1">  1        2 0.23445535E+00 0.16406045E+04</pdfrwt>
<pdfrwt beam="2">  1       -2 0.67929897E-01 0.16406045E+04</pdfrwt>
<totfact> 0.23342163E+01</totfact>
</mgrwt>
</event>
<event>
12    1  0.1519630E-007  0.1888674E+04  0.7818608E-02  0.8660515E-01
          2   -1    0    0  501    0  0.00000000000E+00  0.00000000000E+00  0.11513303091E+04  0.11513303091E+04  0.00000000000E+00 0. -1.
         -2   -1    0    0    0  501 -0.00000000000E+00 -0.00000000000E+00 -0.77455789239E+03  0.77455789239E+03  0.00000000000E+00 0.  1.
         23    2    1    2    0    0 -0.29511482343E+02  0.39414979742E+03 -0.50975934640E+03  0.65191076706E+03  0.94382554409E+02 0.  0.
        254    2    1    2    0    0  0.29511482343E+02 -0.39414979742E+03  0.88653176306E+03  0.12739774344E+04  0.82513934943E+03 0.  0.
        -24    2    4    4    0    0 -0.10660841719E+03  0.51399467915E+02 -0.10437240978E+03  0.17612407379E+03  0.78222947575E+02 0.  0.
         24    2    4    4    0    0  0.13611989953E+03 -0.44554926534E+03  0.99090417284E+03  0.10978533606E+04  0.79675257761E+02 0.  0.
         11    1    3    3    0    0  0.43818652197E+00  0.34912767866E+03 -0.41058785127E+03  0.53895520372E+03  0.00000000000E+00 0.  1.
        -11    1    3    3    0    0 -0.29949668865E+02  0.45022118763E+02 -0.99171495130E+02  0.11295556334E+03  0.00000000000E+00 0. -1.
          2    1    6    6  502    0  0.79098787892E+02 -0.30147268509E+03  0.74001413600E+03  0.80297155590E+03  0.00000000000E+00 0. -1.
          1    1    5    5  503    0  0.91737880142E+01 -0.75841405499E+01 -0.78945477790E+01  0.14282907934E+02  0.00000000000E+00 0. -1.
         -2    1    5    5    0  503 -0.11578220520E+03  0.58983608464E+02 -0.96477862001E+02  0.16184116585E+03  0.00000000000E+00 0.  1.
         -1    1    6    6    0  502  0.57021111638E+02 -0.14407658025E+03  0.25089003684E+03  0.29488180468E+03  0.00000000000E+00 0.  1.
<mgrwt>
<rscale>  0 0.18886736E+04</rscale>
<asrwt>0</asrwt>
<pdfrwt beam="1">  1        2 0.17712774E+00 0.18886736E+04</pdfrwt>
<pdfrwt beam="2">  1       -2 0.11916275E+00 0.18886736E+04</pdfrwt>
<totfact> 0.10265688E+01</totfact>
</mgrwt>
</event>
<event>
12    1  0.1519630E-007  0.1989595E+04  0.7818608E-02  0.8611501E-01
          2   -1    0    0  501    0  0.00000000000E+00  0.00000000000E+00  0.48111955085E+03  0.48111955085E+03  0.00000000000E+00 0.  1.
         -2   -1    0    0    0  501 -0.00000000000E+00 -0.00000000000E+00 -0.20569156648E+04  0.20569156648E+04  0.00000000000E+00 0. -1.
         23    2    1    2    0    0 -0.17039159632E+03 -0.35680543312E+03  0.24189076082E+03  0.47274219474E+03  0.92901180406E+02 0.  0.
        254    2    1    2    0    0  0.17039159632E+03  0.35680543312E+03 -0.18176868748E+04  0.20652930210E+04  0.89727714469E+03 0.  0.
        -24    2    4    4    0    0  0.60224383238E+02  0.51396517440E+02  0.80867292031E+02  0.13744279423E+03  0.77989899495E+02 0.  0.
         24    2    4    4    0    0  0.11016721308E+03  0.30540891567E+03 -0.18985541668E+04  0.19278502267E+04  0.81775006432E+02 0.  0.
         13    1    3    3    0    0 -0.55854309056E+02 -0.17035358524E+03  0.62738440972E+02  0.18993725232E+03  0.00000000000E+00 0. -1.
        -13    1    3    3    0    0 -0.11453728726E+03 -0.18645184788E+03  0.17915231984E+03  0.28280494242E+03  0.00000000000E+00 0.  1.
          4    1    6    6  502    0  0.10510924600E+03  0.17391378175E+03 -0.11451457987E+04  0.11630360516E+04  0.00000000000E+00 0. -1.
          1    1    5    5  503    0  0.33341833337E+02  0.63386836456E+02  0.27934046664E+02  0.76875742918E+02  0.00000000000E+00 0. -1.
         -2    1    5    5    0  503  0.26882549902E+02 -0.11990319015E+02  0.52933245367E+02  0.60567051310E+02  0.00000000000E+00 0.  1.
         -3    1    6    6    0  502  0.50579670789E+01  0.13149513393E+03 -0.75340836816E+03  0.76481417513E+03  0.00000000000E+00 0.  1.
<mgrwt>
<rscale>  0 0.19895953E+04</rscale>
<asrwt>0</asrwt>
<pdfrwt beam="1">  1        2 0.74018393E-01 0.19895953E+04</pdfrwt>
<pdfrwt beam="2">  1       -2 0.31644856E+00 0.19895953E+04</pdfrwt>
<totfact> 0.15102572E+00</totfact>
</mgrwt>
</event>
<event>
12    1  0.1519630E-007  0.1180662E+04  0.7818608E-02  0.9129953E-01
          1   -1    0    0  501    0  0.00000000000E+00  0.00000000000E+00  0.26092149841E+03  0.26092149841E+03  0.00000000000E+00 0. -1.
         -1   -1    0    0    0  501 -0.00000000000E+00 -0.00000000000E+00 -0.13356155121E+04  0.13356155121E+04  0.00000000000E+00 0.  1.
         23    2    1    2    0    0  0.93274720359E+02 -0.10157642256E+03 -0.52208356692E+03  0.54744112000E+03  0.90014365151E+02 0.  0.
        254    2    1    2    0    0 -0.93274720359E+02  0.10157642256E+03 -0.55261044679E+03  0.10490958905E+04  0.88102550393E+03 0.  0.
        -24    2    4    4    0    0  0.22859600290E+03 -0.28105162299E+03 -0.32233703402E+03  0.49131377522E+03  0.79005790240E+02 0.  0.
         24    2    4    4    0    0 -0.32187072326E+03  0.38262804556E+03 -0.23027341277E+03  0.55778211532E+03  0.89944759757E+02 0.  0.
         13    1    3    3    0    0  0.10075036114E+03 -0.10929003704E+03 -0.43495534021E+03  0.45965323391E+03  0.00000000000E+00 0.  1.
        -13    1    3    3    0    0 -0.74756407812E+01  0.77136144808E+01 -0.87128226707E+02  0.87787886080E+02  0.00000000000E+00 0. -1.
          4    1    6    6  502    0 -0.28376724425E+03  0.31103911892E+03 -0.15978964862E+03  0.45033533530E+03  0.00000000000E+00 0. -1.
          3    1    5    5  503    0  0.19307095131E+03 -0.25287354689E+03 -0.24456930326E+03  0.40129237104E+03  0.00000000000E+00 0. -1.
         -4    1    5    5    0  503  0.35525051587E+02 -0.28178076100E+02 -0.77767730754E+02  0.90021404174E+02  0.00000000000E+00 0.  1.
         -3    1    6    6    0  502 -0.38103479004E+02  0.71588926634E+02 -0.70483764151E+02  0.10744678002E+03  0.00000000000E+00 0.  1.
<mgrwt>
<rscale>  0 0.11806622E+04</rscale>
<asrwt>0</asrwt>
<pdfrwt beam="1">  1        1 0.40141769E-01 0.11806622E+04</pdfrwt>
<pdfrwt beam="2">  1       -1 0.20547931E+00 0.11806622E+04</pdfrwt>
<totfact> 0.14394154E+01</totfact>
</mgrwt>
</event>
<event>
12    1  0.1519630E-007  0.2084400E+04  0.7818608E-02  0.8568147E-01
          2   -1    0    0  501    0  0.00000000000E+00  0.00000000000E+00  0.30159456182E+04  0.30159456182E+04  0.00000000000E+00 0. -1.
         -2   -1    0    0    0  501 -0.00000000000E+00 -0.00000000000E+00 -0.36014588519E+03  0.36014588519E+03  0.00000000000E+00 0.  1.
         23    2    1    2    0    0 -0.60648125786E+01  0.73130406335E+03  0.17760738104E+04  0.19228890755E+04  0.90674151767E+02 0.  0.
        254    2    1    2    0    0  0.60648125786E+01 -0.73130406335E+03  0.87972592255E+03  0.14532024278E+04  0.89612341913E+03 0.  0.
        -24    2    4    4    0    0  0.32791385284E+03 -0.22730037362E+03  0.72401101056E+03  0.83057555343E+03  0.80441604963E+02 0.  0.
         24    2    4    4    0    0 -0.32184904026E+03 -0.50400368973E+03  0.15571491199E+03  0.62262687437E+03  0.76227074547E+02 0.  0.
         11    1    3    3    0    0 -0.13812803198E+02  0.72818685435E+03  0.17498849257E+04  0.18954007865E+04  0.00000000000E+00 0. -1.
        -11    1    3    3    0    0  0.77479906196E+01  0.31172089956E+01  0.26188884710E+02  0.27488289014E+02  0.00000000000E+00 0.  1.
          4    1    6    6  502    0 -0.70577733138E+02 -0.79982040038E+02  0.53191492518E+02  0.11919596478E+03  0.00000000000E+00 0. -1.
          3    1    5    5  503    0  0.83671562116E+02 -0.83056048130E+02  0.15459889052E+03  0.19442236082E+03  0.00000000000E+00 0. -1.
         -4    1    5    5    0  503  0.24424229072E+03 -0.14424432549E+03  0.56941212004E+03  0.63615319260E+03  0.00000000000E+00 0.  1.
         -3    1    6    6    0  502 -0.25127130712E+03 -0.42402164969E+03  0.10252341947E+03  0.50343090959E+03  0.00000000000E+00 0.  1.
<mgrwt>
<rscale>  0 0.20843996E+04</rscale>
<asrwt>0</asrwt>
<pdfrwt beam="1">  1        2 0.46399162E+00 0.20843996E+04</pdfrwt>
<pdfrwt beam="2">  1       -2 0.55407061E-01 0.20843996E+04</pdfrwt>
<totfact> 0.48159376E+00</totfact>
</mgrwt>
</event>
<event>
12    1  0.1519630E-007  0.1895861E+04  0.7818608E-02  0.8656920E-01
          2   -1    0    0  501    0  0.00000000000E+00  0.00000000000E+00  0.13680331670E+04  0.13680331670E+04  0.00000000000E+00 0. -1.
         -2   -1    0    0    0  501 -0.00000000000E+00 -0.00000000000E+00 -0.65683487030E+03  0.65683487030E+03  0.00000000000E+00 0.  1.
         23    2    1    2    0    0  0.50493641317E+03  0.32847603832E+01  0.86367875789E+03  0.10043109866E+04  0.87908987219E+02 0.  0.
        254    2    1    2    0    0 -0.50493641317E+03 -0.32847603832E+01 -0.15248046123E+03  0.10205570506E+04  0.87367890643E+03 0.  0.
        -24    2    4    4    0    0 -0.53883266940E+03  0.18394914949E+03 -0.39863609150E+03  0.69956038708E+03  0.79347756848E+02 0.  0.
         24    2    4    4    0    0  0.33896256227E+02 -0.18723390987E+03  0.24615563026E+03  0.32099666355E+03  0.78998547507E+02 0.  0.
         13    1    3    3    0    0  0.22779081885E+03 -0.15308231869E+02  0.46984921680E+03  0.52238040320E+03  0.00000000000E+00 0.  1.
        -13    1    3    3    0    0  0.27714559431E+03  0.18592992253E+02  0.39382954109E+03  0.48193058342E+03  0.00000000000E+00 0. -1.
          2    1    6    6  502    0  0.30290550055E+02 -0.18494263593E+02  0.28184229199E+02  0.45320039541E+02  0.00000000000E+00 0. -1.
          3    1    5    5  503    0 -0.66878205951E+02 -0.33510344515E+01 -0.51555619777E+02  0.84509797027E+02  0.00000000000E+00 0. -1.
         -2    1    5    5    0  503 -0.47195446344E+03  0.18730018394E+03 -0.34708047172E+03  0.61505059005E+03  0.00000000000E+00 0.  1.
         -1    1    6    6    0  502  0.36057061727E+01 -0.16873964628E+03  0.21797140107E+03  0.27567662401E+03  0.00000000000E+00 0.  1.
<mgrwt>
<rscale>  0 0.18958606E+04</rscale>
<asrwt>0</asrwt>
<pdfrwt beam="1">  1        2 0.21046664E+00 0.18958606E+04</pdfrwt>
<pdfrwt beam="2">  1       -2 0.10105152E+00 0.18958606E+04</pdfrwt>
<totfact> 0.11396604E+01</totfact>
</mgrwt>
</event>
<event>
12    1  0.1519630E-007  0.1410771E+04  0.7818608E-02  0.8946059E-01
         -2   -1    0    0    0  501 -0.00000000000E+00  0.00000000000E+00  0.23339319153E+03  0.23339319153E+03  0.00000000000E+00 0.  1.
          2   -1    0    0  501    0  0.00000000000E+00 -0.00000000000E+00 -0.21318896993E+04  0.21318896993E+04  0.00000000000E+00 0. -1.
         23    2    1    2    0    0 -0.35172985499E+03 -0.60945965078E+02 -0.26168948927E+03  0.45198566683E+03  0.91549727922E+02 0.  0.
        254    2    1    2    0    0  0.35172985499E+03  0.60945965078E+02 -0.16368070185E+04  0.19132972240E+04  0.92419735445E+03 0.  0.
        -24    2    4    4    0    0 -0.27239779381E+03 -0.10096758629E+03 -0.79309222347E+03  0.84839953566E+03  0.79946767468E+02 0.  0.
         24    2    4    4    0    0  0.62412764879E+03  0.16191355136E+03 -0.84371479498E+03  0.10648976883E+04  0.80006944350E+02 0.  0.
         13    1    3    3    0    0 -0.21124088044E+03 -0.80348920845E+02 -0.17418584781E+03  0.28534079313E+03  0.00000000000E+00 0.  1.
        -13    1    3    3    0    0 -0.14048897455E+03  0.19402955767E+02 -0.87503641455E+02  0.16664487370E+03  0.00000000000E+00 0. -1.
          4    1    6    6  502    0  0.44227835138E+03  0.13463062501E+03 -0.55155523203E+03  0.71968654237E+03  0.00000000000E+00 0. -1.
          1    1    5    5  503    0 -0.63233868969E+02 -0.42617634075E+02 -0.30129473782E+03  0.31079463309E+03  0.00000000000E+00 0. -1.
         -2    1    5    5    0  503 -0.20916392484E+03 -0.58349952211E+02 -0.49179748565E+03  0.53760490257E+03  0.00000000000E+00 0.  1.
         -3    1    6    6    0  502  0.18184929741E+03  0.27282926350E+02 -0.29215956295E+03  0.34521114592E+03  0.00000000000E+00 0.  1.
<mgrwt>
<rscale>  0 0.14107708E+04</rscale>
<asrwt>0</asrwt>
<pdfrwt beam="1">  1        2 0.32798303E+00 0.14107708E+04</pdfrwt>
<pdfrwt beam="2">  1       -2 0.35906645E-01 0.14107708E+04</pdfrwt>
<totfact> 0.40047986E+01</totfact>
</mgrwt>
</event>
<event>
12    1  0.1519630E-007  0.1230169E+04  0.7818608E-02  0.9086852E-01
         -1   -1    0    0    0  501 -0.00000000000E+00  0.00000000000E+00  0.32630831310E+03  0.32630831310E+03  0.00000000000E+00 0. -1.
          1   -1    0    0  501    0  0.00000000000E+00 -0.00000000000E+00 -0.11594216619E+04  0.11594216619E+04  0.00000000000E+00 0.  1.
         23    2    1    2    0    0 -0.93212370369E+02 -0.18058645062E+03 -0.40510918226E+03  0.46199453763E+03  0.89585105390E+02 0.  0.
        254    2    1    2    0    0  0.93212370369E+02  0.18058645062E+03 -0.42800416656E+03  0.10237354374E+04  0.90749472011E+03 0.  0.
        -24    2    4    4    0    0 -0.18868105050E+03  0.41928893846E+03 -0.44625148537E+03  0.64561996463E+03  0.79252746350E+02 0.  0.
         24    2    4    4    0    0  0.28189342087E+03 -0.23870248784E+03  0.18247318814E+02  0.37811547275E+03  0.78711928314E+02 0.  0.
         11    1    3    3    0    0 -0.81929785437E+02 -0.14085711511E+03 -0.22869635875E+03  0.28081175389E+03  0.00000000000E+00 0.  1.
        -11    1    3    3    0    0 -0.11282584932E+02 -0.39729335513E+02 -0.17641282351E+03  0.18118278374E+03  0.00000000000E+00 0. -1.
          2    1    6    6  502    0  0.13313293720E+03 -0.15080657101E+03 -0.16605674122E+02  0.20184833227E+03  0.00000000000E+00 0. -1.
          3    1    5    5  503    0 -0.85716631797E+02  0.23144693970E+03 -0.18902447028E+03  0.31087823537E+03  0.00000000000E+00 0. -1.
         -4    1    5    5    0  503 -0.10296441871E+03  0.18784199876E+03 -0.25722701509E+03  0.33474172926E+03  0.00000000000E+00 0.  1.
         -1    1    6    6    0  502  0.14876048367E+03 -0.87895916835E+02  0.34852992936E+02  0.17626714048E+03  0.00000000000E+00 0.  1.
<mgrwt>
<rscale>  0 0.12301690E+04</rscale>
<asrwt>0</asrwt>
<pdfrwt beam="1">  1        1 0.17837256E+00 0.12301690E+04</pdfrwt>
<pdfrwt beam="2">  1       -1 0.50201279E-01 0.12301690E+04</pdfrwt>
<totfact> 0.45016798E+01</totfact>
</mgrwt>
</event>
<event>
12    1  0.1519630E-007  0.1976450E+04  0.7818608E-02  0.8617711E-01
          2   -1    0    0  501    0  0.00000000000E+00  0.00000000000E+00  0.70598380770E+03  0.70598380770E+03  0.00000000000E+00 0. -1.
         -2   -1    0    0    0  501 -0.00000000000E+00 -0.00000000000E+00 -0.13833011241E+04  0.13833011241E+04  0.00000000000E+00 0.  1.
         23    2    1    2    0    0  0.20537150166E+03  0.72284354218E+03 -0.53913776655E+02  0.75887307207E+03  0.91112041080E+02 0.  0.
        254    2    1    2    0    0 -0.20537150166E+03 -0.72284354218E+03 -0.62340353975E+03  0.13304118597E+04  0.90370542933E+03 0.  0.
        -24    2    4    4    0    0 -0.34002403433E+03  0.38858526269E+02 -0.37391958461E+03  0.51330341357E+03  0.80859196388E+02 0.  0.
         24    2    4    4    0    0  0.13465253267E+03 -0.76170206845E+03 -0.24948395514E+03  0.81710844617E+03  0.84277062684E+02 0.  0.
         11    1    3    3    0    0  0.20659513568E+03  0.72233547776E+03 -0.59004861416E+02  0.75361241111E+03  0.00000000000E+00 0.  1.
        -11    1    3    3    0    0 -0.12236340183E+01  0.50806442628E+00  0.50910847604E+01  0.52606609575E+01  0.00000000000E+00 0. -1.
          2    1    6    6  502    0  0.27800199007E+02 -0.33657023347E+03 -0.13781716263E+03  0.36475463456E+03  0.00000000000E+00 0. -1.
          1    1    5    5  503    0 -0.14200866457E+03 -0.21229369047E+02 -0.17371620994E+03  0.22537628207E+03  0.00000000000E+00 0. -1.
         -4    1    5    5    0  503 -0.19801536976E+03  0.60087895316E+02 -0.20020337467E+03  0.28792713150E+03  0.00000000000E+00 0.  1.
         -1    1    6    6    0  502  0.10685233366E+03 -0.42513183498E+03 -0.11166679251E+03  0.45235381160E+03  0.00000000000E+00 0.  1.
<mgrwt>
<rscale>  0 0.19764495E+04</rscale>
<asrwt>0</asrwt>
<pdfrwt beam="1">  1        2 0.10861289E+00 0.19764495E+04</pdfrwt>
<pdfrwt beam="2">  1       -2 0.21281556E+00 0.19764495E+04</pdfrwt>
<totfact> 0.41413997E+00</totfact>
</mgrwt>
</event>
<event>
12    1  0.1519630E-007  0.1365204E+04  0.7818608E-02  0.8979398E-01
          2   -1    0    0  501    0  0.00000000000E+00  0.00000000000E+00  0.70698120830E+03  0.70698120830E+03  0.00000000000E+00 0. -1.
         -2   -1    0    0    0  501 -0.00000000000E+00 -0.00000000000E+00 -0.65906347608E+03  0.65906347608E+03  0.00000000000E+00 0.  1.
         23    2    1    2    0    0 -0.73876043913E+02  0.35239436428E+03 -0.10118389834E+03  0.38498766474E+03  0.91311898883E+02 0.  0.
        254    2    1    2    0    0  0.73876043913E+02 -0.35239436428E+03  0.14910163055E+03  0.98105701964E+03  0.90033444992E+03 0.  0.
        -24    2    4    4    0    0 -0.18806028675E+03 -0.38404077131E+03 -0.24566626690E+03  0.49928886620E+03  0.77996613647E+02 0.  0.
         24    2    4    4    0    0  0.26193633066E+03  0.31646407034E+02  0.39476789745E+03  0.48176815343E+03  0.81527445728E+02 0.  0.
         11    1    3    3    0    0 -0.42700860731E+02  0.53656305796E+02 -0.17488976432E+01  0.68596073517E+02  0.00000000000E+00 0.  1.
        -11    1    3    3    0    0 -0.31175183181E+02  0.29873805848E+03 -0.99435000694E+02  0.31639159122E+03  0.00000000000E+00 0. -1.
          2    1    6    6  502    0  0.21733828308E+03  0.31441597440E+01  0.27276133531E+03  0.34877580344E+03  0.00000000000E+00 0. -1.
          1    1    5    5  503    0 -0.18194312854E+03 -0.34540609847E+03 -0.24350693911E+03  0.46011336025E+03  0.00000000000E+00 0. -1.
         -2    1    5    5    0  503 -0.61171582029E+01 -0.38634672849E+02 -0.21593277886E+01  0.39175505959E+02  0.00000000000E+00 0.  1.
         -1    1    6    6    0  502  0.44598047584E+02  0.28502247290E+02  0.12200656215E+03  0.13299234999E+03  0.00000000000E+00 0.  1.
<mgrwt>
<rscale>  0 0.13652040E+04</rscale>
<asrwt>0</asrwt>
<pdfrwt beam="1">  1        2 0.10876634E+00 0.13652040E+04</pdfrwt>
<pdfrwt beam="2">  1       -2 0.10139438E+00 0.13652040E+04</pdfrwt>
<totfact> 0.31558032E+01</totfact>
</mgrwt>
</event>
<event>
12    1  0.2004196E-007  0.2394191E+04  0.7818608E-02  0.8441681E-01
          2   -1    0    0  501    0  0.00000000000E+00  0.00000000000E+00  0.24109148181E+04  0.24109148181E+04  0.00000000000E+00 0. -1.
         -2   -1    0    0    0  501 -0.00000000000E+00 -0.00000000000E+00 -0.59439598232E+03  0.59439598232E+03  0.00000000000E+00 0.  1.
         23    2    1    2    0    0 -0.25053324466E+03  0.56685392272E+03  0.18032258564E+04  0.19083301620E+04  0.77525748793E+02 0.  0.
        254    2    1    2    0    0  0.25053324466E+03 -0.56685392272E+03  0.13292979417E+02  0.10969806384E+04  0.90504118215E+03 0.  0.
        -24    2    4    4    0    0  0.47074574995E+03 -0.66988605000E+03  0.94167649162E+02  0.82841360507E+03  0.83980199079E+02 0.  0.
         24    2    4    4    0    0 -0.22021250530E+03  0.10303212728E+03 -0.80874669746E+02  0.26856703335E+03  0.80488337373E+02 0.  0.
         13    1    3    3    0    0 -0.23567926284E+03  0.48708471137E+03  0.16188605631E+04  0.17068994563E+04  0.00000000000E+00 0. -1.
        -13    1    3    3    0    0 -0.14853981814E+02  0.79769211345E+02  0.18436529323E+03  0.20143070570E+03  0.00000000000E+00 0.  1.
          4    1    6    6  502    0 -0.11204058262E+02  0.37313937920E+01 -0.29159877710E+02  0.31460335174E+02  0.00000000000E+00 0. -1.
          3    1    5    5  503    0 -0.20233469371E+01 -0.23853706833E+01 -0.34345740826E+01  0.46454521043E+01  0.00000000000E+00 0. -1.
         -4    1    5    5    0  503  0.47276909689E+03 -0.66750067932E+03  0.97602223245E+02  0.82376815297E+03  0.00000000000E+00 0.  1.
         -3    1    6    6    0  502 -0.20900844703E+03  0.99300733490E+02 -0.51714792036E+02  0.23710669817E+03  0.00000000000E+00 0.  1.
<mgrwt>
<rscale>  0 0.23941914E+04</rscale>
<asrwt>0</asrwt>
<pdfrwt beam="1">  1        2 0.37090997E+00 0.23941914E+04</pdfrwt>
<pdfrwt beam="2">  1       -2 0.91445537E-01 0.23941914E+04</pdfrwt>
<totfact> 0.35903044E+00</totfact>
</mgrwt>
</event>
<event>
12    1  0.1519630E-007  0.3084523E+04  0.7818608E-02  0.8219998E-01
          2   -1    0    0  501    0  0.00000000000E+00  0.00000000000E+00  0.23208957690E+04  0.23208957690E+04  0.00000000000E+00 0. -1.
         -2   -1    0    0    0  501 -0.00000000000E+00 -0.00000000000E+00 -0.10248501684E+04  0.10248501684E+04  0.00000000000E+00 0.  1.
         23    2    1    2    0    0  0.49069212617E+03  0.11350647318E+04 -0.31502951168E+02  0.12403242282E+04  0.90890301807E+02 0.  0.
        254    2    1    2    0    0 -0.49069212617E+03 -0.11350647318E+04  0.13275485517E+04  0.21054217092E+04  0.10682999150E+04 0.  0.
        -24    2    4    4    0    0 -0.68681547498E+03 -0.32195702389E+03  0.42820630954E+03  0.87462692263E+03  0.78992330981E+02 0.  0.
         24    2    4    4    0    0  0.19612334881E+03 -0.81310770796E+03  0.89934224216E+03  0.12307947866E+04  0.80192427804E+02 0.  0.
         13    1    3    3    0    0  0.41597900584E+03  0.96047716630E+03 -0.59459891479E+02  0.10483751232E+04  0.00000000000E+00 0.  1.
        -13    1    3    3    0    0  0.74713120332E+02  0.17458756555E+03  0.27956940311E+02  0.19194910499E+03  0.00000000000E+00 0. -1.
          2    1    6    6  502    0  0.60865391435E+02 -0.39623831881E+03  0.39807184522E+03  0.56495185204E+03  0.00000000000E+00 0. -1.
          1    1    5    5  503    0 -0.28780882720E+03 -0.11165315405E+03  0.21166717087E+03  0.37430380581E+03  0.00000000000E+00 0. -1.
         -2    1    5    5    0  503 -0.39900664778E+03 -0.21030386984E+03  0.21653913867E+03  0.50032311681E+03  0.00000000000E+00 0.  1.
         -1    1    6    6    0  502  0.13525795737E+03 -0.41686938915E+03  0.50127039694E+03  0.66584293455E+03  0.00000000000E+00 0.  1.
<mgrwt>
<rscale>  0 0.30845229E+04</rscale>
<asrwt>0</asrwt>
<pdfrwt beam="1">  1        2 0.35706089E+00 0.30845229E+04</pdfrwt>
<pdfrwt beam="2">  1       -2 0.15766926E+00 0.30845229E+04</pdfrwt>
<totfact> 0.98297454E-01</totfact>
</mgrwt>
</event>
<event>
12    1  0.1519630E-007  0.1289705E+04  0.7818608E-02  0.9037769E-01
         -2   -1    0    0    0  501 -0.00000000000E+00  0.00000000000E+00  0.25800101523E+03  0.25800101523E+03  0.00000000000E+00 0.  1.
          2   -1    0    0  501    0  0.00000000000E+00 -0.00000000000E+00 -0.16117558381E+04  0.16117558381E+04  0.00000000000E+00 0. -1.
         23    2    1    2    0    0 -0.51508386625E+02 -0.32007643397E+03 -0.39758631586E+03  0.52112291201E+03  0.91608806255E+02 0.  0.
        254    2    1    2    0    0  0.51508386625E+02  0.32007643397E+03 -0.95616850704E+03  0.13486339413E+04  0.89412149981E+03 0.  0.
        -24    2    4    4    0    0  0.84397210197E+02  0.39779591534E+03 -0.30381142575E+02  0.41551169239E+03  0.79765113521E+02 0.  0.
         24    2    4    4    0    0 -0.32888823572E+02 -0.77719481371E+02 -0.92578736447E+03  0.93312224896E+03  0.80702508006E+02 0.  0.
         11    1    3    3    0    0 -0.41566833176E+02 -0.88296465052E+02 -0.17068887744E+03  0.19661831105E+03  0.00000000000E+00 0. -1.
        -11    1    3    3    0    0 -0.99415534494E+01 -0.23177996892E+03 -0.22689743842E+03  0.32450460095E+03  0.00000000000E+00 0.  1.
          4    1    6    6  502    0 -0.28181184219E+01 -0.41089996672E+02 -0.74780679087E+03  0.74894013518E+03  0.00000000000E+00 0. -1.
          1    1    5    5  503    0  0.88499223552E+02  0.39893381767E+03 -0.33833933626E+02  0.41003053363E+03  0.00000000000E+00 0. -1.
         -2    1    5    5    0  503 -0.41020133546E+01 -0.11379023230E+01  0.34527910518E+01  0.54811587557E+01  0.00000000000E+00 0.  1.
         -3    1    6    6    0  502 -0.30070705150E+02 -0.36629484698E+02 -0.17798057360E+03  0.18418211378E+03  0.00000000000E+00 0.  1.
<mgrwt>
<rscale>  0 0.12897048E+04</rscale>
<asrwt>0</asrwt>
<pdfrwt beam="1">  1        2 0.24796243E+00 0.12897048E+04</pdfrwt>
<pdfrwt beam="2">  1       -2 0.39692465E-01 0.12897048E+04</pdfrwt>
<totfact> 0.64671355E+01</totfact>
</mgrwt>
</event>
<event>
12    1  0.1519630E-007  0.1842900E+04  0.7818608E-02  0.8683813E-01
          2   -1    0    0  501    0  0.00000000000E+00  0.00000000000E+00  0.17297889275E+04  0.17297889275E+04  0.00000000000E+00 0.  1.
         -2   -1    0    0    0  501 -0.00000000000E+00 -0.00000000000E+00 -0.49085185114E+03  0.49085185114E+03  0.00000000000E+00 0. -1.
         23    2    1    2    0    0  0.38301794823E+03 -0.46392176868E+03  0.90970295509E+03  0.10940968381E+04  0.86961304391E+02 0.  0.
        254    2    1    2    0    0 -0.38301794823E+03  0.46392176868E+03  0.32923412128E+03  0.11265439406E+04  0.89374492297E+03 0.  0.
        -24    2    4    4    0    0 -0.26821135069E+03 -0.18151507676E+03  0.32574482462E+03  0.46604642801E+03  0.78768842623E+02 0.  0.
         24    2    4    4    0    0 -0.11480659754E+03  0.64543684544E+03  0.34892966674E+01  0.66049751257E+03  0.80470569953E+02 0.  0.
         11    1    3    3    0    0  0.20734118162E+03 -0.20390134925E+03  0.49417688616E+03  0.57339072248E+03  0.00000000000E+00 0.  1.
        -11    1    3    3    0    0  0.17567676661E+03 -0.26002041943E+03  0.41552606893E+03  0.52070611559E+03  0.00000000000E+00 0. -1.
          2    1    6    6  502    0 -0.11004964447E+03  0.41233064500E+03  0.15365646898E+02  0.42704049943E+03  0.00000000000E+00 0. -1.
          1    1    5    5  503    0 -0.23760061655E+03 -0.18488245712E+03  0.30706505153E+03  0.43002851278E+03  0.00000000000E+00 0. -1.
         -2    1    5    5    0  503 -0.30610734140E+02  0.33673803536E+01  0.18679773087E+02  0.36017915232E+02  0.00000000000E+00 0.  1.
         -1    1    6    6    0  502 -0.47569530686E+01  0.23310620045E+03 -0.11876350231E+02  0.23345701314E+03  0.00000000000E+00 0.  1.
<mgrwt>
<rscale>  0 0.18429000E+04</rscale>
<asrwt>0</asrwt>
<pdfrwt beam="1">  1        2 0.26612137E+00 0.18429000E+04</pdfrwt>
<pdfrwt beam="2">  1       -2 0.75515670E-01 0.18429000E+04</pdfrwt>
<totfact> 0.13966048E+01</totfact>
</mgrwt>
</event>
<event>
12    1  0.1519630E-007  0.1276539E+04  0.7818608E-02  0.9048380E-01
         -2   -1    0    0    0  501 -0.00000000000E+00  0.00000000000E+00  0.29173918547E+03  0.29173918547E+03  0.00000000000E+00 0.  1.
          2   -1    0    0  501    0  0.00000000000E+00 -0.00000000000E+00 -0.13964106398E+04  0.13964106398E+04  0.00000000000E+00 0. -1.
         23    2    1    2    0    0  0.26119852602E+03 -0.35722971386E+02 -0.49549825302E+02  0.28359770226E+03  0.92041680014E+02 0.  0.
        254    2    1    2    0    0 -0.26119852602E+03  0.35722971386E+02 -0.10551216290E+04  0.14045521230E+04  0.88881056110E+03 0.  0.
        -24    2    4    4    0    0  0.16361571842E+03  0.24880478624E+03 -0.82858186386E+02  0.31930631950E+03  0.80106938872E+02 0.  0.
         24    2    4    4    0    0 -0.42481424444E+03 -0.21308181485E+03 -0.97226344266E+03  0.10852458035E+04  0.81186513719E+02 0.  0.
         13    1    3    3    0    0  0.14467580062E+02 -0.19688390335E+02  0.14201125081E+02  0.28259786631E+02  0.00000000000E+00 0. -1.
        -13    1    3    3    0    0  0.24673094596E+03 -0.16034581050E+02 -0.63750950383E+02  0.25533791563E+03  0.00000000000E+00 0.  1.
          4    1    6    6  502    0 -0.60508896840E+02 -0.23907061831E+02 -0.20496829818E+03  0.21504622169E+03  0.00000000000E+00 0. -1.
          1    1    5    5  503    0 -0.39494920615E+01  0.62642870503E+01  0.79280247276E+01  0.10848656870E+02  0.00000000000E+00 0. -1.
         -2    1    5    5    0  503  0.16756521048E+03  0.24254049919E+03 -0.90786211113E+02  0.30845766264E+03  0.00000000000E+00 0.  1.
         -3    1    6    6    0  502 -0.36430534760E+03 -0.18917475302E+03 -0.76729514447E+03  0.87019958182E+03  0.00000000000E+00 0.  1.
<mgrwt>
<rscale>  0 0.12765386E+04</rscale>
<asrwt>0</asrwt>
<pdfrwt beam="1">  1        2 0.21483240E+00 0.12765386E+04</pdfrwt>
<pdfrwt beam="2">  1       -2 0.44882952E-01 0.12765386E+04</pdfrwt>
<totfact> 0.67169339E+01</totfact>
</mgrwt>
</event>
<event>
12    1  0.1519630E-007  0.1906819E+04  0.7818608E-02  0.8651469E-01
         -2   -1    0    0    0  501 -0.00000000000E+00  0.00000000000E+00  0.77438818894E+03  0.77438818894E+03  0.00000000000E+00 0.  1.
          2   -1    0    0  501    0  0.00000000000E+00 -0.00000000000E+00 -0.11738168281E+04  0.11738168281E+04  0.00000000000E+00 0. -1.
         23    2    1    2    0    0  0.69747877532E+03 -0.10362204385E+02 -0.40120760433E+03  0.80950486544E+03  0.88014590245E+02 0.  0.
        254    2    1    2    0    0 -0.69747877532E+03  0.10362204385E+02  0.17789652037E+01  0.11387001516E+04  0.90002825131E+03 0.  0.
        -24    2    4    4    0    0 -0.65454564752E+02  0.36732149309E+03 -0.11521649315E+03  0.39902960018E+03  0.82099952416E+02 0.  0.
         24    2    4    4    0    0 -0.63202421056E+03 -0.35695928871E+03  0.11699545836E+03  0.73967055139E+03  0.80932384031E+02 0.  0.
         13    1    3    3    0    0  0.44518259682E+03  0.12495539734E+00 -0.20704807083E+03  0.49097501338E+03  0.00000000000E+00 0. -1.
        -13    1    3    3    0    0  0.25229617850E+03 -0.10487159782E+02 -0.19415953350E+03  0.31852985206E+03  0.00000000000E+00 0.  1.
          2    1    6    6  502    0 -0.17667044784E+03 -0.61025085686E+02  0.40358848430E+02  0.19122067061E+03  0.00000000000E+00 0. -1.
          3    1    5    5  503    0 -0.98271669218E+01  0.14269137821E+03 -0.83041065503E+02  0.16538809263E+03  0.00000000000E+00 0. -1.
         -4    1    5    5    0  503 -0.55627397830E+02  0.22463011488E+03 -0.32175427649E+02  0.23364150754E+03  0.00000000000E+00 0.  1.
         -1    1    6    6    0  502 -0.45535376273E+03 -0.29593420302E+03  0.76636609926E+02  0.54844988078E+03  0.00000000000E+00 0.  1.
<mgrwt>
<rscale>  0 0.19068192E+04</rscale>
<asrwt>0</asrwt>
<pdfrwt beam="1">  1        2 0.18058720E+00 0.19068192E+04</pdfrwt>
<pdfrwt beam="2">  1       -2 0.11913664E+00 0.19068192E+04</pdfrwt>
<totfact> 0.99400490E+00</totfact>
</mgrwt>
</event>
<event>
12    1  0.2155909E-007  0.1321492E+04  0.7818608E-02  0.9012693E-01
         -2   -1    0    0    0  501 -0.00000000000E+00  0.00000000000E+00  0.40495509292E+03  0.40495509292E+03  0.00000000000E+00 0.  1.
          2   -1    0    0  501    0  0.00000000000E+00 -0.00000000000E+00 -0.10781085396E+04  0.10781085396E+04  0.00000000000E+00 0. -1.
         23    2    1    2    0    0  0.30285768492E+03  0.12487966470E+03 -0.47248845458E+03  0.57918075425E+03  0.69909215437E+02 0.  0.
        254    2    1    2    0    0 -0.30285768492E+03 -0.12487966470E+03 -0.20066499207E+03  0.90388287824E+03  0.81818097666E+03 0.  0.
        -24    2    4    4    0    0 -0.96541059598E+02  0.34215764946E+03 -0.92623446110E+02  0.37558426127E+03  0.78053835745E+02 0.  0.
         24    2    4    4    0    0 -0.20631662532E+03 -0.46703731416E+03 -0.10804154596E+03  0.52829861697E+03  0.82073444783E+02 0.  0.
         11    1    3    3    0    0  0.30617372031E+03  0.12010433761E+03 -0.46697687439E+03  0.57116967718E+03  0.00000000000E+00 0. -1.
        -11    1    3    3    0    0 -0.33160353848E+01  0.47753270895E+01 -0.55115801986E+01  0.80110770668E+01  0.00000000000E+00 0.  1.
          4    1    6    6  502    0 -0.21246377671E+03 -0.45634700967E+03 -0.11130859325E+03  0.51554151392E+03  0.00000000000E+00 0. -1.
          1    1    5    5  503    0 -0.10454213234E+03  0.32779504912E+03 -0.98887105031E+02  0.35799065798E+03  0.00000000000E+00 0. -1.
         -2    1    5    5    0  503  0.80010727463E+01  0.14362600342E+02  0.62636589209E+01  0.17593603291E+02  0.00000000000E+00 0.  1.
         -3    1    6    6    0  502  0.61471513843E+01 -0.10690304488E+02  0.32670472863E+01  0.12757103047E+02  0.00000000000E+00 0.  1.
<mgrwt>
<rscale>  0 0.13214924E+04</rscale>
<asrwt>0</asrwt>
<pdfrwt beam="1">  1        2 0.16586285E+00 0.13214924E+04</pdfrwt>
<pdfrwt beam="2">  1       -2 0.62300783E-01 0.13214924E+04</pdfrwt>
<totfact> 0.52604599E+01</totfact>
</mgrwt>
</event>
<event>
12    1  0.1519630E-007  0.1434749E+04  0.7818608E-02  0.8929043E-01
         -1   -1    0    0    0  501 -0.00000000000E+00  0.00000000000E+00  0.54282478834E+03  0.54282478834E+03  0.00000000000E+00 0.  1.
          1   -1    0    0  501    0  0.00000000000E+00 -0.00000000000E+00 -0.94805144243E+03  0.94805144243E+03  0.00000000000E+00 0. -1.
         23    2    1    2    0    0  0.24548288226E+03  0.34377919692E+03 -0.16824227792E+03  0.46441338170E+03  0.94489911122E+02 0.  0.
        254    2    1    2    0    0 -0.24548288226E+03 -0.34377919692E+03 -0.23698437616E+03  0.10264628491E+04  0.90499635593E+03 0.  0.
        -24    2    4    4    0    0  0.28686432573E+03  0.83156643201E+02 -0.11582193419E+03  0.32901255056E+03  0.75022458661E+02 0.  0.
         24    2    4    4    0    0 -0.53234720798E+03 -0.42693584012E+03 -0.12116244197E+03  0.69745029851E+03  0.78030892032E+02 0.  0.
         11    1    3    3    0    0  0.21647153486E+03  0.30966556155E+03 -0.17941170921E+03  0.41825978388E+03  0.00000000000E+00 0. -1.
        -11    1    3    3    0    0  0.29011347401E+02  0.34113635375E+02  0.11169431283E+02  0.46153597820E+02  0.00000000000E+00 0.  1.
          2    1    6    6  502    0 -0.52202754851E+03 -0.42512207776E+03 -0.12750825701E+03  0.68520062610E+03  0.00000000000E+00 0. -1.
          1    1    5    5  503    0  0.16404020819E+03  0.86440704643E+01 -0.59676351291E+02  0.17477178480E+03  0.00000000000E+00 0. -1.
         -2    1    5    5    0  503  0.12282411753E+03  0.74512572737E+02 -0.56145582900E+02  0.15424076576E+03  0.00000000000E+00 0.  1.
         -1    1    6    6    0  502 -0.10319659471E+02 -0.18137623683E+01  0.63458150406E+01  0.12249672406E+02  0.00000000000E+00 0.  1.
<mgrwt>
<rscale>  0 0.14347485E+04</rscale>
<asrwt>0</asrwt>
<pdfrwt beam="1">  1        1 0.14585407E+00 0.14347485E+04</pdfrwt>
<pdfrwt beam="2">  1       -1 0.83511506E-01 0.14347485E+04</pdfrwt>
<totfact> 0.23016098E+01</totfact>
</mgrwt>
</event>
<event>
12    1  0.1519630E-007  0.1886201E+04  0.7818608E-02  0.8661755E-01
         -1   -1    0    0    0  501 -0.00000000000E+00  0.00000000000E+00  0.11751216879E+04  0.11751216879E+04  0.00000000000E+00 0.  1.
          1   -1    0    0  501    0  0.00000000000E+00 -0.00000000000E+00 -0.75689094797E+03  0.75689094797E+03  0.00000000000E+00 0. -1.
         23    2    1    2    0    0 -0.42973753478E+03 -0.12879437871E+03  0.75663089968E+03  0.88435975585E+03  0.91320964925E+02 0.  0.
        254    2    1    2    0    0  0.42973753478E+03  0.12879437871E+03 -0.33840015978E+03  0.10476528800E+04  0.88419429313E+03 0.  0.
        -24    2    4    4    0    0 -0.14319446651E+03 -0.17250521071E+03  0.10327204068E+03  0.26010468218E+03  0.82016024923E+02 0.  0.
         24    2    4    4    0    0  0.57293200130E+03  0.30129958942E+03 -0.44167220046E+03  0.78754819780E+03  0.78264362952E+02 0.  0.
         11    1    3    3    0    0 -0.30319653409E+03 -0.13064202848E+03  0.57386977350E+03  0.66205890585E+03  0.00000000000E+00 0.  1.
        -11    1    3    3    0    0 -0.12654100069E+03  0.18476497711E+01  0.18276112619E+03  0.22230085000E+03  0.00000000000E+00 0. -1.
          2    1    6    6  502    0  0.38257493077E+03  0.19677757189E+03 -0.24805701345E+03  0.49660575145E+03  0.00000000000E+00 0. -1.
          1    1    5    5  503    0 -0.10573773219E+03 -0.12920840341E+03  0.34261213653E+02  0.17043799542E+03  0.00000000000E+00 0. -1.
         -2    1    5    5    0  503 -0.37456734325E+02 -0.43296807297E+02  0.69010827024E+02  0.89666686763E+02  0.00000000000E+00 0.  1.
         -1    1    6    6    0  502  0.19035707053E+03  0.10452201753E+03 -0.19361518701E+03  0.29094244635E+03  0.00000000000E+00 0.  1.
<mgrwt>
<rscale>  0 0.18862014E+04</rscale>
<asrwt>0</asrwt>
<pdfrwt beam="1">  1        1 0.11644476E+00 0.18862014E+04</pdfrwt>
<pdfrwt beam="2">  1       -1 0.18078795E+00 0.18862014E+04</pdfrwt>
<totfact> 0.46453544E+00</totfact>
</mgrwt>
</event>
<event>
12    1  0.1726916E-007  0.1141493E+04  0.7818608E-02  0.9165668E-01
         -2   -1    0    0    0  501 -0.00000000000E+00  0.00000000000E+00  0.25386741239E+03  0.25386741239E+03  0.00000000000E+00 0.  1.
          2   -1    0    0  501    0  0.00000000000E+00 -0.00000000000E+00 -0.12831561341E+04  0.12831561341E+04  0.00000000000E+00 0. -1.
         23    2    1    2    0    0 -0.22557357008E+03 -0.94438645410E+02 -0.19510951963E+03  0.32543379571E+03  0.89651198983E+02 0.  0.
        254    2    1    2    0    0  0.22557357008E+03  0.94438645410E+02 -0.83417920211E+03  0.12115897508E+04  0.84397434189E+03 0.  0.
        -24    2    4    4    0    0 -0.17395071151E+03  0.32261868157E+03 -0.20257029014E+03  0.42663937403E+03  0.81515454364E+02 0.  0.
         24    2    4    4    0    0  0.39952428158E+03 -0.22818003616E+03 -0.63160891197E+03  0.78495037678E+03  0.74374026677E+02 0.  0.
         11    1    3    3    0    0 -0.23175856318E+03 -0.91091375299E+02 -0.19768433991E+03  0.31794459974E+03  0.00000000000E+00 0. -1.
        -11    1    3    3    0    0  0.61849930997E+01 -0.33472701111E+01  0.25748202803E+01  0.74891959726E+01  0.00000000000E+00 0.  1.
          2    1    6    6  502    0  0.39728766526E+03 -0.22799998694E+03 -0.60802217847E+03  0.76125715269E+03  0.00000000000E+00 0. -1.
          1    1    5    5  503    0 -0.16550908762E+03  0.31786142493E+03 -0.20914022735E+03  0.41493225742E+03  0.00000000000E+00 0. -1.
         -2    1    5    5    0  503 -0.84416238816E+01  0.47572566323E+01  0.65699372173E+01  0.11707116616E+02  0.00000000000E+00 0.  1.
         -1    1    6    6    0  502  0.22366163210E+01 -0.18004921940E+00 -0.23586733497E+02  0.23693224081E+02  0.00000000000E+00 0.  1.
<mgrwt>
<rscale>  0 0.11414929E+04</rscale>
<asrwt>0</asrwt>
<pdfrwt beam="1">  1        2 0.19740864E+00 0.11414929E+04</pdfrwt>
<pdfrwt beam="2">  1       -2 0.39056525E-01 0.11414929E+04</pdfrwt>
<totfact> 0.10370999E+02</totfact>
</mgrwt>
</event>
<event>
12    1  0.1519630E-007  0.2647820E+04  0.7818608E-02  0.8352137E-01
         -1   -1    0    0    0  501 -0.00000000000E+00  0.00000000000E+00  0.70055616621E+03  0.70055616621E+03  0.00000000000E+00 0.  1.
          1   -1    0    0  501    0  0.00000000000E+00 -0.00000000000E+00 -0.25019233728E+04  0.25019233728E+04  0.00000000000E+00 0. -1.
         23    2    1    2    0    0  0.45678803781E+03 -0.72970930079E+03  0.15296014819E+03  0.87921507172E+03  0.92148577137E+02 0.  0.
        254    2    1    2    0    0 -0.45678803781E+03  0.72970930079E+03 -0.19543273547E+04  0.23232644673E+04  0.91489420164E+03 0.  0.
        -24    2    4    4    0    0  0.38609864617E+01 -0.99083805315E+02  0.23555372612E+02  0.12838978272E+03  0.78080554795E+02 0.  0.
         24    2    4    4    0    0 -0.46064902427E+03  0.82879310610E+03 -0.19778827273E+04  0.21948746845E+04  0.79744977047E+02 0.  0.
         13    1    3    3    0    0  0.73286327637E+02 -0.69322290437E+02  0.33295330217E+02  0.10623109142E+03  0.00000000000E+00 0.  1.
        -13    1    3    3    0    0  0.38350171018E+03 -0.66038701035E+03  0.11966481797E+03  0.77298398030E+03  0.00000000000E+00 0. -1.
          2    1    6    6  502    0 -0.24695183196E+03  0.48288117392E+03 -0.10495449190E+04  0.11813991588E+04  0.00000000000E+00 0. -1.
          3    1    5    5  503    0 -0.14724610453E+02  0.75355955192E+01  0.99701679210E+01  0.19313301147E+02  0.00000000000E+00 0. -1.
         -4    1    5    5    0  503  0.18585596915E+02 -0.10661940083E+03  0.13585204691E+02  0.10907648158E+03  0.00000000000E+00 0.  1.
         -1    1    6    6    0  502 -0.21369719231E+03  0.34591193218E+03 -0.92833780834E+03  0.10134755257E+04  0.00000000000E+00 0.  1.
<mgrwt>
<rscale>  0 0.26478201E+04</rscale>
<asrwt>0</asrwt>
<pdfrwt beam="1">  1        1 0.38491129E+00 0.26478201E+04</pdfrwt>
<pdfrwt beam="2">  1       -1 0.10777787E+00 0.26478201E+04</pdfrwt>
<totfact> 0.94826638E-01</totfact>
</mgrwt>
</event>
<event>
12    1  0.1519630E-007  0.1793184E+04  0.7818608E-02  0.8709933E-01
          2   -1    0    0  501    0  0.00000000000E+00  0.00000000000E+00  0.24761322212E+04  0.24761322212E+04  0.00000000000E+00 0. -1.
         -2   -1    0    0    0  501 -0.00000000000E+00 -0.00000000000E+00 -0.32465032300E+03  0.32465032300E+03  0.00000000000E+00 0.  1.
         23    2    1    2    0    0 -0.19328284831E+03 -0.46404414354E+02  0.17977423575E+04  0.18111617012E+04  0.94432488421E+02 0.  0.
        254    2    1    2    0    0  0.19328284831E+03  0.46404414354E+02  0.35373954073E+03  0.98962084300E+03  0.90261072513E+03 0.  0.
        -24    2    4    4    0    0  0.52388381282E+03  0.17788060808E+03  0.23552381981E+03  0.60649548417E+03  0.79180443037E+02 0.  0.
         24    2    4    4    0    0 -0.33060096451E+03 -0.13147619372E+03  0.11821572091E+03  0.38312535883E+03  0.78911955081E+02 0.  0.
         11    1    3    3    0    0 -0.16088013491E+03 -0.64498002634E+02  0.16389745166E+04  0.16481140362E+04  0.00000000000E+00 0. -1.
        -11    1    3    3    0    0 -0.32402713391E+02  0.18093588280E+02  0.15876784088E+03  0.16304766502E+03  0.00000000000E+00 0.  1.
          4    1    6    6  502    0  0.41066206443E+01 -0.11433667499E+01  0.48834686184E+01  0.64822747850E+01  0.00000000000E+00 0. -1.
          3    1    5    5  503    0  0.56962516155E+01  0.66606979188E+01  0.16026148583E+02  0.18266078332E+02  0.00000000000E+00 0. -1.
         -4    1    5    5    0  503  0.51818756120E+03  0.17121991016E+03  0.21949767123E+03  0.58822940584E+03  0.00000000000E+00 0.  1.
         -3    1    6    6    0  502 -0.33470758516E+03 -0.13033282697E+03  0.11333225229E+03  0.37664308405E+03  0.00000000000E+00 0.  1.
<mgrwt>
<rscale>  0 0.17931839E+04</rscale>
<asrwt>0</asrwt>
<pdfrwt beam="1">  1        2 0.38094341E+00 0.17931839E+04</pdfrwt>
<pdfrwt beam="2">  1       -2 0.49946205E-01 0.17931839E+04</pdfrwt>
<totfact> 0.12888587E+01</totfact>
</mgrwt>
</event>
<event>
12    1  0.1519630E-007  0.1271292E+04  0.7818608E-02  0.9052646E-01
          1   -1    0    0  501    0  0.00000000000E+00  0.00000000000E+00  0.11767772554E+04  0.11767772554E+04  0.00000000000E+00 0. -1.
         -1   -1    0    0    0  501 -0.00000000000E+00 -0.00000000000E+00 -0.34334965103E+03  0.34334965103E+03  0.00000000000E+00 0.  1.
         23    2    1    2    0    0  0.30296181962E+03 -0.19444496921E+02  0.22263926996E+03  0.38817589546E+03  0.94595606033E+02 0.  0.
        254    2    1    2    0    0 -0.30296181962E+03  0.19444496921E+02  0.61078833438E+03  0.11319510109E+04  0.90337519844E+03 0.  0.
        -24    2    4    4    0    0  0.46708893907E+02  0.18815139860E+03  0.69560477492E+03  0.72665949435E+03  0.81150158812E+02 0.  0.
         24    2    4    4    0    0 -0.34967071352E+03 -0.16870690168E+03 -0.84816440537E+02  0.40529151660E+03  0.79597476527E+02 0.  0.
         11    1    3    3    0    0  0.13828446665E+03  0.32149616382E+02  0.12905735320E+03  0.19186451461E+03  0.00000000000E+00 0. -1.
        -11    1    3    3    0    0  0.16467735296E+03 -0.51594113303E+02  0.93581916756E+02  0.19631138085E+03  0.00000000000E+00 0.  1.
          4    1    6    6  502    0 -0.51407417846E+02  0.41394602418E+01 -0.98056552224E+01  0.52497701046E+02  0.00000000000E+00 0. -1.
          1    1    5    5  503    0  0.39804252675E+02  0.65803761534E+02  0.16433489068E+03  0.18143998969E+03  0.00000000000E+00 0. -1.
         -2    1    5    5    0  503  0.69046412323E+01  0.12234763706E+03  0.53126988424E+03  0.54521950466E+03  0.00000000000E+00 0.  1.
         -3    1    6    6    0  502 -0.29826329568E+03 -0.17284636192E+03 -0.75010785314E+02  0.35279381555E+03  0.00000000000E+00 0.  1.
<mgrwt>
<rscale>  0 0.12712924E+04</rscale>
<asrwt>0</asrwt>
<pdfrwt beam="1">  1        1 0.18104265E+00 0.12712924E+04</pdfrwt>
<pdfrwt beam="2">  1       -1 0.52823024E-01 0.12712924E+04</pdfrwt>
<totfact> 0.39525797E+01</totfact>
</mgrwt>
</event>
<event>
12    1  0.1519630E-007  0.1852961E+04  0.7818608E-02  0.8678631E-01
         -1   -1    0    0    0  501 -0.00000000000E+00  0.00000000000E+00  0.27598798453E+03  0.27598798453E+03  0.00000000000E+00 0.  1.
          1   -1    0    0  501    0  0.00000000000E+00 -0.00000000000E+00 -0.31101581557E+04  0.31101581557E+04  0.00000000000E+00 0. -1.
         23    2    1    2    0    0 -0.58341524510E+03  0.14351034940E+03 -0.17638845196E+04  0.18656411905E+04  0.91432404726E+02 0.  0.
        254    2    1    2    0    0  0.58341524510E+03 -0.14351034940E+03 -0.10702856515E+04  0.15205049497E+04  0.89747164722E+03 0.  0.
        -24    2    4    4    0    0  0.47639712355E+03 -0.49138401505E+03 -0.82264957904E+03  0.10731838565E+04  0.80986359086E+02 0.  0.
         24    2    4    4    0    0  0.10701812155E+03  0.34787366566E+03 -0.24763607248E+03  0.44732109320E+03  0.79395027732E+02 0.  0.
         13    1    3    3    0    0 -0.45706837616E+03  0.96500515492E+02 -0.14670252658E+04  0.15396061121E+04  0.00000000000E+00 0. -1.
        -13    1    3    3    0    0 -0.12634686894E+03  0.47009833905E+02 -0.29685925384E+03  0.32603507843E+03  0.00000000000E+00 0.  1.
          4    1    6    6  502    0  0.75019003870E+02  0.16492244583E+03 -0.83662083334E+02  0.19956604989E+03  0.00000000000E+00 0. -1.
          1    1    5    5  503    0  0.13631426590E+03 -0.91793774571E+02 -0.18761268712E+03  0.24941170082E+03  0.00000000000E+00 0. -1.
         -2    1    5    5    0  503  0.34008285765E+03 -0.39959024048E+03 -0.63503689192E+03  0.82377215567E+03  0.00000000000E+00 0.  1.
         -3    1    6    6    0  502  0.31999117680E+02  0.18295121982E+03 -0.16397398915E+03  0.24775504331E+03  0.00000000000E+00 0.  1.
<mgrwt>
<rscale>  0 0.18529612E+04</rscale>
<asrwt>0</asrwt>
<pdfrwt beam="1">  1        1 0.47848582E+00 0.18529612E+04</pdfrwt>
<pdfrwt beam="2">  1       -1 0.42459695E-01 0.18529612E+04</pdfrwt>
<totfact> 0.25508303E+00</totfact>
</mgrwt>
</event>
<event>
12    1  0.1519630E-007  0.1809694E+04  0.7818608E-02  0.8701161E-01
          2   -1    0    0  501    0  0.00000000000E+00  0.00000000000E+00  0.10181092451E+04  0.10181092451E+04  0.00000000000E+00 0. -1.
         -2   -1    0    0    0  501 -0.00000000000E+00 -0.00000000000E+00 -0.80418515050E+03  0.80418515050E+03  0.00000000000E+00 0.  1.
         23    2    1    2    0    0 -0.13956834468E+03  0.58103903706E+03  0.40322665972E+03  0.72654199908E+03  0.90475697842E+02 0.  0.
        254    2    1    2    0    0  0.13956834468E+03 -0.58103903706E+03 -0.18930256512E+03  0.10957523965E+04  0.89875033680E+03 0.  0.
        -24    2    4    4    0    0  0.20937492350E+02  0.23020235317E+03  0.21536490378E+02  0.24541852621E+03  0.79592277257E+02 0.  0.
         24    2    4    4    0    0  0.11863085233E+03 -0.81124139023E+03 -0.21083905549E+03  0.85033387031E+03  0.80179244989E+02 0.  0.
         11    1    3    3    0    0 -0.16025081506E+02  0.79703299053E+01  0.85819889764E+01  0.19848927700E+02  0.00000000000E+00 0.  1.
        -11    1    3    3    0    0 -0.12354326318E+03  0.57306870715E+03  0.39464467074E+03  0.70669307138E+03  0.00000000000E+00 0. -1.
          4    1    6    6  502    0  0.46005038776E+01 -0.21599684703E+02 -0.20451765200E+02  0.30099596591E+02  0.00000000000E+00 0. -1.
          3    1    5    5  503    0  0.32972923938E+02  0.39647897604E+02  0.17453429199E+02  0.54440717191E+02  0.00000000000E+00 0. -1.
         -4    1    5    5    0  503 -0.12035431588E+02  0.19055445557E+03  0.40830611786E+01  0.19097780902E+03  0.00000000000E+00 0.  1.
         -3    1    6    6    0  502  0.11403034846E+03 -0.78964170552E+03 -0.19038729029E+03  0.82023427372E+03  0.00000000000E+00 0.  1.
<mgrwt>
<rscale>  0 0.18096943E+04</rscale>
<asrwt>0</asrwt>
<pdfrwt beam="1">  1        2 0.15663219E+00 0.18096943E+04</pdfrwt>
<pdfrwt beam="2">  1       -2 0.12372079E+00 0.18096943E+04</pdfrwt>
<totfact> 0.11383260E+01</totfact>
</mgrwt>
</event>
<event>
12    1  0.1519630E-007  0.2104295E+04  0.7818608E-02  0.8559354E-01
          1   -1    0    0  501    0  0.00000000000E+00  0.00000000000E+00  0.19068689159E+04  0.19068689159E+04  0.00000000000E+00 0. -1.
         -1   -1    0    0    0  501 -0.00000000000E+00 -0.00000000000E+00 -0.58054046326E+03  0.58054046326E+03  0.00000000000E+00 0.  1.
         23    2    1    2    0    0 -0.63316333206E+02  0.19685533773E+03 -0.43962158965E+03  0.49438331245E+03  0.91579121537E+02 0.  0.
        254    2    1    2    0    0  0.63316333206E+02 -0.19685533773E+03  0.17659500423E+04  0.19930260667E+04  0.90045120280E+03 0.  0.
        -24    2    4    4    0    0  0.40223264279E+03 -0.17807250474E+03  0.14671814482E+04  0.15337793986E+04  0.79730331012E+02 0.  0.
         24    2    4    4    0    0 -0.33891630958E+03 -0.18782832988E+02  0.29876859406E+03  0.45924666809E+03  0.80173372388E+02 0.  0.
         13    1    3    3    0    0 -0.21430755125E+02  0.16901250691E+03 -0.37958031523E+03  0.41605975589E+03  0.00000000000E+00 0.  1.
        -13    1    3    3    0    0 -0.41885578082E+02  0.27842830819E+02 -0.60041274419E+02  0.78323556566E+02  0.00000000000E+00 0. -1.
          2    1    6    6  502    0 -0.32442822076E+03 -0.68505002572E+01  0.29782342466E+03  0.44045362078E+03  0.00000000000E+00 0. -1.
          1    1    5    5  503    0  0.34222349752E+03 -0.17938265875E+03  0.12964845701E+04  0.13528367606E+04  0.00000000000E+00 0. -1.
         -2    1    5    5    0  503  0.60009145269E+02  0.13101540067E+01  0.17069687819E+03  0.18094263799E+03  0.00000000000E+00 0.  1.
         -3    1    6    6    0  502 -0.14488088823E+02 -0.11932332731E+02  0.94516939843E+00  0.18793047313E+02  0.00000000000E+00 0.  1.
<mgrwt>
<rscale>  0 0.21042952E+04</rscale>
<asrwt>0</asrwt>
<pdfrwt beam="1">  1        1 0.29336444E+00 0.21042952E+04</pdfrwt>
<pdfrwt beam="2">  1       -1 0.89313919E-01 0.21042952E+04</pdfrwt>
<totfact> 0.38924833E+00</totfact>
</mgrwt>
</event>
<event>
12    1  0.1519630E-007  0.1522706E+04  0.7818608E-02  0.8869493E-01
         -1   -1    0    0    0  501 -0.00000000000E+00  0.00000000000E+00  0.51180398779E+03  0.51180398779E+03  0.00000000000E+00 0.  1.
          1   -1    0    0  501    0  0.00000000000E+00 -0.00000000000E+00 -0.11325781548E+04  0.11325781548E+04  0.00000000000E+00 0. -1.
         23    2    1    2    0    0 -0.11089334698E+02  0.33370039879E+03  0.18818649259E+03  0.39514277176E+03  0.96149490815E+02 0.  0.
        254    2    1    2    0    0  0.11089334698E+02 -0.33370039879E+03 -0.80896065960E+03  0.12492393708E+04  0.89146100720E+03 0.  0.
        -24    2    4    4    0    0  0.28441926179E+03 -0.74928685306E+02  0.48808926133E+02  0.30889874537E+03  0.80792940686E+02 0.  0.
         24    2    4    4    0    0 -0.27332992709E+03 -0.25877171348E+03 -0.85776958573E+03  0.94034062545E+03  0.82460784227E+02 0.  0.
         11    1    3    3    0    0 -0.12068531936E+01 -0.36882360450E+01 -0.49260898650E+01  0.62710398750E+01  0.00000000000E+00 0. -1.
        -11    1    3    3    0    0 -0.98824815043E+01  0.33738863483E+03  0.19311258246E+03  0.38887173188E+03  0.00000000000E+00 0.  1.
          2    1    6    6  502    0 -0.21565415578E+03 -0.22545639373E+03 -0.62981388883E+03  0.70285335238E+03  0.00000000000E+00 0. -1.
          3    1    5    5  503    0  0.25990411802E+03 -0.41023657899E+02  0.40052336340E+02  0.26615273945E+03  0.00000000000E+00 0. -1.
         -4    1    5    5    0  503  0.24515143769E+02 -0.33905027407E+02  0.87565897933E+01  0.42746005922E+02  0.00000000000E+00 0.  1.
         -1    1    6    6    0  502 -0.57675771313E+02 -0.33315319748E+02 -0.22795569690E+03  0.23748727308E+03  0.00000000000E+00 0.  1.
<mgrwt>
<rscale>  0 0.15227055E+04</rscale>
<asrwt>0</asrwt>
<pdfrwt beam="1">  1        1 0.17424279E+00 0.15227055E+04</pdfrwt>
<pdfrwt beam="2">  1       -1 0.78739076E-01 0.15227055E+04</pdfrwt>
<totfact> 0.18674876E+01</totfact>
</mgrwt>
</event>
<event>
12    1  0.1519630E-007  0.1115823E+04  0.7818608E-02  0.9189906E-01
          2   -1    0    0  501    0  0.00000000000E+00  0.00000000000E+00  0.36534744750E+04  0.36534744750E+04  0.00000000000E+00 0. -1.
         -2   -1    0    0    0  501 -0.00000000000E+00 -0.00000000000E+00 -0.85196994731E+02  0.85196994731E+02  0.00000000000E+00 0.  1.
         23    2    1    2    0    0  0.15645193386E+02  0.53277402977E+02  0.12934954586E+04  0.12978784060E+04  0.90964837346E+02 0.  0.
        254    2    1    2    0    0 -0.15645193386E+02 -0.53277402977E+02  0.22747820217E+04  0.24407930637E+04  0.88303696415E+03 0.  0.
        -24    2    4    4    0    0 -0.26159974898E+03  0.82162896621E+02  0.20800444555E+03  0.35348331425E+03  0.80619066227E+02 0.  0.
         24    2    4    4    0    0  0.24595455559E+03 -0.13544029960E+03  0.20667775762E+04  0.20873097495E+04  0.80341290120E+02 0.  0.
         13    1    3    3    0    0  0.37921558056E+01 -0.26017222447E+02  0.29517231448E+03  0.29634097176E+03  0.00000000000E+00 0.  1.
        -13    1    3    3    0    0  0.11853037581E+02  0.79294625424E+02  0.99832314410E+03  0.10015374342E+04  0.00000000000E+00 0. -1.
          4    1    6    6  502    0  0.14640624996E+03 -0.99942651488E+02  0.10282374349E+04  0.10434057438E+04  0.00000000000E+00 0. -1.
          3    1    5    5  503    0 -0.15296897841E+03  0.59442381873E+02  0.16970889163E+03  0.23608052231E+03  0.00000000000E+00 0. -1.
         -4    1    5    5    0  503 -0.10863077057E+03  0.22720514747E+02  0.38295553921E+02  0.11740279194E+03  0.00000000000E+00 0.  1.
         -3    1    6    6    0  502  0.99548305634E+02 -0.35497648110E+02  0.10385401412E+04  0.10439040057E+04  0.00000000000E+00 0.  1.
<mgrwt>
<rscale>  0 0.11158226E+04</rscale>
<asrwt>0</asrwt>
<pdfrwt beam="1">  1        2 0.56207288E+00 0.11158226E+04</pdfrwt>
<pdfrwt beam="2">  1       -2 0.13107233E-01 0.11158226E+04</pdfrwt>
<totfact> 0.28589730E+01</totfact>
</mgrwt>
</event>
<event>
12    1  0.1519630E-007  0.1891649E+04  0.7818608E-02  0.8659025E-01
         -1   -1    0    0    0  501 -0.00000000000E+00  0.00000000000E+00  0.64387571515E+03  0.64387571515E+03  0.00000000000E+00 0.  1.
          1   -1    0    0  501    0  0.00000000000E+00 -0.00000000000E+00 -0.13893730171E+04  0.13893730171E+04  0.00000000000E+00 0. -1.
         23    2    1    2    0    0  0.13620424347E+03  0.47144037013E+03  0.30032409078E+03  0.58211559714E+03  0.88636281494E+02 0.  0.
        254    2    1    2    0    0 -0.13620424347E+03 -0.47144037013E+03 -0.10458213927E+04  0.14511331351E+04  0.87820121371E+03 0.  0.
        -24    2    4    4    0    0 -0.42852405677E+02  0.97242846298E+02 -0.81301277183E+03  0.82454951890E+03  0.87175926292E+02 0.  0.
         24    2    4    4    0    0 -0.93351837794E+02 -0.56868321643E+03 -0.23280862085E+03  0.62658361617E+03  0.79322177466E+02 0.  0.
         13    1    3    3    0    0  0.94800769153E+02  0.25167349028E+03  0.11846517814E+03  0.29387196187E+03  0.00000000000E+00 0.  1.
        -13    1    3    3    0    0  0.41403474318E+02  0.21976687986E+03  0.18185891264E+03  0.28824363527E+03  0.00000000000E+00 0. -1.
          4    1    6    6  502    0 -0.91819422176E+02 -0.40846743763E+03 -0.14014317474E+03  0.44149355977E+03  0.00000000000E+00 0. -1.
          1    1    5    5  503    0 -0.55454548501E+02  0.10539793305E+03 -0.64784455220E+03  0.65870061109E+03  0.00000000000E+00 0. -1.
         -2    1    5    5    0  503  0.12602142824E+02 -0.81550867472E+01 -0.16516821964E+03  0.16584890781E+03  0.00000000000E+00 0.  1.
         -3    1    6    6    0  502 -0.15324156174E+01 -0.16021577880E+03 -0.92665446107E+02  0.18509005639E+03  0.00000000000E+00 0.  1.
<mgrwt>
<rscale>  0 0.18916485E+04</rscale>
<asrwt>0</asrwt>
<pdfrwt beam="1">  1        1 0.21374969E+00 0.18916485E+04</pdfrwt>
<pdfrwt beam="2">  1       -1 0.99057803E-01 0.18916485E+04</pdfrwt>
<totfact> 0.71278502E+00</totfact>
</mgrwt>
</event>
<event>
12    1  0.1519630E-007  0.1511421E+04  0.7818608E-02  0.8876894E-01
         -1   -1    0    0    0  501 -0.00000000000E+00  0.00000000000E+00  0.10012668812E+04  0.10012668812E+04  0.00000000000E+00 0.  1.
          1   -1    0    0  501    0  0.00000000000E+00 -0.00000000000E+00 -0.57037544063E+03  0.57037544063E+03  0.00000000000E+00 0. -1.
         23    2    1    2    0    0 -0.23728302757E+03  0.64707125640E+02 -0.29266550056E+03  0.39327082550E+03  0.92296260449E+02 0.  0.
        254    2    1    2    0    0  0.23728302757E+03 -0.64707125640E+02  0.72355694115E+03  0.11783714964E+04  0.89695846563E+03 0.  0.
        -24    2    4    4    0    0 -0.28491997086E+03 -0.12447773757E+02  0.54188210499E+03  0.61729254716E+03  0.77971380656E+02 0.  0.
         24    2    4    4    0    0  0.52220299843E+03 -0.52259351883E+02  0.18167483616E+03  0.56107894920E+03  0.79855054401E+02 0.  0.
         13    1    3    3    0    0 -0.24147257919E+03  0.73120239919E+02 -0.28764181467E+03  0.38261389093E+03  0.00000000000E+00 0. -1.
        -13    1    3    3    0    0  0.41895516161E+01 -0.84131142795E+01 -0.50236858904E+01  0.10656934576E+02  0.00000000000E+00 0.  1.
          2    1    6    6  502    0  0.14023039212E+03 -0.39264361462E+02  0.23772329525E+02  0.14755126772E+03  0.00000000000E+00 0. -1.
          1    1    5    5  503    0 -0.19860368214E+03  0.16470044153E+02  0.42270028622E+03  0.46732239074E+03  0.00000000000E+00 0. -1.
         -2    1    5    5    0  503 -0.86316288723E+02 -0.28917817910E+02  0.11918181877E+03  0.14997015642E+03  0.00000000000E+00 0.  1.
         -1    1    6    6    0  502  0.38197260631E+03 -0.12994990421E+02  0.15790250664E+03  0.41352768148E+03  0.00000000000E+00 0.  1.
<mgrwt>
<rscale>  0 0.15114206E+04</rscale>
<asrwt>0</asrwt>
<pdfrwt beam="1">  1        1 0.87750068E-01 0.15114206E+04</pdfrwt>
<pdfrwt beam="2">  1       -1 0.15404106E+00 0.15114206E+04</pdfrwt>
<totfact> 0.11555973E+01</totfact>
</mgrwt>
</event>
<event>
12    1  0.1519630E-007  0.1519580E+04  0.7818608E-02  0.8871536E-01
          2   -1    0    0  501    0  0.00000000000E+00  0.00000000000E+00  0.13880037078E+04  0.13880037078E+04  0.00000000000E+00 0. -1.
         -2   -1    0    0    0  501 -0.00000000000E+00 -0.00000000000E+00 -0.41590705874E+03  0.41590705874E+03  0.00000000000E+00 0.  1.
         23    2    1    2    0    0  0.37867457077E+03 -0.30735863134E+03  0.37450946761E+03  0.62154585045E+03  0.90543603191E+02 0.  0.
        254    2    1    2    0    0 -0.37867457077E+03  0.30735863134E+03  0.59758718150E+03  0.11823649161E+04  0.89610970120E+03 0.  0.
        -24    2    4    4    0    0  0.54566011354E+02  0.41607628162E+03 -0.67377589230E+01  0.42663574668E+03  0.76653383665E+02 0.  0.
         24    2    4    4    0    0 -0.43324058213E+03 -0.10871765029E+03  0.60432494042E+03  0.75572916944E+03  0.80006340058E+02 0.  0.
         11    1    3    3    0    0  0.14876205586E+03 -0.16227494814E+03  0.20725828798E+03  0.30235625674E+03  0.00000000000E+00 0. -1.
        -11    1    3    3    0    0  0.22991251491E+03 -0.14508368320E+03  0.16725117963E+03  0.31918959371E+03  0.00000000000E+00 0.  1.
          4    1    6    6  502    0 -0.18279721768E+03 -0.83054782279E+02  0.24050465280E+03  0.31329763432E+03  0.00000000000E+00 0. -1.
          1    1    5    5  503    0 -0.96440026647E+01  0.16963243264E+02  0.10235129324E+02  0.22034434000E+02  0.00000000000E+00 0. -1.
         -2    1    5    5    0  503  0.64210014019E+02  0.39911303836E+03 -0.16972888247E+02  0.40460131268E+03  0.00000000000E+00 0.  1.
         -3    1    6    6    0  502 -0.25044336445E+03 -0.25662868006E+02  0.36382028762E+03  0.44243153513E+03  0.00000000000E+00 0.  1.
<mgrwt>
<rscale>  0 0.15195796E+04</rscale>
<asrwt>0</asrwt>
<pdfrwt beam="1">  1        2 0.21353903E+00 0.15195796E+04</pdfrwt>
<pdfrwt beam="2">  1       -2 0.63985702E-01 0.15195796E+04</pdfrwt>
<totfact> 0.32027825E+01</totfact>
</mgrwt>
</event>
<event>
12    1  0.1519630E-007  0.1191083E+04  0.7818608E-02  0.9120698E-01
         -1   -1    0    0    0  501 -0.00000000000E+00  0.00000000000E+00  0.46731862485E+03  0.46731862485E+03  0.00000000000E+00 0.  1.
          1   -1    0    0  501    0  0.00000000000E+00 -0.00000000000E+00 -0.75894554713E+03  0.75894554713E+03  0.00000000000E+00 0. -1.
         23    2    1    2    0    0  0.11864695229E+03 -0.70658015654E+01 -0.26874554252E+03  0.31974691728E+03  0.12604324515E+03 0.  0.
        254    2    1    2    0    0 -0.11864695229E+03  0.70658015654E+01 -0.22881379752E+02  0.90651725470E+03  0.89840021743E+03 0.  0.
        -24    2    4    4    0    0 -0.15881183347E+03 -0.24856569707E+03 -0.36133600054E+03  0.47320009392E+03  0.79677596537E+02 0.  0.
         24    2    4    4    0    0  0.40164881178E+02  0.25563149863E+03  0.33845462079E+03  0.43331716078E+03  0.79066748479E+02 0.  0.
         13    1    3    3    0    0  0.49825696185E+02 -0.51336970325E+02 -0.53089854750E+02  0.89087693874E+02  0.00000000000E+00 0.  1.
        -13    1    3    3    0    0  0.68821256109E+02  0.44271168760E+02 -0.21565568777E+03  0.23065922341E+03  0.00000000000E+00 0. -1.
          4    1    6    6  502    0 -0.23301152975E+02  0.86596936324E+02  0.12274984999E+03  0.15201808703E+03  0.00000000000E+00 0. -1.
          1    1    5    5  503    0 -0.17019562278E+01  0.58177586655E+01 -0.11540846247E+02  0.13035877531E+02  0.00000000000E+00 0. -1.
         -2    1    5    5    0  503 -0.15710987724E+03 -0.25438345573E+03 -0.34979515430E+03  0.46016421639E+03  0.00000000000E+00 0.  1.
         -3    1    6    6    0  502  0.63466034153E+02  0.16903456231E+03  0.21570477080E+03  0.28129907375E+03  0.00000000000E+00 0.  1.
<mgrwt>
<rscale>  0 0.11910825E+04</rscale>
<asrwt>0</asrwt>
<pdfrwt beam="1">  1        1 0.11676085E+00 0.11910825E+04</pdfrwt>
<pdfrwt beam="2">  1       -1 0.71895173E-01 0.11910825E+04</pdfrwt>
<totfact> 0.46505262E+01</totfact>
</mgrwt>
</event>
<event>
12    1  0.1519630E-007  0.2368220E+04  0.7818608E-02  0.8451498E-01
         -2   -1    0    0    0  501 -0.00000000000E+00  0.00000000000E+00  0.13954934574E+04  0.13954934574E+04  0.00000000000E+00 0.  1.
          2   -1    0    0  501    0  0.00000000000E+00 -0.00000000000E+00 -0.10047464141E+04  0.10047464141E+04  0.00000000000E+00 0. -1.
         23    2    1    2    0    0  0.53129596625E+03 -0.35156929414E+03  0.95642129386E+03  0.11528012896E+04  0.91283896164E+02 0.  0.
        254    2    1    2    0    0 -0.53129596625E+03  0.35156929414E+03 -0.56567425057E+03  0.12474385819E+04  0.91117467342E+03 0.  0.
        -24    2    4    4    0    0  0.15227015178E+03  0.30962668258E+03 -0.40935370348E+03  0.54060486769E+03  0.75021908290E+02 0.  0.
         24    2    4    4    0    0 -0.68356611803E+03  0.41942611559E+02 -0.15632054709E+03  0.70683371420E+03  0.78459962398E+02 0.  0.
         13    1    3    3    0    0  0.14158474227E+03 -0.55701062773E+02  0.26858304862E+03  0.30868382148E+03  0.00000000000E+00 0. -1.
        -13    1    3    3    0    0  0.38971122397E+03 -0.29586823137E+03  0.68783824524E+03  0.84411746815E+03  0.00000000000E+00 0.  1.
          2    1    6    6  502    0 -0.38035809891E+03  0.38882977193E+01 -0.12127997643E+03  0.39924458036E+03  0.00000000000E+00 0. -1.
          3    1    5    5  503    0  0.26503140004E+02  0.80688179815E+02 -0.58218559693E+02  0.10296795368E+03  0.00000000000E+00 0. -1.
         -4    1    5    5    0  503  0.12576701178E+03  0.22893850277E+03 -0.35113514379E+03  0.43763691401E+03  0.00000000000E+00 0.  1.
         -1    1    6    6    0  502 -0.30320801912E+03  0.38054313840E+02 -0.35040570655E+02  0.30758913384E+03  0.00000000000E+00 0.  1.
<mgrwt>
<rscale>  0 0.23682205E+04</rscale>
<asrwt>0</asrwt>
<pdfrwt beam="1">  1        2 0.15457637E+00 0.23682205E+04</pdfrwt>
<pdfrwt beam="2">  1       -2 0.21469130E+00 0.23682205E+04</pdfrwt>
<totfact> 0.24086617E+00</totfact>
</mgrwt>
</event>
<event>
12    1  0.1519630E-007  0.2094238E+04  0.7818608E-02  0.8563786E-01
          2   -1    0    0  501    0  0.00000000000E+00  0.00000000000E+00  0.30182226437E+04  0.30182226437E+04  0.00000000000E+00 0. -1.
         -2   -1    0    0    0  501 -0.00000000000E+00 -0.00000000000E+00 -0.36327943056E+03  0.36327943056E+03  0.00000000000E+00 0.  1.
         23    2    1    2    0    0 -0.49338710905E+03  0.13246744206E+03 -0.11244697775E+02  0.51933514455E+03  0.92758215543E+02 0.  0.
        254    2    1    2    0    0  0.49338710905E+03 -0.13246744206E+03  0.26661879109E+04  0.28621669297E+04  0.90689751053E+03 0.  0.
        -24    2    4    4    0    0  0.24458514626E+03  0.36754445050E+03  0.15158827238E+04  0.15808284043E+04  0.78785752300E+02 0.  0.
         24    2    4    4    0    0  0.24880196279E+03 -0.50001189256E+03  0.11503051871E+04  0.12813385254E+04  0.81927307461E+02 0.  0.
         11    1    3    3    0    0 -0.42179345888E+03  0.81036657940E+02  0.58186241328E+01  0.42954687552E+03  0.00000000000E+00 0. -1.
        -11    1    3    3    0    0 -0.71593650173E+02  0.51430784122E+02 -0.17063321908E+02  0.89788269028E+02  0.00000000000E+00 0.  1.
          2    1    6    6  502    0 -0.45408222557E+00 -0.20926038836E+02  0.21542490935E+02  0.30036381402E+02  0.00000000000E+00 0. -1.
          3    1    5    5  503    0  0.37701229464E+02  0.34478375338E+02  0.26697607453E+03  0.27182046546E+03  0.00000000000E+00 0. -1.
         -4    1    5    5    0  503  0.20688391679E+03  0.33306607516E+03  0.12489066493E+04  0.13090079389E+04  0.00000000000E+00 0.  1.
         -1    1    6    6    0  502  0.24925604502E+03 -0.47908585373E+03  0.11287626962E+04  0.12513021440E+04  0.00000000000E+00 0.  1.
<mgrwt>
<rscale>  0 0.20942380E+04</rscale>
<asrwt>0</asrwt>
<pdfrwt beam="1">  1        2 0.46434193E+00 0.20942380E+04</pdfrwt>
<pdfrwt beam="2">  1       -2 0.55889145E-01 0.20942380E+04</pdfrwt>
<totfact> 0.47100783E+00</totfact>
</mgrwt>
</event>
<event>
12    1  0.1519630E-007  0.1356698E+04  0.7818608E-02  0.8985773E-01
         -2   -1    0    0    0  501 -0.00000000000E+00  0.00000000000E+00  0.98879363838E+03  0.98879363838E+03  0.00000000000E+00 0. -1.
          2   -1    0    0  501    0  0.00000000000E+00 -0.00000000000E+00 -0.46537250528E+03  0.46537250528E+03  0.00000000000E+00 0.  1.
         23    2    1    2    0    0 -0.11358135250E+02  0.14101371176E+03 -0.23666799940E+03  0.28939091023E+03  0.87871968444E+02 0.  0.
        254    2    1    2    0    0  0.11358135250E+02 -0.14101371176E+03  0.76008913250E+03  0.11647752334E+04  0.87117850120E+03 0.  0.
        -24    2    4    4    0    0  0.61652965065E+02  0.13827445272E+03 -0.13778949068E+03  0.21957635384E+03  0.79416113278E+02 0.  0.
         24    2    4    4    0    0 -0.50294829815E+02 -0.27928816448E+03  0.89787862318E+03  0.94519887960E+03  0.81752377996E+02 0.  0.
         13    1    3    3    0    0 -0.41276911839E+02  0.74767550196E+02 -0.81550120238E+02  0.11808637569E+03  0.00000000000E+00 0. -1.
        -13    1    3    3    0    0  0.29918776589E+02  0.66246161565E+02 -0.15511787917E+03  0.17130453453E+03  0.00000000000E+00 0.  1.
          2    1    6    6  502    0 -0.65627445213E+02 -0.25585856354E+03  0.84558406165E+03  0.88587977255E+03  0.00000000000E+00 0. -1.
          3    1    5    5  503    0  0.55638648370E+02  0.13799843750E+03 -0.14661660700E+03  0.20889149670E+03  0.00000000000E+00 0. -1.
         -4    1    5    5    0  503  0.60143166950E+01  0.27601522275E+00  0.88271163190E+01  0.10684857145E+02  0.00000000000E+00 0.  1.
         -1    1    6    6    0  502  0.15332615397E+02 -0.23429600946E+02  0.52294561531E+02  0.59319107050E+02  0.00000000000E+00 0.  1.
<mgrwt>
<rscale>  0 0.13566980E+04</rscale>
<asrwt>0</asrwt>
<pdfrwt beam="1">  1        2 0.71595770E-01 0.13566980E+04</pdfrwt>
<pdfrwt beam="2">  1       -2 0.15212210E+00 0.13566980E+04</pdfrwt>
<totfact> 0.18838171E+01</totfact>
</mgrwt>
</event>
<event>
12    1  0.1519630E-007  0.1590286E+04  0.7818608E-02  0.8826538E-01
          2   -1    0    0  501    0  0.00000000000E+00  0.00000000000E+00  0.16266428741E+04  0.16266428741E+04  0.00000000000E+00 0. -1.
         -2   -1    0    0    0  501 -0.00000000000E+00 -0.00000000000E+00 -0.38868550735E+03  0.38868550735E+03  0.00000000000E+00 0.  1.
         23    2    1    2    0    0  0.27177175268E+03 -0.37165278367E+03  0.79182552631E+03  0.92047646422E+03  0.91123980879E+02 0.  0.
        254    2    1    2    0    0 -0.27177175268E+03  0.37165278367E+03  0.44613184043E+03  0.10948519172E+04  0.88751418268E+03 0.  0.
        -24    2    4    4    0    0  0.31474266755E+03  0.19237542345E+03  0.11600358094E+03  0.39369556595E+03  0.73946720921E+02 0.  0.
         24    2    4    4    0    0 -0.58651442022E+03  0.17927736023E+03  0.33012825948E+03  0.70115635128E+03  0.80597916918E+02 0.  0.
         13    1    3    3    0    0  0.17112510305E+03 -0.29650206402E+03  0.60970631944E+03  0.69924178280E+03  0.00000000000E+00 0. -1.
        -13    1    3    3    0    0  0.10064664963E+03 -0.75150719657E+02  0.18211920688E+03  0.22123468141E+03  0.00000000000E+00 0.  1.
          2    1    6    6  502    0 -0.31894161199E+02  0.61001378635E+00  0.94812052177E+00  0.31914081029E+02  0.00000000000E+00 0. -1.
          3    1    5    5  503    0  0.19810749972E+02  0.16181162834E+02 -0.10418186723E+02  0.27619457991E+02  0.00000000000E+00 0. -1.
         -4    1    5    5    0  503  0.29493191758E+03  0.17619426061E+03  0.12642176767E+03  0.36607610796E+03  0.00000000000E+00 0.  1.
         -1    1    6    6    0  502 -0.55462025902E+03  0.17866734644E+03  0.32918013896E+03  0.66924227025E+03  0.00000000000E+00 0.  1.
<mgrwt>
<rscale>  0 0.15902862E+04</rscale>
<asrwt>0</asrwt>
<pdfrwt beam="1">  1        2 0.25025275E+00 0.15902862E+04</pdfrwt>
<pdfrwt beam="2">  1       -2 0.59797771E-01 0.15902862E+04</pdfrwt>
<totfact> 0.26970623E+01</totfact>
</mgrwt>
</event>
<event>
12    1  0.1519630E-007  0.1701447E+04  0.7818608E-02  0.8760540E-01
          1   -1    0    0  501    0  0.00000000000E+00  0.00000000000E+00  0.21082618054E+04  0.21082618054E+04  0.00000000000E+00 0. -1.
         -1   -1    0    0    0  501 -0.00000000000E+00 -0.00000000000E+00 -0.34328296796E+03  0.34328296796E+03  0.00000000000E+00 0.  1.
         23    2    1    2    0    0 -0.81512335990E+02 -0.21892296153E+03  0.15332783138E+04  0.15537511977E+04  0.92891725669E+02 0.  0.
        254    2    1    2    0    0  0.81512335990E+02  0.21892296153E+03  0.23170052367E+03  0.89779357572E+03  0.83533026279E+03 0.  0.
        -24    2    4    4    0    0  0.20420295881E+03  0.31153958862E+03 -0.20165033151E+03  0.43108261111E+03  0.80084940787E+02 0.  0.
         24    2    4    4    0    0 -0.12269062282E+03 -0.92616627092E+02  0.43335085518E+03  0.46671096461E+03  0.79970821295E+02 0.  0.
         13    1    3    3    0    0 -0.33849142429E+02 -0.19527775157E+03  0.12068106258E+04  0.12229763085E+04  0.00000000000E+00 0. -1.
        -13    1    3    3    0    0 -0.47663193561E+02 -0.23645209963E+02  0.32646768804E+03  0.33077488918E+03  0.00000000000E+00 0.  1.
          4    1    6    6  502    0  0.71303162789E+01 -0.18606507780E+02  0.91181952022E+02  0.93333766219E+02  0.00000000000E+00 0. -1.
          3    1    5    5  503    0  0.90873291440E+02  0.78708830435E+02 -0.84011923508E+02  0.14666641871E+03  0.00000000000E+00 0. -1.
         -4    1    5    5    0  503  0.11332966737E+03  0.23283075819E+03 -0.11763840800E+03  0.28441619240E+03  0.00000000000E+00 0.  1.
         -3    1    6    6    0  502 -0.12982093910E+03 -0.74010119312E+02  0.34216890316E+03  0.37337719839E+03  0.00000000000E+00 0.  1.
<mgrwt>
<rscale>  0 0.17014469E+04</rscale>
<asrwt>0</asrwt>
<pdfrwt beam="1">  1        1 0.32434796E+00 0.17014469E+04</pdfrwt>
<pdfrwt beam="2">  1       -1 0.52812765E-01 0.17014469E+04</pdfrwt>
<totfact> 0.86548108E+00</totfact>
</mgrwt>
</event>
<event>
12    1  0.1519630E-007  0.1787696E+04  0.7818608E-02  0.8712870E-01
         -2   -1    0    0    0  501 -0.00000000000E+00  0.00000000000E+00  0.38688277876E+03  0.38688277876E+03  0.00000000000E+00 0.  1.
          2   -1    0    0  501    0  0.00000000000E+00 -0.00000000000E+00 -0.20651316587E+04  0.20651316587E+04  0.00000000000E+00 0. -1.
         23    2    1    2    0    0  0.59526204004E+03 -0.22616578781E+03 -0.87275553015E+03  0.10844421349E+04  0.93939707437E+02 0.  0.
        254    2    1    2    0    0 -0.59526204004E+03  0.22616578781E+03 -0.80549334979E+03  0.13675723026E+04  0.90329762885E+03 0.  0.
        -24    2    4    4    0    0 -0.39772703593E+03 -0.26811294158E+03 -0.12990172546E+03  0.50315939541E+03  0.78889634049E+02 0.  0.
         24    2    4    4    0    0 -0.19753500412E+03  0.49427872939E+03 -0.67559162434E+03  0.86441290715E+03  0.86337077803E+02 0.  0.
         11    1    3    3    0    0  0.15008600743E+02 -0.21564532939E+02 -0.20615909839E+02  0.33396151210E+02  0.00000000000E+00 0.  1.
        -11    1    3    3    0    0  0.58025343930E+03 -0.20460125487E+03 -0.85213962031E+03  0.10510459837E+04  0.00000000000E+00 0. -1.
          2    1    6    6  502    0 -0.14828224138E+03  0.25871433518E+03 -0.35744350382E+03  0.46549606739E+03  0.00000000000E+00 0. -1.
          3    1    5    5  503    0 -0.10449713045E+02  0.12006381791E+01 -0.13829719710E+02  0.17375246243E+02  0.00000000000E+00 0. -1.
         -4    1    5    5    0  503 -0.38727732288E+03 -0.26931357976E+03 -0.11607200575E+03  0.48578414917E+03  0.00000000000E+00 0.  1.
         -1    1    6    6    0  502 -0.49252762737E+02  0.23556439421E+03 -0.31814812052E+03  0.39891683976E+03  0.00000000000E+00 0.  1.
<mgrwt>
<rscale>  0 0.17876956E+04</rscale>
<asrwt>0</asrwt>
<pdfrwt beam="1">  1        2 0.31771256E+00 0.17876956E+04</pdfrwt>
<pdfrwt beam="2">  1       -2 0.59520427E-01 0.17876956E+04</pdfrwt>
<totfact> 0.15299676E+01</totfact>
</mgrwt>
</event>
<event>
12    1  0.1519630E-007  0.2721080E+04  0.7818608E-02  0.8328198E-01
         -2   -1    0    0    0  501 -0.00000000000E+00  0.00000000000E+00  0.81692409089E+03  0.81692409089E+03  0.00000000000E+00 0.  1.
          2   -1    0    0  501    0  0.00000000000E+00 -0.00000000000E+00 -0.22659009376E+04  0.22659009376E+04  0.00000000000E+00 0. -1.
         23    2    1    2    0    0 -0.56117967253E+03 -0.36558770256E+03  0.49947178919E+03  0.84047441073E+03  0.91368341165E+02 0.  0.
        254    2    1    2    0    0  0.56117967253E+03  0.36558770256E+03 -0.19484486359E+04  0.22423506177E+04  0.88493345122E+03 0.  0.
        -24    2    4    4    0    0  0.75581942912E+03  0.15489917290E+03 -0.16387357457E+04  0.18130485397E+04  0.80208477256E+02 0.  0.
         24    2    4    4    0    0 -0.19463975659E+03  0.21068852966E+03 -0.30971289018E+03  0.42930207805E+03  0.78127514354E+02 0.  0.
         11    1    3    3    0    0 -0.94031989385E+02 -0.10233980858E+03  0.86945144087E+02  0.16393568717E+03  0.00000000000E+00 0. -1.
        -11    1    3    3    0    0 -0.46714768315E+03 -0.26324789398E+03  0.41252664510E+03  0.67653872356E+03  0.00000000000E+00 0.  1.
          2    1    6    6  502    0 -0.13720940869E+03  0.17975001808E+03 -0.20116885872E+03  0.30266384084E+03  0.00000000000E+00 0. -1.
          1    1    5    5  503    0  0.72125627799E+03  0.15107950075E+03 -0.15181174878E+04  0.16875178046E+04  0.00000000000E+00 0. -1.
         -2    1    5    5    0  503  0.34563151130E+02  0.38196721520E+01 -0.12061825793E+03  0.12553073511E+03  0.00000000000E+00 0.  1.
         -1    1    6    6    0  502 -0.57430347898E+02  0.30938511581E+02 -0.10854403146E+03  0.12663823721E+03  0.00000000000E+00 0.  1.
<mgrwt>
<rscale>  0 0.27210800E+04</rscale>
<asrwt>0</asrwt>
<pdfrwt beam="1">  1        2 0.34860014E+00 0.27210800E+04</pdfrwt>
<pdfrwt beam="2">  1       -2 0.12568063E+00 0.27210800E+04</pdfrwt>
<totfact> 0.19632156E+00</totfact>
</mgrwt>
</event>
<event>
12    1  0.1519630E-007  0.1041697E+04  0.7818608E-02  0.9263959E-01
          1   -1    0    0  501    0  0.00000000000E+00  0.00000000000E+00  0.11459334659E+04  0.11459334659E+04  0.00000000000E+00 0. -1.
         -1   -1    0    0    0  501 -0.00000000000E+00 -0.00000000000E+00 -0.23673554589E+03  0.23673554589E+03  0.00000000000E+00 0.  1.
         23    2    1    2    0    0  0.24168430898E+02 -0.74386065834E+01 -0.14395523496E+02  0.93783660849E+02  0.89155471091E+02 0.  0.
        254    2    1    2    0    0 -0.24168430898E+02  0.74386065834E+01  0.92359344350E+03  0.12888853509E+04  0.89864406360E+03 0.  0.
        -24    2    4    4    0    0 -0.25077687010E+03 -0.30687807198E+03  0.76126489910E+03  0.86138153610E+03  0.73421485217E+02 0.  0.
         24    2    4    4    0    0  0.22660843921E+03  0.31431667857E+03  0.16232854440E+03  0.42750381483E+03  0.79136566888E+02 0.  0.
         11    1    3    3    0    0 -0.30288325746E+01  0.23990903024E+02  0.26221634397E+02  0.35669473856E+02  0.00000000000E+00 0. -1.
        -11    1    3    3    0    0  0.27197263473E+02 -0.31429509607E+02 -0.40617157893E+02  0.58114186993E+02  0.00000000000E+00 0.  1.
          4    1    6    6  502    0  0.15967865135E+03  0.24087842555E+03  0.15482921290E+03  0.32785937955E+03  0.00000000000E+00 0. -1.
          1    1    5    5  503    0 -0.16741769817E+03 -0.24289397006E+03  0.51263591149E+03  0.59145730539E+03  0.00000000000E+00 0. -1.
         -2    1    5    5    0  503 -0.83359171938E+02 -0.63984101927E+02  0.24862898761E+03  0.26992423071E+03  0.00000000000E+00 0.  1.
         -3    1    6    6    0  502  0.66929787853E+02  0.73438253018E+02  0.74993315037E+01  0.99644435276E+02  0.00000000000E+00 0.  1.
<mgrwt>
<rscale>  0 0.10416970E+04</rscale>
<asrwt>0</asrwt>
<pdfrwt beam="1">  1        1 0.17629745E+00 0.10416970E+04</pdfrwt>
<pdfrwt beam="2">  1       -1 0.36420854E-01 0.10416970E+04</pdfrwt>
<totfact> 0.84541677E+01</totfact>
</mgrwt>
</event>
<event>
12    1  0.1519630E-007  0.1135038E+04  0.7818608E-02  0.9171698E-01
          2   -1    0    0  501    0  0.00000000000E+00  0.00000000000E+00  0.68488267173E+03  0.68488267173E+03  0.00000000000E+00 0.  1.
         -2   -1    0    0    0  501 -0.00000000000E+00 -0.00000000000E+00 -0.47026741063E+03  0.47026741063E+03  0.00000000000E+00 0. -1.
         23    2    1    2    0    0 -0.17641710773E+03  0.12565338230E+02 -0.41385093293E+02  0.20321682042E+03  0.91123358861E+02 0.  0.
        254    2    1    2    0    0  0.17641710773E+03 -0.12565338230E+02  0.25600035439E+03  0.95193326194E+03  0.89964430199E+03 0.  0.
        -24    2    4    4    0    0 -0.27458468425E+03 -0.24847266939E+03  0.53961769954E+01  0.37881487069E+03  0.79600070788E+02 0.  0.
         24    2    4    4    0    0  0.45100179198E+03  0.23590733116E+03  0.25060417739E+03  0.57311839125E+03  0.81285616193E+02 0.  0.
         13    1    3    3    0    0 -0.17529326356E+03  0.31955451255E+02 -0.29961036832E+02  0.18068354337E+03  0.00000000000E+00 0. -1.
        -13    1    3    3    0    0 -0.11238441697E+01 -0.19390113026E+02 -0.11424056460E+02  0.22533277056E+02  0.00000000000E+00 0.  1.
          2    1    6    6  502    0  0.42142268249E+03  0.19503969931E+03  0.21752059563E+03  0.51278920732E+03  0.00000000000E+00 0. -1.
          1    1    5    5  503    0 -0.19842735570E+03 -0.16071154786E+03  0.37931312901E+02  0.25814802266E+03  0.00000000000E+00 0. -1.
         -2    1    5    5    0  503 -0.76157328549E+02 -0.87761121531E+02 -0.32535135906E+02  0.12066684803E+03  0.00000000000E+00 0.  1.
         -1    1    6    6    0  502  0.29579109490E+02  0.40867631846E+02  0.33083581767E+02  0.60329183928E+02  0.00000000000E+00 0.  1.
<mgrwt>
<rscale>  0 0.11350383E+04</rscale>
<asrwt>0</asrwt>
<pdfrwt beam="1">  1        2 0.10536657E+00 0.11350383E+04</pdfrwt>
<pdfrwt beam="2">  1       -2 0.72348832E-01 0.11350383E+04</pdfrwt>
<totfact> 0.72197380E+01</totfact>
</mgrwt>
</event>
<event>
12    1  0.1519630E-007  0.1221637E+04  0.7818608E-02  0.9094126E-01
          1   -1    0    0  501    0  0.00000000000E+00  0.00000000000E+00  0.11801432523E+04  0.11801432523E+04  0.00000000000E+00 0. -1.
         -1   -1    0    0    0  501 -0.00000000000E+00 -0.00000000000E+00 -0.31614744818E+03  0.31614744818E+03  0.00000000000E+00 0.  1.
         23    2    1    2    0    0  0.21520102539E+03 -0.12875879354E+02  0.38940988395E+03  0.45454011807E+03  0.92137894591E+02 0.  0.
        254    2    1    2    0    0 -0.21520102539E+03  0.12875879354E+02  0.47458592022E+03  0.10417505825E+04  0.90196186770E+03 0.  0.
        -24    2    4    4    0    0 -0.15644080870E+03 -0.33730451851E+03 -0.69868900815E+02  0.38686688121E+03  0.80847112757E+02 0.  0.
         24    2    4    4    0    0 -0.58760216691E+02  0.35018039786E+03  0.54445482103E+03  0.65488370125E+03  0.79765505701E+02 0.  0.
         13    1    3    3    0    0  0.49767418553E+02 -0.33342979451E+02  0.16090546570E+03  0.17169484302E+03  0.00000000000E+00 0.  1.
        -13    1    3    3    0    0  0.16543360684E+03  0.20467100097E+02  0.22850441825E+03  0.28284527505E+03  0.00000000000E+00 0. -1.
          2    1    6    6  502    0 -0.27417106568E+01  0.17071933847E+03  0.31450447528E+03  0.35786264750E+03  0.00000000000E+00 0. -1.
          1    1    5    5  503    0 -0.16031102632E+03 -0.29121711659E+03 -0.73569206187E+02  0.34046947331E+03  0.00000000000E+00 0. -1.
         -4    1    5    5    0  503  0.38702176209E+01 -0.46087401917E+02  0.37003053719E+01  0.46397407899E+02  0.00000000000E+00 0.  1.
         -1    1    6    6    0  502 -0.56018506034E+02  0.17946105939E+03  0.22995034575E+03  0.29702105374E+03  0.00000000000E+00 0.  1.
<mgrwt>
<rscale>  0 0.12216371E+04</rscale>
<asrwt>0</asrwt>
<pdfrwt beam="1">  1        1 0.18156050E+00 0.12216371E+04</pdfrwt>
<pdfrwt beam="2">  1       -1 0.48638070E-01 0.12216371E+04</pdfrwt>
<totfact> 0.46181030E+01</totfact>
</mgrwt>
</event>
<event>
12    1  0.1519630E-007  0.2273126E+04  0.7818608E-02  0.8488593E-01
          2   -1    0    0  501    0  0.00000000000E+00  0.00000000000E+00  0.13196022826E+04  0.13196022826E+04  0.00000000000E+00 0. -1.
         -2   -1    0    0    0  501 -0.00000000000E+00 -0.00000000000E+00 -0.97891299315E+03  0.97891299315E+03  0.00000000000E+00 0.  1.
         23    2    1    2    0    0  0.21143383326E+03  0.58061793937E+03 -0.61134719085E+03  0.87407797047E+03  0.91899147673E+02 0.  0.
        254    2    1    2    0    0 -0.21143383326E+03 -0.58061793937E+03  0.95203648026E+03  0.14244373052E+04  0.86071291348E+03 0.  0.
        -24    2    4    4    0    0 -0.44702661553E+03 -0.65600717096E+03  0.75251257195E+03  0.10967701923E+04  0.80321108291E+02 0.  0.
         24    2    4    4    0    0  0.23559278227E+03  0.75389231588E+02  0.19952390831E+03  0.32766711293E+03  0.79802578998E+02 0.  0.
         13    1    3    3    0    0  0.92975162629E+02  0.19152869156E+03 -0.15868924246E+03  0.26553699596E+03  0.00000000000E+00 0. -1.
        -13    1    3    3    0    0  0.11845867063E+03  0.38908924781E+03 -0.45265794839E+03  0.60854097451E+03  0.00000000000E+00 0.  1.
          4    1    6    6  502    0  0.19966546032E+03  0.50863727769E+02  0.19541605176E+03  0.28397332293E+03  0.00000000000E+00 0. -1.
          1    1    5    5  503    0 -0.18177952808E+02 -0.42844105376E+02  0.69621193355E+02  0.83744646981E+02  0.00000000000E+00 0. -1.
         -2    1    5    5    0  503 -0.42884866272E+03 -0.61316306558E+03  0.68289137859E+03  0.10130255453E+04  0.00000000000E+00 0.  1.
         -3    1    6    6    0  502  0.35927321946E+02  0.24525503819E+02  0.41078565500E+01  0.43693790008E+02  0.00000000000E+00 0.  1.
<mgrwt>
<rscale>  0 0.22731263E+04</rscale>
<asrwt>0</asrwt>
<pdfrwt beam="1">  1        2 0.20301574E+00 0.22731263E+04</pdfrwt>
<pdfrwt beam="2">  1       -2 0.15060200E+00 0.22731263E+04</pdfrwt>
<totfact> 0.43378085E+00</totfact>
</mgrwt>
</event>
<event>
12    1  0.2002454E-007  0.1722983E+04  0.7818608E-02  0.8748364E-01
          1   -1    0    0  501    0  0.00000000000E+00  0.00000000000E+00  0.10929752397E+04  0.10929752397E+04  0.00000000000E+00 0. -1.
         -1   -1    0    0    0  501 -0.00000000000E+00 -0.00000000000E+00 -0.67903443341E+03  0.67903443341E+03  0.00000000000E+00 0.  1.
         23    2    1    2    0    0  0.36378048780E+03 -0.70654159606E+02 -0.36577984471E+03  0.52869722908E+03  0.91638483540E+02 0.  0.
        254    2    1    2    0    0 -0.36378048780E+03  0.70654159606E+02  0.77972065101E+03  0.12433124440E+04  0.89472525745E+03 0.  0.
        -24    2    4    4    0    0 -0.43179922227E+03 -0.26840032162E+03  0.71731771444E+03  0.88285237102E+03  0.79964395624E+02 0.  0.
         24    2    4    4    0    0  0.68018734465E+02  0.33905448123E+03  0.62402936569E+02  0.36046007302E+03  0.80329622640E+02 0.  0.
         13    1    3    3    0    0  0.26452193571E+02  0.17090331908E+01 -0.67901619202E+02  0.72892175365E+02  0.00000000000E+00 0. -1.
        -13    1    3    3    0    0  0.33732829423E+03 -0.72363192797E+02 -0.29787822551E+03  0.45580505371E+03  0.00000000000E+00 0.  1.
          2    1    6    6  502    0  0.20521208889E+02  0.26486219635E+03  0.33574291950E+02  0.26776918446E+03  0.00000000000E+00 0. -1.
          1    1    5    5  503    0 -0.31020559151E+03 -0.21484354160E+03  0.57859293491E+03  0.69076409916E+03  0.00000000000E+00 0. -1.
         -2    1    5    5    0  503 -0.12159363076E+03 -0.53556780024E+02  0.13872477953E+03  0.19208827185E+03  0.00000000000E+00 0.  1.
         -1    1    6    6    0  502  0.47497525576E+02  0.74192284879E+02  0.28828644619E+02  0.92690888560E+02  0.00000000000E+00 0.  1.
<mgrwt>
<rscale>  0 0.17229833E+04</rscale>
<asrwt>0</asrwt>
<pdfrwt beam="1">  1        1 0.16815004E+00 0.17229833E+04</pdfrwt>
<pdfrwt beam="2">  1       -1 0.10446684E+00 0.17229833E+04</pdfrwt>
<totfact> 0.10503688E+01</totfact>
</mgrwt>
</event>
<event>
12    1  0.1519630E-007  0.1024181E+04  0.7818608E-02  0.9282414E-01
         -2   -1    0    0    0  501 -0.00000000000E+00  0.00000000000E+00  0.66925561926E+03  0.66925561926E+03  0.00000000000E+00 0. -1.
          2   -1    0    0  501    0  0.00000000000E+00 -0.00000000000E+00 -0.39183352749E+03  0.39183352749E+03  0.00000000000E+00 0.  1.
         23    2    1    2    0    0 -0.11415951375E+02 -0.62651049818E+01 -0.44058652281E+02  0.10153221552E+03  0.90543086215E+02 0.  0.
        254    2    1    2    0    0  0.11415951375E+02  0.62651049818E+01  0.32148074405E+03  0.95955693122E+03  0.90400777650E+03 0.  0.
        -24    2    4    4    0    0  0.88688191964E+02 -0.41871718797E+03  0.37879192759E+02  0.43692787061E+03  0.79255611621E+02 0.  0.
         24    2    4    4    0    0 -0.77272240589E+02  0.42498229295E+03  0.28360155129E+03  0.52262906062E+03  0.78296530050E+02 0.  0.
         11    1    3    3    0    0  0.10153642671E+02  0.39111797349E+02 -0.12923393294E+02  0.42424559463E+02  0.00000000000E+00 0. -1.
        -11    1    3    3    0    0 -0.21569594045E+02 -0.45376902331E+02 -0.31135258987E+02  0.59107656057E+02  0.00000000000E+00 0.  1.
          4    1    6    6  502    0 -0.79995791029E+02  0.26314375619E+03  0.15355771776E+03  0.31499831061E+03  0.00000000000E+00 0. -1.
          3    1    5    5  503    0  0.10148298249E+03 -0.33732259137E+03  0.21436474030E+02  0.35290912259E+03  0.00000000000E+00 0. -1.
         -4    1    5    5    0  503 -0.12794790525E+02 -0.81394596595E+02  0.16442718729E+02  0.84018748019E+02  0.00000000000E+00 0.  1.
         -3    1    6    6    0  502  0.27235504392E+01  0.16183853676E+03  0.13004383353E+03  0.20763075000E+03  0.00000000000E+00 0.  1.
<mgrwt>
<rscale>  0 0.10241812E+04</rscale>
<asrwt>0</asrwt>
<pdfrwt beam="1">  1        2 0.60282081E-01 0.10241812E+04</pdfrwt>
<pdfrwt beam="2">  1       -2 0.10296240E+00 0.10241812E+04</pdfrwt>
<totfact> 0.62538920E+01</totfact>
</mgrwt>
</event>
<event>
12    1  0.1519630E-007  0.1171680E+04  0.7818608E-02  0.9138012E-01
          1   -1    0    0  501    0  0.00000000000E+00  0.00000000000E+00  0.62843880137E+03  0.62843880137E+03  0.00000000000E+00 0.  1.
         -1   -1    0    0    0  501 -0.00000000000E+00 -0.00000000000E+00 -0.54612897108E+03  0.54612897108E+03  0.00000000000E+00 0. -1.
         23    2    1    2    0    0  0.14863512171E+03 -0.30835433009E+02  0.18535398068E+03  0.25397968927E+03  0.84299235315E+02 0.  0.
        254    2    1    2    0    0 -0.14863512171E+03  0.30835433009E+02 -0.10304415039E+03  0.92058808318E+03  0.90212033490E+03 0.  0.
        -24    2    4    4    0    0 -0.38160605095E+03  0.28954464631E+03 -0.23547683423E+03  0.53975273756E+03  0.80152341929E+02 0.  0.
         24    2    4    4    0    0  0.23297092924E+03 -0.25870921330E+03  0.13243268384E+03  0.38083534562E+03  0.79317298283E+02 0.  0.
         11    1    3    3    0    0  0.89465474834E+02  0.16501999573E+02  0.65194722402E+02  0.11192291547E+03  0.00000000000E+00 0. -1.
        -11    1    3    3    0    0  0.59169646878E+02 -0.47337432582E+02  0.12015925828E+03  0.14205677381E+03  0.00000000000E+00 0.  1.
          2    1    6    6  502    0  0.15784695045E+03 -0.12838236146E+03  0.50909133863E+02  0.20973657385E+03  0.00000000000E+00 0. -1.
          1    1    5    5  503    0 -0.44482087960E+02  0.21452823487E+02 -0.51583757965E+02  0.71412631029E+02  0.00000000000E+00 0. -1.
         -2    1    5    5    0  503 -0.33712396299E+03  0.26809182283E+03 -0.18389307626E+03  0.46834010653E+03  0.00000000000E+00 0.  1.
         -1    1    6    6    0  502  0.75123978789E+02 -0.13032685184E+03  0.81523549972E+02  0.17109877177E+03  0.00000000000E+00 0.  1.
<mgrwt>
<rscale>  0 0.11716802E+04</rscale>
<asrwt>0</asrwt>
<pdfrwt beam="1">  1        1 0.96682892E-01 0.11716802E+04</pdfrwt>
<pdfrwt beam="2">  1       -1 0.84019842E-01 0.11716802E+04</pdfrwt>
<totfact> 0.44594092E+01</totfact>
</mgrwt>
</event>
<event>
12    1  0.1519630E-007  0.1880045E+04  0.7818608E-02  0.8664853E-01
          3   -1    0    0  501    0  0.00000000000E+00  0.00000000000E+00  0.59524755347E+03  0.59524755347E+03  0.00000000000E+00 0. -1.
         -3   -1    0    0    0  501 -0.00000000000E+00 -0.00000000000E+00 -0.14844962343E+04  0.14844962343E+04  0.00000000000E+00 0.  1.
         23    2    1    2    0    0 -0.51165800208E+03  0.21534062880E+01 -0.86505785277E+03  0.10091869546E+04  0.91294427039E+02 0.  0.
        254    2    1    2    0    0  0.51165800208E+03 -0.21534062880E+01 -0.24190828076E+02  0.10705568332E+04  0.94005754542E+03 0.  0.
        -24    2    4    4    0    0  0.47216567936E+03  0.38641258150E+03  0.15513680535E+03  0.63440635206E+03  0.78414789785E+02 0.  0.
         24    2    4    4    0    0  0.39492322719E+02 -0.38856598779E+03 -0.17932763342E+03  0.43615048114E+03  0.74334861759E+02 0.  0.
         11    1    3    3    0    0 -0.40244038913E+03  0.34351482919E+02 -0.70944723610E+03  0.81636613844E+03  0.00000000000E+00 0.  1.
        -11    1    3    3    0    0 -0.10921761295E+03 -0.32198076631E+02 -0.15561061667E+03  0.19282081614E+03  0.00000000000E+00 0. -1.
          4    1    6    6  502    0  0.43919144882E+02 -0.15038734376E+03 -0.96181872113E+02  0.18383741995E+03  0.00000000000E+00 0. -1.
          1    1    5    5  503    0  0.45774078903E+03  0.36395363261E+03  0.16204610845E+03  0.60683425900E+03  0.00000000000E+00 0. -1.
         -2    1    5    5    0  503  0.14424890324E+02  0.22458948891E+02 -0.69093031080E+01  0.27572093058E+02  0.00000000000E+00 0.  1.
         -3    1    6    6    0  502 -0.44268221623E+01 -0.23817864402E+03 -0.83145761309E+02  0.25231306119E+03  0.00000000000E+00 0.  1.
<mgrwt>
<rscale>  0 0.18800455E+04</rscale>
<asrwt>0</asrwt>
<pdfrwt beam="1">  1        3 0.91576548E-01 0.18800455E+04</pdfrwt>
<pdfrwt beam="2">  1       -3 0.22838403E+00 0.18800455E+04</pdfrwt>
<totfact> 0.25781859E-01</totfact>
</mgrwt>
</event>
<event>
12    1  0.1519630E-007  0.1448393E+04  0.7818608E-02  0.8919515E-01
         -2   -1    0    0    0  501 -0.00000000000E+00  0.00000000000E+00  0.19169503702E+04  0.19169503702E+04  0.00000000000E+00 0.  1.
          2   -1    0    0  501    0  0.00000000000E+00 -0.00000000000E+00 -0.27359111573E+03  0.27359111573E+03  0.00000000000E+00 0. -1.
         23    2    1    2    0    0 -0.15351376157E+03 -0.23287594839E+03 -0.26451943169E+01  0.29626869875E+03  0.99852203157E+02 0.  0.
        254    2    1    2    0    0  0.15351376157E+03  0.23287594839E+03  0.16460044488E+04  0.18942727872E+04  0.89506483815E+03 0.  0.
        -24    2    4    4    0    0 -0.27036608944E+03  0.17063584883E+03  0.20554325728E+03  0.38904906742E+03  0.83046559375E+02 0.  0.
         24    2    4    4    0    0  0.42387985101E+03  0.62240099565E+02  0.14404611915E+04  0.15052237197E+04  0.84982611188E+02 0.  0.
         11    1    3    3    0    0 -0.92277544854E+02 -0.21254936692E+03 -0.68131200336E+00  0.23171716131E+03  0.00000000000E+00 0. -1.
        -11    1    3    3    0    0 -0.61236216712E+02 -0.20326581478E+02 -0.19638823135E+01  0.64551537437E+02  0.00000000000E+00 0.  1.
          2    1    6    6  502    0  0.11944190510E+03  0.41636909089E+02  0.32400026142E+03  0.34781628813E+03  0.00000000000E+00 0. -1.
          1    1    5    5  503    0 -0.31659159595E+02  0.49609801372E+01  0.50219570661E+02  0.59572804093E+02  0.00000000000E+00 0. -1.
         -2    1    5    5    0  503 -0.23870692985E+03  0.16567486869E+03  0.15532368662E+03  0.32947626333E+03  0.00000000000E+00 0.  1.
         -1    1    6    6    0  502  0.30443794591E+03  0.20603190476E+02  0.11164609301E+04  0.11574074316E+04  0.00000000000E+00 0.  1.
<mgrwt>
<rscale>  0 0.14483930E+04</rscale>
<asrwt>0</asrwt>
<pdfrwt beam="1">  1        2 0.42090942E-01 0.14483930E+04</pdfrwt>
<pdfrwt beam="2">  1       -2 0.29491543E+00 0.14483930E+04</pdfrwt>
<totfact> 0.40453925E+00</totfact>
</mgrwt>
</event>
<event>
12    1  0.2658611E-007  0.1944699E+04  0.7818608E-02  0.8632921E-01
          1   -1    0    0  501    0  0.00000000000E+00  0.00000000000E+00  0.24979895667E+04  0.24979895667E+04  0.00000000000E+00 0. -1.
         -1   -1    0    0    0  501 -0.00000000000E+00 -0.00000000000E+00 -0.37848968191E+03  0.37848968191E+03  0.00000000000E+00 0.  1.
         23    2    1    2    0    0 -0.12457841336E+03  0.30977364272E+03 -0.13609133296E+03  0.37177151138E+03  0.90629547965E+02 0.  0.
        254    2    1    2    0    0  0.12457841336E+03 -0.30977364272E+03  0.22555912178E+04  0.25047077372E+04  0.10365276728E+04 0.  0.
        -24    2    4    4    0    0  0.38075611268E+03  0.17392821770E+03  0.15514392121E+04  0.16092873401E+04  0.87268962921E+02 0.  0.
         24    2    4    4    0    0 -0.25617769932E+03 -0.48370186043E+03  0.70415200569E+03  0.89542039717E+03  0.79706568978E+02 0.  0.
         13    1    3    3    0    0 -0.27363711770E+02  0.66491166017E+02 -0.72645875555E+02  0.10221189322E+03  0.00000000000E+00 0. -1.
        -13    1    3    3    0    0 -0.97214701589E+02  0.24328247671E+03 -0.63445457410E+02  0.26955961816E+03  0.00000000000E+00 0.  1.
          2    1    6    6  502    0 -0.22879712758E+03 -0.45839713352E+03  0.62670069814E+03  0.80946267527E+03  0.00000000000E+00 0. -1.
          3    1    5    5  503    0  0.38341290736E+03  0.16958048739E+03  0.15459926174E+04  0.16018290085E+04  0.00000000000E+00 0. -1.
         -4    1    5    5    0  503 -0.26567946847E+01  0.43477303179E+01  0.54465946222E+01  0.74583315757E+01  0.00000000000E+00 0.  1.
         -1    1    6    6    0  502 -0.27380571741E+02 -0.25304726911E+02  0.77451307552E+02  0.85957721901E+02  0.00000000000E+00 0.  1.
<mgrwt>
<rscale>  0 0.19446987E+04</rscale>
<asrwt>0</asrwt>
<pdfrwt beam="1">  1        1 0.38430608E+00 0.19446987E+04</pdfrwt>
<pdfrwt beam="2">  1       -1 0.58229183E-01 0.19446987E+04</pdfrwt>
<totfact> 0.37878104E+00</totfact>
</mgrwt>
</event>
<event>
12    1  0.1519630E-007  0.1584460E+04  0.7818608E-02  0.8830152E-01
         -3   -1    0    0    0  501 -0.00000000000E+00  0.00000000000E+00  0.42685372148E+03  0.42685372148E+03  0.00000000000E+00 0.  1.
          3   -1    0    0  501    0  0.00000000000E+00 -0.00000000000E+00 -0.14703586644E+04  0.14703586644E+04  0.00000000000E+00 0. -1.
         23    2    1    2    0    0 -0.47253465599E+03  0.13646104113E+03 -0.61535210536E+03  0.79312110097E+03  0.92044828098E+02 0.  0.
        254    2    1    2    0    0  0.47253465599E+03 -0.13646104113E+03 -0.42815283753E+03  0.11040912849E+04  0.89095010872E+03 0.  0.
        -24    2    4    4    0    0 -0.22907966026E+03  0.10021712770E+03 -0.42248109576E+02  0.26534975522E+03  0.78132108672E+02 0.  0.
         24    2    4    4    0    0  0.70161431625E+03 -0.23667816882E+03 -0.38590472795E+03  0.83874152966E+03  0.79282344612E+02 0.  0.
         11    1    3    3    0    0 -0.18306949259E+03  0.35174073783E+02 -0.16933969580E+03  0.25184834158E+03  0.00000000000E+00 0.  1.
        -11    1    3    3    0    0 -0.28946516339E+03  0.10128696734E+03 -0.44601240956E+03  0.54127275939E+03  0.00000000000E+00 0. -1.
          4    1    6    6  502    0  0.60022716745E+03 -0.22731285517E+03 -0.34795981917E+03  0.73008206554E+03  0.00000000000E+00 0. -1.
          3    1    5    5  503    0 -0.14341173251E+03  0.87533027805E+02  0.21538708859E+01  0.16802855453E+03  0.00000000000E+00 0. -1.
         -4    1    5    5    0  503 -0.85667927756E+02  0.12684099892E+02 -0.44401980462E+02  0.97321200696E+02  0.00000000000E+00 0.  1.
         -1    1    6    6    0  502  0.10138714879E+03 -0.93653136574E+01 -0.37944908786E+02  0.10865946412E+03  0.00000000000E+00 0.  1.
<mgrwt>
<rscale>  0 0.15844596E+04</rscale>
<asrwt>0</asrwt>
<pdfrwt beam="1">  1        3 0.22620902E+00 0.15844596E+04</pdfrwt>
<pdfrwt beam="2">  1       -3 0.65669804E-01 0.15844596E+04</pdfrwt>
<totfact> 0.57373295E-01</totfact>
</mgrwt>
</event>
<event>
12    1  0.1519630E-007  0.2349342E+04  0.7818608E-02  0.8458716E-01
          1   -1    0    0  501    0  0.00000000000E+00  0.00000000000E+00  0.30671316862E+04  0.30671316862E+04  0.00000000000E+00 0. -1.
         -1   -1    0    0    0  501 -0.00000000000E+00 -0.00000000000E+00 -0.44988365778E+03  0.44988365778E+03  0.00000000000E+00 0.  1.
         23    2    1    2    0    0  0.94893508242E+03 -0.84606748084E+02  0.66387025979E+03  0.11655893677E+04  0.10118675731E+03 0.  0.
        254    2    1    2    0    0 -0.94893508242E+03  0.84606748084E+02  0.19533777686E+04  0.23514259763E+04  0.89771004356E+03 0.  0.
        -24    2    4    4    0    0 -0.70272156819E+03  0.30704584619E+03  0.18345799054E+04  0.19900034648E+04  0.79596523669E+02 0.  0.
         24    2    4    4    0    0 -0.24621351424E+03 -0.22243909810E+03  0.11879786320E+03  0.36142251142E+03  0.80081536575E+02 0.  0.
         11    1    3    3    0    0  0.70286885516E+03 -0.61906394581E+02  0.54393368783E+03  0.89091014474E+03  0.00000000000E+00 0.  1.
        -11    1    3    3    0    0  0.24606622727E+03 -0.22700353503E+02  0.11993657196E+03  0.27467922299E+03  0.00000000000E+00 0. -1.
          4    1    6    6  502    0 -0.43071190630E+02 -0.59754757249E+02 -0.37556063119E+01  0.73755427291E+02  0.00000000000E+00 0. -1.
          3    1    5    5  503    0 -0.26105430177E+03  0.84836032747E+02  0.58627353416E+03  0.64735087687E+03  0.00000000000E+00 0. -1.
         -4    1    5    5    0  503 -0.44166726641E+03  0.22220981344E+03  0.12483063713E+04  0.13426525880E+04  0.00000000000E+00 0.  1.
         -3    1    6    6    0  502 -0.20314232361E+03 -0.16268434085E+03  0.12255346952E+03  0.28766708413E+03  0.00000000000E+00 0.  1.
<mgrwt>
<rscale>  0 0.23493424E+04</rscale>
<asrwt>0</asrwt>
<pdfrwt beam="1">  1        1 0.47186640E+00 0.23493424E+04</pdfrwt>
<pdfrwt beam="2">  1       -1 0.69212872E-01 0.23493424E+04</pdfrwt>
<totfact> 0.10148610E+00</totfact>
</mgrwt>
</event>
<event>
12    1  0.1519630E-007  0.1260774E+04  0.7818608E-02  0.9061264E-01
         -2   -1    0    0    0  501 -0.00000000000E+00  0.00000000000E+00  0.58043419763E+03  0.58043419763E+03  0.00000000000E+00 0.  1.
          2   -1    0    0  501    0  0.00000000000E+00 -0.00000000000E+00 -0.68463848723E+03  0.68463848723E+03  0.00000000000E+00 0. -1.
         23    2    1    2    0    0 -0.10700060200E+03  0.26437360211E+03 -0.14696405588E+03  0.33325406776E+03  0.90096113312E+02 0.  0.
        254    2    1    2    0    0  0.10700060200E+03 -0.26437360211E+03  0.42759766282E+02  0.93181861709E+03  0.88606715729E+03 0.  0.
        -24    2    4    4    0    0  0.46045233026E+03 -0.20664595541E+03  0.17802694961E+03  0.54105976321E+03  0.79581236802E+02 0.  0.
         24    2    4    4    0    0 -0.35345172826E+03 -0.57727646707E+02 -0.13526718333E+03  0.39075885389E+03  0.78324106120E+02 0.  0.
         11    1    3    3    0    0 -0.54957443201E+02  0.17805593329E+03 -0.13836053489E+03  0.23209453582E+03  0.00000000000E+00 0.  1.
        -11    1    3    3    0    0 -0.52043158795E+02  0.86317668827E+02 -0.86035209950E+01  0.10115953194E+03  0.00000000000E+00 0. -1.
          2    1    6    6  502    0 -0.10411177472E+03 -0.50779581537E+02 -0.58544529026E+02  0.12978940410E+03  0.00000000000E+00 0. -1.
          3    1    5    5  503    0  0.15844429533E+03 -0.85363898982E+02  0.10190906346E+03  0.20682612791E+03  0.00000000000E+00 0. -1.
         -4    1    5    5    0  503  0.30200803492E+03 -0.12128205643E+03  0.76117886150E+02  0.33423363529E+03  0.00000000000E+00 0.  1.
         -1    1    6    6    0  502 -0.24933995354E+03 -0.69480651698E+01 -0.76722654306E+02  0.26096944979E+03  0.00000000000E+00 0.  1.
<mgrwt>
<rscale>  0 0.12607737E+04</rscale>
<asrwt>0</asrwt>
<pdfrwt beam="1">  1        2 0.10532900E+00 0.12607737E+04</pdfrwt>
<pdfrwt beam="2">  1       -2 0.89297569E-01 0.12607737E+04</pdfrwt>
<totfact> 0.44582908E+01</totfact>
</mgrwt>
</event>
<event>
12    1  0.1519630E-007  0.1228012E+04  0.7818608E-02  0.9088685E-01
          1   -1    0    0  501    0  0.00000000000E+00  0.00000000000E+00  0.15109554984E+04  0.15109554984E+04  0.00000000000E+00 0. -1.
         -1   -1    0    0    0  501 -0.00000000000E+00 -0.00000000000E+00 -0.24951303088E+03  0.24951303088E+03  0.00000000000E+00 0.  1.
         23    2    1    2    0    0  0.67657095959E+02 -0.15381763652E+02 -0.80936525407E+02  0.14251109202E+03  0.94575942584E+02 0.  0.
        254    2    1    2    0    0 -0.67657095959E+02  0.15381763652E+02  0.13423789929E+04  0.16179574372E+04  0.90055029112E+03 0.  0.
        -24    2    4    4    0    0 -0.12396000121E+03  0.95886960523E+02 -0.76385324165E+02  0.19354739127E+03  0.84056432364E+02 0.  0.
         24    2    4    4    0    0  0.56302905248E+02 -0.80505196871E+02  0.14187643170E+04  0.14244100459E+04  0.80004298722E+02 0.  0.
         13    1    3    3    0    0 -0.15834670458E+02 -0.13709057486E+02  0.61767149346E+01  0.21836365381E+02  0.00000000000E+00 0. -1.
        -13    1    3    3    0    0  0.83491766417E+02 -0.16727061660E+01 -0.87113240342E+02  0.12067472663E+03  0.00000000000E+00 0.  1.
          4    1    6    6  502    0  0.31360763772E+02 -0.89341738028E+02  0.12503032916E+04  0.12538834733E+04  0.00000000000E+00 0. -1.
          3    1    5    5  503    0 -0.95620130150E+02  0.10363129927E+03 -0.82740427995E+02  0.16348894123E+03  0.00000000000E+00 0. -1.
         -4    1    5    5    0  503 -0.28339871057E+02 -0.77443387504E+01  0.63551038295E+01  0.30058450042E+02  0.00000000000E+00 0.  1.
         -3    1    6    6    0  502  0.24942141476E+02  0.88365411568E+01  0.16846102544E+03  0.17052657263E+03  0.00000000000E+00 0.  1.
<mgrwt>
<rscale>  0 0.12280115E+04</rscale>
<asrwt>0</asrwt>
<pdfrwt beam="1">  1        1 0.23245469E+00 0.12280115E+04</pdfrwt>
<pdfrwt beam="2">  1       -1 0.38386621E-01 0.12280115E+04</pdfrwt>
<totfact> 0.41686322E+01</totfact>
</mgrwt>
</event>
<event>
12    1  0.1519630E-007  0.2986295E+04  0.7818608E-02  0.8247655E-01
         -1   -1    0    0    0  501 -0.00000000000E+00  0.00000000000E+00  0.89320672339E+03  0.89320672339E+03  0.00000000000E+00 0.  1.
          1   -1    0    0  501    0  0.00000000000E+00 -0.00000000000E+00 -0.24960505843E+04  0.24960505843E+04  0.00000000000E+00 0. -1.
         23    2    1    2    0    0  0.57060861103E+03  0.52203303803E+03 -0.19894876046E+04  0.21364228938E+04  0.90161923974E+02 0.  0.
        254    2    1    2    0    0 -0.57060861103E+03 -0.52203303803E+03  0.38664374370E+03  0.12528344139E+04  0.90663554105E+03 0.  0.
        -24    2    4    4    0    0 -0.94701054279E+02  0.80230017191E+02 -0.22398190135E+03  0.26839818325E+03  0.80402408560E+02 0.  0.
         24    2    4    4    0    0 -0.47590755675E+03 -0.60226305522E+03  0.61062564504E+03  0.98443623063E+03  0.83917957154E+02 0.  0.
         11    1    3    3    0    0  0.61733163221E+02  0.85773409419E+02 -0.21518272165E+03  0.23973248612E+03  0.00000000000E+00 0.  1.
        -11    1    3    3    0    0  0.50887544781E+03  0.43625962861E+03 -0.17743048829E+04  0.18966904076E+04  0.00000000000E+00 0. -1.
          4    1    6    6  502    0 -0.80293374493E+02 -0.15642592694E+03  0.15050498135E+03  0.23144728561E+03  0.00000000000E+00 0. -1.
          3    1    5    5  503    0 -0.48252373579E+02  0.44498970629E+02 -0.43761214105E+02  0.78889123477E+02  0.00000000000E+00 0. -1.
         -4    1    5    5    0  503 -0.46448680701E+02  0.35731046563E+02 -0.18022068724E+03  0.18950905978E+03  0.00000000000E+00 0.  1.
         -3    1    6    6    0  502 -0.39561418226E+03 -0.44583712828E+03  0.46012066369E+03  0.75298894501E+03  0.00000000000E+00 0.  1.
<mgrwt>
<rscale>  0 0.29862948E+04</rscale>
<asrwt>0</asrwt>
<pdfrwt beam="1">  1        1 0.38400778E+00 0.29862948E+04</pdfrwt>
<pdfrwt beam="2">  1       -1 0.13741642E+00 0.29862948E+04</pdfrwt>
<totfact> 0.51094998E-01</totfact>
</mgrwt>
</event>
<event>
12    1  0.1519630E-007  0.1493483E+04  0.7818608E-02  0.8888799E-01
         -2   -1    0    0    0  501 -0.00000000000E+00  0.00000000000E+00  0.29958903606E+03  0.29958903606E+03  0.00000000000E+00 0.  1.
          2   -1    0    0  501    0  0.00000000000E+00 -0.00000000000E+00 -0.18612914752E+04  0.18612914752E+04  0.00000000000E+00 0. -1.
         23    2    1    2    0    0  0.25015942949E+03  0.26748091172E+03 -0.90321364485E+03  0.97878439822E+03  0.89990175349E+02 0.  0.
        254    2    1    2    0    0 -0.25015942949E+03 -0.26748091172E+03 -0.65848879429E+03  0.11820961130E+04  0.91083365659E+03 0.  0.
        -24    2    4    4    0    0  0.57746943732E+02 -0.48199755640E+03 -0.62785978206E+03  0.79791035558E+03  0.82441953667E+02 0.  0.
         24    2    4    4    0    0 -0.30790637322E+03  0.21451664468E+03 -0.30629012233E+02  0.38418575747E+03  0.76399177576E+02 0.  0.
         13    1    3    3    0    0  0.22499832159E+02  0.13329215869E+01 -0.27027310670E+02  0.35192252687E+02  0.00000000000E+00 0.  1.
        -13    1    3    3    0    0  0.22765959733E+03  0.26614799013E+03 -0.87618633418E+03  0.94359214553E+03  0.00000000000E+00 0. -1.
          4    1    6    6  502    0 -0.22099651260E+03  0.11014390553E+03 -0.13527263895E+02  0.24729360157E+03  0.00000000000E+00 0. -1.
          1    1    5    5  503    0  0.76897427593E+02 -0.31364747997E+03 -0.41544992670E+03  0.52620014980E+03  0.00000000000E+00 0. -1.
         -2    1    5    5    0  503 -0.19150483860E+02 -0.16835007644E+03 -0.21240985536E+03  0.27171020577E+03  0.00000000000E+00 0.  1.
         -3    1    6    6    0  502 -0.86909860623E+02  0.10437273915E+03 -0.17101748338E+02  0.13689215590E+03  0.00000000000E+00 0.  1.
<mgrwt>
<rscale>  0 0.14934825E+04</rscale>
<asrwt>0</asrwt>
<pdfrwt beam="1">  1        2 0.28635253E+00 0.14934825E+04</pdfrwt>
<pdfrwt beam="2">  1       -2 0.46090622E-01 0.14934825E+04</pdfrwt>
<totfact> 0.34426983E+01</totfact>
</mgrwt>
</event>
<event>
12    1  0.1519630E-007  0.1691206E+04  0.7818608E-02  0.8766396E-01
         -2   -1    0    0    0  501 -0.00000000000E+00  0.00000000000E+00  0.12973608296E+04  0.12973608296E+04  0.00000000000E+00 0.  1.
          2   -1    0    0  501    0  0.00000000000E+00 -0.00000000000E+00 -0.55115277846E+03  0.55115277846E+03  0.00000000000E+00 0. -1.
         23    2    1    2    0    0 -0.45362197820E+03 -0.10791503189E+03 -0.14517824078E+03  0.49740188128E+03  0.94410575135E+02 0.  0.
        254    2    1    2    0    0  0.45362197820E+03  0.10791503189E+03  0.89138629195E+03  0.13511117268E+04  0.90195056606E+03 0.  0.
        -24    2    4    4    0    0  0.45593875243E+03 -0.71233277877E+02  0.10180933188E+04  0.11205800146E+04  0.78938187313E+02 0.  0.
         24    2    4    4    0    0 -0.23167742337E+01  0.17914830976E+03 -0.12670702690E+03  0.23053171219E+03  0.70644995054E+02 0.  0.
         13    1    3    3    0    0 -0.34277376270E+03 -0.42190875469E+02 -0.87857725108E+02  0.35636063507E+03  0.00000000000E+00 0. -1.
        -13    1    3    3    0    0 -0.11084821550E+03 -0.65724156418E+02 -0.57320515668E+02  0.14104124621E+03  0.00000000000E+00 0.  1.
          4    1    6    6  502    0 -0.21109575922E+02  0.13430376977E+03 -0.61561406211E+02  0.14924115888E+03  0.00000000000E+00 0. -1.
          3    1    5    5  503    0  0.39490070803E+03 -0.78610357000E+02  0.92710343919E+03  0.10107655239E+04  0.00000000000E+00 0. -1.
         -4    1    5    5    0  503  0.61038044403E+02  0.73770791238E+01  0.90989879656E+02  0.10981449067E+03  0.00000000000E+00 0.  1.
         -3    1    6    6    0  502  0.18792801689E+02  0.44844539998E+02 -0.65145620688E+02  0.81290553312E+02  0.00000000000E+00 0.  1.
<mgrwt>
<rscale>  0 0.16912055E+04</rscale>
<asrwt>0</asrwt>
<pdfrwt beam="1">  1        2 0.84792736E-01 0.16912055E+04</pdfrwt>
<pdfrwt beam="2">  1       -2 0.19959397E+00 0.16912055E+04</pdfrwt>
<totfact> 0.69910163E+00</totfact>
</mgrwt>
</event>
<event>
12    1  0.1519630E-007  0.1188387E+04  0.7818608E-02  0.9123083E-01
         -2   -1    0    0    0  501 -0.00000000000E+00  0.00000000000E+00  0.20445056705E+04  0.20445056705E+04  0.00000000000E+00 0.  1.
          2   -1    0    0  501    0  0.00000000000E+00 -0.00000000000E+00 -0.17269003060E+03  0.17269003060E+03  0.00000000000E+00 0. -1.
         23    2    1    2    0    0  0.33809735453E+02 -0.15102691999E+03  0.44861494776E+03  0.48337553992E+03  0.91892940286E+02 0.  0.
        254    2    1    2    0    0 -0.33809735453E+02  0.15102691999E+03  0.14232006922E+04  0.17338201612E+04  0.97810015460E+03 0.  0.
        -24    2    4    4    0    0 -0.89734443553E+01  0.53775413408E+02  0.15500463532E+04  0.15531209214E+04  0.81046787367E+02 0.  0.
         24    2    4    4    0    0 -0.24836291098E+02  0.97251506578E+02 -0.12684566103E+03  0.18069923976E+03  0.80546239155E+02 0.  0.
         11    1    3    3    0    0  0.22961731485E+01 -0.80681487530E+02  0.11203464850E+03  0.13808163276E+03  0.00000000000E+00 0. -1.
        -11    1    3    3    0    0  0.31513562305E+02 -0.70345432456E+02  0.33658029926E+03  0.34529390717E+03  0.00000000000E+00 0.  1.
          4    1    6    6  502    0 -0.58817621669E+01  0.76925061016E+02 -0.13155695134E+03  0.15250997208E+03  0.00000000000E+00 0. -1.
          1    1    5    5  503    0  0.51689727313E+01  0.26408299606E+02  0.13827628728E+04  0.13830246849E+04  0.00000000000E+00 0. -1.
         -2    1    5    5    0  503 -0.14142417087E+02  0.27367113802E+02  0.16728348039E+03  0.17009623655E+03  0.00000000000E+00 0.  1.
         -3    1    6    6    0  502 -0.18954528931E+02  0.20326445562E+02  0.47112903084E+01  0.28189267684E+02  0.00000000000E+00 0.  1.
<mgrwt>
<rscale>  0 0.11883867E+04</rscale>
<asrwt>0</asrwt>
<pdfrwt beam="1">  1        2 0.26567699E-01 0.11883867E+04</pdfrwt>
<pdfrwt beam="2">  1       -2 0.31453932E+00 0.11883867E+04</pdfrwt>
<totfact> 0.52821195E+00</totfact>
</mgrwt>
</event>
<event>
12    1  0.1519630E-007  0.1583110E+04  0.7818608E-02  0.8830992E-01
         -1   -1    0    0    0  501 -0.00000000000E+00  0.00000000000E+00  0.30652064482E+03  0.30652064482E+03  0.00000000000E+00 0.  1.
          1   -1    0    0  501    0  0.00000000000E+00 -0.00000000000E+00 -0.20441007918E+04  0.20441007918E+04  0.00000000000E+00 0. -1.
         23    2    1    2    0    0  0.22175428218E+03 -0.43628910032E+03 -0.29251500914E+03  0.57735055136E+03  0.90804668732E+02 0.  0.
        254    2    1    2    0    0 -0.22175428218E+03  0.43628910032E+03 -0.14450651378E+04  0.17732708852E+04  0.90374401196E+03 0.  0.
        -24    2    4    4    0    0  0.20336673637E+03 -0.15749354966E+01 -0.18879464504E+02  0.21994735022E+03  0.81608166272E+02 0.  0.
         24    2    4    4    0    0 -0.42512101855E+03  0.43786403582E+03 -0.14261856733E+04  0.15533235350E+04  0.79722239046E+02 0.  0.
         13    1    3    3    0    0  0.14989829093E+03 -0.27848090343E+03 -0.23725021366E+03  0.39535904578E+03  0.00000000000E+00 0. -1.
        -13    1    3    3    0    0  0.71855991251E+02 -0.15780819689E+03 -0.55264795476E+02  0.18199150558E+03  0.00000000000E+00 0.  1.
          4    1    6    6  502    0 -0.62691224564E+01  0.21541845082E+02 -0.84293811429E+02  0.87228433616E+02  0.00000000000E+00 0. -1.
          1    1    5    5  503    0  0.10028675441E+03 -0.19345712961E+02 -0.45805482585E+02  0.11193673193E+03  0.00000000000E+00 0. -1.
         -2    1    5    5    0  503  0.10307998196E+03  0.17770777464E+02  0.26926018081E+02  0.10801061828E+03  0.00000000000E+00 0.  1.
         -3    1    6    6    0  502 -0.41885189610E+03  0.41632219074E+03 -0.13418918619E+04  0.14660951014E+04  0.00000000000E+00 0.  1.
<mgrwt>
<rscale>  0 0.15831097E+04</rscale>
<asrwt>0</asrwt>
<pdfrwt beam="1">  1        1 0.31447705E+00 0.15831097E+04</pdfrwt>
<pdfrwt beam="2">  1       -1 0.47157021E-01 0.15831097E+04</pdfrwt>
<totfact> 0.11993535E+01</totfact>
</mgrwt>
</event>
<event>
12    1  0.1519630E-007  0.1799859E+04  0.7818608E-02  0.8706375E-01
          2   -1    0    0  501    0  0.00000000000E+00  0.00000000000E+00  0.57177148222E+03  0.57177148222E+03  0.00000000000E+00 0. -1.
         -2   -1    0    0    0  501 -0.00000000000E+00 -0.00000000000E+00 -0.14164274250E+04  0.14164274250E+04  0.00000000000E+00 0.  1.
         23    2    1    2    0    0 -0.31593834548E+03 -0.32686571177E+03 -0.87286024749E+03  0.98836187030E+03  0.91191794246E+02 0.  0.
        254    2    1    2    0    0  0.31593834548E+03  0.32686571177E+03  0.28204304679E+02  0.99983703694E+03  0.89006763000E+03 0.  0.
        -24    2    4    4    0    0  0.51352837157E+03  0.91178250209E+02  0.27713893064E+03  0.59604244502E+03  0.80223111848E+02 0.  0.
         24    2    4    4    0    0 -0.19759002609E+03  0.23568746156E+03 -0.24893462596E+03  0.40379459192E+03  0.80568148255E+02 0.  0.
         13    1    3    3    0    0 -0.74426241527E+02 -0.96300684581E+02 -0.15866574425E+03  0.19996976191E+03  0.00000000000E+00 0. -1.
        -13    1    3    3    0    0 -0.24151210395E+03 -0.23056502719E+03 -0.71419450323E+03  0.78839210839E+03  0.00000000000E+00 0.  1.
          4    1    6    6  502    0 -0.53802179642E+02  0.12566654123E+03 -0.10033866382E+03  0.16957181835E+03  0.00000000000E+00 0. -1.
          3    1    5    5  503    0  0.24766126299E+03  0.48672841785E+01  0.14261811935E+03  0.28583162807E+03  0.00000000000E+00 0. -1.
         -4    1    5    5    0  503  0.26586710859E+03  0.86310966030E+02  0.13452081129E+03  0.31021081696E+03  0.00000000000E+00 0.  1.
         -3    1    6    6    0  502 -0.14378784645E+03  0.11002092033E+03 -0.14859596213E+03  0.23422277357E+03  0.00000000000E+00 0.  1.
<mgrwt>
<rscale>  0 0.17998587E+04</rscale>
<asrwt>0</asrwt>
<pdfrwt beam="1">  1        2 0.87964843E-01 0.17998587E+04</pdfrwt>
<pdfrwt beam="2">  1       -2 0.21791191E+00 0.17998587E+04</pdfrwt>
<totfact> 0.50529059E+00</totfact>
</mgrwt>
</event>
<event>
12    1  0.1519630E-007  0.1406486E+04  0.7818608E-02  0.8949137E-01
         -1   -1    0    0    0  501 -0.00000000000E+00  0.00000000000E+00  0.11581872536E+04  0.11581872536E+04  0.00000000000E+00 0.  1.
          1   -1    0    0  501    0  0.00000000000E+00 -0.00000000000E+00 -0.42700401758E+03  0.42700401758E+03  0.00000000000E+00 0. -1.
         23    2    1    2    0    0 -0.37704919300E+03  0.16548267610E+03  0.14400191572E+03  0.44547735312E+03  0.90348826108E+02 0.  0.
        254    2    1    2    0    0  0.37704919300E+03 -0.16548267610E+03  0.58718132025E+03  0.11397139180E+04  0.88578513310E+03 0.  0.
        -24    2    4    4    0    0  0.12386973536E+03  0.35235688726E+03  0.14472646703E+03  0.40852902452E+03  0.80318903616E+02 0.  0.
         24    2    4    4    0    0  0.25317945764E+03 -0.51783956336E+03  0.44245485323E+03  0.73118489350E+03  0.81285916248E+02 0.  0.
         13    1    3    3    0    0 -0.19137231644E+03  0.11166796883E+03  0.37364171508E+02  0.22469797524E+03  0.00000000000E+00 0.  1.
        -13    1    3    3    0    0 -0.18567687656E+03  0.53814707267E+02  0.10663774421E+03  0.22077937788E+03  0.00000000000E+00 0. -1.
          2    1    6    6  502    0  0.14401566764E+03 -0.20869517851E+03  0.21088331511E+03  0.32979685058E+03  0.00000000000E+00 0. -1.
          3    1    5    5  503    0  0.42190456767E+02  0.22932961158E+03  0.72851662178E+02  0.24429381914E+03  0.00000000000E+00 0. -1.
         -4    1    5    5    0  503  0.81679278591E+02  0.12302727568E+03  0.71874804849E+02  0.16423520538E+03  0.00000000000E+00 0.  1.
         -1    1    6    6    0  502  0.10916379000E+03 -0.30914438485E+03  0.23157153812E+03  0.40138804292E+03  0.00000000000E+00 0.  1.
<mgrwt>
<rscale>  0 0.14064858E+04</rscale>
<asrwt>0</asrwt>
<pdfrwt beam="1">  1        1 0.65692926E-01 0.14064858E+04</pdfrwt>
<pdfrwt beam="2">  1       -1 0.17818265E+00 0.14064858E+04</pdfrwt>
<totfact> 0.11487980E+01</totfact>
</mgrwt>
</event>
<event>
12    1  0.1519630E-007  0.3335738E+04  0.7818608E-02  0.8153861E-01
          1   -1    0    0  501    0  0.00000000000E+00  0.00000000000E+00  0.24107010326E+04  0.24107010326E+04  0.00000000000E+00 0. -1.
         -1   -1    0    0    0  501 -0.00000000000E+00 -0.00000000000E+00 -0.11539325931E+04  0.11539325931E+04  0.00000000000E+00 0.  1.
         23    2    1    2    0    0  0.58854095131E+02  0.15380660302E+04  0.42418868702E+03  0.15991660224E+04  0.91022014993E+02 0.  0.
        254    2    1    2    0    0 -0.58854095131E+02 -0.15380660302E+04  0.83257975250E+03  0.19654676032E+04  0.89485358426E+03 0.  0.
        -24    2    4    4    0    0 -0.15492116250E+03 -0.11641545130E+04  0.16221203993E+03  0.11882028294E+04  0.79100701793E+02 0.  0.
         24    2    4    4    0    0  0.96067067364E+02 -0.37391151717E+03  0.67036771257E+03  0.77726477385E+03  0.75557623771E+02 0.  0.
         13    1    3    3    0    0 -0.36629821690E+01  0.88677445259E+03  0.26973102653E+03  0.92689652814E+03  0.00000000000E+00 0.  1.
        -13    1    3    3    0    0  0.62517077300E+02  0.65129157762E+03  0.15445766049E+03  0.67226949426E+03  0.00000000000E+00 0. -1.
          4    1    6    6  502    0  0.15835907734E+02 -0.21070823465E+03  0.37319585368E+03  0.42886347633E+03  0.00000000000E+00 0. -1.
          1    1    5    5  503    0 -0.15538128381E+02 -0.31702433257E+03  0.20510105832E+02  0.31806685668E+03  0.00000000000E+00 0. -1.
         -2    1    5    5    0  503 -0.13938303411E+03 -0.84713018047E+03  0.14170193410E+03  0.87013597270E+03  0.00000000000E+00 0.  1.
         -3    1    6    6    0  502  0.80231159630E+02 -0.16320328253E+03  0.29717185889E+03  0.34840129753E+03  0.00000000000E+00 0.  1.
<mgrwt>
<rscale>  0 0.33357377E+04</rscale>
<asrwt>0</asrwt>
<pdfrwt beam="1">  1        1 0.37087708E+00 0.33357377E+04</pdfrwt>
<pdfrwt beam="2">  1       -1 0.17752809E+00 0.33357377E+04</pdfrwt>
<totfact> 0.28008277E-01</totfact>
</mgrwt>
</event>
<event>
12    1  0.1519630E-007  0.2543116E+04  0.7818608E-02  0.8387784E-01
          1   -1    0    0  501    0  0.00000000000E+00  0.00000000000E+00  0.15263471015E+04  0.15263471015E+04  0.00000000000E+00 0. -1.
         -1   -1    0    0    0  501 -0.00000000000E+00 -0.00000000000E+00 -0.10592999056E+04  0.10592999056E+04  0.00000000000E+00 0.  1.
         23    2    1    2    0    0  0.10595116519E+04 -0.30531427903E+03  0.49727966379E+03  0.12126739306E+04  0.86655918718E+02 0.  0.
        254    2    1    2    0    0 -0.10595116519E+04  0.30531427903E+03 -0.30232467852E+02  0.13729730766E+04  0.81753245640E+03 0.  0.
        -24    2    4    4    0    0 -0.78173470838E+03 -0.18083441514E+03 -0.33220370375E+02  0.80658728632E+03  0.75294206010E+02 0.  0.
         24    2    4    4    0    0 -0.27777694357E+03  0.48614869417E+03  0.29879025237E+01  0.56638579024E+03  0.85342560367E+02 0.  0.
         11    1    3    3    0    0  0.34153004865E+03 -0.89305824391E+02  0.11641626878E+03  0.37171366942E+03  0.00000000000E+00 0.  1.
        -11    1    3    3    0    0  0.71798160330E+03 -0.21600845464E+03  0.38086339501E+03  0.84096026113E+03  0.00000000000E+00 0. -1.
          4    1    6    6  502    0 -0.28073919083E+03  0.45197805297E+03  0.20473572185E+01  0.53207409757E+03  0.00000000000E+00 0. -1.
          3    1    5    5  503    0 -0.26063186400E+03 -0.26912549812E+02 -0.24456925340E+02  0.26315659800E+03  0.00000000000E+00 0. -1.
         -4    1    5    5    0  503 -0.52110284438E+03 -0.15392186533E+03 -0.87634450351E+01  0.54343068832E+03  0.00000000000E+00 0.  1.
         -3    1    6    6    0  502  0.29622472609E+01  0.34170641194E+02  0.94054530516E+00  0.34311692671E+02  0.00000000000E+00 0.  1.
<mgrwt>
<rscale>  0 0.25431157E+04</rscale>
<asrwt>0</asrwt>
<pdfrwt beam="1">  1        1 0.23482263E+00 0.25431157E+04</pdfrwt>
<pdfrwt beam="2">  1       -1 0.16296922E+00 0.25431157E+04</pdfrwt>
<totfact> 0.15408668E+00</totfact>
</mgrwt>
</event>
<event>
12    1  0.1519630E-007  0.3403587E+04  0.7818608E-02  0.8137027E-01
          1   -1    0    0  501    0  0.00000000000E+00  0.00000000000E+00  0.32000195109E+04  0.32000195109E+04  0.00000000000E+00 0. -1.
         -1   -1    0    0    0  501 -0.00000000000E+00 -0.00000000000E+00 -0.90502598739E+03  0.90502598739E+03  0.00000000000E+00 0.  1.
         23    2    1    2    0    0 -0.26959044259E+03 -0.86708777437E+03 -0.49209068187E+03  0.10369026656E+04  0.92161182274E+02 0.  0.
        254    2    1    2    0    0  0.26959044259E+03  0.86708777437E+03  0.27870842054E+04  0.30681428327E+04  0.90616878052E+03 0.  0.
        -24    2    4    4    0    0 -0.80706942107E+02 -0.15737580671E+03  0.47313341492E+03  0.51218023727E+03  0.84809268944E+02 0.  0.
         24    2    4    4    0    0  0.35029738470E+03  0.10244635811E+04  0.23139507905E+04  0.25559625954E+04  0.79640704878E+02 0.  0.
         13    1    3    3    0    0 -0.13950947581E+03 -0.29969427434E+03 -0.17620168260E+03  0.37460190184E+03  0.00000000000E+00 0. -1.
        -13    1    3    3    0    0 -0.13008096678E+03 -0.56739350003E+03 -0.31588899926E+03  0.66230076374E+03  0.00000000000E+00 0.  1.
          4    1    6    6  502    0  0.87117369154E+02  0.35006865383E+03  0.82059496979E+03  0.89638920277E+03  0.00000000000E+00 0. -1.
          1    1    5    5  503    0  0.51150312421E+01 -0.72731428836E+02  0.22094619716E+03  0.23266552458E+03  0.00000000000E+00 0. -1.
         -2    1    5    5    0  503 -0.85821973350E+02 -0.84644377874E+02  0.25218721776E+03  0.27951471270E+03  0.00000000000E+00 0.  1.
         -3    1    6    6    0  502  0.26318001555E+03  0.67439492725E+03  0.14933558207E+04  0.16595733927E+04  0.00000000000E+00 0.  1.
<mgrwt>
<rscale>  0 0.34035868E+04</rscale>
<asrwt>0</asrwt>
<pdfrwt beam="1">  1        1 0.49231069E+00 0.34035868E+04</pdfrwt>
<pdfrwt beam="2">  1       -1 0.13923477E+00 0.34035868E+04</pdfrwt>
<totfact> 0.14849457E-01</totfact>
</mgrwt>
</event>
<event>
12    1  0.1519630E-007  0.1922485E+04  0.7818608E-02  0.8643745E-01
          2   -1    0    0  501    0  0.00000000000E+00  0.00000000000E+00  0.26947939176E+04  0.26947939176E+04  0.00000000000E+00 0. -1.
         -2   -1    0    0    0  501 -0.00000000000E+00 -0.00000000000E+00 -0.34287842530E+03  0.34287842530E+03  0.00000000000E+00 0.  1.
         23    2    1    2    0    0 -0.50756797017E+03  0.54443712007E+03  0.79763797363E+03  0.10947366665E+04  0.90471044919E+02 0.  0.
        254    2    1    2    0    0  0.50756797017E+03 -0.54443712007E+03  0.15542775187E+04  0.19429356764E+04  0.89732012986E+03 0.  0.
        -24    2    4    4    0    0  0.45507305914E+03  0.88369934955E+02  0.96371632129E+03  0.10722732680E+04  0.78230932086E+02 0.  0.
         24    2    4    4    0    0  0.52494911036E+02 -0.63280705502E+03  0.59056119737E+03  0.87066240840E+03  0.78038560922E+02 0.  0.
         11    1    3    3    0    0 -0.41993286561E+03  0.40111194504E+03  0.59325715010E+03  0.83017374701E+03  0.00000000000E+00 0.  1.
        -11    1    3    3    0    0 -0.87635104557E+02  0.14332517503E+03  0.20438082353E+03  0.26456291950E+03  0.00000000000E+00 0. -1.
          4    1    6    6  502    0  0.95602318598E+01 -0.38858011404E+03  0.31824229745E+03  0.50235850043E+03  0.00000000000E+00 0. -1.
          3    1    5    5  503    0  0.33077991829E+02  0.47215039313E+01  0.12848220633E+03  0.13275587930E+03  0.00000000000E+00 0. -1.
         -4    1    5    5    0  503  0.42199506731E+03  0.83648431024E+02  0.83523411495E+03  0.93951738868E+03  0.00000000000E+00 0.  1.
         -3    1    6    6    0  502  0.42934679177E+02 -0.24422694098E+03  0.27231889992E+03  0.36830390798E+03  0.00000000000E+00 0.  1.
<mgrwt>
<rscale>  0 0.19224845E+04</rscale>
<asrwt>0</asrwt>
<pdfrwt beam="1">  1        2 0.41458367E+00 0.19224845E+04</pdfrwt>
<pdfrwt beam="2">  1       -2 0.52750529E-01 0.19224845E+04</pdfrwt>
<totfact> 0.84887662E+00</totfact>
</mgrwt>
</event>
<event>
12    1  0.1519630E-007  0.1390313E+04  0.7818608E-02  0.8960861E-01
          2   -1    0    0  501    0  0.00000000000E+00  0.00000000000E+00  0.48028749772E+04  0.48028749772E+04  0.00000000000E+00 0.  1.
         -2   -1    0    0    0  501 -0.00000000000E+00 -0.00000000000E+00 -0.10061521208E+03  0.10061521208E+03  0.00000000000E+00 0. -1.
         23    2    1    2    0    0  0.20130699528E+03 -0.32667445060E+03  0.10823595489E+04  0.11518801317E+04  0.89916304014E+02 0.  0.
        254    2    1    2    0    0 -0.20130699528E+03  0.32667445060E+03  0.36199002162E+04  0.37516100576E+04  0.90755702060E+03 0.  0.
        -24    2    4    4    0    0 -0.53029614735E+03  0.30975012631E+03  0.18889876784E+04  0.19879139322E+04  0.79801053095E+02 0.  0.
         24    2    4    4    0    0  0.32898915206E+03  0.16924324285E+02  0.17309125378E+04  0.17636961254E+04  0.77752904165E+02 0.  0.
         11    1    3    3    0    0  0.97746087765E+02 -0.14687584522E+03  0.36988213197E+03  0.40980434738E+03  0.00000000000E+00 0. -1.
        -11    1    3    3    0    0  0.10356090752E+03 -0.17979860538E+03  0.71247741695E+03  0.74207578436E+03  0.00000000000E+00 0.  1.
          4    1    6    6  502    0  0.24052206605E+03 -0.76931569953E+01  0.13877204760E+04  0.14084311017E+04  0.00000000000E+00 0. -1.
          1    1    5    5  503    0 -0.28597435469E+03  0.20301859558E+03  0.99389249121E+03  0.10539545369E+04  0.00000000000E+00 0. -1.
         -2    1    5    5    0  503 -0.24432179266E+03  0.10673153073E+03  0.89509518721E+03  0.93395939536E+03  0.00000000000E+00 0.  1.
         -3    1    6    6    0  502  0.88467086017E+02  0.24617481281E+02  0.34319206186E+03  0.35526502363E+03  0.00000000000E+00 0.  1.
<mgrwt>
<rscale>  0 0.13903126E+04</rscale>
<asrwt>0</asrwt>
<pdfrwt beam="1">  1        2 0.73890366E+00 0.13903126E+04</pdfrwt>
<pdfrwt beam="2">  1       -2 0.15479267E-01 0.13903126E+04</pdfrwt>
<totfact> 0.20197948E+00</totfact>
</mgrwt>
</event>
<event>
12    1  0.1519630E-007  0.1508125E+04  0.7818608E-02  0.8879068E-01
         -2   -1    0    0    0  501 -0.00000000000E+00  0.00000000000E+00  0.26732338721E+03  0.26732338721E+03  0.00000000000E+00 0.  1.
          2   -1    0    0  501    0  0.00000000000E+00 -0.00000000000E+00 -0.21270499623E+04  0.21270499623E+04  0.00000000000E+00 0. -1.
         23    2    1    2    0    0  0.45918875989E+03 -0.55919642250E+02 -0.37767029184E+03  0.60421320972E+03  0.91964285826E+02 0.  0.
        254    2    1    2    0    0 -0.45918875989E+03  0.55919642250E+02 -0.14820562832E+04  0.17901601398E+04  0.89117965402E+03 0.  0.
        -24    2    4    4    0    0 -0.43545532084E+02  0.15188113180E+03  0.60450384322E+02  0.18775545859E+03  0.81447969310E+02 0.  0.
         24    2    4    4    0    0 -0.41564322781E+03 -0.95961489546E+02 -0.15425066676E+04  0.16024046812E+04  0.80037756746E+02 0.  0.
         13    1    3    3    0    0  0.88545883494E+02  0.24673558601E+02 -0.83869064029E+02  0.12443141837E+03  0.00000000000E+00 0. -1.
        -13    1    3    3    0    0  0.37064287640E+03 -0.80593200851E+02 -0.29380122781E+03  0.47978179135E+03  0.00000000000E+00 0.  1.
          4    1    6    6  502    0 -0.39795047560E+03 -0.99947582900E+02 -0.15140307765E+04  0.15686437749E+04  0.00000000000E+00 0. -1.
          3    1    5    5  503    0 -0.34581729530E+02  0.15332164998E+03  0.72153443540E+02  0.17294375903E+03  0.00000000000E+00 0. -1.
         -4    1    5    5    0  503 -0.89638025540E+01 -0.14405181880E+01 -0.11703059218E+02  0.14811699563E+02  0.00000000000E+00 0.  1.
         -3    1    6    6    0  502 -0.17692752209E+02  0.39860933539E+01 -0.28475891061E+02  0.33760906278E+02  0.00000000000E+00 0.  1.
<mgrwt>
<rscale>  0 0.15081249E+04</rscale>
<asrwt>0</asrwt>
<pdfrwt beam="1">  1        2 0.32723846E+00 0.15081249E+04</pdfrwt>
<pdfrwt beam="2">  1       -2 0.41126674E-01 0.15081249E+04</pdfrwt>
<totfact> 0.30708248E+01</totfact>
</mgrwt>
</event>
<event>
12    1  0.1519630E-007  0.3159109E+04  0.7818608E-02  0.8199701E-01
         -1   -1    0    0    0  501 -0.00000000000E+00  0.00000000000E+00  0.11018944745E+04  0.11018944745E+04  0.00000000000E+00 0.  1.
          1   -1    0    0  501    0  0.00000000000E+00 -0.00000000000E+00 -0.22642755997E+04  0.22642755997E+04  0.00000000000E+00 0. -1.
         23    2    1    2    0    0  0.47378810482E+03 -0.43189763455E+03 -0.19161672043E+04  0.20229285054E+04  0.97633233103E+02 0.  0.
        254    2    1    2    0    0 -0.47378810482E+03  0.43189763455E+03  0.75378607906E+03  0.13432415688E+04  0.90834669816E+03 0.  0.
        -24    2    4    4    0    0 -0.26426705421E+03  0.47821956300E+02  0.84408138033E+03  0.88945860039E+03  0.80865380373E+02 0.  0.
         24    2    4    4    0    0 -0.20952105062E+03  0.38407567825E+03 -0.90295301272E+02  0.45378296837E+03  0.79702846077E+02 0.  0.
         11    1    3    3    0    0  0.35820762015E+03 -0.28166118452E+03 -0.14416513303E+04  0.15119537957E+04  0.00000000000E+00 0.  1.
        -11    1    3    3    0    0  0.11558048467E+03 -0.15023645003E+03 -0.47451587397E+03  0.51097470975E+03  0.00000000000E+00 0. -1.
          2    1    6    6  502    0 -0.20803959670E+03  0.35754593238E+03 -0.99849977037E+02  0.42554622014E+03  0.00000000000E+00 0. -1.
          1    1    5    5  503    0 -0.18055428000E+03  0.65507821599E+02  0.63907421567E+03  0.66731325167E+03  0.00000000000E+00 0. -1.
         -2    1    5    5    0  503 -0.83712774204E+02 -0.17685865299E+02  0.20500716466E+03  0.22214534872E+03  0.00000000000E+00 0.  1.
         -1    1    6    6    0  502 -0.14814539130E+01  0.26529745871E+02  0.95546757648E+01  0.28236748231E+02  0.00000000000E+00 0.  1.
<mgrwt>
<rscale>  0 0.31591092E+04</rscale>
<asrwt>0</asrwt>
<pdfrwt beam="1">  1        1 0.34835009E+00 0.31591092E+04</pdfrwt>
<pdfrwt beam="2">  1       -1 0.16952223E+00 0.31591092E+04</pdfrwt>
<totfact> 0.41003166E-01</totfact>
</mgrwt>
</event>
<event>
12    1  0.1519630E-007  0.1230197E+04  0.7818608E-02  0.9086828E-01
          1   -1    0    0  501    0  0.00000000000E+00  0.00000000000E+00  0.19215202061E+04  0.19215202061E+04  0.00000000000E+00 0. -1.
         -1   -1    0    0    0  501 -0.00000000000E+00 -0.00000000000E+00 -0.19689952830E+03  0.19689952830E+03  0.00000000000E+00 0.  1.
         23    2    1    2    0    0  0.26782467861E+03  0.27711908512E+02  0.33227264702E+03  0.43734929595E+03  0.91494734090E+02 0.  0.
        254    2    1    2    0    0 -0.26782467861E+03 -0.27711908512E+02  0.13923480307E+04  0.16810704384E+04  0.90269971301E+03 0.  0.
        -24    2    4    4    0    0  0.26724405637E+03 -0.15039367604E+03  0.22573357369E+03  0.38923003822E+03  0.80664322388E+02 0.  0.
         24    2    4    4    0    0 -0.53506873498E+03  0.12268176753E+03  0.11666144571E+04  0.12918404002E+04  0.80702917788E+02 0.  0.
         13    1    3    3    0    0  0.12627646867E+03  0.37704295034E+02  0.21980323339E+03  0.25628269901E+03  0.00000000000E+00 0. -1.
        -13    1    3    3    0    0  0.14154820994E+03 -0.99923865226E+01  0.11246941363E+03  0.18106659694E+03  0.00000000000E+00 0.  1.
          2    1    6    6  502    0 -0.39212117090E+03  0.12085458985E+03  0.82102021413E+03  0.91784477803E+03  0.00000000000E+00 0. -1.
          3    1    5    5  503    0  0.10266660847E+03 -0.10247139216E+03  0.91379023749E+02  0.17143787413E+03  0.00000000000E+00 0. -1.
         -4    1    5    5    0  503  0.16457744790E+03 -0.47922283884E+02  0.13435454994E+03  0.21779216409E+03  0.00000000000E+00 0.  1.
         -1    1    6    6    0  502 -0.14294756408E+03  0.18271776741E+01  0.34559424293E+03  0.37399562217E+03  0.00000000000E+00 0.  1.
<mgrwt>
<rscale>  0 0.12301974E+04</rscale>
<asrwt>0</asrwt>
<pdfrwt beam="1">  1        1 0.29561848E+00 0.12301974E+04</pdfrwt>
<pdfrwt beam="2">  1       -1 0.30292236E-01 0.12301974E+04</pdfrwt>
<totfact> 0.33415748E+01</totfact>
</mgrwt>
</event>
<event>
12    1  0.1519630E-007  0.3312055E+04  0.7818608E-02  0.8159835E-01
          2   -1    0    0  501    0  0.00000000000E+00  0.00000000000E+00  0.23600438660E+04  0.23600438660E+04  0.00000000000E+00 0. -1.
         -2   -1    0    0    0  501 -0.00000000000E+00 -0.00000000000E+00 -0.11620234375E+04  0.11620234375E+04  0.00000000000E+00 0.  1.
         23    2    1    2    0    0 -0.12082557364E+04  0.30738610640E+03  0.15277563873E+04  0.19739790881E+04  0.90474961113E+02 0.  0.
        254    2    1    2    0    0  0.12082557364E+04 -0.30738610640E+03 -0.32973595872E+03  0.15480882153E+04  0.85643632393E+03 0.  0.
        -24    2    4    4    0    0  0.30001030070E+03 -0.33035366741E+03 -0.43765665169E+03  0.63023646647E+03  0.80715133662E+02 0.  0.
         24    2    4    4    0    0  0.90824543571E+03  0.22967561011E+02  0.10792069297E+03  0.91785174885E+03  0.73264428903E+02 0.  0.
         11    1    3    3    0    0 -0.96877564093E+03  0.23283546751E+03  0.11650376844E+04  0.15329877376E+04  0.00000000000E+00 0. -1.
        -11    1    3    3    0    0 -0.23948009548E+03  0.74550638892E+02  0.36271870282E+03  0.44099135056E+03  0.00000000000E+00 0.  1.
          2    1    6    6  502    0  0.81111470800E+03  0.35932916572E+02  0.11295710716E+03  0.81973017029E+03  0.00000000000E+00 0. -1.
          3    1    5    5  503    0  0.26743271448E+03 -0.31434522560E+03 -0.37403188636E+03  0.55698566377E+03  0.00000000000E+00 0. -1.
         -4    1    5    5    0  503  0.32577586226E+02 -0.16008441815E+02 -0.63624765327E+02  0.73250802703E+02  0.00000000000E+00 0.  1.
         -1    1    6    6    0  502  0.97130727708E+02 -0.12965355561E+02 -0.50364141904E+01  0.98121578554E+02  0.00000000000E+00 0.  1.
<mgrwt>
<rscale>  0 0.33120545E+04</rscale>
<asrwt>0</asrwt>
<pdfrwt beam="1">  1        2 0.36308367E+00 0.33120545E+04</pdfrwt>
<pdfrwt beam="2">  1       -2 0.17877284E+00 0.33120545E+04</pdfrwt>
<totfact> 0.64649148E-01</totfact>
</mgrwt>
</event>
<event>
12    1  0.1519630E-007  0.1805214E+04  0.7818608E-02  0.8703532E-01
         -1   -1    0    0    0  501 -0.00000000000E+00  0.00000000000E+00  0.42177705368E+03  0.42177705368E+03  0.00000000000E+00 0.  1.
          1   -1    0    0  501    0  0.00000000000E+00 -0.00000000000E+00 -0.19315882734E+04  0.19315882734E+04  0.00000000000E+00 0. -1.
         23    2    1    2    0    0  0.38478955498E+02  0.53963613208E+03 -0.24380359133E+02  0.54938817658E+03  0.92440151362E+02 0.  0.
        254    2    1    2    0    0 -0.38478955498E+02 -0.53963613208E+03 -0.14854308605E+04  0.18039771505E+04  0.86898845382E+03 0.  0.
        -24    2    4    4    0    0  0.10947346187E+03 -0.73918409835E+03 -0.12101293501E+04  0.14244871809E+04  0.79831789762E+02 0.  0.
         24    2    4    4    0    0 -0.14795241736E+03  0.19954796627E+03 -0.27530151047E+03  0.37948996952E+03  0.80699483606E+02 0.  0.
         11    1    3    3    0    0  0.45849195975E+02  0.17846454150E+03  0.20359886000E+02  0.18538140765E+03  0.00000000000E+00 0.  1.
        -11    1    3    3    0    0 -0.73702404774E+01  0.36117159059E+03 -0.44740245133E+02  0.36400676893E+03  0.00000000000E+00 0. -1.
          4    1    6    6  502    0 -0.54434460068E+01 -0.45593316134E+01  0.14567245173E+01  0.72484933268E+01  0.00000000000E+00 0. -1.
          3    1    5    5  503    0 -0.29126632092E+01 -0.20900612203E+03 -0.31358267571E+03  0.37686355245E+03  0.00000000000E+00 0. -1.
         -4    1    5    5    0  503  0.11238612507E+03 -0.53017797632E+03 -0.89654667436E+03  0.10476236285E+04  0.00000000000E+00 0.  1.
         -1    1    6    6    0  502 -0.14250897136E+03  0.20410729788E+03 -0.27675823499E+03  0.37224147619E+03  0.00000000000E+00 0.  1.
<mgrwt>
<rscale>  0 0.18052142E+04</rscale>
<asrwt>0</asrwt>
<pdfrwt beam="1">  1        1 0.29716743E+00 0.18052142E+04</pdfrwt>
<pdfrwt beam="2">  1       -1 0.64888777E-01 0.18052142E+04</pdfrwt>
<totfact> 0.75322338E+00</totfact>
</mgrwt>
</event>
<event>
12    1  0.1519630E-007  0.2041336E+04  0.7818608E-02  0.8587535E-01
          1   -1    0    0  501    0  0.00000000000E+00  0.00000000000E+00  0.99367150087E+03  0.99367150087E+03  0.00000000000E+00 0. -1.
         -1   -1    0    0    0  501 -0.00000000000E+00 -0.00000000000E+00 -0.10483980328E+04  0.10483980328E+04  0.00000000000E+00 0.  1.
         23    2    1    2    0    0  0.47292205510E+03 -0.57849039753E+03 -0.39668808499E+03  0.85082359267E+03  0.90735543412E+02 0.  0.
        254    2    1    2    0    0 -0.47292205510E+03  0.57849039753E+03  0.34196155308E+03  0.11912459410E+04  0.86245160901E+03 0.  0.
        -24    2    4    4    0    0 -0.51068691710E+03  0.72808395474E+03  0.10786787746E+03  0.89920178909E+03  0.77595142131E+02 0.  0.
         24    2    4    4    0    0  0.37764861999E+02 -0.14959355720E+03  0.23409367562E+03  0.29204415189E+03  0.81765032433E+02 0.  0.
         13    1    3    3    0    0  0.47709008231E+03 -0.57540037410E+03 -0.39463196377E+03  0.84524252377E+03  0.00000000000E+00 0.  1.
        -13    1    3    3    0    0 -0.41680272125E+01 -0.30900234363E+01 -0.20561212150E+01  0.55810689058E+01  0.00000000000E+00 0. -1.
          2    1    6    6  502    0  0.55338349764E+02 -0.11898242538E+03  0.21508628917E+03  0.25195488146E+03  0.00000000000E+00 0. -1.
          1    1    5    5  503    0 -0.50247296097E+03  0.71810329799E+03  0.96053909723E+02  0.88169029521E+03  0.00000000000E+00 0. -1.
         -2    1    5    5    0  503 -0.82139561266E+01  0.99806567417E+01  0.11813967739E+02  0.17511493882E+02  0.00000000000E+00 0.  1.
         -1    1    6    6    0  502 -0.17573487766E+02 -0.30611131819E+02  0.19007386450E+02  0.40089270424E+02  0.00000000000E+00 0.  1.
<mgrwt>
<rscale>  0 0.20413361E+04</rscale>
<asrwt>0</asrwt>
<pdfrwt beam="1">  1        1 0.15287254E+00 0.20413361E+04</pdfrwt>
<pdfrwt beam="2">  1       -1 0.16129201E+00 0.20413361E+04</pdfrwt>
<totfact> 0.40424981E+00</totfact>
</mgrwt>
</event>
<event>
12    1  0.1519630E-007  0.1335779E+04  0.7818608E-02  0.9001663E-01
         -2   -1    0    0    0  501 -0.00000000000E+00  0.00000000000E+00  0.36503863096E+03  0.36503863096E+03  0.00000000000E+00 0.  1.
          2   -1    0    0  501    0  0.00000000000E+00 -0.00000000000E+00 -0.12219983823E+04  0.12219983823E+04  0.00000000000E+00 0. -1.
         23    2    1    2    0    0 -0.54710343442E+02  0.32468900537E+03 -0.47327159616E+03  0.58380042259E+03  0.91764687086E+02 0.  0.
        254    2    1    2    0    0  0.54710343442E+02 -0.32468900537E+03 -0.38368815520E+03  0.10032365907E+04  0.86651652297E+03 0.  0.
        -24    2    4    4    0    0 -0.30858600931E+03 -0.18460696862E+03  0.95922151345E+02  0.38051259381E+03  0.79269899224E+02 0.  0.
         24    2    4    4    0    0  0.36329635275E+03 -0.14008203675E+03 -0.47961030655E+03  0.62272399689E+03  0.78434132978E+02 0.  0.
         11    1    3    3    0    0 -0.35215054241E+02  0.73172720375E+02 -0.65620128539E+02  0.10440473323E+03  0.00000000000E+00 0.  1.
        -11    1    3    3    0    0 -0.19495289201E+02  0.25151628500E+03 -0.40765146762E+03  0.47939568936E+03  0.00000000000E+00 0. -1.
          4    1    6    6  502    0  0.21150113298E+03 -0.40217028603E+02 -0.26988153256E+03  0.34523351555E+03  0.00000000000E+00 0. -1.
          1    1    5    5  503    0  0.12914731999E+01 -0.14684946005E+02  0.23643030851E+01  0.14930019131E+02  0.00000000000E+00 0. -1.
         -4    1    5    5    0  503 -0.30987748251E+03 -0.16992202262E+03  0.93557848260E+02  0.36558257468E+03  0.00000000000E+00 0.  1.
         -3    1    6    6    0  502  0.15179521977E+03 -0.99865008148E+02 -0.20972877399E+03  0.27749048134E+03  0.00000000000E+00 0.  1.
<mgrwt>
<rscale>  0 0.13357793E+04</rscale>
<asrwt>0</asrwt>
<pdfrwt beam="1">  1        2 0.18799975E+00 0.13357793E+04</pdfrwt>
<pdfrwt beam="2">  1       -2 0.56159790E-01 0.13357793E+04</pdfrwt>
<totfact> 0.53477467E+01</totfact>
</mgrwt>
</event>
<event>
12    1  0.1519630E-007  0.2092018E+04  0.7818608E-02  0.8564768E-01
         -1   -1    0    0    0  501 -0.00000000000E+00  0.00000000000E+00  0.38475702314E+03  0.38475702314E+03  0.00000000000E+00 0.  1.
          1   -1    0    0  501    0  0.00000000000E+00 -0.00000000000E+00 -0.28437029054E+04  0.28437029054E+04  0.00000000000E+00 0. -1.
         23    2    1    2    0    0  0.48244446626E+03 -0.14738954060E+03 -0.20599308936E+04  0.21228169041E+04  0.92520171120E+02 0.  0.
        254    2    1    2    0    0 -0.48244446626E+03  0.14738954060E+03 -0.39901498865E+03  0.11056430245E+04  0.89930928867E+03 0.  0.
        -24    2    4    4    0    0 -0.65325685738E+03 -0.12561194998E+03 -0.13941151977E+03  0.68447378085E+03  0.80906743428E+02 0.  0.
         24    2    4    4    0    0  0.17081239112E+03  0.27300149058E+03 -0.25960346888E+03  0.42116924362E+03  0.79264644689E+02 0.  0.
         13    1    3    3    0    0  0.32024976988E+03 -0.11663141510E+03 -0.15418094414E+04  0.15790310813E+04  0.00000000000E+00 0.  1.
        -13    1    3    3    0    0  0.16219469638E+03 -0.30758125497E+02 -0.51812145228E+03  0.54378582285E+03  0.00000000000E+00 0. -1.
          2    1    6    6  502    0  0.25184158291E+02  0.20988660445E+02 -0.59572057701E+02  0.67997027544E+02  0.00000000000E+00 0. -1.
          3    1    5    5  503    0 -0.33891038968E+03 -0.61679057829E+02 -0.31007466801E+02  0.34586994869E+03  0.00000000000E+00 0. -1.
         -4    1    5    5    0  503 -0.31434646770E+03 -0.63932892153E+02 -0.10840405296E+03  0.33860383216E+03  0.00000000000E+00 0.  1.
         -1    1    6    6    0  502  0.14562823283E+03  0.25201283014E+03 -0.20003141118E+03  0.35317221608E+03  0.00000000000E+00 0.  1.
<mgrwt>
<rscale>  0 0.20920178E+04</rscale>
<asrwt>0</asrwt>
<pdfrwt beam="1">  1        1 0.43749274E+00 0.20920178E+04</pdfrwt>
<pdfrwt beam="2">  1       -1 0.59193390E-01 0.20920178E+04</pdfrwt>
<totfact> 0.20667911E+00</totfact>
</mgrwt>
</event>
<event>
12    1  0.1519630E-007  0.1857870E+04  0.7818608E-02  0.8676116E-01
          2   -1    0    0  501    0  0.00000000000E+00  0.00000000000E+00  0.59784551297E+03  0.59784551297E+03  0.00000000000E+00 0. -1.
         -2   -1    0    0    0  501 -0.00000000000E+00 -0.00000000000E+00 -0.14433827100E+04  0.14433827100E+04  0.00000000000E+00 0.  1.
         23    2    1    2    0    0  0.47369086256E+03  0.52896976849E+03 -0.39131862518E+03  0.81600543727E+03  0.92425959535E+02 0.  0.
        254    2    1    2    0    0 -0.47369086256E+03 -0.52896976849E+03 -0.45421857184E+03  0.12252227857E+04  0.88919306920E+03 0.  0.
        -24    2    4    4    0    0 -0.27843293942E+03 -0.47922563275E+03  0.15220018685E+03  0.58142639145E+03  0.87804572575E+02 0.  0.
         24    2    4    4    0    0 -0.19525792314E+03 -0.49744135742E+02 -0.60641875869E+03  0.64379639423E+03  0.78294001985E+02 0.  0.
         11    1    3    3    0    0  0.36611846568E+03  0.38167446666E+03 -0.33087766864E+03  0.62385748454E+03  0.00000000000E+00 0. -1.
        -11    1    3    3    0    0  0.10757239688E+03  0.14729530183E+03 -0.60440956537E+02  0.19214795273E+03  0.00000000000E+00 0.  1.
          2    1    6    6  502    0 -0.72326836605E-01  0.10637067603E+02 -0.17907009921E+02  0.20828188655E+02  0.00000000000E+00 0. -1.
          3    1    5    5  503    0 -0.27216952976E+02 -0.45996881936E+02 -0.11278190724E+02  0.54623010381E+02  0.00000000000E+00 0. -1.
         -4    1    5    5    0  503 -0.25121598644E+03 -0.43322875081E+03  0.16347837757E+03  0.52680338107E+03  0.00000000000E+00 0.  1.
         -1    1    6    6    0  502 -0.19518559630E+03 -0.60381203345E+02 -0.58851174877E+03  0.62296820558E+03  0.00000000000E+00 0.  1.
<mgrwt>
<rscale>  0 0.18578696E+04</rscale>
<asrwt>0</asrwt>
<pdfrwt beam="1">  1        2 0.91976233E-01 0.18578696E+04</pdfrwt>
<pdfrwt beam="2">  1       -2 0.22205888E+00 0.18578696E+04</pdfrwt>
<totfact> 0.44869115E+00</totfact>
</mgrwt>
</event>
<event>
12    1  0.1519630E-007  0.2179542E+04  0.7818608E-02  0.8526992E-01
          2   -1    0    0  501    0  0.00000000000E+00  0.00000000000E+00  0.80447254783E+03  0.80447254783E+03  0.00000000000E+00 0. -1.
         -2   -1    0    0    0  501 -0.00000000000E+00 -0.00000000000E+00 -0.14762475600E+04  0.14762475600E+04  0.00000000000E+00 0.  1.
         23    2    1    2    0    0  0.24052955605E+03  0.81717030724E+03  0.28343548633E+02  0.85711130950E+03  0.90634771228E+02 0.  0.
        254    2    1    2    0    0 -0.24052955605E+03 -0.81717030724E+03 -0.70011856083E+03  0.14236087984E+04  0.90048555412E+03 0.  0.
        -24    2    4    4    0    0  0.19879252917E+02 -0.42922710923E+03  0.14112103061E+03  0.45813850314E+03  0.73107091192E+02 0.  0.
         24    2    4    4    0    0 -0.26040880897E+03 -0.38794319802E+03 -0.84123959144E+03  0.96547029522E+03  0.78333696915E+02 0.  0.
         11    1    3    3    0    0  0.18814505967E+03  0.55649246823E+03 -0.15446794239E+02  0.58764022508E+03  0.00000000000E+00 0. -1.
        -11    1    3    3    0    0  0.52384496379E+02  0.26067783901E+03  0.43790342872E+02  0.26947108442E+03  0.00000000000E+00 0.  1.
          4    1    6    6  502    0 -0.45875802500E+02 -0.43534608232E+02 -0.72440310418E+02  0.96163662276E+02  0.00000000000E+00 0. -1.
          3    1    5    5  503    0  0.85717514196E+01 -0.84450162520E+02 -0.13966681630E+01  0.84895556739E+02  0.00000000000E+00 0. -1.
         -4    1    5    5    0  503  0.11307501498E+02 -0.34477694671E+03  0.14251769878E+03  0.37324294640E+03  0.00000000000E+00 0.  1.
         -3    1    6    6    0  502 -0.21453300647E+03 -0.34440858978E+03 -0.76879928103E+03  0.86930663295E+03  0.00000000000E+00 0.  1.
<mgrwt>
<rscale>  0 0.21795418E+04</rscale>
<asrwt>0</asrwt>
<pdfrwt beam="1">  1        2 0.12376501E+00 0.21795418E+04</pdfrwt>
<pdfrwt beam="2">  1       -2 0.22711501E+00 0.21795418E+04</pdfrwt>
<totfact> 0.27892751E+00</totfact>
</mgrwt>
</event>
<event>
12    1  0.1519630E-007  0.1406049E+04  0.7818608E-02  0.8949452E-01
          1   -1    0    0  501    0  0.00000000000E+00  0.00000000000E+00  0.51533780282E+03  0.51533780282E+03  0.00000000000E+00 0. -1.
         -1   -1    0    0    0  501 -0.00000000000E+00 -0.00000000000E+00 -0.95906625672E+03  0.95906625672E+03  0.00000000000E+00 0.  1.
         23    2    1    2    0    0 -0.31425089174E+03  0.37121546118E+02  0.14148764438E+03  0.35812298772E+03  0.90009381047E+02 0.  0.
        254    2    1    2    0    0  0.31425089174E+03 -0.37121546118E+02 -0.58521609829E+03  0.11162810718E+04  0.89636706627E+03 0.  0.
        -24    2    4    4    0    0  0.12686845773E+03  0.18431218775E+03  0.17754397982E+03  0.29646047326E+03  0.79374802779E+02 0.  0.
         24    2    4    4    0    0  0.18738243401E+03 -0.22143373387E+03 -0.76276007811E+03  0.81982059857E+03  0.78471663719E+02 0.  0.
         11    1    3    3    0    0 -0.18426836409E+01  0.14404590015E+02  0.26051105732E+00  0.14524309364E+02  0.00000000000E+00 0.  1.
        -11    1    3    3    0    0 -0.31240820809E+03  0.22716956104E+02  0.14122713333E+03  0.34359867835E+03  0.00000000000E+00 0. -1.
          4    1    6    6  502    0  0.22371501639E+02 -0.72233494096E+02 -0.24185208200E+03  0.25339808863E+03  0.00000000000E+00 0. -1.
          3    1    5    5  503    0  0.68114371799E+01 -0.27107785507E+01  0.27130313739E+02  0.28103343580E+02  0.00000000000E+00 0. -1.
         -4    1    5    5    0  503  0.12005702055E+03  0.18702296630E+03  0.15041366609E+03  0.26835712968E+03  0.00000000000E+00 0.  1.
         -3    1    6    6    0  502  0.16501093237E+03 -0.14920023977E+03 -0.52090799612E+03  0.56642250994E+03  0.00000000000E+00 0.  1.
<mgrwt>
<rscale>  0 0.14060485E+04</rscale>
<asrwt>0</asrwt>
<pdfrwt beam="1">  1        1 0.79282740E-01 0.14060485E+04</pdfrwt>
<pdfrwt beam="2">  1       -1 0.14754865E+00 0.14060485E+04</pdfrwt>
<totfact> 0.15108719E+01</totfact>
</mgrwt>
</event>
<event>
12    1  0.1519630E-007  0.2082469E+04  0.7818608E-02  0.8569005E-01
         -2   -1    0    0    0  501 -0.00000000000E+00  0.00000000000E+00  0.94696670691E+03  0.94696670691E+03  0.00000000000E+00 0.  1.
          2   -1    0    0  501    0  0.00000000000E+00 -0.00000000000E+00 -0.11448866743E+04  0.11448866743E+04  0.00000000000E+00 0. -1.
         23    2    1    2    0    0 -0.34568397625E+02 -0.83683799263E+03 -0.18516408437E+03  0.86329941631E+03  0.97505610278E+02 0.  0.
        254    2    1    2    0    0  0.34568397625E+02  0.83683799263E+03 -0.12755883018E+02  0.12285539649E+04  0.89871537880E+03 0.  0.
        -24    2    4    4    0    0  0.22396848235E+03  0.38522427312E+03 -0.39609564290E+03  0.60145348663E+03  0.79340510225E+02 0.  0.
         24    2    4    4    0    0 -0.18940008472E+03  0.45161371951E+03  0.38333975989E+03  0.62710047827E+03  0.80487853739E+02 0.  0.
         13    1    3    3    0    0 -0.18706358679E+02 -0.43451100131E+03 -0.46230021144E+02  0.43736363929E+03  0.00000000000E+00 0. -1.
        -13    1    3    3    0    0 -0.15862038946E+02 -0.40232699132E+03 -0.13893406322E+03  0.42593577703E+03  0.00000000000E+00 0.  1.
          2    1    6    6  502    0 -0.15546197289E+03  0.27048557681E+03  0.23750588981E+03  0.39209682474E+03  0.00000000000E+00 0. -1.
          1    1    5    5  503    0  0.18828705107E+03  0.27097404347E+03 -0.25911375101E+03  0.41954604253E+03  0.00000000000E+00 0. -1.
         -2    1    5    5    0  503  0.35681431274E+02  0.11425022965E+03 -0.13698189189E+03  0.18190744410E+03  0.00000000000E+00 0.  1.
         -1    1    6    6    0  502 -0.33938111831E+02  0.18112814270E+03  0.14583387008E+03  0.23500365353E+03  0.00000000000E+00 0.  1.
<mgrwt>
<rscale>  0 0.20824693E+04</rscale>
<asrwt>0</asrwt>
<pdfrwt beam="1">  1        2 0.17613641E+00 0.20824693E+04</pdfrwt>
<pdfrwt beam="2">  1       -2 0.14568719E+00 0.20824693E+04</pdfrwt>
<totfact> 0.61075435E+00</totfact>
</mgrwt>
</event>
<event>
12    1  0.1519630E-007  0.1174330E+04  0.7818608E-02  0.9135627E-01
          1   -1    0    0  501    0  0.00000000000E+00  0.00000000000E+00  0.24705241583E+03  0.24705241583E+03  0.00000000000E+00 0. -1.
         -1   -1    0    0    0  501 -0.00000000000E+00 -0.00000000000E+00 -0.13955052704E+04  0.13955052704E+04  0.00000000000E+00 0.  1.
         23    2    1    2    0    0  0.86226953815E+02  0.15366644763E+03 -0.45224732615E+02  0.20288724963E+03  0.89830367535E+02 0.  0.
        254    2    1    2    0    0 -0.86226953815E+02 -0.15366644763E+03 -0.11032281219E+04  0.14396704365E+04  0.90801443392E+03 0.  0.
        -24    2    4    4    0    0 -0.99934365498E+02 -0.31565429137E+03 -0.19776695337E+02  0.34113616258E+03  0.79738664856E+02 0.  0.
         24    2    4    4    0    0  0.13707411684E+02  0.16198784374E+03 -0.10834514266E+04  0.10985342740E+04  0.80514611630E+02 0.  0.
         13    1    3    3    0    0  0.96643519853E+02  0.13767992890E+03 -0.60169212645E+02  0.17865068402E+03  0.00000000000E+00 0.  1.
        -13    1    3    3    0    0 -0.10416566039E+02  0.15986518731E+02  0.14944480030E+02  0.24236565609E+02  0.00000000000E+00 0. -1.
          2    1    6    6  502    0 -0.22326859540E+02  0.80652325576E+02 -0.35812382887E+03  0.36777161810E+03  0.00000000000E+00 0. -1.
          3    1    5    5  503    0 -0.58703896570E+02 -0.21468772323E+03 -0.49688552677E+02  0.22804806126E+03  0.00000000000E+00 0. -1.
         -4    1    5    5    0  503 -0.41230468928E+02 -0.10096656814E+03  0.29911857340E+02  0.11308810131E+03  0.00000000000E+00 0.  1.
         -1    1    6    6    0  502  0.36034271223E+02  0.81335518162E+02 -0.72532759771E+03  0.73076265587E+03  0.00000000000E+00 0.  1.
<mgrwt>
<rscale>  0 0.11743304E+04</rscale>
<asrwt>0</asrwt>
<pdfrwt beam="1">  1        1 0.38008064E-01 0.11743304E+04</pdfrwt>
<pdfrwt beam="2">  1       -1 0.21469312E+00 0.11743304E+04</pdfrwt>
<totfact> 0.13391922E+01</totfact>
</mgrwt>
</event>
<event>
12    1  0.1519630E-007  0.1523498E+04  0.7818608E-02  0.8868975E-01
         -2   -1    0    0    0  501 -0.00000000000E+00  0.00000000000E+00  0.12385188817E+04  0.12385188817E+04  0.00000000000E+00 0.  1.
          2   -1    0    0  501    0  0.00000000000E+00 -0.00000000000E+00 -0.46851264794E+03  0.46851264794E+03  0.00000000000E+00 0. -1.
         23    2    1    2    0    0 -0.19364446626E+03 -0.25372769584E+03  0.66387576221E+03  0.74195102425E+03  0.88793985090E+02 0.  0.
        254    2    1    2    0    0  0.19364446626E+03  0.25372769584E+03  0.10613047151E+03  0.96508050535E+03  0.90456662656E+03 0.  0.
        -24    2    4    4    0    0  0.47804032396E+03  0.39874577936E+03  0.10251963146E+03  0.63590792736E+03  0.79673517291E+02 0.  0.
         24    2    4    4    0    0 -0.28439585770E+03 -0.14501808352E+03  0.36108400549E+01  0.32917257800E+03  0.80189148359E+02 0.  0.
         11    1    3    3    0    0 -0.39576549235E+02 -0.87048028446E+01  0.10557372480E+03  0.11308354526E+03  0.00000000000E+00 0. -1.
        -11    1    3    3    0    0 -0.15406791702E+03 -0.24502289300E+03  0.55830203741E+03  0.62886747899E+03  0.00000000000E+00 0.  1.
          2    1    6    6  502    0 -0.27920775183E+02 -0.11487826272E+01  0.20437320091E+02  0.34620419421E+02  0.00000000000E+00 0. -1.
          1    1    5    5  503    0  0.44662984208E+01  0.31448327000E+01 -0.73273617467E+01  0.91393667429E+01  0.00000000000E+00 0. -1.
         -2    1    5    5    0  503  0.47357402553E+03  0.39560094666E+03  0.10984699320E+03  0.62676856062E+03  0.00000000000E+00 0.  1.
         -1    1    6    6    0  502 -0.25647508252E+03 -0.14386930089E+03 -0.16826480037E+02  0.29455215857E+03  0.00000000000E+00 0.  1.
<mgrwt>
<rscale>  0 0.15234983E+04</rscale>
<asrwt>0</asrwt>
<pdfrwt beam="1">  1        2 0.72078870E-01 0.15234983E+04</pdfrwt>
<pdfrwt beam="2">  1       -2 0.19054136E+00 0.15234983E+04</pdfrwt>
<totfact> 0.98331511E+00</totfact>
</mgrwt>
</event>
<event>
12    1  0.1519630E-007  0.1840296E+04  0.7818608E-02  0.8685159E-01
         -1   -1    0    0    0  501 -0.00000000000E+00  0.00000000000E+00  0.12173149220E+04  0.12173149220E+04  0.00000000000E+00 0.  1.
          1   -1    0    0  501    0  0.00000000000E+00 -0.00000000000E+00 -0.69552445920E+03  0.69552445920E+03  0.00000000000E+00 0. -1.
         23    2    1    2    0    0 -0.25424121757E+03  0.21957211095E+03  0.83258076333E+03  0.90214352387E+03  0.88440384242E+02 0.  0.
        254    2    1    2    0    0  0.25424121757E+03 -0.21957211095E+03 -0.31079030049E+03  0.10106958574E+04  0.90114649009E+03 0.  0.
        -24    2    4    4    0    0  0.38175973389E+03  0.23067423780E+03 -0.19575923199E+02  0.45356255759E+03  0.79904183088E+02 0.  0.
         24    2    4    4    0    0 -0.12751851632E+03 -0.45024634876E+03 -0.29121437729E+03  0.55713329977E+03  0.81295470967E+02 0.  0.
         11    1    3    3    0    0 -0.64599758955E+00  0.98389725422E+00  0.61541162435E+02  0.61552417017E+02  0.00000000000E+00 0. -1.
        -11    1    3    3    0    0 -0.25359521998E+03  0.21858821370E+03  0.77103960089E+03  0.84059110685E+03  0.00000000000E+00 0.  1.
          2    1    6    6  502    0 -0.64185811378E+02 -0.32285635032E+03 -0.17133752904E+03  0.37109647018E+03  0.00000000000E+00 0. -1.
          3    1    5    5  503    0  0.35082383187E+03  0.23200868801E+03 -0.85332719091E+01  0.42068778096E+03  0.00000000000E+00 0. -1.
         -2    1    5    5    0  503  0.30935902018E+02 -0.13344502059E+01 -0.11042651290E+02  0.32874776631E+02  0.00000000000E+00 0.  1.
         -1    1    6    6    0  502 -0.63332704939E+02 -0.12738999844E+03 -0.11987684825E+03  0.18603682959E+03  0.00000000000E+00 0.  1.
<mgrwt>
<rscale>  0 0.18402960E+04</rscale>
<asrwt>0</asrwt>
<pdfrwt beam="1">  1        1 0.10700376E+00 0.18402960E+04</pdfrwt>
<pdfrwt beam="2">  1       -1 0.18727922E+00 0.18402960E+04</pdfrwt>
<totfact> 0.47770778E+00</totfact>
</mgrwt>
</event>
<event>
12    1  0.1519630E-007  0.1346702E+04  0.7818608E-02  0.8993329E-01
          1   -1    0    0  501    0  0.00000000000E+00  0.00000000000E+00  0.20676445191E+04  0.20676445191E+04  0.00000000000E+00 0. -1.
         -1   -1    0    0    0  501 -0.00000000000E+00 -0.00000000000E+00 -0.21928396765E+03  0.21928396765E+03  0.00000000000E+00 0.  1.
         23    2    1    2    0    0  0.34551102872E+03  0.58402801146E+02  0.54409529564E+03  0.65387683251E+03  0.93415540542E+02 0.  0.
        254    2    1    2    0    0 -0.34551102872E+03 -0.58402801146E+02  0.13042652558E+04  0.16330516542E+04  0.91812912474E+03 0.  0.
        -24    2    4    4    0    0 -0.87831716276E+02 -0.16251356401E+03  0.13275761421E+04  0.13427267063E+04  0.79570885539E+02 0.  0.
         24    2    4    4    0    0 -0.25767931244E+03  0.10411076286E+03 -0.23310886293E+02  0.29032494794E+03  0.80669070720E+02 0.  0.
         13    1    3    3    0    0  0.72330274572E+02 -0.85082558504E+01  0.17719151434E+03  0.19157476815E+03  0.00000000000E+00 0. -1.
        -13    1    3    3    0    0  0.27318075415E+03  0.66911056996E+02  0.36690378129E+03  0.46230206436E+03  0.00000000000E+00 0.  1.
          2    1    6    6  502    0 -0.12744341614E+03  0.37751688478E+02 -0.49489602157E+02  0.14183171374E+03  0.00000000000E+00 0. -1.
          3    1    5    5  503    0 -0.88909003764E+02 -0.14895068548E+03  0.13041506923E+04  0.13156367835E+04  0.00000000000E+00 0. -1.
         -4    1    5    5    0  503  0.10772874881E+01 -0.13562878527E+02  0.23425449756E+02  0.27089922822E+02  0.00000000000E+00 0.  1.
         -1    1    6    6    0  502 -0.13023589631E+03  0.66359074383E+02  0.26178715864E+02  0.14849323420E+03  0.00000000000E+00 0.  1.
<mgrwt>
<rscale>  0 0.13467016E+04</rscale>
<asrwt>0</asrwt>
<pdfrwt beam="1">  1        1 0.31809914E+00 0.13467016E+04</pdfrwt>
<pdfrwt beam="2">  1       -1 0.33735997E-01 0.13467016E+04</pdfrwt>
<totfact> 0.21784702E+01</totfact>
</mgrwt>
</event>
<event>
12    1  0.1519630E-007  0.1647232E+04  0.7818608E-02  0.8792046E-01
          1   -1    0    0  501    0  0.00000000000E+00  0.00000000000E+00  0.78946262528E+03  0.78946262528E+03  0.00000000000E+00 0. -1.
         -1   -1    0    0    0  501 -0.00000000000E+00 -0.00000000000E+00 -0.85924695621E+03  0.85924695621E+03  0.00000000000E+00 0.  1.
         23    2    1    2    0    0 -0.16890796255E+03  0.42314260374E+03  0.33491391205E+03  0.57276694073E+03  0.91187044017E+02 0.  0.
        254    2    1    2    0    0  0.16890796255E+03 -0.42314260374E+03 -0.40469824298E+03  0.10759426408E+04  0.88673126450E+03 0.  0.
        -24    2    4    4    0    0  0.15297721769E+03 -0.45432661166E+03  0.15397042074E+03  0.50996885157E+03  0.80911308932E+02 0.  0.
         24    2    4    4    0    0  0.15930744860E+02  0.31184007921E+02 -0.55866866373E+03  0.56597378920E+03  0.83602770591E+02 0.  0.
         13    1    3    3    0    0 -0.10366351296E+03  0.27894469270E+03  0.16382733104E+03  0.33969936694E+03  0.00000000000E+00 0. -1.
        -13    1    3    3    0    0 -0.65244449585E+02  0.14419791104E+03  0.17108658101E+03  0.23306757379E+03  0.00000000000E+00 0.  1.
          2    1    6    6  502    0 -0.16186633998E+02  0.26418447485E+02 -0.74073878505E+02  0.80292471406E+02  0.00000000000E+00 0. -1.
          1    1    5    5  503    0  0.63837354128E+02 -0.14536410273E+03  0.14381340406E+02  0.15941377951E+03  0.00000000000E+00 0. -1.
         -2    1    5    5    0  503  0.89139863559E+02 -0.30896250893E+03  0.13958908034E+03  0.35055507206E+03  0.00000000000E+00 0.  1.
         -1    1    6    6    0  502  0.32117378858E+02  0.47655604356E+01 -0.48459478522E+03  0.48568131780E+03  0.00000000000E+00 0.  1.
<mgrwt>
<rscale>  0 0.16472321E+04</rscale>
<asrwt>0</asrwt>
<pdfrwt beam="1">  1        1 0.12145579E+00 0.16472321E+04</pdfrwt>
<pdfrwt beam="2">  1       -1 0.13219184E+00 0.16472321E+04</pdfrwt>
<totfact> 0.10494758E+01</totfact>
</mgrwt>
</event>
<event>
12    1  0.1519630E-007  0.1704969E+04  0.7818608E-02  0.8758535E-01
         -2   -1    0    0    0  501 -0.00000000000E+00  0.00000000000E+00  0.82891659037E+03  0.82891659037E+03  0.00000000000E+00 0.  1.
          2   -1    0    0  501    0  0.00000000000E+00 -0.00000000000E+00 -0.87672290431E+03  0.87672290431E+03  0.00000000000E+00 0. -1.
         23    2    1    2    0    0 -0.11850213129E+03 -0.14251154227E+03 -0.60134548944E+03  0.63587031263E+03  0.91445951346E+02 0.  0.
        254    2    1    2    0    0  0.11850213129E+03  0.14251154227E+03  0.55353917549E+03  0.10697691821E+04  0.89646427105E+03 0.  0.
        -24    2    4    4    0    0  0.18401801164E+02  0.48947266209E+03  0.48527527689E+03  0.69410481237E+03  0.79795256584E+02 0.  0.
         24    2    4    4    0    0  0.10010033012E+03 -0.34696111983E+03  0.68263898596E+02  0.37566436968E+03  0.77856689076E+02 0.  0.
         11    1    3    3    0    0 -0.23108637005E+02 -0.19416140145E+02 -0.24668884073E+03  0.24852842844E+03  0.00000000000E+00 0. -1.
        -11    1    3    3    0    0 -0.95393494280E+02 -0.12309540212E+03 -0.35465664871E+03  0.38734188419E+03  0.00000000000E+00 0.  1.
          2    1    6    6  502    0  0.29883306054E+02 -0.25652732035E+02  0.16603446474E+02  0.42740485214E+02  0.00000000000E+00 0. -1.
          1    1    5    5  503    0  0.24932218331E+02  0.18014170092E+03  0.22847986962E+03  0.29202003140E+03  0.00000000000E+00 0. -1.
         -2    1    5    5    0  503 -0.65304171665E+01  0.30933096117E+03  0.25679540728E+03  0.40208478097E+03  0.00000000000E+00 0.  1.
         -1    1    6    6    0  502  0.70217024068E+02 -0.32130838779E+03  0.51660452122E+02  0.33292388447E+03  0.00000000000E+00 0.  1.
<mgrwt>
<rscale>  0 0.17049694E+04</rscale>
<asrwt>0</asrwt>
<pdfrwt beam="1">  1        2 0.13488045E+00 0.17049694E+04</pdfrwt>
<pdfrwt beam="2">  1       -2 0.12752563E+00 0.17049694E+04</pdfrwt>
<totfact> 0.13188499E+01</totfact>
</mgrwt>
</event>
<event>
12    1  0.1519630E-007  0.1363907E+04  0.7818608E-02  0.8980367E-01
         -1   -1    0    0    0  501 -0.00000000000E+00  0.00000000000E+00  0.34892748898E+03  0.34892748898E+03  0.00000000000E+00 0.  1.
          1   -1    0    0  501    0  0.00000000000E+00 -0.00000000000E+00 -0.13328295583E+04  0.13328295583E+04  0.00000000000E+00 0. -1.
         23    2    1    2    0    0  0.34197423324E+03 -0.28993008667E+02  0.15649648199E+00  0.35497356176E+03  0.90659992894E+02 0.  0.
        254    2    1    2    0    0 -0.34197423324E+03  0.28993008667E+02 -0.98405856579E+03  0.13267834855E+04  0.82109450478E+03 0.  0.
        -24    2    4    4    0    0 -0.41260809145E+03 -0.29765409527E+03 -0.75497555736E+03  0.91404575904E+03  0.81536248708E+02 0.  0.
         24    2    4    4    0    0  0.70633858214E+02  0.32664710394E+03 -0.22908300844E+03  0.41273772648E+03  0.78650706685E+02 0.  0.
         11    1    3    3    0    0  0.18673557500E+03 -0.47888298933E+02  0.31900594398E+02  0.19539987735E+03  0.00000000000E+00 0. -1.
        -11    1    3    3    0    0  0.15523865823E+03  0.18895290266E+02 -0.31744097916E+02  0.15957368441E+03  0.00000000000E+00 0.  1.
          2    1    6    6  502    0  0.55728877831E+02  0.30079841803E+03 -0.23023814125E+03  0.38287726206E+03  0.00000000000E+00 0. -1.
          1    1    5    5  503    0 -0.37850735750E+03 -0.27006822024E+03 -0.64072290935E+03  0.79166312901E+03  0.00000000000E+00 0. -1.
         -2    1    5    5    0  503 -0.34100733945E+02 -0.27585875033E+02 -0.11425264800E+03  0.12238263003E+03  0.00000000000E+00 0.  1.
         -1    1    6    6    0  502  0.14904980383E+02  0.25848685907E+02  0.11551328113E+01  0.29860464416E+02  0.00000000000E+00 0.  1.
<mgrwt>
<rscale>  0 0.13639074E+04</rscale>
<asrwt>0</asrwt>
<pdfrwt beam="1">  1        1 0.20505071E+00 0.13639074E+04</pdfrwt>
<pdfrwt beam="2">  1       -1 0.53681151E-01 0.13639074E+04</pdfrwt>
<totfact> 0.29344657E+01</totfact>
</mgrwt>
</event>
<event>
12    1  0.1519630E-007  0.2239796E+04  0.7818608E-02  0.8502044E-01
         -2   -1    0    0    0  501 -0.00000000000E+00  0.00000000000E+00  0.57541340965E+03  0.57541340965E+03  0.00000000000E+00 0.  1.
          2   -1    0    0  501    0  0.00000000000E+00 -0.00000000000E+00 -0.21796006765E+04  0.21796006765E+04  0.00000000000E+00 0. -1.
         23    2    1    2    0    0 -0.54230263012E+03  0.62858660031E+03 -0.13790119938E+03  0.84649695141E+03  0.91252897155E+02 0.  0.
        254    2    1    2    0    0  0.54230263012E+03 -0.62858660031E+03 -0.14662860675E+04  0.19085171348E+04  0.89623075445E+03 0.  0.
        -24    2    4    4    0    0  0.33426649373E+03  0.93666242623E+02 -0.14054237820E+03  0.38280491999E+03  0.79246405984E+02 0.  0.
         24    2    4    4    0    0  0.20803613639E+03 -0.72225284293E+03 -0.13257436893E+04  0.15257122148E+04  0.72617005148E+02 0.  0.
         13    1    3    3    0    0 -0.20166643626E+03  0.30244974579E+03 -0.54228005756E+02  0.36754030643E+03  0.00000000000E+00 0.  1.
        -13    1    3    3    0    0 -0.34063619386E+03  0.32613685451E+03 -0.83673193621E+02  0.47895664498E+03  0.00000000000E+00 0. -1.
          4    1    6    6  502    0  0.17482000032E+03 -0.48491428644E+03 -0.90420112972E+03  0.10408090991E+04  0.00000000000E+00 0. -1.
          1    1    5    5  503    0  0.19781088204E+03  0.74233915042E+02 -0.47638136570E+02  0.21658534404E+03  0.00000000000E+00 0. -1.
         -2    1    5    5    0  503  0.13645561168E+03  0.19432327581E+02 -0.92904241633E+02  0.16621957595E+03  0.00000000000E+00 0.  1.
         -3    1    6    6    0  502  0.33216136074E+02 -0.23733855649E+03 -0.42154255959E+03  0.48490311572E+03  0.00000000000E+00 0.  1.
<mgrwt>
<rscale>  0 0.22397959E+04</rscale>
<asrwt>0</asrwt>
<pdfrwt beam="1">  1        2 0.33532318E+00 0.22397959E+04</pdfrwt>
<pdfrwt beam="2">  1       -2 0.88525139E-01 0.22397959E+04</pdfrwt>
<totfact> 0.53025120E+00</totfact>
</mgrwt>
</event>
<event>
12    1  0.1519630E-007  0.2134346E+04  0.7818608E-02  0.8546263E-01
         -1   -1    0    0    0  501 -0.00000000000E+00  0.00000000000E+00  0.67487984516E+03  0.67487984516E+03  0.00000000000E+00 0.  1.
          1   -1    0    0  501    0  0.00000000000E+00 -0.00000000000E+00 -0.16874981468E+04  0.16874981468E+04  0.00000000000E+00 0. -1.
         23    2    1    2    0    0 -0.81166514121E+03  0.19253992568E+03 -0.12740274229E+03  0.84857460845E+03  0.89305559335E+02 0.  0.
        254    2    1    2    0    0  0.81166514121E+03 -0.19253992568E+03 -0.88521555933E+03  0.15138033835E+04  0.90117821375E+03 0.  0.
        -24    2    4    4    0    0  0.46461293310E+03  0.31918195087E+02  0.62440951686E+02  0.47676420749E+03  0.80754494112E+02 0.  0.
         24    2    4    4    0    0  0.34705220811E+03 -0.22445812077E+03 -0.94765651101E+03  0.10370391760E+04  0.81059894757E+02 0.  0.
         11    1    3    3    0    0 -0.72763654686E+03  0.14346346551E+03 -0.11216629557E+03  0.75007865462E+03  0.00000000000E+00 0. -1.
        -11    1    3    3    0    0 -0.84028594355E+02  0.49076460173E+02 -0.15236446725E+02  0.98495953832E+02  0.00000000000E+00 0.  1.
          2    1    6    6  502    0  0.13848816850E+03 -0.49919744871E+02 -0.28577746643E+03  0.32146494997E+03  0.00000000000E+00 0. -1.
          3    1    5    5  503    0  0.13371932820E+03  0.88355175167E+01 -0.18638353059E+02  0.13530082523E+03  0.00000000000E+00 0. -1.
         -4    1    5    5    0  503  0.33089360490E+03  0.23082677570E+02  0.81079304745E+02  0.34146338226E+03  0.00000000000E+00 0.  1.
         -1    1    6    6    0  502  0.20856403961E+03 -0.17453837589E+03 -0.66187904459E+03  0.71557422602E+03  0.00000000000E+00 0.  1.
<mgrwt>
<rscale>  0 0.21343463E+04</rscale>
<asrwt>0</asrwt>
<pdfrwt beam="1">  1        1 0.25961510E+00 0.21343463E+04</pdfrwt>
<pdfrwt beam="2">  1       -1 0.10382767E+00 0.21343463E+04</pdfrwt>
<totfact> 0.38945919E+00</totfact>
</mgrwt>
</event>
<event>
12    1  0.1519630E-007  0.2185364E+04  0.7818608E-02  0.8524545E-01
          1   -1    0    0  501    0  0.00000000000E+00  0.00000000000E+00  0.59835390715E+03  0.59835390715E+03  0.00000000000E+00 0. -1.
         -1   -1    0    0    0  501 -0.00000000000E+00 -0.00000000000E+00 -0.19953981139E+04  0.19953981139E+04  0.00000000000E+00 0.  1.
         23    2    1    2    0    0  0.62108372984E+01  0.76692820883E+03 -0.11419706598E+04  0.13786314877E+04  0.91161062024E+02 0.  0.
        254    2    1    2    0    0 -0.62108372984E+01 -0.76692820883E+03 -0.25507354700E+03  0.12151205333E+04  0.90732460792E+03 0.  0.
        -24    2    4    4    0    0 -0.20888777628E+03 -0.89542571694E+03 -0.27363229954E+03  0.96269650944E+03  0.80551947857E+02 0.  0.
         24    2    4    4    0    0  0.20267693898E+03  0.12849750811E+03  0.18558752541E+02  0.25242402388E+03  0.76052017386E+02 0.  0.
         13    1    3    3    0    0  0.27480831542E+02  0.72263665045E+03 -0.10734039484E+04  0.12942777758E+04  0.00000000000E+00 0.  1.
        -13    1    3    3    0    0 -0.21269994243E+02  0.44291558381E+02 -0.68566711401E+02  0.84353711900E+02  0.00000000000E+00 0. -1.
          4    1    6    6  502    0  0.14702812757E+03  0.12226140747E+03 -0.59167201391E+01  0.19131160349E+03  0.00000000000E+00 0. -1.
          3    1    5    5  503    0 -0.15581987024E+03 -0.75866491427E+03 -0.20771720611E+03  0.80187201087E+03  0.00000000000E+00 0. -1.
         -4    1    5    5    0  503 -0.53067906039E+02 -0.13676080268E+03 -0.65915093434E+02  0.16082449858E+03  0.00000000000E+00 0.  1.
         -3    1    6    6    0  502  0.55648811413E+02  0.62361006473E+01  0.24475472680E+02  0.61112420390E+02  0.00000000000E+00 0.  1.
<mgrwt>
<rscale>  0 0.21853643E+04</rscale>
<asrwt>0</asrwt>
<pdfrwt beam="1">  1        1 0.92054447E-01 0.21853643E+04</pdfrwt>
<pdfrwt beam="2">  1       -1 0.30698433E+00 0.21853643E+04</pdfrwt>
<totfact> 0.93428150E-01</totfact>
</mgrwt>
</event>
<event>
12    1  0.1519630E-007  0.2422871E+04  0.7818608E-02  0.8430990E-01
         -2   -1    0    0    0  501 -0.00000000000E+00  0.00000000000E+00  0.11748030411E+04  0.11748030411E+04  0.00000000000E+00 0.  1.
          2   -1    0    0  501    0  0.00000000000E+00 -0.00000000000E+00 -0.12492099073E+04  0.12492099073E+04  0.00000000000E+00 0. -1.
         23    2    1    2    0    0 -0.11482627563E+02  0.90795950397E+03 -0.54860573755E+03  0.10648228442E+04  0.91417299434E+02 0.  0.
        254    2    1    2    0    0  0.11482627563E+02 -0.90795950397E+03  0.47419887130E+03  0.13591901042E+04  0.89331453486E+03 0.  0.
        -24    2    4    4    0    0  0.29325097851E+03 -0.85790348804E+03  0.53405742004E+03  0.10552841007E+04  0.80079173930E+02 0.  0.
         24    2    4    4    0    0 -0.28176835094E+03 -0.50056015924E+02 -0.59858548742E+02  0.30390600348E+03  0.82926502231E+02 0.  0.
         13    1    3    3    0    0  0.43617792414E+01  0.84004560938E+03 -0.48266025678E+03  0.96884290493E+03  0.00000000000E+00 0. -1.
        -13    1    3    3    0    0 -0.15844406805E+02  0.67913894587E+02 -0.65945480761E+02  0.95979939246E+02  0.00000000000E+00 0.  1.
          2    1    6    6  502    0 -0.38203646981E+02  0.14948227057E+02  0.10178596350E+02  0.42267859639E+02  0.00000000000E+00 0. -1.
          3    1    5    5  503    0  0.34124740869E+02 -0.19690930902E+03  0.10525842305E+03  0.22586967380E+03  0.00000000000E+00 0. -1.
         -4    1    5    5    0  503  0.25912623764E+03 -0.66099417903E+03  0.42879899699E+03  0.82941442691E+03  0.00000000000E+00 0.  1.
         -1    1    6    6    0  502 -0.24356470396E+03 -0.65004242981E+02 -0.70037145092E+02  0.26163814384E+03  0.00000000000E+00 0.  1.
<mgrwt>
<rscale>  0 0.24228707E+04</rscale>
<asrwt>0</asrwt>
<pdfrwt beam="1">  1        2 0.19218614E+00 0.24228707E+04</pdfrwt>
<pdfrwt beam="2">  1       -2 0.18073893E+00 0.24228707E+04</pdfrwt>
<totfact> 0.28481966E+00</totfact>
</mgrwt>
</event>
<event>
12    1  0.1519630E-007  0.2518884E+04  0.7818608E-02  0.8396289E-01
         -2   -1    0    0    0  501 -0.00000000000E+00  0.00000000000E+00  0.92443955283E+03  0.92443955283E+03  0.00000000000E+00 0.  1.
          2   -1    0    0  501    0  0.00000000000E+00 -0.00000000000E+00 -0.17158439317E+04  0.17158439317E+04  0.00000000000E+00 0. -1.
         23    2    1    2    0    0  0.46028157841E+03 -0.41761250041E+03  0.60502989614E+03  0.87220923358E+03  0.91806535660E+02 0.  0.
        254    2    1    2    0    0 -0.46028157841E+03  0.41761250041E+03 -0.13964342750E+04  0.17680742510E+04  0.88870610473E+03 0.  0.
        -24    2    4    4    0    0 -0.36206555793E+02  0.92515589402E+01  0.11581096456E+03  0.14335945682E+03  0.75784222117E+02 0.  0.
         24    2    4    4    0    0 -0.42407502262E+03  0.40836094147E+03 -0.15122452396E+04  0.16247147942E+04  0.78830288631E+02 0.  0.
         13    1    3    3    0    0  0.33141273052E+03 -0.25246838551E+03  0.36793726767E+03  0.55583497243E+03  0.00000000000E+00 0. -1.
        -13    1    3    3    0    0  0.12886884789E+03 -0.16514411490E+03  0.23709262847E+03  0.31637426114E+03  0.00000000000E+00 0.  1.
          4    1    6    6  502    0 -0.96842936506E+02  0.14269527563E+03 -0.44648188694E+03  0.47862988979E+03  0.00000000000E+00 0. -1.
          1    1    5    5  503    0 -0.11275846572E+02  0.67778607558E+01 -0.90768509362E+01  0.15983533253E+02  0.00000000000E+00 0. -1.
         -2    1    5    5    0  503 -0.24930709222E+02  0.24736981844E+01  0.12488781549E+03  0.12737592356E+03  0.00000000000E+00 0.  1.
         -3    1    6    6    0  502 -0.32723208611E+03  0.26566566583E+03 -0.10657633527E+04  0.11460849044E+04  0.00000000000E+00 0.  1.
<mgrwt>
<rscale>  0 0.25188839E+04</rscale>
<asrwt>0</asrwt>
<pdfrwt beam="1">  1        2 0.26397599E+00 0.25188839E+04</pdfrwt>
<pdfrwt beam="2">  1       -2 0.14222147E+00 0.25188839E+04</pdfrwt>
<totfact> 0.29503561E+00</totfact>
</mgrwt>
</event>
<event>
12    1  0.1519630E-007  0.1724984E+04  0.7818608E-02  0.8747242E-01
         -2   -1    0    0    0  501 -0.00000000000E+00  0.00000000000E+00  0.25951301929E+03  0.25951301929E+03  0.00000000000E+00 0.  1.
          2   -1    0    0  501    0  0.00000000000E+00 -0.00000000000E+00 -0.28664928739E+04  0.28664928739E+04  0.00000000000E+00 0. -1.
         23    2    1    2    0    0 -0.17210998121E+03  0.18188661525E+03  0.84406261208E+02  0.27962998354E+03  0.91454493176E+02 0.  0.
        254    2    1    2    0    0  0.17210998121E+03 -0.18188661525E+03 -0.26913861158E+04  0.28463759096E+04  0.89195964494E+03 0.  0.
        -24    2    4    4    0    0  0.35888113455E+03  0.23126097408E+03 -0.93949802556E+03  0.10350169371E+04  0.79537494939E+02 0.  0.
         24    2    4    4    0    0 -0.18677115334E+03 -0.41314758933E+03 -0.17518880903E+04  0.18113589726E+04  0.79593043166E+02 0.  0.
         13    1    3    3    0    0  0.26828001913E+01 -0.45161025598E+01  0.13429511491E+02  0.14420276630E+02  0.00000000000E+00 0. -1.
        -13    1    3    3    0    0 -0.17479278140E+03  0.18640271781E+03  0.70976749717E+02  0.26520970691E+03  0.00000000000E+00 0.  1.
          4    1    6    6  502    0 -0.17318014844E+03 -0.30018061155E+03 -0.13200234461E+04  0.13647569973E+04  0.00000000000E+00 0. -1.
          1    1    5    5  503    0  0.24333934140E+03  0.18183547738E+03 -0.73053624432E+03  0.79117721162E+03  0.00000000000E+00 0. -1.
         -2    1    5    5    0  503  0.11554179314E+03  0.49425496697E+02 -0.20896178124E+03  0.24383972544E+03  0.00000000000E+00 0.  1.
         -3    1    6    6    0  502 -0.13591004898E+02 -0.11296697778E+03 -0.43186464411E+03  0.44660197527E+03  0.00000000000E+00 0.  1.
<mgrwt>
<rscale>  0 0.17249837E+04</rscale>
<asrwt>0</asrwt>
<pdfrwt beam="1">  1        2 0.44099890E+00 0.17249837E+04</pdfrwt>
<pdfrwt beam="2">  1       -2 0.39925080E-01 0.17249837E+04</pdfrwt>
<totfact> 0.11918328E+01</totfact>
</mgrwt>
</event>
<event>
12    1  0.1519630E-007  0.1120903E+04  0.7818608E-02  0.9185054E-01
         -2   -1    0    0    0  501 -0.00000000000E+00  0.00000000000E+00  0.17592878586E+03  0.17592878586E+03  0.00000000000E+00 0.  1.
          2   -1    0    0  501    0  0.00000000000E+00 -0.00000000000E+00 -0.17854162578E+04  0.17854162578E+04  0.00000000000E+00 0. -1.
         23    2    1    2    0    0 -0.13182003195E+03 -0.24266816341E+02 -0.43844440282E+02  0.16628330301E+03  0.88104498842E+02 0.  0.
        254    2    1    2    0    0  0.13182003195E+03  0.24266816341E+02 -0.15656430316E+04  0.17950617406E+04  0.86778058919E+03 0.  0.
        -24    2    4    4    0    0  0.35207923416E+03 -0.29896628889E+03 -0.70474673556E+03  0.84629875527E+03  0.78822540279E+02 0.  0.
         24    2    4    4    0    0 -0.22025920221E+03  0.32323310524E+03 -0.86089629606E+03  0.94876298536E+03  0.77556517059E+02 0.  0.
         11    1    3    3    0    0 -0.95784962968E+02  0.11985695130E+02  0.35214563564E+01  0.96596152478E+02  0.00000000000E+00 0.  1.
        -11    1    3    3    0    0 -0.36035068984E+02 -0.36252511471E+02 -0.47365896638E+02  0.69687150530E+02  0.00000000000E+00 0. -1.
          4    1    6    6  502    0 -0.15333118389E+03  0.19281526383E+03 -0.61475624492E+03  0.66227895828E+03  0.00000000000E+00 0. -1.
          3    1    5    5  503    0  0.34867884897E+03 -0.29832133083E+03 -0.70647925152E+03  0.84242832869E+03  0.00000000000E+00 0. -1.
         -4    1    5    5    0  503  0.34003851923E+01 -0.64495806596E+00  0.17325159575E+01  0.38704265793E+01  0.00000000000E+00 0.  1.
         -3    1    6    6    0  502 -0.66928018317E+02  0.13041784141E+03 -0.24614005114E+03  0.28648402707E+03  0.00000000000E+00 0.  1.
<mgrwt>
<rscale>  0 0.11209034E+04</rscale>
<asrwt>0</asrwt>
<pdfrwt beam="1">  1        2 0.27467941E+00 0.11209034E+04</pdfrwt>
<pdfrwt beam="2">  1       -2 0.27065969E-01 0.11209034E+04</pdfrwt>
<totfact> 0.10822059E+02</totfact>
</mgrwt>
</event>
<event>
12    1  0.1519630E-007  0.1447467E+04  0.7818608E-02  0.8920159E-01
          1   -1    0    0  501    0  0.00000000000E+00  0.00000000000E+00  0.16027280779E+04  0.16027280779E+04  0.00000000000E+00 0. -1.
         -1   -1    0    0    0  501 -0.00000000000E+00 -0.00000000000E+00 -0.32681141772E+03  0.32681141772E+03  0.00000000000E+00 0.  1.
         23    2    1    2    0    0  0.27004785448E+03 -0.34151242501E+03  0.44678280395E+03  0.62984199930E+03  0.86772634090E+02 0.  0.
        254    2    1    2    0    0 -0.27004785448E+03  0.34151242501E+03  0.82913385620E+03  0.12996974963E+04  0.90121809249E+03 0.  0.
        -24    2    4    4    0    0  0.51791448711E+02 -0.40837983715E+02  0.78373970456E+03  0.79051508319E+03  0.79473751481E+02 0.  0.
         24    2    4    4    0    0 -0.32183930320E+03  0.38235040873E+03  0.45394151637E+02  0.50918241311E+03  0.86219073752E+02 0.  0.
         11    1    3    3    0    0  0.25779931991E+03 -0.32396452906E+03  0.38850147776E+03  0.56775602476E+03  0.00000000000E+00 0. -1.
        -11    1    3    3    0    0  0.12248534576E+02 -0.17547895955E+02  0.58281326191E+02  0.62085974538E+02  0.00000000000E+00 0.  1.
          4    1    6    6  502    0 -0.22812433348E+03  0.31541355258E+03  0.12719789813E+02  0.38947171108E+03  0.00000000000E+00 0. -1.
          3    1    5    5  503    0  0.64160711860E+02 -0.54645724837E+02  0.66898117126E+03  0.67426890755E+03  0.00000000000E+00 0. -1.
         -4    1    5    5    0  503 -0.12369263149E+02  0.13807741121E+02  0.11475853330E+03  0.11624617564E+03  0.00000000000E+00 0.  1.
         -3    1    6    6    0  502 -0.93714969715E+02  0.66936856149E+02  0.32674361825E+02  0.11971070203E+03  0.00000000000E+00 0.  1.
<mgrwt>
<rscale>  0 0.14474665E+04</rscale>
<asrwt>0</asrwt>
<pdfrwt beam="1">  1        1 0.24657355E+00 0.14474665E+04</pdfrwt>
<pdfrwt beam="2">  1       -1 0.50278681E-01 0.14474665E+04</pdfrwt>
<totfact> 0.21435620E+01</totfact>
</mgrwt>
</event>
<event>
12    1  0.1519630E-007  0.1603843E+04  0.7818608E-02  0.8818190E-01
          1   -1    0    0  501    0  0.00000000000E+00  0.00000000000E+00  0.39612185991E+03  0.39612185991E+03  0.00000000000E+00 0. -1.
         -1   -1    0    0    0  501 -0.00000000000E+00 -0.00000000000E+00 -0.16234353620E+04  0.16234353620E+04  0.00000000000E+00 0.  1.
         23    2    1    2    0    0  0.53152328059E+03 -0.87151010817E+02 -0.53714207047E+03  0.76600846081E+03  0.90194576640E+02 0.  0.
        254    2    1    2    0    0 -0.53152328059E+03  0.87151010817E+02 -0.69017143166E+03  0.12535487612E+04  0.89718203003E+03 0.  0.
        -24    2    4    4    0    0 -0.21714447039E+03  0.21492640111E+03 -0.82273111491E+03  0.88108379417E+03  0.77955666784E+02 0.  0.
         24    2    4    4    0    0 -0.31437881020E+03 -0.12777539030E+03  0.13255968325E+03  0.37246496698E+03  0.77443497720E+02 0.  0.
         13    1    3    3    0    0  0.48963070442E+03 -0.62794651125E+02 -0.45902047127E+03  0.67407802810E+03  0.00000000000E+00 0.  1.
        -13    1    3    3    0    0  0.41892576174E+02 -0.24356359691E+02 -0.78121599199E+02  0.91930432705E+02  0.00000000000E+00 0. -1.
          2    1    6    6  502    0 -0.22601702550E+02 -0.44386337270E+01 -0.99750823821E+01  0.25100611468E+02  0.00000000000E+00 0. -1.
          3    1    5    5  503    0 -0.24167086583E+02  0.22855014724E+02 -0.38212749866E+02  0.50661760967E+02  0.00000000000E+00 0. -1.
         -4    1    5    5    0  503 -0.19297738381E+03  0.19207138639E+03 -0.78451836505E+03  0.83042203320E+03  0.00000000000E+00 0.  1.
         -1    1    6    6    0  502 -0.29177710765E+03 -0.12333675657E+03  0.14253476563E+03  0.34736435552E+03  0.00000000000E+00 0.  1.
<mgrwt>
<rscale>  0 0.16038432E+04</rscale>
<asrwt>0</asrwt>
<pdfrwt beam="1">  1        1 0.60941825E-01 0.16038432E+04</pdfrwt>
<pdfrwt beam="2">  1       -1 0.24975929E+00 0.16038432E+04</pdfrwt>
<totfact> 0.40811831E+00</totfact>
</mgrwt>
</event>
<event>
12    1  0.1519630E-007  0.1387190E+04  0.7818608E-02  0.8963144E-01
         -1   -1    0    0    0  501 -0.00000000000E+00  0.00000000000E+00  0.27410702950E+03  0.27410702950E+03  0.00000000000E+00 0.  1.
          1   -1    0    0  501    0  0.00000000000E+00 -0.00000000000E+00 -0.17550590033E+04  0.17550590033E+04  0.00000000000E+00 0. -1.
         23    2    1    2    0    0  0.19030607875E+03 -0.12161078768E+03 -0.90363680215E+03  0.93590075638E+03  0.91351892719E+02 0.  0.
        254    2    1    2    0    0 -0.19030607875E+03  0.12161078768E+03 -0.57731517170E+03  0.10932652765E+04  0.90051683492E+03 0.  0.
        -24    2    4    4    0    0  0.10390473370E+02  0.40909608191E+03 -0.60267879911E+03  0.73280279732E+03  0.79439528497E+02 0.  0.
         24    2    4    4    0    0 -0.20069655212E+03 -0.28748529423E+03  0.25363627408E+02  0.36046247915E+03  0.79768319824E+02 0.  0.
         13    1    3    3    0    0  0.24646681888E+01  0.80170456687E+01 -0.10383569645E+03  0.10417389053E+03  0.00000000000E+00 0.  1.
        -13    1    3    3    0    0  0.18784141056E+03 -0.12962783335E+03 -0.79980110569E+03  0.83172686585E+03  0.00000000000E+00 0. -1.
          2    1    6    6  502    0 -0.13194611634E+03 -0.13630511616E+03  0.39525955761E+02  0.19378122584E+03  0.00000000000E+00 0. -1.
          1    1    5    5  503    0 -0.31538459472E+01  0.34670677916E+03 -0.45610575029E+03  0.57292930882E+03  0.00000000000E+00 0. -1.
         -2    1    5    5    0  503  0.13544319317E+02  0.62389302753E+02 -0.14657304882E+03  0.15987348849E+03  0.00000000000E+00 0.  1.
         -1    1    6    6    0  502 -0.68750435785E+02 -0.15118017807E+03 -0.14162328353E+02  0.16668125332E+03  0.00000000000E+00 0.  1.
<mgrwt>
<rscale>  0 0.13871900E+04</rscale>
<asrwt>0</asrwt>
<pdfrwt beam="1">  1        1 0.27000907E+00 0.13871900E+04</pdfrwt>
<pdfrwt beam="2">  1       -1 0.42170313E-01 0.13871900E+04</pdfrwt>
<totfact> 0.23583466E+01</totfact>
</mgrwt>
</event>
<event>
12    1  0.1519630E-007  0.1134223E+04  0.7818608E-02  0.9172463E-01
         -2   -1    0    0    0  501 -0.00000000000E+00  0.00000000000E+00  0.36399278320E+03  0.36399278320E+03  0.00000000000E+00 0.  1.
          2   -1    0    0  501    0  0.00000000000E+00 -0.00000000000E+00 -0.88357624497E+03  0.88357624497E+03  0.00000000000E+00 0. -1.
         23    2    1    2    0    0 -0.15726281711E+03 -0.72232237828E+02 -0.21425477249E+02  0.19691239867E+03  0.91467763996E+02 0.  0.
        254    2    1    2    0    0  0.15726281711E+03  0.72232237828E+02 -0.49815798452E+03  0.10506566295E+04  0.90871826532E+03 0.  0.
        -24    2    4    4    0    0  0.50660016017E+03 -0.88833320823E+02 -0.20454812805E+03  0.55948035324E+03  0.81506121204E+02 0.  0.
         24    2    4    4    0    0 -0.34933734307E+03  0.16106555865E+03 -0.29360985647E+03  0.49117627625E+03  0.84075520171E+02 0.  0.
         11    1    3    3    0    0 -0.88564271991E+02 -0.30607259451E+02  0.33601676947E+02  0.99546508216E+02  0.00000000000E+00 0.  1.
        -11    1    3    3    0    0 -0.68698545114E+02 -0.41624978377E+02 -0.55027154196E+02  0.97365890457E+02  0.00000000000E+00 0. -1.
          2    1    6    6  502    0 -0.20659103617E+03  0.75726468754E+02 -0.11945739005E+03  0.25036857298E+03  0.00000000000E+00 0. -1.
          3    1    5    5  503    0  0.43524599160E+03 -0.78639678280E+02 -0.20478475766E+03  0.48740134302E+03  0.00000000000E+00 0. -1.
         -4    1    5    5    0  503  0.71354168573E+02 -0.10193642542E+02  0.23662960706E+00  0.72079010222E+02  0.00000000000E+00 0.  1.
         -3    1    6    6    0  502 -0.14274630689E+03  0.85339089896E+02 -0.17415246642E+03  0.24080770327E+03  0.00000000000E+00 0.  1.
<mgrwt>
<rscale>  0 0.11342229E+04</rscale>
<asrwt>0</asrwt>
<pdfrwt beam="1">  1        2 0.13593481E+00 0.11342229E+04</pdfrwt>
<pdfrwt beam="2">  1       -2 0.55998890E-01 0.11342229E+04</pdfrwt>
<totfact> 0.89278318E+01</totfact>
</mgrwt>
</event>
<event>
12    1  0.1519630E-007  0.1576848E+04  0.7818608E-02  0.8834899E-01
          1   -1    0    0  501    0  0.00000000000E+00  0.00000000000E+00  0.93938515753E+03  0.93938515753E+03  0.00000000000E+00 0. -1.
         -1   -1    0    0    0  501 -0.00000000000E+00 -0.00000000000E+00 -0.66172248057E+03  0.66172248057E+03  0.00000000000E+00 0.  1.
         23    2    1    2    0    0  0.38613135721E+03 -0.24465243486E+03  0.35814487197E+03  0.58748731408E+03  0.89001999850E+02 0.  0.
        254    2    1    2    0    0 -0.38613135721E+03  0.24465243486E+03 -0.80482195016E+02  0.10136203240E+04  0.90110850548E+03 0.  0.
        -24    2    4    4    0    0 -0.24714197741E+03  0.46306295115E+02 -0.47529910097E+03  0.54362078092E+03  0.79943030351E+02 0.  0.
         24    2    4    4    0    0 -0.13898937980E+03  0.19834613975E+03  0.39481690595E+03  0.46999954311E+03  0.79749247285E+02 0.  0.
         11    1    3    3    0    0  0.16848820629E+03 -0.91927470946E+02  0.97993867533E+02  0.21550344231E+03  0.00000000000E+00 0.  1.
        -11    1    3    3    0    0  0.21764315093E+03 -0.15272496392E+03  0.26015100443E+03  0.37198387177E+03  0.00000000000E+00 0. -1.
          2    1    6    6  502    0 -0.71513798444E+02  0.16207068511E+03  0.25365638031E+03  0.30939083634E+03  0.00000000000E+00 0. -1.
          1    1    5    5  503    0 -0.15506768466E+03  0.33614334205E+01 -0.22302105761E+03  0.27165359964E+03  0.00000000000E+00 0. -1.
         -2    1    5    5    0  503 -0.92074292743E+02  0.42944861695E+02 -0.25227804336E+03  0.27196718128E+03  0.00000000000E+00 0.  1.
         -1    1    6    6    0  502 -0.67475581361E+02  0.36275454639E+02  0.14116052564E+03  0.16060870676E+03  0.00000000000E+00 0.  1.
<mgrwt>
<rscale>  0 0.15768478E+04</rscale>
<asrwt>0</asrwt>
<pdfrwt beam="1">  1        1 0.14452079E+00 0.15768478E+04</pdfrwt>
<pdfrwt beam="2">  1       -1 0.10180346E+00 0.15768478E+04</pdfrwt>
<totfact> 0.14867832E+01</totfact>
</mgrwt>
</event>
<event>
12    1  0.1519630E-007  0.4031938E+04  0.7818608E-02  0.7998135E-01
          2   -1    0    0  501    0  0.00000000000E+00  0.00000000000E+00  0.44943562156E+04  0.44943562156E+04  0.00000000000E+00 0. -1.
         -2   -1    0    0    0  501 -0.00000000000E+00 -0.00000000000E+00 -0.90427425526E+03  0.90427425526E+03  0.00000000000E+00 0.  1.
         23    2    1    2    0    0 -0.11550263804E+04  0.14243258021E+04  0.96889870999E+03  0.20761680779E+04  0.94441766427E+02 0.  0.
        254    2    1    2    0    0  0.11550263804E+04 -0.14243258021E+04  0.26211832503E+04  0.33224623930E+04  0.89742118919E+03 0.  0.
        -24    2    4    4    0    0  0.47025125041E+03 -0.10829574452E+04  0.10892133661E+04  0.16082577652E+04  0.78576177554E+02 0.  0.
         24    2    4    4    0    0  0.68477512999E+03 -0.34136835691E+03  0.15319698842E+04  0.17142046278E+04  0.78207710386E+02 0.  0.
         13    1    3    3    0    0 -0.72119864393E+03  0.83069173385E+03  0.54914326820E+03  0.12295261566E+04  0.00000000000E+00 0. -1.
        -13    1    3    3    0    0 -0.43382773647E+03  0.59363406829E+03  0.41975544180E+03  0.84664192129E+03  0.00000000000E+00 0.  1.
          4    1    6    6  502    0  0.20918237346E+03 -0.69952832659E+02  0.47974677189E+03  0.52802237576E+03  0.00000000000E+00 0. -1.
          1    1    5    5  503    0  0.42582509501E+03 -0.92794038361E+03  0.96293737734E+03  0.14034417550E+04  0.00000000000E+00 0. -1.
         -2    1    5    5    0  503  0.44426155399E+02 -0.15501706162E+03  0.12627598874E+03  0.20481601014E+03  0.00000000000E+00 0.  1.
         -3    1    6    6    0  502  0.47559275653E+03 -0.27141552425E+03  0.10522231123E+04  0.11861822520E+04  0.00000000000E+00 0.  1.
<mgrwt>
<rscale>  0 0.40319378E+04</rscale>
<asrwt>0</asrwt>
<pdfrwt beam="1">  1        2 0.69143941E+00 0.40319378E+04</pdfrwt>
<pdfrwt beam="2">  1       -2 0.13911912E+00 0.40319378E+04</pdfrwt>
<totfact> 0.35552879E-02</totfact>
</mgrwt>
</event>
<event>
12    1  0.1519630E-007  0.1693424E+04  0.7818608E-02  0.8765124E-01
          2   -1    0    0  501    0  0.00000000000E+00  0.00000000000E+00  0.77694671962E+03  0.77694671962E+03  0.00000000000E+00 0.  1.
         -2   -1    0    0    0  501 -0.00000000000E+00 -0.00000000000E+00 -0.92274135488E+03  0.92274135488E+03  0.00000000000E+00 0. -1.
         23    2    1    2    0    0 -0.22331674115E+03 -0.56256995034E+03  0.92327356853E+01  0.61208338086E+03  0.90584247060E+02 0.  0.
        254    2    1    2    0    0  0.22331674115E+03  0.56256995034E+03 -0.15502737094E+03  0.10876046936E+04  0.89022197682E+03 0.  0.
        -24    2    4    4    0    0  0.43611355759E+03  0.68339352881E+03 -0.74918483802E+02  0.81817316796E+03  0.81072826591E+02 0.  0.
         24    2    4    4    0    0 -0.21279681644E+03 -0.12082357848E+03 -0.80108887141E+02  0.26943152569E+03  0.79341609720E+02 0.  0.
         11    1    3    3    0    0  0.40367517671E+01 -0.46893958935E+02 -0.10274252683E+02  0.48175709830E+02  0.00000000000E+00 0. -1.
        -11    1    3    3    0    0 -0.22735349292E+03 -0.51567599140E+03  0.19506988368E+02  0.56390767103E+03  0.00000000000E+00 0.  1.
          4    1    6    6  502    0 -0.19785270228E+03 -0.11168981513E+03 -0.95173529756E+02  0.24632967213E+03  0.00000000000E+00 0. -1.
          3    1    5    5  503    0  0.37636748190E+03  0.62243335482E+03 -0.84556446030E+02  0.73227423496E+03  0.00000000000E+00 0. -1.
         -4    1    5    5    0  503  0.59746075691E+02  0.60960173994E+02  0.96379622287E+01  0.85898932996E+02  0.00000000000E+00 0.  1.
         -3    1    6    6    0  502 -0.14944114158E+02 -0.91337633501E+01  0.15064642615E+02  0.23101853563E+02  0.00000000000E+00 0.  1.
<mgrwt>
<rscale>  0 0.16934236E+04</rscale>
<asrwt>0</asrwt>
<pdfrwt beam="1">  1        2 0.11953026E+00 0.16934236E+04</pdfrwt>
<pdfrwt beam="2">  1       -2 0.14196021E+00 0.16934236E+04</pdfrwt>
<totfact> 0.11803825E+01</totfact>
</mgrwt>
</event>
<event>
12    1  0.1519630E-007  0.2669214E+04  0.7818608E-02  0.8345063E-01
         -2   -1    0    0    0  501 -0.00000000000E+00  0.00000000000E+00  0.46717281511E+03  0.46717281511E+03  0.00000000000E+00 0.  1.
          2   -1    0    0  501    0  0.00000000000E+00 -0.00000000000E+00 -0.38126711664E+04  0.38126711664E+04  0.00000000000E+00 0. -1.
         23    2    1    2    0    0  0.25062782442E+03  0.24732655517E+03 -0.32890295447E+04  0.33092378877E+04  0.96722904218E+02 0.  0.
        254    2    1    2    0    0 -0.25062782442E+03 -0.24732655517E+03 -0.56468806592E+02  0.97060609381E+03  0.90271963087E+03 0.  0.
        -24    2    4    4    0    0 -0.36211414952E+03  0.24260493391E+03 -0.11366587897E+03  0.45857695553E+03  0.85959763040E+02 0.  0.
         24    2    4    4    0    0  0.11148632509E+03 -0.48993148908E+03  0.57197072373E+02  0.51202913828E+03  0.80251284642E+02 0.  0.
         13    1    3    3    0    0  0.74814063886E+02  0.30928971954E+02 -0.10045548886E+04  0.10078116241E+04  0.00000000000E+00 0.  1.
        -13    1    3    3    0    0  0.17581376054E+03  0.21639758322E+03 -0.22844746561E+04  0.23014262636E+04  0.00000000000E+00 0. -1.
          2    1    6    6  502    0  0.11995689545E+02 -0.23247589701E+03  0.28884813347E+02  0.23457039818E+03  0.00000000000E+00 0. -1.
          3    1    5    5  503    0 -0.87166208768E+02  0.10510242112E+03 -0.42869891334E+02  0.14311636685E+03  0.00000000000E+00 0. -1.
         -4    1    5    5    0  503 -0.27494794075E+03  0.13750251279E+03 -0.70795987631E+02  0.31546058868E+03  0.00000000000E+00 0.  1.
         -1    1    6    6    0  502  0.99490635550E+02 -0.25745559207E+03  0.28312259026E+02  0.27745874011E+03  0.00000000000E+00 0.  1.
<mgrwt>
<rscale>  0 0.26692144E+04</rscale>
<asrwt>0</asrwt>
<pdfrwt beam="1">  1        2 0.58656479E+00 0.26692144E+04</pdfrwt>
<pdfrwt beam="2">  1       -2 0.71872741E-01 0.26692144E+04</pdfrwt>
<totfact> 0.74195002E-01</totfact>
</mgrwt>
</event>
<event>
12    1  0.1519630E-007  0.1301374E+04  0.7818608E-02  0.9028476E-01
          1   -1    0    0  501    0  0.00000000000E+00  0.00000000000E+00  0.50144521034E+03  0.50144521034E+03  0.00000000000E+00 0. -1.
         -1   -1    0    0    0  501 -0.00000000000E+00 -0.00000000000E+00 -0.84434674173E+03  0.84434674173E+03  0.00000000000E+00 0.  1.
         23    2    1    2    0    0  0.13169124984E+03  0.27369577681E+03  0.35788281835E+02  0.31909288215E+03  0.91035722631E+02 0.  0.
        254    2    1    2    0    0 -0.13169124984E+03 -0.27369577681E+03 -0.37868981322E+03  0.10266990699E+04  0.90468394593E+03 0.  0.
        -24    2    4    4    0    0 -0.65426140965E+02 -0.35779446795E+02 -0.64436877796E+03  0.65351446252E+03  0.79430988783E+02 0.  0.
         24    2    4    4    0    0 -0.66265108874E+02 -0.23791633001E+03  0.26567896474E+03  0.37318460740E+03  0.87670942486E+02 0.  0.
         13    1    3    3    0    0  0.12038950430E+03  0.18468073549E+03 -0.50356619828E+01  0.22051295812E+03  0.00000000000E+00 0. -1.
        -13    1    3    3    0    0  0.11301745540E+02  0.89015041321E+02  0.40823943817E+02  0.98579924034E+02  0.00000000000E+00 0.  1.
          2    1    6    6  502    0 -0.53256237535E+02 -0.80664161176E+02  0.14619974626E+03  0.17526351458E+03  0.00000000000E+00 0. -1.
          3    1    5    5  503    0  0.16166536574E+01 -0.41572606063E+02 -0.25616088821E+03  0.25951742869E+03  0.00000000000E+00 0. -1.
         -4    1    5    5    0  503 -0.67042794622E+02  0.57931592682E+01 -0.38820788975E+03  0.39399703384E+03  0.00000000000E+00 0.  1.
         -1    1    6    6    0  502 -0.13008871339E+02 -0.15725216884E+03  0.11947921848E+03  0.19792109283E+03  0.00000000000E+00 0.  1.
<mgrwt>
<rscale>  0 0.13013741E+04</rscale>
<asrwt>0</asrwt>
<pdfrwt beam="1">  1        1 0.77145418E-01 0.13013741E+04</pdfrwt>
<pdfrwt beam="2">  1       -1 0.12989950E+00 0.13013741E+04</pdfrwt>
<totfact> 0.22044123E+01</totfact>
</mgrwt>
</event>
<event>
12    1  0.1519630E-007  0.1604598E+04  0.7818608E-02  0.8817728E-01
         -2   -1    0    0    0  501 -0.00000000000E+00  0.00000000000E+00  0.36940654849E+03  0.36940654849E+03  0.00000000000E+00 0.  1.
          2   -1    0    0  501    0  0.00000000000E+00 -0.00000000000E+00 -0.17424811309E+04  0.17424811309E+04  0.00000000000E+00 0. -1.
         23    2    1    2    0    0  0.58037482224E+02 -0.23382478413E+03  0.16854854721E+03  0.30784931125E+03  0.91215166816E+02 0.  0.
        254    2    1    2    0    0 -0.58037482224E+02  0.23382478413E+03 -0.15416231297E+04  0.18040383682E+04  0.90548891818E+03 0.  0.
        -24    2    4    4    0    0 -0.25911577238E+03 -0.27184145295E+03 -0.56536461527E+03  0.68345808224E+03  0.80243647404E+02 0.  0.
         24    2    4    4    0    0  0.20107829016E+03  0.50566623707E+03 -0.97625851439E+03  0.11205802859E+04  0.80552270105E+02 0.  0.
         13    1    3    3    0    0  0.52189912872E+02 -0.45652055819E+02  0.44378274149E+02  0.82324531110E+02  0.00000000000E+00 0. -1.
        -13    1    3    3    0    0  0.58475693520E+01 -0.18817272831E+03  0.12417027306E+03  0.22552478014E+03  0.00000000000E+00 0.  1.
          4    1    6    6  502    0 -0.44233595400E+01  0.18464206070E+00 -0.69718785572E+01  0.82587706668E+01  0.00000000000E+00 0. -1.
          3    1    5    5  503    0 -0.44120647691E-01  0.44928920950E+01 -0.12477940937E+02  0.13262240989E+02  0.00000000000E+00 0. -1.
         -4    1    5    5    0  503 -0.25907165173E+03 -0.27633434504E+03 -0.55288667433E+03  0.67019584125E+03  0.00000000000E+00 0.  1.
         -3    1    6    6    0  502  0.20550164970E+03  0.50548159501E+03 -0.96928663584E+03  0.11123215153E+04  0.00000000000E+00 0.  1.
<mgrwt>
<rscale>  0 0.16045983E+04</rscale>
<asrwt>0</asrwt>
<pdfrwt beam="1">  1        2 0.26807401E+00 0.16045983E+04</pdfrwt>
<pdfrwt beam="2">  1       -2 0.56831778E-01 0.16045983E+04</pdfrwt>
<totfact> 0.25846104E+01</totfact>
</mgrwt>
</event>
<event>
12    1  0.1519630E-007  0.1439902E+04  0.7818608E-02  0.8925432E-01
          2   -1    0    0  501    0  0.00000000000E+00  0.00000000000E+00  0.20494395172E+04  0.20494395172E+04  0.00000000000E+00 0. -1.
         -2   -1    0    0    0  501 -0.00000000000E+00 -0.00000000000E+00 -0.25291265755E+03  0.25291265755E+03  0.00000000000E+00 0.  1.
         23    2    1    2    0    0  0.39171829512E+03  0.84185750878E+02  0.82427093583E+03  0.92118815276E+03  0.92922407164E+02 0.  0.
        254    2    1    2    0    0 -0.39171829512E+03 -0.84185750878E+02  0.97225592377E+03  0.13811640219E+04  0.89543397905E+03 0.  0.
        -24    2    4    4    0    0 -0.56287955411E+03 -0.23496425630E+03  0.95855132034E+03  0.11390796605E+04  0.81487698849E+02 0.  0.
         24    2    4    4    0    0  0.17116125899E+03  0.15077850542E+03  0.13704603433E+02  0.24208436145E+03  0.79916754343E+02 0.  0.
         11    1    3    3    0    0  0.12685439081E+03 -0.34041303746E+01  0.19248204751E+03  0.23054926412E+03  0.00000000000E+00 0.  1.
        -11    1    3    3    0    0  0.26486390431E+03  0.87589881253E+02  0.63178888832E+03  0.69063888864E+03  0.00000000000E+00 0. -1.
          2    1    6    6  502    0  0.12520965252E+03  0.79898327412E+02 -0.22418643954E+02  0.15021250083E+03  0.00000000000E+00 0. -1.
          1    1    5    5  503    0 -0.18308322315E+02 -0.21927828671E+02  0.67391702469E+02  0.73196078432E+02  0.00000000000E+00 0. -1.
         -2    1    5    5    0  503 -0.54457123180E+03 -0.21303642763E+03  0.89115961787E+03  0.10658835821E+04  0.00000000000E+00 0.  1.
         -1    1    6    6    0  502  0.45951606470E+02  0.70880178011E+02  0.36123247387E+02  0.91871860621E+02  0.00000000000E+00 0.  1.
<mgrwt>
<rscale>  0 0.14399017E+04</rscale>
<asrwt>0</asrwt>
<pdfrwt beam="1">  1        2 0.31529838E+00 0.14399017E+04</pdfrwt>
<pdfrwt beam="2">  1       -2 0.38909641E-01 0.14399017E+04</pdfrwt>
<totfact> 0.38016788E+01</totfact>
</mgrwt>
</event>
<event>
12    1  0.1519630E-007  0.1579826E+04  0.7818608E-02  0.8833039E-01
          2   -1    0    0  501    0  0.00000000000E+00  0.00000000000E+00  0.22231086702E+04  0.22231086702E+04  0.00000000000E+00 0.  1.
         -2   -1    0    0    0  501 -0.00000000000E+00 -0.00000000000E+00 -0.28067111813E+03  0.28067111813E+03  0.00000000000E+00 0. -1.
         23    2    1    2    0    0 -0.18802704827E+03 -0.54025510377E+02 -0.12061836662E+03  0.24746071859E+03  0.91733800890E+02 0.  0.
        254    2    1    2    0    0  0.18802704827E+03  0.54025510377E+02  0.20630559187E+04  0.22563190698E+04  0.89247022036E+03 0.  0.
        -24    2    4    4    0    0  0.46758184891E+02 -0.28410631770E+03  0.20867439121E+03  0.36435449576E+03  0.79413282378E+02 0.  0.
         24    2    4    4    0    0  0.14126886337E+03  0.33813182808E+03  0.18543815275E+04  0.18919645740E+04  0.80678837825E+02 0.  0.
         13    1    3    3    0    0 -0.16108098361E+03 -0.56723887758E+02 -0.13417040791E+03  0.21717822423E+03  0.00000000000E+00 0. -1.
        -13    1    3    3    0    0 -0.26946064659E+02  0.26983773805E+01  0.13552041290E+02  0.30282494353E+02  0.00000000000E+00 0.  1.
          2    1    6    6  502    0  0.11811664659E+03  0.32086503093E+03  0.16115856454E+04  0.16474568895E+04  0.00000000000E+00 0. -1.
          1    1    5    5  503    0  0.32638409937E+02 -0.24563454022E+03  0.20775497301E+03  0.32336314256E+03  0.00000000000E+00 0. -1.
         -4    1    5    5    0  503  0.14119774953E+02 -0.38471777484E+02  0.91941819952E+00  0.40991353202E+02  0.00000000000E+00 0.  1.
         -1    1    6    6    0  502  0.23152216788E+02  0.17266797152E+02  0.24279588210E+03  0.24450768453E+03  0.00000000000E+00 0.  1.
<mgrwt>
<rscale>  0 0.15798258E+04</rscale>
<asrwt>0</asrwt>
<pdfrwt beam="1">  1        2 0.34201671E+00 0.15798258E+04</pdfrwt>
<pdfrwt beam="2">  1       -2 0.43180173E-01 0.15798258E+04</pdfrwt>
<totfact> 0.24497051E+01</totfact>
</mgrwt>
</event>
<event>
12    1  0.1519630E-007  0.1373227E+04  0.7818608E-02  0.8973430E-01
         -1   -1    0    0    0  501 -0.00000000000E+00  0.00000000000E+00  0.56787445766E+03  0.56787445766E+03  0.00000000000E+00 0.  1.
          1   -1    0    0  501    0  0.00000000000E+00 -0.00000000000E+00 -0.83017974361E+03  0.83017974361E+03  0.00000000000E+00 0. -1.
         23    2    1    2    0    0 -0.16033739491E+03 -0.58024080750E+02  0.27271634359E+03  0.33498046464E+03  0.93610007354E+02 0.  0.
        254    2    1    2    0    0  0.16033739491E+03  0.58024080750E+02 -0.53502162954E+03  0.10630737366E+04  0.90266425169E+03 0.  0.
        -24    2    4    4    0    0  0.38354196705E+03 -0.66553232252E+02 -0.65786353513E+03  0.76849747945E+03  0.79184416742E+02 0.  0.
         24    2    4    4    0    0 -0.22320457214E+03  0.12457731300E+03  0.12284190559E+03  0.29457625718E+03  0.79657074927E+02 0.  0.
         13    1    3    3    0    0 -0.16705625117E+03 -0.54543807802E+02  0.27561815054E+03  0.32687640314E+03  0.00000000000E+00 0.  1.
        -13    1    3    3    0    0  0.67188562597E+01 -0.34802729472E+01 -0.29018069484E+01  0.81040614997E+01  0.00000000000E+00 0. -1.
          4    1    6    6  502    0 -0.13244071088E+02  0.17647279558E+02 -0.98473261440E+01  0.24161989300E+02  0.00000000000E+00 0. -1.
          3    1    5    5  503    0  0.16287783863E+02 -0.49143541668E+01 -0.74424272302E+02  0.76344057318E+02  0.00000000000E+00 0. -1.
         -4    1    5    5    0  503  0.36725418318E+03 -0.61638878085E+02 -0.58343926283E+03  0.69215342213E+03  0.00000000000E+00 0.  1.
         -3    1    6    6    0  502 -0.20996050105E+03  0.10693003344E+03  0.13268923173E+03  0.27041426788E+03  0.00000000000E+00 0.  1.
<mgrwt>
<rscale>  0 0.13732267E+04</rscale>
<asrwt>0</asrwt>
<pdfrwt beam="1">  1        1 0.12771996E+00 0.13732267E+04</pdfrwt>
<pdfrwt beam="2">  1       -1 0.87365302E-01 0.13732267E+04</pdfrwt>
<totfact> 0.26243953E+01</totfact>
</mgrwt>
</event>
<event>
12    1  0.1519630E-007  0.2031657E+04  0.7818608E-02  0.8591962E-01
         -2   -1    0    0    0  501 -0.00000000000E+00  0.00000000000E+00  0.26475377067E+03  0.26475377067E+03  0.00000000000E+00 0.  1.
          2   -1    0    0  501    0  0.00000000000E+00 -0.00000000000E+00 -0.38976110172E+04  0.38976110172E+04  0.00000000000E+00 0. -1.
         23    2    1    2    0    0  0.58282131554E+03  0.62726226854E+02 -0.30650773275E+03  0.66760472478E+03  0.90187653991E+02 0.  0.
        254    2    1    2    0    0 -0.58282131554E+03 -0.62726226854E+02 -0.33263495137E+04  0.34947600630E+04  0.89729122662E+03 0.  0.
        -24    2    4    4    0    0 -0.72097026069E+03 -0.30129171267E+03 -0.24051425613E+04  0.25299343943E+04  0.72680716759E+02 0.  0.
         24    2    4    4    0    0  0.13814894516E+03  0.23856548581E+03 -0.92120695248E+03  0.96482566874E+03  0.79168805113E+02 0.  0.
         11    1    3    3    0    0  0.10012208464E+03  0.12950133834E+02 -0.93683519988E+02  0.13772704788E+03  0.00000000000E+00 0. -1.
        -11    1    3    3    0    0  0.48269923089E+03  0.49776093019E+02 -0.21282421277E+03  0.52987767691E+03  0.00000000000E+00 0.  1.
          2    1    6    6  502    0  0.37525446870E+02  0.12371341103E+03 -0.33562922003E+03  0.35966670762E+03  0.00000000000E+00 0. -1.
          1    1    5    5  503    0 -0.14787738659E+03 -0.85764608533E+02 -0.59303454753E+03  0.61718171077E+03  0.00000000000E+00 0. -1.
         -2    1    5    5    0  503 -0.57309287411E+03 -0.21552710414E+03 -0.18121080137E+04  0.19127526835E+04  0.00000000000E+00 0.  1.
         -1    1    6    6    0  502  0.10062349829E+03  0.11485207478E+03 -0.58557773245E+03  0.60515896112E+03  0.00000000000E+00 0.  1.
<mgrwt>
<rscale>  0 0.20316567E+04</rscale>
<asrwt>0</asrwt>
<pdfrwt beam="1">  1        2 0.59963248E+00 0.20316567E+04</pdfrwt>
<pdfrwt beam="2">  1       -2 0.40731348E-01 0.20316567E+04</pdfrwt>
<totfact> 0.22030879E+00</totfact>
</mgrwt>
</event>
<event>
12    1  0.1519630E-007  0.1290311E+04  0.7818608E-02  0.9037284E-01
          1   -1    0    0  501    0  0.00000000000E+00  0.00000000000E+00  0.15519118398E+04  0.15519118398E+04  0.00000000000E+00 0. -1.
         -1   -1    0    0    0  501 -0.00000000000E+00 -0.00000000000E+00 -0.26820179361E+03  0.26820179361E+03  0.00000000000E+00 0.  1.
         23    2    1    2    0    0 -0.81315366712E+02  0.30442741689E+03  0.41179885544E+03  0.52612323951E+03  0.89101766468E+02 0.  0.
        254    2    1    2    0    0  0.81315366712E+02 -0.30442741689E+03  0.87191119076E+03  0.12939903939E+04  0.90271466919E+03 0.  0.
        -24    2    4    4    0    0 -0.35790606232E+03  0.34180854043E+02  0.50213503222E+03  0.62285110204E+03  0.80862998304E+02 0.  0.
         24    2    4    4    0    0  0.43922142903E+03 -0.33860827094E+03  0.36977615854E+03  0.67113929188E+03  0.78246513131E+02 0.  0.
         13    1    3    3    0    0 -0.71376875277E+02  0.28722126442E+03  0.41069501640E+03  0.50622239140E+03  0.00000000000E+00 0. -1.
        -13    1    3    3    0    0 -0.99384914348E+01  0.17206152470E+02  0.11038390454E+01  0.19900848109E+02  0.00000000000E+00 0.  1.
          4    1    6    6  502    0  0.15479656905E+03 -0.88582474943E+02  0.86518994552E+02  0.19822807338E+03  0.00000000000E+00 0. -1.
          1    1    5    5  503    0 -0.28299140067E+03  0.53571055827E+02  0.42651410481E+03  0.51465354607E+03  0.00000000000E+00 0. -1.
         -2    1    5    5    0  503 -0.74914661649E+02 -0.19390201784E+02  0.75620927407E+02  0.10819755597E+03  0.00000000000E+00 0.  1.
         -3    1    6    6    0  502  0.28442485998E+03 -0.25002579599E+03  0.28325716399E+03  0.47291121850E+03  0.00000000000E+00 0.  1.
<mgrwt>
<rscale>  0 0.12903109E+04</rscale>
<asrwt>0</asrwt>
<pdfrwt beam="1">  1        1 0.23875566E+00 0.12903109E+04</pdfrwt>
<pdfrwt beam="2">  1       -1 0.41261815E-01 0.12903109E+04</pdfrwt>
<totfact> 0.34061924E+01</totfact>
</mgrwt>
</event>
<event>
12    1  0.1519630E-007  0.3125270E+04  0.7818608E-02  0.8208837E-01
         -2   -1    0    0    0  501 -0.00000000000E+00  0.00000000000E+00  0.87714110028E+03  0.87714110028E+03  0.00000000000E+00 0. -1.
          2   -1    0    0  501    0  0.00000000000E+00 -0.00000000000E+00 -0.27838485466E+04  0.27838485466E+04  0.00000000000E+00 0.  1.
         23    2    1    2    0    0  0.13239583386E+04 -0.28558896278E+03 -0.33289071328E+03  0.13977114664E+04  0.91402288735E+02 0.  0.
        254    2    1    2    0    0 -0.13239583386E+04  0.28558896278E+03 -0.15738167331E+04  0.22632781805E+04  0.90061216669E+03 0.  0.
        -24    2    4    4    0    0 -0.30047901490E+02 -0.97498163981E+02  0.60231487620E+02  0.14256784484E+03  0.79303152009E+02 0.  0.
         24    2    4    4    0    0 -0.12939104371E+04  0.38308712676E+03 -0.16340482207E+04  0.21207103356E+04  0.79616418192E+02 0.  0.
         13    1    3    3    0    0  0.13017396236E+04 -0.26773592071E+03 -0.32577478363E+03  0.13683339433E+04  0.00000000000E+00 0. -1.
        -13    1    3    3    0    0  0.22218715031E+02 -0.17853042073E+02 -0.71159296492E+01  0.29377523103E+02  0.00000000000E+00 0.  1.
          2    1    6    6  502    0 -0.11698398628E+04  0.33506000320E+03 -0.14379988936E+04  0.18837811254E+04  0.00000000000E+00 0. -1.
          3    1    5    5  503    0 -0.14582835057E+02 -0.54493789198E+02  0.75622564653E+02  0.94345134608E+02  0.00000000000E+00 0. -1.
         -2    1    5    5    0  503 -0.15465066433E+02 -0.43004374783E+02 -0.15391077032E+02  0.48222710236E+02  0.00000000000E+00 0.  1.
         -1    1    6    6    0  502 -0.12407057433E+03  0.48027123563E+02 -0.19604932705E+03  0.23692921020E+03  0.00000000000E+00 0.  1.
<mgrwt>
<rscale>  0 0.31252699E+04</rscale>
<asrwt>0</asrwt>
<pdfrwt beam="1">  1        2 0.42828439E+00 0.31252699E+04</pdfrwt>
<pdfrwt beam="2">  1       -2 0.13494479E+00 0.31252699E+04</pdfrwt>
<totfact> 0.79098176E-01</totfact>
</mgrwt>
</event>
<event>
12    1  0.1519630E-007  0.1120565E+04  0.7818608E-02  0.9185376E-01
         -1   -1    0    0    0  501 -0.00000000000E+00  0.00000000000E+00  0.58422903944E+03  0.58422903944E+03  0.00000000000E+00 0.  1.
          1   -1    0    0  501    0  0.00000000000E+00 -0.00000000000E+00 -0.53731785660E+03  0.53731785660E+03  0.00000000000E+00 0. -1.
         23    2    1    2    0    0  0.41697352476E+01  0.50426113564E+02  0.31513279484E+03  0.33203877509E+03  0.91547201826E+02 0.  0.
        254    2    1    2    0    0 -0.41697352476E+01 -0.50426113564E+02 -0.26822161199E+03  0.78950812095E+03  0.74082390639E+03 0.  0.
        -24    2    4    4    0    0  0.29366464856E+03  0.17816741491E+03 -0.17860411272E+03  0.39527202178E+03  0.79736996289E+02 0.  0.
         24    2    4    4    0    0 -0.29783438381E+03 -0.22859352848E+03 -0.89617499275E+02  0.39423609916E+03  0.80190300331E+02 0.  0.
         13    1    3    3    0    0  0.37046178257E+02  0.28403050366E+02  0.72695200433E+02  0.86392967072E+02  0.00000000000E+00 0. -1.
        -13    1    3    3    0    0 -0.32876443010E+02  0.22023063198E+02  0.24243759440E+03  0.24564580802E+03  0.00000000000E+00 0.  1.
          2    1    6    6  502    0 -0.79671470772E+02 -0.76280805790E+02  0.85511988232E+01  0.11063194651E+03  0.00000000000E+00 0. -1.
          1    1    5    5  503    0  0.32670760556E+01 -0.13406990278E+01  0.61460507539E+01  0.70883848446E+01  0.00000000000E+00 0. -1.
         -2    1    5    5    0  503  0.29039757250E+03  0.17950811394E+03 -0.18475016347E+03  0.38818363694E+03  0.00000000000E+00 0.  1.
         -1    1    6    6    0  502 -0.21816291303E+03 -0.15231272269E+03 -0.98168698098E+02  0.28360415265E+03  0.00000000000E+00 0.  1.
<mgrwt>
<rscale>  0 0.11205654E+04</rscale>
<asrwt>0</asrwt>
<pdfrwt beam="1">  1        1 0.82664286E-01 0.11205654E+04</pdfrwt>
<pdfrwt beam="2">  1       -1 0.89881390E-01 0.11205654E+04</pdfrwt>
<totfact> 0.48359039E+01</totfact>
</mgrwt>
</event>
<event>
12    1  0.1519630E-007  0.2130882E+04  0.7818608E-02  0.8547761E-01
          1   -1    0    0  501    0  0.00000000000E+00  0.00000000000E+00  0.13091511563E+04  0.13091511563E+04  0.00000000000E+00 0. -1.
         -1   -1    0    0    0  501 -0.00000000000E+00 -0.00000000000E+00 -0.86709926257E+03  0.86709926257E+03  0.00000000000E+00 0.  1.
         23    2    1    2    0    0 -0.71510950230E+03 -0.41843046005E+03 -0.11848442977E+03  0.84210839553E+03  0.92964184240E+02 0.  0.
        254    2    1    2    0    0  0.71510950230E+03  0.41843046005E+03  0.56053632351E+03  0.13341420234E+04  0.88276175627E+03 0.  0.
        -24    2    4    4    0    0 -0.16458722768E+03  0.24271726194E+03  0.85393959162E+02  0.31551590826E+03  0.79104584825E+02 0.  0.
         24    2    4    4    0    0  0.87969672998E+03  0.17571319811E+03  0.47514236435E+03  0.10186261151E+04  0.84246253485E+02 0.  0.
         13    1    3    3    0    0 -0.28292848211E+03 -0.19272390260E+03 -0.92720857753E+01  0.34245729690E+03  0.00000000000E+00 0. -1.
        -13    1    3    3    0    0 -0.43218102019E+03 -0.22570655745E+03 -0.10921234399E+03  0.49965109863E+03  0.00000000000E+00 0.  1.
          4    1    6    6  502    0  0.16706750533E+03  0.39090353624E+02  0.12912548935E+03  0.21473937478E+03  0.00000000000E+00 0. -1.
          3    1    5    5  503    0  0.41704319383E+01  0.41927659559E+01  0.13316167360E+02  0.14570247152E+02  0.00000000000E+00 0. -1.
         -4    1    5    5    0  503 -0.16875765962E+03  0.23852449599E+03  0.72077791802E+02  0.30094566111E+03  0.00000000000E+00 0.  1.
         -3    1    6    6    0  502  0.71262922465E+03  0.13662284448E+03  0.34601687500E+03  0.80388674031E+03  0.00000000000E+00 0.  1.
<mgrwt>
<rscale>  0 0.21308815E+04</rscale>
<asrwt>0</asrwt>
<pdfrwt beam="1">  1        1 0.20140787E+00 0.21308815E+04</pdfrwt>
<pdfrwt beam="2">  1       -1 0.13339989E+00 0.21308815E+04</pdfrwt>
<totfact> 0.38817194E+00</totfact>
</mgrwt>
</event>
<event>
12    1  0.1519630E-007  0.1217206E+04  0.7818608E-02  0.9097928E-01
          1   -1    0    0  501    0  0.00000000000E+00  0.00000000000E+00  0.17237662552E+04  0.17237662552E+04  0.00000000000E+00 0. -1.
         -1   -1    0    0    0  501 -0.00000000000E+00 -0.00000000000E+00 -0.21487690887E+03  0.21487690887E+03  0.00000000000E+00 0.  1.
         23    2    1    2    0    0  0.55732789333E+02  0.15635624630E+03  0.59393934020E+01  0.19159872552E+03  0.95505893358E+02 0.  0.
        254    2    1    2    0    0 -0.55732789333E+02 -0.15635624630E+03  0.15029499529E+04  0.17470444386E+04  0.87507273396E+03 0.  0.
        -24    2    4    4    0    0 -0.38023098898E+03 -0.46990281850E+02  0.12612937426E+04  0.13205271081E+04  0.78398001228E+02 0.  0.
         24    2    4    4    0    0  0.32449819965E+03 -0.10936596445E+03  0.24165621038E+03  0.42651733048E+03  0.79115822900E+02 0.  0.
         13    1    3    3    0    0  0.64220940727E+02  0.52679857793E+02 -0.17688590559E+02  0.84925749222E+02  0.00000000000E+00 0.  1.
        -13    1    3    3    0    0 -0.84881513945E+01  0.10367638850E+03  0.23627983961E+02  0.10667297630E+03  0.00000000000E+00 0. -1.
          4    1    6    6  502    0  0.20752041294E+03 -0.56507541662E+02  0.19383271354E+03  0.28953228643E+03  0.00000000000E+00 0. -1.
          1    1    5    5  503    0 -0.38338399094E+03 -0.44613889806E+02  0.12341301824E+04  0.12930781070E+04  0.00000000000E+00 0. -1.
         -2    1    5    5    0  503  0.31530019582E+01 -0.23763920442E+01  0.27163560123E+02  0.27449001057E+02  0.00000000000E+00 0.  1.
         -1    1    6    6    0  502  0.11697778671E+03 -0.52858422783E+02  0.47823496843E+02  0.13698504405E+03  0.00000000000E+00 0.  1.
<mgrwt>
<rscale>  0 0.12172059E+04</rscale>
<asrwt>0</asrwt>
<pdfrwt beam="1">  1        1 0.26519480E+00 0.12172059E+04</pdfrwt>
<pdfrwt beam="2">  1       -1 0.33057987E-01 0.12172059E+04</pdfrwt>
<totfact> 0.39017895E+01</totfact>
</mgrwt>
</event>
<event>
12    1  0.1519630E-007  0.1613296E+04  0.7818608E-02  0.8812421E-01
         -2   -1    0    0    0  501 -0.00000000000E+00  0.00000000000E+00  0.14949042821E+04  0.14949042821E+04  0.00000000000E+00 0.  1.
          2   -1    0    0  501    0  0.00000000000E+00 -0.00000000000E+00 -0.43526599536E+03  0.43526599536E+03  0.00000000000E+00 0. -1.
         23    2    1    2    0    0 -0.10226875494E+03 -0.98412216462E+00 -0.28238354709E+03  0.31351395649E+03  0.89948132336E+02 0.  0.
        254    2    1    2    0    0  0.10226875494E+03  0.98412216462E+00  0.13420218338E+04  0.16166563209E+04  0.89559767245E+03 0.  0.
        -24    2    4    4    0    0 -0.29154600599E+03 -0.27729456978E+03  0.55528782614E+03  0.69038728857E+03  0.79991789023E+02 0.  0.
         24    2    4    4    0    0  0.39381476093E+03  0.27827869195E+03  0.78673400766E+03  0.92626903237E+03  0.80590478357E+02 0.  0.
         11    1    3    3    0    0 -0.61902392405E+02 -0.28732758833E+02 -0.23737907976E+03  0.24699454473E+03  0.00000000000E+00 0. -1.
        -11    1    3    3    0    0 -0.40366362539E+02  0.27748636669E+02 -0.45004467330E+02  0.66519411762E+02  0.00000000000E+00 0.  1.
          4    1    6    6  502    0  0.37749922947E+03  0.24084337444E+03  0.71192720080E+03  0.84104193624E+03  0.00000000000E+00 0. -1.
          3    1    5    5  503    0 -0.25179490108E+03 -0.25761315890E+03  0.52489915339E+03  0.63661945704E+03  0.00000000000E+00 0. -1.
         -4    1    5    5    0  503 -0.39751104906E+02 -0.19681410883E+02  0.30388672756E+02  0.53767831530E+02  0.00000000000E+00 0.  1.
         -3    1    6    6    0  502  0.16315531460E+02  0.37435317506E+02  0.74806806851E+02  0.85227096130E+02  0.00000000000E+00 0.  1.
<mgrwt>
<rscale>  0 0.16132960E+04</rscale>
<asrwt>0</asrwt>
<pdfrwt beam="1">  1        2 0.66964000E-01 0.16132960E+04</pdfrwt>
<pdfrwt beam="2">  1       -2 0.22998527E+00 0.16132960E+04</pdfrwt>
<totfact> 0.59159274E+00</totfact>
</mgrwt>
</event>
<event>
12    1  0.1519630E-007  0.2368037E+04  0.7818608E-02  0.8451568E-01
          2   -1    0    0  501    0  0.00000000000E+00  0.00000000000E+00  0.11041316479E+04  0.11041316479E+04  0.00000000000E+00 0. -1.
         -2   -1    0    0    0  501 -0.00000000000E+00 -0.00000000000E+00 -0.12696853806E+04  0.12696853806E+04  0.00000000000E+00 0.  1.
         23    2    1    2    0    0  0.70036855556E+03  0.20148014957E+03 -0.77455176402E+03  0.10673488155E+04  0.90513504887E+02 0.  0.
        254    2    1    2    0    0 -0.70036855556E+03 -0.20148014957E+03  0.60899803134E+03  0.13064682130E+04  0.89714559855E+03 0.  0.
        -24    2    4    4    0    0 -0.72190256436E+03 -0.43533690343E+03  0.27438607210E+03  0.88999751368E+03  0.78398506856E+02 0.  0.
         24    2    4    4    0    0  0.21534008795E+02  0.23385675385E+03  0.33461195924E+03  0.41647069928E+03  0.79561204344E+02 0.  0.
         13    1    3    3    0    0  0.17463340852E+03  0.16599921483E+02 -0.15574505471E+03  0.23458240946E+03  0.00000000000E+00 0. -1.
        -13    1    3    3    0    0  0.52573514704E+03  0.18488022809E+03 -0.61880670932E+03  0.83276640607E+03  0.00000000000E+00 0.  1.
          4    1    6    6  502    0  0.27286379918E+02  0.19638117549E+03  0.22200084845E+03  0.29764826445E+03  0.00000000000E+00 0. -1.
          3    1    5    5  503    0 -0.66289363807E+03 -0.37737148607E+03  0.26102968900E+03  0.80620947181E+03  0.00000000000E+00 0. -1.
         -4    1    5    5    0  503 -0.59008926290E+02 -0.57965417353E+02  0.13356383098E+02  0.83788041869E+02  0.00000000000E+00 0.  1.
         -3    1    6    6    0  502 -0.57523711221E+01  0.37475578367E+02  0.11261111079E+03  0.11882243484E+03  0.00000000000E+00 0.  1.
<mgrwt>
<rscale>  0 0.23680370E+04</rscale>
<asrwt>0</asrwt>
<pdfrwt beam="1">  1        2 0.16986641E+00 0.23680370E+04</pdfrwt>
<pdfrwt beam="2">  1       -2 0.19533621E+00 0.23680370E+04</pdfrwt>
<totfact> 0.27877939E+00</totfact>
</mgrwt>
</event>
<event>
12    1  0.1519630E-007  0.1362722E+04  0.7818608E-02  0.8981253E-01
          2   -1    0    0  501    0  0.00000000000E+00  0.00000000000E+00  0.12110033490E+04  0.12110033490E+04  0.00000000000E+00 0. -1.
         -2   -1    0    0    0  501 -0.00000000000E+00 -0.00000000000E+00 -0.38336218542E+03  0.38336218542E+03  0.00000000000E+00 0.  1.
         23    2    1    2    0    0  0.37173641923E+03  0.10008798668E+03  0.38005588535E+03  0.54846672500E+03  0.90375339489E+02 0.  0.
        254    2    1    2    0    0 -0.37173641923E+03 -0.10008798668E+03  0.44758527827E+03  0.10458988095E+04  0.86334591437E+03 0.  0.
        -24    2    4    4    0    0 -0.22246476736E+03 -0.29162393848E+03  0.62815927668E+03  0.73268215848E+03  0.87772286516E+02 0.  0.
         24    2    4    4    0    0 -0.14927165187E+03  0.19153595180E+03 -0.18057399841E+03  0.31321665098E+03  0.80806278625E+02 0.  0.
         13    1    3    3    0    0  0.31779379886E+03  0.82818758487E+02  0.36256432351E+03  0.48918783104E+03  0.00000000000E+00 0. -1.
        -13    1    3    3    0    0  0.53942620364E+02  0.17269228191E+02  0.17491561842E+02  0.59278893965E+02  0.00000000000E+00 0.  1.
          4    1    6    6  502    0 -0.41336198368E+02  0.14861447331E+02 -0.57509946908E+02  0.72366690581E+02  0.00000000000E+00 0. -1.
          1    1    5    5  503    0 -0.10161296858E+02 -0.66367173468E+02  0.12644489697E+03  0.14316481983E+03  0.00000000000E+00 0. -1.
         -2    1    5    5    0  503 -0.21230347050E+03 -0.22525676501E+03  0.50171437971E+03  0.58951733865E+03  0.00000000000E+00 0.  1.
         -3    1    6    6    0  502 -0.10793545350E+03  0.17667450447E+03 -0.12306405150E+03  0.24084996040E+03  0.00000000000E+00 0.  1.
<mgrwt>
<rscale>  0 0.13627221E+04</rscale>
<asrwt>0</asrwt>
<pdfrwt beam="1">  1        2 0.18630821E+00 0.13627221E+04</pdfrwt>
<pdfrwt beam="2">  1       -2 0.58978798E-01 0.13627221E+04</pdfrwt>
<totfact> 0.48894410E+01</totfact>
</mgrwt>
</event>
<event>
12    1  0.1519630E-007  0.2001108E+04  0.7818608E-02  0.8606103E-01
          1   -1    0    0  501    0  0.00000000000E+00  0.00000000000E+00  0.78413133412E+03  0.78413133412E+03  0.00000000000E+00 0. -1.
         -1   -1    0    0    0  501 -0.00000000000E+00 -0.00000000000E+00 -0.12767094675E+04  0.12767094675E+04  0.00000000000E+00 0.  1.
         23    2    1    2    0    0 -0.33204964144E+03 -0.71816245233E+03 -0.31661617638E+03  0.85716654425E+03  0.92056553899E+02 0.  0.
        254    2    1    2    0    0  0.33204964144E+03  0.71816245233E+03 -0.17596195702E+03  0.12036742574E+04  0.88986225633E+03 0.  0.
        -24    2    4    4    0    0  0.16117176567E+03  0.90278350139E+03 -0.83281253394E+02  0.92399570322E+03  0.76406177575E+02 0.  0.
         24    2    4    4    0    0  0.17087787577E+03 -0.18462104906E+03 -0.92680703624E+02  0.27967855416E+03  0.79663044445E+02 0.  0.
         13    1    3    3    0    0 -0.31629757138E+03 -0.70804059178E+03 -0.31852467709E+03  0.83834575396E+03  0.00000000000E+00 0. -1.
        -13    1    3    3    0    0 -0.15752070060E+02 -0.10121860555E+02  0.19085007084E+01  0.18820790292E+02  0.00000000000E+00 0.  1.
          4    1    6    6  502    0  0.52890778377E+02 -0.10561643642E+03 -0.18779157292E+02  0.11960318903E+03  0.00000000000E+00 0. -1.
          1    1    5    5  503    0  0.21140506624E+02  0.22693954570E+03 -0.47835348714E+02  0.23288773907E+03  0.00000000000E+00 0. -1.
         -2    1    5    5    0  503  0.14003125905E+03  0.67584395569E+03 -0.35445904681E+02  0.69110796415E+03  0.00000000000E+00 0.  1.
         -3    1    6    6    0  502  0.11798709740E+03 -0.79004612641E+02 -0.73901546333E+02  0.16007536513E+03  0.00000000000E+00 0.  1.
<mgrwt>
<rscale>  0 0.20011076E+04</rscale>
<asrwt>0</asrwt>
<pdfrwt beam="1">  1        1 0.12063559E+00 0.20011076E+04</pdfrwt>
<pdfrwt beam="2">  1       -1 0.19641684E+00 0.20011076E+04</pdfrwt>
<totfact> 0.33743070E+00</totfact>
</mgrwt>
</event>
<event>
12    1  0.1519630E-007  0.2530166E+04  0.7818608E-02  0.8392317E-01
         -1   -1    0    0    0  501 -0.00000000000E+00  0.00000000000E+00  0.11645731452E+04  0.11645731452E+04  0.00000000000E+00 0.  1.
          1   -1    0    0  501    0  0.00000000000E+00 -0.00000000000E+00 -0.13742677491E+04  0.13742677491E+04  0.00000000000E+00 0. -1.
         23    2    1    2    0    0 -0.47109742546E+03  0.33870578965E+03  0.84964995575E+03  0.10327921322E+04  0.90000804085E+02 0.  0.
        254    2    1    2    0    0  0.47109742546E+03 -0.33870578965E+03 -0.10593445596E+04  0.15060487621E+04  0.89962079881E+03 0.  0.
        -24    2    4    4    0    0  0.34657179207E+03  0.37379127583E+02  0.15550325140E+02  0.35803971870E+03  0.80258465697E+02 0.  0.
         24    2    4    4    0    0  0.12452563339E+03 -0.37608491724E+03 -0.10748948848E+04  0.11480090434E+04  0.74694391578E+02 0.  0.
         13    1    3    3    0    0 -0.15650123040E+03  0.10921076393E+03  0.35718571505E+03  0.40497069167E+03  0.00000000000E+00 0. -1.
        -13    1    3    3    0    0 -0.31459619506E+03  0.22949502572E+03  0.49246424070E+03  0.62782144049E+03  0.00000000000E+00 0.  1.
          2    1    6    6  502    0  0.13210058158E+03 -0.33592008748E+03 -0.99090010958E+03  0.10545975043E+04  0.00000000000E+00 0. -1.
          1    1    5    5  503    0  0.12495727195E+03  0.48473083367E+02  0.23166215070E+02  0.13601703256E+03  0.00000000000E+00 0. -1.
         -2    1    5    5    0  503  0.22161452012E+03 -0.11093955785E+02 -0.76158899299E+01  0.22202268615E+03  0.00000000000E+00 0.  1.
         -1    1    6    6    0  502 -0.75749481942E+01 -0.40164829757E+02 -0.83994775193E+02  0.93411539165E+02  0.00000000000E+00 0.  1.
<mgrwt>
<rscale>  0 0.25301663E+04</rscale>
<asrwt>0</asrwt>
<pdfrwt beam="1">  1        1 0.21142581E+00 0.25301663E+04</pdfrwt>
<pdfrwt beam="2">  1       -1 0.17916510E+00 0.25301663E+04</pdfrwt>
<totfact> 0.14978207E+00</totfact>
</mgrwt>
</event>
<event>
12    1  0.1519630E-007  0.1786088E+04  0.7818608E-02  0.8713733E-01
          2   -1    0    0  501    0  0.00000000000E+00  0.00000000000E+00  0.81987813290E+03  0.81987813290E+03  0.00000000000E+00 0. -1.
         -2   -1    0    0    0  501 -0.00000000000E+00 -0.00000000000E+00 -0.97273957592E+03  0.97273957592E+03  0.00000000000E+00 0.  1.
         23    2    1    2    0    0 -0.17721058751E+03  0.38343445540E+02  0.59096400235E+03  0.62473639782E+03  0.90461608109E+02 0.  0.
        254    2    1    2    0    0  0.17721058751E+03 -0.38343445540E+02 -0.74382544537E+03  0.11678813110E+04  0.88192780388E+03 0.  0.
        -24    2    4    4    0    0 -0.25143337057E+03  0.10691590555E+03  0.92424143307E+01  0.28572640951E+03  0.83092768482E+02 0.  0.
         24    2    4    4    0    0  0.42864395808E+03 -0.14525935109E+03 -0.75306785970E+03  0.88215490149E+03  0.79057871458E+02 0.  0.
         13    1    3    3    0    0 -0.40992312171E+02 -0.26803860952E+02  0.10513406160E+03  0.11598270357E+03  0.00000000000E+00 0.  1.
        -13    1    3    3    0    0 -0.13621827534E+03  0.65147306492E+02  0.48582994075E+03  0.50875369425E+03  0.00000000000E+00 0. -1.
          2    1    6    6  502    0  0.33956199839E+03 -0.13968961115E+03 -0.64296327282E+03  0.74041698280E+03  0.00000000000E+00 0. -1.
          1    1    5    5  503    0 -0.58319491006E+02  0.63994003745E+02  0.14720735636E+02  0.87824231305E+02  0.00000000000E+00 0. -1.
         -2    1    5    5    0  503 -0.19311387956E+03  0.42921901801E+02 -0.54783213056E+01  0.19790217820E+03  0.00000000000E+00 0.  1.
         -1    1    6    6    0  502  0.89081959688E+02 -0.55697399318E+01 -0.11010458688E+03  0.14173791869E+03  0.00000000000E+00 0.  1.
<mgrwt>
<rscale>  0 0.17860884E+04</rscale>
<asrwt>0</asrwt>
<pdfrwt beam="1">  1        2 0.12613510E+00 0.17860884E+04</pdfrwt>
<pdfrwt beam="2">  1       -2 0.14965224E+00 0.17860884E+04</pdfrwt>
<totfact> 0.94935876E+00</totfact>
</mgrwt>
</event>
<event>
12    1  0.1519630E-007  0.1940917E+04  0.7818608E-02  0.8634753E-01
          2   -1    0    0  501    0  0.00000000000E+00  0.00000000000E+00  0.12695182135E+04  0.12695182135E+04  0.00000000000E+00 0. -1.
         -2   -1    0    0    0  501 -0.00000000000E+00 -0.00000000000E+00 -0.74184815575E+03  0.74184815575E+03  0.00000000000E+00 0.  1.
         23    2    1    2    0    0 -0.49024781632E+03  0.14052023962E+03 -0.37073021528E+03  0.63729634352E+03  0.92827139305E+02 0.  0.
        254    2    1    2    0    0  0.49024781632E+03 -0.14052023962E+03  0.89840027304E+03  0.13740700257E+04  0.90601132769E+03 0.  0.
        -24    2    4    4    0    0 -0.12471015898E+03  0.19896563892E+03  0.51254580030E+03  0.56934509565E+03  0.79439859699E+02 0.  0.
         24    2    4    4    0    0  0.61495797529E+03 -0.33948587855E+03  0.38585447274E+03  0.80472493010E+03  0.72626206546E+02 0.  0.
         13    1    3    3    0    0 -0.44109609352E+03  0.95956838449E+02 -0.31255787333E+03  0.54905910679E+03  0.00000000000E+00 0.  1.
        -13    1    3    3    0    0 -0.49151722797E+02  0.44563401175E+02 -0.58172341944E+02  0.88237236728E+02  0.00000000000E+00 0. -1.
          4    1    6    6  502    0  0.21224692096E+03 -0.15670701669E+03  0.13739621099E+03  0.29746186870E+03  0.00000000000E+00 0. -1.
          3    1    5    5  503    0 -0.92200748743E+02  0.86862076903E+02  0.21243700305E+03  0.24733677191E+03  0.00000000000E+00 0. -1.
         -4    1    5    5    0  503 -0.32509410234E+02  0.11210356202E+03  0.30010879725E+03  0.32200832374E+03  0.00000000000E+00 0.  1.
         -3    1    6    6    0  502  0.40271105434E+03 -0.18277886185E+03  0.24845826175E+03  0.50726306140E+03  0.00000000000E+00 0.  1.
<mgrwt>
<rscale>  0 0.19409170E+04</rscale>
<asrwt>0</asrwt>
<pdfrwt beam="1">  1        2 0.19531049E+00 0.19409170E+04</pdfrwt>
<pdfrwt beam="2">  1       -2 0.11413049E+00 0.19409170E+04</pdfrwt>
<totfact> 0.96605532E+00</totfact>
</mgrwt>
</event>
<event>
12    1  0.1519630E-007  0.1197536E+04  0.7818608E-02  0.9115016E-01
          3   -1    0    0  501    0  0.00000000000E+00  0.00000000000E+00  0.17832002488E+03  0.17832002488E+03  0.00000000000E+00 0. -1.
         -3   -1    0    0    0  501 -0.00000000000E+00 -0.00000000000E+00 -0.20105594407E+04  0.20105594407E+04  0.00000000000E+00 0.  1.
         23    2    1    2    0    0 -0.23964241962E+03 -0.50850993168E+02 -0.45390943720E+03  0.52422031855E+03  0.93588740847E+02 0.  0.
        254    2    1    2    0    0  0.23964241962E+03  0.50850993168E+02 -0.13783299786E+04  0.16646591470E+04  0.90071206999E+03 0.  0.
        -24    2    4    4    0    0  0.32257920298E+03 -0.35277390605E+03 -0.53173293329E+03  0.71972708354E+03  0.82221599668E+02 0.  0.
         24    2    4    4    0    0 -0.82936783362E+02  0.40362489922E+03 -0.84659704529E+03  0.94493206345E+03  0.79865375084E+02 0.  0.
         11    1    3    3    0    0 -0.39767338858E+02 -0.47123694256E+02 -0.12359517878E+03  0.13812259778E+03  0.00000000000E+00 0.  1.
        -11    1    3    3    0    0 -0.19987508076E+03 -0.37272989120E+01 -0.33031425843E+03  0.38609772077E+03  0.00000000000E+00 0. -1.
          4    1    6    6  502    0 -0.56917740443E+02  0.29484200759E+03 -0.52998070811E+03  0.60913954853E+03  0.00000000000E+00 0. -1.
          3    1    5    5  503    0  0.30662640812E+03 -0.30819593695E+03 -0.50076852470E+03  0.66315428449E+03  0.00000000000E+00 0. -1.
         -4    1    5    5    0  503  0.15952794863E+02 -0.44577969102E+02 -0.30964408589E+02  0.56572799050E+02  0.00000000000E+00 0.  1.
         -3    1    6    6    0  502 -0.26019042919E+02  0.10878289163E+03 -0.31661633718E+03  0.33579251491E+03  0.00000000000E+00 0.  1.
<mgrwt>
<rscale>  0 0.11975358E+04</rscale>
<asrwt>0</asrwt>
<pdfrwt beam="1">  1        3 0.27433850E-01 0.11975358E+04</pdfrwt>
<pdfrwt beam="2">  1       -3 0.30931683E+00 0.11975358E+04</pdfrwt>
<totfact> 0.11315148E+00</totfact>
</mgrwt>
</event>
<event>
12    1  0.1519630E-007  0.1397064E+04  0.7818608E-02  0.8955946E-01
          2   -1    0    0  501    0  0.00000000000E+00  0.00000000000E+00  0.97839316961E+03  0.97839316961E+03  0.00000000000E+00 0. -1.
         -2   -1    0    0    0  501 -0.00000000000E+00 -0.00000000000E+00 -0.49872280243E+03  0.49872280243E+03  0.00000000000E+00 0.  1.
         23    2    1    2    0    0  0.11550583919E+02 -0.88620810195E+02  0.52491463734E+03  0.54072039850E+03  0.94106901339E+02 0.  0.
        254    2    1    2    0    0 -0.11550583919E+02  0.88620810195E+02 -0.45244270158E+02  0.93639557353E+03  0.93102232098E+03 0.  0.
        -24    2    4    4    0    0 -0.37336729540E+03 -0.23007515315E+03 -0.27897047466E+02  0.44736913907E+03  0.83804462682E+02 0.  0.
         24    2    4    4    0    0  0.36181671148E+03  0.31869596334E+03 -0.17347222692E+02  0.48902643446E+03  0.79796476805E+02 0.  0.
         11    1    3    3    0    0 -0.31844979326E+02 -0.64791248308E+02  0.21302506624E+03  0.22492595984E+03  0.00000000000E+00 0. -1.
        -11    1    3    3    0    0  0.43395563245E+02 -0.23829561886E+02  0.31188957110E+03  0.31579443866E+03  0.00000000000E+00 0.  1.
          4    1    6    6  502    0  0.26735783974E+03  0.27830506134E+03 -0.10401936358E+02  0.38605973879E+03  0.00000000000E+00 0. -1.
          1    1    5    5  503    0 -0.23942642242E+03 -0.17804412856E+03 -0.48238852802E+02  0.30224445468E+03  0.00000000000E+00 0. -1.
         -2    1    5    5    0  503 -0.13394087298E+03 -0.52031024592E+02  0.20341805337E+02  0.14512468439E+03  0.00000000000E+00 0.  1.
         -3    1    6    6    0  502  0.94458871735E+02  0.40390902007E+02 -0.69452863348E+01  0.10296669567E+03  0.00000000000E+00 0.  1.
<mgrwt>
<rscale>  0 0.13970640E+04</rscale>
<asrwt>0</asrwt>
<pdfrwt beam="1">  1        2 0.15052203E+00 0.13970640E+04</pdfrwt>
<pdfrwt beam="2">  1       -2 0.76726585E-01 0.13970640E+04</pdfrwt>
<totfact> 0.38450150E+01</totfact>
</mgrwt>
</event>
<event>
12    1  0.1519630E-007  0.1804796E+04  0.7818608E-02  0.8703753E-01
         -1   -1    0    0    0  501 -0.00000000000E+00  0.00000000000E+00  0.64160460078E+03  0.64160460078E+03  0.00000000000E+00 0.  1.
          1   -1    0    0  501    0  0.00000000000E+00 -0.00000000000E+00 -0.12691957274E+04  0.12691957274E+04  0.00000000000E+00 0. -1.
         23    2    1    2    0    0  0.35995812654E+02 -0.35916531198E+03 -0.84330723038E+03  0.92206615486E+03  0.93506626868E+02 0.  0.
        254    2    1    2    0    0 -0.35995812654E+02  0.35916531198E+03  0.21571610374E+03  0.98873417334E+03  0.89485552368E+03 0.  0.
        -24    2    4    4    0    0 -0.76885692877E+02 -0.25898659337E+03  0.23021909871E+03  0.36423127262E+03  0.81719772584E+02 0.  0.
         24    2    4    4    0    0  0.40889880222E+02  0.61815190535E+03 -0.14502994967E+02  0.62450290072E+03  0.77522743413E+02 0.  0.
         11    1    3    3    0    0 -0.10422164668E+02 -0.89253261799E+02 -0.13041053539E+03  0.15837194827E+03  0.00000000000E+00 0.  1.
        -11    1    3    3    0    0  0.46417977322E+02 -0.26991205019E+03 -0.71289669499E+03  0.76369420659E+03  0.00000000000E+00 0. -1.
          4    1    6    6  502    0 -0.91540537194E-01  0.28768463340E+03  0.26903138809E+02  0.28893984764E+03  0.00000000000E+00 0. -1.
          3    1    5    5  503    0  0.12147649632E+02 -0.44651890337E+02  0.17714167890E+02  0.49549454550E+02  0.00000000000E+00 0. -1.
         -2    1    5    5    0  503 -0.89033342508E+02 -0.21433470303E+03  0.21250493082E+03  0.31468181807E+03  0.00000000000E+00 0.  1.
         -3    1    6    6    0  502  0.40981420760E+02  0.33046727195E+03 -0.41406133776E+02  0.33556305308E+03  0.00000000000E+00 0.  1.
<mgrwt>
<rscale>  0 0.18047956E+04</rscale>
<asrwt>0</asrwt>
<pdfrwt beam="1">  1        1 0.19526088E+00 0.18047956E+04</pdfrwt>
<pdfrwt beam="2">  1       -1 0.98708402E-01 0.18047956E+04</pdfrwt>
<totfact> 0.88154760E+00</totfact>
</mgrwt>
</event>
<event>
12    1  0.1519630E-007  0.1011169E+04  0.7818608E-02  0.9296379E-01
          2   -1    0    0  501    0  0.00000000000E+00  0.00000000000E+00  0.44583037164E+03  0.44583037164E+03  0.00000000000E+00 0. -1.
         -2   -1    0    0    0  501 -0.00000000000E+00 -0.00000000000E+00 -0.57334727347E+03  0.57334727347E+03  0.00000000000E+00 0.  1.
         23    2    1    2    0    0  0.30147318515E+02 -0.35199248314E+02  0.33529980923E+02  0.10398206718E+03  0.86834110685E+02 0.  0.
        254    2    1    2    0    0 -0.30147318515E+02  0.35199248314E+02 -0.16104688276E+03  0.91519557793E+03  0.89972162335E+03 0.  0.
        -24    2    4    4    0    0 -0.41712208031E+03  0.17514048855E+03  0.17109804960E+02  0.45984603852E+03  0.80626379690E+02 0.  0.
         24    2    4    4    0    0  0.38697476179E+03 -0.13994124024E+03 -0.17815668772E+03  0.45534953941E+03  0.79185735331E+02 0.  0.
         11    1    3    3    0    0 -0.80914594596E+01  0.41460728199E+01  0.46684290092E+02  0.47561376950E+02  0.00000000000E+00 0.  1.
        -11    1    3    3    0    0  0.38238777974E+02 -0.39345321134E+02 -0.13154309169E+02  0.56420690228E+02  0.00000000000E+00 0. -1.
          4    1    6    6  502    0  0.22029446352E+03 -0.44444734290E+02 -0.72651950875E+02  0.23618486622E+03  0.00000000000E+00 0. -1.
          3    1    5    5  503    0 -0.37326308534E+03  0.13435204210E+03  0.32411901164E+02  0.39802805608E+03  0.00000000000E+00 0. -1.
         -4    1    5    5    0  503 -0.43858994970E+02  0.40788446452E+02 -0.15302096204E+02  0.61817982432E+02  0.00000000000E+00 0.  1.
         -3    1    6    6    0  502  0.16668029827E+03 -0.95496505949E+02 -0.10550473684E+03  0.21916467320E+03  0.00000000000E+00 0.  1.
<mgrwt>
<rscale>  0 0.10111689E+04</rscale>
<asrwt>0</asrwt>
<pdfrwt beam="1">  1        2 0.68589288E-01 0.10111689E+04</pdfrwt>
<pdfrwt beam="2">  1       -2 0.88207273E-01 0.10111689E+04</pdfrwt>
<totfact> 0.77686656E+01</totfact>
</mgrwt>
</event>
<event>
12    1  0.1519630E-007  0.2446150E+04  0.7818608E-02  0.8422425E-01
         -1   -1    0    0    0  501 -0.00000000000E+00  0.00000000000E+00  0.39528607675E+03  0.39528607675E+03  0.00000000000E+00 0.  1.
          1   -1    0    0  501    0  0.00000000000E+00 -0.00000000000E+00 -0.37843795737E+04  0.37843795737E+04  0.00000000000E+00 0. -1.
         23    2    1    2    0    0 -0.11662757617E+03 -0.78736811640E+03 -0.27742921632E+03  0.84795766713E+03  0.92275093788E+02 0.  0.
        254    2    1    2    0    0  0.11662757617E+03  0.78736811640E+03 -0.31116642807E+04  0.33317079834E+04  0.88559186340E+03 0.  0.
        -24    2    4    4    0    0 -0.22865596695E+03  0.79994931481E+03 -0.22175760891E+04  0.23698766551E+04  0.80431286464E+02 0.  0.
         24    2    4    4    0    0  0.34528354313E+03 -0.12581198407E+02 -0.89408819152E+03  0.96183132824E+03  0.79666793884E+02 0.  0.
         13    1    3    3    0    0 -0.93549844091E+02 -0.74975684441E+03 -0.27392183196E+03  0.80369152608E+03  0.00000000000E+00 0.  1.
        -13    1    3    3    0    0 -0.23077732082E+02 -0.37611271989E+02 -0.35073843671E+01  0.44266141053E+02  0.00000000000E+00 0. -1.
          2    1    6    6  502    0  0.33834470191E+03 -0.23057846702E+02 -0.87926249743E+03  0.94239659432E+03  0.00000000000E+00 0. -1.
          1    1    5    5  503    0 -0.19317291238E+03  0.70492414654E+03 -0.18688256234E+04  0.20066746216E+04  0.00000000000E+00 0. -1.
         -2    1    5    5    0  503 -0.35483054574E+02  0.95025168269E+02 -0.34875046575E+03  0.36320203349E+03  0.00000000000E+00 0.  1.
         -1    1    6    6    0  502  0.69388412176E+01  0.10476648296E+02 -0.14825694096E+02  0.19434733916E+02  0.00000000000E+00 0.  1.
<mgrwt>
<rscale>  0 0.24461501E+04</rscale>
<asrwt>0</asrwt>
<pdfrwt beam="1">  1        1 0.58221222E+00 0.24461501E+04</pdfrwt>
<pdfrwt beam="2">  1       -1 0.60813245E-01 0.24461501E+04</pdfrwt>
<totfact> 0.36029359E-01</totfact>
</mgrwt>
</event>
<event>
12    1  0.1519630E-007  0.1685192E+04  0.7818608E-02  0.8769855E-01
          1   -1    0    0  501    0  0.00000000000E+00  0.00000000000E+00  0.32208511487E+04  0.32208511487E+04  0.00000000000E+00 0. -1.
         -1   -1    0    0    0  501 -0.00000000000E+00 -0.00000000000E+00 -0.22042865031E+03  0.22042865031E+03  0.00000000000E+00 0.  1.
         23    2    1    2    0    0  0.10709744710E+03 -0.43041122531E+03  0.25821353394E+03  0.52139840690E+03  0.91969470789E+02 0.  0.
        254    2    1    2    0    0 -0.10709744710E+03  0.43041122531E+03  0.27422089644E+04  0.29198813921E+04  0.89959638356E+03 0.  0.
        -24    2    4    4    0    0 -0.10363084465E+03  0.42890988242E+01 -0.11980267015E+02  0.13178482282E+03  0.80411220582E+02 0.  0.
         24    2    4    4    0    0 -0.34666024533E+01  0.42612212648E+03  0.27541892314E+04  0.27880965693E+04  0.79574324095E+02 0.  0.
         13    1    3    3    0    0  0.55619303152E+02 -0.31574037936E+03  0.14359624042E+03  0.35129101085E+03  0.00000000000E+00 0.  1.
        -13    1    3    3    0    0  0.51478143952E+02 -0.11467084595E+03  0.11461729353E+03  0.17010739605E+03  0.00000000000E+00 0. -1.
          4    1    6    6  502    0 -0.13947460220E+02  0.32323134402E+03  0.22736834089E+04  0.22965864402E+04  0.00000000000E+00 0. -1.
          3    1    5    5  503    0 -0.48952542826E+02 -0.19350148016E+02 -0.39847025509E+02  0.66019429862E+02  0.00000000000E+00 0. -1.
         -4    1    5    5    0  503 -0.54678301824E+02  0.23639246840E+02  0.27866758495E+02  0.65765392955E+02  0.00000000000E+00 0.  1.
         -3    1    6    6    0  502  0.10480857767E+02  0.10289078247E+03  0.48050582250E+03  0.49151012904E+03  0.00000000000E+00 0.  1.
<mgrwt>
<rscale>  0 0.16851918E+04</rscale>
<asrwt>0</asrwt>
<pdfrwt beam="1">  1        1 0.49551553E+00 0.16851918E+04</pdfrwt>
<pdfrwt beam="2">  1       -1 0.33912103E-01 0.16851918E+04</pdfrwt>
<totfact> 0.32262425E+00</totfact>
</mgrwt>
</event>
<event>
12    1  0.1519630E-007  0.2091911E+04  0.7818608E-02  0.8564815E-01
          2   -1    0    0  501    0  0.00000000000E+00  0.00000000000E+00  0.27240447601E+04  0.27240447601E+04  0.00000000000E+00 0. -1.
         -2   -1    0    0    0  501 -0.00000000000E+00 -0.00000000000E+00 -0.40161712722E+03  0.40161712722E+03  0.00000000000E+00 0.  1.
         23    2    1    2    0    0  0.55004291918E+03 -0.41394621330E+03  0.25955952407E+03  0.74183153232E+03  0.95100974611E+02 0.  0.
        254    2    1    2    0    0 -0.55004291918E+03  0.41394621330E+03  0.20628681088E+04  0.23838303550E+04  0.97638294056E+03 0.  0.
        -24    2    4    4    0    0 -0.48494059613E+03  0.71305229550E+03  0.16531855104E+04  0.18661821726E+04  0.77476523498E+02 0.  0.
         24    2    4    4    0    0 -0.65102323048E+02 -0.29910608220E+03  0.40968259838E+03  0.51764818235E+03  0.80106481692E+02 0.  0.
         11    1    3    3    0    0  0.14247737535E+03 -0.14177431775E+03  0.40612977509E+02  0.20505895153E+03  0.00000000000E+00 0.  1.
        -11    1    3    3    0    0  0.40756554383E+03 -0.27217189555E+03  0.21894654656E+03  0.53677258080E+03  0.00000000000E+00 0. -1.
          4    1    6    6  502    0  0.93577268062E+00  0.30134744435E+01  0.19594959916E+02  0.19847396626E+02  0.00000000000E+00 0. -1.
          1    1    5    5  503    0 -0.32282185027E+02  0.90041269682E+02  0.18941962319E+03  0.21220123318E+03  0.00000000000E+00 0. -1.
         -2    1    5    5    0  503 -0.45265841110E+03  0.62301102582E+03  0.14637658873E+04  0.16539809395E+04  0.00000000000E+00 0.  1.
         -3    1    6    6    0  502 -0.66038095728E+02 -0.30211955664E+03  0.39008763846E+03  0.49780078573E+03  0.00000000000E+00 0.  1.
<mgrwt>
<rscale>  0 0.20919111E+04</rscale>
<asrwt>0</asrwt>
<pdfrwt beam="1">  1        2 0.41908380E+00 0.20919111E+04</pdfrwt>
<pdfrwt beam="2">  1       -2 0.61787252E-01 0.20919111E+04</pdfrwt>
<totfact> 0.57701115E+00</totfact>
</mgrwt>
</event>
<event>
12    1  0.1519630E-007  0.4332182E+04  0.7818608E-02  0.7940694E-01
          2   -1    0    0  501    0  0.00000000000E+00  0.00000000000E+00  0.31040631944E+04  0.31040631944E+04  0.00000000000E+00 0. -1.
         -2   -1    0    0    0  501 -0.00000000000E+00 -0.00000000000E+00 -0.15115508451E+04  0.15115508451E+04  0.00000000000E+00 0.  1.
         23    2    1    2    0    0 -0.75880523703E+03 -0.20965221590E+03 -0.12793712642E+04  0.15050070191E+04  0.92281398107E+02 0.  0.
        254    2    1    2    0    0  0.75880523703E+03  0.20965221590E+03  0.28718836135E+04  0.31106070203E+04  0.89912240892E+03 0.  0.
        -24    2    4    4    0    0  0.43754228971E+03  0.40281243437E+03  0.25202288998E+04  0.25906467872E+04  0.78714396553E+02 0.  0.
         24    2    4    4    0    0  0.32126294732E+03 -0.19316021847E+03  0.35165471374E+03  0.51996023316E+03  0.78592970806E+02 0.  0.
         13    1    3    3    0    0 -0.71477101686E+03 -0.19258038032E+03 -0.12368821420E+04  0.14414791857E+04  0.00000000000E+00 0.  1.
        -13    1    3    3    0    0 -0.44034220172E+02 -0.17071835583E+02 -0.42489122195E+02  0.63527833437E+02  0.00000000000E+00 0. -1.
          4    1    6    6  502    0  0.12070800037E+03 -0.50234965313E+02  0.79937312574E+02  0.15324472923E+03  0.00000000000E+00 0. -1.
          3    1    5    5  503    0  0.27989243316E+02  0.40493766662E+01  0.11475843419E+03  0.11819176541E+03  0.00000000000E+00 0. -1.
         -4    1    5    5    0  503  0.40955304639E+03  0.39876305771E+03  0.24054704656E+04  0.24724550218E+04  0.00000000000E+00 0.  1.
         -3    1    6    6    0  502  0.20055494695E+03 -0.14292525316E+03  0.27171740116E+03  0.36671550394E+03  0.00000000000E+00 0.  1.
<mgrwt>
<rscale>  0 0.43321816E+04</rscale>
<asrwt>0</asrwt>
<pdfrwt beam="1">  1        2 0.47754819E+00 0.43321816E+04</pdfrwt>
<pdfrwt beam="2">  1       -2 0.23254628E+00 0.43321816E+04</pdfrwt>
<totfact> 0.94619010E-02</totfact>
</mgrwt>
</event>
<event>
12    1  0.1519630E-007  0.1941959E+04  0.7818608E-02  0.8634248E-01
         -2   -1    0    0    0  501 -0.00000000000E+00  0.00000000000E+00  0.11054541682E+04  0.11054541682E+04  0.00000000000E+00 0.  1.
          2   -1    0    0  501    0  0.00000000000E+00 -0.00000000000E+00 -0.85286356659E+03  0.85286356659E+03  0.00000000000E+00 0. -1.
         23    2    1    2    0    0 -0.45071054089E+03  0.22335413361E+03 -0.48519904455E+03  0.70499455435E+03  0.92585896159E+02 0.  0.
        254    2    1    2    0    0  0.45071054089E+03 -0.22335413361E+03  0.73778964615E+03  0.12533231804E+04  0.87946482134E+03 0.  0.
        -24    2    4    4    0    0  0.53665968723E+03 -0.21519827185E+03  0.88783931111E+03  0.10629106169E+04  0.84890641226E+02 0.  0.
         24    2    4    4    0    0 -0.85949146349E+02 -0.81558617645E+01 -0.15004966496E+03  0.19041256357E+03  0.79298603837E+02 0.  0.
         13    1    3    3    0    0 -0.36468198295E+03  0.14381647258E+03 -0.34428910860E+03  0.52173855212E+03  0.00000000000E+00 0. -1.
        -13    1    3    3    0    0 -0.86028557940E+02  0.79537661033E+02 -0.14090993595E+03  0.18325600223E+03  0.00000000000E+00 0.  1.
          2    1    6    6  502    0 -0.16334550515E+02  0.83072815721E+01 -0.10339926633E+03  0.10501065063E+03  0.00000000000E+00 0. -1.
          3    1    5    5  503    0  0.64011415044E+02 -0.40935873007E+02  0.16723873585E+03  0.18368996087E+03  0.00000000000E+00 0. -1.
         -2    1    5    5    0  503  0.47264827219E+03 -0.17426239884E+03  0.72060057526E+03  0.87922065599E+03  0.00000000000E+00 0.  1.
         -1    1    6    6    0  502 -0.69614595835E+02 -0.16463143337E+02 -0.46650398635E+02  0.85401912944E+02  0.00000000000E+00 0.  1.
<mgrwt>
<rscale>  0 0.19419594E+04</rscale>
<asrwt>0</asrwt>
<pdfrwt beam="1">  1        2 0.13120978E+00 0.19419594E+04</pdfrwt>
<pdfrwt beam="2">  1       -2 0.17006987E+00 0.19419594E+04</pdfrwt>
<totfact> 0.62754291E+00</totfact>
</mgrwt>
</event>
<event>
12    1  0.1519630E-007  0.2029572E+04  0.7818608E-02  0.8592918E-01
          1   -1    0    0  501    0  0.00000000000E+00  0.00000000000E+00  0.16378286599E+04  0.16378286599E+04  0.00000000000E+00 0. -1.
         -1   -1    0    0    0  501 -0.00000000000E+00 -0.00000000000E+00 -0.62875373032E+03  0.62875373032E+03  0.00000000000E+00 0.  1.
         23    2    1    2    0    0 -0.11916349860E+03 -0.14070425916E+03  0.13007902784E+04  0.13173398167E+04  0.96598221532E+02 0.  0.
        254    2    1    2    0    0  0.11916349860E+03  0.14070425916E+03 -0.29171534883E+03  0.94924257348E+03  0.88428840918E+03 0.  0.
        -24    2    4    4    0    0  0.29755853493E+02 -0.22643167050E+03 -0.46621985366E+03  0.52524865589E+03  0.79802796545E+02 0.  0.
         24    2    4    4    0    0  0.89407645104E+02  0.36713592966E+03  0.17450450483E+03  0.42399391759E+03  0.80848636944E+02 0.  0.
         11    1    3    3    0    0 -0.12270283693E+03 -0.78665445909E+02  0.88106426424E+03  0.89303889965E+03  0.00000000000E+00 0. -1.
        -11    1    3    3    0    0  0.35393383365E+01 -0.62038813247E+02  0.41972601413E+03  0.42430091704E+03  0.00000000000E+00 0.  1.
          2    1    6    6  502    0  0.88200482914E+01  0.14383372139E+01 -0.32058005854E+01  0.94941678517E+01  0.00000000000E+00 0. -1.
          1    1    5    5  503    0 -0.13662879864E+02 -0.77258881765E+02 -0.97596457859E+02  0.12522251269E+03  0.00000000000E+00 0. -1.
         -2    1    5    5    0  503  0.43418733356E+02 -0.14917278874E+03 -0.36862339581E+03  0.40002614320E+03  0.00000000000E+00 0.  1.
         -1    1    6    6    0  502  0.80587596812E+02  0.36569759245E+03  0.17771030542E+03  0.41449974974E+03  0.00000000000E+00 0.  1.
<mgrwt>
<rscale>  0 0.20295723E+04</rscale>
<asrwt>0</asrwt>
<pdfrwt beam="1">  1        1 0.25197364E+00 0.20295723E+04</pdfrwt>
<pdfrwt beam="2">  1       -1 0.96731344E-01 0.20295723E+04</pdfrwt>
<totfact> 0.49994176E+00</totfact>
</mgrwt>
</event>
<event>
12    1  0.1519630E-007  0.2063265E+04  0.7818608E-02  0.8577600E-01
          1   -1    0    0  501    0  0.00000000000E+00  0.00000000000E+00  0.18810260489E+04  0.18810260489E+04  0.00000000000E+00 0. -1.
         -1   -1    0    0    0  501 -0.00000000000E+00 -0.00000000000E+00 -0.56578988627E+03  0.56578988627E+03  0.00000000000E+00 0.  1.
         23    2    1    2    0    0  0.34479047852E+03 -0.41337831929E+03 -0.21924795107E+03  0.58854823594E+03  0.92505421710E+02 0.  0.
        254    2    1    2    0    0 -0.34479047852E+03  0.41337831929E+03  0.15344841137E+04  0.18582676993E+04  0.89930819962E+03 0.  0.
        -24    2    4    4    0    0 -0.43828720090E+03 -0.15103036598E+03  0.71508870023E+03  0.85584037422E+03  0.78772171635E+02 0.  0.
         24    2    4    4    0    0  0.93496722380E+02  0.56440868527E+03  0.81939541349E+03  0.10024273250E+04  0.78440405584E+02 0.  0.
         11    1    3    3    0    0  0.21774850675E+03 -0.30371174860E+03 -0.11509075336E+03  0.39102572797E+03  0.00000000000E+00 0.  1.
        -11    1    3    3    0    0  0.12704197178E+03 -0.10966657068E+03 -0.10415719771E+03  0.19752250797E+03  0.00000000000E+00 0. -1.
          4    1    6    6  502    0  0.51612767706E+01  0.17628926799E+03  0.20579665643E+03  0.27102916555E+03  0.00000000000E+00 0. -1.
          1    1    5    5  503    0 -0.27641484859E+02  0.96197334709E+01  0.45476625865E+02  0.54080629225E+02  0.00000000000E+00 0. -1.
         -2    1    5    5    0  503 -0.41064571604E+03 -0.16065009945E+03  0.66961207436E+03  0.80175974499E+03  0.00000000000E+00 0.  1.
         -3    1    6    6    0  502  0.88335445609E+02  0.38811941728E+03  0.61359875707E+03  0.73139815948E+03  0.00000000000E+00 0.  1.
<mgrwt>
<rscale>  0 0.20632649E+04</rscale>
<asrwt>0</asrwt>
<pdfrwt beam="1">  1        1 0.28938862E+00 0.20632649E+04</pdfrwt>
<pdfrwt beam="2">  1       -1 0.87044599E-01 0.20632649E+04</pdfrwt>
<totfact> 0.43039340E+00</totfact>
</mgrwt>
</event>
<event>
12    1  0.1519630E-007  0.1808606E+04  0.7818608E-02  0.8701736E-01
          2   -1    0    0  501    0  0.00000000000E+00  0.00000000000E+00  0.26633472934E+04  0.26633472934E+04  0.00000000000E+00 0. -1.
         -2   -1    0    0    0  501 -0.00000000000E+00 -0.00000000000E+00 -0.30704363926E+03  0.30704363926E+03  0.00000000000E+00 0.  1.
         23    2    1    2    0    0 -0.65486131673E+03 -0.17348805541E+03  0.95874759700E+03  0.11775390622E+04  0.91977381946E+02 0.  0.
        254    2    1    2    0    0  0.65486131673E+03  0.17348805541E+03  0.13975560571E+04  0.17928518704E+04  0.89566369077E+03 0.  0.
        -24    2    4    4    0    0  0.46501743047E+03  0.28443998895E+03  0.14525452983E+04  0.15535973990E+04  0.81423071901E+02 0.  0.
         24    2    4    4    0    0  0.18984388625E+03 -0.11095193354E+03 -0.54989241189E+02  0.23925447140E+03  0.76601910782E+02 0.  0.
         11    1    3    3    0    0 -0.36919864141E+03 -0.72382889377E+02  0.46396254395E+03  0.59733421272E+03  0.00000000000E+00 0.  1.
        -11    1    3    3    0    0 -0.28566267532E+03 -0.10110516603E+03  0.49478505304E+03  0.58020484950E+03  0.00000000000E+00 0. -1.
          4    1    6    6  502    0  0.18208036447E+03 -0.85456937791E+02 -0.64076432127E+02  0.21109698363E+03  0.00000000000E+00 0. -1.
          3    1    5    5  503    0  0.32408247179E+03  0.21884097084E+03  0.11251782262E+04  0.11911955590E+04  0.00000000000E+00 0. -1.
         -4    1    5    5    0  503  0.14093495868E+03  0.65599018102E+02  0.32736707213E+03  0.36240184005E+03  0.00000000000E+00 0.  1.
         -3    1    6    6    0  502  0.77635217832E+01 -0.25494995748E+02  0.90871909380E+01  0.28157487775E+02  0.00000000000E+00 0.  1.
<mgrwt>
<rscale>  0 0.18086059E+04</rscale>
<asrwt>0</asrwt>
<pdfrwt beam="1">  1        2 0.40974572E+00 0.18086059E+04</pdfrwt>
<pdfrwt beam="2">  1       -2 0.47237485E-01 0.18086059E+04</pdfrwt>
<totfact> 0.11209432E+01</totfact>
</mgrwt>
</event>
<event>
12    1  0.1519630E-007  0.2520371E+04  0.7818608E-02  0.8395764E-01
          1   -1    0    0  501    0  0.00000000000E+00  0.00000000000E+00  0.25657122340E+04  0.25657122340E+04  0.00000000000E+00 0. -1.
         -1   -1    0    0    0  501 -0.00000000000E+00 -0.00000000000E+00 -0.61895776532E+03  0.61895776532E+03  0.00000000000E+00 0.  1.
         23    2    1    2    0    0  0.99735421999E+03 -0.20784051656E+03  0.33404199836E+03  0.10760712182E+04  0.91826409284E+02 0.  0.
        254    2    1    2    0    0 -0.99735421999E+03  0.20784051656E+03  0.16127124704E+04  0.21085987812E+04  0.89857341802E+03 0.  0.
        -24    2    4    4    0    0 -0.84124892481E+03  0.52546639676E+03  0.11931933017E+04  0.15537706068E+04  0.81719983304E+02 0.  0.
         24    2    4    4    0    0 -0.15610529518E+03 -0.31762588021E+03  0.41951916870E+03  0.55482817445E+03  0.81135117498E+02 0.  0.
         13    1    3    3    0    0  0.20071555919E+03 -0.25826302603E+02  0.32077576883E+02  0.20489681438E+03  0.00000000000E+00 0. -1.
        -13    1    3    3    0    0  0.79663866080E+03 -0.18201421395E+03  0.30196442148E+03  0.87117440378E+03  0.00000000000E+00 0.  1.
          2    1    6    6  502    0 -0.13850624078E+03 -0.30478891675E+03  0.41387079912E+03  0.53232443197E+03  0.00000000000E+00 0. -1.
          3    1    5    5  503    0 -0.59044313216E+03  0.32760809521E+03  0.83364070421E+03  0.10728033278E+04  0.00000000000E+00 0. -1.
         -4    1    5    5    0  503 -0.25080579265E+03  0.19785830155E+03  0.35955259744E+03  0.48096727898E+03  0.00000000000E+00 0.  1.
         -1    1    6    6    0  502 -0.17599054398E+02 -0.12836963460E+02  0.56483695826E+01  0.22503742478E+02  0.00000000000E+00 0.  1.
<mgrwt>
<rscale>  0 0.25203710E+04</rscale>
<asrwt>0</asrwt>
<pdfrwt beam="1">  1        1 0.39472495E+00 0.25203710E+04</pdfrwt>
<pdfrwt beam="2">  1       -1 0.95224273E-01 0.25203710E+04</pdfrwt>
<totfact> 0.11513394E+00</totfact>
</mgrwt>
</event>
<event>
12    1  0.1519630E-007  0.1665949E+04  0.7818608E-02  0.8781027E-01
          2   -1    0    0  501    0  0.00000000000E+00  0.00000000000E+00  0.28545764042E+04  0.28545764042E+04  0.00000000000E+00 0. -1.
         -2   -1    0    0    0  501 -0.00000000000E+00 -0.00000000000E+00 -0.24306452293E+03  0.24306452293E+03  0.00000000000E+00 0.  1.
         23    2    1    2    0    0  0.35311074226E+03 -0.25306290365E+03  0.19435233078E+03  0.48445901234E+03  0.90552065971E+02 0.  0.
        254    2    1    2    0    0 -0.35311074226E+03  0.25306290365E+03  0.24171595505E+04  0.26131819148E+04  0.89293415086E+03 0.  0.
        -24    2    4    4    0    0  0.19285253888E+03  0.34610160193E+03  0.71154690904E+03  0.81849640705E+03  0.81602352720E+02 0.  0.
         24    2    4    4    0    0 -0.54596328115E+03 -0.93038698281E+02  0.17056126415E+04  0.17946855078E+04  0.71059730496E+02 0.  0.
         11    1    3    3    0    0  0.22850460613E+03 -0.14562298175E+03  0.74850637153E+02  0.28111034439E+03  0.00000000000E+00 0.  1.
        -11    1    3    3    0    0  0.12460613613E+03 -0.10743992190E+03  0.11950169363E+03  0.20334866795E+03  0.00000000000E+00 0. -1.
          4    1    6    6  502    0 -0.10479995806E+03 -0.77375716689E+01  0.41469310156E+03  0.42780050223E+03  0.00000000000E+00 0. -1.
          1    1    5    5  503    0  0.43477415735E+02  0.15960998596E+03  0.27996415198E+03  0.32518542355E+03  0.00000000000E+00 0. -1.
         -2    1    5    5    0  503  0.14937512315E+03  0.18649161597E+03  0.43158275706E+03  0.49331098349E+03  0.00000000000E+00 0.  1.
         -3    1    6    6    0  502 -0.44116332309E+03 -0.85301126612E+02  0.12909195399E+04  0.13668850055E+04  0.00000000000E+00 0.  1.
<mgrwt>
<rscale>  0 0.16659487E+04</rscale>
<asrwt>0</asrwt>
<pdfrwt beam="1">  1        2 0.43916558E+00 0.16659487E+04</pdfrwt>
<pdfrwt beam="2">  1       -2 0.37394544E-01 0.16659487E+04</pdfrwt>
<totfact> 0.13839025E+01</totfact>
</mgrwt>
</event>
<event>
12    1  0.1519630E-007  0.1754169E+04  0.7818608E-02  0.8731059E-01
          2   -1    0    0  501    0  0.00000000000E+00  0.00000000000E+00  0.15663716717E+04  0.15663716717E+04  0.00000000000E+00 0. -1.
         -2   -1    0    0    0  501 -0.00000000000E+00 -0.00000000000E+00 -0.49112025046E+03  0.49112025046E+03  0.00000000000E+00 0.  1.
         23    2    1    2    0    0 -0.49539690643E+03  0.42979348651E+03  0.42078595083E+03  0.78400521874E+03  0.86387676473E+02 0.  0.
        254    2    1    2    0    0  0.49539690643E+03 -0.42979348651E+03  0.65446547041E+03  0.12734867034E+04  0.87367201850E+03 0.  0.
        -24    2    4    4    0    0 -0.71471334458E+01 -0.50397784356E+03  0.54692135583E+03  0.74804226733E+03  0.79996974580E+02 0.  0.
         24    2    4    4    0    0  0.50254403987E+03  0.74184357043E+02  0.10754411459E+03  0.52544443610E+03  0.80450531393E+02 0.  0.
         13    1    3    3    0    0 -0.11056148074E+03  0.99800829053E+02  0.14040618585E+03  0.20468987158E+03  0.00000000000E+00 0. -1.
        -13    1    3    3    0    0 -0.38483542569E+03  0.32999265746E+03  0.28037976498E+03  0.57931534716E+03  0.00000000000E+00 0.  1.
          2    1    6    6  502    0  0.38442858033E+03  0.30708893379E+02  0.57134971033E+02  0.38986250707E+03  0.00000000000E+00 0. -1.
          1    1    5    5  503    0  0.14722452321E+02 -0.13761603561E+03  0.19847268080E+03  0.24196348668E+03  0.00000000000E+00 0. -1.
         -2    1    5    5    0  503 -0.21869585767E+02 -0.36636180795E+03  0.34844867502E+03  0.50607878065E+03  0.00000000000E+00 0.  1.
         -1    1    6    6    0  502  0.11811545955E+03  0.43475463665E+02  0.50409143554E+02  0.13558192903E+03  0.00000000000E+00 0.  1.
<mgrwt>
<rscale>  0 0.17541686E+04</rscale>
<asrwt>0</asrwt>
<pdfrwt beam="1">  1        2 0.24098025E+00 0.17541686E+04</pdfrwt>
<pdfrwt beam="2">  1       -2 0.75556963E-01 0.17541686E+04</pdfrwt>
<totfact> 0.17333191E+01</totfact>
</mgrwt>
</event>
<event>
12    1  0.1519630E-007  0.2815387E+04  0.7818608E-02  0.8298507E-01
         -2   -1    0    0    0  501 -0.00000000000E+00  0.00000000000E+00  0.72261694044E+03  0.72261694044E+03  0.00000000000E+00 0. -1.
          2   -1    0    0  501    0  0.00000000000E+00 -0.00000000000E+00 -0.27422567404E+04  0.27422567404E+04  0.00000000000E+00 0.  1.
         23    2    1    2    0    0  0.38967237322E+03 -0.42801970561E+03 -0.22960174396E+04  0.23696038848E+04  0.91000336782E+02 0.  0.
        254    2    1    2    0    0 -0.38967237322E+03  0.42801970561E+03  0.27637763960E+03  0.10952697960E+04  0.88779834399E+03 0.  0.
        -24    2    4    4    0    0 -0.72639157138E+02 -0.17491666609E+03 -0.17851082469E+03  0.27228080763E+03  0.79990227216E+02 0.  0.
         24    2    4    4    0    0 -0.31703321608E+03  0.60293637169E+03  0.45488846428E+03  0.82298898840E+03  0.79655707103E+02 0.  0.
         13    1    3    3    0    0  0.20399551476E+03 -0.29005569317E+03 -0.13966435898E+04  0.14409579425E+04  0.00000000000E+00 0.  1.
        -13    1    3    3    0    0  0.18567685846E+03 -0.13796401243E+03 -0.89937384978E+03  0.92864594230E+03  0.00000000000E+00 0. -1.
          2    1    6    6  502    0 -0.48293777428E+02  0.42605742879E+02  0.41937280394E+02  0.76852285271E+02  0.00000000000E+00 0. -1.
          1    1    5    5  503    0 -0.65553506299E+02 -0.57595676752E+02 -0.88049680600E+02  0.12396479509E+03  0.00000000000E+00 0. -1.
         -2    1    5    5    0  503 -0.70856508399E+01 -0.11732098934E+03 -0.90461144086E+02  0.14831601254E+03  0.00000000000E+00 0.  1.
         -1    1    6    6    0  502 -0.26873943865E+03  0.56033062881E+03  0.41295118389E+03  0.74613670313E+03  0.00000000000E+00 0.  1.
<mgrwt>
<rscale>  0 0.28153871E+04</rscale>
<asrwt>0</asrwt>
<pdfrwt beam="1">  1        2 0.42188566E+00 0.28153871E+04</pdfrwt>
<pdfrwt beam="2">  1       -2 0.11117184E+00 0.28153871E+04</pdfrwt>
<totfact> 0.13937304E+00</totfact>
</mgrwt>
</event>
<event>
12    1  0.1519630E-007  0.1852229E+04  0.7818608E-02  0.8679007E-01
          4   -1    0    0  501    0  0.00000000000E+00  0.00000000000E+00  0.99958189991E+03  0.99958189991E+03  0.00000000000E+00 0. -1.
         -4   -1    0    0    0  501 -0.00000000000E+00 -0.00000000000E+00 -0.85804694783E+03  0.85804694783E+03  0.00000000000E+00 0.  1.
         23    2    1    2    0    0  0.68873277086E+03  0.45844666773E+02  0.20430757411E+03  0.72593811367E+03  0.93754983337E+02 0.  0.
        254    2    1    2    0    0 -0.68873277086E+03 -0.45844666773E+02 -0.62772622026E+02  0.11316907341E+04  0.89461106207E+03 0.  0.
        -24    2    4    4    0    0 -0.16220073635E+03 -0.41431887303E+03  0.10264708015E+03  0.46363574768E+03  0.80327305694E+02 0.  0.
         24    2    4    4    0    0 -0.52653203451E+03  0.36847420626E+03 -0.16541970218E+03  0.66805498639E+03  0.76971182484E+02 0.  0.
         11    1    3    3    0    0  0.67590634396E+03  0.44960760040E+02  0.18407255289E+03  0.70196407350E+03  0.00000000000E+00 0. -1.
        -11    1    3    3    0    0  0.12826426899E+02  0.88390673340E+00  0.20235021222E+02  0.23974040168E+02  0.00000000000E+00 0.  1.
          2    1    6    6  502    0 -0.57109546151E+02  0.70607368116E+02 -0.32324483764E+02  0.96393842876E+02  0.00000000000E+00 0. -1.
          3    1    5    5  503    0  0.13607015987E+00 -0.80871558148E+01  0.15629265906E+02  0.17598140726E+02  0.00000000000E+00 0. -1.
         -4    1    5    5    0  503 -0.16233680651E+03 -0.40623171722E+03  0.87017814245E+02  0.44603760695E+03  0.00000000000E+00 0.  1.
         -1    1    6    6    0  502 -0.46942248836E+03  0.29786683814E+03 -0.13309521841E+03  0.57166114351E+03  0.00000000000E+00 0.  1.
<mgrwt>
<rscale>  0 0.18522291E+04</rscale>
<asrwt>0</asrwt>
<pdfrwt beam="1">  1        4 0.15378183E+00 0.18522291E+04</pdfrwt>
<pdfrwt beam="2">  1       -4 0.13200722E+00 0.18522291E+04</pdfrwt>
<totfact> 0.21806691E-01</totfact>
</mgrwt>
</event>
<event>
12    1  0.1519630E-007  0.1294058E+04  0.7818608E-02  0.9034290E-01
         -2   -1    0    0    0  501 -0.00000000000E+00  0.00000000000E+00  0.48031473018E+03  0.48031473018E+03  0.00000000000E+00 0. -1.
          2   -1    0    0  501    0  0.00000000000E+00 -0.00000000000E+00 -0.87160938334E+03  0.87160938334E+03  0.00000000000E+00 0.  1.
         23    2    1    2    0    0  0.75036992910E+02  0.28950405306E+03 -0.21281380305E+03  0.37845394164E+03  0.92165742727E+02 0.  0.
        254    2    1    2    0    0 -0.75036992910E+02 -0.28950405306E+03 -0.17848085011E+03  0.97347017187E+03  0.90903554090E+03 0.  0.
        -24    2    4    4    0    0  0.34423017753E+02 -0.59573669763E+03 -0.21051718445E+03  0.63736891786E+03  0.76383869092E+02 0.  0.
         24    2    4    4    0    0 -0.10946001066E+03  0.30623264456E+03  0.32036334335E+02  0.33610125401E+03  0.78598980255E+02 0.  0.
         13    1    3    3    0    0 -0.13654818253E+02  0.71955762870E+01 -0.30457485733E+01  0.15732354051E+02  0.00000000000E+00 0. -1.
        -13    1    3    3    0    0  0.88691811163E+02  0.28230847678E+03 -0.20976805448E+03  0.36272158759E+03  0.00000000000E+00 0.  1.
          4    1    6    6  502    0 -0.11181894865E+03  0.21094057265E+03  0.31206767863E+02  0.24077637930E+03  0.00000000000E+00 0. -1.
          3    1    5    5  503    0  0.51820734665E+02 -0.44278188781E+03 -0.17802896927E+03  0.48003698046E+03  0.00000000000E+00 0. -1.
         -4    1    5    5    0  503 -0.17397716911E+02 -0.15295480982E+03 -0.32488215180E+02  0.15733193740E+03  0.00000000000E+00 0.  1.
         -3    1    6    6    0  502  0.23589379879E+01  0.95292071911E+02  0.82956647235E+00  0.95324874707E+02  0.00000000000E+00 0.  1.
<mgrwt>
<rscale>  0 0.12940585E+04</rscale>
<asrwt>0</asrwt>
<pdfrwt beam="1">  1        2 0.13409375E+00 0.12940585E+04</pdfrwt>
<pdfrwt beam="2">  1       -2 0.73894575E-01 0.12940585E+04</pdfrwt>
<totfact> 0.49633529E+01</totfact>
</mgrwt>
</event>
<event>
12    1  0.1519630E-007  0.1227718E+04  0.7818608E-02  0.9088935E-01
         -2   -1    0    0    0  501 -0.00000000000E+00  0.00000000000E+00  0.30608108860E+03  0.30608108860E+03  0.00000000000E+00 0.  1.
          2   -1    0    0  501    0  0.00000000000E+00 -0.00000000000E+00 -0.12311216901E+04  0.12311216901E+04  0.00000000000E+00 0. -1.
         23    2    1    2    0    0 -0.11225275595E+03  0.24524359746E+03 -0.32084345184E+03  0.42902162557E+03  0.91509187036E+02 0.  0.
        254    2    1    2    0    0  0.11225275595E+03 -0.24524359746E+03 -0.60419714964E+03  0.11081811531E+04  0.88896916097E+03 0.  0.
        -24    2    4    4    0    0  0.16086839891E+03  0.28869444274E+03 -0.40927857285E+03  0.53210611417E+03  0.80030266227E+02 0.  0.
         24    2    4    4    0    0 -0.48615642960E+02 -0.53393804020E+03 -0.19491857679E+03  0.57607503893E+03  0.80099234617E+02 0.  0.
         11    1    3    3    0    0 -0.47696441141E+02  0.22552258171E+02 -0.65781115338E+02  0.84325025830E+02  0.00000000000E+00 0.  1.
        -11    1    3    3    0    0 -0.64556314805E+02  0.22269133929E+03 -0.25506233650E+03  0.34469659974E+03  0.00000000000E+00 0. -1.
          2    1    6    6  502    0 -0.65027501383E+02 -0.28800147379E+03 -0.11670329592E+03  0.31747926565E+03  0.00000000000E+00 0. -1.
          1    1    5    5  503    0  0.10881408220E+03  0.24670055355E+03 -0.35607412587E+03  0.44664353877E+03  0.00000000000E+00 0. -1.
         -2    1    5    5    0  503  0.52054316704E+02  0.41993889186E+02 -0.53204446974E+02  0.85462575402E+02  0.00000000000E+00 0.  1.
         -1    1    6    6    0  502  0.16411858423E+02 -0.24593656641E+03 -0.78215280873E+02  0.25859577328E+03  0.00000000000E+00 0.  1.
<mgrwt>
<rscale>  0 0.12277183E+04</rscale>
<asrwt>0</asrwt>
<pdfrwt beam="1">  1        2 0.18940334E+00 0.12277183E+04</pdfrwt>
<pdfrwt beam="2">  1       -2 0.47089399E-01 0.12277183E+04</pdfrwt>
<totfact> 0.76383397E+01</totfact>
</mgrwt>
</event>
<event>
12    1  0.1519630E-007  0.2074259E+04  0.7818608E-02  0.8572668E-01
         -2   -1    0    0    0  501 -0.00000000000E+00  0.00000000000E+00  0.19197229792E+04  0.19197229792E+04  0.00000000000E+00 0.  1.
          2   -1    0    0  501    0  0.00000000000E+00 -0.00000000000E+00 -0.56030870913E+03  0.56030870913E+03  0.00000000000E+00 0. -1.
         23    2    1    2    0    0  0.31252466060E+03 -0.33508565347E+03 -0.28328635064E+03  0.55300660672E+03  0.12494435552E+03 0.  0.
        254    2    1    2    0    0 -0.31252466060E+03  0.33508565347E+03  0.16427006207E+04  0.19270250816E+04  0.89722142042E+03 0.  0.
        -24    2    4    4    0    0 -0.25109721351E+03  0.51462694964E+03  0.16195628847E+04  0.17197005011E+04  0.80592606804E+02 0.  0.
         24    2    4    4    0    0 -0.61427447093E+02 -0.17954129618E+03  0.23137736049E+02  0.20732458049E+03  0.80247857022E+02 0.  0.
         11    1    3    3    0    0 -0.11611067342E+02 -0.18504606311E+02 -0.12525032412E+02  0.25181615843E+02  0.00000000000E+00 0.  1.
        -11    1    3    3    0    0  0.32413572794E+03 -0.31658104716E+03 -0.27076131823E+03  0.52782499088E+03  0.00000000000E+00 0. -1.
          2    1    6    6  502    0 -0.67225175847E+02 -0.73201410600E+02  0.15057913145E+02  0.10052070200E+03  0.00000000000E+00 0. -1.
          3    1    5    5  503    0 -0.32350728589E+01  0.26400471198E+02  0.12995605193E+03  0.13265001323E+03  0.00000000000E+00 0. -1.
         -4    1    5    5    0  503 -0.24786214065E+03  0.48822647845E+03  0.14896068327E+04  0.15870504879E+04  0.00000000000E+00 0.  1.
         -1    1    6    6    0  502  0.57977287536E+01 -0.10633988558E+03  0.80798229043E+01  0.10680387849E+03  0.00000000000E+00 0.  1.
<mgrwt>
<rscale>  0 0.20742589E+04</rscale>
<asrwt>0</asrwt>
<pdfrwt beam="1">  1        2 0.86201341E-01 0.20742589E+04</pdfrwt>
<pdfrwt beam="2">  1       -2 0.29534199E+00 0.20742589E+04</pdfrwt>
<totfact> 0.16889859E+00</totfact>
</mgrwt>
</event>
<event>
12    1  0.1519630E-007  0.4410302E+04  0.7818608E-02  0.7926531E-01
          2   -1    0    0  501    0  0.00000000000E+00  0.00000000000E+00  0.30586637033E+04  0.30586637033E+04  0.00000000000E+00 0. -1.
         -2   -1    0    0    0  501 -0.00000000000E+00 -0.00000000000E+00 -0.15898090167E+04  0.15898090167E+04  0.00000000000E+00 0.  1.
         23    2    1    2    0    0  0.60587689126E+03 -0.24186659855E+03 -0.14108858285E+04  0.15572064787E+04  0.93310972826E+02 0.  0.
        254    2    1    2    0    0 -0.60587689126E+03  0.24186659855E+03  0.28797405150E+04  0.30912662412E+04  0.91511490070E+03 0.  0.
        -24    2    4    4    0    0  0.62053421678E+01  0.58447595879E+02 -0.35551231299E+02  0.10570809748E+03  0.80347271835E+02 0.  0.
         24    2    4    4    0    0 -0.61208223343E+03  0.18341900267E+03  0.29152917463E+04  0.29855581438E+04  0.79650941835E+02 0.  0.
         13    1    3    3    0    0  0.17651637246E+03 -0.26392914471E+02 -0.36827940080E+03  0.40924849753E+03  0.00000000000E+00 0. -1.
        -13    1    3    3    0    0  0.42936051880E+03 -0.21547368408E+03 -0.10426064277E+04  0.11479579812E+04  0.00000000000E+00 0.  1.
          2    1    6    6  502    0 -0.60714875179E+03  0.18543865332E+03  0.29082155639E+04  0.29766986524E+04  0.00000000000E+00 0. -1.
          3    1    5    5  503    0  0.13113187354E+01  0.19528484567E+02 -0.57513521048E+02  0.60752665535E+02  0.00000000000E+00 0. -1.
         -4    1    5    5    0  503  0.48940234324E+01  0.38919111311E+02  0.21962289749E+02  0.44955431948E+02  0.00000000000E+00 0.  1.
         -1    1    6    6    0  502 -0.49334816332E+01 -0.20196506422E+01  0.70761824109E+01  0.88594913655E+01  0.00000000000E+00 0.  1.
<mgrwt>
<rscale>  0 0.44103021E+04</rscale>
<asrwt>0</asrwt>
<pdfrwt beam="1">  1        2 0.47056364E+00 0.44103021E+04</pdfrwt>
<pdfrwt beam="2">  1       -2 0.24458600E+00 0.44103021E+04</pdfrwt>
<totfact> 0.84626394E-02</totfact>
</mgrwt>
</event>
<event>
12    1  0.1519630E-007  0.1214957E+04  0.7818608E-02  0.9099864E-01
         -2   -1    0    0    0  501 -0.00000000000E+00  0.00000000000E+00  0.38582474417E+03  0.38582474417E+03  0.00000000000E+00 0.  1.
          2   -1    0    0  501    0  0.00000000000E+00 -0.00000000000E+00 -0.95647149740E+03  0.95647149740E+03  0.00000000000E+00 0. -1.
         23    2    1    2    0    0  0.43560926371E+02  0.24208037948E+03 -0.22598825214E+03  0.34956649979E+03  0.10308046971E+03 0.  0.
        254    2    1    2    0    0 -0.43560926371E+02 -0.24208037948E+03 -0.34465850109E+03  0.99272974178E+03  0.89789887705E+03 0.  0.
        -24    2    4    4    0    0  0.23537737122E+03 -0.35685450003E+03 -0.48420332952E+03  0.65073503704E+03  0.79092243882E+02 0.  0.
         24    2    4    4    0    0 -0.27893829759E+03  0.11477412055E+03  0.13954482843E+03  0.34199470474E+03  0.80671843404E+02 0.  0.
         11    1    3    3    0    0  0.28692590958E+02  0.49868674093E+01 -0.23623974148E+02  0.37499677025E+02  0.00000000000E+00 0.  1.
        -11    1    3    3    0    0  0.14868335413E+02  0.23709351207E+03 -0.20236427799E+03  0.31206682276E+03  0.00000000000E+00 0. -1.
          2    1    6    6  502    0 -0.25035297649E+03  0.90301063586E+02  0.92513120578E+02  0.28176155238E+03  0.00000000000E+00 0. -1.
          1    1    5    5  503    0  0.59381346001E+02 -0.47225034224E+02 -0.59208750378E+02  0.96239411011E+02  0.00000000000E+00 0. -1.
         -2    1    5    5    0  503  0.17599602522E+03 -0.30962946581E+03 -0.42499457914E+03  0.55449562603E+03  0.00000000000E+00 0.  1.
         -1    1    6    6    0  502 -0.28585321104E+02  0.24473056968E+02  0.47031707852E+02  0.60233152362E+02  0.00000000000E+00 0.  1.
<mgrwt>
<rscale>  0 0.12149574E+04</rscale>
<asrwt>0</asrwt>
<pdfrwt beam="1">  1        2 0.14714946E+00 0.12149574E+04</pdfrwt>
<pdfrwt beam="2">  1       -2 0.59357654E-01 0.12149574E+04</pdfrwt>
<totfact> 0.70231055E+01</totfact>
</mgrwt>
</event>
<event>
12    1  0.1519630E-007  0.1622894E+04  0.7818608E-02  0.8806605E-01
         -2   -1    0    0    0  501 -0.00000000000E+00  0.00000000000E+00  0.25099898657E+03  0.25099898657E+03  0.00000000000E+00 0.  1.
          2   -1    0    0  501    0  0.00000000000E+00 -0.00000000000E+00 -0.26233025777E+04  0.26233025777E+04  0.00000000000E+00 0. -1.
         23    2    1    2    0    0 -0.63721199136E+02  0.37325474906E+03 -0.15566247641E+04  0.16046347860E+04  0.91611359925E+02 0.  0.
        254    2    1    2    0    0  0.63721199136E+02 -0.37325474906E+03 -0.81567882704E+03  0.12696667783E+04  0.89629363497E+03 0.  0.
        -24    2    4    4    0    0 -0.34508499695E+03  0.62610468725E+02 -0.39684325488E+03  0.53561556188E+03  0.79973341024E+02 0.  0.
         24    2    4    4    0    0  0.40880619609E+03 -0.43586521779E+03 -0.41883557216E+03  0.73405121641E+03  0.79416356996E+02 0.  0.
         11    1    3    3    0    0 -0.48771760369E+02  0.33306970453E+03 -0.14690993821E+04  0.15071718904E+04  0.00000000000E+00 0. -1.
        -11    1    3    3    0    0 -0.14949438766E+02  0.40185044536E+02 -0.87525381963E+02  0.97462895564E+02  0.00000000000E+00 0.  1.
          2    1    6    6  502    0  0.80076571884E+01 -0.19030949800E+02 -0.32848609810E+02  0.38798592634E+02  0.00000000000E+00 0. -1.
          1    1    5    5  503    0 -0.43615314041E+02  0.10141518003E+02 -0.17118114216E+02  0.47939293284E+02  0.00000000000E+00 0. -1.
         -2    1    5    5    0  503 -0.30146968291E+03  0.52468950722E+02 -0.37972514066E+03  0.48767626860E+03  0.00000000000E+00 0.  1.
         -1    1    6    6    0  502  0.40079853890E+03 -0.41683426799E+03 -0.38598696235E+03  0.69525262377E+03  0.00000000000E+00 0.  1.
<mgrwt>
<rscale>  0 0.16228941E+04</rscale>
<asrwt>0</asrwt>
<pdfrwt beam="1">  1        2 0.40358502E+00 0.16228941E+04</pdfrwt>
<pdfrwt beam="2">  1       -2 0.38615228E-01 0.16228941E+04</pdfrwt>
<totfact> 0.17932780E+01</totfact>
</mgrwt>
</event>
<event>
12    1  0.1519630E-007  0.2389396E+04  0.7818608E-02  0.8443484E-01
         -2   -1    0    0    0  501 -0.00000000000E+00  0.00000000000E+00  0.70669461352E+03  0.70669461352E+03  0.00000000000E+00 0.  1.
          2   -1    0    0  501    0  0.00000000000E+00 -0.00000000000E+00 -0.20196892177E+04  0.20196892177E+04  0.00000000000E+00 0. -1.
         23    2    1    2    0    0 -0.40394529540E+02 -0.93780029045E+02 -0.17218936852E+04  0.17272898730E+04  0.90476684050E+02 0.  0.
        254    2    1    2    0    0  0.40394529540E+02  0.93780029045E+02  0.40889908106E+03  0.99909395819E+03  0.90584980374E+03 0.  0.
        -24    2    4    4    0    0  0.26787462047E+03 -0.30897976239E+03  0.30860293228E+03  0.51947982296E+03  0.86012852519E+02 0.  0.
         24    2    4    4    0    0 -0.22748009093E+03  0.40275979143E+03  0.10029614878E+03  0.47961413522E+03  0.77509740558E+02 0.  0.
         13    1    3    3    0    0 -0.19640598774E+02 -0.96374301115E+02 -0.16333816261E+04  0.16363402138E+04  0.00000000000E+00 0. -1.
        -13    1    3    3    0    0 -0.20753930766E+02  0.25942720698E+01 -0.88512059156E+02  0.90949659185E+02  0.00000000000E+00 0.  1.
          2    1    6    6  502    0 -0.66708691881E+02  0.96215680955E+02  0.58724455689E+02  0.13098117624E+03  0.00000000000E+00 0. -1.
          3    1    5    5  503    0  0.46576926563E+02 -0.14298819828E+02  0.27188367260E+02  0.55794924955E+02  0.00000000000E+00 0. -1.
         -4    1    5    5    0  503  0.22129769391E+03 -0.29468094256E+03  0.28141456502E+03  0.46368489801E+03  0.00000000000E+00 0.  1.
         -1    1    6    6    0  502 -0.16077139905E+03  0.30654411048E+03  0.41571693094E+02  0.34863295898E+03  0.00000000000E+00 0.  1.
<mgrwt>
<rscale>  0 0.23893962E+04</rscale>
<asrwt>0</asrwt>
<pdfrwt beam="1">  1        2 0.31072142E+00 0.23893962E+04</pdfrwt>
<pdfrwt beam="2">  1       -2 0.10872225E+00 0.23893962E+04</pdfrwt>
<totfact> 0.39626325E+00</totfact>
</mgrwt>
</event>
<event>
12    1  0.1519630E-007  0.1368906E+04  0.7818608E-02  0.8976639E-01
          2   -1    0    0  501    0  0.00000000000E+00  0.00000000000E+00  0.55519772446E+03  0.55519772446E+03  0.00000000000E+00 0. -1.
         -2   -1    0    0    0  501 -0.00000000000E+00 -0.00000000000E+00 -0.84380033559E+03  0.84380033559E+03  0.00000000000E+00 0.  1.
         23    2    1    2    0    0  0.20129504598E+03 -0.31869956702E+03 -0.67221508176E+02  0.39348392883E+03  0.90673929729E+02 0.  0.
        254    2    1    2    0    0 -0.20129504598E+03  0.31869956702E+03 -0.22138110295E+03  0.10055141312E+04  0.90551640835E+03 0.  0.
        -24    2    4    4    0    0 -0.29320542647E+03  0.45396150973E+03  0.17143517006E+03  0.57252958455E+03  0.79684585850E+02 0.  0.
         24    2    4    4    0    0  0.91910380485E+02 -0.13526194271E+03 -0.39281627301E+03  0.43298454668E+03  0.80172826653E+02 0.  0.
         11    1    3    3    0    0  0.20115750554E+03 -0.27422171557E+03 -0.42887843386E+02  0.34278456563E+03  0.00000000000E+00 0. -1.
        -11    1    3    3    0    0  0.13754044444E+00 -0.44477851449E+02 -0.24333664791E+02  0.50699363202E+02  0.00000000000E+00 0.  1.
          2    1    6    6  502    0  0.20214740417E+02 -0.38503987101E+02 -0.36197356716E+02  0.56581281234E+02  0.00000000000E+00 0. -1.
          1    1    5    5  503    0 -0.23917448766E+02  0.11785210741E+02  0.19307398315E+02  0.32919768793E+02  0.00000000000E+00 0. -1.
         -2    1    5    5    0  503 -0.26928797770E+03  0.44217629899E+03  0.15212777174E+03  0.53960981575E+03  0.00000000000E+00 0.  1.
         -1    1    6    6    0  502  0.71695640068E+02 -0.96757955607E+02 -0.35661891629E+03  0.37640326544E+03  0.00000000000E+00 0.  1.
<mgrwt>
<rscale>  0 0.13689062E+04</rscale>
<asrwt>0</asrwt>
<pdfrwt beam="1">  1        2 0.85415035E-01 0.13689062E+04</pdfrwt>
<pdfrwt beam="2">  1       -2 0.12981544E+00 0.13689062E+04</pdfrwt>
<totfact> 0.23135882E+01</totfact>
</mgrwt>
</event>
<event>
12    1  0.1519630E-007  0.2021003E+04  0.7818608E-02  0.8596864E-01
          1   -1    0    0  501    0  0.00000000000E+00  0.00000000000E+00  0.23235743747E+04  0.23235743747E+04  0.00000000000E+00 0. -1.
         -1   -1    0    0    0  501 -0.00000000000E+00 -0.00000000000E+00 -0.43945790467E+03  0.43945790467E+03  0.00000000000E+00 0.  1.
         23    2    1    2    0    0  0.78028136482E+02  0.78834369955E+03  0.98692822191E+03  0.12685565765E+04  0.87374445676E+02 0.  0.
        254    2    1    2    0    0 -0.78028136482E+02 -0.78834369955E+03  0.89718824807E+03  0.14944757029E+04  0.89495066641E+03 0.  0.
        -24    2    4    4    0    0  0.36705379677E+03 -0.19276843659E+03  0.18286272130E+03  0.46026525110E+03  0.80728970408E+02 0.  0.
         24    2    4    4    0    0 -0.44508193325E+03 -0.59557526296E+03  0.71432552677E+03  0.10342104518E+04  0.80761867317E+02 0.  0.
         13    1    3    3    0    0  0.36789581806E+01  0.22245258845E+01  0.18590027725E+02  0.19080680793E+02  0.00000000000E+00 0.  1.
        -13    1    3    3    0    0  0.74349178302E+02  0.78611917366E+03  0.96833819419E+03  0.12494758957E+04  0.00000000000E+00 0. -1.
          2    1    6    6  502    0 -0.21757867507E+02 -0.14222990201E+02  0.43962290965E+02  0.51072314179E+02  0.00000000000E+00 0. -1.
          3    1    5    5  503    0  0.14209162358E+03 -0.99749104738E+02  0.11247390379E+03  0.20685814565E+03  0.00000000000E+00 0. -1.
         -4    1    5    5    0  503  0.22496217319E+03 -0.93019331850E+02  0.70388817512E+02  0.25340710545E+03  0.00000000000E+00 0.  1.
         -1    1    6    6    0  502 -0.42332406574E+03 -0.58135227276E+03  0.67036323581E+03  0.98313813760E+03  0.00000000000E+00 0.  1.
<mgrwt>
<rscale>  0 0.20210028E+04</rscale>
<asrwt>0</asrwt>
<pdfrwt beam="1">  1        1 0.35747297E+00 0.20210028E+04</pdfrwt>
<pdfrwt beam="2">  1       -1 0.67608910E-01 0.20210028E+04</pdfrwt>
<totfact> 0.36791784E+00</totfact>
</mgrwt>
</event>
<event>
12    1  0.1519630E-007  0.3947257E+04  0.7818608E-02  0.8015272E-01
         -1   -1    0    0    0  501 -0.00000000000E+00  0.00000000000E+00  0.10432455916E+04  0.10432455916E+04  0.00000000000E+00 0.  1.
          1   -1    0    0  501    0  0.00000000000E+00 -0.00000000000E+00 -0.37337418818E+04  0.37337418818E+04  0.00000000000E+00 0. -1.
         23    2    1    2    0    0 -0.18693958106E+03  0.13459102352E+04  0.25495600933E+03  0.13854635690E+04  0.89922000898E+02 0.  0.
        254    2    1    2    0    0  0.18693958106E+03 -0.13459102352E+04 -0.29454522995E+04  0.33915239044E+04  0.99011331527E+03 0.  0.
        -24    2    4    4    0    0  0.37859087797E+03 -0.79979664513E+03 -0.90130321535E+03  0.12655637445E+04  0.79362327614E+02 0.  0.
         24    2    4    4    0    0 -0.19165129690E+03 -0.54611359004E+03 -0.20441490842E+04  0.21259601598E+04  0.78681955171E+02 0.  0.
         11    1    3    3    0    0 -0.13218890532E+03  0.88907644933E+03  0.21086871319E+03  0.92325319043E+03  0.00000000000E+00 0.  1.
        -11    1    3    3    0    0 -0.54750675741E+02  0.45683378584E+03  0.44087296143E+02  0.46221037857E+03  0.00000000000E+00 0. -1.
          2    1    6    6  502    0 -0.16959171268E+03 -0.39892006976E+03 -0.15910384766E+04  0.16490306259E+04  0.00000000000E+00 0. -1.
          1    1    5    5  503    0  0.29849396203E+03 -0.55687720602E+03 -0.61670973952E+03  0.88291662731E+03  0.00000000000E+00 0. -1.
         -2    1    5    5    0  503  0.80096915931E+02 -0.24291943911E+03 -0.28459347583E+03  0.38264711723E+03  0.00000000000E+00 0.  1.
         -1    1    6    6    0  502 -0.22059584222E+02 -0.14719352028E+03 -0.45311060760E+03  0.47692953398E+03  0.00000000000E+00 0.  1.
<mgrwt>
<rscale>  0 0.39472572E+04</rscale>
<asrwt>0</asrwt>
<pdfrwt beam="1">  1        1 0.57442182E+00 0.39472572E+04</pdfrwt>
<pdfrwt beam="2">  1       -1 0.16049932E+00 0.39472572E+04</pdfrwt>
<totfact> 0.36768067E-02</totfact>
</mgrwt>
</event>
<event>
12    1  0.1519630E-007  0.1452051E+04  0.7818608E-02  0.8916980E-01
         -1   -1    0    0    0  501 -0.00000000000E+00  0.00000000000E+00  0.46089027838E+03  0.46089027838E+03  0.00000000000E+00 0.  1.
          1   -1    0    0  501    0  0.00000000000E+00 -0.00000000000E+00 -0.11436845687E+04  0.11436845687E+04  0.00000000000E+00 0. -1.
         23    2    1    2    0    0 -0.12420362601E+03  0.88623376622E+02  0.18809832144E+03  0.25863112301E+03  0.90710725163E+02 0.  0.
        254    2    1    2    0    0  0.12420362601E+03 -0.88623376622E+02 -0.87089261177E+03  0.13459437241E+04  0.10148053624E+04 0.  0.
        -24    2    4    4    0    0  0.32823625128E+03  0.35551808799E+03 -0.62102256658E+03  0.79125149827E+03  0.79232302582E+02 0.  0.
         24    2    4    4    0    0 -0.20403262526E+03 -0.44414146461E+03 -0.24987004519E+03  0.55469222581E+03  0.79733764015E+02 0.  0.
         11    1    3    3    0    0 -0.12633659896E+03  0.65418867514E+02  0.18744261218E+03  0.23531956426E+03  0.00000000000E+00 0.  1.
        -11    1    3    3    0    0  0.21329729437E+01  0.23204509108E+02  0.65570926163E+00  0.23311558746E+02  0.00000000000E+00 0. -1.
          4    1    6    6  502    0 -0.48302922867E+02 -0.55557427588E+02 -0.60208960088E+02  0.95104779021E+02  0.00000000000E+00 0. -1.
          3    1    5    5  503    0  0.34067275313E+02  0.28288644064E+02 -0.26487530617E+02  0.51598603745E+02  0.00000000000E+00 0. -1.
         -4    1    5    5    0  503  0.29416897597E+03  0.32722944393E+03 -0.59453503596E+03  0.73965289453E+03  0.00000000000E+00 0.  1.
         -3    1    6    6    0  502 -0.15572970240E+03 -0.38858403702E+03 -0.18966108511E+03  0.45958744679E+03  0.00000000000E+00 0.  1.
<mgrwt>
<rscale>  0 0.14520511E+04</rscale>
<asrwt>0</asrwt>
<pdfrwt beam="1">  1        1 0.17595147E+00 0.14520511E+04</pdfrwt>
<pdfrwt beam="2">  1       -1 0.70906198E-01 0.14520511E+04</pdfrwt>
<totfact> 0.22944905E+01</totfact>
</mgrwt>
</event>
<event>
12    1  0.1519630E-007  0.1686869E+04  0.7818608E-02  0.8768889E-01
         -2   -1    0    0    0  501 -0.00000000000E+00  0.00000000000E+00  0.41382455611E+03  0.41382455611E+03  0.00000000000E+00 0.  1.
          2   -1    0    0  501    0  0.00000000000E+00 -0.00000000000E+00 -0.17190421760E+04  0.17190421760E+04  0.00000000000E+00 0. -1.
         23    2    1    2    0    0  0.55487434539E+03 -0.12967050721E+03 -0.70225385728E+03  0.90894881287E+03  0.91255053270E+02 0.  0.
        254    2    1    2    0    0 -0.55487434539E+03  0.12967050721E+03 -0.60296376260E+03  0.12239179192E+04  0.89983876021E+03 0.  0.
        -24    2    4    4    0    0  0.14716411784E+03  0.56681910790E+02  0.11744502140E+03  0.21202912835E+03  0.79327811173E+02 0.  0.
         24    2    4    4    0    0 -0.70203846323E+03  0.72988596424E+02 -0.72040878400E+03  0.10118887909E+04  0.82126548480E+02 0.  0.
         11    1    3    3    0    0  0.45148149321E+03 -0.11942051539E+03 -0.51814967726E+03  0.69754991668E+03  0.00000000000E+00 0. -1.
        -11    1    3    3    0    0  0.10339285218E+03 -0.10249991821E+02 -0.18410418001E+03  0.21139889620E+03  0.00000000000E+00 0.  1.
          4    1    6    6  502    0 -0.38114463444E+03  0.17971811745E+02 -0.33887897753E+03  0.51032654232E+03  0.00000000000E+00 0. -1.
          1    1    5    5  503    0  0.14151805167E+03  0.55470339179E+02  0.75556092594E+02  0.16974404438E+03  0.00000000000E+00 0. -1.
         -4    1    5    5    0  503  0.56460661741E+01  0.12115716104E+01  0.41888928811E+02  0.42285083965E+02  0.00000000000E+00 0.  1.
         -3    1    6    6    0  502 -0.32089382879E+03  0.55016784679E+02 -0.38152980647E+03  0.50156224856E+03  0.00000000000E+00 0.  1.
<mgrwt>
<rscale>  0 0.16868691E+04</rscale>
<asrwt>0</asrwt>
<pdfrwt beam="1">  1        2 0.26446803E+00 0.16868691E+04</pdfrwt>
<pdfrwt beam="2">  1       -2 0.63665314E-01 0.16868691E+04</pdfrwt>
<totfact> 0.20806578E+01</totfact>
</mgrwt>
</event>
<event>
12    1  0.1519630E-007  0.2552102E+04  0.7818608E-02  0.8384655E-01
          3   -1    0    0  501    0  0.00000000000E+00  0.00000000000E+00  0.91656005634E+03  0.91656005634E+03  0.00000000000E+00 0. -1.
         -3   -1    0    0    0  501 -0.00000000000E+00 -0.00000000000E+00 -0.17765412111E+04  0.17765412111E+04  0.00000000000E+00 0.  1.
         23    2    1    2    0    0 -0.58162714710E+03  0.51944348639E+03  0.47773141026E+03  0.91935122993E+03  0.94168518196E+02 0.  0.
        254    2    1    2    0    0  0.58162714710E+03 -0.51944348639E+03 -0.13377125650E+04  0.17737500375E+04  0.86521824713E+03 0.  0.
        -24    2    4    4    0    0  0.62807373657E+03 -0.52699189122E+02 -0.49174807828E+03  0.80332102614E+03  0.79086506151E+02 0.  0.
         24    2    4    4    0    0 -0.46446589467E+02 -0.46674429727E+03 -0.84596448674E+03  0.97042901137E+03  0.77903970210E+02 0.  0.
         13    1    3    3    0    0 -0.55765855183E+03  0.51596445951E+03  0.47214314019E+03  0.89449512505E+03  0.00000000000E+00 0. -1.
        -13    1    3    3    0    0 -0.23968595267E+02  0.34790268778E+01  0.55882700681E+01  0.24856104873E+02  0.00000000000E+00 0.  1.
          2    1    6    6  502    0  0.13788107542E+02 -0.18172442813E+02 -0.44153369688E+02  0.49697783072E+02  0.00000000000E+00 0. -1.
          1    1    5    5  503    0  0.66836089670E+02 -0.28211898379E+02 -0.70453555672E+02  0.10112703694E+03  0.00000000000E+00 0. -1.
         -2    1    5    5    0  503  0.56123764690E+03 -0.24487290743E+02 -0.42129452261E+03  0.70219398921E+03  0.00000000000E+00 0.  1.
         -1    1    6    6    0  502 -0.60234697009E+02 -0.44857185445E+03 -0.80181111705E+03  0.92073122830E+03  0.00000000000E+00 0.  1.
<mgrwt>
<rscale>  0 0.25521024E+04</rscale>
<asrwt>0</asrwt>
<pdfrwt beam="1">  1        3 0.14100924E+00 0.25521024E+04</pdfrwt>
<pdfrwt beam="2">  1       -3 0.27331403E+00 0.25521024E+04</pdfrwt>
<totfact> 0.47106370E-02</totfact>
</mgrwt>
</event>
<event>
12    1  0.1519630E-007  0.1386082E+04  0.7818608E-02  0.8963955E-01
          2   -1    0    0  501    0  0.00000000000E+00  0.00000000000E+00  0.34638274941E+04  0.34638274941E+04  0.00000000000E+00 0.  1.
         -2   -1    0    0    0  501 -0.00000000000E+00 -0.00000000000E+00 -0.13866340544E+03  0.13866340544E+03  0.00000000000E+00 0. -1.
         23    2    1    2    0    0 -0.12056898685E+02  0.82694456577E+02 -0.27648555978E+02  0.12691898078E+03  0.91434364877E+02 0.  0.
        254    2    1    2    0    0  0.12056898685E+02 -0.82694456577E+02  0.33528126447E+04  0.34755719188E+04  0.91173668920E+03 0.  0.
        -24    2    4    4    0    0 -0.38112053316E+02 -0.44824075038E+03  0.25170645271E+04  0.25582110324E+04  0.80358907649E+02 0.  0.
         24    2    4    4    0    0  0.50168952001E+02  0.36554629380E+03  0.83574811763E+03  0.91736088640E+03  0.83277026339E+02 0.  0.
         13    1    3    3    0    0  0.33596700499E+02  0.95387822642E+01 -0.20248217556E+02  0.40369753105E+02  0.00000000000E+00 0. -1.
        -13    1    3    3    0    0 -0.45653599185E+02  0.73155674313E+02 -0.74003384223E+01  0.86549227677E+02  0.00000000000E+00 0.  1.
          2    1    6    6  502    0  0.42386162144E+02  0.84061185355E+02  0.25806566720E+03  0.27470121625E+03  0.00000000000E+00 0. -1.
          3    1    5    5  503    0 -0.87946913491E+01 -0.96155401322E+02  0.37641936693E+03  0.38860616002E+03  0.00000000000E+00 0. -1.
         -4    1    5    5    0  503 -0.29317361967E+02 -0.35208534905E+03  0.21406451601E+04  0.21696048724E+04  0.00000000000E+00 0.  1.
         -1    1    6    6    0  502  0.77827898571E+01  0.28148510844E+03  0.57768245043E+03  0.64265967014E+03  0.00000000000E+00 0.  1.
<mgrwt>
<rscale>  0 0.13860824E+04</rscale>
<asrwt>0</asrwt>
<pdfrwt beam="1">  1        2 0.53289647E+00 0.13860824E+04</pdfrwt>
<pdfrwt beam="2">  1       -2 0.21332834E-01 0.13860824E+04</pdfrwt>
<totfact> 0.16284527E+01</totfact>
</mgrwt>
</event>
<event>
12    1  0.1519630E-007  0.2431764E+04  0.7818608E-02  0.8427707E-01
          1   -1    0    0  501    0  0.00000000000E+00  0.00000000000E+00  0.96759494324E+03  0.96759494324E+03  0.00000000000E+00 0. -1.
         -1   -1    0    0    0  501 -0.00000000000E+00 -0.00000000000E+00 -0.15278797847E+04  0.15278797847E+04  0.00000000000E+00 0.  1.
         23    2    1    2    0    0 -0.29164163268E+03  0.99143710285E+03 -0.41538874559E+03  0.11173867038E+04  0.89458733796E+02 0.  0.
        254    2    1    2    0    0  0.29164163268E+03 -0.99143710285E+03 -0.14489609589E+03  0.13780880242E+04  0.90007185987E+03 0.  0.
        -24    2    4    4    0    0 -0.19091548912E+03 -0.70533017618E+03 -0.29503464628E+03  0.79211986482E+03  0.80430444047E+02 0.  0.
         24    2    4    4    0    0  0.48255712179E+03 -0.28610692667E+03  0.15013855038E+03  0.58596815935E+03  0.78093214657E+02 0.  0.
         11    1    3    3    0    0 -0.16315122241E+03  0.52617195208E+03 -0.17400805647E+03  0.57771450410E+03  0.00000000000E+00 0.  1.
        -11    1    3    3    0    0 -0.12849041026E+03  0.46526515077E+03 -0.24138068912E+03  0.53967219970E+03  0.00000000000E+00 0. -1.
          2    1    6    6  502    0  0.44029144396E+03 -0.28410579887E+03  0.13604103002E+03  0.54136847196E+03  0.00000000000E+00 0. -1.
          1    1    5    5  503    0 -0.16418575936E+03 -0.57912658702E+03 -0.27413874161E+03  0.66143527047E+03  0.00000000000E+00 0. -1.
         -2    1    5    5    0  503 -0.26729729755E+02 -0.12620358915E+03 -0.20895904668E+02  0.13068459435E+03  0.00000000000E+00 0.  1.
         -1    1    6    6    0  502  0.42265677830E+02 -0.20011277981E+01  0.14097520367E+02  0.44599687391E+02  0.00000000000E+00 0.  1.
<mgrwt>
<rscale>  0 0.24317638E+04</rscale>
<asrwt>0</asrwt>
<pdfrwt beam="1">  1        1 0.14886076E+00 0.24317638E+04</pdfrwt>
<pdfrwt beam="2">  1       -1 0.23505843E+00 0.24317638E+04</pdfrwt>
<totfact> 0.12531775E+00</totfact>
</mgrwt>
</event>
<event>
12    1  0.1519630E-007  0.1681541E+04  0.7818608E-02  0.8771963E-01
         -2   -1    0    0    0  501 -0.00000000000E+00  0.00000000000E+00  0.52775685384E+03  0.52775685384E+03  0.00000000000E+00 0.  1.
          2   -1    0    0  501    0  0.00000000000E+00 -0.00000000000E+00 -0.13394337342E+04  0.13394337342E+04  0.00000000000E+00 0. -1.
         23    2    1    2    0    0  0.49409123608E+03 -0.31209626878E+03 -0.18400165747E+03  0.61972486797E+03  0.93123957529E+02 0.  0.
        254    2    1    2    0    0 -0.49409123608E+03  0.31209626878E+03 -0.62767522287E+03  0.12474657200E+04  0.90590524158E+03 0.  0.
        -24    2    4    4    0    0 -0.21589406921E+03 -0.25050738132E+03  0.21729640197E+02  0.34080652027E+03  0.79452563110E+02 0.  0.
         24    2    4    4    0    0 -0.27819716687E+03  0.56260365010E+03 -0.64940486307E+03  0.90665919977E+03  0.79923072932E+02 0.  0.
         11    1    3    3    0    0  0.10192437477E+03 -0.23280927854E+02 -0.26591614935E+02  0.10787814310E+03  0.00000000000E+00 0. -1.
        -11    1    3    3    0    0  0.39216686131E+03 -0.28881534093E+03 -0.15741004253E+03  0.51184672487E+03  0.00000000000E+00 0.  1.
          4    1    6    6  502    0 -0.40576808479E+02  0.51603597890E+02 -0.99988276182E+02  0.11961214017E+03  0.00000000000E+00 0. -1.
          1    1    5    5  503    0 -0.23376028320E+02 -0.72991296182E+02  0.18827948452E+02  0.78921857944E+02  0.00000000000E+00 0. -1.
         -2    1    5    5    0  503 -0.19251804089E+03 -0.17751608513E+03  0.29016917452E+01  0.26188466233E+03  0.00000000000E+00 0.  1.
         -3    1    6    6    0  502 -0.23762035839E+03  0.51100005221E+03 -0.54941658689E+03  0.78704705960E+03  0.00000000000E+00 0.  1.
<mgrwt>
<rscale>  0 0.16815414E+04</rscale>
<asrwt>0</asrwt>
<pdfrwt beam="1">  1        2 0.20606672E+00 0.16815414E+04</pdfrwt>
<pdfrwt beam="2">  1       -2 0.81193364E-01 0.16815414E+04</pdfrwt>
<totfact> 0.19978580E+01</totfact>
</mgrwt>
</event>
<event>
12    1  0.1519630E-007  0.2456638E+04  0.7818608E-02  0.8418598E-01
          2   -1    0    0  501    0  0.00000000000E+00  0.00000000000E+00  0.95536046601E+03  0.95536046601E+03  0.00000000000E+00 0. -1.
         -2   -1    0    0    0  501 -0.00000000000E+00 -0.00000000000E+00 -0.15792658057E+04  0.15792658057E+04  0.00000000000E+00 0.  1.
         23    2    1    2    0    0  0.52129465659E+03 -0.10959356296E+03  0.67250898769E+03  0.86270810209E+03  0.90763775014E+02 0.  0.
        254    2    1    2    0    0 -0.52129465659E+03  0.10959356296E+03 -0.12964143274E+04  0.16719181696E+04  0.91151598428E+03 0.  0.
        -24    2    4    4    0    0 -0.22673034342E+03 -0.14959246075E+03  0.30126346286E+02  0.28632504195E+03  0.85380793872E+02 0.  0.
         24    2    4    4    0    0 -0.29456431317E+03  0.25918602371E+03 -0.13265406737E+04  0.13855931277E+04  0.78820219911E+02 0.  0.
         11    1    3    3    0    0  0.12799483452E+02 -0.19902185110E+02  0.23411585867E+02  0.33287026025E+02  0.00000000000E+00 0.  1.
        -11    1    3    3    0    0  0.50849517314E+03 -0.89691377848E+02  0.64909740183E+03  0.82942107607E+03  0.00000000000E+00 0. -1.
          4    1    6    6  502    0 -0.10303468318E+03  0.48322624335E+02 -0.32611324729E+03  0.34539987264E+03  0.00000000000E+00 0. -1.
          3    1    5    5  503    0 -0.59186960996E+02 -0.19667901271E+02  0.39973252590E+02  0.74079576234E+02  0.00000000000E+00 0. -1.
         -4    1    5    5    0  503 -0.16754338243E+03 -0.12992455948E+03 -0.98469063047E+01  0.21224546571E+03  0.00000000000E+00 0.  1.
         -3    1    6    6    0  502 -0.19152962999E+03  0.21086339938E+03 -0.10004274264E+04  0.10401932550E+04  0.00000000000E+00 0.  1.
<mgrwt>
<rscale>  0 0.24566384E+04</rscale>
<asrwt>0</asrwt>
<pdfrwt beam="1">  1        2 0.14697853E+00 0.24566384E+04</pdfrwt>
<pdfrwt beam="2">  1       -2 0.24296397E+00 0.24566384E+04</pdfrwt>
<totfact> 0.17114329E+00</totfact>
</mgrwt>
</event>
<event>
12    1  0.1519630E-007  0.1593723E+04  0.7818608E-02  0.8824414E-01
         -2   -1    0    0    0  501 -0.00000000000E+00  0.00000000000E+00  0.89932457379E+03  0.89932457379E+03  0.00000000000E+00 0.  1.
          2   -1    0    0  501    0  0.00000000000E+00 -0.00000000000E+00 -0.70607220233E+03  0.70607220233E+03  0.00000000000E+00 0. -1.
         23    2    1    2    0    0  0.14706727134E+03  0.27928762229E+03  0.49627059882E+03  0.59488722654E+03  0.89308156293E+02 0.  0.
        254    2    1    2    0    0 -0.14706727134E+03 -0.27928762229E+03 -0.30301822736E+03  0.10105095496E+04  0.91086724906E+03 0.  0.
        -24    2    4    4    0    0  0.22771513404E+03 -0.38441763498E+03 -0.39672561415E+03  0.60246299284E+03  0.77067142592E+02 0.  0.
         24    2    4    4    0    0 -0.37478240538E+03  0.10513001269E+03  0.93707386786E+02  0.40804655674E+03  0.78782911705E+02 0.  0.
         13    1    3    3    0    0  0.13334732276E+03  0.25348792385E+03  0.48560297762E+03  0.56377999955E+03  0.00000000000E+00 0.  1.
        -13    1    3    3    0    0  0.13719948583E+02  0.25799698433E+02  0.10667621202E+02  0.31107226981E+02  0.00000000000E+00 0. -1.
          2    1    6    6  502    0 -0.23696443645E+03  0.42075458805E+02  0.26061770489E+02  0.24207788882E+03  0.00000000000E+00 0. -1.
          3    1    5    5  503    0  0.17252912776E+03 -0.21804988923E+03 -0.23829359340E+03  0.36619105774E+03  0.00000000000E+00 0. -1.
         -4    1    5    5    0  503  0.55186006288E+02 -0.16636774575E+03 -0.15843202075E+03  0.23627193510E+03  0.00000000000E+00 0.  1.
         -3    1    6    6    0  502 -0.13781796894E+03  0.63054553887E+02  0.67645616297E+02  0.16596866792E+03  0.00000000000E+00 0.  1.
<mgrwt>
<rscale>  0 0.15937228E+04</rscale>
<asrwt>0</asrwt>
<pdfrwt beam="1">  1        2 0.10862649E+00 0.15937228E+04</pdfrwt>
<pdfrwt beam="2">  1       -2 0.13835763E+00 0.15937228E+04</pdfrwt>
<totfact> 0.14392774E+01</totfact>
</mgrwt>
</event>
<event>
12    1  0.1519630E-007  0.2584585E+04  0.7818608E-02  0.8373456E-01
         -1   -1    0    0    0  501 -0.00000000000E+00  0.00000000000E+00  0.75242507422E+03  0.75242507422E+03  0.00000000000E+00 0.  1.
          1   -1    0    0  501    0  0.00000000000E+00 -0.00000000000E+00 -0.22195170714E+04  0.22195170714E+04  0.00000000000E+00 0. -1.
         23    2    1    2    0    0 -0.91567483945E+02 -0.31355715102E+03 -0.18957890450E+04  0.19259012241E+04  0.91524481221E+02 0.  0.
        254    2    1    2    0    0  0.91567483945E+02  0.31355715102E+03  0.42869704787E+03  0.10460409215E+04  0.89650307279E+03 0.  0.
        -24    2    4    4    0    0  0.22930497302E+03 -0.13676598308E+03 -0.13286483782E+03  0.30872121640E+03  0.79812402224E+02 0.  0.
         24    2    4    4    0    0 -0.13773748907E+03  0.45032313410E+03  0.56156188569E+03  0.73731970510E+03  0.80784002535E+02 0.  0.
         13    1    3    3    0    0 -0.85568370507E+00 -0.16578025063E+03 -0.94375948550E+03  0.95820967964E+03  0.00000000000E+00 0. -1.
        -13    1    3    3    0    0 -0.90711800240E+02 -0.14777690039E+03 -0.95202955955E+03  0.96769154447E+03  0.00000000000E+00 0.  1.
          2    1    6    6  502    0 -0.28604461029E+02  0.17581144482E+03  0.26010492811E+03  0.31524982625E+03  0.00000000000E+00 0. -1.
          3    1    5    5  503    0  0.18459103005E+03 -0.96948852878E+02 -0.13571619745E+03  0.24878065580E+03  0.00000000000E+00 0. -1.
         -4    1    5    5    0  503  0.44713942969E+02 -0.39817130201E+02  0.28513596357E+01  0.59940560600E+02  0.00000000000E+00 0.  1.
         -1    1    6    6    0  502 -0.10913302804E+03  0.27451168929E+03  0.30145695757E+03  0.42206987885E+03  0.00000000000E+00 0.  1.
<mgrwt>
<rscale>  0 0.25845853E+04</rscale>
<asrwt>0</asrwt>
<pdfrwt beam="1">  1        1 0.34146417E+00 0.25845853E+04</pdfrwt>
<pdfrwt beam="2">  1       -1 0.11575770E+00 0.25845853E+04</pdfrwt>
<totfact> 0.12585427E+00</totfact>
</mgrwt>
</event>
<event>
12    1  0.1519630E-007  0.1295961E+04  0.7818608E-02  0.9032774E-01
          2   -1    0    0  501    0  0.00000000000E+00  0.00000000000E+00  0.22149201318E+04  0.22149201318E+04  0.00000000000E+00 0. -1.
         -2   -1    0    0    0  501 -0.00000000000E+00 -0.00000000000E+00 -0.18956841922E+03  0.18956841922E+03  0.00000000000E+00 0.  1.
         23    2    1    2    0    0 -0.21594353473E+03 -0.60904446209E+02  0.95144943232E+02  0.26002552184E+03  0.90662837064E+02 0.  0.
        254    2    1    2    0    0  0.21594353473E+03  0.60904446209E+02  0.19302067693E+04  0.21444630292E+04  0.90701849446E+03 0.  0.
        -24    2    4    4    0    0  0.36091265398E+03 -0.15442746345E+03  0.17968869966E+04  0.18410020744E+04  0.79874739218E+02 0.  0.
         24    2    4    4    0    0 -0.14496911925E+03  0.21533190966E+03  0.13331977272E+03  0.30346095479E+03  0.83249699281E+02 0.  0.
         11    1    3    3    0    0 -0.13863752817E+03 -0.29734892246E+02  0.10451481745E+03  0.17614731079E+03  0.00000000000E+00 0. -1.
        -11    1    3    3    0    0 -0.77306006564E+02 -0.31169553964E+02 -0.93698742188E+01  0.83878211044E+02  0.00000000000E+00 0.  1.
          2    1    6    6  502    0  0.78002118568E+01  0.31102350450E+01 -0.25546932298E+01  0.87774326853E+01  0.00000000000E+00 0. -1.
          1    1    5    5  503    0  0.13351260362E+03 -0.41622559607E+02  0.81045464877E+03  0.82243224067E+03  0.00000000000E+00 0. -1.
         -2    1    5    5    0  503  0.22740005036E+03 -0.11280490385E+03  0.98643234785E+03  0.10185698337E+04  0.00000000000E+00 0.  1.
         -1    1    6    6    0  502 -0.15276933110E+03  0.21222167462E+03  0.13587446595E+03  0.29468352211E+03  0.00000000000E+00 0.  1.
<mgrwt>
<rscale>  0 0.12959613E+04</rscale>
<asrwt>0</asrwt>
<pdfrwt beam="1">  1        2 0.34075693E+00 0.12959613E+04</pdfrwt>
<pdfrwt beam="2">  1       -2 0.29164374E-01 0.12959613E+04</pdfrwt>
<totfact> 0.53795968E+01</totfact>
</mgrwt>
</event>
<event>
12    1  0.1519630E-007  0.1956343E+04  0.7818608E-02  0.8627308E-01
         -1   -1    0    0    0  501 -0.00000000000E+00  0.00000000000E+00  0.62736223775E+03  0.62736223775E+03  0.00000000000E+00 0.  1.
          1   -1    0    0  501    0  0.00000000000E+00 -0.00000000000E+00 -0.15251468693E+04  0.15251468693E+04  0.00000000000E+00 0. -1.
         23    2    1    2    0    0  0.63459146153E+03  0.33166593149E+03 -0.43463954374E+02  0.72303511290E+03  0.90454662679E+02 0.  0.
        254    2    1    2    0    0 -0.63459146153E+03 -0.33166593149E+03 -0.85432067717E+03  0.14294739941E+04  0.89488740485E+03 0.  0.
        -24    2    4    4    0    0 -0.62411236100E+03 -0.97661954060E+02 -0.11192673429E+03  0.64686608010E+03  0.82789101452E+02 0.  0.
         24    2    4    4    0    0 -0.10479100530E+02 -0.23400397743E+03 -0.74239394287E+03  0.78260791404E+03  0.80366085560E+02 0.  0.
         13    1    3    3    0    0  0.55266207000E+03  0.31987675441E+03 -0.30817508816E+02  0.63930135341E+03  0.00000000000E+00 0.  1.
        -13    1    3    3    0    0  0.81929391528E+02  0.11789177083E+02 -0.12646445557E+02  0.83733759486E+02  0.00000000000E+00 0. -1.
          4    1    6    6  502    0 -0.25167481036E+02 -0.17859243328E+03 -0.64353491134E+03  0.66833063782E+03  0.00000000000E+00 0. -1.
          1    1    5    5  503    0 -0.45472778023E+03 -0.83049369037E+02 -0.46057558107E+02  0.46453831970E+03  0.00000000000E+00 0. -1.
         -4    1    5    5    0  503 -0.16938458076E+03 -0.14612585022E+02 -0.65869176184E+02  0.18232776040E+03  0.00000000000E+00 0.  1.
         -3    1    6    6    0  502  0.14688380505E+02 -0.55411544150E+02 -0.98859031532E+02  0.11427727623E+03  0.00000000000E+00 0.  1.
<mgrwt>
<rscale>  0 0.19563431E+04</rscale>
<asrwt>0</asrwt>
<pdfrwt beam="1">  1        1 0.23463797E+00 0.19563431E+04</pdfrwt>
<pdfrwt beam="2">  1       -1 0.96517269E-01 0.19563431E+04</pdfrwt>
<totfact> 0.60453790E+00</totfact>
</mgrwt>
</event>
<event>
12    1  0.1519630E-007  0.1145706E+04  0.7818608E-02  0.9161754E-01
          1   -1    0    0  501    0  0.00000000000E+00  0.00000000000E+00  0.12074368746E+04  0.12074368746E+04  0.00000000000E+00 0. -1.
         -1   -1    0    0    0  501 -0.00000000000E+00 -0.00000000000E+00 -0.27178261118E+03  0.27178261118E+03  0.00000000000E+00 0.  1.
         23    2    1    2    0    0 -0.63463673347E+02 -0.98794000688E+02  0.39473345979E+03  0.42214220967E+03  0.92745072655E+02 0.  0.
        254    2    1    2    0    0  0.63463673347E+02  0.98794000688E+02  0.54092080366E+03  0.10570772761E+04  0.90057157378E+03 0.  0.
        -24    2    4    4    0    0 -0.27138170689E+03  0.37205518179E+03  0.24556796069E+03  0.52743399888E+03  0.76222770384E+02 0.  0.
         24    2    4    4    0    0  0.33484538023E+03 -0.27326118111E+03  0.29535284297E+03  0.52964327726E+03  0.80595269956E+02 0.  0.
         11    1    3    3    0    0 -0.16616368285E+02  0.16241514667E+02  0.92661867766E+02  0.95530687381E+02  0.00000000000E+00 0.  1.
        -11    1    3    3    0    0 -0.46847305063E+02 -0.11503551536E+03  0.30207159202E+03  0.32661152229E+03  0.00000000000E+00 0. -1.
          2    1    6    6  502    0  0.33534494301E+03 -0.26472053721E+03  0.27640763152E+03  0.50885594463E+03  0.00000000000E+00 0. -1.
          3    1    5    5  503    0 -0.27187836474E+03  0.34854174329E+03  0.22414532979E+03  0.49562114654E+03  0.00000000000E+00 0. -1.
         -4    1    5    5    0  503  0.49665785753E+00  0.23513438506E+02  0.21422630900E+02  0.31812852341E+02  0.00000000000E+00 0.  1.
         -1    1    6    6    0  502 -0.49956277841E+00 -0.85406439000E+01  0.18945211454E+02  0.20787332638E+02  0.00000000000E+00 0.  1.
<mgrwt>
<rscale>  0 0.11457056E+04</rscale>
<asrwt>0</asrwt>
<pdfrwt beam="1">  1        1 0.18575952E+00 0.11457056E+04</pdfrwt>
<pdfrwt beam="2">  1       -1 0.41812710E-01 0.11457056E+04</pdfrwt>
<totfact> 0.58820637E+01</totfact>
</mgrwt>
</event>
<event>
12    1  0.1519630E-007  0.1104075E+04  0.7818608E-02  0.9201229E-01
         -2   -1    0    0    0  501 -0.00000000000E+00  0.00000000000E+00  0.16914400074E+04  0.16914400074E+04  0.00000000000E+00 0.  1.
          2   -1    0    0  501    0  0.00000000000E+00 -0.00000000000E+00 -0.18016910051E+03  0.18016910051E+03  0.00000000000E+00 0. -1.
         23    2    1    2    0    0 -0.12240120981E+03 -0.12182278452E+02  0.83349756898E+02  0.17465824985E+03  0.91803367005E+02 0.  0.
        254    2    1    2    0    0  0.12240120981E+03  0.12182278452E+02  0.14279211500E+04  0.16969508581E+04  0.90859943870E+03 0.  0.
        -24    2    4    4    0    0  0.48839070359E+03  0.56957879324E+02  0.55673780893E+03  0.74745630591E+03  0.83452153914E+02 0.  0.
         24    2    4    4    0    0 -0.36598949377E+03 -0.44775600872E+02  0.87118334108E+03  0.94949455216E+03  0.81402253160E+02 0.  0.
         13    1    3    3    0    0 -0.10552633779E+03 -0.41973486967E+02  0.42265247078E+02  0.12117727793E+03  0.00000000000E+00 0. -1.
        -13    1    3    3    0    0 -0.16874872026E+02  0.29791208515E+02  0.41084509820E+02  0.53480971923E+02  0.00000000000E+00 0.  1.
          4    1    6    6  502    0 -0.14828308834E+02  0.14164704344E+02  0.65495865670E+02  0.68631086338E+02  0.00000000000E+00 0. -1.
          3    1    5    5  503    0  0.10097829387E+03  0.22917041875E+02  0.16959283285E+03  0.19870464412E+03  0.00000000000E+00 0. -1.
         -4    1    5    5    0  503  0.38741240972E+03  0.34040837449E+02  0.38714497607E+03  0.54875166179E+03  0.00000000000E+00 0.  1.
         -3    1    6    6    0  502 -0.35116118494E+03 -0.58940305217E+02  0.80568747541E+03  0.88086346582E+03  0.00000000000E+00 0.  1.
<mgrwt>
<rscale>  0 0.11040747E+04</rscale>
<asrwt>0</asrwt>
<pdfrwt beam="1">  1        2 0.27718324E-01 0.11040747E+04</pdfrwt>
<pdfrwt beam="2">  1       -2 0.26022153E+00 0.11040747E+04</pdfrwt>
<totfact> 0.10818643E+01</totfact>
</mgrwt>
</event>
<event>
12    1  0.1519630E-007  0.2763841E+04  0.7818608E-02  0.8314583E-01
         -2   -1    0    0    0  501 -0.00000000000E+00  0.00000000000E+00  0.63856751198E+03  0.63856751198E+03  0.00000000000E+00 0.  1.
          2   -1    0    0  501    0  0.00000000000E+00 -0.00000000000E+00 -0.29906061096E+04  0.29906061096E+04  0.00000000000E+00 0. -1.
         23    2    1    2    0    0  0.33440197309E+03  0.11864871045E+04 -0.96729098760E+03  0.15698093445E+04  0.95253318406E+02 0.  0.
        254    2    1    2    0    0 -0.33440197309E+03 -0.11864871045E+04 -0.13847476100E+04  0.20593642771E+04  0.89659296992E+03 0.  0.
        -24    2    4    4    0    0 -0.21656875645E+03 -0.12575153478E+04 -0.14044002479E+04  0.18992758856E+04  0.81620811473E+02 0.  0.
         24    2    4    4    0    0 -0.11783321665E+03  0.71028243386E+02  0.19652637862E+02  0.16008839155E+03  0.79450542042E+02 0.  0.
         13    1    3    3    0    0  0.24744800111E+03  0.91204919582E+03 -0.69012301106E+03  0.11701854636E+04  0.00000000000E+00 0. -1.
        -13    1    3    3    0    0  0.86953971983E+02  0.27443790864E+03 -0.27716797655E+03  0.39962388087E+03  0.00000000000E+00 0.  1.
          2    1    6    6  502    0 -0.12656917564E+03  0.56496250390E+02  0.27657143642E+02  0.14133824721E+03  0.00000000000E+00 0. -1.
          3    1    5    5  503    0 -0.11473220013E+03 -0.87085571371E+03 -0.98719353866E+03  0.13214023742E+04  0.00000000000E+00 0. -1.
         -4    1    5    5    0  503 -0.10183655632E+03 -0.38665963414E+03 -0.41720670924E+03  0.57787351134E+03  0.00000000000E+00 0.  1.
         -1    1    6    6    0  502  0.87359589938E+01  0.14531992996E+02 -0.80045057800E+01  0.18750144340E+02  0.00000000000E+00 0.  1.
<mgrwt>
<rscale>  0 0.27638407E+04</rscale>
<asrwt>0</asrwt>
<pdfrwt beam="1">  1        2 0.46009324E+00 0.27638407E+04</pdfrwt>
<pdfrwt beam="2">  1       -2 0.98241158E-01 0.27638407E+04</pdfrwt>
<totfact> 0.13263177E+00</totfact>
</mgrwt>
</event>
<event>
12    1  0.1519630E-007  0.2861682E+04  0.7818608E-02  0.8284370E-01
         -1   -1    0    0    0  501 -0.00000000000E+00  0.00000000000E+00  0.12698714332E+04  0.12698714332E+04  0.00000000000E+00 0. -1.
          1   -1    0    0  501    0  0.00000000000E+00 -0.00000000000E+00 -0.16122150747E+04  0.16122150747E+04  0.00000000000E+00 0.  1.
         23    2    1    2    0    0  0.83901159923E+03  0.54513060368E+03 -0.95752304940E+03  0.13879210431E+04  0.91469082094E+02 0.  0.
        254    2    1    2    0    0 -0.83901159923E+03 -0.54513060368E+03  0.61517940796E+03  0.14941654648E+04  0.92356748191E+03 0.  0.
        -24    2    4    4    0    0 -0.98903551652E+03 -0.31603648529E+03  0.61370662102E+03  0.12086772206E+04  0.78705107451E+02 0.  0.
         24    2    4    4    0    0  0.15002391729E+03 -0.22909411839E+03  0.14727869377E+01  0.28548824425E+03  0.80685052286E+02 0.  0.
         13    1    3    3    0    0  0.48068533991E+03  0.30275125256E+03 -0.60467071601E+03  0.82966462606E+03  0.00000000000E+00 0.  1.
        -13    1    3    3    0    0  0.35832625932E+03  0.24237935112E+03 -0.35285233339E+03  0.55825641703E+03  0.00000000000E+00 0. -1.
          4    1    6    6  502    0  0.31178756642E+02 -0.11713249682E+03 -0.11153317652E+02  0.12172318255E+03  0.00000000000E+00 0. -1.
          1    1    5    5  503    0 -0.91852042845E+03 -0.28846135621E+03  0.59080147343E+03  0.11295734206E+04  0.00000000000E+00 0. -1.
         -2    1    5    5    0  503 -0.70515088076E+02 -0.27575129076E+02  0.22905147598E+02  0.79103800012E+02  0.00000000000E+00 0.  1.
         -3    1    6    6    0  502  0.11884516065E+03 -0.11196162157E+03  0.12626104590E+02  0.16376506169E+03  0.00000000000E+00 0.  1.
<mgrwt>
<rscale>  0 0.28616819E+04</rscale>
<asrwt>0</asrwt>
<pdfrwt beam="1">  1        1 0.24803309E+00 0.28616819E+04</pdfrwt>
<pdfrwt beam="2">  1       -1 0.19536484E+00 0.28616819E+04</pdfrwt>
<totfact> 0.76394025E-01</totfact>
</mgrwt>
</event>
<event>
12    1  0.1519630E-007  0.2151232E+04  0.7818608E-02  0.8539005E-01
          1   -1    0    0  501    0  0.00000000000E+00  0.00000000000E+00  0.19163285329E+04  0.19163285329E+04  0.00000000000E+00 0. -1.
         -1   -1    0    0    0  501 -0.00000000000E+00 -0.00000000000E+00 -0.60373265025E+03  0.60373265025E+03  0.00000000000E+00 0.  1.
         23    2    1    2    0    0  0.12486345539E+03 -0.76726984142E+03  0.10599673421E+04  0.13175494472E+04  0.90066017076E+02 0.  0.
        254    2    1    2    0    0 -0.12486345539E+03  0.76726984142E+03  0.25262854060E+03  0.12025117360E+04  0.88199739435E+03 0.  0.
        -24    2    4    4    0    0  0.28889469357E+03  0.66143639456E+03  0.66038808749E+02  0.72915059834E+03  0.79631795076E+02 0.  0.
         24    2    4    4    0    0 -0.41375814895E+03  0.10583344687E+03  0.18658973185E+03  0.47336113765E+03  0.82816147626E+02 0.  0.
         11    1    3    3    0    0  0.12770335692E+03 -0.62335424179E+03  0.82304686725E+03  0.10403291805E+04  0.00000000000E+00 0. -1.
        -11    1    3    3    0    0 -0.28399015372E+01 -0.14391559964E+03  0.23692047482E+03  0.27722026666E+03  0.00000000000E+00 0.  1.
          4    1    6    6  502    0 -0.38441134491E+03  0.10550233980E+03  0.14875365251E+03  0.42547676192E+03  0.00000000000E+00 0. -1.
          1    1    5    5  503    0  0.27944498500E+03  0.65983204962E+03  0.65374510136E+02  0.71954267415E+03  0.00000000000E+00 0. -1.
         -2    1    5    5    0  503  0.94497085639E+01  0.16043449366E+01  0.66429861224E+00  0.96079241912E+01  0.00000000000E+00 0.  1.
         -3    1    6    6    0  502 -0.29346804044E+02  0.33110706713E+00  0.37836079343E+02  0.47884375735E+02  0.00000000000E+00 0.  1.
<mgrwt>
<rscale>  0 0.21512323E+04</rscale>
<asrwt>0</asrwt>
<pdfrwt beam="1">  1        1 0.29481977E+00 0.21512323E+04</pdfrwt>
<pdfrwt beam="2">  1       -1 0.92881947E-01 0.21512323E+04</pdfrwt>
<totfact> 0.35017435E+00</totfact>
</mgrwt>
</event>
<event>
12    1  0.1519630E-007  0.2432610E+04  0.7818608E-02  0.8427395E-01
          1   -1    0    0  501    0  0.00000000000E+00  0.00000000000E+00  0.23733723443E+04  0.23733723443E+04  0.00000000000E+00 0. -1.
         -1   -1    0    0    0  501 -0.00000000000E+00 -0.00000000000E+00 -0.62333169804E+03  0.62333169804E+03  0.00000000000E+00 0.  1.
         23    2    1    2    0    0 -0.80627790167E+03  0.41879541502E+03  0.13539980881E+04  0.16326867172E+04  0.82954442738E+02 0.  0.
        254    2    1    2    0    0  0.80627790167E+03 -0.41879541502E+03  0.39604255810E+03  0.13640173251E+04  0.93713387569E+03 0.  0.
        -24    2    4    4    0    0  0.83512749460E+03 -0.63972088844E+03  0.24348131849E+03  0.10827074923E+04  0.79319695693E+02 0.  0.
         24    2    4    4    0    0 -0.28849592929E+02  0.22092547342E+03  0.15256123961E+03  0.28130983278E+03  0.78866509791E+02 0.  0.
         13    1    3    3    0    0 -0.31913951708E+03  0.14487389324E+03  0.45867749611E+03  0.57725516173E+03  0.00000000000E+00 0.  1.
        -13    1    3    3    0    0 -0.48713838459E+03  0.27392152177E+03  0.89532059202E+03  0.10554315555E+04  0.00000000000E+00 0. -1.
          2    1    6    6  502    0 -0.16424133291E+02  0.39353777469E+01  0.22201320242E+01  0.17034328239E+02  0.00000000000E+00 0. -1.
          1    1    5    5  503    0  0.17695425516E+03 -0.17015379364E+03  0.76533271668E+02  0.25714288553E+03  0.00000000000E+00 0. -1.
         -2    1    5    5    0  503  0.65817323945E+03 -0.46956709480E+03  0.16694804682E+03  0.82556460679E+03  0.00000000000E+00 0.  1.
         -1    1    6    6    0  502 -0.12425459638E+02  0.21699009568E+03  0.15034110759E+03  0.26427550454E+03  0.00000000000E+00 0.  1.
<mgrwt>
<rscale>  0 0.24326103E+04</rscale>
<asrwt>0</asrwt>
<pdfrwt beam="1">  1        1 0.36513420E+00 0.24326103E+04</pdfrwt>
<pdfrwt beam="2">  1       -1 0.95897186E-01 0.24326103E+04</pdfrwt>
<totfact> 0.15520459E+00</totfact>
</mgrwt>
</event>
<event>
12    1  0.1519630E-007  0.1714725E+04  0.7818608E-02  0.8753011E-01
          2   -1    0    0  501    0  0.00000000000E+00  0.00000000000E+00  0.29200987293E+04  0.29200987293E+04  0.00000000000E+00 0.  1.
         -2   -1    0    0    0  501 -0.00000000000E+00 -0.00000000000E+00 -0.25172784798E+03  0.25172784798E+03  0.00000000000E+00 0. -1.
         23    2    1    2    0    0 -0.13954251645E+03  0.16127038970E+03 -0.10203089965E+03  0.25357109477E+03  0.91693746405E+02 0.  0.
        254    2    1    2    0    0  0.13954251645E+03 -0.16127038970E+03  0.27704017809E+04  0.29182554825E+04  0.89196904695E+03 0.  0.
        -24    2    4    4    0    0  0.11773786013E+03 -0.15353808101E+03  0.75991055461E+02  0.22256648554E+03  0.79530207760E+02 0.  0.
         24    2    4    4    0    0  0.21804656325E+02 -0.77323086842E+01  0.26944107255E+04  0.26956889969E+04  0.79716868002E+02 0.  0.
         13    1    3    3    0    0  0.43832710818E+01  0.26183709874E+02 -0.37408589836E+02  0.45871585123E+02  0.00000000000E+00 0.  1.
        -13    1    3    3    0    0 -0.14392578754E+03  0.13508667982E+03 -0.64622309814E+02  0.20769950965E+03  0.00000000000E+00 0. -1.
          4    1    6    6  502    0 -0.24801275549E+01 -0.54452677554E+01  0.24609854757E+04  0.24609927496E+04  0.00000000000E+00 0. -1.
          3    1    5    5  503    0  0.12673377425E+03 -0.13662306813E+03  0.55337518781E+02  0.19439535299E+03  0.00000000000E+00 0. -1.
         -4    1    5    5    0  503 -0.89959141161E+01 -0.16915012879E+02  0.20653536681E+02  0.28171132545E+02  0.00000000000E+00 0.  1.
         -3    1    6    6    0  502  0.24284783880E+02 -0.22870409288E+01  0.23342524981E+03  0.23469624738E+03  0.00000000000E+00 0.  1.
<mgrwt>
<rscale>  0 0.17147247E+04</rscale>
<asrwt>0</asrwt>
<pdfrwt beam="1">  1        2 0.44924593E+00 0.17147247E+04</pdfrwt>
<pdfrwt beam="2">  1       -2 0.38727363E-01 0.17147247E+04</pdfrwt>
<totfact> 0.11739338E+01</totfact>
</mgrwt>
</event>
<event>
12    1  0.1519630E-007  0.1407693E+04  0.7818608E-02  0.8948269E-01
         -1   -1    0    0    0  501 -0.00000000000E+00  0.00000000000E+00  0.64874363551E+03  0.64874363551E+03  0.00000000000E+00 0.  1.
          1   -1    0    0  501    0  0.00000000000E+00 -0.00000000000E+00 -0.76362966845E+03  0.76362966845E+03  0.00000000000E+00 0. -1.
         23    2    1    2    0    0 -0.14512972942E+03  0.37766012278E+03 -0.52461105555E+02  0.41632831580E+03  0.82989711619E+02 0.  0.
        254    2    1    2    0    0  0.14512972942E+03 -0.37766012278E+03 -0.62424927385E+02  0.99604498816E+03  0.90803025290E+03 0.  0.
        -24    2    4    4    0    0  0.30244488613E+03  0.21182202286E+03 -0.45217234857E+02  0.38094371193E+03  0.82048978149E+02 0.  0.
         24    2    4    4    0    0 -0.15731515670E+03 -0.58948214565E+03 -0.17207692528E+02  0.61510127623E+03  0.76264125116E+02 0.  0.
         11    1    3    3    0    0 -0.13636118460E+03  0.25801460256E+03 -0.51600845936E+02  0.29635882828E+03  0.00000000000E+00 0. -1.
        -11    1    3    3    0    0 -0.87685448254E+01  0.11964552023E+03 -0.86025961903E+00  0.11996948752E+03  0.00000000000E+00 0.  1.
          4    1    6    6  502    0 -0.99472094217E+02 -0.26693927782E+03  0.18513578505E+02  0.28547158906E+03  0.00000000000E+00 0. -1.
          3    1    5    5  503    0  0.21792533324E+03  0.10520588313E+03 -0.34969823010E+02  0.24450484092E+03  0.00000000000E+00 0. -1.
         -2    1    5    5    0  503  0.84519552885E+02  0.10661613973E+03 -0.10247411847E+02  0.13643887100E+03  0.00000000000E+00 0.  1.
         -3    1    6    6    0  502 -0.57843062486E+02 -0.32254286783E+03 -0.35721271033E+02  0.32962968718E+03  0.00000000000E+00 0.  1.
<mgrwt>
<rscale>  0 0.14076930E+04</rscale>
<asrwt>0</asrwt>
<pdfrwt beam="1">  1        1 0.11748149E+00 0.14076930E+04</pdfrwt>
<pdfrwt beam="2">  1       -1 0.99806714E-01 0.14076930E+04</pdfrwt>
<totfact> 0.22222171E+01</totfact>
</mgrwt>
</event>
<event>
12    1  0.1519630E-007  0.1660625E+04  0.7818608E-02  0.8784146E-01
          1   -1    0    0  501    0  0.00000000000E+00  0.00000000000E+00  0.23642321082E+04  0.23642321082E+04  0.00000000000E+00 0. -1.
         -1   -1    0    0    0  501 -0.00000000000E+00 -0.00000000000E+00 -0.29160372216E+03  0.29160372216E+03  0.00000000000E+00 0.  1.
         23    2    1    2    0    0 -0.31312035465E+03  0.47962105054E+03  0.85523561861E+03  0.10335254213E+04  0.93092022019E+02 0.  0.
        254    2    1    2    0    0  0.31312035465E+03 -0.47962105054E+03  0.12173927674E+04  0.16223104090E+04  0.90651266093E+03 0.  0.
        -24    2    4    4    0    0  0.59869811523E+03 -0.29123195391E+03  0.10159967039E+04  0.12174776046E+04  0.82139705787E+02 0.  0.
         24    2    4    4    0    0 -0.28557776058E+03 -0.18838909663E+03  0.20139606355E+03  0.40483280442E+03  0.79272416711E+02 0.  0.
         11    1    3    3    0    0 -0.25622277795E+02  0.67896540080E+02  0.66104085736E+02  0.98164104566E+02  0.00000000000E+00 0.  1.
        -11    1    3    3    0    0 -0.28749807686E+03  0.41172451046E+03  0.78913153287E+03  0.93536131675E+03  0.00000000000E+00 0. -1.
          2    1    6    6  502    0 -0.24180770119E+03 -0.13695852472E+03  0.18923511279E+03  0.33621203096E+03  0.00000000000E+00 0. -1.
          1    1    5    5  503    0  0.25750534942E+03 -0.15473456445E+03  0.40098663831E+03  0.50104099086E+03  0.00000000000E+00 0. -1.
         -2    1    5    5    0  503  0.34119276581E+03 -0.13649738946E+03  0.61501006554E+03  0.71643661373E+03  0.00000000000E+00 0.  1.
         -1    1    6    6    0  502 -0.43770059394E+02 -0.51430571919E+02  0.12160950754E+02  0.68620773461E+02  0.00000000000E+00 0.  1.
<mgrwt>
<rscale>  0 0.16606250E+04</rscale>
<asrwt>0</asrwt>
<pdfrwt beam="1">  1        1 0.36372800E+00 0.16606250E+04</pdfrwt>
<pdfrwt beam="2">  1       -1 0.44862113E-01 0.16606250E+04</pdfrwt>
<totfact> 0.79169037E+00</totfact>
</mgrwt>
</event>
<event>
12    1  0.1778394E-007  0.2253004E+04  0.7818608E-02  0.8496685E-01
          2   -1    0    0  501    0  0.00000000000E+00  0.00000000000E+00  0.99333692975E+03  0.99333692975E+03  0.00000000000E+00 0. -1.
         -2   -1    0    0    0  501 -0.00000000000E+00 -0.00000000000E+00 -0.12775186633E+04  0.12775186633E+04  0.00000000000E+00 0.  1.
         23    2    1    2    0    0 -0.69519717501E+03 -0.32664240400E+03  0.43511754126E+03  0.88754388226E+03  0.91719659783E+02 0.  0.
        254    2    1    2    0    0  0.69519717501E+03  0.32664240400E+03 -0.71929927482E+03  0.13833117108E+04  0.89786717854E+03 0.  0.
        -24    2    4    4    0    0  0.79411374729E+03  0.50584936309E+03 -0.48614835442E+03  0.10625487369E+04  0.78545362401E+02 0.  0.
         24    2    4    4    0    0 -0.98916572282E+02 -0.17920695910E+03 -0.23315092041E+03  0.32076297394E+03  0.81424267293E+02 0.  0.
         13    1    3    3    0    0 -0.65131515079E+03 -0.30674582577E+03  0.37906997949E+03  0.81363288812E+03  0.00000000000E+00 0. -1.
        -13    1    3    3    0    0 -0.43882024222E+02 -0.19896578223E+02  0.56047561762E+02  0.73910994136E+02  0.00000000000E+00 0.  1.
          4    1    6    6  502    0 -0.10181396767E+03 -0.18614240370E+03 -0.22015766221E+03  0.30575230939E+03  0.00000000000E+00 0. -1.
          3    1    5    5  503    0  0.65604047735E+03  0.40791795341E+03 -0.43041789079E+03  0.88433349216E+03  0.00000000000E+00 0. -1.
         -4    1    5    5    0  503  0.13807326994E+03  0.97931409684E+02 -0.55730463631E+02  0.17821524472E+03  0.00000000000E+00 0.  1.
         -3    1    6    6    0  502  0.28973953838E+01  0.69354445992E+01 -0.12993258195E+02  0.15010664553E+02  0.00000000000E+00 0.  1.
<mgrwt>
<rscale>  0 0.22530037E+04</rscale>
<asrwt>0</asrwt>
<pdfrwt beam="1">  1        2 0.15282107E+00 0.22530037E+04</pdfrwt>
<pdfrwt beam="2">  1       -2 0.19654133E+00 0.22530037E+04</pdfrwt>
<totfact> 0.32445528E+00</totfact>
</mgrwt>
</event>
<event>
12    1  0.1519630E-007  0.2621675E+04  0.7818608E-02  0.8360876E-01
         -1   -1    0    0    0  501 -0.00000000000E+00  0.00000000000E+00  0.21118950018E+04  0.21118950018E+04  0.00000000000E+00 0.  1.
          1   -1    0    0  501    0  0.00000000000E+00 -0.00000000000E+00 -0.81362703002E+03  0.81362703002E+03  0.00000000000E+00 0. -1.
         23    2    1    2    0    0  0.65740398015E+03  0.69199152533E+03 -0.14181823063E+03  0.96907143553E+03  0.89189530590E+02 0.  0.
        254    2    1    2    0    0 -0.65740398015E+03 -0.69199152533E+03  0.14400862024E+04  0.19564505963E+04  0.91805141529E+03 0.  0.
        -24    2    4    4    0    0 -0.63257444733E+03 -0.51382485941E+03  0.15341806277E+04  0.17391013668E+04  0.81221598038E+02 0.  0.
         24    2    4    4    0    0 -0.24829532826E+02 -0.17816666592E+03 -0.94094425278E+02  0.21734922952E+03  0.77634143002E+02 0.  0.
         11    1    3    3    0    0  0.64349411757E+03  0.65121671787E+03 -0.13358411300E+03  0.92520949424E+03  0.00000000000E+00 0. -1.
        -11    1    3    3    0    0  0.13909862580E+02  0.40774807460E+02 -0.82341176386E+01  0.43861941289E+02  0.00000000000E+00 0.  1.
          4    1    6    6  502    0 -0.52905545636E+02 -0.12303508842E+03 -0.60668616871E+02  0.14702826536E+03  0.00000000000E+00 0. -1.
          1    1    5    5  503    0 -0.17444278278E+03 -0.17419303193E+03  0.52296025673E+03  0.57815303075E+03  0.00000000000E+00 0. -1.
         -2    1    5    5    0  503 -0.45813166454E+03 -0.33963182748E+03  0.10112203709E+04  0.11609483360E+04  0.00000000000E+00 0.  1.
         -3    1    6    6    0  502  0.28076012810E+02 -0.55131577498E+02 -0.33425808407E+02  0.70320964160E+02  0.00000000000E+00 0.  1.
<mgrwt>
<rscale>  0 0.26216749E+04</rscale>
<asrwt>0</asrwt>
<pdfrwt beam="1">  1        1 0.12517339E+00 0.26216749E+04</pdfrwt>
<pdfrwt beam="2">  1       -1 0.32490692E+00 0.26216749E+04</pdfrwt>
<totfact> 0.42997549E-01</totfact>
</mgrwt>
</event>
<event>
12    1  0.1519630E-007  0.1321608E+04  0.7818608E-02  0.9012604E-01
         -2   -1    0    0    0  501 -0.00000000000E+00  0.00000000000E+00  0.58562766128E+03  0.58562766128E+03  0.00000000000E+00 0.  1.
          2   -1    0    0  501    0  0.00000000000E+00 -0.00000000000E+00 -0.74563009973E+03  0.74563009973E+03  0.00000000000E+00 0. -1.
         23    2    1    2    0    0  0.21448910193E+03  0.16543877626E+03 -0.18111822427E+03  0.33772452972E+03  0.88760820600E+02 0.  0.
        254    2    1    2    0    0 -0.21448910193E+03 -0.16543877626E+03  0.21115785814E+02  0.99353323129E+03  0.95566042176E+03 0.  0.
        -24    2    4    4    0    0  0.91144941557E+02 -0.31203334746E+03 -0.35023045557E+03  0.48447808767E+03  0.79908917707E+02 0.  0.
         24    2    4    4    0    0 -0.30563404349E+03  0.14659457119E+03  0.37134624139E+03  0.50905514361E+03  0.79605096595E+02 0.  0.
         13    1    3    3    0    0  0.59888573578E+02  0.25256454046E+02 -0.87492187922E+02  0.10899271840E+03  0.00000000000E+00 0. -1.
        -13    1    3    3    0    0  0.15460052836E+03  0.14018232222E+03 -0.93626036349E+02  0.22873181133E+03  0.00000000000E+00 0.  1.
          2    1    6    6  502    0 -0.48920427651E+02  0.11596762566E+01  0.83942409444E+02  0.97164197078E+02  0.00000000000E+00 0. -1.
          3    1    5    5  503    0  0.32158102567E+02 -0.36015459548E+02 -0.26852234882E+02  0.55247619002E+02  0.00000000000E+00 0. -1.
         -4    1    5    5    0  503  0.58986838990E+02 -0.27601788791E+03 -0.32337822069E+03  0.42923046867E+03  0.00000000000E+00 0.  1.
         -1    1    6    6    0  502 -0.25671361584E+03  0.14543489494E+03  0.28740383194E+03  0.41189094654E+03  0.00000000000E+00 0.  1.
<mgrwt>
<rscale>  0 0.13216075E+04</rscale>
<asrwt>0</asrwt>
<pdfrwt beam="1">  1        2 0.11471232E+00 0.13216075E+04</pdfrwt>
<pdfrwt beam="2">  1       -2 0.90096564E-01 0.13216075E+04</pdfrwt>
<totfact> 0.38999847E+01</totfact>
</mgrwt>
</event>
<event>
12    1  0.1519630E-007  0.2663865E+04  0.7818608E-02  0.8346826E-01
         -1   -1    0    0    0  501 -0.00000000000E+00  0.00000000000E+00  0.14200230603E+04  0.14200230603E+04  0.00000000000E+00 0.  1.
          1   -1    0    0  501    0  0.00000000000E+00 -0.00000000000E+00 -0.12493067613E+04  0.12493067613E+04  0.00000000000E+00 0. -1.
         23    2    1    2    0    0  0.58343603577E+03  0.25029576601E+03  0.10638692335E+04  0.12422493660E+04  0.91214927478E+02 0.  0.
        254    2    1    2    0    0 -0.58343603577E+03 -0.25029576601E+03 -0.89315293455E+03  0.14270804556E+04  0.91421599412E+03 0.  0.
        -24    2    4    4    0    0 -0.64520624375E+03 -0.31113080517E+03 -0.10250196914E+04  0.12530934291E+04  0.80525147329E+02 0.  0.
         24    2    4    4    0    0  0.61770207972E+02  0.60835039158E+02  0.13186675682E+03  0.17398702654E+03  0.73254237194E+02 0.  0.
         11    1    3    3    0    0  0.62203792796E+02  0.43660760941E+02  0.83808400387E+02  0.11313452992E+03  0.00000000000E+00 0. -1.
        -11    1    3    3    0    0  0.52123224298E+03  0.20663500507E+03  0.98006083311E+03  0.11291148361E+04  0.00000000000E+00 0.  1.
          4    1    6    6  502    0  0.82687160259E+01  0.15054978603E+02 -0.67944247167E+01  0.18471281836E+02  0.00000000000E+00 0. -1.
          1    1    5    5  503    0 -0.10431645065E+03 -0.79464456336E+02 -0.15923716131E+03  0.20628377357E+03  0.00000000000E+00 0. -1.
         -2    1    5    5    0  503 -0.54088979310E+03 -0.23166634883E+03 -0.86578253006E+03  0.10468096555E+04  0.00000000000E+00 0.  1.
         -3    1    6    6    0  502  0.53501491946E+02  0.45780060555E+02  0.13866118153E+03  0.15551574470E+03  0.00000000000E+00 0.  1.
<mgrwt>
<rscale>  0 0.26638652E+04</rscale>
<asrwt>0</asrwt>
<pdfrwt beam="1">  1        1 0.19220104E+00 0.26638652E+04</pdfrwt>
<pdfrwt beam="2">  1       -1 0.21846509E+00 0.26638652E+04</pdfrwt>
<totfact> 0.97108259E-01</totfact>
</mgrwt>
</event>
<event>
12    1  0.1519630E-007  0.2614710E+04  0.7818608E-02  0.8363222E-01
         -2   -1    0    0    0  501 -0.00000000000E+00  0.00000000000E+00  0.71435271155E+03  0.71435271155E+03  0.00000000000E+00 0.  1.
          2   -1    0    0  501    0  0.00000000000E+00 -0.00000000000E+00 -0.23926234308E+04  0.23926234308E+04  0.00000000000E+00 0. -1.
         23    2    1    2    0    0 -0.69376221016E+03  0.91467513332E+03 -0.83104739469E+03  0.14201095061E+04  0.90192202795E+02 0.  0.
        254    2    1    2    0    0  0.69376221016E+03 -0.91467513332E+03 -0.84722332457E+03  0.16868666362E+04  0.89988615000E+03 0.  0.
        -24    2    4    4    0    0  0.86434153027E+02  0.22717472994E+02 -0.49776212596E+03  0.51369513615E+03  0.90158818060E+02 0.  0.
         24    2    4    4    0    0  0.60732805713E+03 -0.93739260631E+03 -0.34946119861E+03  0.11731715001E+04  0.81584140069E+02 0.  0.
         11    1    3    3    0    0 -0.65917424180E+03  0.83709203594E+03 -0.75246557284E+03  0.13043918874E+04  0.00000000000E+00 0. -1.
        -11    1    3    3    0    0 -0.34587968364E+02  0.77583097381E+02 -0.78581821848E+02  0.11571761871E+03  0.00000000000E+00 0.  1.
          4    1    6    6  502    0  0.55003373858E+03 -0.80127819408E+03 -0.29355954801E+03  0.10152640376E+04  0.00000000000E+00 0. -1.
          1    1    5    5  503    0  0.42054579999E+02 -0.16019227309E+02 -0.37322992826E+03  0.37593321574E+03  0.00000000000E+00 0. -1.
         -2    1    5    5    0  503  0.44379573028E+02  0.38736700303E+02 -0.12453219770E+03  0.13776192041E+03  0.00000000000E+00 0.  1.
         -3    1    6    6    0  502  0.57294318557E+02 -0.13611441224E+03 -0.55901650604E+02  0.15790746245E+03  0.00000000000E+00 0.  1.
<mgrwt>
<rscale>  0 0.26147100E+04</rscale>
<asrwt>0</asrwt>
<pdfrwt beam="1">  1        2 0.36809592E+00 0.26147100E+04</pdfrwt>
<pdfrwt beam="2">  1       -2 0.10990042E+00 0.26147100E+04</pdfrwt>
<totfact> 0.23348956E+00</totfact>
</mgrwt>
</event>
<event>
12    1  0.1519630E-007  0.1491047E+04  0.7818608E-02  0.8890428E-01
         -1   -1    0    0    0  501 -0.00000000000E+00  0.00000000000E+00  0.51081081386E+03  0.51081081386E+03  0.00000000000E+00 0.  1.
          1   -1    0    0  501    0  0.00000000000E+00 -0.00000000000E+00 -0.10880850575E+04  0.10880850575E+04  0.00000000000E+00 0. -1.
         23    2    1    2    0    0 -0.32793027060E+03  0.24456979114E+03  0.65051753732E+02  0.42413090303E+03  0.91118862632E+02 0.  0.
        254    2    1    2    0    0  0.32793027060E+03 -0.24456979114E+03 -0.64232599734E+03  0.11747649683E+04  0.89450399595E+03 0.  0.
        -24    2    4    4    0    0  0.75174716605E+02  0.19157154187E+03 -0.62629984652E+03  0.66403850749E+03  0.79653926513E+02 0.  0.
         24    2    4    4    0    0  0.25275555399E+03 -0.43614133301E+03 -0.16026150819E+02  0.51072646081E+03  0.80498744230E+02 0.  0.
         13    1    3    3    0    0 -0.30788672086E+03  0.19550279473E+03  0.45073119994E+02  0.36748763486E+03  0.00000000000E+00 0.  1.
        -13    1    3    3    0    0 -0.20043549738E+02  0.49066996409E+02  0.19978633738E+02  0.56643268168E+02  0.00000000000E+00 0. -1.
          4    1    6    6  502    0  0.44963475522E+01 -0.43617952534E+02  0.11929662219E+02  0.45442928660E+02  0.00000000000E+00 0. -1.
          3    1    5    5  503    0  0.56471875119E+02  0.43190472211E+02 -0.19755605030E+03  0.20995924028E+03  0.00000000000E+00 0. -1.
         -4    1    5    5    0  503  0.18702841486E+02  0.14838106966E+03 -0.42874379622E+03  0.45407926721E+03  0.00000000000E+00 0.  1.
         -3    1    6    6    0  502  0.24825920644E+03 -0.39252338048E+03 -0.27955813037E+02  0.46528353215E+03  0.00000000000E+00 0.  1.
<mgrwt>
<rscale>  0 0.14910474E+04</rscale>
<asrwt>0</asrwt>
<pdfrwt beam="1">  1        1 0.16739770E+00 0.14910474E+04</pdfrwt>
<pdfrwt beam="2">  1       -1 0.78586280E-01 0.14910474E+04</pdfrwt>
<totfact> 0.20305704E+01</totfact>
</mgrwt>
</event>
<event>
12    1  0.1519630E-007  0.1357500E+04  0.7818608E-02  0.8985170E-01
          1   -1    0    0  501    0  0.00000000000E+00  0.00000000000E+00  0.13332669566E+04  0.13332669566E+04  0.00000000000E+00 0. -1.
         -1   -1    0    0    0  501 -0.00000000000E+00 -0.00000000000E+00 -0.34554354668E+03  0.34554354668E+03  0.00000000000E+00 0.  1.
         23    2    1    2    0    0  0.11493507033E+03  0.94462566383E+01  0.71327095832E+03  0.72855658546E+03  0.93487625283E+02 0.  0.
        254    2    1    2    0    0 -0.11493507033E+03 -0.94462566383E+01  0.27445245158E+03  0.95025391779E+03  0.90241844947E+03 0.  0.
        -24    2    4    4    0    0 -0.33052463758E+03 -0.23063282653E+03 -0.13389716440E+03  0.43202971924E+03  0.79266581513E+02 0.  0.
         24    2    4    4    0    0  0.21558956725E+03  0.22118656989E+03  0.40834961598E+03  0.51822419855E+03  0.80028437942E+02 0.  0.
         11    1    3    3    0    0  0.70269235114E+02  0.51480385121E+02  0.41385382582E+03  0.42292196042E+03  0.00000000000E+00 0. -1.
        -11    1    3    3    0    0  0.44665835219E+02 -0.42034128483E+02  0.29941713250E+03  0.30563462505E+03  0.00000000000E+00 0.  1.
          2    1    6    6  502    0  0.34363379003E+02  0.21870626217E+02  0.19456611866E+02  0.45141176911E+02  0.00000000000E+00 0. -1.
          1    1    5    5  503    0 -0.72301641440E+02 -0.14574280632E+02 -0.17673166802E+02  0.75843772557E+02  0.00000000000E+00 0. -1.
         -2    1    5    5    0  503 -0.25822299614E+03 -0.21605854590E+03 -0.11622399760E+03  0.35618594668E+03  0.00000000000E+00 0.  1.
         -1    1    6    6    0  502  0.18122618825E+03  0.19931594368E+03  0.38889300412E+03  0.47308302164E+03  0.00000000000E+00 0.  1.
<mgrwt>
<rscale>  0 0.13575003E+04</rscale>
<asrwt>0</asrwt>
<pdfrwt beam="1">  1        1 0.20511799E+00 0.13575003E+04</pdfrwt>
<pdfrwt beam="2">  1       -1 0.53160546E-01 0.13575003E+04</pdfrwt>
<totfact> 0.29895431E+01</totfact>
</mgrwt>
</event>
<event>
12    1  0.1519630E-007  0.2884609E+04  0.7818608E-02  0.8277472E-01
          1   -1    0    0  501    0  0.00000000000E+00  0.00000000000E+00  0.17169372703E+04  0.17169372703E+04  0.00000000000E+00 0. -1.
         -1   -1    0    0    0  501 -0.00000000000E+00 -0.00000000000E+00 -0.12116005298E+04  0.12116005298E+04  0.00000000000E+00 0.  1.
         23    2    1    2    0    0  0.36887663245E+03 -0.11990156234E+04 -0.86668732384E+02  0.12606401136E+04  0.89406888362E+02 0.  0.
        254    2    1    2    0    0 -0.36887663245E+03  0.11990156234E+04  0.59200547291E+03  0.16678976865E+04  0.92612298199E+03 0.  0.
        -24    2    4    4    0    0 -0.58362935055E+03  0.44746040725E+03  0.45981591442E+03  0.87113043572E+03  0.81200529509E+02 0.  0.
         24    2    4    4    0    0  0.21475271810E+03  0.75155521612E+03  0.13218955848E+03  0.79676725083E+03  0.80062474458E+02 0.  0.
         13    1    3    3    0    0  0.27736955087E+03 -0.85887944518E+03 -0.10052681939E+03  0.90813733021E+03  0.00000000000E+00 0.  1.
        -13    1    3    3    0    0  0.91507081578E+02 -0.34013617820E+03  0.13858087010E+02  0.35250278336E+03  0.00000000000E+00 0. -1.
          2    1    6    6  502    0  0.10188691524E+03  0.49206244905E+03  0.94192054874E+02  0.51125193443E+03  0.00000000000E+00 0. -1.
          3    1    5    5  503    0 -0.16977912048E+03  0.87053192209E+02  0.12972432788E+03  0.23071976350E+03  0.00000000000E+00 0. -1.
         -4    1    5    5    0  503 -0.41385023007E+03  0.36040721504E+03  0.33009158654E+03  0.64041067222E+03  0.00000000000E+00 0.  1.
         -1    1    6    6    0  502  0.11286580285E+03  0.25949276707E+03  0.37997503610E+02  0.28551531640E+03  0.00000000000E+00 0.  1.
<mgrwt>
<rscale>  0 0.28846089E+04</rscale>
<asrwt>0</asrwt>
<pdfrwt beam="1">  1        1 0.26414419E+00 0.28846089E+04</pdfrwt>
<pdfrwt beam="2">  1       -1 0.18640008E+00 0.28846089E+04</pdfrwt>
<totfact> 0.74727569E-01</totfact>
</mgrwt>
</event>
<event>
12    1  0.1519630E-007  0.1448793E+04  0.7818608E-02  0.8919238E-01
         -1   -1    0    0    0  501 -0.00000000000E+00  0.00000000000E+00  0.33124112342E+03  0.33124112342E+03  0.00000000000E+00 0.  1.
          1   -1    0    0  501    0  0.00000000000E+00 -0.00000000000E+00 -0.15841938427E+04  0.15841938427E+04  0.00000000000E+00 0. -1.
         23    2    1    2    0    0 -0.20521092247E+03  0.19621482092E+03  0.22904780848E+02  0.29857221891E+03  0.89492805685E+02 0.  0.
        254    2    1    2    0    0  0.20521092247E+03 -0.19621482092E+03 -0.12758575001E+04  0.16168627472E+04  0.95174629185E+03 0.  0.
        -24    2    4    4    0    0  0.27946120116E+03  0.10030586857E+03 -0.12640526495E+04  0.13009595530E+04  0.80664907939E+02 0.  0.
         24    2    4    4    0    0 -0.74250278691E+02 -0.29652068949E+03 -0.11804850577E+02  0.31590319426E+03  0.78853347826E+02 0.  0.
         11    1    3    3    0    0 -0.21068039989E+03  0.17146953301E+03  0.26693907882E+02  0.27294797374E+03  0.00000000000E+00 0.  1.
        -11    1    3    3    0    0  0.54694774212E+01  0.24745287909E+02 -0.37891270333E+01  0.25624245172E+02  0.00000000000E+00 0. -1.
          2    1    6    6  502    0 -0.60708089809E+02 -0.11300686660E+03 -0.27590428877E+02  0.13121454124E+03  0.00000000000E+00 0. -1.
          3    1    5    5  503    0  0.88188556107E+01 -0.11341351224E+02 -0.44666180143E+02  0.46919783785E+02  0.00000000000E+00 0. -1.
         -4    1    5    5    0  503  0.27064234555E+03  0.11164721980E+03 -0.12193864694E+04  0.12540397692E+04  0.00000000000E+00 0.  1.
         -1    1    6    6    0  502 -0.13542188882E+02 -0.18351382289E+03  0.15785578300E+02  0.18468865302E+03  0.00000000000E+00 0.  1.
<mgrwt>
<rscale>  0 0.14487928E+04</rscale>
<asrwt>0</asrwt>
<pdfrwt beam="1">  1        1 0.24372213E+00 0.14487928E+04</pdfrwt>
<pdfrwt beam="2">  1       -1 0.50960173E-01 0.14487928E+04</pdfrwt>
<totfact> 0.21510658E+01</totfact>
</mgrwt>
</event>
<event>
12    1  0.1519630E-007  0.2794750E+04  0.7818608E-02  0.8304900E-01
          1   -1    0    0  501    0  0.00000000000E+00  0.00000000000E+00  0.17248407746E+04  0.17248407746E+04  0.00000000000E+00 0. -1.
         -1   -1    0    0    0  501 -0.00000000000E+00 -0.00000000000E+00 -0.11320794600E+04  0.11320794600E+04  0.00000000000E+00 0.  1.
         23    2    1    2    0    0 -0.62024149736E+03  0.96259952273E+02 -0.82609079188E+03  0.10446627215E+04  0.12218310804E+03 0.  0.
        254    2    1    2    0    0  0.62024149736E+03 -0.96259952273E+02  0.14188521065E+04  0.18122575131E+04  0.93657380927E+03 0.  0.
        -24    2    4    4    0    0  0.25271827687E+03 -0.40949201644E+03  0.11601714968E+04  0.12585458336E+04  0.79934186530E+02 0.  0.
         24    2    4    4    0    0  0.36752322049E+03  0.31323206416E+03  0.25868060964E+03  0.55371167950E+03  0.80581155301E+02 0.  0.
         11    1    3    3    0    0 -0.31267417127E+03  0.78305573252E+02 -0.33467857594E+03  0.46465756141E+03  0.00000000000E+00 0. -1.
        -11    1    3    3    0    0 -0.30756732610E+03  0.17954379021E+02 -0.49141221595E+03  0.58000516014E+03  0.00000000000E+00 0.  1.
          4    1    6    6  502    0  0.25311187442E+03  0.19688449716E+03  0.13048842019E+03  0.34620276429E+03  0.00000000000E+00 0. -1.
          1    1    5    5  503    0  0.12219242748E+03 -0.16582385417E+03  0.58948917918E+03  0.62444057549E+03  0.00000000000E+00 0. -1.
         -2    1    5    5    0  503  0.13052584939E+03 -0.24366816227E+03  0.57068231764E+03  0.63410525808E+03  0.00000000000E+00 0.  1.
         -3    1    6    6    0  502  0.11441134607E+03  0.11634756700E+03  0.12819218945E+03  0.20750891521E+03  0.00000000000E+00 0.  1.
<mgrwt>
<rscale>  0 0.27947499E+04</rscale>
<asrwt>0</asrwt>
<pdfrwt beam="1">  1        1 0.26536012E+00 0.27947499E+04</pdfrwt>
<pdfrwt beam="2">  1       -1 0.17416607E+00 0.27947499E+04</pdfrwt>
<totfact> 0.91062317E-01</totfact>
</mgrwt>
</event>
<event>
12    1  0.1519630E-007  0.1484866E+04  0.7818608E-02  0.8894580E-01
          2   -1    0    0  501    0  0.00000000000E+00  0.00000000000E+00  0.22632404180E+04  0.22632404180E+04  0.00000000000E+00 0. -1.
         -2   -1    0    0    0  501 -0.00000000000E+00 -0.00000000000E+00 -0.24354743250E+03  0.24354743250E+03  0.00000000000E+00 0.  1.
         23    2    1    2    0    0 -0.14081884138E+03  0.13383875011E+03  0.13371866335E+04  0.13544549593E+04  0.93473989625E+02 0.  0.
        254    2    1    2    0    0  0.14081884138E+03 -0.13383875011E+03  0.68250635192E+03  0.11523328912E+04  0.90791707471E+03 0.  0.
        -24    2    4    4    0    0  0.68321441932E+02  0.36475206809E+03  0.45537351866E+03  0.59391319043E+03  0.87498260997E+02 0.  0.
         24    2    4    4    0    0  0.72497399445E+02 -0.49859081819E+03  0.22713283327E+03  0.55841970074E+03  0.79966000966E+02 0.  0.
         11    1    3    3    0    0 -0.40375460719E+02 -0.44420370410E+01  0.16789338051E+03  0.17273707402E+03  0.00000000000E+00 0.  1.
        -11    1    3    3    0    0 -0.10044338066E+03  0.13828078715E+03  0.11692932530E+04  0.11817178853E+04  0.00000000000E+00 0. -1.
          4    1    6    6  502    0  0.78920679823E+02 -0.41825284775E+03  0.21521118022E+03  0.47694839391E+03  0.00000000000E+00 0. -1.
          3    1    5    5  503    0  0.45462867842E+02  0.33540281615E+03  0.43603593268E+03  0.55198664478E+03  0.00000000000E+00 0. -1.
         -4    1    5    5    0  503  0.22858574091E+02  0.29349251940E+02  0.19337585979E+02  0.41926545653E+02  0.00000000000E+00 0.  1.
         -3    1    6    6    0  502 -0.64232803784E+01 -0.80337970442E+02  0.11921653043E+02  0.81471306831E+02  0.00000000000E+00 0.  1.
<mgrwt>
<rscale>  0 0.14848655E+04</rscale>
<asrwt>0</asrwt>
<pdfrwt beam="1">  1        2 0.34819082E+00 0.14848655E+04</pdfrwt>
<pdfrwt beam="2">  1       -2 0.37468837E-01 0.14848655E+04</pdfrwt>
<totfact> 0.30953038E+01</totfact>
</mgrwt>
</event>
<event>
12    1  0.1519630E-007  0.1216406E+04  0.7818608E-02  0.9098617E-01
         -3   -1    0    0    0  501 -0.00000000000E+00  0.00000000000E+00  0.41459024564E+03  0.41459024564E+03  0.00000000000E+00 0.  1.
          3   -1    0    0  501    0  0.00000000000E+00 -0.00000000000E+00 -0.89223201438E+03  0.89223201438E+03  0.00000000000E+00 0. -1.
         23    2    1    2    0    0 -0.20090782884E+03  0.12990856219E+03 -0.32992738802E+02  0.25848966091E+03  0.92131394024E+02 0.  0.
        254    2    1    2    0    0  0.20090782884E+03 -0.12990856219E+03 -0.44464902994E+03  0.10483325991E+04  0.91872100678E+03 0.  0.
        -24    2    4    4    0    0 -0.16686789631E+03 -0.40210781372E+03 -0.37236768854E+03  0.57833316518E+03  0.79220993464E+02 0.  0.
         24    2    4    4    0    0  0.36777572515E+03  0.27219925153E+03 -0.72281341400E+02  0.46999943393E+03  0.79520180038E+02 0.  0.
         11    1    3    3    0    0 -0.10136652690E+03  0.65857156798E+02 -0.63089867116E+02  0.13635493834E+03  0.00000000000E+00 0. -1.
        -11    1    3    3    0    0 -0.99541301939E+02  0.64051405387E+02  0.30097128314E+02  0.12213472257E+03  0.00000000000E+00 0.  1.
          4    1    6    6  502    0  0.30399787635E+03  0.24065155792E+03 -0.34020613174E+02  0.38921110374E+03  0.00000000000E+00 0. -1.
          3    1    5    5  503    0 -0.14987763737E+03 -0.38854466339E+03 -0.33242369600E+03  0.53285624261E+03  0.00000000000E+00 0. -1.
         -4    1    5    5    0  503 -0.16990258941E+02 -0.13563150327E+02 -0.39943992543E+02  0.45476922565E+02  0.00000000000E+00 0.  1.
         -3    1    6    6    0  502  0.63777848798E+02  0.31547693610E+02 -0.38260728227E+02  0.80788330184E+02  0.00000000000E+00 0.  1.
<mgrwt>
<rscale>  0 0.12164057E+04</rscale>
<asrwt>0</asrwt>
<pdfrwt beam="1">  1        3 0.13726646E+00 0.12164057E+04</pdfrwt>
<pdfrwt beam="2">  1       -3 0.63783115E-01 0.12164057E+04</pdfrwt>
<totfact> 0.25013870E+00</totfact>
</mgrwt>
</event>
<event>
12    1  0.1519630E-007  0.1442006E+04  0.7818608E-02  0.8923962E-01
         -1   -1    0    0    0  501 -0.00000000000E+00  0.00000000000E+00  0.11291903867E+03  0.11291903867E+03  0.00000000000E+00 0.  1.
          1   -1    0    0  501    0  0.00000000000E+00 -0.00000000000E+00 -0.46036968328E+04  0.46036968328E+04  0.00000000000E+00 0. -1.
         23    2    1    2    0    0  0.28900714583E+03  0.18445111193E+03 -0.13457640616E+04  0.13916422627E+04  0.89665682501E+02 0.  0.
        254    2    1    2    0    0 -0.28900714583E+03 -0.18445111193E+03 -0.31450137325E+04  0.33249736088E+04  0.10231279385E+04 0.  0.
        -24    2    4    4    0    0 -0.66360632888E+03 -0.11572759088E+03 -0.22216295438E+04  0.23227593502E+04  0.76203241457E+02 0.  0.
         24    2    4    4    0    0  0.37459918305E+03 -0.68723521047E+02 -0.92338418872E+03  0.10022142586E+04  0.82143715163E+02 0.  0.
         11    1    3    3    0    0  0.13824490666E+03  0.48091934878E+02 -0.67811607763E+03  0.69373330838E+03  0.00000000000E+00 0. -1.
        -11    1    3    3    0    0  0.15076223916E+03  0.13635917705E+03 -0.66764798401E+03  0.69790895429E+03  0.00000000000E+00 0.  1.
          4    1    6    6  502    0  0.23840015079E+03 -0.10667269712E+02 -0.50873614045E+03  0.56192604775E+03  0.00000000000E+00 0. -1.
          1    1    5    5  503    0 -0.55875454169E+03 -0.85613873621E+02 -0.17665564053E+04  0.18547932247E+04  0.00000000000E+00 0. -1.
         -2    1    5    5    0  503 -0.10485178719E+03 -0.30113717258E+02 -0.45507313846E+03  0.46796612547E+03  0.00000000000E+00 0.  1.
         -3    1    6    6    0  502  0.13619903226E+03 -0.58056251335E+02 -0.41464804827E+03  0.44028821088E+03  0.00000000000E+00 0.  1.
<mgrwt>
<rscale>  0 0.14420056E+04</rscale>
<asrwt>0</asrwt>
<pdfrwt beam="1">  1        1 0.70826089E+00 0.14420056E+04</pdfrwt>
<pdfrwt beam="2">  1       -1 0.17372164E-01 0.14420056E+04</pdfrwt>
<totfact> 0.65344138E-01</totfact>
</mgrwt>
</event>
<event>
12    1  0.1519630E-007  0.1638192E+04  0.7818608E-02  0.8797423E-01
         -1   -1    0    0    0  501 -0.00000000000E+00  0.00000000000E+00  0.94552524377E+03  0.94552524377E+03  0.00000000000E+00 0.  1.
          1   -1    0    0  501    0  0.00000000000E+00 -0.00000000000E+00 -0.70957174136E+03  0.70957174136E+03  0.00000000000E+00 0. -1.
         23    2    1    2    0    0  0.15582689775E+03  0.51982457719E+03  0.23390023887E+03  0.59808813042E+03  0.92198030891E+02 0.  0.
        254    2    1    2    0    0 -0.15582689775E+03 -0.51982457719E+03  0.20532635444E+01  0.10570088547E+04  0.90706333293E+03 0.  0.
        -24    2    4    4    0    0 -0.13301899413E+03  0.24120993072E+03  0.44008850339E+02  0.29034596416E+03  0.80546362537E+02 0.  0.
         24    2    4    4    0    0 -0.22807903618E+02 -0.76103450790E+03 -0.41955586795E+02  0.76666289056E+03  0.79485808845E+02 0.  0.
         11    1    3    3    0    0  0.14236729454E+03  0.45408471251E+03  0.23550548020E+03  0.53096535094E+03  0.00000000000E+00 0.  1.
        -11    1    3    3    0    0  0.13459603206E+02  0.65739864672E+02 -0.16052413335E+01  0.67122779481E+02  0.00000000000E+00 0. -1.
          2    1    6    6  502    0  0.24300754496E+02 -0.38183652399E+03 -0.38424198823E+02  0.38453358342E+03  0.00000000000E+00 0. -1.
          1    1    5    5  503    0 -0.88703283069E+02  0.87611118925E+02  0.38122428012E+02  0.13037369406E+03  0.00000000000E+00 0. -1.
         -2    1    5    5    0  503 -0.44315711063E+02  0.15359881179E+03  0.58864223271E+01  0.15997227009E+03  0.00000000000E+00 0.  1.
         -1    1    6    6    0  502 -0.47108658114E+02 -0.37919798391E+03 -0.35313879718E+01  0.38212930713E+03  0.00000000000E+00 0.  1.
<mgrwt>
<rscale>  0 0.16381917E+04</rscale>
<asrwt>0</asrwt>
<pdfrwt beam="1">  1        1 0.10916488E+00 0.16381917E+04</pdfrwt>
<pdfrwt beam="2">  1       -1 0.14546542E+00 0.16381917E+04</pdfrwt>
<totfact> 0.96706739E+00</totfact>
</mgrwt>
</event>
<event>
12    1  0.1519630E-007  0.1470326E+04  0.7818608E-02  0.8904429E-01
          2   -1    0    0  501    0  0.00000000000E+00  0.00000000000E+00  0.42021535998E+03  0.42021535998E+03  0.00000000000E+00 0. -1.
         -2   -1    0    0    0  501 -0.00000000000E+00 -0.00000000000E+00 -0.12861604005E+04  0.12861604005E+04  0.00000000000E+00 0.  1.
         23    2    1    2    0    0 -0.31422183556E+02 -0.12288811678E+03  0.23290251482E+03  0.28164690781E+03  0.94829090497E+02 0.  0.
        254    2    1    2    0    0  0.31422183556E+02  0.12288811678E+03 -0.10988475554E+04  0.14247288527E+04  0.89794070568E+03 0.  0.
        -24    2    4    4    0    0  0.13714797771E+03  0.26625486942E+03 -0.17961260879E+01  0.31056903631E+03  0.82150331503E+02 0.  0.
         24    2    4    4    0    0 -0.10572579415E+03 -0.14336675264E+03 -0.10970514293E+04  0.11141598164E+04  0.78091540237E+02 0.  0.
         11    1    3    3    0    0  0.22581480624E+01 -0.32080934874E+02  0.31493489538E+01  0.32314145724E+02  0.00000000000E+00 0.  1.
        -11    1    3    3    0    0 -0.33680331618E+02 -0.90807181904E+02  0.22975316587E+03  0.24933276209E+03  0.00000000000E+00 0. -1.
          2    1    6    6  502    0 -0.37393090036E+02 -0.10824665923E+03 -0.55519201179E+03  0.56688072147E+03  0.00000000000E+00 0. -1.
          3    1    5    5  503    0  0.92408434227E+02  0.23419924462E+03 -0.20087662572E+02  0.25257101790E+03  0.00000000000E+00 0. -1.
         -4    1    5    5    0  503  0.44739543479E+02  0.32055624799E+02  0.18291536484E+02  0.57998018405E+02  0.00000000000E+00 0.  1.
         -1    1    6    6    0  502 -0.68332704114E+02 -0.35120093407E+02 -0.54185941751E+03  0.54727909494E+03  0.00000000000E+00 0.  1.
<mgrwt>
<rscale>  0 0.14703256E+04</rscale>
<asrwt>0</asrwt>
<pdfrwt beam="1">  1        2 0.64648518E-01 0.14703256E+04</pdfrwt>
<pdfrwt beam="2">  1       -2 0.19787083E+00 0.14703256E+04</pdfrwt>
<totfact> 0.99922374E+00</totfact>
</mgrwt>
</event>
<event>
12    1  0.1519630E-007  0.2225319E+04  0.7818608E-02  0.8507963E-01
         -1   -1    0    0    0  501 -0.00000000000E+00  0.00000000000E+00  0.66324505369E+03  0.66324505369E+03  0.00000000000E+00 0.  1.
          1   -1    0    0  501    0  0.00000000000E+00 -0.00000000000E+00 -0.18665973251E+04  0.18665973251E+04  0.00000000000E+00 0. -1.
         23    2    1    2    0    0 -0.32178223289E+03 -0.18893865093E+03 -0.14594570911E+04  0.15091967584E+04  0.91750942728E+02 0.  0.
        254    2    1    2    0    0  0.32178223289E+03  0.18893865093E+03  0.25610481973E+03  0.10206456204E+04  0.91481483617E+03 0.  0.
        -24    2    4    4    0    0 -0.16318542270E+03 -0.98650913721E+02  0.38486726337E+03  0.43708808638E+03  0.81004320118E+02 0.  0.
         24    2    4    4    0    0  0.48496765559E+03  0.28758956465E+03 -0.12876244364E+03  0.58355753400E+03  0.77834721864E+02 0.  0.
         13    1    3    3    0    0 -0.12735184522E+03 -0.25901381133E+02 -0.53375437233E+03  0.54934788978E+03  0.00000000000E+00 0. -1.
        -13    1    3    3    0    0 -0.19443038767E+03 -0.16303726979E+03 -0.92570271877E+03  0.95984886859E+03  0.00000000000E+00 0.  1.
          4    1    6    6  502    0  0.99950402667E+02  0.32006235483E+02 -0.46417650090E+01  0.10505250157E+03  0.00000000000E+00 0. -1.
          1    1    5    5  503    0 -0.49450205977E+01 -0.16883057228E+02  0.62562811373E+01  0.18671687222E+02  0.00000000000E+00 0. -1.
         -2    1    5    5    0  503 -0.15824040210E+03 -0.81767856493E+02  0.37861098223E+03  0.41841639915E+03  0.00000000000E+00 0.  1.
         -3    1    6    6    0  502  0.38501725292E+03  0.25558332916E+03 -0.12412067863E+03  0.47850503243E+03  0.00000000000E+00 0.  1.
<mgrwt>
<rscale>  0 0.22253193E+04</rscale>
<asrwt>0</asrwt>
<pdfrwt beam="1">  1        1 0.28716882E+00 0.22253193E+04</pdfrwt>
<pdfrwt beam="2">  1       -1 0.10203770E+00 0.22253193E+04</pdfrwt>
<totfact> 0.30379501E+00</totfact>
</mgrwt>
</event>
<event>
12    1  0.1519630E-007  0.2010595E+04  0.7818608E-02  0.8601683E-01
         -1   -1    0    0    0  501 -0.00000000000E+00  0.00000000000E+00  0.35233642886E+03  0.35233642886E+03  0.00000000000E+00 0.  1.
          1   -1    0    0  501    0  0.00000000000E+00 -0.00000000000E+00 -0.28683458601E+04  0.28683458601E+04  0.00000000000E+00 0. -1.
         23    2    1    2    0    0 -0.67266539763E+03 -0.24525317979E+03 -0.44714639877E+03  0.85043878228E+03  0.10333615588E+03 0.  0.
        254    2    1    2    0    0  0.67266539763E+03  0.24525317979E+03 -0.20688630325E+04  0.23702435067E+04  0.90842290507E+03 0.  0.
        -24    2    4    4    0    0  0.46697687038E+03 -0.19471915470E+03 -0.46374763887E+03  0.69137173230E+03  0.83366977794E+02 0.  0.
         24    2    4    4    0    0  0.20568852725E+03  0.43997233449E+03 -0.16051153936E+04  0.16788717744E+04  0.79571242703E+02 0.  0.
         13    1    3    3    0    0 -0.61771815941E+03 -0.23746497322E+03 -0.43946137697E+03  0.79441276413E+03  0.00000000000E+00 0. -1.
        -13    1    3    3    0    0 -0.54947238220E+02 -0.77882065739E+01 -0.76850217992E+01  0.56026018150E+02  0.00000000000E+00 0.  1.
          4    1    6    6  502    0  0.16909993649E+03  0.27764143197E+03 -0.10196365166E+04  0.10702047371E+04  0.00000000000E+00 0. -1.
          3    1    5    5  503    0  0.19934349594E+03 -0.92088349240E+02 -0.14735034452E+03  0.26444322163E+03  0.00000000000E+00 0. -1.
         -4    1    5    5    0  503  0.26763337444E+03 -0.10263080546E+03 -0.31639729436E+03  0.42692851067E+03  0.00000000000E+00 0.  1.
         -3    1    6    6    0  502  0.36588590764E+02  0.16233090253E+03 -0.58547887706E+03  0.60866703737E+03  0.00000000000E+00 0.  1.
<mgrwt>
<rscale>  0 0.20105947E+04</rscale>
<asrwt>0</asrwt>
<pdfrwt beam="1">  1        1 0.44128397E+00 0.20105947E+04</pdfrwt>
<pdfrwt beam="2">  1       -1 0.54205605E-01 0.20105947E+04</pdfrwt>
<totfact> 0.23748562E+00</totfact>
</mgrwt>
</event>
<event>
12    1  0.1519630E-007  0.1388869E+04  0.7818608E-02  0.8961915E-01
          2   -1    0    0  501    0  0.00000000000E+00  0.00000000000E+00  0.14370718285E+04  0.14370718285E+04  0.00000000000E+00 0.  1.
         -2   -1    0    0    0  501 -0.00000000000E+00 -0.00000000000E+00 -0.33557070209E+03  0.33557070209E+03  0.00000000000E+00 0. -1.
         23    2    1    2    0    0  0.26823265337E+03  0.28273965163E+03  0.29651148659E+03  0.49813574489E+03  0.91267144774E+02 0.  0.
        254    2    1    2    0    0 -0.26823265337E+03 -0.28273965163E+03  0.80498963986E+03  0.12745067858E+04  0.90800262098E+03 0.  0.
        -24    2    4    4    0    0  0.30653974890E+03 -0.39659026962E+02  0.10953859628E+03  0.33673932085E+03  0.76519344350E+02 0.  0.
         24    2    4    4    0    0 -0.57477240227E+03 -0.24308062467E+03  0.69545104358E+03  0.93776746490E+03  0.79398738784E+02 0.  0.
         11    1    3    3    0    0  0.23474371908E+03  0.28080419504E+03  0.27954527842E+03  0.46054443030E+03  0.00000000000E+00 0.  1.
        -11    1    3    3    0    0  0.33488934295E+02  0.19354565918E+01  0.16966208174E+02  0.37591314586E+02  0.00000000000E+00 0. -1.
          2    1    6    6  502    0 -0.47269487589E+02 -0.22528409003E+02  0.29704646935E+02  0.60202157093E+02  0.00000000000E+00 0. -1.
          1    1    5    5  503    0  0.85408416163E+02  0.75964050247E+01  0.61628628476E+02  0.10559541074E+03  0.00000000000E+00 0. -1.
         -4    1    5    5    0  503  0.22113133273E+03 -0.47255431987E+02  0.47909967807E+02  0.23114391011E+03  0.00000000000E+00 0.  1.
         -1    1    6    6    0  502 -0.52750291468E+03 -0.22055221567E+03  0.66574639665E+03  0.87756530781E+03  0.00000000000E+00 0.  1.
<mgrwt>
<rscale>  0 0.13888689E+04</rscale>
<asrwt>0</asrwt>
<pdfrwt beam="1">  1        2 0.22108797E+00 0.13888689E+04</pdfrwt>
<pdfrwt beam="2">  1       -2 0.51626263E-01 0.13888689E+04</pdfrwt>
<totfact> 0.47565862E+01</totfact>
</mgrwt>
</event>
<event>
12    1  0.1519630E-007  0.1326289E+04  0.7818608E-02  0.9008973E-01
          2   -1    0    0  501    0  0.00000000000E+00  0.00000000000E+00  0.58835632079E+03  0.58835632079E+03  0.00000000000E+00 0. -1.
         -2   -1    0    0    0  501 -0.00000000000E+00 -0.00000000000E+00 -0.74743979895E+03  0.74743979895E+03  0.00000000000E+00 0.  1.
         23    2    1    2    0    0  0.71498071603E+02 -0.32690778564E+03 -0.12030607405E+03  0.36754316582E+03  0.92917989276E+02 0.  0.
        254    2    1    2    0    0 -0.71498071603E+02  0.32690778564E+03 -0.38777404108E+02  0.96825295392E+03  0.90776066292E+03 0.  0.
        -24    2    4    4    0    0  0.15409248017E+03  0.53905928129E+03  0.16433708262E+03  0.58954748850E+03  0.78931383378E+02 0.  0.
         24    2    4    4    0    0 -0.22559055177E+03 -0.21215149565E+03 -0.20311448673E+03  0.37870546542E+03  0.79138995859E+02 0.  0.
         11    1    3    3    0    0  0.14461717766E+00 -0.76392339497E+02  0.86677183029E+01  0.76882636457E+02  0.00000000000E+00 0. -1.
        -11    1    3    3    0    0  0.71353454425E+02 -0.25051544615E+03 -0.12897379235E+03  0.29066052936E+03  0.00000000000E+00 0.  1.
          4    1    6    6  502    0 -0.20797746188E+03 -0.15622283807E+03 -0.17627575228E+03  0.31421861916E+03  0.00000000000E+00 0. -1.
          3    1    5    5  503    0  0.55807833996E+02  0.10980149635E+03  0.59918174437E+02  0.13697105739E+03  0.00000000000E+00 0. -1.
         -4    1    5    5    0  503  0.98284646176E+02  0.42925778494E+03  0.10441890818E+03  0.45257643110E+03  0.00000000000E+00 0.  1.
         -3    1    6    6    0  502 -0.17613089896E+02 -0.55928657574E+02 -0.26838734442E+02  0.64486846257E+02  0.00000000000E+00 0.  1.
<mgrwt>
<rscale>  0 0.13262895E+04</rscale>
<asrwt>0</asrwt>
<pdfrwt beam="1">  1        2 0.90516357E-01 0.13262895E+04</pdfrwt>
<pdfrwt beam="2">  1       -2 0.11499074E+00 0.13262895E+04</pdfrwt>
<totfact> 0.29301596E+01</totfact>
</mgrwt>
</event>
<event>
12    1  0.1519630E-007  0.2382216E+04  0.7818608E-02  0.8446192E-01
          2   -1    0    0  501    0  0.00000000000E+00  0.00000000000E+00  0.18364917371E+04  0.18364917371E+04  0.00000000000E+00 0. -1.
         -2   -1    0    0    0  501 -0.00000000000E+00 -0.00000000000E+00 -0.77252657889E+03  0.77252657889E+03  0.00000000000E+00 0.  1.
         23    2    1    2    0    0  0.39721309679E+03 -0.90077388444E+03  0.30326458798E+03  0.10342680582E+04  0.92569814989E+02 0.  0.
        254    2    1    2    0    0 -0.39721309679E+03  0.90077388444E+03  0.76070057018E+03  0.15747502578E+04  0.96540208295E+03 0.  0.
        -24    2    4    4    0    0  0.25643369905E+03  0.77742300759E+02  0.33840413884E+03  0.43909258850E+03  0.80516040365E+02 0.  0.
         24    2    4    4    0    0 -0.65364679584E+03  0.82303158368E+03  0.42229643134E+03  0.11356576693E+04  0.82151959400E+02 0.  0.
         13    1    3    3    0    0  0.14513389412E+03 -0.29396944252E+03  0.58173272888E+02  0.33296547875E+03  0.00000000000E+00 0. -1.
        -13    1    3    3    0    0  0.25207920267E+03 -0.60680444192E+03  0.24509131510E+03  0.70130257941E+03  0.00000000000E+00 0.  1.
          2    1    6    6  502    0 -0.18861829552E+03  0.22894984124E+03  0.15917352991E+03  0.33664685330E+03  0.00000000000E+00 0. -1.
          3    1    5    5  503    0  0.49521411549E+02 -0.93085887326E+01  0.33663977929E+02  0.60599368281E+02  0.00000000000E+00 0. -1.
         -4    1    5    5    0  503  0.20691228750E+03  0.87050889492E+02  0.30474016091E+03  0.37849322022E+03  0.00000000000E+00 0.  1.
         -1    1    6    6    0  502 -0.46502850031E+03  0.59408174244E+03  0.26312290143E+03  0.79901081599E+03  0.00000000000E+00 0.  1.
<mgrwt>
<rscale>  0 0.23822163E+04</rscale>
<asrwt>0</asrwt>
<pdfrwt beam="1">  1        2 0.28253719E+00 0.23822163E+04</pdfrwt>
<pdfrwt beam="2">  1       -2 0.11885024E+00 0.23822163E+04</pdfrwt>
<totfact> 0.40337675E+00</totfact>
</mgrwt>
</event>
<event>
12    1  0.1519630E-007  0.1343173E+04  0.7818608E-02  0.8996012E-01
         -2   -1    0    0    0  501 -0.00000000000E+00  0.00000000000E+00  0.28101891908E+03  0.28101891908E+03  0.00000000000E+00 0. -1.
          2   -1    0    0  501    0  0.00000000000E+00 -0.00000000000E+00 -0.16049754870E+04  0.16049754870E+04  0.00000000000E+00 0.  1.
         23    2    1    2    0    0  0.12996537339E+03  0.54036097261E+02  0.10276511058E+03  0.19789156360E+03  0.93752359476E+02 0.  0.
        254    2    1    2    0    0 -0.12996537339E+03 -0.54036097261E+02 -0.14267216785E+04  0.16881028425E+04  0.89126065818E+03 0.  0.
        -24    2    4    4    0    0 -0.38261688616E+03 -0.25069800377E+03 -0.12022665666E+04  0.12889681783E+04  0.82151669260E+02 0.  0.
         24    2    4    4    0    0  0.25265151278E+03  0.19666190651E+03 -0.22445511187E+03  0.39913466419E+03  0.80122971296E+02 0.  0.
         11    1    3    3    0    0  0.96531188621E+02  0.63348072113E+02  0.11315383809E+03  0.16166335297E+03  0.00000000000E+00 0. -1.
        -11    1    3    3    0    0  0.33434184765E+02 -0.93119748518E+01 -0.10388727518E+02  0.36228210637E+02  0.00000000000E+00 0.  1.
          4    1    6    6  502    0  0.21900349570E+03  0.19878442835E+03 -0.19410863768E+03  0.35377385899E+03  0.00000000000E+00 0. -1.
          3    1    5    5  503    0 -0.30430821954E+03 -0.15656827186E+03 -0.89611004909E+03  0.95923424476E+03  0.00000000000E+00 0. -1.
         -4    1    5    5    0  503 -0.78308666618E+02 -0.94129731911E+02 -0.30615651752E+03  0.32973393352E+03  0.00000000000E+00 0.  1.
         -3    1    6    6    0  502  0.33648017078E+02 -0.21225218397E+01 -0.30346474188E+02  0.45360805194E+02  0.00000000000E+00 0.  1.
<mgrwt>
<rscale>  0 0.13431731E+04</rscale>
<asrwt>0</asrwt>
<pdfrwt beam="1">  1        2 0.24691930E+00 0.13431731E+04</pdfrwt>
<pdfrwt beam="2">  1       -2 0.43233681E-01 0.13431731E+04</pdfrwt>
<totfact> 0.54915988E+01</totfact>
</mgrwt>
</event>
<event>
12    1  0.1519630E-007  0.2380148E+04  0.7818608E-02  0.8446974E-01
         -1   -1    0    0    0  501 -0.00000000000E+00  0.00000000000E+00  0.11338589452E+04  0.11338589452E+04  0.00000000000E+00 0.  1.
          1   -1    0    0  501    0  0.00000000000E+00 -0.00000000000E+00 -0.12490758310E+04  0.12490758310E+04  0.00000000000E+00 0. -1.
         23    2    1    2    0    0  0.16270598604E+03 -0.98099125905E+03  0.18570311629E+03  0.10155516429E+04  0.89679450600E+02 0.  0.
        254    2    1    2    0    0 -0.16270598604E+03  0.98099125905E+03 -0.30092000210E+03  0.13673831333E+04  0.88902570111E+03 0.  0.
        -24    2    4    4    0    0 -0.50157107985E+03  0.47930157270E+03 -0.27799780695E+02  0.69852539600E+03  0.76559488809E+02 0.  0.
         24    2    4    4    0    0  0.33886509380E+03  0.50168968635E+03 -0.27312022140E+03  0.66885773725E+03  0.79081756139E+02 0.  0.
         13    1    3    3    0    0  0.15011990176E+03 -0.93986849851E+03  0.19500064424E+03  0.97155238183E+03  0.00000000000E+00 0.  1.
        -13    1    3    3    0    0  0.12586084281E+02 -0.41122760543E+02 -0.92975279543E+01  0.43999261111E+02  0.00000000000E+00 0. -1.
          2    1    6    6  502    0  0.41341997986E+02  0.11732219864E+03 -0.60470867828E+02  0.13831263481E+03  0.00000000000E+00 0. -1.
          3    1    5    5  503    0 -0.19000821927E+03  0.15854698924E+03  0.22763873916E+02  0.24851250500E+03  0.00000000000E+00 0. -1.
         -4    1    5    5    0  503 -0.31156286058E+03  0.32075458345E+03 -0.50563654611E+02  0.45001289100E+03  0.00000000000E+00 0.  1.
         -1    1    6    6    0  502  0.29752309582E+03  0.38436748771E+03 -0.21264935357E+03  0.53054510245E+03  0.00000000000E+00 0.  1.
<mgrwt>
<rscale>  0 0.23801477E+04</rscale>
<asrwt>0</asrwt>
<pdfrwt beam="1">  1        1 0.19216551E+00 0.23801477E+04</pdfrwt>
<pdfrwt beam="2">  1       -1 0.17443984E+00 0.23801477E+04</pdfrwt>
<totfact> 0.20173005E+00</totfact>
</mgrwt>
</event>
<event>
12    1  0.1519630E-007  0.1613688E+04  0.7818608E-02  0.8812183E-01
          1   -1    0    0  501    0  0.00000000000E+00  0.00000000000E+00  0.14103468247E+04  0.14103468247E+04  0.00000000000E+00 0. -1.
         -1   -1    0    0    0  501 -0.00000000000E+00 -0.00000000000E+00 -0.46158648717E+03  0.46158648717E+03  0.00000000000E+00 0.  1.
         23    2    1    2    0    0 -0.12859038783E+03  0.77926122264E+02 -0.28756338239E+03  0.33554857923E+03  0.85394272421E+02 0.  0.
        254    2    1    2    0    0  0.12859038783E+03 -0.77926122264E+02  0.12363237199E+04  0.15363847326E+04  0.89965200932E+03 0.  0.
        -24    2    4    4    0    0 -0.33553229544E+03 -0.93844626547E+02  0.86643250253E+03  0.93736541227E+03  0.80993206300E+02 0.  0.
         24    2    4    4    0    0  0.46412268326E+03  0.15918504283E+02  0.36989121737E+03  0.59901932035E+03  0.79632716719E+02 0.  0.
         11    1    3    3    0    0 -0.11364478690E+03  0.74213940376E+02 -0.17268589130E+03  0.21964349203E+03  0.00000000000E+00 0.  1.
        -11    1    3    3    0    0 -0.14945600923E+02  0.37121818883E+01 -0.11487749109E+03  0.11590508720E+03  0.00000000000E+00 0. -1.
          4    1    6    6  502    0  0.43278289330E+03 -0.61672843964E+01  0.34066291549E+03  0.55080876002E+03  0.00000000000E+00 0. -1.
          3    1    5    5  503    0 -0.32169775328E+03 -0.93978911681E+02  0.85807327105E+03  0.92120096547E+03  0.00000000000E+00 0. -1.
         -4    1    5    5    0  503 -0.13834542159E+02  0.13428513309E+00  0.83592314837E+01  0.16164446797E+02  0.00000000000E+00 0.  1.
         -3    1    6    6    0  502  0.31339789967E+02  0.22085788679E+02  0.29228301877E+02  0.48210560331E+02  0.00000000000E+00 0.  1.
<mgrwt>
<rscale>  0 0.16136877E+04</rscale>
<asrwt>0</asrwt>
<pdfrwt beam="1">  1        1 0.21697643E+00 0.16136877E+04</pdfrwt>
<pdfrwt beam="2">  1       -1 0.71013306E-01 0.16136877E+04</pdfrwt>
<totfact> 0.14504261E+01</totfact>
</mgrwt>
</event>
<event>
12    1  0.1519630E-007  0.2015302E+04  0.7818608E-02  0.8599500E-01
         -1   -1    0    0    0  501 -0.00000000000E+00  0.00000000000E+00  0.36223048355E+03  0.36223048355E+03  0.00000000000E+00 0.  1.
          1   -1    0    0  501    0  0.00000000000E+00 -0.00000000000E+00 -0.28030800120E+04  0.28030800120E+04  0.00000000000E+00 0. -1.
         23    2    1    2    0    0  0.14756031678E+03  0.13659226607E+03 -0.21977810165E+04  0.22088766960E+04  0.91996563453E+02 0.  0.
        254    2    1    2    0    0 -0.14756031678E+03 -0.13659226607E+03 -0.24306851199E+03  0.95643379953E+03  0.90291296210E+03 0.  0.
        -24    2    4    4    0    0 -0.27382714384E+03 -0.45276390543E+03 -0.27841179894E+03  0.60411264443E+03  0.86385754600E+02 0.  0.
         24    2    4    4    0    0  0.12626682707E+03  0.31617163937E+03  0.35343286947E+02  0.35232115510E+03  0.83505875492E+02 0.  0.
         13    1    3    3    0    0  0.11686873814E+03  0.10144970820E+03 -0.19858150250E+04  0.19918362530E+04  0.00000000000E+00 0. -1.
        -13    1    3    3    0    0  0.30691578632E+02  0.35142557864E+02 -0.21196599147E+03  0.21704044303E+03  0.00000000000E+00 0.  1.
          4    1    6    6  502    0  0.84017049949E+02  0.10230433433E+03  0.81784321213E+01  0.13263456660E+03  0.00000000000E+00 0. -1.
          1    1    5    5  503    0 -0.10003824886E+03 -0.10024727224E+03 -0.93936771190E+02  0.16994494346E+03  0.00000000000E+00 0. -1.
         -2    1    5    5    0  503 -0.17378889498E+03 -0.35251663319E+03 -0.18447502775E+03  0.43416770096E+03  0.00000000000E+00 0.  1.
         -3    1    6    6    0  502  0.42249777118E+02  0.21386730503E+03  0.27164854826E+02  0.21968658850E+03  0.00000000000E+00 0.  1.
<mgrwt>
<rscale>  0 0.20153025E+04</rscale>
<asrwt>0</asrwt>
<pdfrwt beam="1">  1        1 0.43124309E+00 0.20153025E+04</pdfrwt>
<pdfrwt beam="2">  1       -1 0.55727766E-01 0.20153025E+04</pdfrwt>
<totfact> 0.25046355E+00</totfact>
</mgrwt>
</event>
<event>
12    1  0.1519630E-007  0.1313106E+04  0.7818608E-02  0.9019236E-01
          1   -1    0    0  501    0  0.00000000000E+00  0.00000000000E+00  0.92935215786E+03  0.92935215786E+03  0.00000000000E+00 0. -1.
         -1   -1    0    0    0  501 -0.00000000000E+00 -0.00000000000E+00 -0.46383053742E+03  0.46383053742E+03  0.00000000000E+00 0.  1.
         23    2    1    2    0    0  0.16711475267E+02 -0.11411748978E+03 -0.21598460815E+03  0.26145105525E+03  0.91680033001E+02 0.  0.
        254    2    1    2    0    0 -0.16711475267E+02  0.11411748978E+03  0.68150622859E+03  0.11317316400E+04  0.89613820952E+03 0.  0.
        -24    2    4    4    0    0  0.16372270385E+03  0.46580101927E+03  0.39118977436E+03  0.63495897684E+03  0.79798179112E+02 0.  0.
         24    2    4    4    0    0 -0.18043417912E+03 -0.35168352949E+03  0.29031645424E+03  0.49677266320E+03  0.79130508600E+02 0.  0.
         13    1    3    3    0    0  0.17422041658E+02  0.66418971704E+01 -0.66771181792E+01  0.19804702490E+02  0.00000000000E+00 0. -1.
        -13    1    3    3    0    0 -0.71056639075E+00 -0.12075938695E+03 -0.20930748997E+03  0.24164635276E+03  0.00000000000E+00 0.  1.
          2    1    6    6  502    0 -0.15690833911E+03 -0.22811942246E+03  0.21044547242E+03  0.34777290673E+03  0.00000000000E+00 0. -1.
          3    1    5    5  503    0  0.14150828098E+03  0.44830869507E+03  0.35532301871E+03  0.58928747423E+03  0.00000000000E+00 0. -1.
         -4    1    5    5    0  503  0.22214422873E+02  0.17492324206E+02  0.35866755642E+02  0.45671502603E+02  0.00000000000E+00 0.  1.
         -1    1    6    6    0  502 -0.23525840007E+02 -0.12356410703E+03  0.79870981813E+02  0.14899975647E+03  0.00000000000E+00 0.  1.
<mgrwt>
<rscale>  0 0.13131061E+04</rscale>
<asrwt>0</asrwt>
<pdfrwt beam="1">  1        1 0.14297725E+00 0.13131061E+04</pdfrwt>
<pdfrwt beam="2">  1       -1 0.71358544E-01 0.13131061E+04</pdfrwt>
<totfact> 0.33528568E+01</totfact>
</mgrwt>
</event>
<event>
12    1  0.1519630E-007  0.1733219E+04  0.7818608E-02  0.8742642E-01
         -1   -1    0    0    0  501 -0.00000000000E+00  0.00000000000E+00  0.44142089876E+03  0.44142089876E+03  0.00000000000E+00 0.  1.
          1   -1    0    0  501    0  0.00000000000E+00 -0.00000000000E+00 -0.17013518872E+04  0.17013518872E+04  0.00000000000E+00 0. -1.
         23    2    1    2    0    0 -0.19615985187E+02 -0.21730070308E+01 -0.12431062746E+04  0.12462792476E+04  0.86655894635E+02 0.  0.
        254    2    1    2    0    0  0.19615985187E+02  0.21730070308E+01 -0.16824713780E+02  0.89649353836E+03  0.89611834290E+03 0.  0.
        -24    2    4    4    0    0 -0.41318669085E+03  0.11952749506E+03  0.30412261368E+02  0.43839701667E+03  0.79101043094E+02 0.  0.
         24    2    4    4    0    0  0.43280267603E+03 -0.11735448803E+03 -0.47236975148E+02  0.45809652168E+03  0.80813730978E+02 0.  0.
         11    1    3    3    0    0  0.79807965710E+01 -0.81938330637E+01 -0.11165752759E+04  0.11166338606E+04  0.00000000000E+00 0. -1.
        -11    1    3    3    0    0 -0.27596781758E+02  0.60208260329E+01 -0.12653099876E+03  0.12964538695E+03  0.00000000000E+00 0.  1.
          4    1    6    6  502    0  0.25927275712E+03 -0.80326989174E+02 -0.66957303047E+02  0.27956764514E+03  0.00000000000E+00 0. -1.
          1    1    5    5  503    0 -0.38927648640E+03  0.11486817027E+03  0.47501146306E+02  0.40864072032E+03  0.00000000000E+00 0. -1.
         -2    1    5    5    0  503 -0.23910204449E+02  0.46593247937E+01 -0.17088884938E+02  0.29756296354E+02  0.00000000000E+00 0.  1.
         -3    1    6    6    0  502  0.17352991891E+03 -0.37027498858E+02  0.19720327899E+02  0.17852887655E+03  0.00000000000E+00 0.  1.
<mgrwt>
<rscale>  0 0.17332193E+04</rscale>
<asrwt>0</asrwt>
<pdfrwt beam="1">  1        1 0.26174644E+00 0.17332193E+04</pdfrwt>
<pdfrwt beam="2">  1       -1 0.67910908E-01 0.17332193E+04</pdfrwt>
<totfact> 0.99078462E+00</totfact>
</mgrwt>
</event>
<event>
12    1  0.1519630E-007  0.2302953E+04  0.7818608E-02  0.8476758E-01
          1   -1    0    0  501    0  0.00000000000E+00  0.00000000000E+00  0.93455885273E+03  0.93455885273E+03  0.00000000000E+00 0. -1.
         -1   -1    0    0    0  501 -0.00000000000E+00 -0.00000000000E+00 -0.14187418106E+04  0.14187418106E+04  0.00000000000E+00 0.  1.
         23    2    1    2    0    0 -0.22159715838E+03  0.43545226233E+02  0.74619792517E+03  0.78506137834E+03  0.92241730843E+02 0.  0.
        254    2    1    2    0    0  0.22159715838E+03 -0.43545226233E+02 -0.12303808830E+04  0.15682392850E+04  0.94579905386E+03 0.  0.
        -24    2    4    4    0    0 -0.27038642190E+03 -0.68246704225E+02 -0.61044667672E+02  0.29694089424E+03  0.81737466532E+02 0.  0.
         24    2    4    4    0    0  0.49198358028E+03  0.24701477992E+02 -0.11693362153E+04  0.12712983907E+04  0.78704558197E+02 0.  0.
         11    1    3    3    0    0 -0.15287319518E+03  0.31548499989E+02  0.63408152792E+03  0.65301217884E+03  0.00000000000E+00 0. -1.
        -11    1    3    3    0    0 -0.68723963203E+02  0.11996726244E+02  0.11211639725E+03  0.13204919951E+03  0.00000000000E+00 0.  1.
          4    1    6    6  502    0  0.25107892016E+02  0.54818663661E+01 -0.27958318659E+02  0.37975316754E+02  0.00000000000E+00 0. -1.
          1    1    5    5  503    0 -0.84647550797E+01 -0.23343318859E+02 -0.41345682207E+01  0.25172549897E+02  0.00000000000E+00 0. -1.
         -2    1    5    5    0  503 -0.26192166682E+03 -0.44903385365E+02 -0.56910099451E+02  0.27176834434E+03  0.00000000000E+00 0.  1.
         -3    1    6    6    0  502  0.46687568826E+03  0.19219611626E+02 -0.11413778967E+04  0.12333230740E+04  0.00000000000E+00 0.  1.
<mgrwt>
<rscale>  0 0.23029526E+04</rscale>
<asrwt>0</asrwt>
<pdfrwt beam="1">  1        1 0.14377828E+00 0.23029526E+04</pdfrwt>
<pdfrwt beam="2">  1       -1 0.21826797E+00 0.23029526E+04</pdfrwt>
<totfact> 0.17420222E+00</totfact>
</mgrwt>
</event>
<event>
12    1  0.1519630E-007  0.1324807E+04  0.7818608E-02  0.9010121E-01
          2   -1    0    0  501    0  0.00000000000E+00  0.00000000000E+00  0.70206309940E+03  0.70206309940E+03  0.00000000000E+00 0. -1.
         -2   -1    0    0    0  501 -0.00000000000E+00 -0.00000000000E+00 -0.62498460505E+03  0.62498460505E+03  0.00000000000E+00 0.  1.
         23    2    1    2    0    0 -0.56353539873E+02  0.13019065245E+03 -0.29847998904E+03  0.34291202519E+03  0.91504238835E+02 0.  0.
        254    2    1    2    0    0  0.56353539873E+02 -0.13019065245E+03  0.37555848339E+03  0.98413567925E+03  0.89852853783E+03 0.  0.
        -24    2    4    4    0    0  0.13954266537E+03 -0.34282748500E+03 -0.14780722784E+03  0.40662127222E+03  0.80567006230E+02 0.  0.
         24    2    4    4    0    0 -0.83189125495E+02  0.21263683255E+03  0.52336571122E+03  0.57751440703E+03  0.86466001920E+02 0.  0.
         13    1    3    3    0    0 -0.14614968668E+02 -0.11566502177E+02 -0.18138734574E+02  0.26007594539E+02  0.00000000000E+00 0. -1.
        -13    1    3    3    0    0 -0.41738571205E+02  0.14175715462E+03 -0.28034125446E+03  0.31690443065E+03  0.00000000000E+00 0.  1.
          4    1    6    6  502    0  0.10534806691E+02  0.63712723888E+02  0.10001871466E+03  0.11905476311E+03  0.00000000000E+00 0. -1.
          3    1    5    5  503    0  0.69166353961E+01  0.50519734277E+00  0.45291551918E+01  0.82830137214E+01  0.00000000000E+00 0. -1.
         -4    1    5    5    0  503  0.13262602997E+03 -0.34333268234E+03 -0.15233638303E+03  0.39833825850E+03  0.00000000000E+00 0.  1.
         -3    1    6    6    0  502 -0.93723932186E+02  0.14892410866E+03  0.42334699656E+03  0.45845964392E+03  0.00000000000E+00 0.  1.
<mgrwt>
<rscale>  0 0.13248074E+04</rscale>
<asrwt>0</asrwt>
<pdfrwt beam="1">  1        2 0.10800971E+00 0.13248074E+04</pdfrwt>
<pdfrwt beam="2">  1       -2 0.96151478E-01 0.13248074E+04</pdfrwt>
<totfact> 0.36201646E+01</totfact>
</mgrwt>
</event>
<event>
12    1  0.1519630E-007  0.1541915E+04  0.7818608E-02  0.8857048E-01
         -2   -1    0    0    0  501 -0.00000000000E+00  0.00000000000E+00  0.40626410539E+03  0.40626410539E+03  0.00000000000E+00 0. -1.
          2   -1    0    0  501    0  0.00000000000E+00 -0.00000000000E+00 -0.14630280719E+04  0.14630280719E+04  0.00000000000E+00 0.  1.
         23    2    1    2    0    0 -0.23414072635E+02  0.33311027030E+03 -0.80428270019E+03  0.87532727687E+03  0.88411022109E+02 0.  0.
        254    2    1    2    0    0  0.23414072635E+02 -0.33311027030E+03 -0.25248126635E+03  0.99396490044E+03  0.90150361202E+03 0.  0.
        -24    2    4    4    0    0  0.41999516478E+03  0.50446000247E+01 -0.16980622494E+03  0.46042478028E+03  0.82069713264E+02 0.  0.
         24    2    4    4    0    0 -0.39658109215E+03 -0.33815487032E+03 -0.82675041409E+02  0.53354012017E+03  0.78769400041E+02 0.  0.
         13    1    3    3    0    0 -0.51108820808E+02  0.28176150066E+03 -0.68848913557E+03  0.74566677854E+03  0.00000000000E+00 0.  1.
        -13    1    3    3    0    0  0.27694748174E+02  0.51348769639E+02 -0.11579356462E+03  0.12966049833E+03  0.00000000000E+00 0. -1.
          4    1    6    6  502    0 -0.93586798645E+02 -0.58909334167E+02  0.10523581517E+02  0.11108350148E+03  0.00000000000E+00 0. -1.
          1    1    5    5  503    0  0.27534108619E+03  0.15225925454E+02 -0.15043091603E+03  0.31412418412E+03  0.00000000000E+00 0. -1.
         -2    1    5    5    0  503  0.14465407860E+03 -0.10181325430E+02 -0.19375308909E+02  0.14630059616E+03  0.00000000000E+00 0.  1.
         -3    1    6    6    0  502 -0.30299429350E+03 -0.27924553616E+03 -0.93198622926E+02  0.42245661869E+03  0.00000000000E+00 0.  1.
<mgrwt>
<rscale>  0 0.15419154E+04</rscale>
<asrwt>0</asrwt>
<pdfrwt beam="1">  1        2 0.22508124E+00 0.15419154E+04</pdfrwt>
<pdfrwt beam="2">  1       -2 0.62502170E-01 0.15419154E+04</pdfrwt>
<totfact> 0.30461854E+01</totfact>
</mgrwt>
</event>
<event>
12    1  0.1519630E-007  0.1870712E+04  0.7818608E-02  0.8669574E-01
         -1   -1    0    0    0  501 -0.00000000000E+00  0.00000000000E+00  0.13442522689E+04  0.13442522689E+04  0.00000000000E+00 0.  1.
          1   -1    0    0  501    0  0.00000000000E+00 -0.00000000000E+00 -0.65083843137E+03  0.65083843137E+03  0.00000000000E+00 0. -1.
         23    2    1    2    0    0 -0.64685502412E+03 -0.13810908462E+03 -0.13452222863E+02  0.66786253681E+03  0.91454164971E+02 0.  0.
        254    2    1    2    0    0  0.64685502412E+03  0.13810908462E+03  0.70686606042E+03  0.13272281635E+04  0.90795342893E+03 0.  0.
        -24    2    4    4    0    0 -0.74235706131E+02  0.34937060859E+03  0.26498198793E+03  0.45170718435E+03  0.79076951476E+02 0.  0.
         24    2    4    4    0    0  0.72109073025E+03 -0.21126152397E+03  0.44188407249E+03  0.87552097914E+03  0.81683404856E+02 0.  0.
         13    1    3    3    0    0 -0.54713150234E+02  0.36279006810E+01 -0.21612646205E+02  0.58938925575E+02  0.00000000000E+00 0. -1.
        -13    1    3    3    0    0 -0.59214187388E+03 -0.14173698530E+03  0.81604233416E+01  0.60892361123E+03  0.00000000000E+00 0.  1.
          2    1    6    6  502    0  0.28848022040E+03 -0.54816689728E+02  0.14020972436E+03  0.32539894566E+03  0.00000000000E+00 0. -1.
          3    1    5    5  503    0 -0.59213791150E+01  0.57611509567E+02  0.82723079858E+02  0.10098146714E+03  0.00000000000E+00 0. -1.
         -4    1    5    5    0  503 -0.68314327016E+02  0.29175909902E+03  0.18225890807E+03  0.35072571720E+03  0.00000000000E+00 0.  1.
         -1    1    6    6    0  502  0.43261050985E+03 -0.15644483424E+03  0.30167434813E+03  0.55012203348E+03  0.00000000000E+00 0.  1.
<mgrwt>
<rscale>  0 0.18707122E+04</rscale>
<asrwt>0</asrwt>
<pdfrwt beam="1">  1        1 0.10012899E+00 0.18707122E+04</pdfrwt>
<pdfrwt beam="2">  1       -1 0.20680804E+00 0.18707122E+04</pdfrwt>
<totfact> 0.38528336E+00</totfact>
</mgrwt>
</event>
<event>
12    1  0.1519630E-007  0.1485191E+04  0.7818608E-02  0.8894361E-01
         -2   -1    0    0    0  501 -0.00000000000E+00  0.00000000000E+00  0.39649765647E+03  0.39649765647E+03  0.00000000000E+00 0. -1.
          2   -1    0    0  501    0  0.00000000000E+00 -0.00000000000E+00 -0.13907979739E+04  0.13907979739E+04  0.00000000000E+00 0.  1.
         23    2    1    2    0    0  0.13778663755E+03 -0.41625305413E+02 -0.87340000145E+03  0.88957708706E+03  0.88328974617E+02 0.  0.
        254    2    1    2    0    0 -0.13778663755E+03  0.41625305413E+02 -0.12090031602E+03  0.89771854335E+03  0.87781767647E+03 0.  0.
        -24    2    4    4    0    0 -0.10300443640E+03  0.44090517010E+03  0.33716122435E+02  0.46096564523E+03  0.79657179458E+02 0.  0.
         24    2    4    4    0    0 -0.34782201149E+02 -0.39927986468E+03 -0.15461643845E+03  0.43675289811E+03  0.78820296327E+02 0.  0.
         13    1    3    3    0    0  0.14444746786E+03 -0.26394981630E+02 -0.83377568408E+03  0.84660714466E+03  0.00000000000E+00 0.  1.
        -13    1    3    3    0    0 -0.66608303142E+01 -0.15230323783E+02 -0.39624317367E+02  0.42969942399E+02  0.00000000000E+00 0. -1.
          4    1    6    6  502    0 -0.28279132612E+01 -0.33938809038E+03 -0.11612351117E+03  0.35871568523E+03  0.00000000000E+00 0. -1.
          1    1    5    5  503    0 -0.67981943674E+02  0.21272088807E+03  0.52301132822E+02  0.22936244109E+03  0.00000000000E+00 0. -1.
         -2    1    5    5    0  503 -0.35022492724E+02  0.22818428202E+03 -0.18585010386E+02  0.23160320414E+03  0.00000000000E+00 0.  1.
         -3    1    6    6    0  502 -0.31954287888E+02 -0.59891774306E+02 -0.38492927284E+02  0.78037212886E+02  0.00000000000E+00 0.  1.
<mgrwt>
<rscale>  0 0.14851911E+04</rscale>
<asrwt>0</asrwt>
<pdfrwt beam="1">  1        2 0.21396892E+00 0.14851911E+04</pdfrwt>
<pdfrwt beam="2">  1       -2 0.60999639E-01 0.14851911E+04</pdfrwt>
<totfact> 0.35427393E+01</totfact>
</mgrwt>
</event>
<event>
12    1  0.1519630E-007  0.3217032E+04  0.7818608E-02  0.8184333E-01
          1   -1    0    0  501    0  0.00000000000E+00  0.00000000000E+00  0.34282399226E+04  0.34282399226E+04  0.00000000000E+00 0. -1.
         -1   -1    0    0    0  501 -0.00000000000E+00 -0.00000000000E+00 -0.75470911766E+03  0.75470911766E+03  0.00000000000E+00 0.  1.
         23    2    1    2    0    0 -0.79535384306E+03  0.73097290853E+03 -0.77374200042E+02  0.10873658662E+04  0.97306893665E+02 0.  0.
        254    2    1    2    0    0  0.79535384306E+03 -0.73097290853E+03  0.27509050050E+04  0.30955831740E+04  0.92100364394E+03 0.  0.
        -24    2    4    4    0    0  0.59966688153E+03 -0.78455295469E+03  0.26945719927E+04  0.28708955557E+04  0.78736015271E+02 0.  0.
         24    2    4    4    0    0  0.19568696154E+03  0.53580046153E+02  0.56333012261E+02  0.22468761835E+03  0.78402227699E+02 0.  0.
         13    1    3    3    0    0 -0.15644621858E+03  0.10827609702E+03  0.12601592971E+02  0.19067756197E+03  0.00000000000E+00 0. -1.
        -13    1    3    3    0    0 -0.63890762448E+03  0.62269681151E+03 -0.89975793013E+02  0.89668830427E+03  0.00000000000E+00 0.  1.
          2    1    6    6  502    0  0.73641795905E+02  0.17176445156E+02 -0.17304244585E+02  0.77573070411E+02  0.00000000000E+00 0. -1.
          1    1    5    5  503    0  0.45602024999E+03 -0.53819579789E+03  0.19281994984E+04  0.20531835015E+04  0.00000000000E+00 0. -1.
         -2    1    5    5    0  503  0.14364663154E+03 -0.24635715680E+03  0.76637249433E+03  0.81771205417E+03  0.00000000000E+00 0.  1.
         -1    1    6    6    0  502  0.12204516563E+03  0.36403600997E+02  0.73637256846E+02  0.14711454794E+03  0.00000000000E+00 0.  1.
<mgrwt>
<rscale>  0 0.32170321E+04</rscale>
<asrwt>0</asrwt>
<pdfrwt beam="1">  1        1 0.52742152E+00 0.32170321E+04</pdfrwt>
<pdfrwt beam="2">  1       -1 0.11610910E+00 0.32170321E+04</pdfrwt>
<totfact> 0.15919708E-01</totfact>
</mgrwt>
</event>
<event>
12    1  0.1519630E-007  0.2345729E+04  0.7818608E-02  0.8460106E-01
          1   -1    0    0  501    0  0.00000000000E+00  0.00000000000E+00  0.13253858765E+04  0.13253858765E+04  0.00000000000E+00 0. -1.
         -1   -1    0    0    0  501 -0.00000000000E+00 -0.00000000000E+00 -0.10378947270E+04  0.10378947270E+04  0.00000000000E+00 0.  1.
         23    2    1    2    0    0  0.49895641505E+03  0.84132365821E+03  0.33979964285E+03  0.10395173933E+04  0.91376209263E+02 0.  0.
        254    2    1    2    0    0 -0.49895641505E+03 -0.84132365821E+03 -0.52308493333E+02  0.13237632103E+04  0.89040993729E+03 0.  0.
        -24    2    4    4    0    0  0.20292249404E+03 -0.91928666543E+02 -0.16782216268E+03  0.28781428032E+03  0.71023681602E+02 0.  0.
         24    2    4    4    0    0 -0.70187890910E+03 -0.74939499167E+03  0.11551366935E+03  0.10359489300E+04  0.74966133065E+02 0.  0.
         11    1    3    3    0    0  0.50110453139E+03  0.82013153071E+03  0.33187443972E+03  0.10167901075E+04  0.00000000000E+00 0. -1.
        -11    1    3    3    0    0 -0.21481163318E+01  0.21192127501E+02  0.79252031282E+01  0.22727285724E+02  0.00000000000E+00 0.  1.
          2    1    6    6  502    0 -0.29252814878E+03 -0.34687291698E+03  0.22056465769E+02  0.45429068452E+03  0.00000000000E+00 0. -1.
          3    1    5    5  503    0  0.87174230718E+02 -0.24268311630E+02 -0.29495246269E+02  0.95174928438E+02  0.00000000000E+00 0. -1.
         -4    1    5    5    0  503  0.11574826332E+03 -0.67660354913E+02 -0.13832691641E+03  0.19263935188E+03  0.00000000000E+00 0.  1.
         -1    1    6    6    0  502 -0.40935076032E+03 -0.40252207469E+03  0.93457203576E+02  0.58165824544E+03  0.00000000000E+00 0.  1.
<mgrwt>
<rscale>  0 0.23457289E+04</rscale>
<asrwt>0</asrwt>
<pdfrwt beam="1">  1        1 0.20390552E+00 0.23457289E+04</pdfrwt>
<pdfrwt beam="2">  1       -1 0.15967611E+00 0.23457289E+04</pdfrwt>
<totfact> 0.22958530E+00</totfact>
</mgrwt>
</event>
<event>
12    1  0.1519630E-007  0.1775490E+04  0.7818608E-02  0.8719444E-01
          2   -1    0    0  501    0  0.00000000000E+00  0.00000000000E+00  0.43335351855E+04  0.43335351855E+04  0.00000000000E+00 0. -1.
         -2   -1    0    0    0  501 -0.00000000000E+00 -0.00000000000E+00 -0.18185863098E+03  0.18185863098E+03  0.00000000000E+00 0.  1.
         23    2    1    2    0    0  0.51503541789E+03 -0.53023533903E+02  0.25438128865E+04  0.25975642587E+04  0.91011538344E+02 0.  0.
        254    2    1    2    0    0 -0.51503541789E+03  0.53023533903E+02  0.16078636681E+04  0.19178295577E+04  0.90816940087E+03 0.  0.
        -24    2    4    4    0    0 -0.63835326482E+03  0.23692453414E+03  0.69947397542E+03  0.97940932223E+03  0.79690981906E+02 0.  0.
         24    2    4    4    0    0  0.12331784693E+03 -0.18390100024E+03  0.90838969263E+03  0.93842023551E+03  0.80211192918E+02 0.  0.
         11    1    3    3    0    0  0.26805115697E+03 -0.73255450086E+02  0.13493144528E+04  0.13776310377E+04  0.00000000000E+00 0. -1.
        -11    1    3    3    0    0  0.24698426092E+03  0.20231916182E+02  0.11944984337E+04  0.12199332210E+04  0.00000000000E+00 0.  1.
          4    1    6    6  502    0  0.94178288779E+02 -0.16819493888E+03  0.65190602657E+03  0.67980920487E+03  0.00000000000E+00 0. -1.
          3    1    5    5  503    0 -0.24168470187E+03  0.12945755535E+03  0.26342580508E+03  0.38021560796E+03  0.00000000000E+00 0. -1.
         -2    1    5    5    0  503 -0.39666856295E+03  0.10746697879E+03  0.43604817034E+03  0.59919371427E+03  0.00000000000E+00 0.  1.
         -1    1    6    6    0  502  0.29139558156E+02 -0.15706061356E+02  0.25648366606E+03  0.25861103064E+03  0.00000000000E+00 0.  1.
<mgrwt>
<rscale>  0 0.17754895E+04</rscale>
<asrwt>0</asrwt>
<pdfrwt beam="1">  1        2 0.66669764E+00 0.17754895E+04</pdfrwt>
<pdfrwt beam="2">  1       -2 0.27978254E-01 0.17754895E+04</pdfrwt>
<totfact> 0.19933086E+00</totfact>
</mgrwt>
</event>
<event>
12    1  0.1705794E-007  0.1734897E+04  0.7818608E-02  0.8741708E-01
          2   -1    0    0  501    0  0.00000000000E+00  0.00000000000E+00  0.69715863639E+03  0.69715863639E+03  0.00000000000E+00 0. -1.
         -2   -1    0    0    0  501 -0.00000000000E+00 -0.00000000000E+00 -0.10793334252E+04  0.10793334252E+04  0.00000000000E+00 0.  1.
         23    2    1    2    0    0  0.81131228433E+02  0.82473992154E+02 -0.76329914028E+03  0.77728577049E+03  0.90351291347E+02 0.  0.
        254    2    1    2    0    0 -0.81131228433E+02 -0.82473992154E+02  0.38112435143E+03  0.99920629115E+03  0.91639140405E+03 0.  0.
        -24    2    4    4    0    0  0.26023431560E+03 -0.37730990362E+03  0.18656571866E+03  0.50173802617E+03  0.82762413816E+02 0.  0.
         24    2    4    4    0    0 -0.34136554403E+03  0.29483591147E+03  0.19455863276E+03  0.49746826498E+03  0.78504545982E+02 0.  0.
         11    1    3    3    0    0 -0.12928279220E+02 -0.81946592856E+01 -0.10917091351E+03  0.11023874637E+03  0.00000000000E+00 0. -1.
        -11    1    3    3    0    0  0.94059507653E+02  0.90668651440E+02 -0.65412822677E+03  0.66704702412E+03  0.00000000000E+00 0.  1.
          2    1    6    6  502    0 -0.66039703670E+02  0.37817697488E+02  0.62130759853E+01  0.76354587401E+02  0.00000000000E+00 0. -1.
          3    1    5    5  503    0 -0.61321849471E+01 -0.10085245423E+02  0.76994215352E+01  0.14092443345E+02  0.00000000000E+00 0. -1.
         -4    1    5    5    0  503  0.26636650054E+03 -0.36722465820E+03  0.17886629713E+03  0.48764558283E+03  0.00000000000E+00 0.  1.
         -1    1    6    6    0  502 -0.27532584036E+03  0.25701821398E+03  0.18834555678E+03  0.42111367758E+03  0.00000000000E+00 0.  1.
<mgrwt>
<rscale>  0 0.17348967E+04</rscale>
<asrwt>0</asrwt>
<pdfrwt beam="1">  1        2 0.10725518E+00 0.17348967E+04</pdfrwt>
<pdfrwt beam="2">  1       -2 0.16605130E+00 0.17348967E+04</pdfrwt>
<totfact> 0.88849817E+00</totfact>
</mgrwt>
</event>
<event>
12    1  0.1519630E-007  0.1607015E+04  0.7818608E-02  0.8816250E-01
          2   -1    0    0  501    0  0.00000000000E+00  0.00000000000E+00  0.21982009858E+04  0.21982009858E+04  0.00000000000E+00 0. -1.
         -2   -1    0    0    0  501 -0.00000000000E+00 -0.00000000000E+00 -0.29370560542E+03  0.29370560542E+03  0.00000000000E+00 0.  1.
         23    2    1    2    0    0 -0.36470270595E+03  0.38104099805E+03  0.86255525000E+03  0.10172735017E+04  0.11244337242E+03 0.  0.
        254    2    1    2    0    0  0.36470270595E+03 -0.38104099805E+03  0.10419401304E+04  0.14746330895E+04  0.90039058610E+03 0.  0.
        -24    2    4    4    0    0 -0.16305082901E+03  0.20661638905E+02  0.70101576765E+03  0.72448939558E+03  0.80307544188E+02 0.  0.
         24    2    4    4    0    0  0.52775353496E+03 -0.40170263696E+03  0.34092436271E+03  0.75014369393E+03  0.81224000516E+02 0.  0.
         11    1    3    3    0    0 -0.24251531709E+03  0.30334132620E+03  0.69208137571E+03  0.79360334539E+03  0.00000000000E+00 0. -1.
        -11    1    3    3    0    0 -0.12218738886E+03  0.77699671849E+02  0.17047387429E+03  0.22367015630E+03  0.00000000000E+00 0.  1.
          4    1    6    6  502    0  0.22741267388E+03 -0.21097343699E+03  0.18927140796E+03  0.36338682038E+03  0.00000000000E+00 0. -1.
          1    1    5    5  503    0 -0.34199957500E+02  0.39553121035E+02  0.17960400347E+03  0.18706064401E+03  0.00000000000E+00 0. -1.
         -2    1    5    5    0  503 -0.12885087151E+03 -0.18891482130E+02  0.52141176418E+03  0.53742875157E+03  0.00000000000E+00 0.  1.
         -3    1    6    6    0  502  0.30034086109E+03 -0.19072919996E+03  0.15165295475E+03  0.38675687355E+03  0.00000000000E+00 0.  1.
<mgrwt>
<rscale>  0 0.16070146E+04</rscale>
<asrwt>0</asrwt>
<pdfrwt beam="1">  1        2 0.33818476E+00 0.16070146E+04</pdfrwt>
<pdfrwt beam="2">  1       -2 0.45185479E-01 0.16070146E+04</pdfrwt>
<totfact> 0.23058111E+01</totfact>
</mgrwt>
</event>
<event>
12    1  0.1519630E-007  0.2519530E+04  0.7818608E-02  0.8396061E-01
         -2   -1    0    0    0  501 -0.00000000000E+00  0.00000000000E+00  0.82067020708E+03  0.82067020708E+03  0.00000000000E+00 0.  1.
          2   -1    0    0  501    0  0.00000000000E+00 -0.00000000000E+00 -0.19337948627E+04  0.19337948627E+04  0.00000000000E+00 0. -1.
         23    2    1    2    0    0  0.96098392258E+03  0.52451291915E+03 -0.41757614740E+03  0.11753162898E+04  0.91622269711E+02 0.  0.
        254    2    1    2    0    0 -0.96098392258E+03 -0.52451291915E+03 -0.69554850826E+03  0.15791487800E+04  0.90073261314E+03 0.  0.
        -24    2    4    4    0    0 -0.56184901948E+03 -0.35983002353E+02 -0.74996692284E+03  0.94095453527E+03  0.77304300976E+02 0.  0.
         24    2    4    4    0    0 -0.39913490309E+03 -0.48852991679E+03  0.54418414576E+02  0.63819424477E+03  0.79751988969E+02 0.  0.
         13    1    3    3    0    0  0.95625202142E+03  0.51691903139E+03 -0.40530024348E+03  0.11601256401E+04  0.00000000000E+00 0.  1.
        -13    1    3    3    0    0  0.47319011571E+01  0.75938877531E+01 -0.12275903919E+02  0.15190649650E+02  0.00000000000E+00 0. -1.
          2    1    6    6  502    0  0.17174510485E+01 -0.49251928895E+01  0.63543379559E+01  0.82209959227E+01  0.00000000000E+00 0. -1.
          1    1    5    5  503    0 -0.18901644855E+03  0.22530044919E+02 -0.27089527266E+03  0.33108770665E+03  0.00000000000E+00 0. -1.
         -2    1    5    5    0  503 -0.37283257093E+03 -0.58513047272E+02 -0.47907165018E+03  0.60986682862E+03  0.00000000000E+00 0.  1.
         -1    1    6    6    0  502 -0.40085235414E+03 -0.48360472390E+03  0.48064076620E+02  0.62997324885E+03  0.00000000000E+00 0.  1.
<mgrwt>
<rscale>  0 0.25195300E+04</rscale>
<asrwt>0</asrwt>
<pdfrwt beam="1">  1        2 0.29750690E+00 0.25195300E+04</pdfrwt>
<pdfrwt beam="2">  1       -2 0.12625696E+00 0.25195300E+04</pdfrwt>
<totfact> 0.30278997E+00</totfact>
</mgrwt>
</event>
<event>
12    1  0.1519630E-007  0.1338990E+04  0.7818608E-02  0.8999205E-01
          2   -1    0    0  501    0  0.00000000000E+00  0.00000000000E+00  0.58371844694E+03  0.58371844694E+03  0.00000000000E+00 0. -1.
         -2   -1    0    0    0  501 -0.00000000000E+00 -0.00000000000E+00 -0.76787620784E+03  0.76787620784E+03  0.00000000000E+00 0.  1.
         23    2    1    2    0    0 -0.28721167392E+03 -0.18331276763E+03 -0.93416126038E+02  0.36489533103E+03  0.91257402937E+02 0.  0.
        254    2    1    2    0    0  0.28721167392E+03  0.18331276763E+03 -0.90741634859E+02  0.98669932376E+03  0.92154619786E+03 0.  0.
        -24    2    4    4    0    0  0.26913970099E+03  0.38108976860E+03  0.28707322368E+03  0.55283361684E+03  0.74487460477E+02 0.  0.
         24    2    4    4    0    0  0.18071972927E+02 -0.19777700097E+03 -0.37781485854E+03  0.43386570692E+03  0.77801323837E+02 0.  0.
         11    1    3    3    0    0 -0.11062096123E+03 -0.46196806167E+02 -0.73080306757E+02  0.14039897862E+03  0.00000000000E+00 0.  1.
        -11    1    3    3    0    0 -0.17659071269E+03 -0.13711596147E+03 -0.20335819281E+02  0.22449635241E+03  0.00000000000E+00 0. -1.
          4    1    6    6  502    0  0.39473531696E+02 -0.84984818213E+02 -0.21611729321E+03  0.23555734642E+03  0.00000000000E+00 0. -1.
          3    1    5    5  503    0  0.88343526668E+02  0.18797483305E+03  0.13459505991E+03  0.24749736709E+03  0.00000000000E+00 0. -1.
         -4    1    5    5    0  503  0.18079617432E+03  0.19311493556E+03  0.15247816377E+03  0.30533624975E+03  0.00000000000E+00 0.  1.
         -3    1    6    6    0  502 -0.21401558768E+02 -0.11279218275E+03 -0.16169756533E+03  0.19830836050E+03  0.00000000000E+00 0.  1.
<mgrwt>
<rscale>  0 0.13389899E+04</rscale>
<asrwt>0</asrwt>
<pdfrwt beam="1">  1        2 0.89802838E-01 0.13389899E+04</pdfrwt>
<pdfrwt beam="2">  1       -2 0.11813480E+00 0.13389899E+04</pdfrwt>
<totfact> 0.27663307E+01</totfact>
</mgrwt>
</event>
<event>
12    1  0.1519630E-007  0.1198231E+04  0.7818608E-02  0.9114406E-01
          2   -1    0    0  501    0  0.00000000000E+00  0.00000000000E+00  0.30660159322E+03  0.30660159322E+03  0.00000000000E+00 0. -1.
         -2   -1    0    0    0  501 -0.00000000000E+00 -0.00000000000E+00 -0.11707035022E+04  0.11707035022E+04  0.00000000000E+00 0.  1.
         23    2    1    2    0    0  0.50160170450E+02  0.87574988378E+02 -0.46359370247E+03  0.48259314552E+03  0.88270050637E+02 0.  0.
        254    2    1    2    0    0 -0.50160170450E+02 -0.87574988378E+02 -0.40050820648E+03  0.99471194986E+03  0.90490862437E+03 0.  0.
        -24    2    4    4    0    0 -0.37056276205E+03 -0.16102403178E+02  0.98305500415E+02  0.39234591589E+03  0.81824802441E+02 0.  0.
         24    2    4    4    0    0  0.32040259160E+03 -0.71472585200E+02 -0.49881370689E+03  0.60236603398E+03  0.79142741715E+02 0.  0.
         11    1    3    3    0    0 -0.24758833048E+02  0.19953266614E+02 -0.14283849726E+03  0.14633512552E+03  0.00000000000E+00 0. -1.
        -11    1    3    3    0    0  0.74919003498E+02  0.67621721764E+02 -0.32075520522E+03  0.33625802000E+03  0.00000000000E+00 0.  1.
          2    1    6    6  502    0  0.68270890835E+02  0.15905307035E+02 -0.12061574390E+03  0.13950645506E+03  0.00000000000E+00 0. -1.
          3    1    5    5  503    0 -0.29399151468E+03 -0.42415742826E+02  0.61165672830E+02  0.30326777850E+03  0.00000000000E+00 0. -1.
         -4    1    5    5    0  503 -0.76571247371E+02  0.26313339649E+02  0.37139827584E+02  0.89078137388E+02  0.00000000000E+00 0.  1.
         -1    1    6    6    0  502  0.25213170077E+03 -0.87377892235E+02 -0.37819796299E+03  0.46285957892E+03  0.00000000000E+00 0.  1.
<mgrwt>
<rscale>  0 0.11982313E+04</rscale>
<asrwt>0</asrwt>
<pdfrwt beam="1">  1        2 0.47169475E-01 0.11982313E+04</pdfrwt>
<pdfrwt beam="2">  1       -2 0.18010823E+00 0.11982313E+04</pdfrwt>
<totfact> 0.19120933E+01</totfact>
</mgrwt>
</event>
<event>
12    1  0.1519630E-007  0.1985054E+04  0.7818608E-02  0.8613641E-01
          1   -1    0    0  501    0  0.00000000000E+00  0.00000000000E+00  0.10357542327E+04  0.10357542327E+04  0.00000000000E+00 0. -1.
         -1   -1    0    0    0  501 -0.00000000000E+00 -0.00000000000E+00 -0.95110350844E+03  0.95110350844E+03  0.00000000000E+00 0.  1.
         23    2    1    2    0    0 -0.62803219975E+03 -0.34131275533E+03  0.37729097055E+03  0.81337582842E+03  0.91175221029E+02 0.  0.
        254    2    1    2    0    0  0.62803219975E+03  0.34131275533E+03 -0.29264024632E+03  0.11734819127E+04  0.88346060737E+03 0.  0.
        -24    2    4    4    0    0  0.36162279110E+03  0.63059840638E+03 -0.23521964901E+03  0.76812844404E+03  0.79168365451E+02 0.  0.
         24    2    4    4    0    0  0.26640940864E+03 -0.28928565105E+03 -0.57420597307E+02  0.40535346865E+03  0.79712913833E+02 0.  0.
         13    1    3    3    0    0 -0.78131005327E+02 -0.39841503881E+02  0.82574021588E+02  0.12045857573E+03  0.00000000000E+00 0.  1.
        -13    1    3    3    0    0 -0.54990119442E+03 -0.30147125145E+03  0.29471694896E+03  0.69291725269E+03  0.00000000000E+00 0. -1.
          2    1    6    6  502    0  0.69868914227E+02 -0.31336567551E+02 -0.18108214834E+02  0.78686422498E+02  0.00000000000E+00 0. -1.
          3    1    5    5  503    0  0.40651011703E+02  0.12677566445E+03 -0.29889942352E+02  0.13644772810E+03  0.00000000000E+00 0. -1.
         -4    1    5    5    0  503  0.32097177940E+03  0.50382274193E+03 -0.20532970666E+03  0.63168071594E+03  0.00000000000E+00 0.  1.
         -1    1    6    6    0  502  0.19654049442E+03 -0.25794908350E+03 -0.39312382473E+02  0.32666704615E+03  0.00000000000E+00 0.  1.
<mgrwt>
<rscale>  0 0.19850536E+04</rscale>
<asrwt>0</asrwt>
<pdfrwt beam="1">  1        1 0.15934681E+00 0.19850536E+04</pdfrwt>
<pdfrwt beam="2">  1       -1 0.14632362E+00 0.19850536E+04</pdfrwt>
<totfact> 0.49169428E+00</totfact>
</mgrwt>
</event>
<event>
12    1  0.1519630E-007  0.1563450E+04  0.7818608E-02  0.8843322E-01
         -2   -1    0    0    0  501 -0.00000000000E+00  0.00000000000E+00  0.10208453187E+04  0.10208453187E+04  0.00000000000E+00 0. -1.
          2   -1    0    0  501    0  0.00000000000E+00 -0.00000000000E+00 -0.59861561181E+03  0.59861561181E+03  0.00000000000E+00 0.  1.
         23    2    1    2    0    0  0.23971194459E+03 -0.15552432634E+03 -0.31399301707E+03  0.43371834116E+03  0.88715005646E+02 0.  0.
        254    2    1    2    0    0 -0.23971194459E+03  0.15552432634E+03  0.73622272396E+03  0.11857425894E+04  0.88448400579E+03 0.  0.
        -24    2    4    4    0    0  0.28870994679E+03  0.24419154517E+03  0.33542316276E+03  0.51186666101E+03  0.80720731082E+02 0.  0.
         24    2    4    4    0    0 -0.52842189139E+03 -0.88667218835E+02  0.40079956120E+03  0.67387592835E+03  0.79855541860E+02 0.  0.
         11    1    3    3    0    0  0.44139304008E+02 -0.49067964717E+02 -0.29098560259E+02  0.72129532987E+02  0.00000000000E+00 0. -1.
        -11    1    3    3    0    0  0.19557264058E+03 -0.10645636162E+03 -0.28489445681E+03  0.36158880817E+03  0.00000000000E+00 0.  1.
          2    1    6    6  502    0 -0.31920866762E+03 -0.54856496301E+02  0.19279556229E+03  0.37692643515E+03  0.00000000000E+00 0. -1.
          1    1    5    5  503    0  0.22681818661E+03  0.16365746168E+03  0.20612088789E+03  0.34744218939E+03  0.00000000000E+00 0. -1.
         -2    1    5    5    0  503  0.61891760187E+02  0.80534083491E+02  0.12930227487E+03  0.16442447163E+03  0.00000000000E+00 0.  1.
         -1    1    6    6    0  502 -0.20921322376E+03 -0.33810722534E+02  0.20800399890E+03  0.29694949321E+03  0.00000000000E+00 0.  1.
<mgrwt>
<rscale>  0 0.15634500E+04</rscale>
<asrwt>0</asrwt>
<pdfrwt beam="1">  1        2 0.92094709E-01 0.15634500E+04</pdfrwt>
<pdfrwt beam="2">  1       -2 0.15705313E+00 0.15634500E+04</pdfrwt>
<totfact> 0.12660620E+01</totfact>
</mgrwt>
</event>
<event>
12    1  0.1519630E-007  0.1905385E+04  0.7818608E-02  0.8652181E-01
          2   -1    0    0  501    0  0.00000000000E+00  0.00000000000E+00  0.15647936178E+04  0.15647936178E+04  0.00000000000E+00 0. -1.
         -2   -1    0    0    0  501 -0.00000000000E+00 -0.00000000000E+00 -0.58002732534E+03  0.58002732534E+03  0.00000000000E+00 0.  1.
         23    2    1    2    0    0 -0.53509930751E+02  0.70455452572E+03  0.17099691595E+03  0.73269202874E+03  0.91308659549E+02 0.  0.
        254    2    1    2    0    0  0.53509930751E+02 -0.70455452572E+03  0.81376937653E+03  0.14121289144E+04  0.91248401649E+03 0.  0.
        -24    2    4    4    0    0  0.34040118972E+03 -0.76911988789E+03  0.64279890831E+03  0.10617011531E+04  0.81243646002E+02 0.  0.
         24    2    4    4    0    0 -0.28689125896E+03  0.64565362174E+02  0.17097046821E+03  0.35042776133E+03  0.84222529344E+02 0.  0.
         11    1    3    3    0    0 -0.54082685408E+02  0.70406884967E+03  0.16306702940E+03  0.72472666434E+03  0.00000000000E+00 0. -1.
        -11    1    3    3    0    0  0.57275465771E+00  0.48567604979E+00  0.79298865548E+01  0.79653643919E+01  0.00000000000E+00 0.  1.
          2    1    6    6  502    0 -0.14842004035E+03  0.65601141175E+02  0.12392278576E+03  0.20417853691E+03  0.00000000000E+00 0. -1.
          1    1    5    5  503    0  0.27137803849E+02 -0.13460978511E+03  0.10877721590E+03  0.17518201205E+03  0.00000000000E+00 0. -1.
         -2    1    5    5    0  503  0.31326338587E+03 -0.63451010278E+03  0.53402169241E+03  0.88651914104E+03  0.00000000000E+00 0.  1.
         -1    1    6    6    0  502 -0.13847121861E+03 -0.10357790006E+01  0.47047682452E+02  0.14624922443E+03  0.00000000000E+00 0.  1.
<mgrwt>
<rscale>  0 0.19053851E+04</rscale>
<asrwt>0</asrwt>
<pdfrwt beam="1">  1        2 0.24073748E+00 0.19053851E+04</pdfrwt>
<pdfrwt beam="2">  1       -2 0.89234974E-01 0.19053851E+04</pdfrwt>
<totfact> 0.11776173E+01</totfact>
</mgrwt>
</event>
<event>
12    1  0.1519630E-007  0.1710678E+04  0.7818608E-02  0.8755298E-01
          1   -1    0    0  501    0  0.00000000000E+00  0.00000000000E+00  0.19926850613E+04  0.19926850613E+04  0.00000000000E+00 0. -1.
         -1   -1    0    0    0  501 -0.00000000000E+00 -0.00000000000E+00 -0.36714521066E+03  0.36714521066E+03  0.00000000000E+00 0.  1.
         23    2    1    2    0    0  0.33339754541E+03 -0.28737181108E+03  0.12017881234E+04  0.12828954118E+04  0.88257935221E+02 0.  0.
        254    2    1    2    0    0 -0.33339754541E+03  0.28737181108E+03  0.42375172729E+03  0.10769348602E+04  0.88684084567E+03 0.  0.
        -24    2    4    4    0    0  0.54722025391E+02  0.45331696826E+03  0.44960416504E+03  0.64609732703E+03  0.82505011929E+02 0.  0.
         24    2    4    4    0    0 -0.38811957080E+03 -0.16594515719E+03 -0.25852437751E+02  0.43083753313E+03  0.82328822301E+02 0.  0.
         13    1    3    3    0    0  0.30433568607E+03 -0.24809262791E+03  0.11281050622E+04  0.11944836513E+04  0.00000000000E+00 0. -1.
        -13    1    3    3    0    0  0.29061859341E+02 -0.39279183161E+02  0.73683061187E+02  0.88411760552E+02  0.00000000000E+00 0.  1.
          2    1    6    6  502    0 -0.12575832015E+03 -0.68907318514E+02  0.27635743823E+02  0.14603803604E+03  0.00000000000E+00 0. -1.
          1    1    5    5  503    0 -0.49701377946E+01  0.33506134244E+02  0.66507907660E+02  0.74636888219E+02  0.00000000000E+00 0. -1.
         -2    1    5    5    0  503  0.59692163186E+02  0.41981083402E+03  0.38309625738E+03  0.57146043881E+03  0.00000000000E+00 0.  1.
         -1    1    6    6    0  502 -0.26236125065E+03 -0.97037838672E+02 -0.53488181574E+02  0.28479949709E+03  0.00000000000E+00 0.  1.
<mgrwt>
<rscale>  0 0.17106780E+04</rscale>
<asrwt>0</asrwt>
<pdfrwt beam="1">  1        1 0.30656693E+00 0.17106780E+04</pdfrwt>
<pdfrwt beam="2">  1       -1 0.56483880E-01 0.17106780E+04</pdfrwt>
<totfact> 0.90930490E+00</totfact>
</mgrwt>
</event>
<event>
12    1  0.1519630E-007  0.2811691E+04  0.7818608E-02  0.8299648E-01
          2   -1    0    0  501    0  0.00000000000E+00  0.00000000000E+00  0.22435807928E+04  0.22435807928E+04  0.00000000000E+00 0. -1.
         -2   -1    0    0    0  501 -0.00000000000E+00 -0.00000000000E+00 -0.88091382742E+03  0.88091382742E+03  0.00000000000E+00 0.  1.
         23    2    1    2    0    0 -0.25959549443E+03  0.10682864266E+04 -0.71854264068E+02  0.11053866758E+04  0.89949751188E+02 0.  0.
        254    2    1    2    0    0  0.25959549443E+03 -0.10682864266E+04  0.14345212294E+04  0.20191079444E+04  0.90017777323E+03 0.  0.
        -24    2    4    4    0    0  0.13827514171E+03 -0.11344901828E+04  0.88728992293E+03  0.14490798491E+04  0.79755952979E+02 0.  0.
         24    2    4    4    0    0  0.12132035273E+03  0.66203756215E+02  0.54723130652E+03  0.57002809529E+03  0.79802012896E+02 0.  0.
         13    1    3    3    0    0 -0.16203399632E+03  0.55697045726E+03 -0.11198788665E+01  0.58006237626E+03  0.00000000000E+00 0.  1.
        -13    1    3    3    0    0 -0.97561498118E+02  0.51131596936E+03 -0.70734385202E+02  0.52532429954E+03  0.00000000000E+00 0. -1.
          4    1    6    6  502    0 -0.53949404797E+01  0.11095085432E+02  0.11864680121E+02  0.17116569105E+02  0.00000000000E+00 0. -1.
          1    1    5    5  503    0 -0.14321341198E+01 -0.21171794081E+03  0.18340589864E+03  0.28011472850E+03  0.00000000000E+00 0. -1.
         -2    1    5    5    0  503  0.13970727583E+03 -0.92277224203E+03  0.70388402429E+03  0.11689651206E+04  0.00000000000E+00 0.  1.
         -1    1    6    6    0  502  0.12671529321E+03  0.55108670783E+02  0.53536662640E+03  0.55291152619E+03  0.00000000000E+00 0.  1.
<mgrwt>
<rscale>  0 0.28116908E+04</rscale>
<asrwt>0</asrwt>
<pdfrwt beam="1">  1        2 0.34516627E+00 0.28116908E+04</pdfrwt>
<pdfrwt beam="2">  1       -2 0.13552521E+00 0.28116908E+04</pdfrwt>
<totfact> 0.16568850E+00</totfact>
</mgrwt>
</event>
<event>
12    1  0.1519630E-007  0.2282609E+04  0.7818608E-02  0.8484810E-01
          2   -1    0    0  501    0  0.00000000000E+00  0.00000000000E+00  0.18127097524E+04  0.18127097524E+04  0.00000000000E+00 0.  1.
         -2   -1    0    0    0  501 -0.00000000000E+00 -0.00000000000E+00 -0.71857937099E+03  0.71857937099E+03  0.00000000000E+00 0. -1.
         23    2    1    2    0    0  0.63765646448E+03 -0.49799289192E+03 -0.10855261079E+03  0.82145877451E+03  0.91696029406E+02 0.  0.
        254    2    1    2    0    0 -0.63765646448E+03  0.49799289192E+03  0.12026829922E+04  0.17098303489E+04  0.90690173399E+03 0.  0.
        -24    2    4    4    0    0 -0.83751649853E+03  0.25623526852E+03  0.97991993880E+03  0.13168427730E+04  0.82106053918E+02 0.  0.
         24    2    4    4    0    0  0.19986003404E+03  0.24175762340E+03  0.22276305339E+03  0.39298757592E+03  0.80156566725E+02 0.  0.
         11    1    3    3    0    0  0.53859786427E+03 -0.44557880131E+03 -0.11832313279E+03  0.70896296894E+03  0.00000000000E+00 0. -1.
        -11    1    3    3    0    0  0.99058600209E+02 -0.52414090607E+02  0.97705220031E+01  0.11249580556E+03  0.00000000000E+00 0.  1.
          2    1    6    6  502    0  0.18448026885E+03  0.24595575419E+03  0.21557630740E+03  0.37550012907E+03  0.00000000000E+00 0. -1.
          3    1    5    5  503    0 -0.49680066048E+03  0.13710581128E+03  0.63226656733E+03  0.81570209752E+03  0.00000000000E+00 0. -1.
         -4    1    5    5    0  503 -0.34071583805E+03  0.11912945724E+03  0.34765337146E+03  0.50114067543E+03  0.00000000000E+00 0.  1.
         -1    1    6    6    0  502  0.15379765191E+02 -0.41981307903E+01  0.71867459866E+01  0.17487446850E+02  0.00000000000E+00 0.  1.
<mgrwt>
<rscale>  0 0.22826089E+04</rscale>
<asrwt>0</asrwt>
<pdfrwt beam="1">  1        2 0.27887842E+00 0.22826089E+04</pdfrwt>
<pdfrwt beam="2">  1       -2 0.11055067E+00 0.22826089E+04</pdfrwt>
<totfact> 0.50034295E+00</totfact>
</mgrwt>
</event>
<event>
12    1  0.2239803E-007  0.2422380E+04  0.7818608E-02  0.8431172E-01
         -1   -1    0    0    0  501 -0.00000000000E+00  0.00000000000E+00  0.16347444536E+04  0.16347444536E+04  0.00000000000E+00 0.  1.
          1   -1    0    0  501    0  0.00000000000E+00 -0.00000000000E+00 -0.89737628946E+03  0.89737628946E+03  0.00000000000E+00 0. -1.
         23    2    1    2    0    0 -0.93933760091E+03  0.38456161684E+03  0.56841200215E+03  0.11669932570E+04  0.92402879409E+02 0.  0.
        254    2    1    2    0    0  0.93933760091E+03 -0.38456161684E+03  0.16895616196E+03  0.13651274860E+04  0.89709759935E+03 0.  0.
        -24    2    4    4    0    0 -0.88711204897E+02 -0.53180610156E+00  0.23376396251E+03  0.26281027367E+03  0.80954858322E+02 0.  0.
         24    2    4    4    0    0  0.10280488058E+04 -0.38402981074E+03 -0.64807800554E+02  0.11023172123E+04  0.80869913648E+02 0.  0.
         13    1    3    3    0    0 -0.26997902546E+03  0.11717869231E+03  0.21328867603E+03  0.36347156621E+03  0.00000000000E+00 0.  1.
        -13    1    3    3    0    0 -0.66935857544E+03  0.26738292452E+03  0.35512332613E+03  0.80352169081E+03  0.00000000000E+00 0. -1.
          2    1    6    6  502    0  0.20270781842E+02 -0.21055901930E+02 -0.30498565790E+01  0.29386344239E+02  0.00000000000E+00 0. -1.
          3    1    5    5  503    0  0.44677395608E+01  0.23435060570E+02  0.44158447431E+02  0.50190947792E+02  0.00000000000E+00 0. -1.
         -4    1    5    5    0  503 -0.93178944458E+02 -0.23966866672E+02  0.18960551508E+03  0.21261932588E+03  0.00000000000E+00 0.  1.
         -1    1    6    6    0  502  0.10077780240E+04 -0.36297390881E+03 -0.61757943975E+02  0.10729308681E+04  0.00000000000E+00 0.  1.
<mgrwt>
<rscale>  0 0.24223797E+04</rscale>
<asrwt>0</asrwt>
<pdfrwt beam="1">  1        1 0.13805789E+00 0.24223797E+04</pdfrwt>
<pdfrwt beam="2">  1       -1 0.25149915E+00 0.24223797E+04</pdfrwt>
<totfact> 0.11148306E+00</totfact>
</mgrwt>
</event>
<event>
12    1  0.1519630E-007  0.2153450E+04  0.7818608E-02  0.8538057E-01
         -2   -1    0    0    0  501 -0.00000000000E+00  0.00000000000E+00  0.18404696741E+04  0.18404696741E+04  0.00000000000E+00 0.  1.
          2   -1    0    0  501    0  0.00000000000E+00 -0.00000000000E+00 -0.62991371947E+03  0.62991371947E+03  0.00000000000E+00 0. -1.
         23    2    1    2    0    0 -0.86575894603E+03  0.19422633230E+03  0.51367942203E+03  0.10292424150E+04  0.90614454376E+02 0.  0.
        254    2    1    2    0    0  0.86575894603E+03 -0.19422633230E+03  0.69687653263E+03  0.14411409786E+04  0.89665377812E+03 0.  0.
        -24    2    4    4    0    0  0.23539735732E+03  0.31823294603E+03  0.41165524098E+03  0.57652235659E+03  0.78954838055E+02 0.  0.
         24    2    4    4    0    0  0.63036158870E+03 -0.51245927832E+03  0.28522129166E+03  0.86461862206E+03  0.79018554393E+02 0.  0.
         13    1    3    3    0    0 -0.74338881719E+03  0.15264724526E+03  0.40400083595E+03  0.85973530256E+03  0.00000000000E+00 0. -1.
        -13    1    3    3    0    0 -0.12237012884E+03  0.41579087035E+02  0.10967858607E+03  0.16950711240E+03  0.00000000000E+00 0.  1.
          4    1    6    6  502    0  0.16003264022E+03 -0.16973120215E+03  0.10096209627E+03  0.25418983419E+03  0.00000000000E+00 0. -1.
          1    1    5    5  503    0  0.11833077264E+03  0.10031242361E+03  0.17989187799E+03  0.23754124242E+03  0.00000000000E+00 0. -1.
         -2    1    5    5    0  503  0.11706658469E+03  0.21792052242E+03  0.23176336299E+03  0.33898111417E+03  0.00000000000E+00 0.  1.
         -3    1    6    6    0  502  0.47032894848E+03 -0.34272807617E+03  0.18425919539E+03  0.61042878787E+03  0.00000000000E+00 0.  1.
<mgrwt>
<rscale>  0 0.21534503E+04</rscale>
<asrwt>0</asrwt>
<pdfrwt beam="1">  1        2 0.96909804E-01 0.21534503E+04</pdfrwt>
<pdfrwt beam="2">  1       -2 0.28314918E+00 0.21534503E+04</pdfrwt>
<totfact> 0.17283412E+00</totfact>
</mgrwt>
</event>
<event>
12    1  0.1519630E-007  0.1087542E+04  0.7818608E-02  0.9217421E-01
         -2   -1    0    0    0  501 -0.00000000000E+00  0.00000000000E+00  0.26827779880E+03  0.26827779880E+03  0.00000000000E+00 0.  1.
          2   -1    0    0  501    0  0.00000000000E+00 -0.00000000000E+00 -0.11021659067E+04  0.11021659067E+04  0.00000000000E+00 0. -1.
         23    2    1    2    0    0  0.32697620649E+01 -0.36555688783E+02 -0.32508439701E+03  0.33993814173E+03  0.92363766137E+02 0.  0.
        254    2    1    2    0    0 -0.32697620649E+01  0.36555688783E+02 -0.50880371084E+03  0.10305055637E+04  0.89538454922E+03 0.  0.
        -24    2    4    4    0    0  0.34490863723E+03 -0.93779949590E+02 -0.53477942460E+03  0.64940171169E+03  0.89313510682E+02 0.  0.
         24    2    4    4    0    0 -0.34817839929E+03  0.13033563837E+03  0.25975713759E+02  0.38110385204E+03  0.79685832908E+02 0.  0.
         11    1    3    3    0    0  0.13872136560E+02  0.29433674545E+02 -0.10378481184E+03  0.10876610014E+03  0.00000000000E+00 0.  1.
        -11    1    3    3    0    0 -0.10602374495E+02 -0.65989363328E+02 -0.22129958517E+03  0.23117204159E+03  0.00000000000E+00 0. -1.
          2    1    6    6  502    0 -0.31665781720E+03  0.11065678211E+03  0.46515929298E+02  0.33864557918E+03  0.00000000000E+00 0. -1.
          1    1    5    5  503    0  0.31575673258E+03 -0.59104019237E+02 -0.44494371934E+03  0.54879004423E+03  0.00000000000E+00 0. -1.
         -2    1    5    5    0  503  0.29151904644E+02 -0.34675930353E+02 -0.89835705255E+02  0.10061166746E+03  0.00000000000E+00 0.  1.
         -1    1    6    6    0  502 -0.31520582096E+02  0.19678856265E+02 -0.20540215539E+02  0.42458272856E+02  0.00000000000E+00 0.  1.
<mgrwt>
<rscale>  0 0.10875415E+04</rscale>
<asrwt>0</asrwt>
<pdfrwt beam="1">  1        2 0.16956399E+00 0.10875415E+04</pdfrwt>
<pdfrwt beam="2">  1       -2 0.41273507E-01 0.10875415E+04</pdfrwt>
<totfact> 0.11991490E+02</totfact>
</mgrwt>
</event>
<event>
12    1  0.1519630E-007  0.1082172E+04  0.7818608E-02  0.9222745E-01
         -3   -1    0    0    0  501 -0.00000000000E+00  0.00000000000E+00  0.45998061604E+03  0.45998061604E+03  0.00000000000E+00 0.  1.
          3   -1    0    0  501    0  0.00000000000E+00 -0.00000000000E+00 -0.63649186191E+03  0.63649186191E+03  0.00000000000E+00 0. -1.
         23    2    1    2    0    0  0.44861181173E+02 -0.10724927546E+03  0.57107068414E+02  0.15696724230E+03  0.88671107079E+02 0.  0.
        254    2    1    2    0    0 -0.44861181173E+02  0.10724927546E+03 -0.23361831428E+03  0.93950523565E+03  0.90253954948E+03 0.  0.
        -24    2    4    4    0    0 -0.42057455770E+03 -0.30292086557E+02  0.63526215936E+02  0.43499582604E+03  0.85937299632E+02 0.  0.
         24    2    4    4    0    0  0.37571337652E+03  0.13754136201E+03 -0.29714453022E+03  0.50450940961E+03  0.78464673470E+02 0.  0.
         13    1    3    3    0    0  0.47791002683E+02 -0.35651774480E+02  0.60875690495E+02  0.85210789542E+02  0.00000000000E+00 0.  1.
        -13    1    3    3    0    0 -0.29298215103E+01 -0.71597500978E+02 -0.37686220812E+01  0.71756452760E+02  0.00000000000E+00 0. -1.
          2    1    6    6  502    0  0.28862672138E+03  0.83548818234E+02 -0.25353799114E+03  0.39315048299E+03  0.00000000000E+00 0. -1.
          1    1    5    5  503    0 -0.39464212306E+03 -0.48466746192E+02  0.50687169867E+02  0.40082492434E+03  0.00000000000E+00 0. -1.
         -2    1    5    5    0  503 -0.25932434635E+02  0.18174659635E+02  0.12839046069E+02  0.34170901699E+02  0.00000000000E+00 0.  1.
         -1    1    6    6    0  502  0.87086655144E+02  0.53992543780E+02 -0.43606539081E+02  0.11135892662E+03  0.00000000000E+00 0.  1.
<mgrwt>
<rscale>  0 0.10821717E+04</rscale>
<asrwt>0</asrwt>
<pdfrwt beam="1">  1        3 0.97921825E-01 0.10821717E+04</pdfrwt>
<pdfrwt beam="2">  1       -3 0.70766249E-01 0.10821717E+04</pdfrwt>
<totfact> 0.45617475E+00</totfact>
</mgrwt>
</event>
<event>
12    1  0.1519630E-007  0.2103519E+04  0.7818608E-02  0.8559695E-01
         -1   -1    0    0    0  501 -0.00000000000E+00  0.00000000000E+00  0.58188825237E+03  0.58188825237E+03  0.00000000000E+00 0.  1.
          1   -1    0    0  501    0  0.00000000000E+00 -0.00000000000E+00 -0.19010490123E+04  0.19010490123E+04  0.00000000000E+00 0. -1.
         23    2    1    2    0    0 -0.76912013972E+02  0.43988384935E+03 -0.14168845770E+04  0.14885092271E+04  0.93190963553E+02 0.  0.
        254    2    1    2    0    0  0.76912013972E+02 -0.43988384935E+03  0.97723817043E+02  0.99442803765E+03  0.88313301310E+03 0.  0.
        -24    2    4    4    0    0  0.33898826388E+03 -0.57158932410E+03 -0.17774847068E+02  0.66954041176E+03  0.79630517536E+02 0.  0.
         24    2    4    4    0    0 -0.26207624990E+03  0.13170547475E+03  0.11549866411E+03  0.32488762588E+03  0.78624011592E+02 0.  0.
         11    1    3    3    0    0 -0.55901119354E+02  0.17456224693E+03 -0.70692028374E+03  0.73029665258E+03  0.00000000000E+00 0. -1.
        -11    1    3    3    0    0 -0.21010894618E+02  0.26532160242E+03 -0.70996429327E+03  0.75821257449E+03  0.00000000000E+00 0.  1.
          4    1    6    6  502    0 -0.23354882258E+03  0.84225304253E+02  0.94788418397E+02  0.26575138507E+03  0.00000000000E+00 0. -1.
          1    1    5    5  503    0  0.27128686506E+03 -0.50925882538E+03 -0.87832641674E+01  0.57707734327E+03  0.00000000000E+00 0. -1.
         -2    1    5    5    0  503  0.67701398820E+02 -0.62330498719E+02 -0.89915829001E+01  0.92463068497E+02  0.00000000000E+00 0.  1.
         -3    1    6    6    0  502 -0.28527427323E+02  0.47480170494E+02  0.20710245713E+02  0.59136240811E+02  0.00000000000E+00 0.  1.
<mgrwt>
<rscale>  0 0.21035190E+04</rscale>
<asrwt>0</asrwt>
<pdfrwt beam="1">  1        1 0.29246908E+00 0.21035190E+04</pdfrwt>
<pdfrwt beam="2">  1       -1 0.89521269E-01 0.21035190E+04</pdfrwt>
<totfact> 0.39082751E+00</totfact>
</mgrwt>
</event>
<event>
12    1  0.1519630E-007  0.1505431E+04  0.7818608E-02  0.8880849E-01
         -2   -1    0    0    0  501 -0.00000000000E+00  0.00000000000E+00  0.45155412778E+03  0.45155412778E+03  0.00000000000E+00 0. -1.
          2   -1    0    0  501    0  0.00000000000E+00 -0.00000000000E+00 -0.12547346804E+04  0.12547346804E+04  0.00000000000E+00 0.  1.
         23    2    1    2    0    0  0.10136120661E+03 -0.29116163668E+03  0.16256382524E+03  0.35973873330E+03  0.89082916864E+02 0.  0.
        254    2    1    2    0    0 -0.10136120661E+03  0.29116163668E+03 -0.96574437782E+03  0.13465500748E+04  0.88627631575E+03 0.  0.
        -24    2    4    4    0    0  0.94729496841E+02 -0.16204778032E+03  0.54001532768E+02  0.21061624185E+03  0.78802760805E+02 0.  0.
         24    2    4    4    0    0 -0.19609070345E+03  0.45320941700E+03 -0.10197459106E+04  0.11359338330E+04  0.81324111584E+02 0.  0.
         13    1    3    3    0    0  0.90607599268E+02 -0.25609006651E+03  0.10449093628E+03  0.29105019322E+03  0.00000000000E+00 0. -1.
        -13    1    3    3    0    0  0.10753607342E+02 -0.35071570170E+02  0.58072888964E+02  0.68688540075E+02  0.00000000000E+00 0.  1.
          2    1    6    6  502    0 -0.10874568790E+03  0.28112811343E+03 -0.70502311051E+03  0.76675695442E+03  0.00000000000E+00 0. -1.
          3    1    5    5  503    0  0.56536999940E+02 -0.15409867839E+03  0.48908217445E+02  0.17127419180E+03  0.00000000000E+00 0. -1.
         -4    1    5    5    0  503  0.38192496901E+02 -0.79491019330E+01  0.50933153228E+01  0.39342050048E+02  0.00000000000E+00 0.  1.
         -1    1    6    6    0  502 -0.87345015547E+02  0.17208130357E+03 -0.31472280008E+03  0.36917687857E+03  0.00000000000E+00 0.  1.
<mgrwt>
<rscale>  0 0.15054310E+04</rscale>
<asrwt>0</asrwt>
<pdfrwt beam="1">  1        2 0.19303610E+00 0.15054310E+04</pdfrwt>
<pdfrwt beam="2">  1       -2 0.69469866E-01 0.15054310E+04</pdfrwt>
<totfact> 0.32081755E+01</totfact>
</mgrwt>
</event>
<event>
12    1  0.1519630E-007  0.1397183E+04  0.7818608E-02  0.8955860E-01
         -1   -1    0    0    0  501 -0.00000000000E+00  0.00000000000E+00  0.20874370424E+03  0.20874370424E+03  0.00000000000E+00 0.  1.
          1   -1    0    0  501    0  0.00000000000E+00 -0.00000000000E+00 -0.23379394022E+04  0.23379394022E+04  0.00000000000E+00 0. -1.
         23    2    1    2    0    0  0.17418233268E+03  0.51951342240E+02 -0.12762230929E+04  0.12924011581E+04  0.92287289040E+02 0.  0.
        254    2    1    2    0    0 -0.17418233268E+03 -0.51951342240E+02 -0.85297260510E+03  0.12542819483E+04  0.90145577480E+03 0.  0.
        -24    2    4    4    0    0 -0.71088614614E+02 -0.43383370065E+03 -0.68391949022E+03  0.81690519024E+03  0.79516977989E+02 0.  0.
         24    2    4    4    0    0 -0.10309371807E+03  0.38188235841E+03 -0.16905311488E+03  0.43737675811E+03  0.79101343283E+02 0.  0.
         13    1    3    3    0    0  0.58699342921E+02  0.22914921345E+02 -0.76064831704E+03  0.76325393461E+03  0.00000000000E+00 0. -1.
        -13    1    3    3    0    0  0.11548298976E+03  0.29036420895E+02 -0.51557477587E+03  0.52914722354E+03  0.00000000000E+00 0.  1.
          4    1    6    6  502    0  0.29275139515E+00  0.13926280625E+01 -0.13406229914E+02  0.13481547271E+02  0.00000000000E+00 0. -1.
          3    1    5    5  503    0 -0.61791215550E+02 -0.14379561821E+03 -0.23347753348E+03  0.28108200365E+03  0.00000000000E+00 0. -1.
         -4    1    5    5    0  503 -0.92973990633E+01 -0.29003808244E+03 -0.45044195674E+03  0.53582318659E+03  0.00000000000E+00 0.  1.
         -3    1    6    6    0  502 -0.10338646947E+03  0.38048973035E+03 -0.15564688497E+03  0.42389521084E+03  0.00000000000E+00 0.  1.
<mgrwt>
<rscale>  0 0.13971831E+04</rscale>
<asrwt>0</asrwt>
<pdfrwt beam="1">  1        1 0.35968299E+00 0.13971831E+04</pdfrwt>
<pdfrwt beam="2">  1       -1 0.32114416E-01 0.13971831E+04</pdfrwt>
<totfact> 0.15506025E+01</totfact>
</mgrwt>
</event>
<event>
12    1  0.1519630E-007  0.1847899E+04  0.7818608E-02  0.8681234E-01
          1   -1    0    0  501    0  0.00000000000E+00  0.00000000000E+00  0.11384326641E+04  0.11384326641E+04  0.00000000000E+00 0. -1.
         -1   -1    0    0    0  501 -0.00000000000E+00 -0.00000000000E+00 -0.74987502409E+03  0.74987502409E+03  0.00000000000E+00 0.  1.
         23    2    1    2    0    0  0.45153720571E+03  0.38842800966E+03 -0.22876329373E+03  0.64438287966E+03  0.90191375457E+02 0.  0.
        254    2    1    2    0    0 -0.45153720571E+03 -0.38842800966E+03  0.61732093372E+03  0.12439248085E+04  0.90083385104E+03 0.  0.
        -24    2    4    4    0    0 -0.43682042411E+03  0.16333411364E+03  0.47084045841E+03  0.66733400323E+03  0.78446281015E+02 0.  0.
         24    2    4    4    0    0 -0.14716781609E+02 -0.55176212330E+03  0.14648047532E+03  0.57659080527E+03  0.79639203333E+02 0.  0.
         13    1    3    3    0    0  0.42278091246E+02  0.77881349580E+02 -0.36574674728E+02  0.95867869713E+02  0.00000000000E+00 0. -1.
        -13    1    3    3    0    0  0.40925911447E+03  0.31054666008E+03 -0.19218861900E+03  0.54851500995E+03  0.00000000000E+00 0.  1.
          4    1    6    6  502    0 -0.40805503170E+02 -0.25903964617E+03  0.47598915433E+02  0.26651882509E+03  0.00000000000E+00 0. -1.
          3    1    5    5  503    0 -0.56420036300E+02  0.29055924694E+02  0.10532035155E+03  0.12296277366E+03  0.00000000000E+00 0. -1.
         -2    1    5    5    0  503 -0.38040038781E+03  0.13427818895E+03  0.36552010686E+03  0.54437122957E+03  0.00000000000E+00 0.  1.
         -3    1    6    6    0  502  0.26088721562E+02 -0.29272247713E+03  0.98881559885E+02  0.31007198018E+03  0.00000000000E+00 0.  1.
<mgrwt>
<rscale>  0 0.18478985E+04</rscale>
<asrwt>0</asrwt>
<pdfrwt beam="1">  1        1 0.17514349E+00 0.18478985E+04</pdfrwt>
<pdfrwt beam="2">  1       -1 0.11536539E+00 0.18478985E+04</pdfrwt>
<totfact> 0.75964543E+00</totfact>
</mgrwt>
</event>
<event>
12    1  0.1519630E-007  0.1612678E+04  0.7818608E-02  0.8812797E-01
         -1   -1    0    0    0  501 -0.00000000000E+00  0.00000000000E+00  0.74181788005E+03  0.74181788005E+03  0.00000000000E+00 0.  1.
          1   -1    0    0  501    0  0.00000000000E+00 -0.00000000000E+00 -0.87647220329E+03  0.87647220329E+03  0.00000000000E+00 0. -1.
         23    2    1    2    0    0  0.31198907135E+03  0.22972915496E+03  0.34438801586E+03  0.52653135664E+03  0.92301130981E+02 0.  0.
        254    2    1    2    0    0 -0.31198907135E+03 -0.22972915496E+03 -0.47904233910E+03  0.10917587267E+04  0.90130066536E+03 0.  0.
        -24    2    4    4    0    0 -0.96109058735E+02 -0.42738924484E+03  0.83191857095E+02  0.45295104473E+03  0.79657052778E+02 0.  0.
         24    2    4    4    0    0 -0.21588001261E+03  0.19766008988E+03 -0.56223419619E+03  0.63880768197E+03  0.79336449315E+02 0.  0.
         11    1    3    3    0    0 -0.14193158799E+01  0.22441411540E+02  0.17678310949E+02  0.28603392937E+02  0.00000000000E+00 0. -1.
        -11    1    3    3    0    0  0.31340838723E+03  0.20728774342E+03  0.32670970491E+03  0.49792796370E+03  0.00000000000E+00 0.  1.
          4    1    6    6  502    0 -0.87254885216E+02  0.80590675517E+02 -0.31393684066E+03  0.33565549586E+03  0.00000000000E+00 0. -1.
          1    1    5    5  503    0 -0.56950966483E+02 -0.14853619709E+03  0.61407409774E+02  0.17052062751E+03  0.00000000000E+00 0. -1.
         -2    1    5    5    0  503 -0.39158092253E+02 -0.27885304775E+03  0.21784447321E+02  0.28243041722E+03  0.00000000000E+00 0.  1.
         -3    1    6    6    0  502 -0.12862512740E+03  0.11706941437E+03 -0.24829735553E+03  0.30315218611E+03  0.00000000000E+00 0.  1.
<mgrwt>
<rscale>  0 0.16126782E+04</rscale>
<asrwt>0</asrwt>
<pdfrwt beam="1">  1        1 0.13484188E+00 0.16126782E+04</pdfrwt>
<pdfrwt beam="2">  1       -1 0.11412583E+00 0.16126782E+04</pdfrwt>
<totfact> 0.12755378E+01</totfact>
</mgrwt>
</event>
<event>
12    1  0.1519630E-007  0.1287938E+04  0.7818608E-02  0.9039186E-01
          1   -1    0    0  501    0  0.00000000000E+00  0.00000000000E+00  0.67029109174E+03  0.67029109174E+03  0.00000000000E+00 0. -1.
         -1   -1    0    0    0  501 -0.00000000000E+00 -0.00000000000E+00 -0.61868022244E+03  0.61868022244E+03  0.00000000000E+00 0.  1.
         23    2    1    2    0    0  0.25123153846E+03  0.97887207101E+02 -0.15496207476E+03  0.32427614831E+03  0.91883537792E+02 0.  0.
        254    2    1    2    0    0 -0.25123153846E+03 -0.97887207101E+02  0.20657294405E+03  0.96469516587E+03  0.90292036781E+03 0.  0.
        -24    2    4    4    0    0  0.32300086587E+03  0.66557501262E+02  0.86092775801E+02  0.35014485676E+03  0.80187245540E+02 0.  0.
         24    2    4    4    0    0 -0.57423240433E+03 -0.16444470836E+03  0.12048016825E+03  0.61455030911E+03  0.79822898945E+02 0.  0.
         11    1    3    3    0    0  0.22116737990E+03  0.83741525205E+02 -0.93294522909E+02  0.25422730180E+03  0.00000000000E+00 0.  1.
        -11    1    3    3    0    0  0.30064158560E+02  0.14145681896E+02 -0.61667551846E+02  0.70048846507E+02  0.00000000000E+00 0. -1.
          2    1    6    6  502    0 -0.25724320099E+03 -0.35039255071E+02  0.65783750127E+02  0.26782329181E+03  0.00000000000E+00 0. -1.
          1    1    5    5  503    0  0.30061041119E+03  0.82366260822E+02  0.83067887464E+02  0.32256951834E+03  0.00000000000E+00 0. -1.
         -2    1    5    5    0  503  0.22390454682E+02 -0.15808759559E+02  0.30248883365E+01  0.27575338423E+02  0.00000000000E+00 0.  1.
         -1    1    6    6    0  502 -0.31698920334E+03 -0.12940545329E+03  0.54696418122E+02  0.34672701730E+03  0.00000000000E+00 0.  1.
<mgrwt>
<rscale>  0 0.12879376E+04</rscale>
<asrwt>0</asrwt>
<pdfrwt beam="1">  1        1 0.10312171E+00 0.12879376E+04</pdfrwt>
<pdfrwt beam="2">  1       -1 0.95181573E-01 0.12879376E+04</pdfrwt>
<totfact> 0.30516444E+01</totfact>
</mgrwt>
</event>
<event>
12    1  0.1519630E-007  0.2663898E+04  0.7818608E-02  0.8346815E-01
          1   -1    0    0  501    0  0.00000000000E+00  0.00000000000E+00  0.24435244896E+04  0.24435244896E+04  0.00000000000E+00 0. -1.
         -1   -1    0    0    0  501 -0.00000000000E+00 -0.00000000000E+00 -0.72603631202E+03  0.72603631202E+03  0.00000000000E+00 0.  1.
         23    2    1    2    0    0 -0.24189000673E+03  0.13930667406E+03 -0.60024704226E+03  0.66835168191E+03  0.92088729963E+02 0.  0.
        254    2    1    2    0    0  0.24189000673E+03 -0.13930667406E+03  0.23177352198E+04  0.25012091197E+04  0.89790499856E+03 0.  0.
        -24    2    4    4    0    0 -0.14271424455E+03 -0.26217190560E+03  0.26465420796E+03  0.40723528859E+03  0.81836830380E+02 0.  0.
         24    2    4    4    0    0  0.38460425128E+03  0.12286523154E+03  0.20530810118E+04  0.20939738311E+04  0.81046090698E+02 0.  0.
         11    1    3    3    0    0 -0.24346801730E+03  0.13501023784E+03 -0.53641211971E+03  0.60435287866E+03  0.00000000000E+00 0.  1.
        -11    1    3    3    0    0  0.15780105752E+01  0.42964362189E+01 -0.63834922542E+02  0.63998803250E+02  0.00000000000E+00 0. -1.
          4    1    6    6  502    0  0.11172454142E+02  0.89899463001E+00  0.17147147508E+02  0.20485521487E+02  0.00000000000E+00 0. -1.
          1    1    5    5  503    0 -0.45325908035E+02 -0.13204521859E+03  0.78706572416E+02  0.16026572382E+03  0.00000000000E+00 0. -1.
         -2    1    5    5    0  503 -0.97388336516E+02 -0.13012668701E+03  0.18594763554E+03  0.24696956477E+03  0.00000000000E+00 0.  1.
         -3    1    6    6    0  502  0.37343179714E+03  0.12196623691E+03  0.20359338643E+04  0.20734883096E+04  0.00000000000E+00 0.  1.
<mgrwt>
<rscale>  0 0.26638975E+04</rscale>
<asrwt>0</asrwt>
<pdfrwt beam="1">  1        1 0.37592684E+00 0.26638975E+04</pdfrwt>
<pdfrwt beam="2">  1       -1 0.11169790E+00 0.26638975E+04</pdfrwt>
<totfact> 0.95518623E-01</totfact>
</mgrwt>
</event>
<event>
12    1  0.1519630E-007  0.2588516E+04  0.7818608E-02  0.8372112E-01
          1   -1    0    0  501    0  0.00000000000E+00  0.00000000000E+00  0.18129901673E+04  0.18129901673E+04  0.00000000000E+00 0. -1.
         -1   -1    0    0    0  501 -0.00000000000E+00 -0.00000000000E+00 -0.92394563133E+03  0.92394563133E+03  0.00000000000E+00 0.  1.
         23    2    1    2    0    0 -0.48506302331E+03 -0.55668894679E+03 -0.52199235598E+03  0.90895266853E+03  0.92359156891E+02 0.  0.
        254    2    1    2    0    0  0.48506302331E+03  0.55668894679E+03  0.14110368920E+04  0.18279831301E+04  0.89738982246E+03 0.  0.
        -24    2    4    4    0    0  0.18584118855E+03  0.65841109676E+03  0.13210527690E+04  0.14896792212E+04  0.76952219859E+02 0.  0.
         24    2    4    4    0    0  0.29922183476E+03 -0.10172214997E+03  0.89984123037E+02  0.33830390890E+03  0.80444329742E+02 0.  0.
         11    1    3    3    0    0 -0.96023183554E+01  0.21432615881E+01 -0.11357516930E+02  0.15026352812E+02  0.00000000000E+00 0. -1.
        -11    1    3    3    0    0 -0.47546070495E+03 -0.55883220838E+03 -0.51063483905E+03  0.89392631572E+03  0.00000000000E+00 0.  1.
          4    1    6    6  502    0  0.48450279075E+00  0.76747006971E+01  0.18061026941E-01  0.76899999964E+01  0.00000000000E+00 0. -1.
          3    1    5    5  503    0  0.86942942214E+02  0.40712136968E+03  0.85719766720E+03  0.95294004297E+03  0.00000000000E+00 0. -1.
         -4    1    5    5    0  503  0.98898246335E+02  0.25128972708E+03  0.46385510175E+03  0.53673917827E+03  0.00000000000E+00 0.  1.
         -3    1    6    6    0  502  0.29873733197E+03 -0.10939685066E+03  0.89966062010E+02  0.33061390890E+03  0.00000000000E+00 0.  1.
<mgrwt>
<rscale>  0 0.25885164E+04</rscale>
<asrwt>0</asrwt>
<pdfrwt beam="1">  1        1 0.27892156E+00 0.25885164E+04</pdfrwt>
<pdfrwt beam="2">  1       -1 0.14214548E+00 0.25885164E+04</pdfrwt>
<totfact> 0.14173233E+00</totfact>
</mgrwt>
</event>
<event>
12    1  0.1519630E-007  0.1550587E+04  0.7818608E-02  0.8851493E-01
          1   -1    0    0  501    0  0.00000000000E+00  0.00000000000E+00  0.98690432969E+03  0.98690432969E+03  0.00000000000E+00 0. -1.
         -1   -1    0    0    0  501 -0.00000000000E+00 -0.00000000000E+00 -0.60905566535E+03  0.60905566535E+03  0.00000000000E+00 0.  1.
         23    2    1    2    0    0 -0.50270304941E+03  0.36488764961E+02  0.78093146347E+01  0.51069857810E+03  0.81916215909E+02 0.  0.
        254    2    1    2    0    0  0.50270304941E+03 -0.36488764961E+02  0.37003934971E+03  0.10852614169E+04  0.88702955808E+03 0.  0.
        -24    2    4    4    0    0 -0.67079222757E+01 -0.14927839389E+03  0.51190574408E+03  0.53905413749E+03  0.78758093101E+02 0.  0.
         24    2    4    4    0    0  0.50941097168E+03  0.11278962893E+03 -0.14186639437E+03  0.54620727944E+03  0.77429192189E+02 0.  0.
         13    1    3    3    0    0 -0.49418476351E+03  0.23095322542E+02  0.64293726959E+01  0.49476591561E+03  0.00000000000E+00 0.  1.
        -13    1    3    3    0    0 -0.85182858906E+01  0.13393442420E+02  0.13799419388E+01  0.15932662493E+02  0.00000000000E+00 0. -1.
          2    1    6    6  502    0  0.19942924314E+03  0.84175594048E+01 -0.39464289493E+02  0.20347065752E+03  0.00000000000E+00 0. -1.
          3    1    5    5  503    0 -0.41768142944E+02 -0.96824316394E+02  0.33730664093E+03  0.35340528580E+03  0.00000000000E+00 0. -1.
         -4    1    5    5    0  503  0.35060220669E+02 -0.52454077493E+02  0.17459910314E+03  0.18564885170E+03  0.00000000000E+00 0.  1.
         -1    1    6    6    0  502  0.30998172854E+03  0.10437206952E+03 -0.10240210487E+03  0.34273662192E+03  0.00000000000E+00 0.  1.
<mgrwt>
<rscale>  0 0.15505866E+04</rscale>
<asrwt>0</asrwt>
<pdfrwt beam="1">  1        1 0.15183144E+00 0.15505866E+04</pdfrwt>
<pdfrwt beam="2">  1       -1 0.93700871E-01 0.15505866E+04</pdfrwt>
<totfact> 0.16488392E+01</totfact>
</mgrwt>
</event>
<event>
12    1  0.1519630E-007  0.9857878E+03  0.7818608E-02  0.9324271E-01
          1   -1    0    0  501    0  0.00000000000E+00  0.00000000000E+00  0.29556170552E+04  0.29556170552E+04  0.00000000000E+00 0. -1.
         -1   -1    0    0    0  501 -0.00000000000E+00 -0.00000000000E+00 -0.82197520771E+02  0.82197520771E+02  0.00000000000E+00 0.  1.
         23    2    1    2    0    0 -0.54935139631E+02  0.54484735501E+01  0.69327771136E+03  0.70071366904E+03  0.85545926177E+02 0.  0.
        254    2    1    2    0    0  0.54935139631E+02 -0.54484735501E+01  0.21801418231E+04  0.23371009070E+04  0.84022302102E+03 0.  0.
        -24    2    4    4    0    0  0.33144741490E+03 -0.13566759821E+03  0.18277667645E+04  0.18641591318E+04  0.78069439242E+02 0.  0.
         24    2    4    4    0    0 -0.27651227527E+03  0.13021912466E+03  0.35237505862E+03  0.47294177514E+03  0.78036414156E+02 0.  0.
         11    1    3    3    0    0 -0.23860369567E+02  0.19614555017E+02  0.60895206641E+03  0.60973491551E+03  0.00000000000E+00 0. -1.
        -11    1    3    3    0    0 -0.31074770064E+02 -0.14166081467E+02  0.84325644950E+02  0.90978753535E+02  0.00000000000E+00 0.  1.
          2    1    6    6  502    0 -0.20104865623E+03  0.11082506157E+03  0.21247260717E+03  0.31280563492E+03  0.00000000000E+00 0. -1.
          1    1    5    5  503    0  0.21461635527E+03 -0.11558728505E+03  0.13553418100E+04  0.13770882406E+04  0.00000000000E+00 0. -1.
         -2    1    5    5    0  503  0.11683105963E+03 -0.20080313156E+02  0.47242495447E+03  0.48707089123E+03  0.00000000000E+00 0.  1.
         -1    1    6    6    0  502 -0.75463619046E+02  0.19394063090E+02  0.13990245145E+03  0.16013614022E+03  0.00000000000E+00 0.  1.
<mgrwt>
<rscale>  0 0.98578780E+03</rscale>
<asrwt>0</asrwt>
<pdfrwt beam="1">  1        1 0.45471023E+00 0.98578780E+03</pdfrwt>
<pdfrwt beam="2">  1       -1 0.12645775E-01 0.98578780E+03</pdfrwt>
<totfact> 0.28676948E+01</totfact>
</mgrwt>
</event>
<event>
12    1  0.1519630E-007  0.1240857E+04  0.7818608E-02  0.9077827E-01
          2   -1    0    0  501    0  0.00000000000E+00  0.00000000000E+00  0.12708953587E+04  0.12708953587E+04  0.00000000000E+00 0. -1.
         -2   -1    0    0    0  501 -0.00000000000E+00 -0.00000000000E+00 -0.30288239613E+03  0.30288239613E+03  0.00000000000E+00 0.  1.
         23    2    1    2    0    0  0.27589096311E+03  0.71770398076E+02  0.26517152942E+03  0.39911776313E+03  0.87819333091E+02 0.  0.
        254    2    1    2    0    0 -0.27589096311E+03 -0.71770398076E+02  0.70284143310E+03  0.11746599917E+04  0.89698004567E+03 0.  0.
        -24    2    4    4    0    0 -0.20688379469E+03  0.22953190593E+03  0.78328019046E+03  0.84537774167E+03  0.75165610458E+02 0.  0.
         24    2    4    4    0    0 -0.69007168422E+02 -0.30130230401E+03 -0.80438757360E+02  0.32928224998E+03  0.80070835943E+02 0.  0.
         11    1    3    3    0    0  0.18022404709E+03  0.82672659807E+02  0.14780597507E+03  0.24730968864E+03  0.00000000000E+00 0.  1.
        -11    1    3    3    0    0  0.95666916018E+02 -0.10902261731E+02  0.11736555436E+03  0.15180807449E+03  0.00000000000E+00 0. -1.
          2    1    6    6  502    0  0.87305206650E+01 -0.43676345764E+01  0.45804348777E+01  0.10783255842E+02  0.00000000000E+00 0. -1.
          1    1    5    5  503    0 -0.15113793845E+02  0.48318779226E+02  0.85285635692E+02  0.99180496296E+02  0.00000000000E+00 0. -1.
         -2    1    5    5    0  503 -0.19177000084E+03  0.18121312671E+03  0.69799455477E+03  0.74619724538E+03  0.00000000000E+00 0.  1.
         -1    1    6    6    0  502 -0.77737689087E+02 -0.29693466943E+03 -0.85019192238E+02  0.31849899414E+03  0.00000000000E+00 0.  1.
<mgrwt>
<rscale>  0 0.12408575E+04</rscale>
<asrwt>0</asrwt>
<pdfrwt beam="1">  1        2 0.19552236E+00 0.12408575E+04</pdfrwt>
<pdfrwt beam="2">  1       -2 0.46597292E-01 0.12408575E+04</pdfrwt>
<totfact> 0.73846690E+01</totfact>
</mgrwt>
</event>
<event>
12    1  0.1519630E-007  0.1342385E+04  0.7818608E-02  0.8996613E-01
          3   -1    0    0  501    0  0.00000000000E+00  0.00000000000E+00  0.90316878684E+03  0.90316878684E+03  0.00000000000E+00 0. -1.
         -3   -1    0    0    0  501 -0.00000000000E+00 -0.00000000000E+00 -0.49879848461E+03  0.49879848461E+03  0.00000000000E+00 0.  1.
         23    2    1    2    0    0  0.26366098346E+03 -0.15378000980E+03  0.29813795036E+03  0.43632988534E+03  0.91280478656E+02 0.  0.
        254    2    1    2    0    0 -0.26366098346E+03  0.15378000980E+03  0.10623235187E+03  0.96563738611E+03  0.90994771457E+03 0.  0.
        -24    2    4    4    0    0 -0.28662255695E+03 -0.17449579651E+03  0.39217379042E+03  0.52220834133E+03  0.79372518580E+02 0.  0.
         24    2    4    4    0    0  0.22961573488E+02  0.32827580632E+03 -0.28594143855E+03  0.44342904478E+03  0.81083738255E+02 0.  0.
         13    1    3    3    0    0  0.16150071517E+03 -0.10239271123E+03  0.12369114774E+03  0.22774162628E+03  0.00000000000E+00 0.  1.
        -13    1    3    3    0    0  0.10216026829E+03 -0.51387298567E+02  0.17444680263E+03  0.20858825906E+03  0.00000000000E+00 0. -1.
          2    1    6    6  502    0 -0.91160387745E+01  0.21719702171E+03 -0.14581749056E+03  0.26176399476E+03  0.00000000000E+00 0. -1.
          1    1    5    5  503    0 -0.28343286156E+03 -0.17535504759E+03  0.36281579901E+03  0.49266508273E+03  0.00000000000E+00 0. -1.
         -2    1    5    5    0  503 -0.31896953878E+01  0.85925107202E+00  0.29357991411E+02  0.29543258601E+02  0.00000000000E+00 0.  1.
         -1    1    6    6    0  502  0.32077612262E+02  0.11107878461E+03 -0.14012394799E+03  0.18166505002E+03  0.00000000000E+00 0.  1.
<mgrwt>
<rscale>  0 0.13423848E+04</rscale>
<asrwt>0</asrwt>
<pdfrwt beam="1">  1        3 0.13894904E+00 0.13423848E+04</pdfrwt>
<pdfrwt beam="2">  1       -3 0.76738229E-01 0.13423848E+04</pdfrwt>
<totfact> 0.16082419E+00</totfact>
</mgrwt>
</event>
<event>
12    1  0.1519630E-007  0.1922859E+04  0.7818608E-02  0.8643561E-01
         -2   -1    0    0    0  501 -0.00000000000E+00  0.00000000000E+00  0.34997778244E+03  0.34997778244E+03  0.00000000000E+00 0.  1.
          2   -1    0    0  501    0  0.00000000000E+00 -0.00000000000E+00 -0.26411586589E+04  0.26411586589E+04  0.00000000000E+00 0. -1.
         23    2    1    2    0    0  0.24290381357E+03  0.58321429668E+03 -0.14919786980E+04  0.16228078626E+04  0.91453513758E+02 0.  0.
        254    2    1    2    0    0 -0.24290381357E+03 -0.58321429668E+03 -0.79920217838E+03  0.13683285787E+04  0.91348661662E+03 0.  0.
        -24    2    4    4    0    0 -0.23217826466E+03  0.17069803529E+03 -0.52539815942E+02  0.30397110198E+03  0.81199955351E+02 0.  0.
         24    2    4    4    0    0 -0.10725548916E+02 -0.75391233197E+03 -0.74666236244E+03  0.10643574767E+04  0.82784738838E+02 0.  0.
         13    1    3    3    0    0  0.80565708850E+02  0.24739978394E+03 -0.71675661389E+03  0.76252051126E+03  0.00000000000E+00 0. -1.
        -13    1    3    3    0    0  0.16233810472E+03  0.33581451274E+03 -0.77522208414E+03  0.86028735138E+03  0.00000000000E+00 0.  1.
          2    1    6    6  502    0 -0.20657261905E+02 -0.57492229738E+03 -0.61355681718E+03  0.84107926999E+03  0.00000000000E+00 0. -1.
          1    1    5    5  503    0 -0.20034068932E+03  0.17628270674E+03 -0.50426831257E+02  0.27157844135E+03  0.00000000000E+00 0. -1.
         -2    1    5    5    0  503 -0.31837575338E+02 -0.55846714541E+01 -0.21129846846E+01  0.32392660634E+02  0.00000000000E+00 0.  1.
         -1    1    6    6    0  502  0.99317129889E+01 -0.17899003459E+03 -0.13310554526E+03  0.22327820669E+03  0.00000000000E+00 0.  1.
<mgrwt>
<rscale>  0 0.19228592E+04</rscale>
<asrwt>0</asrwt>
<pdfrwt beam="1">  1        2 0.40633210E+00 0.19228592E+04</pdfrwt>
<pdfrwt beam="2">  1       -2 0.53842736E-01 0.19228592E+04</pdfrwt>
<totfact> 0.87529844E+00</totfact>
</mgrwt>
</event>
<event>
12    1  0.1519630E-007  0.2364575E+04  0.7818608E-02  0.8452887E-01
         -1   -1    0    0    0  501 -0.00000000000E+00  0.00000000000E+00  0.48783125318E+03  0.48783125318E+03  0.00000000000E+00 0.  1.
          1   -1    0    0  501    0  0.00000000000E+00 -0.00000000000E+00 -0.28653418488E+04  0.28653418488E+04  0.00000000000E+00 0. -1.
         23    2    1    2    0    0  0.74516753048E+03 -0.39202566469E+02 -0.19457883186E+04  0.20858610180E+04  0.88952323339E+02 0.  0.
        254    2    1    2    0    0 -0.74516753048E+03  0.39202566469E+02 -0.43172227697E+03  0.12673120839E+04  0.92891566032E+03 0.  0.
        -24    2    4    4    0    0  0.63645516471E+02 -0.89906897819E+02 -0.42275771953E+03  0.44445734252E+03  0.81757188416E+02 0.  0.
         24    2    4    4    0    0 -0.80881304695E+03  0.12910946429E+03 -0.89645574421E+01  0.82285474143E+03  0.78496901311E+02 0.  0.
         11    1    3    3    0    0  0.21783424258E+03  0.85979133887E+01 -0.66934128993E+03  0.70394846669E+03  0.00000000000E+00 0.  1.
        -11    1    3    3    0    0  0.52733328790E+03 -0.47800479858E+02 -0.12764470287E+04  0.13819125513E+04  0.00000000000E+00 0. -1.
          2    1    6    6  502    0 -0.56418816427E+02  0.11694324058E+02 -0.20812758477E+02  0.61261823166E+02  0.00000000000E+00 0. -1.
          3    1    5    5  503    0  0.59905655397E+02 -0.77687548974E+02 -0.21519292669E+03  0.23649955288E+03  0.00000000000E+00 0. -1.
         -4    1    5    5    0  503  0.37398610743E+01 -0.12219348845E+02 -0.20756479284E+03  0.20795778965E+03  0.00000000000E+00 0.  1.
         -1    1    6    6    0  502 -0.75239423052E+03  0.11741514023E+03  0.11848201035E+02  0.76159291826E+03  0.00000000000E+00 0.  1.
<mgrwt>
<rscale>  0 0.23645746E+04</rscale>
<asrwt>0</asrwt>
<pdfrwt beam="1">  1        1 0.44082182E+00 0.23645746E+04</pdfrwt>
<pdfrwt beam="2">  1       -1 0.75050962E-01 0.23645746E+04</pdfrwt>
<totfact> 0.12010000E+00</totfact>
</mgrwt>
</event>
<event>
12    1  0.1681759E-007  0.1919451E+04  0.7818608E-02  0.8645234E-01
         -1   -1    0    0    0  501 -0.00000000000E+00  0.00000000000E+00  0.32346013068E+03  0.32346013068E+03  0.00000000000E+00 0.  1.
          1   -1    0    0  501    0  0.00000000000E+00 -0.00000000000E+00 -0.28475631178E+04  0.28475631178E+04  0.00000000000E+00 0. -1.
         23    2    1    2    0    0  0.14791602336E+02 -0.40410834697E+02 -0.22182281177E+04  0.22205497090E+04  0.91941290708E+02 0.  0.
        254    2    1    2    0    0 -0.14791602336E+02  0.40410834697E+02 -0.30587486942E+03  0.95047353948E+03  0.89888190907E+03 0.  0.
        -24    2    4    4    0    0 -0.17645481748E+03 -0.14317104447E+03 -0.54596577893E+03  0.59723811319E+03  0.83549275889E+02 0.  0.
         24    2    4    4    0    0  0.16166321515E+03  0.18358187916E+03  0.24009090950E+03  0.35323542629E+03  0.85406791712E+02 0.  0.
         13    1    3    3    0    0 -0.12362610123E+02  0.31609666907E+01 -0.46619607185E+02  0.48334393692E+02  0.00000000000E+00 0.  1.
        -13    1    3    3    0    0  0.27154212459E+02 -0.43571801388E+02 -0.21716085105E+04  0.21722153153E+04  0.00000000000E+00 0. -1.
          2    1    6    6  502    0  0.17106535502E+03  0.17074160436E+03  0.21477724039E+03  0.32333467822E+03  0.00000000000E+00 0. -1.
          1    1    5    5  503    0 -0.15645316956E+03 -0.79828171172E+02 -0.40076595884E+03  0.43756540647E+03  0.00000000000E+00 0. -1.
         -2    1    5    5    0  503 -0.20001647924E+02 -0.63342873295E+02 -0.14519982009E+03  0.15967270672E+03  0.00000000000E+00 0.  1.
         -1    1    6    6    0  502 -0.94021398756E+01  0.12840274806E+02  0.25313669113E+02  0.29900748073E+02  0.00000000000E+00 0.  1.
<mgrwt>
<rscale>  0 0.19194511E+04</rscale>
<asrwt>0</asrwt>
<pdfrwt beam="1">  1        1 0.43808664E+00 0.19194511E+04</pdfrwt>
<pdfrwt beam="2">  1       -1 0.49763096E-01 0.19194511E+04</pdfrwt>
<totfact> 0.29204578E+00</totfact>
</mgrwt>
</event>
<event>
12    1  0.1519630E-007  0.2344495E+04  0.7818608E-02  0.8460581E-01
          2   -1    0    0  501    0  0.00000000000E+00  0.00000000000E+00  0.20118510195E+04  0.20118510195E+04  0.00000000000E+00 0. -1.
         -2   -1    0    0    0  501 -0.00000000000E+00 -0.00000000000E+00 -0.68303473255E+03  0.68303473255E+03  0.00000000000E+00 0.  1.
         23    2    1    2    0    0  0.72678020861E+03  0.62370134324E+03  0.86432099653E+03  0.12947959640E+04  0.11060273979E+03 0.  0.
        254    2    1    2    0    0 -0.72678020861E+03 -0.62370134324E+03  0.46449529042E+03  0.14000897881E+04  0.90955082471E+03 0.  0.
        -24    2    4    4    0    0 -0.90149762134E+03 -0.62137259504E+03  0.49739087499E+03  0.12052453488E+04  0.80104962626E+02 0.  0.
         24    2    4    4    0    0  0.17471741273E+03 -0.23287481946E+01 -0.32895584563E+02  0.19484443934E+03  0.79690894558E+02 0.  0.
         11    1    3    3    0    0  0.22097085424E+03  0.22480893389E+03  0.34530786068E+03  0.46755180872E+03  0.00000000000E+00 0. -1.
        -11    1    3    3    0    0  0.50580935437E+03  0.39889240934E+03  0.51901313585E+03  0.82724415524E+03  0.00000000000E+00 0.  1.
          4    1    6    6  502    0  0.76773940865E+02 -0.27847635607E+02 -0.44437112478E+02  0.92975189003E+02  0.00000000000E+00 0. -1.
          3    1    5    5  503    0 -0.85651783935E+03 -0.57147599935E+03  0.47879986907E+03  0.11355425759E+04  0.00000000000E+00 0. -1.
         -4    1    5    5    0  503 -0.44979781991E+02 -0.49896595696E+02  0.18591005913E+02  0.69702772906E+02  0.00000000000E+00 0.  1.
         -3    1    6    6    0  502  0.97943471870E+02  0.25518887413E+02  0.11541527915E+02  0.10186925033E+03  0.00000000000E+00 0.  1.
<mgrwt>
<rscale>  0 0.23444949E+04</rscale>
<asrwt>0</asrwt>
<pdfrwt beam="1">  1        2 0.30951554E+00 0.23444949E+04</pdfrwt>
<pdfrwt beam="2">  1       -2 0.10508227E+00 0.23444949E+04</pdfrwt>
<totfact> 0.43611104E+00</totfact>
</mgrwt>
</event>
<event>
12    1  0.1519630E-007  0.2447872E+04  0.7818608E-02  0.8421795E-01
          1   -1    0    0  501    0  0.00000000000E+00  0.00000000000E+00  0.20769237735E+04  0.20769237735E+04  0.00000000000E+00 0. -1.
         -1   -1    0    0    0  501 -0.00000000000E+00 -0.00000000000E+00 -0.72126833639E+03  0.72126833639E+03  0.00000000000E+00 0.  1.
         23    2    1    2    0    0  0.52793965641E+03 -0.16354153571E+03  0.16216786731E+04  0.17157873744E+04  0.92835772187E+02 0.  0.
        254    2    1    2    0    0 -0.52793965641E+03  0.16354153571E+03 -0.26602323607E+03  0.10824047354E+04  0.89183268299E+03 0.  0.
        -24    2    4    4    0    0  0.13650102314E+02  0.17419967511E+03 -0.46112271498E+03  0.50117108939E+03  0.89478771040E+02 0.  0.
         24    2    4    4    0    0 -0.54158975873E+03 -0.10658139395E+02  0.19509947891E+03  0.58123364605E+03  0.79596997001E+02 0.  0.
         13    1    3    3    0    0  0.21995268010E+03 -0.10919631924E+03  0.78803999623E+03  0.82541507939E+03  0.00000000000E+00 0.  1.
        -13    1    3    3    0    0  0.30798697631E+03 -0.54345216479E+02  0.83363867691E+03  0.89037229504E+03  0.00000000000E+00 0. -1.
          2    1    6    6  502    0 -0.29794489641E+02 -0.19537321641E+02  0.11823173886E+02  0.37539392518E+02  0.00000000000E+00 0. -1.
          1    1    5    5  503    0 -0.22837696389E+02  0.89716165035E+02 -0.14592502485E+03  0.17281395638E+03  0.00000000000E+00 0. -1.
         -2    1    5    5    0  503  0.36487798703E+02  0.84483510074E+02 -0.31519769014E+03  0.32835713300E+03  0.00000000000E+00 0.  1.
         -1    1    6    6    0  502 -0.51179526909E+03  0.88791822465E+01  0.18327630503E+03  0.54369425353E+03  0.00000000000E+00 0.  1.
<mgrwt>
<rscale>  0 0.24478720E+04</rscale>
<asrwt>0</asrwt>
<pdfrwt beam="1">  1        1 0.31952673E+00 0.24478720E+04</pdfrwt>
<pdfrwt beam="2">  1       -1 0.11096436E+00 0.24478720E+04</pdfrwt>
<totfact> 0.17622906E+00</totfact>
</mgrwt>
</event>
<event>
12    1  0.1519630E-007  0.1570763E+04  0.7818608E-02  0.8838713E-01
         -1   -1    0    0    0  501 -0.00000000000E+00  0.00000000000E+00  0.19386413169E+03  0.19386413169E+03  0.00000000000E+00 0.  1.
          1   -1    0    0  501    0  0.00000000000E+00 -0.00000000000E+00 -0.31817349387E+04  0.31817349387E+04  0.00000000000E+00 0. -1.
         23    2    1    2    0    0 -0.44130502046E+03  0.20377855116E+03 -0.12719118029E+04  0.13648120388E+04  0.93147453355E+02 0.  0.
        254    2    1    2    0    0  0.44130502046E+03 -0.20377855116E+03 -0.17159590041E+04  0.20107870316E+04  0.92869444029E+03 0.  0.
        -24    2    4    4    0    0  0.70434321221E+03 -0.34730363181E+02 -0.10085844487E+04  0.12332218992E+04  0.79297565766E+02 0.  0.
         24    2    4    4    0    0 -0.26303819176E+03 -0.16904818798E+03 -0.70737455549E+03  0.77756513234E+03  0.80389011071E+02 0.  0.
         13    1    3    3    0    0 -0.21028851515E+03  0.74954737421E+02 -0.46836209776E+03  0.51884730594E+03  0.00000000000E+00 0.  1.
        -13    1    3    3    0    0 -0.23101650531E+03  0.12882381374E+03 -0.80354970510E+03  0.84596473288E+03  0.00000000000E+00 0. -1.
          4    1    6    6  502    0 -0.37898975971E+02 -0.29971077953E+02 -0.53064999162E+02  0.71766928521E+02  0.00000000000E+00 0. -1.
          1    1    5    5  503    0  0.16028945288E+03 -0.38484093757E+02 -0.21141733346E+03  0.26808771525E+03  0.00000000000E+00 0. -1.
         -2    1    5    5    0  503  0.54405375933E+03  0.37537305759E+01 -0.79716711520E+03  0.96513418398E+03  0.00000000000E+00 0.  1.
         -1    1    6    6    0  502 -0.22513921579E+03 -0.13907711003E+03 -0.65430955633E+03  0.70579820382E+03  0.00000000000E+00 0.  1.
<mgrwt>
<rscale>  0 0.15707632E+04</rscale>
<asrwt>0</asrwt>
<pdfrwt beam="1">  1        1 0.48949762E+00 0.15707632E+04</pdfrwt>
<pdfrwt beam="2">  1       -1 0.29825255E-01 0.15707632E+04</pdfrwt>
<totfact> 0.43799392E+00</totfact>
</mgrwt>
</event>
<event>
12    1  0.1519630E-007  0.1813490E+04  0.7818608E-02  0.8699158E-01
          2   -1    0    0  501    0  0.00000000000E+00  0.00000000000E+00  0.25274733259E+04  0.25274733259E+04  0.00000000000E+00 0. -1.
         -2   -1    0    0    0  501 -0.00000000000E+00 -0.00000000000E+00 -0.32529986865E+03  0.32529986865E+03  0.00000000000E+00 0.  1.
         23    2    1    2    0    0  0.53594331047E+03 -0.41567690841E+03  0.91574170598E+03  0.11432845440E+04  0.92163724893E+02 0.  0.
        254    2    1    2    0    0 -0.53594331047E+03  0.41567690841E+03  0.12864317513E+04  0.17094886506E+04  0.89856678748E+03 0.  0.
        -24    2    4    4    0    0 -0.67472436730E+03  0.33936208337E+03  0.51445585328E+03  0.91721150747E+03  0.78692623476E+02 0.  0.
         24    2    4    4    0    0  0.13878105684E+03  0.76314825049E+02  0.77197589799E+03  0.79227714311E+03  0.81683230655E+02 0.  0.
         11    1    3    3    0    0  0.49747611187E+02 -0.57065699283E+02  0.64567316674E+02  0.99500036362E+02  0.00000000000E+00 0.  1.
        -11    1    3    3    0    0  0.48619569928E+03 -0.35861120913E+03  0.85117438931E+03  0.10437845076E+04  0.00000000000E+00 0. -1.
          2    1    6    6  502    0  0.14385267504E+03  0.83509370673E+02  0.75553452704E+03  0.77362770676E+03  0.00000000000E+00 0. -1.
          1    1    5    5  503    0 -0.57456318370E+03  0.31875279407E+03  0.44230235623E+03  0.79205906984E+03  0.00000000000E+00 0. -1.
         -2    1    5    5    0  503 -0.10016118361E+03  0.20609289295E+02  0.72153497053E+02  0.12515243762E+03  0.00000000000E+00 0.  1.
         -1    1    6    6    0  502 -0.50716182057E+01 -0.71945456242E+01  0.16441370943E+02  0.18649436357E+02  0.00000000000E+00 0.  1.
<mgrwt>
<rscale>  0 0.18134903E+04</rscale>
<asrwt>0</asrwt>
<pdfrwt beam="1">  1        2 0.38884204E+00 0.18134903E+04</pdfrwt>
<pdfrwt beam="2">  1       -2 0.50046135E-01 0.18134903E+04</pdfrwt>
<totfact> 0.11966993E+01</totfact>
</mgrwt>
</event>
<event>
12    1  0.1519630E-007  0.1626185E+04  0.7818608E-02  0.8804621E-01
          1   -1    0    0  501    0  0.00000000000E+00  0.00000000000E+00  0.26528012237E+04  0.26528012237E+04  0.00000000000E+00 0. -1.
         -1   -1    0    0    0  501 -0.00000000000E+00 -0.00000000000E+00 -0.24921547715E+03  0.24921547715E+03  0.00000000000E+00 0.  1.
         23    2    1    2    0    0  0.22763656889E+03  0.49715088534E+03  0.58193435897E+03  0.80364081444E+03  0.90628638892E+02 0.  0.
        254    2    1    2    0    0 -0.22763656889E+03 -0.49715088534E+03  0.18216513876E+04  0.20983758864E+04  0.88644806530E+03 0.  0.
        -24    2    4    4    0    0 -0.26033054091E+03 -0.54448617133E+03  0.18861204113E+04  0.19820717469E+04  0.83192683493E+02 0.  0.
         24    2    4    4    0    0  0.32693972016E+02  0.47335285985E+02 -0.64469023730E+02  0.11630413950E+03  0.77851607175E+02 0.  0.
         13    1    3    3    0    0  0.19703145816E+03  0.47705544215E+03  0.52725393158E+03  0.73783466898E+03  0.00000000000E+00 0.  1.
        -13    1    3    3    0    0  0.30605110731E+02  0.20095443197E+02  0.54680427394E+02  0.65806145459E+02  0.00000000000E+00 0. -1.
          4    1    6    6  502    0  0.10172006480E+02 -0.18635963720E+02  0.17813091967E+00  0.21232065143E+02  0.00000000000E+00 0. -1.
          3    1    5    5  503    0 -0.15493137890E+03 -0.23772582257E+03  0.82066539500E+03  0.86833691010E+03  0.00000000000E+00 0. -1.
         -4    1    5    5    0  503 -0.10539916201E+03 -0.30676034876E+03  0.10654550163E+04  0.11137348368E+04  0.00000000000E+00 0.  1.
         -3    1    6    6    0  502  0.22521965536E+02  0.65971249705E+02 -0.64647154650E+02  0.95072074362E+02  0.00000000000E+00 0.  1.
<mgrwt>
<rscale>  0 0.16261846E+04</rscale>
<asrwt>0</asrwt>
<pdfrwt beam="1">  1        1 0.40812325E+00 0.16261846E+04</pdfrwt>
<pdfrwt beam="2">  1       -1 0.38340844E-01 0.16261846E+04</pdfrwt>
<totfact> 0.66933729E+00</totfact>
</mgrwt>
</event>
<event>
12    1  0.1519630E-007  0.2819692E+04  0.7818608E-02  0.8297181E-01
         -2   -1    0    0    0  501 -0.00000000000E+00  0.00000000000E+00  0.14583653226E+04  0.14583653226E+04  0.00000000000E+00 0. -1.
          2   -1    0    0  501    0  0.00000000000E+00 -0.00000000000E+00 -0.13629408813E+04  0.13629408813E+04  0.00000000000E+00 0.  1.
         23    2    1    2    0    0  0.80215838064E+03  0.18628737129E+03 -0.91908218332E+03  0.12373092651E+04  0.89783659030E+02 0.  0.
        254    2    1    2    0    0 -0.80215838064E+03 -0.18628737129E+03  0.10145066246E+04  0.15839969389E+04  0.89535554875E+03 0.  0.
        -24    2    4    4    0    0 -0.33867049204E+03 -0.51564984309E+03  0.38300171596E+03  0.73040100836E+03  0.78758210568E+02 0.  0.
         24    2    4    4    0    0 -0.46348788860E+03  0.32936247180E+03  0.63150490861E+03  0.85359593050E+03  0.80789245934E+02 0.  0.
         13    1    3    3    0    0  0.51172235626E+03  0.91257608481E+02 -0.62877139500E+03  0.81580707779E+03  0.00000000000E+00 0.  1.
        -13    1    3    3    0    0  0.29043602438E+03  0.95029762809E+02 -0.29031078832E+03  0.42150218729E+03  0.00000000000E+00 0. -1.
          4    1    6    6  502    0 -0.42815695925E+03  0.32438215289E+03  0.57591595268E+03  0.78754133061E+03  0.00000000000E+00 0. -1.
          3    1    5    5  503    0 -0.12978485312E+03 -0.25099698855E+03  0.14413535415E+03  0.31720434530E+03  0.00000000000E+00 0. -1.
         -4    1    5    5    0  503 -0.20888563892E+03 -0.26465285454E+03  0.23886636181E+03  0.41319666306E+03  0.00000000000E+00 0.  1.
         -1    1    6    6    0  502 -0.35330929351E+02  0.49803189075E+01  0.55588955927E+02  0.66054599887E+02  0.00000000000E+00 0.  1.
<mgrwt>
<rscale>  0 0.28196920E+04</rscale>
<asrwt>0</asrwt>
<pdfrwt beam="1">  1        2 0.20968321E+00 0.28196920E+04</pdfrwt>
<pdfrwt beam="2">  1       -2 0.22436389E+00 0.28196920E+04</pdfrwt>
<totfact> 0.12247397E+00</totfact>
</mgrwt>
</event>
<event>
12    1  0.1519630E-007  0.1303646E+04  0.7818608E-02  0.9026679E-01
          1   -1    0    0  501    0  0.00000000000E+00  0.00000000000E+00  0.17589408481E+04  0.17589408481E+04  0.00000000000E+00 0. -1.
         -1   -1    0    0    0  501 -0.00000000000E+00 -0.00000000000E+00 -0.24155056302E+03  0.24155056302E+03  0.00000000000E+00 0.  1.
         23    2    1    2    0    0 -0.34685777907E+02  0.15576522305E+03 -0.39967544603E+02  0.18732570917E+03  0.89596924033E+02 0.  0.
        254    2    1    2    0    0  0.34685777907E+02 -0.15576522305E+03  0.15573578297E+04  0.18131657019E+04  0.91473523226E+03 0.  0.
        -24    2    4    4    0    0 -0.37209825022E+02  0.32871023771E+03  0.27133192798E+03  0.43487376487E+03  0.77840765538E+02 0.  0.
         24    2    4    4    0    0  0.71895602929E+02 -0.48447546076E+03  0.12860259017E+04  0.13782919371E+04  0.77075249876E+02 0.  0.
         13    1    3    3    0    0 -0.21835755207E+01  0.14463842408E+03 -0.47311794258E+02  0.15219542568E+03  0.00000000000E+00 0.  1.
        -13    1    3    3    0    0 -0.32502202387E+02  0.11126798965E+02  0.73442496549E+01  0.35130283491E+02  0.00000000000E+00 0. -1.
          4    1    6    6  502    0  0.81142337301E+02 -0.44507865255E+03  0.11325087095E+04  0.12195306732E+04  0.00000000000E+00 0. -1.
          3    1    5    5  503    0 -0.59168975594E+02  0.28287728995E+03  0.22892460328E+03  0.36868279432E+03  0.00000000000E+00 0. -1.
         -4    1    5    5    0  503  0.21959150572E+02  0.45832947763E+02  0.42407324700E+02  0.66190970552E+02  0.00000000000E+00 0.  1.
         -3    1    6    6    0  502 -0.92467343726E+01 -0.39396808210E+02  0.15351719222E+03  0.15876126386E+03  0.00000000000E+00 0.  1.
<mgrwt>
<rscale>  0 0.13036459E+04</rscale>
<asrwt>0</asrwt>
<pdfrwt beam="1">  1        1 0.27060628E+00 0.13036459E+04</pdfrwt>
<pdfrwt beam="2">  1       -1 0.37161626E-01 0.13036459E+04</pdfrwt>
<totfact> 0.29734650E+01</totfact>
</mgrwt>
</event>
<event>
12    1  0.1519630E-007  0.1314147E+04  0.7818608E-02  0.9018421E-01
         -2   -1    0    0    0  501 -0.00000000000E+00  0.00000000000E+00  0.42556216439E+03  0.42556216439E+03  0.00000000000E+00 0.  1.
          2   -1    0    0  501    0  0.00000000000E+00 -0.00000000000E+00 -0.10145293163E+04  0.10145293163E+04  0.00000000000E+00 0. -1.
         23    2    1    2    0    0 -0.17282164505E+03  0.56387748779E+02 -0.46490791183E+03  0.50678564853E+03  0.87438137373E+02 0.  0.
        254    2    1    2    0    0  0.17282164505E+03 -0.56387748779E+02 -0.12405924013E+03  0.93330583221E+03  0.90698521606E+03 0.  0.
        -24    2    4    4    0    0  0.42779477711E+03  0.15498403711E+02  0.22441390233E+03  0.48871464894E+03  0.72331436413E+02 0.  0.
         24    2    4    4    0    0 -0.25497313206E+03 -0.71886152490E+02 -0.34847314247E+03  0.44459118326E+03  0.77774495959E+02 0.  0.
         13    1    3    3    0    0 -0.11387719120E+03  0.60763599458E+02 -0.22205730246E+03  0.25684562537E+03  0.00000000000E+00 0.  1.
        -13    1    3    3    0    0 -0.58944453851E+02 -0.43758506792E+01 -0.24285060937E+03  0.24994002316E+03  0.00000000000E+00 0. -1.
          2    1    6    6  502    0 -0.21331429406E+03 -0.27666780735E+02 -0.27925331681E+03  0.35249234567E+03  0.00000000000E+00 0. -1.
          3    1    5    5  503    0  0.41548748386E+03  0.35308473259E+01  0.20680806421E+03  0.46412486633E+03  0.00000000000E+00 0. -1.
         -4    1    5    5    0  503  0.12307293253E+02  0.11967556385E+02  0.17605838120E+02  0.24589782613E+02  0.00000000000E+00 0.  1.
         -1    1    6    6    0  502 -0.41658838002E+02 -0.44219371755E+02 -0.69219825656E+02  0.92098837593E+02  0.00000000000E+00 0.  1.
<mgrwt>
<rscale>  0 0.13141466E+04</rscale>
<asrwt>0</asrwt>
<pdfrwt beam="1">  1        2 0.15608143E+00 0.13141466E+04</pdfrwt>
<pdfrwt beam="2">  1       -2 0.65471102E-01 0.13141466E+04</pdfrwt>
<totfact> 0.51900439E+01</totfact>
</mgrwt>
</event>
<event>
12    1  0.1519630E-007  0.1583819E+04  0.7818608E-02  0.8830551E-01
         -3   -1    0    0    0  501 -0.00000000000E+00  0.00000000000E+00  0.26795463497E+03  0.26795463497E+03  0.00000000000E+00 0.  1.
          3   -1    0    0  501    0  0.00000000000E+00 -0.00000000000E+00 -0.23403995142E+04  0.23403995142E+04  0.00000000000E+00 0. -1.
         23    2    1    2    0    0 -0.42482268887E+03 -0.32011995503E+03 -0.67686934268E+03  0.86605745889E+03  0.94616660583E+02 0.  0.
        254    2    1    2    0    0  0.42482268887E+03  0.32011995503E+03 -0.13955755366E+04  0.17422966903E+04  0.89722660248E+03 0.  0.
        -24    2    4    4    0    0 -0.55082557117E+02 -0.13660751701E+03 -0.88915537003E+03  0.90464675750E+03  0.78056274540E+02 0.  0.
         24    2    4    4    0    0  0.47990524598E+03  0.45672747204E+03 -0.50642016655E+03  0.83764993281E+03  0.79290579634E+02 0.  0.
         11    1    3    3    0    0 -0.11039712756E+03 -0.13868575217E+03 -0.22076891540E+03  0.28312572761E+03  0.00000000000E+00 0.  1.
        -11    1    3    3    0    0 -0.31442556131E+03 -0.18143420286E+03 -0.45610042728E+03  0.58293173129E+03  0.00000000000E+00 0. -1.
          4    1    6    6  502    0  0.41817798943E+03  0.36147936702E+03 -0.43667604332E+03  0.70443319800E+03  0.00000000000E+00 0. -1.
          1    1    5    5  503    0 -0.49550835749E+02 -0.29607871798E+02 -0.37812220521E+03  0.38250269734E+03  0.00000000000E+00 0. -1.
         -2    1    5    5    0  503 -0.55317213686E+01 -0.10699964521E+03 -0.51103316482E+03  0.52214406016E+03  0.00000000000E+00 0.  1.
         -3    1    6    6    0  502  0.61727256549E+02  0.95248105018E+02 -0.69744123226E+02  0.13321673482E+03  0.00000000000E+00 0.  1.
<mgrwt>
<rscale>  0 0.15838193E+04</rscale>
<asrwt>0</asrwt>
<pdfrwt beam="1">  1        3 0.36006148E+00 0.15838193E+04</pdfrwt>
<pdfrwt beam="2">  1       -3 0.41223788E-01 0.15838193E+04</pdfrwt>
<totfact> 0.26977094E-01</totfact>
</mgrwt>
</event>
<event>
12    1  0.1519630E-007  0.1553641E+04  0.7818608E-02  0.8849545E-01
         -1   -1    0    0    0  501 -0.00000000000E+00  0.00000000000E+00  0.10728795963E+04  0.10728795963E+04  0.00000000000E+00 0.  1.
          1   -1    0    0  501    0  0.00000000000E+00 -0.00000000000E+00 -0.56245852493E+03  0.56245852493E+03  0.00000000000E+00 0. -1.
         23    2    1    2    0    0 -0.22441874456E+03  0.39328003314E+03 -0.22338767135E+02  0.46242289728E+03  0.91120568656E+02 0.  0.
        254    2    1    2    0    0  0.22441874456E+03 -0.39328003314E+03  0.53275983853E+03  0.11729152240E+04  0.94173463339E+03 0.  0.
        -24    2    4    4    0    0 -0.14705608526E+03  0.26236592566E+02  0.57905039046E+03  0.60375643193E+03  0.83118129251E+02 0.  0.
         24    2    4    4    0    0  0.37147482983E+03 -0.41951662571E+03 -0.46290551929E+02  0.56915879205E+03  0.88380806331E+02 0.  0.
         11    1    3    3    0    0 -0.24937729248E+02  0.95535146140E+01 -0.13335301409E+02  0.29849459714E+02  0.00000000000E+00 0. -1.
        -11    1    3    3    0    0 -0.19948101532E+03  0.38372651853E+03 -0.90034657263E+01  0.43257343757E+03  0.00000000000E+00 0.  1.
          2    1    6    6  502    0  0.19345272208E+03 -0.21463105052E+03 -0.68094054544E+02  0.29686233138E+03  0.00000000000E+00 0. -1.
          3    1    5    5  503    0 -0.13035592360E+03  0.24608706384E+02  0.56886408244E+03  0.58412721177E+03  0.00000000000E+00 0. -1.
         -4    1    5    5    0  503 -0.16700161666E+02  0.16278861818E+01  0.10186308023E+02  0.19629220164E+02  0.00000000000E+00 0.  1.
         -1    1    6    6    0  502  0.17802210774E+03 -0.20488557519E+03  0.21803502615E+02  0.27229646067E+03  0.00000000000E+00 0.  1.
<mgrwt>
<rscale>  0 0.15536412E+04</rscale>
<asrwt>0</asrwt>
<pdfrwt beam="1">  1        1 0.86532081E-01 0.15536412E+04</pdfrwt>
<pdfrwt beam="2">  1       -1 0.16505840E+00 0.15536412E+04</pdfrwt>
<totfact> 0.96889765E+00</totfact>
</mgrwt>
</event>
<event>
12    1  0.1519630E-007  0.2087112E+04  0.7818608E-02  0.8566942E-01
          1   -1    0    0  501    0  0.00000000000E+00  0.00000000000E+00  0.15503897174E+04  0.15503897174E+04  0.00000000000E+00 0. -1.
         -1   -1    0    0    0  501 -0.00000000000E+00 -0.00000000000E+00 -0.70240977613E+03  0.70240977613E+03  0.00000000000E+00 0.  1.
         23    2    1    2    0    0 -0.84876908937E+02  0.14134937724E+03 -0.54230851072E+03  0.57289761657E+03  0.83243150783E+02 0.  0.
        254    2    1    2    0    0  0.84876908937E+02 -0.14134937724E+03  0.13902884520E+04  0.16799018770E+04  0.92843125777E+03 0.  0.
        -24    2    4    4    0    0 -0.16339453512E+02 -0.14151470570E+03  0.15001332632E+04  0.15088973308E+04  0.77961258067E+02 0.  0.
         24    2    4    4    0    0  0.10121636245E+03  0.16532845938E+00 -0.10984481118E+03  0.17100454623E+03  0.83257990178E+02 0.  0.
         11    1    3    3    0    0 -0.49378979510E+02  0.12625779005E+03 -0.48664229752E+03  0.50517327612E+03  0.00000000000E+00 0.  1.
        -11    1    3    3    0    0 -0.35497929427E+02  0.15091587189E+02 -0.55666213197E+02  0.67724340449E+02  0.00000000000E+00 0. -1.
          2    1    6    6  502    0  0.10423944796E+03 -0.18306836655E+02 -0.10949531939E+03  0.15228337975E+03  0.00000000000E+00 0. -1.
          3    1    5    5  503    0 -0.13901729956E+02 -0.32915233910E+02  0.75954607989E+03  0.76038603236E+03  0.00000000000E+00 0. -1.
         -4    1    5    5    0  503 -0.24377235551E+01 -0.10859947179E+03  0.74058718331E+03  0.74851129842E+03  0.00000000000E+00 0.  1.
         -1    1    6    6    0  502 -0.30230855073E+01  0.18472165114E+02 -0.34949178453E+00  0.18721166484E+02  0.00000000000E+00 0.  1.
<mgrwt>
<rscale>  0 0.20871118E+04</rscale>
<asrwt>0</asrwt>
<pdfrwt beam="1">  1        1 0.23852149E+00 0.20871118E+04</pdfrwt>
<pdfrwt beam="2">  1       -1 0.10806304E+00 0.20871118E+04</pdfrwt>
<totfact> 0.44234466E+00</totfact>
</mgrwt>
</event>
<event>
12    1  0.1519630E-007  0.1400398E+04  0.7818608E-02  0.8953530E-01
          1   -1    0    0  501    0  0.00000000000E+00  0.00000000000E+00  0.76802129939E+03  0.76802129939E+03  0.00000000000E+00 0. -1.
         -1   -1    0    0    0  501 -0.00000000000E+00 -0.00000000000E+00 -0.63836618553E+03  0.63836618553E+03  0.00000000000E+00 0.  1.
         23    2    1    2    0    0 -0.24327777866E+02  0.37328418835E+03 -0.12552731505E+03  0.40481185159E+03  0.90457737776E+02 0.  0.
        254    2    1    2    0    0  0.24327777866E+02 -0.37328418835E+03  0.25518242890E+03  0.10015756333E+04  0.89336596711E+03 0.  0.
        -24    2    4    4    0    0  0.19373007101E+03  0.30020069847E+02 -0.25074091422E+03  0.32778706697E+03  0.78363321778E+02 0.  0.
         24    2    4    4    0    0 -0.16940229315E+03 -0.40330425819E+03  0.50592334312E+03  0.67378856635E+03  0.81738249518E+02 0.  0.
         13    1    3    3    0    0 -0.15650921970E+02  0.37025016208E+03 -0.13219791466E+03  0.39345447325E+03  0.00000000000E+00 0. -1.
        -13    1    3    3    0    0 -0.86768558953E+01  0.30340262634E+01  0.66705996154E+01  0.11357378343E+02  0.00000000000E+00 0.  1.
          4    1    6    6  502    0 -0.40024274075E+02 -0.19915997387E+03  0.22157595623E+03  0.30060362953E+03  0.00000000000E+00 0. -1.
          3    1    5    5  503    0  0.54308490734E+02  0.28076300330E+02 -0.33681317511E+02  0.69800587070E+02  0.00000000000E+00 0. -1.
         -4    1    5    5    0  503  0.13942158028E+03  0.19437695163E+01 -0.21705959671E+03  0.25798647990E+03  0.00000000000E+00 0.  1.
         -3    1    6    6    0  502 -0.12937801907E+03 -0.20414428432E+03  0.28434738689E+03  0.37318493682E+03  0.00000000000E+00 0.  1.
<mgrwt>
<rscale>  0 0.14003983E+04</rscale>
<asrwt>0</asrwt>
<pdfrwt beam="1">  1        1 0.11815712E+00 0.14003983E+04</pdfrwt>
<pdfrwt beam="2">  1       -1 0.98210182E-01 0.14003983E+04</pdfrwt>
<totfact> 0.22860214E+01</totfact>
</mgrwt>
</event>
<event>
12    1  0.1519630E-007  0.2424301E+04  0.7818608E-02  0.8430461E-01
         -1   -1    0    0    0  501 -0.00000000000E+00  0.00000000000E+00  0.17324760221E+04  0.17324760221E+04  0.00000000000E+00 0.  1.
          1   -1    0    0  501    0  0.00000000000E+00 -0.00000000000E+00 -0.84809777981E+03  0.84809777981E+03  0.00000000000E+00 0. -1.
         23    2    1    2    0    0  0.38690358827E+03 -0.13172441628E+03 -0.63903153008E+03  0.76387982532E+03  0.90029898599E+02 0.  0.
        254    2    1    2    0    0 -0.38690358827E+03  0.13172441628E+03  0.15234097723E+04  0.18166939765E+04  0.90141775085E+03 0.  0.
        -24    2    4    4    0    0 -0.21192332791E+03 -0.36421821884E+03  0.46521768929E+03  0.63258784923E+03  0.78571500665E+02 0.  0.
         24    2    4    4    0    0 -0.17498026036E+03  0.49594263512E+03  0.10581920830E+04  0.11841061273E+04  0.75892340207E+02 0.  0.
         11    1    3    3    0    0  0.27162594829E+03 -0.13032163951E+03 -0.42782815012E+03  0.52326027132E+03  0.00000000000E+00 0. -1.
        -11    1    3    3    0    0  0.11527763998E+03 -0.14027767706E+01 -0.21120337996E+03  0.24061955401E+03  0.00000000000E+00 0.  1.
          4    1    6    6  502    0 -0.10886470488E+03  0.33265912695E+03  0.77840754445E+03  0.85348223413E+03  0.00000000000E+00 0. -1.
          1    1    5    5  503    0 -0.53740525801E+01  0.26114757669E+01  0.12664765321E+01  0.61077172185E+01  0.00000000000E+00 0. -1.
         -2    1    5    5    0  503 -0.20654927533E+03 -0.36682969461E+03  0.46395121275E+03  0.62648013201E+03  0.00000000000E+00 0.  1.
         -3    1    6    6    0  502 -0.66115555475E+02  0.16328350817E+03  0.27978453858E+03  0.33062389319E+03  0.00000000000E+00 0.  1.
<mgrwt>
<rscale>  0 0.24243012E+04</rscale>
<asrwt>0</asrwt>
<pdfrwt beam="1">  1        1 0.13047658E+00 0.24243012E+04</pdfrwt>
<pdfrwt beam="2">  1       -1 0.26653477E+00 0.24243012E+04</pdfrwt>
<totfact> 0.97816414E-01</totfact>
</mgrwt>
</event>
<event>
12    1  0.1519630E-007  0.3246088E+04  0.7818608E-02  0.8176750E-01
         -1   -1    0    0    0  501 -0.00000000000E+00  0.00000000000E+00  0.78401100418E+03  0.78401100418E+03  0.00000000000E+00 0.  1.
          1   -1    0    0  501    0  0.00000000000E+00 -0.00000000000E+00 -0.33599927343E+04  0.33599927343E+04  0.00000000000E+00 0. -1.
         23    2    1    2    0    0  0.81644827734E+03 -0.93112492257E+03 -0.22682200731E+04  0.25858055292E+04  0.89367352656E+02 0.  0.
        254    2    1    2    0    0 -0.81644827734E+03  0.93112492257E+03 -0.30776165706E+03  0.15581982093E+04  0.89424997120E+03 0.  0.
        -24    2    4    4    0    0  0.10873861351E+03 -0.30980336164E+02 -0.16206641550E+03  0.21300862624E+03  0.79519082767E+02 0.  0.
         24    2    4    4    0    0 -0.92518689086E+03  0.96210525873E+03 -0.14569524156E+03  0.13451895831E+04  0.81796082570E+02 0.  0.
         11    1    3    3    0    0  0.41152376288E+03 -0.49716219270E+03 -0.12661260792E+04  0.14211253646E+04  0.00000000000E+00 0.  1.
        -11    1    3    3    0    0  0.40492451447E+03 -0.43396272987E+03 -0.10020939938E+04  0.11646801646E+04  0.00000000000E+00 0. -1.
          2    1    6    6  502    0 -0.65052217650E+01  0.11019642999E+02 -0.93638834358E+01  0.15856631264E+02  0.00000000000E+00 0. -1.
          3    1    5    5  503    0 -0.81936851216E+01 -0.18121314538E+02 -0.16432486709E+02  0.25798161483E+02  0.00000000000E+00 0. -1.
         -4    1    5    5    0  503  0.11693229864E+03 -0.12859021625E+02 -0.14563392879E+03  0.18721046476E+03  0.00000000000E+00 0.  1.
         -1    1    6    6    0  502 -0.91868166909E+03  0.95108561574E+03 -0.13633135813E+03  0.13293329518E+04  0.00000000000E+00 0.  1.
<mgrwt>
<rscale>  0 0.32460877E+04</rscale>
<asrwt>0</asrwt>
<pdfrwt beam="1">  1        1 0.51692196E+00 0.32460877E+04</pdfrwt>
<pdfrwt beam="2">  1       -1 0.12061708E+00 0.32460877E+04</pdfrwt>
<totfact> 0.16347684E-01</totfact>
</mgrwt>
</event>
<event>
12    1  0.1519630E-007  0.2710797E+04  0.7818608E-02  0.8331510E-01
          1   -1    0    0  501    0  0.00000000000E+00  0.00000000000E+00  0.20089898363E+04  0.20089898363E+04  0.00000000000E+00 0. -1.
         -1   -1    0    0    0  501 -0.00000000000E+00 -0.00000000000E+00 -0.91444203078E+03  0.91444203078E+03  0.00000000000E+00 0.  1.
         23    2    1    2    0    0  0.42003935425E+03 -0.65238349302E+03  0.14876548978E+04  0.16804107239E+04  0.92875318548E+02 0.  0.
        254    2    1    2    0    0 -0.42003935425E+03  0.65238349302E+03 -0.39310709224E+03  0.12430211433E+04  0.88799273395E+03 0.  0.
        -24    2    4    4    0    0 -0.34537214465E+03 -0.64696222611E+02  0.89918963253E+02  0.37184060532E+03  0.81929825419E+02 0.  0.
         24    2    4    4    0    0 -0.74667209602E+02  0.71707971563E+03 -0.48302605550E+03  0.87118053795E+03  0.76569240910E+02 0.  0.
         11    1    3    3    0    0  0.25415407254E+02 -0.19280672739E+02  0.99536551543E+02  0.10452374065E+03  0.00000000000E+00 0.  1.
        -11    1    3    3    0    0  0.39462394699E+03 -0.63310282028E+03  0.13881183463E+04  0.15758869832E+04  0.00000000000E+00 0. -1.
          4    1    6    6  502    0 -0.45101629213E+02  0.26312120480E+03 -0.21823458644E+03  0.34480901974E+03  0.00000000000E+00 0. -1.
          3    1    5    5  503    0 -0.26119142018E+03 -0.39925315845E+02  0.10206781626E+03  0.28325399898E+03  0.00000000000E+00 0. -1.
         -4    1    5    5    0  503 -0.84180724464E+02 -0.24770906766E+02 -0.12148853005E+02  0.88586606339E+02  0.00000000000E+00 0.  1.
         -3    1    6    6    0  502 -0.29565580389E+02  0.45395851083E+03 -0.26479146905E+03  0.52637151821E+03  0.00000000000E+00 0.  1.
<mgrwt>
<rscale>  0 0.27107967E+04</rscale>
<asrwt>0</asrwt>
<pdfrwt beam="1">  1        1 0.30907536E+00 0.27107967E+04</pdfrwt>
<pdfrwt beam="2">  1       -1 0.14068339E+00 0.27107967E+04</pdfrwt>
<totfact> 0.10606704E+00</totfact>
</mgrwt>
</event>
<event>
12    1  0.1519630E-007  0.2512562E+04  0.7818608E-02  0.8398524E-01
          2   -1    0    0  501    0  0.00000000000E+00  0.00000000000E+00  0.21759239398E+04  0.21759239398E+04  0.00000000000E+00 0. -1.
         -2   -1    0    0    0  501 -0.00000000000E+00 -0.00000000000E+00 -0.72532022812E+03  0.72532022812E+03  0.00000000000E+00 0.  1.
         23    2    1    2    0    0  0.54219156423E+03 -0.27188402306E+03 -0.41029437410E+03  0.73779119990E+03  0.90009815663E+02 0.  0.
        254    2    1    2    0    0 -0.54219156423E+03  0.27188402306E+03  0.18608980857E+04  0.21634529680E+04  0.92178872028E+03 0.  0.
        -24    2    4    4    0    0 -0.14456348903E+03  0.14370081285E+03 -0.33863961725E+02  0.22152074966E+03  0.79850789925E+02 0.  0.
         24    2    4    4    0    0 -0.39762807519E+03  0.12818321022E+03  0.18947620475E+04  0.19419322183E+04  0.80240279633E+02 0.  0.
         11    1    3    3    0    0  0.28249215558E+03 -0.16735876846E+03 -0.26757577936E+03  0.42356531143E+03  0.00000000000E+00 0.  1.
        -11    1    3    3    0    0  0.25969940865E+03 -0.10452525461E+03 -0.14271859474E+03  0.31422588847E+03  0.00000000000E+00 0. -1.
          2    1    6    6  502    0 -0.38766817954E+03  0.10897623200E+03  0.18246264396E+04  0.18685352768E+04  0.00000000000E+00 0. -1.
          3    1    5    5  503    0 -0.11772646603E+03  0.14653271167E+03 -0.14936810861E+02  0.18855891575E+03  0.00000000000E+00 0. -1.
         -4    1    5    5    0  503 -0.26837023006E+02 -0.28318988170E+01 -0.18927150863E+02  0.32961833907E+02  0.00000000000E+00 0.  1.
         -1    1    6    6    0  502 -0.99598956564E+01  0.19206978212E+02  0.70135607816E+02  0.73396941471E+02  0.00000000000E+00 0.  1.
<mgrwt>
<rscale>  0 0.25125618E+04</rscale>
<asrwt>0</asrwt>
<pdfrwt beam="1">  1        2 0.33475753E+00 0.25125618E+04</pdfrwt>
<pdfrwt beam="2">  1       -2 0.11158773E+00 0.25125618E+04</pdfrwt>
<totfact> 0.30115984E+00</totfact>
</mgrwt>
</event>
<event>
12    1  0.1519630E-007  0.1305669E+04  0.7818608E-02  0.9025081E-01
         -2   -1    0    0    0  501 -0.00000000000E+00  0.00000000000E+00  0.23166154656E+03  0.23166154656E+03  0.00000000000E+00 0.  1.
          2   -1    0    0  501    0  0.00000000000E+00 -0.00000000000E+00 -0.18397232836E+04  0.18397232836E+04  0.00000000000E+00 0. -1.
         23    2    1    2    0    0 -0.17603591685E+03  0.40972499504E+02 -0.88620072248E+03  0.90914506385E+03  0.92334375288E+02 0.  0.
        254    2    1    2    0    0  0.17603591685E+03 -0.40972499504E+02 -0.72186101461E+03  0.11622397664E+04  0.89277688163E+03 0.  0.
        -24    2    4    4    0    0  0.40436829155E+02  0.10451476524E+03 -0.88380378898E+03  0.89433917320E+03  0.78580824584E+02 0.  0.
         24    2    4    4    0    0  0.13559908770E+03 -0.14548726474E+03  0.16194277437E+03  0.26790059317E+03  0.77405483415E+02 0.  0.
         11    1    3    3    0    0 -0.14133739149E+03  0.41143117291E+02 -0.49542024764E+03  0.51682708530E+03  0.00000000000E+00 0. -1.
        -11    1    3    3    0    0 -0.34698525364E+02 -0.17061778741E+00 -0.39078047484E+03  0.39231797855E+03  0.00000000000E+00 0.  1.
          2    1    6    6  502    0 -0.43996620449E+01  0.19719502879E+01 -0.33404022424E+01  0.58654838836E+01  0.00000000000E+00 0. -1.
          3    1    5    5  503    0 -0.14543689412E+02 -0.22245045415E+01 -0.15664165234E+03  0.15733109854E+03  0.00000000000E+00 0. -1.
         -4    1    5    5    0  503  0.54980518567E+02  0.10673926978E+03 -0.72716213664E+03  0.73700807465E+03  0.00000000000E+00 0.  1.
         -1    1    6    6    0  502  0.13999874974E+03 -0.14745921503E+03  0.16528317662E+03  0.26203510929E+03  0.00000000000E+00 0.  1.
<mgrwt>
<rscale>  0 0.13056694E+04</rscale>
<asrwt>0</asrwt>
<pdfrwt beam="1">  1        2 0.28303436E+00 0.13056694E+04</pdfrwt>
<pdfrwt beam="2">  1       -2 0.35640237E-01 0.13056694E+04</pdfrwt>
<totfact> 0.59469642E+01</totfact>
</mgrwt>
</event>
<event>
12    1  0.1519630E-007  0.1253496E+04  0.7818608E-02  0.9067279E-01
         -2   -1    0    0    0  501 -0.00000000000E+00  0.00000000000E+00  0.29887773687E+03  0.29887773687E+03  0.00000000000E+00 0.  1.
          2   -1    0    0  501    0  0.00000000000E+00 -0.00000000000E+00 -0.13142931565E+04  0.13142931565E+04  0.00000000000E+00 0. -1.
         23    2    1    2    0    0 -0.20695605012E+03 -0.88623011942E+02 -0.50026128981E+03  0.55555535225E+03  0.87724263500E+02 0.  0.
        254    2    1    2    0    0  0.20695605012E+03  0.88623011942E+02 -0.51515412984E+03  0.10576155411E+04  0.89581360252E+03 0.  0.
        -24    2    4    4    0    0 -0.13768606999E+03  0.85840559527E+02  0.19390457903E+03  0.26509669190E+03  0.79694508959E+02 0.  0.
         24    2    4    4    0    0  0.34464212011E+03  0.27824524148E+01 -0.70905870886E+03  0.79251884924E+03  0.80845165545E+02 0.  0.
         11    1    3    3    0    0 -0.50119053009E+02  0.16550405008E+02 -0.11036014253E+03  0.12233231968E+03  0.00000000000E+00 0.  1.
        -11    1    3    3    0    0 -0.15683699711E+03 -0.10517341695E+03 -0.38990114729E+03  0.43322303257E+03  0.00000000000E+00 0. -1.
          2    1    6    6  502    0  0.22748370433E+02  0.36847513900E+01 -0.11067607378E+03  0.11304980786E+03  0.00000000000E+00 0. -1.
          1    1    5    5  503    0 -0.62205935004E+01  0.26404902859E+02  0.53072597101E+01  0.27642027497E+02  0.00000000000E+00 0. -1.
         -2    1    5    5    0  503 -0.13146547649E+03  0.59435656668E+02  0.18859731932E+03  0.23745466440E+03  0.00000000000E+00 0.  1.
         -1    1    6    6    0  502  0.32189374968E+03 -0.90229897525E+00 -0.59838263509E+03  0.67946904139E+03  0.00000000000E+00 0.  1.
<mgrwt>
<rscale>  0 0.12534959E+04</rscale>
<asrwt>0</asrwt>
<pdfrwt beam="1">  1        2 0.20219895E+00 0.12534959E+04</pdfrwt>
<pdfrwt beam="2">  1       -2 0.45981190E-01 0.12534959E+04</pdfrwt>
<totfact> 0.71484769E+01</totfact>
</mgrwt>
</event>
<event>
12    1  0.1519630E-007  0.1353656E+04  0.7818608E-02  0.8988065E-01
          2   -1    0    0  501    0  0.00000000000E+00  0.00000000000E+00  0.52569948704E+03  0.52569948704E+03  0.00000000000E+00 0. -1.
         -2   -1    0    0    0  501 -0.00000000000E+00 -0.00000000000E+00 -0.87140317905E+03  0.87140317905E+03  0.00000000000E+00 0.  1.
         23    2    1    2    0    0 -0.25198734816E+03  0.68341289169E+02  0.17005777003E+03  0.32482466882E+03  0.91778346508E+02 0.  0.
        254    2    1    2    0    0  0.25198734816E+03 -0.68341289169E+02 -0.51576146205E+03  0.10722779973E+04  0.90310689415E+03 0.  0.
        -24    2    4    4    0    0  0.16631157511E+03  0.13665868979E+03 -0.72310369371E+03  0.75811423126E+03  0.74317550214E+02 0.  0.
         24    2    4    4    0    0  0.85675773045E+02 -0.20499997896E+03  0.20734223166E+03  0.31416376601E+03  0.79641329605E+02 0.  0.
         13    1    3    3    0    0 -0.16066346020E+03  0.68259519373E+02  0.66624707288E+02  0.18684475120E+03  0.00000000000E+00 0. -1.
        -13    1    3    3    0    0 -0.91323887954E+02  0.81769795779E-01  0.10343306275E+03  0.13797991762E+03  0.00000000000E+00 0.  1.
          2    1    6    6  502    0  0.56323573055E+02 -0.16577820633E+03  0.19797166870E+03  0.26428685208E+03  0.00000000000E+00 0. -1.
          1    1    5    5  503    0  0.97882737631E+02  0.35031928389E+02 -0.29282109415E+03  0.31072891644E+03  0.00000000000E+00 0. -1.
         -2    1    5    5    0  503  0.68428837482E+02  0.10162676140E+03 -0.43028259957E+03  0.44738531483E+03  0.00000000000E+00 0.  1.
         -1    1    6    6    0  502  0.29352199990E+02 -0.39221772633E+02  0.93705629620E+01  0.49876913928E+02  0.00000000000E+00 0.  1.
<mgrwt>
<rscale>  0 0.13536561E+04</rscale>
<asrwt>0</asrwt>
<pdfrwt beam="1">  1        2 0.80876845E-01 0.13536561E+04</pdfrwt>
<pdfrwt beam="2">  1       -2 0.13406203E+00 0.13536561E+04</pdfrwt>
<totfact> 0.22760838E+01</totfact>
</mgrwt>
</event>
<event>
12    1  0.2101478E-007  0.2093451E+04  0.7818608E-02  0.8564134E-01
         -2   -1    0    0    0  501 -0.00000000000E+00  0.00000000000E+00  0.37159309897E+03  0.37159309897E+03  0.00000000000E+00 0.  1.
          2   -1    0    0  501    0  0.00000000000E+00 -0.00000000000E+00 -0.29484797899E+04  0.29484797899E+04  0.00000000000E+00 0. -1.
         23    2    1    2    0    0 -0.32824577716E+03 -0.69138931511E+03 -0.16707351650E+04  0.18398902004E+04  0.89863689558E+02 0.  0.
        254    2    1    2    0    0  0.32824577716E+03  0.69138931511E+03 -0.90615152589E+03  0.14801826884E+04  0.88547486017E+03 0.  0.
        -24    2    4    4    0    0  0.36584240873E+03  0.76846630232E+03 -0.10115498201E+04  0.13247099841E+04  0.85102158995E+02 0.  0.
         24    2    4    4    0    0 -0.37596631570E+02 -0.77076987211E+02  0.10539829424E+03  0.15547270436E+03  0.75555229542E+02 0.  0.
         11    1    3    3    0    0 -0.23072890111E+03 -0.50295524388E+03 -0.11081757824E+04  0.12386498165E+04  0.00000000000E+00 0. -1.
        -11    1    3    3    0    0 -0.97516876051E+02 -0.18843407123E+03 -0.56255938264E+03  0.60124038397E+03  0.00000000000E+00 0.  1.
          4    1    6    6  502    0 -0.48694680954E+02 -0.83789940873E+02  0.10442509200E+03  0.14246587656E+03  0.00000000000E+00 0. -1.
          1    1    5    5  503    0  0.34438319519E+03  0.66763529791E+03 -0.90983629974E+03  0.11798893035E+04  0.00000000000E+00 0. -1.
         -2    1    5    5    0  503  0.21459213542E+02  0.10083100442E+03 -0.10171352038E+03  0.14482068059E+03  0.00000000000E+00 0.  1.
         -3    1    6    6    0  502  0.11098049384E+02  0.67129536616E+01  0.97320224096E+00  0.13006827807E+02  0.00000000000E+00 0.  1.
<mgrwt>
<rscale>  0 0.20934514E+04</rscale>
<asrwt>0</asrwt>
<pdfrwt beam="1">  1        2 0.45361229E+00 0.20934514E+04</pdfrwt>
<pdfrwt beam="2">  1       -2 0.57168167E-01 0.20934514E+04</pdfrwt>
<totfact> 0.49657146E+00</totfact>
</mgrwt>
</event>
<event>
12    1  0.1519630E-007  0.1298535E+04  0.7818608E-02  0.9030727E-01
          2   -1    0    0  501    0  0.00000000000E+00  0.00000000000E+00  0.18247612761E+04  0.18247612761E+04  0.00000000000E+00 0. -1.
         -2   -1    0    0    0  501 -0.00000000000E+00 -0.00000000000E+00 -0.23101572618E+03  0.23101572618E+03  0.00000000000E+00 0.  1.
         23    2    1    2    0    0 -0.30639730048E+02 -0.31788789747E+03  0.35003937714E+03  0.48522408290E+03  0.10451476769E+03 0.  0.
        254    2    1    2    0    0  0.30639730048E+02  0.31788789747E+03  0.12437061728E+04  0.15705529194E+04  0.90434502262E+03 0.  0.
        -24    2    4    4    0    0 -0.31980273538E+03 -0.63619432926E+02  0.85343284007E+03  0.91709328372E+03  0.79945335960E+02 0.  0.
         24    2    4    4    0    0  0.35044246543E+03  0.38150733039E+03  0.39027333269E+03  0.65345963564E+03  0.79614423817E+02 0.  0.
         11    1    3    3    0    0 -0.44948428578E+02 -0.13189745933E+03  0.20975050023E+03  0.25181853259E+03  0.00000000000E+00 0. -1.
        -11    1    3    3    0    0  0.14308698530E+02 -0.18599043813E+03  0.14028887692E+03  0.23340555031E+03  0.00000000000E+00 0.  1.
          2    1    6    6  502    0  0.10579648418E+03  0.16280619361E+03  0.11923784500E+03  0.22785174220E+03  0.00000000000E+00 0. -1.
          1    1    5    5  503    0 -0.45901635232E+02 -0.17386516338E+02  0.67075934108E+02  0.83116977831E+02  0.00000000000E+00 0. -1.
         -2    1    5    5    0  503 -0.27390110015E+03 -0.46232916589E+02  0.78635690596E+03  0.83397630589E+03  0.00000000000E+00 0.  1.
         -1    1    6    6    0  502  0.24464598124E+03  0.21870113679E+03  0.27103548769E+03  0.42560789344E+03  0.00000000000E+00 0.  1.
<mgrwt>
<rscale>  0 0.12985354E+04</rscale>
<asrwt>0</asrwt>
<pdfrwt beam="1">  1        2 0.28073249E+00 0.12985354E+04</pdfrwt>
<pdfrwt beam="2">  1       -2 0.35540882E-01 0.12985354E+04</pdfrwt>
<totfact> 0.60971123E+01</totfact>
</mgrwt>
</event>
<event>
12    1  0.1519630E-007  0.2029405E+04  0.7818608E-02  0.8592995E-01
         -1   -1    0    0    0  501 -0.00000000000E+00  0.00000000000E+00  0.20671395848E+04  0.20671395848E+04  0.00000000000E+00 0.  1.
          1   -1    0    0  501    0  0.00000000000E+00 -0.00000000000E+00 -0.49808972984E+03  0.49808972984E+03  0.00000000000E+00 0. -1.
         23    2    1    2    0    0 -0.24400474674E+03  0.51337979132E+03 -0.10382386101E+03  0.58444208758E+03  0.87727037171E+02 0.  0.
        254    2    1    2    0    0  0.24400474674E+03 -0.51337979132E+03  0.16728737159E+04  0.19807872270E+04  0.89549675752E+03 0.  0.
        -24    2    4    4    0    0  0.18102399294E+03  0.21653205500E+03  0.71030760072E+03  0.76850642093E+03  0.80058819052E+02 0.  0.
         24    2    4    4    0    0  0.62980753807E+02 -0.72991184632E+03  0.96256611523E+03  0.12122808061E+04  0.79707891270E+02 0.  0.
         13    1    3    3    0    0 -0.24983145429E+03  0.48428218389E+03 -0.10402167149E+03  0.55476616454E+03  0.00000000000E+00 0. -1.
        -13    1    3    3    0    0  0.58267075443E+01  0.29097607436E+02  0.19781047825E+00  0.29675923040E+02  0.00000000000E+00 0.  1.
          2    1    6    6  502    0  0.19681776087E+02 -0.23953823705E+03  0.25612547681E+03  0.35123524765E+03  0.00000000000E+00 0. -1.
          1    1    5    5  503    0  0.94974831504E+02  0.10163171716E+03  0.45286616043E+03  0.47374780614E+03  0.00000000000E+00 0. -1.
         -2    1    5    5    0  503  0.86049161432E+02  0.11490033784E+03  0.25744144029E+03  0.29475861479E+03  0.00000000000E+00 0.  1.
         -1    1    6    6    0  502  0.43298977720E+02 -0.49037360927E+03  0.70644063842E+03  0.86104555846E+03  0.00000000000E+00 0.  1.
<mgrwt>
<rscale>  0 0.20294048E+04</rscale>
<asrwt>0</asrwt>
<pdfrwt beam="1">  1        1 0.76629191E-01 0.20294048E+04</pdfrwt>
<pdfrwt beam="2">  1       -1 0.31802147E+00 0.20294048E+04</pdfrwt>
<totfact> 0.10405254E+00</totfact>
</mgrwt>
</event>
<event>
12    1  0.1519630E-007  0.3882637E+04  0.7818608E-02  0.8028650E-01
         -1   -1    0    0    0  501 -0.00000000000E+00  0.00000000000E+00  0.11968048737E+04  0.11968048737E+04  0.00000000000E+00 0. -1.
          1   -1    0    0  501    0  0.00000000000E+00 -0.00000000000E+00 -0.31489825333E+04  0.31489825333E+04  0.00000000000E+00 0.  1.
         23    2    1    2    0    0 -0.16747426688E+04 -0.66525858168E+02 -0.88325682431E+02  0.16809021536E+04  0.91879961645E+02 0.  0.
        254    2    1    2    0    0  0.16747426688E+04  0.66525858168E+02 -0.18638519772E+04  0.26648852533E+04  0.90469913448E+03 0.  0.
        -24    2    4    4    0    0  0.12920657082E+03 -0.21642556738E+03 -0.56921728772E+03  0.62747324736E+03  0.78612921033E+02 0.  0.
         24    2    4    4    0    0  0.15455360980E+04  0.28295142554E+03 -0.12946346895E+04  0.20374120060E+04  0.78900972252E+02 0.  0.
         11    1    3    3    0    0 -0.71383657434E+03 -0.16124196118E+02 -0.81462339771E+02  0.71865065043E+03  0.00000000000E+00 0.  1.
        -11    1    3    3    0    0 -0.96090609447E+03 -0.50401662050E+02 -0.68633426597E+01  0.96225150319E+03  0.00000000000E+00 0. -1.
          2    1    6    6  502    0  0.15138159485E+04  0.28831626729E+03 -0.12689146629E+04  0.19962237894E+04  0.00000000000E+00 0. -1.
          3    1    5    5  503    0  0.68745390279E+02 -0.16847309146E+03 -0.34020481827E+03  0.38580879928E+03  0.00000000000E+00 0. -1.
         -4    1    5    5    0  503  0.60461180536E+02 -0.47952475912E+02 -0.22901246945E+03  0.24166444807E+03  0.00000000000E+00 0.  1.
         -1    1    6    6    0  502  0.31720149518E+02 -0.53648417439E+01 -0.25720026609E+02  0.41188216533E+02  0.00000000000E+00 0.  1.
<mgrwt>
<rscale>  0 0.38826371E+04</rscale>
<asrwt>0</asrwt>
<pdfrwt beam="1">  1        1 0.48445884E+00 0.38826371E+04</pdfrwt>
<pdfrwt beam="2">  1       -1 0.18412383E+00 0.38826371E+04</pdfrwt>
<totfact> 0.71251627E-02</totfact>
</mgrwt>
</event>
<event>
12    1  0.1519630E-007  0.1898216E+04  0.7818608E-02  0.8655745E-01
          2   -1    0    0  501    0  0.00000000000E+00  0.00000000000E+00  0.17991014017E+04  0.17991014017E+04  0.00000000000E+00 0. -1.
         -2   -1    0    0    0  501 -0.00000000000E+00 -0.00000000000E+00 -0.50069767783E+03  0.50069767783E+03  0.00000000000E+00 0.  1.
         23    2    1    2    0    0 -0.44769070705E+03  0.23147431427E+03  0.11526913091E+04  0.12613485000E+04  0.91079399815E+02 0.  0.
        254    2    1    2    0    0  0.44769070705E+03 -0.23147431427E+03  0.14571241481E+03  0.10384505795E+04  0.89618088072E+03 0.  0.
        -24    2    4    4    0    0 -0.18625968639E+03  0.17706356712E+03  0.57502863557E+02  0.27499948556E+03  0.79208333951E+02 0.  0.
         24    2    4    4    0    0  0.63395039345E+03 -0.40853788138E+03  0.88209551250E+02  0.76345109398E+03  0.79248634611E+02 0.  0.
         11    1    3    3    0    0 -0.10002726672E+03  0.52703141206E+02  0.17444052885E+03  0.20787634133E+03  0.00000000000E+00 0.  1.
        -11    1    3    3    0    0 -0.34766344033E+03  0.17877117306E+03  0.97825078021E+03  0.10534721586E+04  0.00000000000E+00 0. -1.
          4    1    6    6  502    0  0.52049366646E+03 -0.34066713124E+03  0.42318146505E+02  0.62350507348E+03  0.00000000000E+00 0. -1.
          1    1    5    5  503    0 -0.10802447469E+03  0.58101426970E+02  0.49882099300E+02  0.13241331798E+03  0.00000000000E+00 0. -1.
         -2    1    5    5    0  503 -0.78235211709E+02  0.11896214014E+03  0.76207642571E+01  0.14258616759E+03  0.00000000000E+00 0.  1.
         -3    1    6    6    0  502  0.11345672699E+03 -0.67870750141E+02  0.45891404745E+02  0.13994602050E+03  0.00000000000E+00 0.  1.
<mgrwt>
<rscale>  0 0.18982159E+04</rscale>
<asrwt>0</asrwt>
<pdfrwt beam="1">  1        2 0.27678483E+00 0.18982159E+04</pdfrwt>
<pdfrwt beam="2">  1       -2 0.77030413E-01 0.18982159E+04</pdfrwt>
<totfact> 0.12174137E+01</totfact>
</mgrwt>
</event>
<event>
12    1  0.1519630E-007  0.1770328E+04  0.7818608E-02  0.8722240E-01
         -2   -1    0    0    0  501 -0.00000000000E+00  0.00000000000E+00  0.60902698335E+03  0.60902698335E+03  0.00000000000E+00 0.  1.
          2   -1    0    0  501    0  0.00000000000E+00 -0.00000000000E+00 -0.12865030287E+04  0.12865030287E+04  0.00000000000E+00 0. -1.
         23    2    1    2    0    0 -0.31107284958E+03  0.47974080984E+03 -0.58032540752E+03  0.81987746004E+03  0.92216638924E+02 0.  0.
        254    2    1    2    0    0  0.31107284958E+03 -0.47974080984E+03 -0.97150637871E+02  0.10756525520E+04  0.90590982107E+03 0.  0.
        -24    2    4    4    0    0 -0.77701132485E+01 -0.58559452924E+03 -0.31273723490E+03  0.66860288670E+03  0.79018445201E+02 0.  0.
         24    2    4    4    0    0  0.31884296283E+03  0.10585371940E+03  0.21558659703E+03  0.40704966534E+03  0.79661812545E+02 0.  0.
         11    1    3    3    0    0 -0.26385526905E+03  0.45350182264E+03 -0.51622960527E+03  0.73605469328E+03  0.00000000000E+00 0.  1.
        -11    1    3    3    0    0 -0.47217580537E+02  0.26238987194E+02 -0.64095802249E+02  0.83822766756E+02  0.00000000000E+00 0. -1.
          4    1    6    6  502    0  0.21330833467E+03  0.57218708878E+02  0.97618996620E+02  0.24146199450E+03  0.00000000000E+00 0. -1.
          1    1    5    5  503    0 -0.23568515349E+02 -0.58755503105E+02 -0.24668214082E+02  0.67942658521E+02  0.00000000000E+00 0. -1.
         -2    1    5    5    0  503  0.15798402100E+02 -0.52683902613E+03 -0.28806902082E+03  0.60066022818E+03  0.00000000000E+00 0.  1.
         -3    1    6    6    0  502  0.10553462816E+03  0.48635010523E+02  0.11796760041E+03  0.16558767085E+03  0.00000000000E+00 0.  1.
<mgrwt>
<rscale>  0 0.17703277E+04</rscale>
<asrwt>0</asrwt>
<pdfrwt beam="1">  1        2 0.19792354E+00 0.17703277E+04</pdfrwt>
<pdfrwt beam="2">  1       -2 0.93696460E-01 0.17703277E+04</pdfrwt>
<totfact> 0.15336435E+01</totfact>
</mgrwt>
</event>
<event>
12    1  0.1519630E-007  0.1468203E+04  0.7818608E-02  0.8905877E-01
         -2   -1    0    0    0  501 -0.00000000000E+00  0.00000000000E+00  0.56611492740E+03  0.56611492740E+03  0.00000000000E+00 0.  1.
          2   -1    0    0  501    0  0.00000000000E+00 -0.00000000000E+00 -0.95193629453E+03  0.95193629453E+03  0.00000000000E+00 0. -1.
         23    2    1    2    0    0  0.21076626424E+03 -0.40182901866E+03 -0.10190393775E+03  0.47394486335E+03  0.91380208923E+02 0.  0.
        254    2    1    2    0    0 -0.21076626424E+03  0.40182901866E+03 -0.28391742937E+03  0.10441063586E+04  0.89647086008E+03 0.  0.
        -24    2    4    4    0    0 -0.44735257616E+03  0.62602091747E+02 -0.39697052853E+03  0.60670605553E+03  0.80394576969E+02 0.  0.
         24    2    4    4    0    0  0.23658631192E+03  0.33922692692E+03  0.11305309916E+03  0.43740030306E+03  0.86544964908E+02 0.  0.
         11    1    3    3    0    0  0.12186974286E+03 -0.16747918419E+03 -0.81102799977E+02  0.22243915016E+03  0.00000000000E+00 0. -1.
        -11    1    3    3    0    0  0.88896521381E+02 -0.23434983448E+03 -0.20801137776E+02  0.25150571319E+03  0.00000000000E+00 0.  1.
          4    1    6    6  502    0  0.21295120992E+03  0.25765369055E+03  0.11178656215E+03  0.35246259027E+03  0.00000000000E+00 0. -1.
          3    1    5    5  503    0 -0.19849843882E+03  0.63366981034E+02 -0.15591772478E+03  0.26024477209E+03  0.00000000000E+00 0. -1.
         -4    1    5    5    0  503 -0.24885413734E+03 -0.76488928666E+00 -0.24105280375E+03  0.34646128344E+03  0.00000000000E+00 0.  1.
         -3    1    6    6    0  502  0.23635101998E+02  0.81573236363E+02  0.12665370100E+01  0.84937712785E+02  0.00000000000E+00 0.  1.
<mgrwt>
<rscale>  0 0.14682035E+04</rscale>
<asrwt>0</asrwt>
<pdfrwt beam="1">  1        2 0.14645174E+00 0.14682035E+04</pdfrwt>
<pdfrwt beam="2">  1       -2 0.87094606E-01 0.14682035E+04</pdfrwt>
<totfact> 0.29887342E+01</totfact>
</mgrwt>
</event>
<event>
12    1  0.1519630E-007  0.1950166E+04  0.7818608E-02  0.8630281E-01
         -2   -1    0    0    0  501 -0.00000000000E+00  0.00000000000E+00  0.44247057740E+03  0.44247057740E+03  0.00000000000E+00 0.  1.
          2   -1    0    0  501    0  0.00000000000E+00 -0.00000000000E+00 -0.21488138970E+04  0.21488138970E+04  0.00000000000E+00 0. -1.
         23    2    1    2    0    0 -0.41282324605E+03  0.63341924096E+03 -0.79656283727E+03  0.11019351054E+04  0.90031414001E+02 0.  0.
        254    2    1    2    0    0  0.41282324605E+03 -0.63341924096E+03 -0.90978048237E+03  0.14893493690E+04  0.90488565556E+03 0.  0.
        -24    2    4    4    0    0 -0.47439249356E+02 -0.31254324523E+03 -0.86095762552E+03  0.92051623010E+03  0.78538744640E+02 0.  0.
         24    2    4    4    0    0  0.46026249540E+03 -0.32087599572E+03 -0.48822856841E+02  0.56883313893E+03  0.79903061793E+02 0.  0.
         11    1    3    3    0    0 -0.36873994837E+03  0.50722838175E+03 -0.67345611508E+03  0.92021351854E+03  0.00000000000E+00 0. -1.
        -11    1    3    3    0    0 -0.44083297678E+02  0.12619085920E+03 -0.12310672219E+03  0.18172158686E+03  0.00000000000E+00 0.  1.
          2    1    6    6  502    0  0.37817992222E+01 -0.47661842796E+01  0.86970674305E+01  0.10614023734E+02  0.00000000000E+00 0. -1.
          1    1    5    5  503    0 -0.51556708715E+02 -0.10953770076E+03 -0.27828255541E+03  0.30347616504E+03  0.00000000000E+00 0. -1.
         -2    1    5    5    0  503  0.41174593593E+01 -0.20300554447E+03 -0.58267507011E+03  0.61704006506E+03  0.00000000000E+00 0.  1.
         -1    1    6    6    0  502  0.45648069618E+03 -0.31610981145E+03 -0.57519924272E+02  0.55821911519E+03  0.00000000000E+00 0.  1.
<mgrwt>
<rscale>  0 0.19501661E+04</rscale>
<asrwt>0</asrwt>
<pdfrwt beam="1">  1        2 0.33058675E+00 0.19501661E+04</pdfrwt>
<pdfrwt beam="2">  1       -2 0.68072397E-01 0.19501661E+04</pdfrwt>
<totfact> 0.10167902E+01</totfact>
</mgrwt>
</event>
<event>
12    1  0.1519630E-007  0.2488795E+04  0.7818608E-02  0.8406988E-01
          1   -1    0    0  501    0  0.00000000000E+00  0.00000000000E+00  0.27258801056E+04  0.27258801056E+04  0.00000000000E+00 0. -1.
         -1   -1    0    0    0  501 -0.00000000000E+00 -0.00000000000E+00 -0.56808249423E+03  0.56808249423E+03  0.00000000000E+00 0.  1.
         23    2    1    2    0    0 -0.87229792735E+03  0.64866008694E+03  0.90485564009E+03  0.14173583634E+04  0.92072897205E+02 0.  0.
        254    2    1    2    0    0  0.87229792735E+03 -0.64866008694E+03  0.12529419713E+04  0.18766042365E+04  0.87756270116E+03 0.  0.
        -24    2    4    4    0    0  0.13111511259E+03 -0.56247609102E+03  0.27897367385E+03  0.64710512616E+03  0.85721688536E+02 0.  0.
         24    2    4    4    0    0  0.74118281477E+03 -0.86183995922E+02  0.97396829747E+03  0.12294991103E+04  0.79209669717E+02 0.  0.
         11    1    3    3    0    0 -0.57501414917E+03  0.42055579958E+03  0.53558117206E+03  0.89126631495E+03  0.00000000000E+00 0. -1.
        -11    1    3    3    0    0 -0.29728377818E+03  0.22810428736E+03  0.36927446803E+03  0.52609204843E+03  0.00000000000E+00 0.  1.
          2    1    6    6  502    0  0.55927219786E+02  0.77291453800E+01  0.10129941602E+03  0.11597053629E+03  0.00000000000E+00 0. -1.
          3    1    5    5  503    0  0.10349664160E+03 -0.25936583734E+03  0.12377721668E+03  0.30545538425E+03  0.00000000000E+00 0. -1.
         -4    1    5    5    0  503  0.27618470982E+02 -0.30311025368E+03  0.15519645717E+03  0.34164974190E+03  0.00000000000E+00 0.  1.
         -1    1    6    6    0  502  0.68525559498E+03 -0.93913141302E+02  0.87266888145E+03  0.11135285740E+04  0.00000000000E+00 0.  1.
<mgrwt>
<rscale>  0 0.24887947E+04</rscale>
<asrwt>0</asrwt>
<pdfrwt beam="1">  1        1 0.41936616E+00 0.24887947E+04</pdfrwt>
<pdfrwt beam="2">  1       -1 0.87397309E-01 0.24887947E+04</pdfrwt>
<totfact> 0.10778359E+00</totfact>
</mgrwt>
</event>
<event>
12    1  0.1519630E-007  0.2165441E+04  0.7818608E-02  0.8532951E-01
          2   -1    0    0  501    0  0.00000000000E+00  0.00000000000E+00  0.14478839703E+04  0.14478839703E+04  0.00000000000E+00 0.  1.
         -2   -1    0    0    0  501 -0.00000000000E+00 -0.00000000000E+00 -0.80965337154E+03  0.80965337154E+03  0.00000000000E+00 0. -1.
         23    2    1    2    0    0 -0.21773849001E+03 -0.33328478087E+03  0.10954570193E+04  0.11691701767E+04  0.91891379661E+02 0.  0.
        254    2    1    2    0    0  0.21773849001E+03  0.33328478087E+03 -0.45722642053E+03  0.10883671652E+04  0.90387957795E+03 0.  0.
        -24    2    4    4    0    0  0.26936814123E+03 -0.11359497040E+03  0.14248592860E+03  0.33445218965E+03  0.78057763876E+02 0.  0.
         24    2    4    4    0    0 -0.51629651221E+02  0.44687975127E+03 -0.59971234913E+03  0.75391497554E+03  0.79785685732E+02 0.  0.
         13    1    3    3    0    0 -0.11610319523E+03 -0.98085619114E+02  0.43202621380E+03  0.45798186649E+03  0.00000000000E+00 0.  1.
        -13    1    3    3    0    0 -0.10163529478E+03 -0.23519916176E+03  0.66343080555E+03  0.71118831021E+03  0.00000000000E+00 0. -1.
          4    1    6    6  502    0 -0.28637440870E+01  0.32745955479E+03 -0.41566957444E+03  0.52916836279E+03  0.00000000000E+00 0. -1.
          1    1    5    5  503    0  0.85524186895E+02 -0.45170246464E+02  0.88243929233E+02  0.13092642497E+03  0.00000000000E+00 0. -1.
         -2    1    5    5    0  503  0.18384395434E+03 -0.68424723941E+02  0.54241999369E+02  0.20352576468E+03  0.00000000000E+00 0.  1.
         -3    1    6    6    0  502 -0.48765907134E+02  0.11942019648E+03 -0.18404277469E+03  0.22474661275E+03  0.00000000000E+00 0.  1.
<mgrwt>
<rscale>  0 0.21654414E+04</rscale>
<asrwt>0</asrwt>
<pdfrwt beam="1">  1        2 0.22275138E+00 0.21654414E+04</pdfrwt>
<pdfrwt beam="2">  1       -2 0.12456206E+00 0.21654414E+04</pdfrwt>
<totfact> 0.60258673E+00</totfact>
</mgrwt>
</event>
<event>
12    1  0.1519630E-007  0.1628471E+04  0.7818608E-02  0.8803246E-01
         -2   -1    0    0    0  501 -0.00000000000E+00  0.00000000000E+00  0.64882639472E+03  0.64882639472E+03  0.00000000000E+00 0.  1.
          2   -1    0    0  501    0  0.00000000000E+00 -0.00000000000E+00 -0.10218130810E+04  0.10218130810E+04  0.00000000000E+00 0. -1.
         23    2    1    2    0    0  0.43283748119E+03 -0.24900995879E+03  0.13882599212E+03  0.52598769195E+03  0.89644583195E+02 0.  0.
        254    2    1    2    0    0 -0.43283748119E+03  0.24900995879E+03 -0.51181267845E+03  0.11446517838E+04  0.89382394444E+03 0.  0.
        -24    2    4    4    0    0 -0.49751721967E+03  0.47142088367E+03 -0.14685178884E+03  0.70519928771E+03  0.77327576411E+02 0.  0.
         24    2    4    4    0    0  0.64679738481E+02 -0.22241092488E+03 -0.36496088960E+03  0.43945249609E+03  0.79195689955E+02 0.  0.
         11    1    3    3    0    0  0.43219511818E+03 -0.23527110647E+03  0.12792758078E+03  0.50843935690E+03  0.00000000000E+00 0.  1.
        -11    1    3    3    0    0  0.64236300788E+00 -0.13738852323E+02  0.10898411340E+02  0.17548335053E+02  0.00000000000E+00 0. -1.
          2    1    6    6  502    0  0.32813294431E+01 -0.14228874743E+03 -0.18903472249E+03  0.23662413460E+03  0.00000000000E+00 0. -1.
          1    1    5    5  503    0 -0.45075402657E+03  0.43355025624E+03 -0.15536683588E+03  0.64442522517E+03  0.00000000000E+00 0. -1.
         -2    1    5    5    0  503 -0.46763193105E+02  0.37870627432E+02  0.85150470331E+01  0.60774062538E+02  0.00000000000E+00 0.  1.
         -1    1    6    6    0  502  0.61398409038E+02 -0.80122177452E+02 -0.17592616711E+03  0.20282836150E+03  0.00000000000E+00 0.  1.
<mgrwt>
<rscale>  0 0.16284708E+04</rscale>
<asrwt>0</asrwt>
<pdfrwt beam="1">  1        2 0.15720201E+00 0.16284708E+04</pdfrwt>
<pdfrwt beam="2">  1       -2 0.99819446E-01 0.16284708E+04</pdfrwt>
<totfact> 0.19364269E+01</totfact>
</mgrwt>
</event>
<event>
12    1  0.1519630E-007  0.2637469E+04  0.7818608E-02  0.8355584E-01
         -2   -1    0    0    0  501 -0.00000000000E+00  0.00000000000E+00  0.11149111917E+04  0.11149111917E+04  0.00000000000E+00 0. -1.
          2   -1    0    0  501    0  0.00000000000E+00 -0.00000000000E+00 -0.15598197889E+04  0.15598197889E+04  0.00000000000E+00 0.  1.
         23    2    1    2    0    0 -0.97524334749E+03  0.62955807189E+03 -0.19265796950E+03  0.11789585462E+04  0.73370346676E+02 0.  0.
        254    2    1    2    0    0  0.97524334749E+03 -0.62955807189E+03 -0.25225062772E+03  0.14957724345E+04  0.90898946295E+03 0.  0.
        -24    2    4    4    0    0  0.81142161696E+02 -0.31939089249E+03 -0.41075200061E+03  0.53265641544E+03  0.80069084531E+02 0.  0.
         24    2    4    4    0    0  0.89410118580E+03 -0.31016717941E+03  0.15850137289E+03  0.96311601901E+03  0.82759719894E+02 0.  0.
         11    1    3    3    0    0 -0.24282585154E+03  0.15627455986E+03 -0.80288422379E+02  0.29972047478E+03  0.00000000000E+00 0.  1.
        -11    1    3    3    0    0 -0.73241749596E+03  0.47328351204E+03 -0.11236954712E+03  0.87923807144E+03  0.00000000000E+00 0. -1.
          4    1    6    6  502    0  0.43791745233E+02 -0.11748163672E+02  0.26017246434E+02  0.52274596242E+02  0.00000000000E+00 0. -1.
          1    1    5    5  503    0  0.58935563644E+02 -0.12603935816E+03 -0.12575775210E+03  0.18754821428E+03  0.00000000000E+00 0. -1.
         -2    1    5    5    0  503  0.22206598053E+02 -0.19335153433E+03 -0.28499424851E+03  0.34510820116E+03  0.00000000000E+00 0.  1.
         -3    1    6    6    0  502  0.85030944056E+03 -0.29841901574E+03  0.13248412646E+03  0.91084142277E+03  0.00000000000E+00 0.  1.
<mgrwt>
<rscale>  0 0.26374689E+04</rscale>
<asrwt>0</asrwt>
<pdfrwt beam="1">  1        2 0.23997227E+00 0.26374689E+04</pdfrwt>
<pdfrwt beam="2">  1       -2 0.17152480E+00 0.26374689E+04</pdfrwt>
<totfact> 0.21535846E+00</totfact>
</mgrwt>
</event>
<event>
12    1  0.1519630E-007  0.1448798E+04  0.7818608E-02  0.8919234E-01
         -3   -1    0    0    0  501 -0.00000000000E+00  0.00000000000E+00  0.48109494078E+03  0.48109494078E+03  0.00000000000E+00 0.  1.
          3   -1    0    0  501    0  0.00000000000E+00 -0.00000000000E+00 -0.10907486063E+04  0.10907486063E+04  0.00000000000E+00 0. -1.
         23    2    1    2    0    0 -0.18858853718E+03 -0.32850750322E+03 -0.41175835022E+03  0.56680785251E+03  0.90793098107E+02 0.  0.
        254    2    1    2    0    0  0.18858853718E+03  0.32850750322E+03 -0.19789531528E+03  0.10050356946E+04  0.90964354309E+03 0.  0.
        -24    2    4    4    0    0  0.39053542014E+03  0.52291799577E+03 -0.95865516024E+01  0.65783573807E+03  0.81821828572E+02 0.  0.
         24    2    4    4    0    0 -0.20194688296E+03 -0.19441049255E+03 -0.18830876368E+03  0.34719995648E+03  0.80682316217E+02 0.  0.
         11    1    3    3    0    0 -0.52092840257E+01  0.45899741177E+01 -0.18615138820E+02  0.19867760209E+02  0.00000000000E+00 0.  1.
        -11    1    3    3    0    0 -0.18337925316E+03 -0.33309747733E+03 -0.39314321140E+03  0.54694009230E+03  0.00000000000E+00 0. -1.
          4    1    6    6  502    0 -0.17878598176E+02 -0.45378906743E+02 -0.61687508592E+02  0.78639927303E+02  0.00000000000E+00 0. -1.
          1    1    5    5  503    0  0.60910542388E+02  0.10972340524E+03  0.25670512009E+02  0.12809486726E+03  0.00000000000E+00 0. -1.
         -2    1    5    5    0  503  0.32962487775E+03  0.41319459053E+03 -0.35257063611E+02  0.52974087082E+03  0.00000000000E+00 0.  1.
         -1    1    6    6    0  502 -0.18406828478E+03 -0.14903158581E+03 -0.12662125509E+03  0.26856002918E+03  0.00000000000E+00 0.  1.
<mgrwt>
<rscale>  0 0.14487976E+04</rscale>
<asrwt>0</asrwt>
<pdfrwt beam="1">  1        3 0.16780748E+00 0.14487976E+04</pdfrwt>
<pdfrwt beam="2">  1       -3 0.74014606E-01 0.14487976E+04</pdfrwt>
<totfact> 0.10558013E+00</totfact>
</mgrwt>
</event>
<event>
12    1  0.1519630E-007  0.1394115E+04  0.7818608E-02  0.8958089E-01
         -2   -1    0    0    0  501 -0.00000000000E+00  0.00000000000E+00  0.11324282557E+04  0.11324282557E+04  0.00000000000E+00 0.  1.
          2   -1    0    0  501    0  0.00000000000E+00 -0.00000000000E+00 -0.42906836998E+03  0.42906836998E+03  0.00000000000E+00 0. -1.
         23    2    1    2    0    0  0.15766990746E+03 -0.38723520455E+01 -0.20069116848E+03  0.27072150986E+03  0.90213058753E+02 0.  0.
        254    2    1    2    0    0 -0.15766990746E+03  0.38723520455E+01  0.90405105419E+03  0.12907751158E+04  0.90769890171E+03 0.  0.
        -24    2    4    4    0    0 -0.10821401428E+03 -0.41948842905E+03  0.25137014760E+03  0.50714765721E+03  0.79567456419E+02 0.  0.
         24    2    4    4    0    0 -0.49455893179E+02  0.42336078109E+03  0.65268090660E+03  0.78362745860E+03  0.79996198003E+02 0.  0.
         11    1    3    3    0    0  0.16634702501E+03 -0.74999634473E+01 -0.20136120865E+03  0.26129278315E+03  0.00000000000E+00 0. -1.
        -11    1    3    3    0    0 -0.86771175523E+01  0.36276114019E+01  0.67004016964E+00  0.94287267076E+01  0.00000000000E+00 0.  1.
          2    1    6    6  502    0  0.11836301290E+02  0.49560642577E+02  0.47409766945E+02  0.69599147427E+02  0.00000000000E+00 0. -1.
          1    1    5    5  503    0 -0.62751474784E+02 -0.10965556791E+03  0.57219309672E+02  0.13869441431E+03  0.00000000000E+00 0. -1.
         -4    1    5    5    0  503 -0.45462539493E+02 -0.30983286114E+03  0.19415083792E+03  0.36845324290E+03  0.00000000000E+00 0.  1.
         -3    1    6    6    0  502 -0.61292194469E+02  0.37380013852E+03  0.60527113965E+03  0.71402831117E+03  0.00000000000E+00 0.  1.
<mgrwt>
<rscale>  0 0.13941150E+04</rscale>
<asrwt>0</asrwt>
<pdfrwt beam="1">  1        2 0.66010519E-01 0.13941150E+04</pdfrwt>
<pdfrwt beam="2">  1       -2 0.17421973E+00 0.13941150E+04</pdfrwt>
<totfact> 0.14211533E+01</totfact>
</mgrwt>
</event>
<event>
12    1  0.1519630E-007  0.1991930E+04  0.7818608E-02  0.8610403E-01
         -1   -1    0    0    0  501 -0.00000000000E+00  0.00000000000E+00  0.72002285995E+03  0.72002285995E+03  0.00000000000E+00 0.  1.
          1   -1    0    0  501    0  0.00000000000E+00 -0.00000000000E+00 -0.13776591373E+04  0.13776591373E+04  0.00000000000E+00 0. -1.
         23    2    1    2    0    0 -0.49038113007E+03 -0.34720859712E+03 -0.80258492139E+03  0.10076207754E+04  0.10064595558E+03 0.  0.
        254    2    1    2    0    0  0.49038113007E+03  0.34720859712E+03  0.14494864408E+03  0.10900612218E+04  0.89788412125E+03 0.  0.
        -24    2    4    4    0    0  0.69040527379E+03  0.28636514404E+02  0.10291260586E+03  0.70303627220E+03  0.78673397917E+02 0.  0.
         24    2    4    4    0    0 -0.20002414372E+03  0.31857208272E+03  0.42036038220E+02  0.38702494960E+03  0.80767896748E+02 0.  0.
         11    1    3    3    0    0 -0.21175105931E+03 -0.14081567475E+03 -0.42255749131E+03  0.49317582953E+03  0.00000000000E+00 0. -1.
        -11    1    3    3    0    0 -0.27863007076E+03 -0.20639292237E+03 -0.38002743008E+03  0.51444494589E+03  0.00000000000E+00 0.  1.
          4    1    6    6  502    0 -0.72223609619E+02  0.16691367688E+03  0.49742894241E+02  0.18854914703E+03  0.00000000000E+00 0. -1.
          3    1    5    5  503    0  0.38055432975E+03 -0.22700009784E+02  0.48978410721E+02  0.38436411520E+03  0.00000000000E+00 0. -1.
         -4    1    5    5    0  503  0.30985094405E+03  0.51336524188E+02  0.53934195137E+02  0.31867215700E+03  0.00000000000E+00 0.  1.
         -3    1    6    6    0  502 -0.12780053411E+03  0.15165840583E+03 -0.77068560213E+01  0.19847580257E+03  0.00000000000E+00 0.  1.
<mgrwt>
<rscale>  0 0.19919298E+04</rscale>
<asrwt>0</asrwt>
<pdfrwt beam="1">  1        1 0.21194756E+00 0.19919298E+04</pdfrwt>
<pdfrwt beam="2">  1       -1 0.11077275E+00 0.19919298E+04</pdfrwt>
<totfact> 0.55510510E+00</totfact>
</mgrwt>
</event>
<event>
12    1  0.1519630E-007  0.1413097E+04  0.7818608E-02  0.8944392E-01
          2   -1    0    0  501    0  0.00000000000E+00  0.00000000000E+00  0.82276456180E+03  0.82276456180E+03  0.00000000000E+00 0. -1.
         -2   -1    0    0    0  501 -0.00000000000E+00 -0.00000000000E+00 -0.60674844868E+03  0.60674844868E+03  0.00000000000E+00 0.  1.
         23    2    1    2    0    0 -0.18226922307E+03  0.32968931792E+03  0.24264768474E+03  0.45726003767E+03  0.91058921090E+02 0.  0.
        254    2    1    2    0    0  0.18226922307E+03 -0.32968931792E+03 -0.26631571624E+02  0.97225297281E+03  0.89590707470E+03 0.  0.
        -24    2    4    4    0    0 -0.35601353191E+03 -0.83345777025E+02 -0.12751422239E+02  0.37465694858E+03  0.80703636219E+02 0.  0.
         24    2    4    4    0    0  0.53828275499E+03 -0.24634354089E+03 -0.13880149385E+02  0.59759602423E+03  0.80590850428E+02 0.  0.
         11    1    3    3    0    0 -0.45867233463E+02  0.17026658082E+03  0.91406815942E+02  0.19861952988E+03  0.00000000000E+00 0.  1.
        -11    1    3    3    0    0 -0.13640198961E+03  0.15942273710E+03  0.15124086880E+03  0.25864050779E+03  0.00000000000E+00 0. -1.
          4    1    6    6  502    0  0.48570528906E+02 -0.49089909977E+02  0.56563687422E+01  0.69288599691E+02  0.00000000000E+00 0. -1.
          3    1    5    5  503    0 -0.74899010501E+02 -0.84521308644E+01 -0.34561795967E+02  0.82920552522E+02  0.00000000000E+00 0. -1.
         -4    1    5    5    0  503 -0.28111452141E+03 -0.74893646160E+02  0.21810373728E+02  0.29173639606E+03  0.00000000000E+00 0.  1.
         -3    1    6    6    0  502  0.48971222608E+03 -0.19725363092E+03 -0.19536518127E+02  0.52830742454E+03  0.00000000000E+00 0.  1.
<mgrwt>
<rscale>  0 0.14130975E+04</rscale>
<asrwt>0</asrwt>
<pdfrwt beam="1">  1        2 0.12657916E+00 0.14130975E+04</pdfrwt>
<pdfrwt beam="2">  1       -2 0.93345915E-01 0.14130975E+04</pdfrwt>
<totfact> 0.31332392E+01</totfact>
</mgrwt>
</event>
<event>
12    1  0.1519630E-007  0.1941485E+04  0.7818608E-02  0.8634478E-01
          2   -1    0    0  501    0  0.00000000000E+00  0.00000000000E+00  0.13842872282E+04  0.13842872282E+04  0.00000000000E+00 0. -1.
         -2   -1    0    0    0  501 -0.00000000000E+00 -0.00000000000E+00 -0.68074112877E+03  0.68074112877E+03  0.00000000000E+00 0.  1.
         23    2    1    2    0    0  0.28512201066E+03  0.87708100109E+01  0.10271102723E+04  0.10700115833E+04  0.92724262171E+02 0.  0.
        254    2    1    2    0    0 -0.28512201066E+03 -0.87708100109E+01 -0.32356417290E+03  0.99501677367E+03  0.89665663319E+03 0.  0.
        -24    2    4    4    0    0 -0.29669935603E+03 -0.37540777284E+03  0.22104247286E+02  0.48556321123E+03  0.79508053517E+02 0.  0.
         24    2    4    4    0    0  0.11577345373E+02  0.36663696283E+03 -0.34566842019E+03  0.50945356244E+03  0.74159140599E+02 0.  0.
         11    1    3    3    0    0  0.63811889813E+02 -0.16309965669E+02  0.13084956422E+03  0.14649088954E+03  0.00000000000E+00 0.  1.
        -11    1    3    3    0    0  0.22131012084E+03  0.25080775680E+02  0.89626070811E+03  0.92352069376E+03  0.00000000000E+00 0. -1.
          4    1    6    6  502    0 -0.12698712655E+02  0.19977283891E+03 -0.23033164550E+03  0.30516079596E+03  0.00000000000E+00 0. -1.
          3    1    5    5  503    0  0.42562321913E+01 -0.10566101500E+02 -0.35052118946E+01  0.11918243318E+02  0.00000000000E+00 0. -1.
         -4    1    5    5    0  503 -0.30095558822E+03 -0.36484167134E+03  0.25609459181E+02  0.47364496791E+03  0.00000000000E+00 0.  1.
         -3    1    6    6    0  502  0.24276058028E+02  0.16686412392E+03 -0.11533677469E+03  0.20429276649E+03  0.00000000000E+00 0.  1.
<mgrwt>
<rscale>  0 0.19414853E+04</rscale>
<asrwt>0</asrwt>
<pdfrwt beam="1">  1        2 0.21296726E+00 0.19414853E+04</pdfrwt>
<pdfrwt beam="2">  1       -2 0.10472940E+00 0.19414853E+04</pdfrwt>
<totfact> 0.10202157E+01</totfact>
</mgrwt>
</event>
<event>
12    1  0.1519630E-007  0.1788167E+04  0.7818608E-02  0.8712618E-01
         -4   -1    0    0    0  501 -0.00000000000E+00  0.00000000000E+00  0.15014177545E+04  0.15014177545E+04  0.00000000000E+00 0. -1.
          4   -1    0    0  501    0  0.00000000000E+00 -0.00000000000E+00 -0.53242012045E+03  0.53242012045E+03  0.00000000000E+00 0.  1.
         23    2    1    2    0    0  0.14082121672E+03  0.60488624049E+03  0.65781643735E+03  0.90889176560E+03  0.87428812866E+02 0.  0.
        254    2    1    2    0    0 -0.14082121672E+03 -0.60488624049E+03  0.31118119672E+03  0.11249461094E+04  0.88484576779E+03 0.  0.
        -24    2    4    4    0    0  0.16969530209E+03 -0.53042590676E+03  0.49341893084E+03  0.74831776046E+03  0.79806586186E+02 0.  0.
         24    2    4    4    0    0 -0.31051651881E+03 -0.74460333731E+02 -0.18223773412E+03  0.37662834890E+03  0.81691319631E+02 0.  0.
         11    1    3    3    0    0  0.11049878150E+03  0.55082055678E+03  0.61815247094E+03  0.83529979278E+03  0.00000000000E+00 0. -1.
        -11    1    3    3    0    0  0.30322435224E+02  0.54065683712E+02  0.39663966409E+02  0.73591972826E+02  0.00000000000E+00 0.  1.
          2    1    6    6  502    0 -0.29109129640E+03 -0.80762885430E+02 -0.18749108252E+03  0.35554140761E+03  0.00000000000E+00 0. -1.
          3    1    5    5  503    0  0.15632190722E+03 -0.48176195103E+03  0.41372325181E+03  0.65398627296E+03  0.00000000000E+00 0. -1.
         -4    1    5    5    0  503  0.13373394871E+02 -0.48663955732E+02  0.79695679032E+02  0.94331487502E+02  0.00000000000E+00 0.  1.
         -1    1    6    6    0  502 -0.19425222412E+02  0.63025516994E+01  0.52533483914E+01  0.21086941291E+02  0.00000000000E+00 0.  1.
<mgrwt>
<rscale>  0 0.17881667E+04</rscale>
<asrwt>0</asrwt>
<pdfrwt beam="1">  1        4 0.81910788E-01 0.17881667E+04</pdfrwt>
<pdfrwt beam="2">  1       -4 0.23098734E+00 0.17881667E+04</pdfrwt>
<totfact> 0.20662982E-01</totfact>
</mgrwt>
</event>
<event>
12    1  0.1519630E-007  0.1391635E+04  0.7818608E-02  0.8959896E-01
          2   -1    0    0  501    0  0.00000000000E+00  0.00000000000E+00  0.63964221796E+03  0.63964221796E+03  0.00000000000E+00 0. -1.
         -2   -1    0    0    0  501 -0.00000000000E+00 -0.00000000000E+00 -0.75692674185E+03  0.75692674185E+03  0.00000000000E+00 0.  1.
         23    2    1    2    0    0 -0.81266924808E+02 -0.22391704465E+03  0.28532765037E+03  0.38366795866E+03  0.95110874691E+02 0.  0.
        254    2    1    2    0    0  0.81266924808E+02  0.22391704465E+03 -0.40261217426E+03  0.10129010012E+04  0.89840342793E+03 0.  0.
        -24    2    4    4    0    0 -0.35277064238E+03  0.31217212901E+03 -0.17681321398E+03  0.50930353969E+03  0.78921598084E+02 0.  0.
         24    2    4    4    0    0  0.43403756719E+03 -0.88255084355E+02 -0.22579896027E+03  0.50359746146E+03  0.80297341730E+02 0.  0.
         13    1    3    3    0    0 -0.33782943523E+02 -0.14741480652E+03  0.23789449676E+03  0.28189750628E+03  0.00000000000E+00 0. -1.
        -13    1    3    3    0    0 -0.47483981284E+02 -0.76502238131E+02  0.47433153608E+02  0.10177045239E+03  0.00000000000E+00 0.  1.
          4    1    6    6  502    0  0.15716946984E+03 -0.59481316943E+02 -0.54093942468E+02  0.17654014820E+03  0.00000000000E+00 0. -1.
          1    1    5    5  503    0 -0.24098857164E+03  0.23572687480E+03 -0.15896759039E+03  0.37271080741E+03  0.00000000000E+00 0. -1.
         -4    1    5    5    0  503 -0.11178207074E+03  0.76445254203E+02 -0.17845623590E+02  0.13659273227E+03  0.00000000000E+00 0.  1.
         -3    1    6    6    0  502  0.27686809735E+03 -0.28773767412E+02 -0.17170501781E+03  0.32705731326E+03  0.00000000000E+00 0.  1.
<mgrwt>
<rscale>  0 0.13916354E+04</rscale>
<asrwt>0</asrwt>
<pdfrwt beam="1">  1        2 0.98406495E-01 0.13916354E+04</pdfrwt>
<pdfrwt beam="2">  1       -2 0.11645027E+00 0.13916354E+04</pdfrwt>
<totfact> 0.25539849E+01</totfact>
</mgrwt>
</event>
<event>
12    1  0.1519630E-007  0.2274569E+04  0.7818608E-02  0.8488016E-01
          2   -1    0    0  501    0  0.00000000000E+00  0.00000000000E+00  0.35805644978E+04  0.35805644978E+04  0.00000000000E+00 0.  1.
         -2   -1    0    0    0  501 -0.00000000000E+00 -0.00000000000E+00 -0.36123251209E+03  0.36123251209E+03  0.00000000000E+00 0. -1.
         23    2    1    2    0    0  0.80861433251E+02  0.86538641584E+03  0.66618897741E+03  0.10988992653E+04  0.91321528817E+02 0.  0.
        254    2    1    2    0    0 -0.80861433251E+02 -0.86538641584E+03  0.25531430082E+04  0.28428977445E+04  0.89894168053E+03 0.  0.
        -24    2    4    4    0    0 -0.35243002011E+03 -0.29077009980E+02  0.62520385606E+03  0.72241066618E+03  0.77103290501E+02 0.  0.
         24    2    4    4    0    0  0.27156858686E+03 -0.83630940586E+03  0.19279391522E+04  0.21204870783E+04  0.79706681227E+02 0.  0.
         11    1    3    3    0    0  0.36648673833E+01  0.53725547450E+02  0.72570734226E+02  0.90368009649E+02  0.00000000000E+00 0.  1.
        -11    1    3    3    0    0  0.77196565868E+02  0.81166086839E+03  0.59361824319E+03  0.10085312557E+04  0.00000000000E+00 0. -1.
          4    1    6    6  502    0  0.54278877295E+02 -0.99170396313E+02  0.28872568785E+03  0.31007013215E+03  0.00000000000E+00 0. -1.
          3    1    5    5  503    0 -0.16360139323E+03 -0.30445878199E+02  0.22458985206E+03  0.27952275223E+03  0.00000000000E+00 0. -1.
         -4    1    5    5    0  503 -0.18882862688E+03  0.13688682196E+01  0.40061400399E+03  0.44288791395E+03  0.00000000000E+00 0.  1.
         -3    1    6    6    0  502  0.21728970957E+03 -0.73713900955E+03  0.16392134643E+04  0.18104169462E+04  0.00000000000E+00 0.  1.
<mgrwt>
<rscale>  0 0.22745692E+04</rscale>
<asrwt>0</asrwt>
<pdfrwt beam="1">  1        2 0.55085605E+00 0.22745692E+04</pdfrwt>
<pdfrwt beam="2">  1       -2 0.55574235E-01 0.22745692E+04</pdfrwt>
<totfact> 0.19770714E+00</totfact>
</mgrwt>
</event>
<event>
12    1  0.1519630E-007  0.1432687E+04  0.7818608E-02  0.8930492E-01
          2   -1    0    0  501    0  0.00000000000E+00  0.00000000000E+00  0.15595897573E+03  0.15595897573E+03  0.00000000000E+00 0. -1.
         -2   -1    0    0    0  501 -0.00000000000E+00 -0.00000000000E+00 -0.32902748777E+04  0.32902748777E+04  0.00000000000E+00 0.  1.
         23    2    1    2    0    0 -0.29175434934E+03  0.23945869555E+03 -0.90927716266E+03  0.98904669043E+03  0.94695987650E+02 0.  0.
        254    2    1    2    0    0  0.29175434934E+03 -0.23945869555E+03 -0.22250387393E+04  0.24571871630E+04  0.97185919524E+03 0.  0.
        -24    2    4    4    0    0  0.27795610892E+03 -0.57648118656E+03 -0.10507929216E+04  0.12328910232E+04  0.79147672500E+02 0.  0.
         24    2    4    4    0    0  0.13798240420E+02  0.33702249101E+03 -0.11742458177E+04  0.12242961398E+04  0.79203829763E+02 0.  0.
         11    1    3    3    0    0 -0.89867564287E+01  0.23182870657E+02 -0.22704783761E+02  0.33670676985E+02  0.00000000000E+00 0.  1.
        -11    1    3    3    0    0 -0.28276759291E+03  0.21627582490E+03 -0.88657237890E+03  0.95537601345E+03  0.00000000000E+00 0. -1.
          4    1    6    6  502    0  0.33384084149E+02  0.64912346020E+02 -0.28028685042E+03  0.28963568195E+03  0.00000000000E+00 0. -1.
          3    1    5    5  503    0 -0.25570291245E+01 -0.30679089454E+02 -0.60267851033E+02  0.67675392838E+02  0.00000000000E+00 0. -1.
         -4    1    5    5    0  503  0.28051313804E+03 -0.54580209711E+03 -0.99052507056E+03  0.11652156304E+04  0.00000000000E+00 0.  1.
         -3    1    6    6    0  502 -0.19585843729E+02  0.27211014499E+03 -0.89395896725E+03  0.93466045782E+03  0.00000000000E+00 0.  1.
<mgrwt>
<rscale>  0 0.14326868E+04</rscale>
<asrwt>0</asrwt>
<pdfrwt beam="1">  1        2 0.23993689E-01 0.14326868E+04</pdfrwt>
<pdfrwt beam="2">  1       -2 0.50619612E+00 0.14326868E+04</pdfrwt>
<totfact> 0.33860766E-01</totfact>
</mgrwt>
</event>
<event>
12    1  0.1519630E-007  0.1136058E+04  0.7818608E-02  0.9170742E-01
         -2   -1    0    0    0  501 -0.00000000000E+00  0.00000000000E+00  0.42598765877E+03  0.42598765877E+03  0.00000000000E+00 0.  1.
          2   -1    0    0  501    0  0.00000000000E+00 -0.00000000000E+00 -0.75743324204E+03  0.75743324204E+03  0.00000000000E+00 0. -1.
         23    2    1    2    0    0 -0.76924970961E+02 -0.58038049365E+02 -0.26308798292E+03  0.29432480609E+03  0.90143987009E+02 0.  0.
        254    2    1    2    0    0  0.76924970961E+02  0.58038049365E+02 -0.68357600348E+02  0.88909609471E+03  0.88121123334E+03 0.  0.
        -24    2    4    4    0    0 -0.27695608116E+03 -0.10915623241E+03 -0.29786540011E+03  0.42858413560E+03  0.79629207830E+02 0.  0.
         24    2    4    4    0    0  0.35388105212E+03  0.16719428178E+03  0.22950779976E+03  0.46051195910E+03  0.78814385838E+02 0.  0.
         11    1    3    3    0    0 -0.56172117304E+02 -0.14777560907E+02 -0.22692964552E+03  0.23424505776E+03  0.00000000000E+00 0. -1.
        -11    1    3    3    0    0 -0.20752853658E+02 -0.43260488459E+02 -0.36158337404E+02  0.60079748339E+02  0.00000000000E+00 0.  1.
          4    1    6    6  502    0  0.49459928329E+02  0.11365796503E+02  0.60736763153E+02  0.79148090557E+02  0.00000000000E+00 0. -1.
          1    1    5    5  503    0 -0.79510937768E+02  0.42854524972E+01 -0.63879996832E+02  0.10208334009E+03  0.00000000000E+00 0. -1.
         -2    1    5    5    0  503 -0.19744514339E+03 -0.11344168491E+03 -0.23398540328E+03  0.32650079552E+03  0.00000000000E+00 0.  1.
         -1    1    6    6    0  502  0.30442112379E+03  0.15582848528E+03  0.16877103661E+03  0.38136386855E+03  0.00000000000E+00 0.  1.
<mgrwt>
<rscale>  0 0.11360585E+04</rscale>
<asrwt>0</asrwt>
<pdfrwt beam="1">  1        2 0.11652819E+00 0.11360585E+04</pdfrwt>
<pdfrwt beam="2">  1       -2 0.65536564E-01 0.11360585E+04</pdfrwt>
<totfact> 0.78704744E+01</totfact>
</mgrwt>
</event>
<event>
12    1  0.1519630E-007  0.1445470E+04  0.7818608E-02  0.8921547E-01
          1   -1    0    0  501    0  0.00000000000E+00  0.00000000000E+00  0.14683681927E+04  0.14683681927E+04  0.00000000000E+00 0. -1.
         -1   -1    0    0    0  501 -0.00000000000E+00 -0.00000000000E+00 -0.35573224999E+03  0.35573224999E+03  0.00000000000E+00 0.  1.
         23    2    1    2    0    0 -0.25724588516E+03  0.20707697161E+02  0.77228919623E+03  0.81946797219E+03  0.92156935045E+02 0.  0.
        254    2    1    2    0    0  0.25724588516E+03 -0.20707697161E+02  0.34034674652E+03  0.10046324705E+04  0.90931085929E+03 0.  0.
        -24    2    4    4    0    0  0.25437059283E+03  0.31497600763E+02 -0.27354431612E+03  0.38361847869E+03  0.81487096907E+02 0.  0.
         24    2    4    4    0    0  0.28752923354E+01 -0.52205297924E+02  0.61389106264E+03  0.62101399184E+03  0.77861934494E+02 0.  0.
         13    1    3    3    0    0 -0.16112904219E+02 -0.22646631213E+02  0.10526425053E+03  0.10887175037E+03  0.00000000000E+00 0.  1.
        -13    1    3    3    0    0 -0.24113298094E+03  0.43354328374E+02  0.66702494569E+03  0.71059622182E+03  0.00000000000E+00 0. -1.
          4    1    6    6  502    0  0.18059244972E+02 -0.43338785940E+02  0.58706206351E+03  0.58893654421E+03  0.00000000000E+00 0. -1.
          3    1    5    5  503    0  0.25272514946E+03  0.27282991729E+02 -0.27839477427E+03  0.37698542830E+03  0.00000000000E+00 0. -1.
         -2    1    5    5    0  503  0.16454433681E+01  0.42146090336E+01  0.48504581545E+01  0.66330503912E+01  0.00000000000E+00 0.  1.
         -3    1    6    6    0  502 -0.15183952637E+02 -0.88665119840E+01  0.26828999128E+02  0.32077447633E+02  0.00000000000E+00 0.  1.
<mgrwt>
<rscale>  0 0.14454701E+04</rscale>
<asrwt>0</asrwt>
<pdfrwt beam="1">  1        1 0.22590280E+00 0.14454701E+04</pdfrwt>
<pdfrwt beam="2">  1       -1 0.54728039E-01 0.14454701E+04</pdfrwt>
<totfact> 0.22552581E+01</totfact>
</mgrwt>
</event>
<event>
12    1  0.1519630E-007  0.2020628E+04  0.7818608E-02  0.8597037E-01
         -2   -1    0    0    0  501 -0.00000000000E+00  0.00000000000E+00  0.32928053495E+03  0.32928053495E+03  0.00000000000E+00 0.  1.
          2   -1    0    0  501    0  0.00000000000E+00 -0.00000000000E+00 -0.30998926360E+04  0.30998926360E+04  0.00000000000E+00 0. -1.
         23    2    1    2    0    0  0.97512149540E+02  0.77477296070E+03 -0.74311725853E+03  0.10828666465E+04  0.10293276543E+03 0.  0.
        254    2    1    2    0    0 -0.97512149540E+02 -0.77477296070E+03 -0.20274948426E+04  0.23463065245E+04  0.88579749967E+03 0.  0.
        -24    2    4    4    0    0  0.17898428065E+03  0.54734503084E+02 -0.96250214902E+02  0.22480385941E+03  0.79002739139E+02 0.  0.
         24    2    4    4    0    0 -0.27649643019E+03 -0.82950746378E+03 -0.19312446277E+04  0.21215026651E+04  0.80838343541E+02 0.  0.
         13    1    3    3    0    0  0.16580258725E+02  0.18231546425E+03 -0.11797152023E+03  0.21778685238E+03  0.00000000000E+00 0. -1.
        -13    1    3    3    0    0  0.80931890815E+02  0.59245749645E+03 -0.62514573829E+03  0.86507979409E+03  0.00000000000E+00 0.  1.
          4    1    6    6  502    0 -0.19509770802E+03 -0.67325048047E+03 -0.15819801144E+04  0.17303151180E+04  0.00000000000E+00 0. -1.
          1    1    5    5  503    0  0.15025506369E+03  0.53631865834E+02 -0.10913716912E+03  0.19329739492E+03  0.00000000000E+00 0. -1.
         -2    1    5    5    0  503  0.28729216955E+02  0.11026372507E+01  0.12886954223E+02  0.31506464494E+02  0.00000000000E+00 0.  1.
         -3    1    6    6    0  502 -0.81398722168E+02 -0.15625698332E+03 -0.34926451321E+03  0.39118754709E+03  0.00000000000E+00 0.  1.
<mgrwt>
<rscale>  0 0.20206279E+04</rscale>
<asrwt>0</asrwt>
<pdfrwt beam="1">  1        2 0.47690655E+00 0.20206279E+04</pdfrwt>
<pdfrwt beam="2">  1       -2 0.50658545E-01 0.20206279E+04</pdfrwt>
<totfact> 0.51575380E+00</totfact>
</mgrwt>
</event>
<event>
12    1  0.1519630E-007  0.1835619E+04  0.7818608E-02  0.8687584E-01
         -2   -1    0    0    0  501 -0.00000000000E+00  0.00000000000E+00  0.20201706195E+03  0.20201706195E+03  0.00000000000E+00 0.  1.
          2   -1    0    0  501    0  0.00000000000E+00 -0.00000000000E+00 -0.41698184037E+04  0.41698184037E+04  0.00000000000E+00 0. -1.
         23    2    1    2    0    0  0.59195577177E+03  0.35566135431E+03 -0.16237789110E+04  0.17668994042E+04  0.91481790906E+02 0.  0.
        254    2    1    2    0    0 -0.59195577177E+03 -0.35566135431E+03 -0.23440224307E+04  0.26049360614E+04  0.90241015824E+03 0.  0.
        -24    2    4    4    0    0  0.76353866278E+02 -0.24055985733E+03 -0.14573565595E+03  0.30318259545E+03  0.83557446784E+02 0.  0.
         24    2    4    4    0    0 -0.66830963805E+03 -0.11510149699E+03 -0.21982867748E+04  0.23017534660E+04  0.75618431057E+02 0.  0.
         13    1    3    3    0    0  0.39011975879E+03  0.24088574564E+03 -0.11822112432E+04  0.12680074101E+04  0.00000000000E+00 0. -1.
        -13    1    3    3    0    0  0.20183601298E+03  0.11477560867E+03 -0.44156766788E+03  0.49889199412E+03  0.00000000000E+00 0.  1.
          2    1    6    6  502    0 -0.14730630238E+03 -0.38920681976E+02 -0.40283224373E+03  0.43068292605E+03  0.00000000000E+00 0. -1.
          1    1    5    5  503    0  0.93896268373E+02 -0.18372063023E+03 -0.11067007054E+03  0.23413168026E+03  0.00000000000E+00 0. -1.
         -2    1    5    5    0  503 -0.17542402095E+02 -0.56839227092E+02 -0.35065585417E+02  0.69050915188E+02  0.00000000000E+00 0.  1.
         -3    1    6    6    0  502 -0.52100333567E+03 -0.76180815012E+02 -0.17954545310E+04  0.18710705399E+04  0.00000000000E+00 0.  1.
<mgrwt>
<rscale>  0 0.18356192E+04</rscale>
<asrwt>0</asrwt>
<pdfrwt beam="1">  1        2 0.64151049E+00 0.18356192E+04</pdfrwt>
<pdfrwt beam="2">  1       -2 0.31079550E-01 0.18356192E+04</pdfrwt>
<totfact> 0.22672488E+00</totfact>
</mgrwt>
</event>
<event>
12    1  0.1519630E-007  0.1140556E+04  0.7818608E-02  0.9166540E-01
         -2   -1    0    0    0  501 -0.00000000000E+00  0.00000000000E+00  0.13093064874E+03  0.13093064874E+03  0.00000000000E+00 0.  1.
          2   -1    0    0  501    0  0.00000000000E+00 -0.00000000000E+00 -0.24838878855E+04  0.24838878855E+04  0.00000000000E+00 0. -1.
         23    2    1    2    0    0 -0.15989804868E+03 -0.11806219420E+03 -0.49637293511E+03  0.54270962761E+03  0.92960107147E+02 0.  0.
        254    2    1    2    0    0  0.15989804868E+03  0.11806219420E+03 -0.18565843016E+04  0.20721089066E+04  0.89845644532E+03 0.  0.
        -24    2    4    4    0    0  0.42352204885E+03  0.34485720078E+03 -0.96077992928E+03  0.11078143491E+04  0.76531985561E+02 0.  0.
         24    2    4    4    0    0 -0.26362400017E+03 -0.22679500658E+03 -0.89580437233E+03  0.96429455748E+03  0.80404798503E+02 0.  0.
         13    1    3    3    0    0 -0.82388088586E+02 -0.15590715898E+02 -0.26633080743E+03  0.27921849249E+03  0.00000000000E+00 0.  1.
        -13    1    3    3    0    0 -0.77509960093E+02 -0.10247147830E+03 -0.23004212768E+03  0.26349113512E+03  0.00000000000E+00 0. -1.
          4    1    6    6  502    0 -0.51160474014E+02 -0.59259551390E+02 -0.29795145704E+03  0.30806518674E+03  0.00000000000E+00 0. -1.
          3    1    5    5  503    0  0.73474028826E+02  0.97604270996E+02 -0.18955320028E+03  0.22551151271E+03  0.00000000000E+00 0. -1.
         -4    1    5    5    0  503  0.35004802002E+03  0.24725292978E+03 -0.77122672900E+03  0.88230283641E+03  0.00000000000E+00 0.  1.
         -3    1    6    6    0  502 -0.21246352615E+03 -0.16753545519E+03 -0.59785291529E+03  0.65622937074E+03  0.00000000000E+00 0.  1.
<mgrwt>
<rscale>  0 0.11405561E+04</rscale>
<asrwt>0</asrwt>
<pdfrwt beam="1">  1        2 0.38213658E+00 0.11405561E+04</pdfrwt>
<pdfrwt beam="2">  1       -2 0.20143178E-01 0.11405561E+04</pdfrwt>
<totfact> 0.74918556E+01</totfact>
</mgrwt>
</event>
<event>
12    1  0.1519630E-007  0.2339345E+04  0.7818608E-02  0.8462568E-01
         -2   -1    0    0    0  501 -0.00000000000E+00  0.00000000000E+00  0.82287668177E+03  0.82287668177E+03  0.00000000000E+00 0.  1.
          2   -1    0    0  501    0  0.00000000000E+00 -0.00000000000E+00 -0.16626230485E+04  0.16626230485E+04  0.00000000000E+00 0. -1.
         23    2    1    2    0    0 -0.97331333997E+03  0.70443694097E+02 -0.52893711839E+03  0.11140274215E+04  0.94770506238E+02 0.  0.
        254    2    1    2    0    0  0.97331333997E+03 -0.70443694097E+02 -0.31080924830E+03  0.13714723087E+04  0.91215828286E+03 0.  0.
        -24    2    4    4    0    0  0.90196599109E+03  0.27564072218E+03 -0.99511123685E+02  0.95186269975E+03  0.81361407507E+02 0.  0.
         24    2    4    4    0    0  0.71347348873E+02 -0.34608441628E+03 -0.21129812461E+03  0.41960960897E+03  0.80996661030E+02 0.  0.
         13    1    3    3    0    0 -0.19508759695E+03  0.15817360474E+02 -0.64376756955E+02  0.20604302030E+03  0.00000000000E+00 0. -1.
        -13    1    3    3    0    0 -0.77822574302E+03  0.54626333623E+02 -0.46456036144E+03  0.90798440121E+03  0.00000000000E+00 0.  1.
          4    1    6    6  502    0  0.39158486766E+02 -0.13235171629E+03 -0.39663089266E+02  0.14360892918E+03  0.00000000000E+00 0. -1.
          1    1    5    5  503    0  0.56911729626E+03  0.21465233659E+03 -0.62452916414E+02  0.61144949855E+03  0.00000000000E+00 0. -1.
         -2    1    5    5    0  503  0.33284869483E+03  0.60988385593E+02 -0.37058207271E+02  0.34041320120E+03  0.00000000000E+00 0.  1.
         -3    1    6    6    0  502  0.32188862107E+02 -0.21373269999E+03 -0.17163503535E+03  0.27600067979E+03  0.00000000000E+00 0.  1.
<mgrwt>
<rscale>  0 0.23393450E+04</rscale>
<asrwt>0</asrwt>
<pdfrwt beam="1">  1        2 0.25578816E+00 0.23393450E+04</pdfrwt>
<pdfrwt beam="2">  1       -2 0.12659641E+00 0.23393450E+04</pdfrwt>
<totfact> 0.43186915E+00</totfact>
</mgrwt>
</event>
<event>
12    1  0.1519630E-007  0.1258743E+04  0.7818608E-02  0.9062938E-01
          2   -1    0    0  501    0  0.00000000000E+00  0.00000000000E+00  0.13401686127E+04  0.13401686127E+04  0.00000000000E+00 0. -1.
         -2   -1    0    0    0  501 -0.00000000000E+00 -0.00000000000E+00 -0.29556625791E+03  0.29556625791E+03  0.00000000000E+00 0.  1.
         23    2    1    2    0    0 -0.77787474960E+02 -0.12320566512E+03 -0.76149155036E+02  0.18740609635E+03  0.89954566084E+02 0.  0.
        254    2    1    2    0    0  0.77787474960E+02  0.12320566512E+03  0.11207515098E+04  0.14483287742E+04  0.90572720195E+03 0.  0.
        -24    2    4    4    0    0 -0.34391473711E+02  0.23692788047E+03 -0.56185782049E+02  0.25795457600E+03  0.77885346298E+02 0.  0.
         24    2    4    4    0    0  0.11217894867E+03 -0.11372221535E+03  0.11769372918E+04  0.11903741982E+04  0.79325179326E+02 0.  0.
         13    1    3    3    0    0 -0.46608911254E+02 -0.61852555117E+02 -0.88374093449E+02  0.11750791282E+03  0.00000000000E+00 0.  1.
        -13    1    3    3    0    0 -0.31178563706E+02 -0.61353110003E+02  0.12224938413E+02  0.69898183531E+02  0.00000000000E+00 0. -1.
          4    1    6    6  502    0  0.10548385279E+02 -0.11794291133E+02  0.25749081602E+02  0.30222325170E+02  0.00000000000E+00 0. -1.
          3    1    5    5  503    0 -0.23093921502E+02  0.39787889540E+02 -0.37974938520E+02  0.59653175271E+02  0.00000000000E+00 0. -1.
         -4    1    5    5    0  503 -0.11297552209E+02  0.19713999093E+03 -0.18210843529E+02  0.19830140073E+03  0.00000000000E+00 0.  1.
         -3    1    6    6    0  502  0.10163056339E+03 -0.10192792422E+03  0.11511882102E+04  0.11601518730E+04  0.00000000000E+00 0.  1.
<mgrwt>
<rscale>  0 0.12587432E+04</rscale>
<asrwt>0</asrwt>
<pdfrwt beam="1">  1        2 0.20617978E+00 0.12587432E+04</pdfrwt>
<pdfrwt beam="2">  1       -2 0.45471733E-01 0.12587432E+04</pdfrwt>
<totfact> 0.70591320E+01</totfact>
</mgrwt>
</event>
<event>
12    1  0.1519630E-007  0.1982760E+04  0.7818608E-02  0.8614724E-01
         -2   -1    0    0    0  501 -0.00000000000E+00  0.00000000000E+00  0.38426006431E+03  0.38426006431E+03  0.00000000000E+00 0.  1.
          2   -1    0    0  501    0  0.00000000000E+00 -0.00000000000E+00 -0.25577325290E+04  0.25577325290E+04  0.00000000000E+00 0. -1.
         23    2    1    2    0    0 -0.22161025278E+03 -0.21816066451E+03  0.20501193267E+03  0.38234814107E+03  0.86342508472E+02 0.  0.
        254    2    1    2    0    0  0.22161025278E+03  0.21816066451E+03 -0.23784843974E+04  0.25596444523E+04  0.89324493490E+03 0.  0.
        -24    2    4    4    0    0  0.34878576669E+03  0.43670948918E+03 -0.93895332315E+03  0.10959578700E+04  0.84401544670E+02 0.  0.
         24    2    4    4    0    0 -0.12717551392E+03 -0.21854882467E+03 -0.14395310742E+04  0.14636865823E+04  0.78686068333E+02 0.  0.
         13    1    3    3    0    0 -0.89532710856E+02 -0.55251889797E+02  0.10965572093E+03  0.15196464975E+03  0.00000000000E+00 0. -1.
        -13    1    3    3    0    0 -0.13207754192E+03 -0.16290877471E+03  0.95356211737E+02  0.23038349133E+03  0.00000000000E+00 0.  1.
          2    1    6    6  502    0 -0.96089805001E+02 -0.11336689239E+03 -0.98270739379E+03  0.99388084030E+03  0.00000000000E+00 0. -1.
          3    1    5    5  503    0  0.26021908472E+03  0.26259410238E+03 -0.62808858557E+03  0.72881061050E+03  0.00000000000E+00 0. -1.
         -4    1    5    5    0  503  0.88566681976E+02  0.17411538680E+03 -0.31086473759E+03  0.36714725949E+03  0.00000000000E+00 0.  1.
         -1    1    6    6    0  502 -0.31085708915E+02 -0.10518193227E+03 -0.45682368046E+03  0.46980574198E+03  0.00000000000E+00 0.  1.
<mgrwt>
<rscale>  0 0.19827602E+04</rscale>
<asrwt>0</asrwt>
<pdfrwt beam="1">  1        2 0.39349732E+00 0.19827602E+04</pdfrwt>
<pdfrwt beam="2">  1       -2 0.59116932E-01 0.19827602E+04</pdfrwt>
<totfact> 0.80164739E+00</totfact>
</mgrwt>
</event>
<event>
12    1  0.1519630E-007  0.1580940E+04  0.7818608E-02  0.8832343E-01
         -1   -1    0    0    0  501 -0.00000000000E+00  0.00000000000E+00  0.32739961968E+03  0.32739961968E+03  0.00000000000E+00 0.  1.
          1   -1    0    0  501    0  0.00000000000E+00 -0.00000000000E+00 -0.19085024711E+04  0.19085024711E+04  0.00000000000E+00 0. -1.
         23    2    1    2    0    0  0.43764676763E+03  0.26436677449E+03 -0.61247227419E+03  0.80317423988E+03  0.92423418505E+02 0.  0.
        254    2    1    2    0    0 -0.43764676763E+03 -0.26436677449E+03 -0.96863057727E+03  0.14327278509E+04  0.92360132902E+03 0.  0.
        -24    2    4    4    0    0 -0.32958518449E+03  0.52294648512E+02 -0.10281980394E+04  0.10840034640E+04  0.80691868421E+02 0.  0.
         24    2    4    4    0    0 -0.10806158314E+03 -0.31666142300E+03  0.59567462150E+02  0.34872438693E+03  0.78157871800E+02 0.  0.
         11    1    3    3    0    0  0.45802797072E+02  0.62595444272E+02 -0.72580385143E+02  0.10622616519E+03  0.00000000000E+00 0. -1.
        -11    1    3    3    0    0  0.39184397055E+03  0.20177133022E+03 -0.53989188905E+03  0.69694807469E+03  0.00000000000E+00 0.  1.
          2    1    6    6  502    0 -0.10270850840E+03 -0.31093950900E+03  0.42841647568E+02  0.33025417896E+03  0.00000000000E+00 0. -1.
          3    1    5    5  503    0 -0.33100901934E+03  0.57570970758E+02 -0.99096208281E+03  0.10463685952E+04  0.00000000000E+00 0. -1.
         -4    1    5    5    0  503  0.14238348536E+01 -0.52763222464E+01 -0.37235956612E+02  0.37634868765E+02  0.00000000000E+00 0.  1.
         -1    1    6    6    0  502 -0.53530747365E+01 -0.57219140038E+01  0.16725814582E+02  0.18470207970E+02  0.00000000000E+00 0.  1.
<mgrwt>
<rscale>  0 0.15809402E+04</rscale>
<asrwt>0</asrwt>
<pdfrwt beam="1">  1        1 0.29361576E+00 0.15809402E+04</pdfrwt>
<pdfrwt beam="2">  1       -1 0.50369172E-01 0.15809402E+04</pdfrwt>
<totfact> 0.13081220E+01</totfact>
</mgrwt>
</event>
<event>
12    1  0.1519630E-007  0.1349179E+04  0.7818608E-02  0.8991450E-01
         -1   -1    0    0    0  501 -0.00000000000E+00  0.00000000000E+00  0.14549611221E+04  0.14549611221E+04  0.00000000000E+00 0.  1.
          1   -1    0    0  501    0  0.00000000000E+00 -0.00000000000E+00 -0.31277206144E+03  0.31277206144E+03  0.00000000000E+00 0. -1.
         23    2    1    2    0    0 -0.79243847531E+02  0.10915932901E+03  0.73914669377E+03  0.75677609597E+03  0.90426091621E+02 0.  0.
        254    2    1    2    0    0  0.79243847531E+02 -0.10915932901E+03  0.40304236691E+03  0.10109570876E+04  0.91727625987E+03 0.  0.
        -24    2    4    4    0    0 -0.12561001557E+03  0.25084022102E+03 -0.14040563897E+03  0.32296898994E+03  0.76788882779E+02 0.  0.
         24    2    4    4    0    0  0.20485386310E+03 -0.35999955002E+03  0.54344800588E+03  0.68798809764E+03  0.80169234461E+02 0.  0.
         11    1    3    3    0    0 -0.46417338376E+02  0.78851580103E+02  0.26152766078E+03  0.27707193712E+03  0.00000000000E+00 0. -1.
        -11    1    3    3    0    0 -0.32826509156E+02  0.30307748903E+02  0.47761903299E+03  0.47970415885E+03  0.00000000000E+00 0.  1.
          2    1    6    6  502    0  0.20500922710E+03 -0.31607217540E+03  0.46934033715E+03  0.60183947638E+03  0.00000000000E+00 0. -1.
          1    1    5    5  503    0 -0.12247053000E+03  0.24094237691E+03 -0.11171915051E+03  0.29246098595E+03  0.00000000000E+00 0. -1.
         -2    1    5    5    0  503 -0.31394855686E+01  0.98978441044E+01 -0.28686488460E+02  0.30508003994E+02  0.00000000000E+00 0.  1.
         -1    1    6    6    0  502 -0.15536400367E+00 -0.43927374625E+02  0.74107668736E+02  0.86148621259E+02  0.00000000000E+00 0.  1.
<mgrwt>
<rscale>  0 0.13491793E+04</rscale>
<asrwt>0</asrwt>
<pdfrwt beam="1">  1        1 0.48118780E-01 0.13491793E+04</pdfrwt>
<pdfrwt beam="2">  1       -1 0.22384017E+00 0.13491793E+04</pdfrwt>
<totfact> 0.84333504E+00</totfact>
</mgrwt>
</event>
<event>
12    1  0.1519630E-007  0.2388242E+04  0.7818608E-02  0.8443919E-01
         -2   -1    0    0    0  501 -0.00000000000E+00  0.00000000000E+00  0.94127494476E+03  0.94127494476E+03  0.00000000000E+00 0.  1.
          2   -1    0    0  501    0  0.00000000000E+00 -0.00000000000E+00 -0.15148871704E+04  0.15148871704E+04  0.00000000000E+00 0. -1.
         23    2    1    2    0    0  0.59103403163E+03 -0.17193349656E+03  0.55188190853E+03  0.83170462856E+03  0.90975790285E+02 0.  0.
        254    2    1    2    0    0 -0.59103403163E+03  0.17193349656E+03 -0.11254941341E+04  0.16244574866E+04  0.99661563601E+03 0.  0.
        -24    2    4    4    0    0 -0.49694867074E+03 -0.25473495307E+03 -0.10239504132E+04  0.11690585910E+04  0.79847748052E+02 0.  0.
         24    2    4    4    0    0 -0.94085360883E+02  0.42666844963E+03 -0.10154372097E+03  0.45539889559E+03  0.78606652343E+02 0.  0.
         11    1    3    3    0    0  0.26997863113E+03 -0.67238456563E+02  0.19107430202E+03  0.33751868127E+03  0.00000000000E+00 0. -1.
        -11    1    3    3    0    0  0.32105540049E+03 -0.10469504000E+03  0.36080760651E+03  0.49418594729E+03  0.00000000000E+00 0.  1.
          4    1    6    6  502    0 -0.10713485767E+03  0.36829024355E+03 -0.79940104428E+02  0.39179841949E+03  0.00000000000E+00 0. -1.
          3    1    5    5  503    0 -0.40649440251E+03 -0.23030048972E+03 -0.80231357732E+03  0.92843044499E+03  0.00000000000E+00 0. -1.
         -4    1    5    5    0  503 -0.90454268238E+02 -0.24434463343E+02 -0.22163683584E+03  0.24062814599E+03  0.00000000000E+00 0.  1.
         -3    1    6    6    0  502  0.13049496792E+02  0.58378206080E+02 -0.21603616537E+02  0.63600476092E+02  0.00000000000E+00 0.  1.
<mgrwt>
<rscale>  0 0.23882423E+04</rscale>
<asrwt>0</asrwt>
<pdfrwt beam="1">  1        2 0.23305956E+00 0.23882423E+04</pdfrwt>
<pdfrwt beam="2">  1       -2 0.14481153E+00 0.23882423E+04</pdfrwt>
<totfact> 0.36853513E+00</totfact>
</mgrwt>
</event>
<event>
12    1  0.1519630E-007  0.1900013E+04  0.7818608E-02  0.8654850E-01
         -2   -1    0    0    0  501 -0.00000000000E+00  0.00000000000E+00  0.75625751852E+03  0.75625751852E+03  0.00000000000E+00 0.  1.
          2   -1    0    0  501    0  0.00000000000E+00 -0.00000000000E+00 -0.11933930018E+04  0.11933930018E+04  0.00000000000E+00 0. -1.
         23    2    1    2    0    0  0.88190883727E+02  0.13810080091E+03  0.55883640921E+03  0.58919738787E+03  0.89476066252E+02 0.  0.
        254    2    1    2    0    0 -0.88190883727E+02 -0.13810080091E+03 -0.99597189245E+03  0.13604531324E+04  0.91215308569E+03 0.  0.
        -24    2    4    4    0    0  0.36489195279E+03 -0.21372571689E+03 -0.30408993979E+03  0.52624860019E+03  0.75113770075E+02 0.  0.
         24    2    4    4    0    0 -0.45308283652E+03  0.75624915979E+02 -0.69188195266E+03  0.83420453220E+03  0.78698033498E+02 0.  0.
         11    1    3    3    0    0  0.80779802952E+02  0.15086733391E+03  0.49754369007E+03  0.52615211919E+03  0.00000000000E+00 0.  1.
        -11    1    3    3    0    0  0.74110807750E+01 -0.12766532995E+02  0.61292719143E+02  0.63045268680E+02  0.00000000000E+00 0. -1.
          4    1    6    6  502    0 -0.43559056258E+03  0.87836119914E+02 -0.66651671680E+03  0.80106108128E+03  0.00000000000E+00 0. -1.
          3    1    5    5  503    0  0.13817525006E+02 -0.29670197039E+02 -0.17603138990E+02  0.37163356844E+02  0.00000000000E+00 0. -1.
         -4    1    5    5    0  503  0.35107442778E+03 -0.18405551985E+03 -0.28648680080E+03  0.48908524335E+03  0.00000000000E+00 0.  1.
         -3    1    6    6    0  502 -0.17492273939E+02 -0.12211203935E+02 -0.25365235853E+02  0.33143450921E+02  0.00000000000E+00 0.  1.
<mgrwt>
<rscale>  0 0.19000131E+04</rscale>
<asrwt>0</asrwt>
<pdfrwt beam="1">  1        2 0.18359892E+00 0.19000131E+04</pdfrwt>
<pdfrwt beam="2">  1       -2 0.11634731E+00 0.19000131E+04</pdfrwt>
<totfact> 0.10260846E+01</totfact>
</mgrwt>
</event>
<event>
12    1  0.1519630E-007  0.1912529E+04  0.7818608E-02  0.8648645E-01
          2   -1    0    0  501    0  0.00000000000E+00  0.00000000000E+00  0.11890377273E+04  0.11890377273E+04  0.00000000000E+00 0. -1.
         -2   -1    0    0    0  501 -0.00000000000E+00 -0.00000000000E+00 -0.76906022455E+03  0.76906022455E+03  0.00000000000E+00 0.  1.
         23    2    1    2    0    0 -0.24413607825E+03  0.65984511150E+03  0.21058638705E+03  0.74015271204E+03  0.92094597268E+02 0.  0.
        254    2    1    2    0    0  0.24413607825E+03 -0.65984511150E+03  0.20939111567E+03  0.12179452398E+04  0.97187857880E+03 0.  0.
        -24    2    4    4    0    0  0.24223575567E+03 -0.70843750540E+03  0.50575621490E+03  0.90710252252E+03  0.80521904292E+02 0.  0.
         24    2    4    4    0    0  0.19003225806E+01  0.48592393902E+02 -0.29636509923E+03  0.31084271727E+03  0.80162902060E+02 0.  0.
         13    1    3    3    0    0 -0.22946009814E+03  0.51448954124E+03  0.17289900271E+03  0.58927539387E+03  0.00000000000E+00 0. -1.
        -13    1    3    3    0    0 -0.14675980115E+02  0.14535557026E+03  0.37687384337E+02  0.15087731817E+03  0.00000000000E+00 0.  1.
          2    1    6    6  502    0  0.32435583707E+02  0.44213649679E+02 -0.24383514293E+03  0.24992497042E+03  0.00000000000E+00 0. -1.
          1    1    5    5  503    0  0.22397284593E+03 -0.63932610808E+03  0.48337231890E+03  0.83219619493E+03  0.00000000000E+00 0. -1.
         -2    1    5    5    0  503  0.18262909742E+02 -0.69111397329E+02  0.22383895994E+02  0.74906327589E+02  0.00000000000E+00 0.  1.
         -1    1    6    6    0  502 -0.30535261126E+02  0.43787442234E+01 -0.52529956291E+02  0.60917746848E+02  0.00000000000E+00 0.  1.
<mgrwt>
<rscale>  0 0.19125288E+04</rscale>
<asrwt>0</asrwt>
<pdfrwt beam="1">  1        2 0.18292888E+00 0.19125288E+04</pdfrwt>
<pdfrwt beam="2">  1       -2 0.11831696E+00 0.19125288E+04</pdfrwt>
<totfact> 0.98962161E+00</totfact>
</mgrwt>
</event>
<event>
12    1  0.1519630E-007  0.1680246E+04  0.7818608E-02  0.8772712E-01
         -1   -1    0    0    0  501 -0.00000000000E+00  0.00000000000E+00  0.28804849858E+03  0.28804849858E+03  0.00000000000E+00 0.  1.
          1   -1    0    0  501    0  0.00000000000E+00 -0.00000000000E+00 -0.24503052893E+04  0.24503052893E+04  0.00000000000E+00 0. -1.
         23    2    1    2    0    0 -0.90138688272E+02 -0.52903269808E+03 -0.11843547110E+04  0.13034678691E+04  0.91278834139E+02 0.  0.
        254    2    1    2    0    0  0.90138688272E+02  0.52903269808E+03 -0.97790207979E+03  0.14348859189E+04  0.90255445470E+03 0.  0.
        -24    2    4    4    0    0 -0.18918219528E+03 -0.18574928143E+03 -0.29638245264E+03  0.40517488079E+03  0.77662263873E+02 0.  0.
         24    2    4    4    0    0  0.27932088355E+03  0.71478197951E+03 -0.68151962715E+03  0.10297110381E+04  0.83080596310E+02 0.  0.
         11    1    3    3    0    0 -0.14152919844E+02 -0.80965281162E+02 -0.27266972213E+03  0.28478844650E+03  0.00000000000E+00 0. -1.
        -11    1    3    3    0    0 -0.75985768429E+02 -0.44806741692E+03 -0.91168498884E+03  0.10186794226E+04  0.00000000000E+00 0.  1.
          2    1    6    6  502    0  0.28219985655E+03  0.68482182555E+03 -0.66481933048E+03  0.99529012553E+03  0.00000000000E+00 0. -1.
          3    1    5    5  503    0 -0.18494806670E+03 -0.16196282152E+03 -0.29000886839E+03  0.38018796230E+03  0.00000000000E+00 0. -1.
         -4    1    5    5    0  503 -0.42341285820E+01 -0.23786459907E+02 -0.63735842517E+01  0.24986918497E+02  0.00000000000E+00 0.  1.
         -3    1    6    6    0  502 -0.28789729953E+01  0.29960153955E+02 -0.16700296675E+02  0.34420912533E+02  0.00000000000E+00 0.  1.
<mgrwt>
<rscale>  0 0.16802461E+04</rscale>
<asrwt>0</asrwt>
<pdfrwt beam="1">  1        1 0.37697006E+00 0.16802461E+04</pdfrwt>
<pdfrwt beam="2">  1       -1 0.44315151E-01 0.16802461E+04</pdfrwt>
<totfact> 0.70552047E+00</totfact>
</mgrwt>
</event>
<event>
12    1  0.1519630E-007  0.2456782E+04  0.7818608E-02  0.8418546E-01
         -1   -1    0    0    0  501 -0.00000000000E+00  0.00000000000E+00  0.11935576772E+04  0.11935576772E+04  0.00000000000E+00 0.  1.
          1   -1    0    0  501    0  0.00000000000E+00 -0.00000000000E+00 -0.12642408463E+04  0.12642408463E+04  0.00000000000E+00 0. -1.
         23    2    1    2    0    0 -0.49789622750E+03 -0.71399715457E+03 -0.63810509828E+03  0.10829071230E+04  0.88414537880E+02 0.  0.
        254    2    1    2    0    0  0.49789622750E+03  0.71399715457E+03  0.56742192914E+03  0.13748914005E+04  0.90036999472E+03 0.  0.
        -24    2    4    4    0    0  0.48956052718E+03  0.14030810977E+03  0.60456235882E+03  0.79443150201E+03  0.79182638538E+02 0.  0.
         24    2    4    4    0    0  0.83357003215E+01  0.57368904481E+03 -0.37140429676E+02  0.58045989849E+03  0.79785200402E+02 0.  0.
         13    1    3    3    0    0 -0.35363854286E+03 -0.55529093235E+03 -0.44801604006E+03  0.79632067077E+03  0.00000000000E+00 0. -1.
        -13    1    3    3    0    0 -0.14425768464E+03 -0.15870622223E+03 -0.19008905822E+03  0.28658645224E+03  0.00000000000E+00 0.  1.
          2    1    6    6  502    0 -0.25696706254E+02  0.45624476908E+03 -0.27017833121E+02  0.45776584990E+03  0.00000000000E+00 0. -1.
          3    1    5    5  503    0  0.40778492099E+03  0.88684689878E+02  0.51244427759E+03  0.66087264556E+03  0.00000000000E+00 0. -1.
         -4    1    5    5    0  503  0.81775606187E+02  0.51623419887E+02  0.92118081225E+02  0.13355885645E+03  0.00000000000E+00 0.  1.
         -1    1    6    6    0  502  0.34032406575E+02  0.11744427573E+03 -0.10122596555E+02  0.12269404859E+03  0.00000000000E+00 0.  1.
<mgrwt>
<rscale>  0 0.24567819E+04</rscale>
<asrwt>0</asrwt>
<pdfrwt beam="1">  1        1 0.19449859E+00 0.24567819E+04</pdfrwt>
<pdfrwt beam="2">  1       -1 0.18362426E+00 0.24567819E+04</pdfrwt>
<totfact> 0.16777734E+00</totfact>
</mgrwt>
</event>
<event>
12    1  0.1519630E-007  0.1246333E+04  0.7818608E-02  0.9073241E-01
          1   -1    0    0  501    0  0.00000000000E+00  0.00000000000E+00  0.28200456083E+03  0.28200456083E+03  0.00000000000E+00 0. -1.
         -1   -1    0    0    0  501 -0.00000000000E+00 -0.00000000000E+00 -0.13770579667E+04  0.13770579667E+04  0.00000000000E+00 0.  1.
         23    2    1    2    0    0 -0.21562717340E+03 -0.13620066526E+03 -0.82689634432E+02  0.28355611970E+03  0.92308169989E+02 0.  0.
        254    2    1    2    0    0  0.21562717340E+03  0.13620066526E+03 -0.10123637714E+04  0.13755064078E+04  0.89559576434E+03 0.  0.
        -24    2    4    4    0    0  0.19397633094E+03  0.49022198703E+03 -0.41305678888E+03  0.67447263707E+03  0.79705795227E+02 0.  0.
         24    2    4    4    0    0  0.21650842469E+02 -0.35402132176E+03 -0.59930698251E+03  0.70103377071E+03  0.80496168532E+02 0.  0.
         11    1    3    3    0    0 -0.11162076721E+03 -0.11820031356E+03 -0.70848181575E+02  0.17734140698E+03  0.00000000000E+00 0.  1.
        -11    1    3    3    0    0 -0.10400640620E+03 -0.18000351700E+02 -0.11841452858E+02  0.10621471271E+03  0.00000000000E+00 0. -1.
          4    1    6    6  502    0 -0.29116701657E+02 -0.11174005903E+03 -0.17096534248E+03  0.20630746821E+03  0.00000000000E+00 0. -1.
          3    1    5    5  503    0  0.63681874252E+02  0.15190262802E+03 -0.84130385851E+02  0.18495326797E+03  0.00000000000E+00 0. -1.
         -4    1    5    5    0  503  0.13029445668E+03  0.33831935900E+03 -0.32892640303E+03  0.48951936911E+03  0.00000000000E+00 0.  1.
         -3    1    6    6    0  502  0.50767544125E+02 -0.24228126273E+03 -0.42834164003E+03  0.49472630251E+03  0.00000000000E+00 0.  1.
<mgrwt>
<rscale>  0 0.12463332E+04</rscale>
<asrwt>0</asrwt>
<pdfrwt beam="1">  1        1 0.43385316E-01 0.12463332E+04</pdfrwt>
<pdfrwt beam="2">  1       -1 0.21185507E+00 0.12463332E+04</pdfrwt>
<totfact> 0.11714183E+01</totfact>
</mgrwt>
</event>
<event>
12    1  0.1519630E-007  0.1392191E+04  0.7818608E-02  0.8959491E-01
          1   -1    0    0  501    0  0.00000000000E+00  0.00000000000E+00  0.82107272812E+03  0.82107272812E+03  0.00000000000E+00 0. -1.
         -1   -1    0    0    0  501 -0.00000000000E+00 -0.00000000000E+00 -0.59014108552E+03  0.59014108552E+03  0.00000000000E+00 0.  1.
         23    2    1    2    0    0 -0.20478737174E+03  0.73450385178E+02 -0.28110583586E+03  0.36664310053E+03  0.89854579789E+02 0.  0.
        254    2    1    2    0    0  0.20478737174E+03 -0.73450385178E+02  0.51203747846E+03  0.10445707131E+04  0.88408866559E+03 0.  0.
        -24    2    4    4    0    0  0.51516731202E+03  0.80747685470E+02  0.42683990319E+03  0.67880053564E+03  0.81610759986E+02 0.  0.
         24    2    4    4    0    0 -0.31037994029E+03 -0.15419807065E+03  0.85197575272E+02  0.36577017747E+03  0.80102706368E+02 0.  0.
         13    1    3    3    0    0  0.60022810177E+01  0.65894984456E+01  0.83769930877E-01  0.89138030369E+01  0.00000000000E+00 0. -1.
        -13    1    3    3    0    0 -0.21078965275E+03  0.66860886733E+02 -0.28118960579E+03  0.35772929749E+03  0.00000000000E+00 0.  1.
          4    1    6    6  502    0  0.24681327904E+01 -0.10279159977E+02 -0.14557435896E+01  0.10671082358E+02  0.00000000000E+00 0. -1.
          3    1    5    5  503    0  0.28413864366E+03  0.77649519375E+02  0.20827779912E+03  0.36075456794E+03  0.00000000000E+00 0. -1.
         -2    1    5    5    0  503  0.23102866837E+03  0.30981660953E+01  0.21856210406E+03  0.31804596770E+03  0.00000000000E+00 0.  1.
         -3    1    6    6    0  502 -0.31284807308E+03 -0.14391891067E+03  0.86653318861E+02  0.35509909511E+03  0.00000000000E+00 0.  1.
<mgrwt>
<rscale>  0 0.13921907E+04</rscale>
<asrwt>0</asrwt>
<pdfrwt beam="1">  1        1 0.12631888E+00 0.13921907E+04</pdfrwt>
<pdfrwt beam="2">  1       -1 0.90790936E-01 0.13921907E+04</pdfrwt>
<totfact> 0.24513810E+01</totfact>
</mgrwt>
</event>
<event>
12    1  0.1519630E-007  0.3176530E+04  0.7818608E-02  0.8195043E-01
          2   -1    0    0  501    0  0.00000000000E+00  0.00000000000E+00  0.32259538142E+04  0.32259538142E+04  0.00000000000E+00 0. -1.
         -2   -1    0    0    0  501 -0.00000000000E+00 -0.00000000000E+00 -0.78196588785E+03  0.78196588785E+03  0.00000000000E+00 0.  1.
         23    2    1    2    0    0 -0.35079569354E+03 -0.11646340226E+04  0.21478386787E+04  0.24699224684E+04  0.88746748199E+02 0.  0.
        254    2    1    2    0    0  0.35079569354E+03  0.11646340226E+04  0.29614924763E+03  0.15379972336E+04  0.89347696585E+03 0.  0.
        -24    2    4    4    0    0  0.42799844875E+03  0.12520079930E+04  0.15031350482E+03  0.13340351910E+04  0.79680954001E+02 0.  0.
         24    2    4    4    0    0 -0.77202755210E+02 -0.87373970477E+02  0.14583574282E+03  0.20396204254E+03  0.82085167873E+02 0.  0.
         11    1    3    3    0    0 -0.25994571001E+03 -0.94122423768E+03  0.17755849854E+04  0.20263703704E+04  0.00000000000E+00 0. -1.
        -11    1    3    3    0    0 -0.90849983534E+02 -0.22340978488E+03  0.37225369330E+03  0.44355209803E+03  0.00000000000E+00 0.  1.
          4    1    6    6  502    0 -0.39327777892E+02 -0.78835610205E+02  0.51738266388E+02  0.10216934843E+03  0.00000000000E+00 0. -1.
          3    1    5    5  503    0  0.51518961842E+02  0.15467523206E+03  0.45112924933E+02  0.16915616110E+03  0.00000000000E+00 0. -1.
         -4    1    5    5    0  503  0.37647948691E+03  0.10973327610E+04  0.10520057988E+03  0.11648790299E+04  0.00000000000E+00 0.  1.
         -3    1    6    6    0  502 -0.37874977317E+02 -0.85383602717E+01  0.94097476431E+02  0.10179269411E+03  0.00000000000E+00 0.  1.
<mgrwt>
<rscale>  0 0.31765301E+04</rscale>
<asrwt>0</asrwt>
<pdfrwt beam="1">  1        2 0.49630058E+00 0.31765301E+04</pdfrwt>
<pdfrwt beam="2">  1       -2 0.12030245E+00 0.31765301E+04</pdfrwt>
<totfact> 0.55463810E-01</totfact>
</mgrwt>
</event>
<event>
12    1  0.1519630E-007  0.1663099E+04  0.7818608E-02  0.8782695E-01
         -1   -1    0    0    0  501 -0.00000000000E+00  0.00000000000E+00  0.54116514357E+03  0.54116514357E+03  0.00000000000E+00 0.  1.
          1   -1    0    0  501    0  0.00000000000E+00 -0.00000000000E+00 -0.12777514880E+04  0.12777514880E+04  0.00000000000E+00 0. -1.
         23    2    1    2    0    0 -0.54967233493E+03 -0.17930919078E+03 -0.22325999054E+03  0.62654797067E+03  0.91792562239E+02 0.  0.
        254    2    1    2    0    0  0.54967233493E+03  0.17930919078E+03 -0.51332635389E+03  0.11923686609E+04  0.90771560315E+03 0.  0.
        -24    2    4    4    0    0  0.61058381275E+03 -0.22569922252E+03 -0.35668748177E+03  0.74652263559E+03  0.79481786286E+02 0.  0.
         24    2    4    4    0    0 -0.60911477816E+02  0.40500841330E+03 -0.15663887211E+03  0.44584602531E+03  0.80628277008E+02 0.  0.
         13    1    3    3    0    0 -0.45877011345E+01 -0.14532556808E+02 -0.10278461401E+01  0.15274117872E+02  0.00000000000E+00 0.  1.
        -13    1    3    3    0    0 -0.54508463380E+03 -0.16477663397E+03 -0.22223214440E+03  0.61127385279E+03  0.00000000000E+00 0. -1.
          4    1    6    6  502    0 -0.15449715295E+02  0.19978688886E+03 -0.36317063776E+02  0.20364779347E+03  0.00000000000E+00 0. -1.
          3    1    5    5  503    0  0.44724994695E+03 -0.18817443758E+03 -0.29545072478E+03  0.56809617564E+03  0.00000000000E+00 0. -1.
         -4    1    5    5    0  503  0.16333386580E+03 -0.37524784943E+02 -0.61236756997E+02  0.17842645995E+03  0.00000000000E+00 0.  1.
         -3    1    6    6    0  502 -0.45461762521E+02  0.20522152444E+03 -0.12032180834E+03  0.24219823184E+03  0.00000000000E+00 0.  1.
<mgrwt>
<rscale>  0 0.16630990E+04</rscale>
<asrwt>0</asrwt>
<pdfrwt beam="1">  1        1 0.19657715E+00 0.16630990E+04</pdfrwt>
<pdfrwt beam="2">  1       -1 0.83256176E-01 0.16630990E+04</pdfrwt>
<totfact> 0.12827526E+01</totfact>
</mgrwt>
</event>
<event>
12    1  0.1519630E-007  0.2466693E+04  0.7818608E-02  0.8414948E-01
         -2   -1    0    0    0  501 -0.00000000000E+00  0.00000000000E+00  0.56612606786E+03  0.56612606786E+03  0.00000000000E+00 0. -1.
          2   -1    0    0  501    0  0.00000000000E+00 -0.00000000000E+00 -0.26869354384E+04  0.26869354384E+04  0.00000000000E+00 0.  1.
         23    2    1    2    0    0  0.45495438004E+03 -0.48923555234E+03  0.19437477531E+03  0.70016705519E+03  0.78214054399E+02 0.  0.
        254    2    1    2    0    0 -0.45495438004E+03  0.48923555234E+03 -0.23151841458E+04  0.25528944511E+04  0.84312367750E+03 0.  0.
        -24    2    4    4    0    0 -0.23716198146E+03  0.68082461722E+03 -0.19449707003E+04  0.20757738524E+04  0.78473539883E+02 0.  0.
         24    2    4    4    0    0 -0.21779239857E+03 -0.19158906488E+03 -0.37021344555E+03  0.47712059867E+03  0.80288054847E+02 0.  0.
         11    1    3    3    0    0  0.37608932359E+03 -0.42699758495E+03  0.14019862300E+03  0.58602540112E+03  0.00000000000E+00 0. -1.
        -11    1    3    3    0    0  0.78865056443E+02 -0.62237967393E+02  0.54176152315E+02  0.11414165407E+03  0.00000000000E+00 0.  1.
          4    1    6    6  502    0 -0.18673266927E+03 -0.19468384128E+03 -0.33216856603E+03  0.42790985509E+03  0.00000000000E+00 0. -1.
          3    1    5    5  503    0 -0.24034171939E+03  0.68029031828E+03 -0.19402657249E+04  0.20700700816E+04  0.00000000000E+00 0. -1.
         -4    1    5    5    0  503  0.31797379248E+01  0.53429893404E+00 -0.47049753217E+01  0.57037708053E+01  0.00000000000E+00 0.  1.
         -3    1    6    6    0  502 -0.31059729307E+02  0.30947764029E+01 -0.38044879526E+02  0.49210743581E+02  0.00000000000E+00 0.  1.
<mgrwt>
<rscale>  0 0.24666935E+04</rscale>
<asrwt>0</asrwt>
<pdfrwt beam="1">  1        2 0.41337467E+00 0.24666935E+04</pdfrwt>
<pdfrwt beam="2">  1       -2 0.87096320E-01 0.24666935E+04</pdfrwt>
<totfact> 0.27552267E+00</totfact>
</mgrwt>
</event>
<event>
12    1  0.1519630E-007  0.1553488E+04  0.7818608E-02  0.8849643E-01
         -2   -1    0    0    0  501 -0.00000000000E+00  0.00000000000E+00  0.33771448544E+03  0.33771448544E+03  0.00000000000E+00 0.  1.
          2   -1    0    0  501    0  0.00000000000E+00 -0.00000000000E+00 -0.17865128156E+04  0.17865128156E+04  0.00000000000E+00 0. -1.
         23    2    1    2    0    0  0.22198420504E+03 -0.36010533281E+03 -0.92091655339E+02  0.44282695639E+03  0.93069878704E+02 0.  0.
        254    2    1    2    0    0 -0.22198420504E+03  0.36010533281E+03 -0.13567066748E+04  0.16814003446E+04  0.89861074971E+03 0.  0.
        -24    2    4    4    0    0  0.16150615314E+03 -0.22532162726E+03 -0.36486015943E+03  0.46488932737E+03  0.78390544976E+02 0.  0.
         24    2    4    4    0    0 -0.38349035818E+03  0.58542696007E+03 -0.99184651538E+03  0.12165110173E+04  0.79686665795E+02 0.  0.
         11    1    3    3    0    0  0.52150366511E+02 -0.26229057763E+02 -0.80651146470E+01  0.58929366810E+02  0.00000000000E+00 0. -1.
        -11    1    3    3    0    0  0.16983383853E+03 -0.33387627505E+03 -0.84026540692E+02  0.38389758958E+03  0.00000000000E+00 0.  1.
          2    1    6    6  502    0 -0.27441455970E+03  0.46493240708E+03 -0.72252046917E+03  0.90194308140E+03  0.00000000000E+00 0. -1.
          3    1    5    5  503    0  0.16829851418E+03 -0.20203001709E+03 -0.34331833656E+03  0.43244421363E+03  0.00000000000E+00 0. -1.
         -4    1    5    5    0  503 -0.67923610353E+01 -0.23291610173E+02 -0.21541822869E+02  0.32445113737E+02  0.00000000000E+00 0.  1.
         -1    1    6    6    0  502 -0.10907579848E+03  0.12049455299E+03 -0.26932604621E+03  0.31456793588E+03  0.00000000000E+00 0.  1.
<mgrwt>
<rscale>  0 0.15534880E+04</rscale>
<asrwt>0</asrwt>
<pdfrwt beam="1">  1        2 0.27484813E+00 0.15534880E+04</pdfrwt>
<pdfrwt beam="2">  1       -2 0.51956074E-01 0.15534880E+04</pdfrwt>
<totfact> 0.29548345E+01</totfact>
</mgrwt>
</event>
<event>
12    1  0.1689765E-007  0.1381234E+04  0.7818608E-02  0.8967516E-01
          1   -1    0    0  501    0  0.00000000000E+00  0.00000000000E+00  0.28466886358E+04  0.28466886358E+04  0.00000000000E+00 0. -1.
         -1   -1    0    0    0  501 -0.00000000000E+00 -0.00000000000E+00 -0.16754607974E+03  0.16754607974E+03  0.00000000000E+00 0.  1.
         23    2    1    2    0    0  0.31643094710E+03 -0.23255816785E+01  0.26981640112E+03  0.42715149046E+03  0.97588692345E+02 0.  0.
        254    2    1    2    0    0 -0.31643094710E+03  0.23255816785E+01  0.24093261549E+04  0.25870832251E+04  0.88770104205E+03 0.  0.
        -24    2    4    4    0    0 -0.42462621786E+03  0.35662437038E+03  0.15298848682E+04  0.16294821429E+04  0.84711142534E+02 0.  0.
         24    2    4    4    0    0  0.10819527076E+03 -0.35429878870E+03  0.87944128669E+03  0.95760108213E+03  0.79680659404E+02 0.  0.
         13    1    3    3    0    0  0.17899505809E+03  0.38272506535E+01  0.88966827119E+02  0.19992242244E+03  0.00000000000E+00 0.  1.
        -13    1    3    3    0    0  0.13743588901E+03 -0.61528323320E+01  0.18084957400E+03  0.22722906802E+03  0.00000000000E+00 0. -1.
          2    1    6    6  502    0 -0.11084841850E+02 -0.61129340735E+02  0.15865810677E+03  0.17038798332E+03  0.00000000000E+00 0. -1.
          1    1    5    5  503    0 -0.21490851546E+02  0.49265835454E+02  0.13258826538E+03  0.14306861067E+03  0.00000000000E+00 0. -1.
         -2    1    5    5    0  503 -0.40313536631E+03  0.30735853492E+03  0.13972966029E+04  0.14864135323E+04  0.00000000000E+00 0.  1.
         -1    1    6    6    0  502  0.11928011261E+03 -0.29316944796E+03  0.72078317992E+03  0.78721309881E+03  0.00000000000E+00 0.  1.
<mgrwt>
<rscale>  0 0.13812335E+04</rscale>
<asrwt>0</asrwt>
<pdfrwt beam="1">  1        1 0.43795206E+00 0.13812335E+04</pdfrwt>
<pdfrwt beam="2">  1       -1 0.25776322E-01 0.13812335E+04</pdfrwt>
<totfact> 0.10081077E+01</totfact>
</mgrwt>
</event>
<event>
12    1  0.1519630E-007  0.1919069E+04  0.7818608E-02  0.8645422E-01
          1   -1    0    0  501    0  0.00000000000E+00  0.00000000000E+00  0.16279271510E+04  0.16279271510E+04  0.00000000000E+00 0. -1.
         -1   -1    0    0    0  501 -0.00000000000E+00 -0.00000000000E+00 -0.56557006436E+03  0.56557006436E+03  0.00000000000E+00 0.  1.
         23    2    1    2    0    0 -0.37474700668E+03  0.61964293232E+03  0.20274582020E+03  0.75753112637E+03  0.91404908103E+02 0.  0.
        254    2    1    2    0    0  0.37474700668E+03 -0.61964293232E+03  0.85961126646E+03  0.14359660890E+04  0.89368584906E+03 0.  0.
        -24    2    4    4    0    0 -0.24517919262E+03 -0.46559570872E+02  0.37921341845E+03  0.46112012693E+03  0.80921718924E+02 0.  0.
         24    2    4    4    0    0  0.61992619930E+03 -0.57308336145E+03  0.48039784801E+03  0.97484596209E+03  0.82519850199E+02 0.  0.
         13    1    3    3    0    0  0.39336151940E+00  0.33202867079E+02  0.33383416835E+01  0.33372588164E+02  0.00000000000E+00 0.  1.
        -13    1    3    3    0    0 -0.37514036820E+03  0.58644006524E+03  0.19940747852E+03  0.72415853821E+03  0.00000000000E+00 0. -1.
          2    1    6    6  502    0  0.54572271872E+03 -0.51663833922E+03  0.45388282799E+03  0.87791689859E+03  0.00000000000E+00 0. -1.
          1    1    5    5  503    0 -0.13210178926E+03  0.11299928451E+02  0.16031003426E+03  0.20803335837E+03  0.00000000000E+00 0. -1.
         -2    1    5    5    0  503 -0.11307740336E+03 -0.57859499323E+02  0.21890338419E+03  0.25308676857E+03  0.00000000000E+00 0.  1.
         -1    1    6    6    0  502  0.74203480579E+02 -0.56445022229E+02  0.26515020022E+02  0.96929063501E+02  0.00000000000E+00 0.  1.
<mgrwt>
<rscale>  0 0.19190694E+04</rscale>
<asrwt>0</asrwt>
<pdfrwt beam="1">  1        1 0.25045033E+00 0.19190694E+04</pdfrwt>
<pdfrwt beam="2">  1       -1 0.87010780E-01 0.19190694E+04</pdfrwt>
<totfact> 0.64882439E+00</totfact>
</mgrwt>
</event>
<event>
12    1  0.1519630E-007  0.1393345E+04  0.7818608E-02  0.8958650E-01
          1   -1    0    0  501    0  0.00000000000E+00  0.00000000000E+00  0.22485265168E+03  0.22485265168E+03  0.00000000000E+00 0. -1.
         -1   -1    0    0    0  501 -0.00000000000E+00 -0.00000000000E+00 -0.21585348647E+04  0.21585348647E+04  0.00000000000E+00 0.  1.
         23    2    1    2    0    0  0.18265605536E+03 -0.17515379572E+03 -0.10627650230E+04  0.10964197230E+04  0.92868875526E+02 0.  0.
        254    2    1    2    0    0 -0.18265605536E+03  0.17515379572E+03 -0.87091718993E+03  0.12869677933E+04  0.91309761948E+03 0.  0.
        -24    2    4    4    0    0 -0.52031182093E+03  0.23817438846E+03 -0.42107930674E+03  0.71547144762E+03  0.84499582687E+02 0.  0.
         24    2    4    4    0    0  0.33765576558E+03 -0.63020592743E+02 -0.44983788319E+03  0.57149634573E+03  0.79189272577E+02 0.  0.
         11    1    3    3    0    0  0.18236473638E+02 -0.74263338015E+02 -0.28336113283E+03  0.29349811574E+03  0.00000000000E+00 0. -1.
        -11    1    3    3    0    0  0.16441958172E+03 -0.10089045770E+03 -0.77940389022E+03  0.80292160726E+03  0.00000000000E+00 0.  1.
          2    1    6    6  502    0  0.30411478300E+03 -0.44801724329E+02 -0.42972238805E+03  0.52835057162E+03  0.00000000000E+00 0. -1.
          1    1    5    5  503    0 -0.21007841556E+03  0.14095097403E+03 -0.17203594892E+03  0.30593542699E+03  0.00000000000E+00 0. -1.
         -2    1    5    5    0  503 -0.31023340538E+03  0.97223414430E+02 -0.24904335782E+03  0.40953602064E+03  0.00000000000E+00 0.  1.
         -1    1    6    6    0  502  0.33540982581E+02 -0.18218868415E+02 -0.20115495143E+02  0.43145774111E+02  0.00000000000E+00 0.  1.
<mgrwt>
<rscale>  0 0.13933446E+04</rscale>
<asrwt>0</asrwt>
<pdfrwt beam="1">  1        1 0.34592714E-01 0.13933446E+04</pdfrwt>
<pdfrwt beam="2">  1       -1 0.33208230E+00 0.13933446E+04</pdfrwt>
<totfact> 0.25554458E+00</totfact>
</mgrwt>
</event>
<event>
12    1  0.1519630E-007  0.1537611E+04  0.7818608E-02  0.8859820E-01
          2   -1    0    0  501    0  0.00000000000E+00  0.00000000000E+00  0.22118499450E+04  0.22118499450E+04  0.00000000000E+00 0.  1.
         -2   -1    0    0    0  501 -0.00000000000E+00 -0.00000000000E+00 -0.26722527764E+03  0.26722527764E+03  0.00000000000E+00 0. -1.
         23    2    1    2    0    0  0.32826678119E+03  0.12267267400E+02  0.47110693246E+02  0.34415621670E+03  0.91183982101E+02 0.  0.
        254    2    1    2    0    0 -0.32826678119E+03 -0.12267267400E+02  0.18975139741E+04  0.21349190059E+04  0.92163458836E+03 0.  0.
        -24    2    4    4    0    0  0.11887962872E+03 -0.27814022425E+03  0.13065146165E+04  0.13436381469E+04  0.82998050083E+02 0.  0.
         24    2    4    4    0    0 -0.44714640992E+03  0.26587295685E+03  0.59099935761E+03  0.79128085899E+03  0.78846788254E+02 0.  0.
         11    1    3    3    0    0  0.24586857409E+03 -0.21704144374E+02  0.60236031372E+02  0.25406850471E+03  0.00000000000E+00 0. -1.
        -11    1    3    3    0    0  0.82398207102E+02  0.33971411773E+02 -0.13125338125E+02  0.90087711994E+02  0.00000000000E+00 0.  1.
          4    1    6    6  502    0 -0.19251340944E+03  0.89380434773E+02  0.28952077741E+03  0.35898823865E+03  0.00000000000E+00 0. -1.
          1    1    5    5  503    0  0.18685568785E+02 -0.11055185573E+01  0.64312779156E+02  0.66981387078E+02  0.00000000000E+00 0. -1.
         -2    1    5    5    0  503  0.10019405994E+03 -0.27703470570E+03  0.12422018373E+04  0.12766567598E+04  0.00000000000E+00 0.  1.
         -3    1    6    6    0  502 -0.25463300048E+03  0.17649252208E+03  0.30147858020E+03  0.43229262034E+03  0.00000000000E+00 0.  1.
<mgrwt>
<rscale>  0 0.15376114E+04</rscale>
<asrwt>0</asrwt>
<pdfrwt beam="1">  1        2 0.34028460E+00 0.15376114E+04</pdfrwt>
<pdfrwt beam="2">  1       -2 0.41111583E-01 0.15376114E+04</pdfrwt>
<totfact> 0.27483493E+01</totfact>
</mgrwt>
</event>
<event>
12    1  0.1519630E-007  0.2628398E+04  0.7818608E-02  0.8358619E-01
         -1   -1    0    0    0  501 -0.00000000000E+00  0.00000000000E+00  0.15768337801E+04  0.15768337801E+04  0.00000000000E+00 0.  1.
          1   -1    0    0  501    0  0.00000000000E+00 -0.00000000000E+00 -0.10953080079E+04  0.10953080079E+04  0.00000000000E+00 0. -1.
         23    2    1    2    0    0  0.16440843366E+02 -0.76815431233E+03 -0.66566454810E+03  0.10201197368E+04  0.84874247150E+02 0.  0.
        254    2    1    2    0    0 -0.16440843366E+02  0.76815431233E+03  0.11471903203E+04  0.16520220513E+04  0.90708317046E+03 0.  0.
        -24    2    4    4    0    0  0.36135773271E+02  0.85750378412E+03  0.12289999833E+04  0.15011090329E+04  0.79175979864E+02 0.  0.
         24    2    4    4    0    0 -0.52576616636E+02 -0.89349471786E+02 -0.81809663045E+02  0.15091301838E+03  0.73036219944E+02 0.  0.
         11    1    3    3    0    0  0.24892669088E+02 -0.82158110444E+02 -0.91987367513E+02  0.12582239812E+03  0.00000000000E+00 0.  1.
        -11    1    3    3    0    0 -0.84518257222E+01 -0.68599620189E+03 -0.57367718059E+03  0.89429733864E+03  0.00000000000E+00 0. -1.
          4    1    6    6  502    0 -0.18345999686E+02 -0.87556549890E+02 -0.43391537008E+02  0.99426106315E+02  0.00000000000E+00 0. -1.
          3    1    5    5  503    0  0.33256307602E+02  0.72643657915E+03  0.98812416701E+03  0.12268681490E+04  0.00000000000E+00 0. -1.
         -4    1    5    5    0  503  0.28794656688E+01  0.13106720497E+03  0.24087581632E+03  0.27424088395E+03  0.00000000000E+00 0.  1.
         -3    1    6    6    0  502 -0.34230616950E+02 -0.17929218958E+01 -0.38418126037E+02  0.51486912065E+02  0.00000000000E+00 0.  1.
<mgrwt>
<rscale>  0 0.26283977E+04</rscale>
<asrwt>0</asrwt>
<pdfrwt beam="1">  1        1 0.16850892E+00 0.26283977E+04</pdfrwt>
<pdfrwt beam="2">  1       -1 0.24258981E+00 0.26283977E+04</pdfrwt>
<totfact> 0.87548655E-01</totfact>
</mgrwt>
</event>
<event>
12    1  0.1519630E-007  0.2732548E+04  0.7818608E-02  0.8324521E-01
         -1   -1    0    0    0  501 -0.00000000000E+00  0.00000000000E+00  0.13190036273E+04  0.13190036273E+04  0.00000000000E+00 0.  1.
          1   -1    0    0  501    0  0.00000000000E+00 -0.00000000000E+00 -0.14152382654E+04  0.14152382654E+04  0.00000000000E+00 0. -1.
         23    2    1    2    0    0 -0.55853474858E+03 -0.18642022905E+03  0.10211624004E+04  0.11823418668E+04  0.91902528397E+02 0.  0.
        254    2    1    2    0    0  0.55853474858E+03  0.18642022905E+03 -0.11173970385E+04  0.15519000259E+04  0.90172278537E+03 0.  0.
        -24    2    4    4    0    0  0.55209301804E+03  0.18657738897E+03 -0.12598824134E+04  0.13904295885E+04  0.79830584719E+02 0.  0.
         24    2    4    4    0    0  0.64417305412E+01 -0.15715992193E+00  0.14248537493E+03  0.16147043743E+03  0.75690815194E+02 0.  0.
         13    1    3    3    0    0 -0.45202132751E+03 -0.17946669231E+03  0.78959044224E+03  0.92735356830E+03  0.00000000000E+00 0.  1.
        -13    1    3    3    0    0 -0.10651342107E+03 -0.69535367421E+01  0.23157195816E+03  0.25498829845E+03  0.00000000000E+00 0. -1.
          2    1    6    6  502    0 -0.20326849988E+02  0.21979411856E+01  0.45547260217E+01  0.20946534439E+02  0.00000000000E+00 0. -1.
          1    1    5    5  503    0  0.16282911745E+03  0.64978812667E+02 -0.29935254030E+03  0.34691138777E+03  0.00000000000E+00 0. -1.
         -2    1    5    5    0  503  0.38926390059E+03  0.12159857631E+03 -0.96052987313E+03  0.10435182007E+04  0.00000000000E+00 0.  1.
         -1    1    6    6    0  502  0.26768580529E+02 -0.23551011076E+01  0.13793064891E+03  0.14052390299E+03  0.00000000000E+00 0.  1.
<mgrwt>
<rscale>  0 0.27325478E+04</rscale>
<asrwt>0</asrwt>
<pdfrwt beam="1">  1        1 0.21772896E+00 0.27325478E+04</pdfrwt>
<pdfrwt beam="2">  1       -1 0.20292363E+00 0.27325478E+04</pdfrwt>
<totfact> 0.93785817E-01</totfact>
</mgrwt>
</event>
<event>
12    1  0.2085183E-007  0.1516874E+04  0.7818608E-02  0.8873309E-01
         -2   -1    0    0    0  501 -0.00000000000E+00  0.00000000000E+00  0.26135626639E+03  0.26135626639E+03  0.00000000000E+00 0.  1.
          2   -1    0    0  501    0  0.00000000000E+00 -0.00000000000E+00 -0.22009283077E+04  0.22009283077E+04  0.00000000000E+00 0. -1.
         23    2    1    2    0    0  0.10722798091E+03 -0.26896331966E+03 -0.59843364936E+01  0.30368600474E+03  0.91379811672E+02 0.  0.
        254    2    1    2    0    0 -0.10722798091E+03  0.26896331966E+03 -0.19335877048E+04  0.21585985694E+04  0.91484821922E+03 0.  0.
        -24    2    4    4    0    0  0.43152571760E+02  0.81831961463E+02  0.66177354120E+02  0.14288620754E+03  0.86477810685E+02 0.  0.
         24    2    4    4    0    0 -0.15038055267E+03  0.18713135819E+03 -0.19997650589E+04  0.20157123618E+04  0.80022364338E+02 0.  0.
         13    1    3    3    0    0  0.39687424332E+02 -0.19315708130E+03  0.21878968917E+02  0.19840221518E+03  0.00000000000E+00 0.  1.
        -13    1    3    3    0    0  0.67540556575E+02 -0.75806238358E+02 -0.27863305410E+02  0.10528378956E+03  0.00000000000E+00 0. -1.
          2    1    6    6  502    0 -0.21990227217E+02  0.61976749735E+01 -0.80896681748E+02  0.84061015852E+02  0.00000000000E+00 0. -1.
          1    1    5    5  503    0  0.19015605775E+02  0.11570280642E+02 -0.19423744936E+02  0.29542283671E+02  0.00000000000E+00 0. -1.
         -2    1    5    5    0  503  0.24136965984E+02  0.70261680821E+02  0.85601099057E+02  0.11334392387E+03  0.00000000000E+00 0.  1.
         -1    1    6    6    0  502 -0.12839032545E+03  0.18093368322E+03 -0.19188683772E+04  0.19316513460E+04  0.00000000000E+00 0.  1.
<mgrwt>
<rscale>  0 0.15168736E+04</rscale>
<asrwt>0</asrwt>
<pdfrwt beam="1">  1        2 0.33860436E+00 0.15168736E+04</pdfrwt>
<pdfrwt beam="2">  1       -2 0.40208656E-01 0.15168736E+04</pdfrwt>
<totfact> 0.29165907E+01</totfact>
</mgrwt>
</event>
<event>
12    1  0.1519630E-007  0.1504620E+04  0.7818608E-02  0.8881387E-01
          2   -1    0    0  501    0  0.00000000000E+00  0.00000000000E+00  0.31095827197E+04  0.31095827197E+04  0.00000000000E+00 0. -1.
         -2   -1    0    0    0  501 -0.00000000000E+00 -0.00000000000E+00 -0.18200833311E+03  0.18200833311E+03  0.00000000000E+00 0.  1.
         23    2    1    2    0    0 -0.43699682981E+03 -0.16222963119E+03  0.62445637298E+03  0.78452301150E+03  0.90807000283E+02 0.  0.
        254    2    1    2    0    0  0.43699682981E+03  0.16222963119E+03  0.23031180136E+04  0.25070680413E+04  0.87392957195E+03 0.  0.
        -24    2    4    4    0    0  0.44756821550E+03  0.25653846694E+03  0.58454654400E+03  0.78372401348E+03  0.79996091538E+02 0.  0.
         24    2    4    4    0    0 -0.10571385681E+02 -0.94308835748E+02  0.17185714696E+04  0.17233440279E+04  0.86144247997E+02 0.  0.
         11    1    3    3    0    0 -0.20592971206E+03 -0.56929205712E+02  0.35450300291E+03  0.41390863707E+03  0.00000000000E+00 0.  1.
        -11    1    3    3    0    0 -0.23106711775E+03 -0.10530042548E+03  0.26995337008E+03  0.37061437443E+03  0.00000000000E+00 0. -1.
          4    1    6    6  502    0 -0.38699038534E+02 -0.60978294972E+02  0.13921240419E+04  0.13939961679E+04  0.00000000000E+00 0. -1.
          1    1    5    5  503    0  0.33824831243E+03  0.22941470268E+03  0.44111360003E+03  0.60135200573E+03  0.00000000000E+00 0. -1.
         -2    1    5    5    0  503  0.10931990307E+03  0.27123764260E+02  0.14343294396E+03  0.18237200774E+03  0.00000000000E+00 0.  1.
         -3    1    6    6    0  502  0.28127652853E+02 -0.33330540775E+02  0.32644742775E+03  0.32934786000E+03  0.00000000000E+00 0.  1.
<mgrwt>
<rscale>  0 0.15046195E+04</rscale>
<asrwt>0</asrwt>
<pdfrwt beam="1">  1        2 0.47839730E+00 0.15046195E+04</pdfrwt>
<pdfrwt beam="2">  1       -2 0.28001284E-01 0.15046195E+04</pdfrwt>
<totfact> 0.16847649E+01</totfact>
</mgrwt>
</event>
<event>
12    1  0.1519630E-007  0.1203096E+04  0.7818608E-02  0.9110151E-01
          2   -1    0    0  501    0  0.00000000000E+00  0.00000000000E+00  0.35514169379E+03  0.35514169379E+03  0.00000000000E+00 0.  1.
         -2   -1    0    0    0  501 -0.00000000000E+00 -0.00000000000E+00 -0.10189179083E+04  0.10189179083E+04  0.00000000000E+00 0. -1.
         23    2    1    2    0    0  0.21647483003E+01 -0.22110689572E+02 -0.43709297437E+03  0.44679443004E+03  0.89896750443E+02 0.  0.
        254    2    1    2    0    0 -0.21647483003E+01  0.22110689572E+02 -0.22668324010E+03  0.92726517202E+03  0.89885585005E+03 0.  0.
        -24    2    4    4    0    0 -0.10973542071E+03 -0.27451858123E+03 -0.44154705716E+03  0.53729328394E+03  0.79485566530E+02 0.  0.
         24    2    4    4    0    0  0.10757067241E+03  0.29662927080E+03  0.21486381705E+03  0.38997188808E+03  0.79694665792E+02 0.  0.
         13    1    3    3    0    0  0.11609171763E+00 -0.35323395518E+02 -0.61191108281E+02  0.70654847540E+02  0.00000000000E+00 0.  1.
        -13    1    3    3    0    0  0.20486565827E+01  0.13212705946E+02 -0.37590186609E+03  0.37613958250E+03  0.00000000000E+00 0. -1.
          2    1    6    6  502    0 -0.10229601402E+02  0.15453205123E+02  0.31154632348E+01  0.18792349629E+02  0.00000000000E+00 0. -1.
          3    1    5    5  503    0  0.18275189132E+01 -0.15275635644E+02 -0.28394557388E+01  0.15644404067E+02  0.00000000000E+00 0. -1.
         -4    1    5    5    0  503 -0.11156293962E+03 -0.25924294559E+03 -0.43870760142E+03  0.52164887988E+03  0.00000000000E+00 0.  1.
         -1    1    6    6    0  502  0.11780027381E+03  0.28117606568E+03  0.21174835382E+03  0.37117953845E+03  0.00000000000E+00 0.  1.
<mgrwt>
<rscale>  0 0.12030964E+04</rscale>
<asrwt>0</asrwt>
<pdfrwt beam="1">  1        2 0.54637185E-01 0.12030964E+04</pdfrwt>
<pdfrwt beam="2">  1       -2 0.15675660E+00 0.12030964E+04</pdfrwt>
<totfact> 0.23855899E+01</totfact>
</mgrwt>
</event>
<event>
12    1  0.1519630E-007  0.1506405E+04  0.7818608E-02  0.8880205E-01
         -2   -1    0    0    0  501 -0.00000000000E+00  0.00000000000E+00  0.43051438558E+03  0.43051438558E+03  0.00000000000E+00 0.  1.
          2   -1    0    0  501    0  0.00000000000E+00 -0.00000000000E+00 -0.13177586680E+04  0.13177586680E+04  0.00000000000E+00 0. -1.
         23    2    1    2    0    0 -0.27785549020E+03 -0.39892620027E+03 -0.27837335699E+03  0.56765783665E+03  0.91640094602E+02 0.  0.
        254    2    1    2    0    0  0.27785549020E+03  0.39892620027E+03 -0.60887092547E+03  0.11806152170E+04  0.88700772261E+03 0.  0.
        -24    2    4    4    0    0  0.45391248980E+03  0.43472099704E+03 -0.10755836061E+03  0.64215174661E+03  0.75968224064E+02 0.  0.
         24    2    4    4    0    0 -0.17605699960E+03 -0.35794796777E+02 -0.50131256487E+03  0.53846347037E+03  0.79694959957E+02 0.  0.
         11    1    3    3    0    0 -0.82995893414E+02 -0.76269288977E+02 -0.99864246250E+02  0.15059279679E+03  0.00000000000E+00 0.  1.
        -11    1    3    3    0    0 -0.19485959678E+03 -0.32265691129E+03 -0.17850911074E+03  0.41706503987E+03  0.00000000000E+00 0. -1.
          2    1    6    6  502    0 -0.98362357894E+02 -0.14530446141E+02 -0.16503622155E+03  0.19267392595E+03  0.00000000000E+00 0. -1.
          3    1    5    5  503    0  0.21101656964E+02  0.87050190307E+01  0.75399920985E+01  0.24039733022E+02  0.00000000000E+00 0. -1.
         -4    1    5    5    0  503  0.43281083284E+03  0.42601597801E+03 -0.11509835271E+03  0.61811201359E+03  0.00000000000E+00 0.  1.
         -1    1    6    6    0  502 -0.77694641709E+02 -0.21264350636E+02 -0.33627634332E+03  0.34578954442E+03  0.00000000000E+00 0.  1.
<mgrwt>
<rscale>  0 0.15064051E+04</rscale>
<asrwt>0</asrwt>
<pdfrwt beam="1">  1        2 0.20273210E+00 0.15064051E+04</pdfrwt>
<pdfrwt beam="2">  1       -2 0.66232984E-01 0.15064051E+04</pdfrwt>
<totfact> 0.32680724E+01</totfact>
</mgrwt>
</event>
<event>
12    1  0.1519630E-007  0.1219637E+04  0.7818608E-02  0.9095840E-01
         -1   -1    0    0    0  501 -0.00000000000E+00  0.00000000000E+00  0.67785410067E+03  0.67785410067E+03  0.00000000000E+00 0.  1.
          1   -1    0    0  501    0  0.00000000000E+00 -0.00000000000E+00 -0.54861134821E+03  0.54861134821E+03  0.00000000000E+00 0. -1.
         23    2    1    2    0    0  0.14686472386E+03 -0.10057330528E+03  0.22294435356E+03  0.30095951849E+03  0.95855151836E+02 0.  0.
        254    2    1    2    0    0 -0.14686472386E+03  0.10057330528E+03 -0.93701601098E+02  0.92550593040E+03  0.90338087222E+03 0.  0.
        -24    2    4    4    0    0 -0.51771253116E+03  0.85101870060E+02  0.14107080650E+02  0.53089492177E+03  0.79886263035E+02 0.  0.
         24    2    4    4    0    0  0.37084780730E+03  0.15471435218E+02 -0.10780868175E+03  0.39461100863E+03  0.79546683026E+02 0.  0.
         13    1    3    3    0    0  0.11736684170E+03 -0.11453842121E+03  0.15532384476E+03  0.22587501459E+03  0.00000000000E+00 0.  1.
        -13    1    3    3    0    0  0.29497882156E+02  0.13965115934E+02  0.67620508799E+02  0.75084503893E+02  0.00000000000E+00 0. -1.
          4    1    6    6  502    0  0.23537159546E+03  0.46596179544E+02 -0.79368598673E+02  0.25272587195E+03  0.00000000000E+00 0. -1.
          1    1    5    5  503    0 -0.80959992254E+01  0.13835646355E+02  0.22104558968E+01  0.16181978519E+02  0.00000000000E+00 0. -1.
         -2    1    5    5    0  503 -0.50961653194E+03  0.71266223705E+02  0.11896624754E+02  0.51471294325E+03  0.00000000000E+00 0.  1.
         -3    1    6    6    0  502  0.13547621184E+03 -0.31124744326E+02 -0.28440083076E+02  0.14188513668E+03  0.00000000000E+00 0.  1.
<mgrwt>
<rscale>  0 0.12196368E+04</rscale>
<asrwt>0</asrwt>
<pdfrwt beam="1">  1        1 0.84401745E-01 0.12196368E+04</pdfrwt>
<pdfrwt beam="2">  1       -1 0.10428525E+00 0.12196368E+04</pdfrwt>
<totfact> 0.33300031E+01</totfact>
</mgrwt>
</event>
<event>
12    1  0.1519630E-007  0.3559177E+04  0.7818608E-02  0.8099907E-01
         -1   -1    0    0    0  501 -0.00000000000E+00  0.00000000000E+00  0.13611378945E+04  0.13611378945E+04  0.00000000000E+00 0.  1.
          1   -1    0    0  501    0  0.00000000000E+00 -0.00000000000E+00 -0.23266827825E+04  0.23266827825E+04  0.00000000000E+00 0. -1.
         23    2    1    2    0    0  0.16163756830E+04  0.26858543337E+03 -0.13774162565E+03  0.16469436799E+04  0.92963680488E+02 0.  0.
        254    2    1    2    0    0 -0.16163756830E+04 -0.26858543337E+03 -0.82780326237E+03  0.20408769970E+04  0.89169063706E+03 0.  0.
        -24    2    4    4    0    0 -0.14052361265E+04 -0.49418187998E+03 -0.85722206092E+03  0.17205840345E+04  0.81703465520E+02 0.  0.
         24    2    4    4    0    0 -0.21113955649E+03  0.22559644662E+03  0.29418798545E+02  0.32029296254E+03  0.79047119524E+02 0.  0.
         13    1    3    3    0    0  0.10876650581E+04  0.18659161561E+03 -0.49320158480E+02  0.11046556874E+04  0.00000000000E+00 0.  1.
        -13    1    3    3    0    0  0.52871062486E+03  0.81993817762E+02 -0.88421467171E+02  0.54228799254E+03  0.00000000000E+00 0. -1.
          4    1    6    6  502    0 -0.20403970709E+03  0.18952005956E+03  0.41580912642E+02  0.28156531629E+03  0.00000000000E+00 0. -1.
          1    1    5    5  503    0 -0.71642013223E+03 -0.28240541899E+03 -0.47625581375E+03  0.90544476732E+03  0.00000000000E+00 0. -1.
         -2    1    5    5    0  503 -0.68881599424E+03 -0.21177646099E+03 -0.38096624717E+03  0.81513926714E+03  0.00000000000E+00 0.  1.
         -3    1    6    6    0  502 -0.70998494064E+01  0.36076387060E+02 -0.12162114098E+02  0.38727646252E+02  0.00000000000E+00 0.  1.
<mgrwt>
<rscale>  0 0.35591775E+04</rscale>
<asrwt>0</asrwt>
<pdfrwt beam="1">  1        1 0.35795119E+00 0.35591775E+04</pdfrwt>
<pdfrwt beam="2">  1       -1 0.20940583E+00 0.35591775E+04</pdfrwt>
<totfact> 0.18796432E-01</totfact>
</mgrwt>
</event>
<event>
12    1  0.1519630E-007  0.2160922E+04  0.7818608E-02  0.8534871E-01
          1   -1    0    0  501    0  0.00000000000E+00  0.00000000000E+00  0.22716116076E+04  0.22716116076E+04  0.00000000000E+00 0. -1.
         -1   -1    0    0    0  501 -0.00000000000E+00 -0.00000000000E+00 -0.51390663112E+03  0.51390663112E+03  0.00000000000E+00 0.  1.
         23    2    1    2    0    0 -0.49200109284E+03 -0.25173829068E+03  0.16302078576E+04  0.17237185855E+04  0.90503374261E+02 0.  0.
        254    2    1    2    0    0  0.49200109284E+03  0.25173829068E+03  0.12749711894E+03  0.10617996533E+04  0.89762227355E+03 0.  0.
        -24    2    4    4    0    0  0.56002914820E+03 -0.63563913762E+02 -0.19156884591E+03  0.60030235248E+03  0.77403318435E+02 0.  0.
         24    2    4    4    0    0 -0.68028055359E+02  0.31530220444E+03  0.31906596485E+03  0.46149730078E+03  0.84459293490E+02 0.  0.
         11    1    3    3    0    0 -0.27871057016E+03 -0.17363941293E+03  0.85389558315E+03  0.91485949444E+03  0.00000000000E+00 0. -1.
        -11    1    3    3    0    0 -0.21329052267E+03 -0.78098877747E+02  0.77631227442E+03  0.80885909105E+03  0.00000000000E+00 0.  1.
          2    1    6    6  502    0 -0.70146786612E+02  0.12763880836E+03  0.13349475795E+03  0.19756793129E+03  0.00000000000E+00 0. -1.
          3    1    5    5  503    0  0.46833891271E+03 -0.25492401919E+02 -0.16846862036E+03  0.49837021958E+03  0.00000000000E+00 0. -1.
         -4    1    5    5    0  503  0.91690235483E+02 -0.38071511843E+02 -0.23100225556E+02  0.10193213290E+03  0.00000000000E+00 0.  1.
         -3    1    6    6    0  502  0.21187312522E+01  0.18766339608E+03  0.18557120690E+03  0.26392936949E+03  0.00000000000E+00 0.  1.
<mgrwt>
<rscale>  0 0.21609223E+04</rscale>
<asrwt>0</asrwt>
<pdfrwt beam="1">  1        1 0.34947870E+00 0.21609223E+04</pdfrwt>
<pdfrwt beam="2">  1       -1 0.79062560E-01 0.21609223E+04</pdfrwt>
<totfact> 0.28479292E+00</totfact>
</mgrwt>
</event>
<event>
12    1  0.1519630E-007  0.2158118E+04  0.7818608E-02  0.8536065E-01
         -2   -1    0    0    0  501 -0.00000000000E+00  0.00000000000E+00  0.50889828696E+03  0.50889828696E+03  0.00000000000E+00 0.  1.
          2   -1    0    0  501    0  0.00000000000E+00 -0.00000000000E+00 -0.22880186714E+04  0.22880186714E+04  0.00000000000E+00 0. -1.
         23    2    1    2    0    0  0.25784850728E+03 -0.61385750824E+03 -0.15476537721E+04  0.16872974315E+04  0.91834257651E+02 0.  0.
        254    2    1    2    0    0 -0.25784850728E+03  0.61385750824E+03 -0.23146661236E+03  0.11096195269E+04  0.85695496305E+03 0.  0.
        -24    2    4    4    0    0 -0.51406174893E+03  0.61950293791E+03 -0.23152566688E+03  0.84146275203E+03  0.80075319868E+02 0.  0.
         24    2    4    4    0    0  0.25621324165E+03 -0.56454296665E+01  0.59054513246E-01  0.26815677486E+03  0.78936406963E+02 0.  0.
         13    1    3    3    0    0  0.18401634494E+03 -0.52564070738E+03 -0.12686052581E+04  0.13854672386E+04  0.00000000000E+00 0. -1.
        -13    1    3    3    0    0  0.73832162335E+02 -0.88216800857E+02 -0.27904851402E+03  0.30183019287E+03  0.00000000000E+00 0.  1.
          4    1    6    6  502    0  0.25218853717E+03  0.75722170380E+01 -0.74876869540E+01  0.25241327661E+03  0.00000000000E+00 0. -1.
          1    1    5    5  503    0 -0.43286413701E+03  0.54169199707E+03 -0.17286438258E+03  0.71462135118E+03  0.00000000000E+00 0. -1.
         -2    1    5    5    0  503 -0.81197611917E+02  0.77810940839E+02 -0.58661284297E+02  0.12684140085E+03  0.00000000000E+00 0.  1.
         -3    1    6    6    0  502  0.40247044788E+01 -0.13217646705E+02  0.75467414672E+01  0.15743498255E+02  0.00000000000E+00 0.  1.
<mgrwt>
<rscale>  0 0.21581184E+04</rscale>
<asrwt>0</asrwt>
<pdfrwt beam="1">  1        2 0.35200286E+00 0.21581184E+04</pdfrwt>
<pdfrwt beam="2">  1       -2 0.78292046E-01 0.21581184E+04</pdfrwt>
<totfact> 0.61281203E+00</totfact>
</mgrwt>
</event>
<event>
12    1  0.1519630E-007  0.2121477E+04  0.7818608E-02  0.8551841E-01
         -1   -1    0    0    0  501 -0.00000000000E+00  0.00000000000E+00  0.32620497067E+03  0.32620497067E+03  0.00000000000E+00 0.  1.
          1   -1    0    0  501    0  0.00000000000E+00 -0.00000000000E+00 -0.34492601271E+04  0.34492601271E+04  0.00000000000E+00 0. -1.
         23    2    1    2    0    0 -0.94513800127E+02 -0.76312263653E+03 -0.58427132778E+03  0.97234185740E+03  0.11307823124E+03 0.  0.
        254    2    1    2    0    0  0.94513800127E+02  0.76312263653E+03 -0.25387838286E+04  0.28031232403E+04  0.90597326413E+03 0.  0.
        -24    2    4    4    0    0  0.24313220021E+03  0.56605950042E+03 -0.24520283933E+04  0.25294995494E+04  0.79925615428E+02 0.  0.
         24    2    4    4    0    0 -0.14861840008E+03  0.19706313611E+03 -0.86755435293E+02  0.27362369094E+03  0.80138069808E+02 0.  0.
         11    1    3    3    0    0  0.20642892911E+02 -0.45228441724E+02 -0.45653925137E+02  0.67498309971E+02  0.00000000000E+00 0. -1.
        -11    1    3    3    0    0 -0.11515669304E+03 -0.71789419481E+03 -0.53861740265E+03  0.90484354743E+03  0.00000000000E+00 0.  1.
          4    1    6    6  502    0 -0.69721015907E+01  0.10991822058E+02  0.13888729896E+02  0.19034893508E+02  0.00000000000E+00 0. -1.
          3    1    5    5  503    0 -0.41688339661E+01  0.17167936783E+02 -0.10572200536E+03  0.10718796410E+03  0.00000000000E+00 0. -1.
         -4    1    5    5    0  503  0.24730103418E+03  0.54889156364E+03 -0.23463063880E+04  0.24223115853E+04  0.00000000000E+00 0.  1.
         -3    1    6    6    0  502 -0.14164629849E+03  0.18607131405E+03 -0.10064416519E+03  0.25458879743E+03  0.00000000000E+00 0.  1.
<mgrwt>
<rscale>  0 0.21214767E+04</rscale>
<asrwt>0</asrwt>
<pdfrwt beam="1">  1        1 0.53065539E+00 0.21214767E+04</pdfrwt>
<pdfrwt beam="2">  1       -1 0.50185381E-01 0.21214767E+04</pdfrwt>
<totfact> 0.10052579E+00</totfact>
</mgrwt>
</event>
<event>
12    1  0.1519630E-007  0.1674292E+04  0.7818608E-02  0.8776164E-01
         -1   -1    0    0    0  501 -0.00000000000E+00  0.00000000000E+00  0.66082757120E+03  0.66082757120E+03  0.00000000000E+00 0.  1.
          1   -1    0    0  501    0  0.00000000000E+00 -0.00000000000E+00 -0.10605087599E+04  0.10605087599E+04  0.00000000000E+00 0. -1.
         23    2    1    2    0    0  0.34476008571E+02  0.50801603379E+03  0.15381400820E+03  0.53947353665E+03  0.90022563106E+02 0.  0.
        254    2    1    2    0    0 -0.34476008571E+02 -0.50801603379E+03 -0.55349519694E+03  0.11818627945E+04  0.91168736211E+03 0.  0.
        -24    2    4    4    0    0 -0.43819757480E+03 -0.21742620983E+03 -0.10270449418E+03  0.50589374037E+03  0.78031994334E+02 0.  0.
         24    2    4    4    0    0  0.40372156623E+03 -0.29058982396E+03 -0.45079070276E+03  0.67596905413E+03  0.79299152677E+02 0.  0.
         11    1    3    3    0    0  0.30417492779E+02  0.51092943581E+03  0.15058898378E+03  0.53352708861E+03  0.00000000000E+00 0.  1.
        -11    1    3    3    0    0  0.40585157921E+01 -0.29134020188E+01  0.32250244201E+01  0.59464480380E+01  0.00000000000E+00 0. -1.
          2    1    6    6  502    0  0.35208714862E+03 -0.24381577253E+03 -0.41984869023E+03  0.59973695388E+03  0.00000000000E+00 0. -1.
          1    1    5    5  503    0 -0.38634521437E+03 -0.21747120999E+03 -0.87990655055E+02  0.45199414512E+03  0.00000000000E+00 0. -1.
         -2    1    5    5    0  503 -0.51852360425E+02  0.45000156114E-01 -0.14713839127E+02  0.53899595254E+02  0.00000000000E+00 0.  1.
         -1    1    6    6    0  502  0.51634417611E+02 -0.46774051434E+02 -0.30942012530E+02  0.76232100253E+02  0.00000000000E+00 0.  1.
<mgrwt>
<rscale>  0 0.16742920E+04</rscale>
<asrwt>0</asrwt>
<pdfrwt beam="1">  1        1 0.16315519E+00 0.16742920E+04</pdfrwt>
<pdfrwt beam="2">  1       -1 0.10166578E+00 0.16742920E+04</pdfrwt>
<totfact> 0.11889725E+01</totfact>
</mgrwt>
</event>
<event>
12    1  0.1519630E-007  0.1711055E+04  0.7818608E-02  0.8755084E-01
         -3   -1    0    0    0  501 -0.00000000000E+00  0.00000000000E+00  0.56600551899E+03  0.56600551899E+03  0.00000000000E+00 0.  1.
          3   -1    0    0  501    0  0.00000000000E+00 -0.00000000000E+00 -0.12931449210E+04  0.12931449210E+04  0.00000000000E+00 0. -1.
         23    2    1    2    0    0 -0.25349725685E+03 -0.48434464303E+03  0.34878009870E+02  0.55516593481E+03  0.90233846957E+02 0.  0.
        254    2    1    2    0    0  0.25349725685E+03  0.48434464303E+03 -0.76201741188E+03  0.13039845052E+04  0.90601018829E+03 0.  0.
        -24    2    4    4    0    0 -0.25095699046E+03 -0.47956781632E+02 -0.37597938312E+02  0.27050578805E+03  0.80501630011E+02 0.  0.
         24    2    4    4    0    0  0.50445424731E+03  0.53230142466E+03 -0.72441947357E+03  0.10334787171E+04  0.73998586198E+02 0.  0.
         13    1    3    3    0    0 -0.15979752631E+03 -0.29891323912E+03 -0.22306660114E+02  0.33967920310E+03  0.00000000000E+00 0.  1.
        -13    1    3    3    0    0 -0.93699730536E+02 -0.18543140391E+03  0.57184669984E+02  0.21548673171E+03  0.00000000000E+00 0. -1.
          2    1    6    6  502    0  0.58693673723E+02  0.65291152918E+02 -0.55717061594E+02  0.10398207988E+03  0.00000000000E+00 0. -1.
          3    1    5    5  503    0 -0.13205172542E+02  0.16294884072E+02  0.19726296662E+01  0.21066349864E+02  0.00000000000E+00 0. -1.
         -4    1    5    5    0  503 -0.23775181792E+03 -0.64251665704E+02 -0.39570567979E+02  0.24943943818E+03  0.00000000000E+00 0.  1.
         -3    1    6    6    0  502  0.44576057359E+03  0.46701027174E+03 -0.66870241198E+03  0.92949663725E+03  0.00000000000E+00 0.  1.
<mgrwt>
<rscale>  0 0.17110548E+04</rscale>
<asrwt>0</asrwt>
<pdfrwt beam="1">  1        3 0.19894537E+00 0.17110548E+04</pdfrwt>
<pdfrwt beam="2">  1       -3 0.87077772E-01 0.17110548E+04</pdfrwt>
<totfact> 0.44726214E-01</totfact>
</mgrwt>
</event>
<event>
12    1  0.1519630E-007  0.2912712E+04  0.7818608E-02  0.8269105E-01
          1   -1    0    0  501    0  0.00000000000E+00  0.00000000000E+00  0.85951503771E+03  0.85951503771E+03  0.00000000000E+00 0. -1.
         -1   -1    0    0    0  501 -0.00000000000E+00 -0.00000000000E+00 -0.24676395937E+04  0.24676395937E+04  0.00000000000E+00 0.  1.
         23    2    1    2    0    0  0.11734995225E+04  0.59213121750E+03 -0.76503098800E+03  0.15239201564E+04  0.96642239098E+02 0.  0.
        254    2    1    2    0    0 -0.11734995225E+04 -0.59213121750E+03 -0.84309356799E+03  0.18032344750E+04  0.90173571488E+03 0.  0.
        -24    2    4    4    0    0 -0.11910534742E+03 -0.18946334344E+03  0.16419847296E+03  0.28836725026E+03  0.78179858059E+02 0.  0.
         24    2    4    4    0    0 -0.10543941751E+04 -0.40266787406E+03 -0.10072920409E+04  0.15148672248E+04  0.79353384837E+02 0.  0.
         13    1    3    3    0    0  0.11435706041E+04  0.55798417213E+03 -0.74251599171E+03  0.14732379512E+04  0.00000000000E+00 0. -1.
        -13    1    3    3    0    0  0.29928918401E+02  0.34147045372E+02 -0.22514996294E+02  0.50682205185E+02  0.00000000000E+00 0.  1.
          2    1    6    6  502    0 -0.83842927386E+02 -0.45807274373E+02 -0.62475252083E+02  0.11415384348E+03  0.00000000000E+00 0. -1.
          1    1    5    5  503    0 -0.33040742434E+02 -0.36208112585E+02  0.79163150852E+02  0.93110270811E+02  0.00000000000E+00 0. -1.
         -2    1    5    5    0  503 -0.86064604983E+02 -0.15325523086E+03  0.85035322106E+02  0.19525697945E+03  0.00000000000E+00 0.  1.
         -1    1    6    6    0  502 -0.97055124769E+03 -0.35686059969E+03 -0.94481678887E+03  0.14007133813E+04  0.00000000000E+00 0.  1.
<mgrwt>
<rscale>  0 0.29127124E+04</rscale>
<asrwt>0</asrwt>
<pdfrwt beam="1">  1        1 0.13223308E+00 0.29127124E+04</pdfrwt>
<pdfrwt beam="2">  1       -1 0.37963686E+00 0.29127124E+04</pdfrwt>
<totfact> 0.16580911E-01</totfact>
</mgrwt>
</event>
<event>
12    1  0.1519630E-007  0.3161469E+04  0.7818608E-02  0.8199068E-01
         -2   -1    0    0    0  501 -0.00000000000E+00  0.00000000000E+00  0.18200477268E+04  0.18200477268E+04  0.00000000000E+00 0. -1.
          2   -1    0    0  501    0  0.00000000000E+00 -0.00000000000E+00 -0.13728883410E+04  0.13728883410E+04  0.00000000000E+00 0.  1.
         23    2    1    2    0    0  0.10190197568E+03 -0.57211165939E+02 -0.12550827276E+04  0.12638077113E+04  0.91214843979E+02 0.  0.
        254    2    1    2    0    0 -0.10190197568E+03  0.57211165939E+02  0.17022421134E+04  0.19291283566E+04  0.90013936319E+03 0.  0.
        -24    2    4    4    0    0 -0.30954102945E+03 -0.18174822247E+03  0.15009961251E+04  0.15454437741E+04  0.80987813398E+02 0.  0.
         24    2    4    4    0    0  0.20763905378E+03  0.23895938841E+03  0.20124598831E+03  0.38368458248E+03  0.80612313302E+02 0.  0.
         13    1    3    3    0    0  0.66539241235E+02 -0.13894431761E+02 -0.32432426756E+03  0.33137102527E+03  0.00000000000E+00 0. -1.
        -13    1    3    3    0    0  0.35362734440E+02 -0.43316734178E+02 -0.93075846007E+03  0.93243668602E+03  0.00000000000E+00 0.  1.
          4    1    6    6  502    0  0.50531253609E+02  0.10745961953E+03  0.99548994279E+02  0.15495476657E+03  0.00000000000E+00 0. -1.
          3    1    5    5  503    0 -0.10527869311E+03 -0.19400229108E+02  0.44010223270E+03  0.45293481577E+03  0.00000000000E+00 0. -1.
         -4    1    5    5    0  503 -0.20426233635E+03 -0.16234799336E+03  0.10608938924E+04  0.10925089583E+04  0.00000000000E+00 0.  1.
         -3    1    6    6    0  502  0.15710780017E+03  0.13149976888E+03  0.10169699403E+03  0.22872981591E+03  0.00000000000E+00 0.  1.
<mgrwt>
<rscale>  0 0.31614695E+04</rscale>
<asrwt>0</asrwt>
<pdfrwt beam="1">  1        2 0.21121359E+00 0.31614695E+04</pdfrwt>
<pdfrwt beam="2">  1       -2 0.28000734E+00 0.31614695E+04</pdfrwt>
<totfact> 0.53349121E-01</totfact>
</mgrwt>
</event>
<event>
12    1  0.1519630E-007  0.1669353E+04  0.7818608E-02  0.8779039E-01
          1   -1    0    0  501    0  0.00000000000E+00  0.00000000000E+00  0.19446009180E+04  0.19446009180E+04  0.00000000000E+00 0. -1.
         -1   -1    0    0    0  501 -0.00000000000E+00 -0.00000000000E+00 -0.35826605252E+03  0.35826605252E+03  0.00000000000E+00 0.  1.
         23    2    1    2    0    0  0.26860111077E+03  0.36812511718E+03  0.10381659728E+04  0.11374157695E+04  0.90903174642E+02 0.  0.
        254    2    1    2    0    0 -0.26860111077E+03 -0.36812511718E+03  0.54816889273E+03  0.11654512010E+04  0.92202207586E+03 0.  0.
        -24    2    4    4    0    0  0.77281209428E+02 -0.42035664695E+03  0.65954305566E+03  0.79003458211E+03  0.80532618777E+02 0.  0.
         24    2    4    4    0    0 -0.34588232019E+03  0.52231529775E+02 -0.11137416293E+03  0.37541661890E+03  0.78553939767E+02 0.  0.
         11    1    3    3    0    0 -0.31199336111E+01  0.30693338573E+02  0.55808203973E+02  0.63768100562E+02  0.00000000000E+00 0.  1.
        -11    1    3    3    0    0  0.27172104438E+03  0.33743177860E+03  0.98235776882E+03  0.10736476690E+04  0.00000000000E+00 0. -1.
          4    1    6    6  502    0 -0.64746582305E+01  0.94338706627E+01  0.70076331721E+01  0.13417378192E+02  0.00000000000E+00 0. -1.
          3    1    5    5  503    0  0.19737267197E+02 -0.20444366345E+02  0.67801034687E+02  0.73515387071E+02  0.00000000000E+00 0. -1.
         -4    1    5    5    0  503  0.57543942230E+02 -0.39991228061E+03  0.59174202097E+03  0.71651919504E+03  0.00000000000E+00 0.  1.
         -3    1    6    6    0  502 -0.33940766196E+03  0.42797659112E+02 -0.11838179610E+03  0.36199924071E+03  0.00000000000E+00 0.  1.
<mgrwt>
<rscale>  0 0.16693526E+04</rscale>
<asrwt>0</asrwt>
<pdfrwt beam="1">  1        1 0.29916937E+00 0.16693526E+04</pdfrwt>
<pdfrwt beam="2">  1       -1 0.55117855E-01 0.16693526E+04</pdfrwt>
<totfact> 0.10317365E+01</totfact>
</mgrwt>
</event>
<event>
12    1  0.1519630E-007  0.2263316E+04  0.7818608E-02  0.8492527E-01
         -2   -1    0    0    0  501 -0.00000000000E+00  0.00000000000E+00  0.11749617131E+04  0.11749617131E+04  0.00000000000E+00 0.  1.
          2   -1    0    0  501    0  0.00000000000E+00 -0.00000000000E+00 -0.10899506171E+04  0.10899506171E+04  0.00000000000E+00 0. -1.
         23    2    1    2    0    0  0.48863215774E+03  0.25438448218E+02 -0.77640351327E+03  0.92222304072E+03  0.91018795807E+02 0.  0.
        254    2    1    2    0    0 -0.48863215774E+03 -0.25438448218E+02  0.86141460926E+03  0.13426892894E+04  0.90629514986E+03 0.  0.
        -24    2    4    4    0    0 -0.38494292408E+03 -0.34328367802E+03  0.13465014943E+03  0.53858186626E+03  0.76909203173E+02 0.  0.
         24    2    4    4    0    0 -0.10368923366E+03  0.31784522980E+03  0.72676445983E+03  0.80410742316E+03  0.81394843950E+02 0.  0.
         13    1    3    3    0    0  0.18347446928E+03 -0.17735895726E+02 -0.35673648889E+03  0.40154497305E+03  0.00000000000E+00 0. -1.
        -13    1    3    3    0    0  0.30515768846E+03  0.43174343945E+02 -0.41966702438E+03  0.52067806767E+03  0.00000000000E+00 0.  1.
          2    1    6    6  502    0 -0.50277995053E+01  0.61356438593E+02  0.20971770972E+03  0.21856671543E+03  0.00000000000E+00 0. -1.
          1    1    5    5  503    0 -0.10024302801E+03 -0.47459774262E+02  0.28933399249E+02  0.11462214633E+03  0.00000000000E+00 0. -1.
         -2    1    5    5    0  503 -0.28469989607E+03 -0.29582390376E+03  0.10571675018E+03  0.42395971994E+03  0.00000000000E+00 0.  1.
         -1    1    6    6    0  502 -0.98661434152E+02  0.25648879121E+03  0.51704675011E+03  0.58554070773E+03  0.00000000000E+00 0.  1.
<mgrwt>
<rscale>  0 0.22633164E+04</rscale>
<asrwt>0</asrwt>
<pdfrwt beam="1">  1        2 0.16768471E+00 0.22633164E+04</pdfrwt>
<pdfrwt beam="2">  1       -2 0.18076334E+00 0.22633164E+04</pdfrwt>
<totfact> 0.35997379E+00</totfact>
</mgrwt>
</event>
<event>
12    1  0.1519630E-007  0.1784523E+04  0.7818608E-02  0.8714573E-01
         -1   -1    0    0    0  501 -0.00000000000E+00  0.00000000000E+00  0.72629453568E+03  0.72629453568E+03  0.00000000000E+00 0.  1.
          1   -1    0    0  501    0  0.00000000000E+00 -0.00000000000E+00 -0.10961542989E+04  0.10961542989E+04  0.00000000000E+00 0. -1.
         23    2    1    2    0    0 -0.29434539443E+03 -0.49122292835E+03 -0.25849658131E+03  0.63704767186E+03  0.10521443396E+03 0.  0.
        254    2    1    2    0    0  0.29434539443E+03  0.49122292835E+03 -0.11136318191E+03  0.11854011627E+04  0.10319084173E+04 0.  0.
        -24    2    4    4    0    0  0.38943576297E+03  0.24606268741E+03 -0.51600975784E+03  0.69638462826E+03  0.80488636925E+02 0.  0.
         24    2    4    4    0    0 -0.95090368542E+02  0.24516024094E+03  0.40464657593E+03  0.48901653446E+03  0.79073368730E+02 0.  0.
         13    1    3    3    0    0 -0.88299459397E+02 -0.76624861182E+02 -0.75771280637E+02  0.13931780522E+03  0.00000000000E+00 0. -1.
        -13    1    3    3    0    0 -0.20604593503E+03 -0.41459806716E+03 -0.18272530068E+03  0.49772986664E+03  0.00000000000E+00 0.  1.
          2    1    6    6  502    0  0.56488377764E+01  0.81604021230E+02  0.13720848562E+03  0.15974133521E+03  0.00000000000E+00 0. -1.
          3    1    5    5  503    0  0.39586558850E+02  0.54733976319E+02 -0.57207137054E+02  0.88518700483E+02  0.00000000000E+00 0. -1.
         -4    1    5    5    0  503  0.34984920412E+03  0.19132871109E+03 -0.45880262078E+03  0.60786592778E+03  0.00000000000E+00 0.  1.
         -1    1    6    6    0  502 -0.10073920632E+03  0.16355621971E+03  0.26743809031E+03  0.32927519925E+03  0.00000000000E+00 0.  1.
<mgrwt>
<rscale>  0 0.17845233E+04</rscale>
<asrwt>0</asrwt>
<pdfrwt beam="1">  1        1 0.16863912E+00 0.17845233E+04</pdfrwt>
<pdfrwt beam="2">  1       -1 0.11173762E+00 0.17845233E+04</pdfrwt>
<totfact> 0.88690376E+00</totfact>
</mgrwt>
</event>
<event>
12    1  0.1519630E-007  0.1360255E+04  0.7818608E-02  0.8983101E-01
          2   -1    0    0  501    0  0.00000000000E+00  0.00000000000E+00  0.11587532194E+04  0.11587532194E+04  0.00000000000E+00 0. -1.
         -2   -1    0    0    0  501 -0.00000000000E+00 -0.00000000000E+00 -0.39919944320E+03  0.39919944320E+03  0.00000000000E+00 0.  1.
         23    2    1    2    0    0 -0.37718185530E+03 -0.21491600513E+02  0.17089830672E+03  0.42468722435E+03  0.91787615870E+02 0.  0.
        254    2    1    2    0    0  0.37718185530E+03  0.21491600513E+02  0.58865546947E+03  0.11332654382E+04  0.89165422160E+03 0.  0.
        -24    2    4    4    0    0 -0.41897506497E+02  0.54839345904E+02 -0.20538357375E+03  0.23132843484E+03  0.81041208581E+02 0.  0.
         24    2    4    4    0    0  0.41907936180E+03 -0.33347745391E+02  0.79403904322E+03  0.90193700340E+03  0.79074473312E+02 0.  0.
         11    1    3    3    0    0 -0.34361036716E+03  0.86473582760E+00  0.17217128106E+03  0.38433290545E+03  0.00000000000E+00 0.  1.
        -11    1    3    3    0    0 -0.33571488137E+02 -0.22356336341E+02 -0.12729743393E+01  0.40354318901E+02  0.00000000000E+00 0. -1.
          2    1    6    6  502    0  0.85092359185E+02 -0.36900502748E+02  0.19936087320E+03  0.21987977274E+03  0.00000000000E+00 0. -1.
          1    1    5    5  503    0 -0.33656248033E+02  0.22849594380E+01 -0.21732728015E+02  0.40128238664E+02  0.00000000000E+00 0. -1.
         -2    1    5    5    0  503 -0.82412584644E+01  0.52554386466E+02 -0.18365084573E+03  0.19120019617E+03  0.00000000000E+00 0.  1.
         -1    1    6    6    0  502  0.33398700261E+03  0.35527573563E+01  0.59467817002E+03  0.68205723066E+03  0.00000000000E+00 0.  1.
<mgrwt>
<rscale>  0 0.13602553E+04</rscale>
<asrwt>0</asrwt>
<pdfrwt beam="1">  1        2 0.17826973E+00 0.13602553E+04</pdfrwt>
<pdfrwt beam="2">  1       -2 0.61415299E-01 0.13602553E+04</pdfrwt>
<totfact> 0.48253975E+01</totfact>
</mgrwt>
</event>
<event>
12    1  0.1519630E-007  0.1889002E+04  0.7818608E-02  0.8660350E-01
          1   -1    0    0  501    0  0.00000000000E+00  0.00000000000E+00  0.10492721120E+04  0.10492721120E+04  0.00000000000E+00 0. -1.
         -1   -1    0    0    0  501 -0.00000000000E+00 -0.00000000000E+00 -0.85019125000E+03  0.85019125000E+03  0.00000000000E+00 0.  1.
         23    2    1    2    0    0 -0.55243387235E+03 -0.39704427014E+03  0.30480771753E+03  0.74994447023E+03  0.81741225824E+02 0.  0.
        254    2    1    2    0    0  0.55243387235E+03  0.39704427014E+03 -0.10572685552E+03  0.11495188918E+04  0.92053689703E+03 0.  0.
        -24    2    4    4    0    0  0.58510191380E+03  0.61602914652E+03 -0.22958210277E+03  0.88370757419E+03  0.79968593021E+02 0.  0.
         24    2    4    4    0    0 -0.32668041441E+02 -0.21898487638E+03  0.12385524725E+03  0.26581131759E+03  0.79334464584E+02 0.  0.
         13    1    3    3    0    0 -0.53912909298E+03 -0.39985004783E+03  0.30212902794E+03  0.73608572135E+03  0.00000000000E+00 0. -1.
        -13    1    3    3    0    0 -0.13304779379E+02  0.28057776993E+01  0.26786895839E+01  0.13858748887E+02  0.00000000000E+00 0.  1.
          2    1    6    6  502    0  0.13289002588E+02 -0.15643068349E+03  0.74017170930E+02  0.17356756010E+03  0.00000000000E+00 0. -1.
          3    1    5    5  503    0  0.74878344044E+02  0.12013678314E+03 -0.46866467730E+02  0.14911766786E+03  0.00000000000E+00 0. -1.
         -4    1    5    5    0  503  0.51022356975E+03  0.49589236338E+03 -0.18271563504E+03  0.73458990633E+03  0.00000000000E+00 0.  1.
         -1    1    6    6    0  502 -0.45957044029E+02 -0.62554192899E+02  0.49838076322E+02  0.92243757494E+02  0.00000000000E+00 0.  1.
<mgrwt>
<rscale>  0 0.18890018E+04</rscale>
<asrwt>0</asrwt>
<pdfrwt beam="1">  1        1 0.16142648E+00 0.18890018E+04</pdfrwt>
<pdfrwt beam="2">  1       -1 0.13079865E+00 0.18890018E+04</pdfrwt>
<totfact> 0.64807622E+00</totfact>
</mgrwt>
</event>
<event>
12    1  0.1519630E-007  0.2373624E+04  0.7818608E-02  0.8449445E-01
         -1   -1    0    0    0  501 -0.00000000000E+00  0.00000000000E+00  0.13880868548E+04  0.13880868548E+04  0.00000000000E+00 0.  1.
          1   -1    0    0  501    0  0.00000000000E+00 -0.00000000000E+00 -0.10147219790E+04  0.10147219790E+04  0.00000000000E+00 0. -1.
         23    2    1    2    0    0  0.31191564596E+03  0.89178353423E+03  0.28414655525E+03  0.99080854765E+03  0.91613705890E+02 0.  0.
        254    2    1    2    0    0 -0.31191564596E+03 -0.89178353423E+03  0.89218320491E+02  0.14120002861E+04  0.10455695372E+04 0.  0.
        -24    2    4    4    0    0  0.35569373388E+03 -0.50729693119E+03  0.11819280591E+03  0.63639971949E+03  0.84657278980E+02 0.  0.
         24    2    4    4    0    0 -0.66760937984E+03 -0.38448660305E+03 -0.28974485417E+02  0.77560056664E+03  0.84761348457E+02 0.  0.
         11    1    3    3    0    0  0.30209252494E+03  0.77200688888E+03  0.24728634415E+03  0.86510407819E+03  0.00000000000E+00 0. -1.
        -11    1    3    3    0    0  0.98231210223E+01  0.11977664536E+03  0.36860211103E+02  0.12570446946E+03  0.00000000000E+00 0.  1.
          4    1    6    6  502    0 -0.33793535311E+03 -0.22179067234E+03 -0.50375501029E+02  0.40734395334E+03  0.00000000000E+00 0. -1.
          1    1    5    5  503    0  0.13493886061E+03 -0.17489458299E+03  0.82404403499E+02  0.23576916036E+03  0.00000000000E+00 0. -1.
         -2    1    5    5    0  503  0.22075487327E+03 -0.33240234819E+03  0.35788402409E+02  0.40063055912E+03  0.00000000000E+00 0.  1.
         -1    1    6    6    0  502 -0.32967402673E+03 -0.16269593070E+03  0.21401015612E+02  0.36825661330E+03  0.00000000000E+00 0.  1.
<mgrwt>
<rscale>  0 0.23736236E+04</rscale>
<asrwt>0</asrwt>
<pdfrwt beam="1">  1        1 0.15611107E+00 0.23736236E+04</pdfrwt>
<pdfrwt beam="2">  1       -1 0.21355182E+00 0.23736236E+04</pdfrwt>
<totfact> 0.16096621E+00</totfact>
</mgrwt>
</event>
<event>
12    1  0.1519630E-007  0.1560965E+04  0.7818608E-02  0.8844894E-01
          2   -1    0    0  501    0  0.00000000000E+00  0.00000000000E+00  0.23671664285E+04  0.23671664285E+04  0.00000000000E+00 0. -1.
         -2   -1    0    0    0  501 -0.00000000000E+00 -0.00000000000E+00 -0.25733426484E+03  0.25733426484E+03  0.00000000000E+00 0.  1.
         23    2    1    2    0    0 -0.12988376133E+03 -0.49801593267E+03  0.82543106644E+03  0.97686518571E+03  0.89663175004E+02 0.  0.
        254    2    1    2    0    0  0.12988376133E+03  0.49801593267E+03  0.12844010972E+04  0.16476355076E+04  0.89449814244E+03 0.  0.
        -24    2    4    4    0    0 -0.35892049220E+03  0.66124898199E+02  0.45866300377E+03  0.59200360741E+03  0.83066830175E+02 0.  0.
         24    2    4    4    0    0  0.48880425353E+03  0.43189103448E+03  0.82573809346E+03  0.10556319002E+04  0.83999082616E+02 0.  0.
         13    1    3    3    0    0 -0.14087013428E+03 -0.47263943624E+03  0.76210110411E+03  0.90776127055E+03  0.00000000000E+00 0. -1.
        -13    1    3    3    0    0  0.10986372950E+02 -0.25376496432E+02  0.63329962325E+02  0.69103915155E+02  0.00000000000E+00 0.  1.
          2    1    6    6  502    0  0.24725349091E+03  0.27320976656E+03  0.45087184818E+03  0.58229141226E+03  0.00000000000E+00 0. -1.
          3    1    5    5  503    0 -0.85375794341E+02 -0.17939639179E+02  0.12495634679E+03  0.15239732779E+03  0.00000000000E+00 0. -1.
         -4    1    5    5    0  503 -0.27354469786E+03  0.84064537378E+02  0.33370665698E+03  0.43960627962E+03  0.00000000000E+00 0.  1.
         -1    1    6    6    0  502  0.24155076262E+03  0.15868126792E+03  0.37486624528E+03  0.47334048798E+03  0.00000000000E+00 0.  1.
<mgrwt>
<rscale>  0 0.15609651E+04</rscale>
<asrwt>0</asrwt>
<pdfrwt beam="1">  1        2 0.36417944E+00 0.15609651E+04</pdfrwt>
<pdfrwt beam="2">  1       -2 0.39589889E-01 0.15609651E+04</pdfrwt>
<totfact> 0.24134403E+01</totfact>
</mgrwt>
</event>
<event>
12    1  0.1519630E-007  0.1776233E+04  0.7818608E-02  0.8719042E-01
         -2   -1    0    0    0  501 -0.00000000000E+00  0.00000000000E+00  0.97407066013E+03  0.97407066013E+03  0.00000000000E+00 0. -1.
          2   -1    0    0  501    0  0.00000000000E+00 -0.00000000000E+00 -0.80974685069E+03  0.80974685069E+03  0.00000000000E+00 0.  1.
         23    2    1    2    0    0 -0.75094235377E+02  0.62087964895E+03  0.23342217846E+03  0.67390247840E+03  0.92346923810E+02 0.  0.
        254    2    1    2    0    0  0.75094235377E+02 -0.62087964895E+03 -0.69098369023E+02  0.11099150324E+04  0.91433369834E+03 0.  0.
        -24    2    4    4    0    0  0.32449655368E+03 -0.39365288780E+03  0.30520569093E+03  0.60006232128E+03  0.81631282102E+02 0.  0.
         24    2    4    4    0    0 -0.24940231830E+03 -0.22722676114E+03 -0.37430405996E+03  0.50985271113E+03  0.77541862196E+02 0.  0.
         13    1    3    3    0    0  0.64785192133E+01  0.25972929422E+03  0.12358595167E+03  0.28770603910E+03  0.00000000000E+00 0.  1.
        -13    1    3    3    0    0 -0.81572754590E+02  0.36115035473E+03  0.10983622679E+03  0.38619643930E+03  0.00000000000E+00 0. -1.
          4    1    6    6  502    0 -0.14482935047E+03 -0.10300940019E+03 -0.14775391994E+03  0.23112269067E+03  0.00000000000E+00 0. -1.
          3    1    5    5  503    0  0.21434213518E+03 -0.20181691965E+03  0.15541132402E+03  0.33290434002E+03  0.00000000000E+00 0. -1.
         -4    1    5    5    0  503  0.11015441850E+03 -0.19183596815E+03  0.14979436692E+03  0.26715798126E+03  0.00000000000E+00 0.  1.
         -3    1    6    6    0  502 -0.10457296783E+03 -0.12421736096E+03 -0.22655014002E+03  0.27873002046E+03  0.00000000000E+00 0.  1.
<mgrwt>
<rscale>  0 0.17762327E+04</rscale>
<asrwt>0</asrwt>
<pdfrwt beam="1">  1        2 0.12457644E+00 0.17762327E+04</pdfrwt>
<pdfrwt beam="2">  1       -2 0.14985702E+00 0.17762327E+04</pdfrwt>
<totfact> 0.96258939E+00</totfact>
</mgrwt>
</event>
<event>
12    1  0.1519630E-007  0.1655820E+04  0.7818608E-02  0.8786971E-01
         -2   -1    0    0    0  501 -0.00000000000E+00  0.00000000000E+00  0.36454061744E+03  0.36454061744E+03  0.00000000000E+00 0.  1.
          2   -1    0    0  501    0  0.00000000000E+00 -0.00000000000E+00 -0.18802708446E+04  0.18802708446E+04  0.00000000000E+00 0. -1.
         23    2    1    2    0    0 -0.21229423142E+03 -0.38945657218E+03 -0.41007883593E+02  0.45488169735E+03  0.92143636584E+02 0.  0.
        254    2    1    2    0    0  0.21229423142E+03  0.38945657218E+03 -0.14747223436E+04  0.17899297647E+04  0.91230329912E+03 0.  0.
        -24    2    4    4    0    0  0.14310038569E+03  0.36938373193E+03 -0.15845413894E+04  0.16352981084E+04  0.80662425834E+02 0.  0.
         24    2    4    4    0    0  0.69193845738E+02  0.20072840251E+02  0.10981904581E+03  0.15463165627E+03  0.81608940048E+02 0.  0.
         13    1    3    3    0    0 -0.14567873496E+03 -0.17100318602E+03 -0.21032645881E+02  0.22562525488E+03  0.00000000000E+00 0. -1.
        -13    1    3    3    0    0 -0.66615496468E+02 -0.21845338616E+03 -0.19975237711E+02  0.22925644248E+03  0.00000000000E+00 0.  1.
          2    1    6    6  502    0  0.83900647752E+02  0.29578599489E+02  0.10230889974E+03  0.13557773861E+03  0.00000000000E+00 0. -1.
          1    1    5    5  503    0  0.51038454146E+02  0.11835111818E+03 -0.67822961203E+03  0.69036752358E+03  0.00000000000E+00 0. -1.
         -2    1    5    5    0  503  0.92061931540E+02  0.25103261375E+03 -0.90631177737E+03  0.94493058486E+03  0.00000000000E+00 0.  1.
         -1    1    6    6    0  502 -0.14706802014E+02 -0.95057592384E+01  0.75101460605E+01  0.19053917656E+02  0.00000000000E+00 0.  1.
<mgrwt>
<rscale>  0 0.16558202E+04</rscale>
<asrwt>0</asrwt>
<pdfrwt beam="1">  1        2 0.28927244E+00 0.16558202E+04</pdfrwt>
<pdfrwt beam="2">  1       -2 0.56083172E-01 0.16558202E+04</pdfrwt>
<totfact> 0.22195488E+01</totfact>
</mgrwt>
</event>
<event>
12    1  0.1519630E-007  0.2335984E+04  0.7818608E-02  0.8463867E-01
         -1   -1    0    0    0  501 -0.00000000000E+00  0.00000000000E+00  0.85993025799E+03  0.85993025799E+03  0.00000000000E+00 0.  1.
          1   -1    0    0  501    0  0.00000000000E+00 -0.00000000000E+00 -0.15864140533E+04  0.15864140533E+04  0.00000000000E+00 0. -1.
         23    2    1    2    0    0  0.60108618720E+03  0.63819711392E+03  0.18330213233E+03  0.90054053549E+03  0.93666555833E+02 0.  0.
        254    2    1    2    0    0 -0.60108618720E+03 -0.63819711392E+03 -0.90978592765E+03  0.15458037758E+04  0.89061704368E+03 0.  0.
        -24    2    4    4    0    0 -0.58066467269E+03 -0.47075757127E+03 -0.10651816373E+04  0.13038166794E+04  0.80881766160E+02 0.  0.
         24    2    4    4    0    0 -0.20421514503E+02 -0.16743954265E+03  0.15539570960E+03  0.24198709642E+03  0.77180888666E+02 0.  0.
         11    1    3    3    0    0  0.83004688934E+02  0.90991396827E+02 -0.68907115792E+01  0.12335596697E+03  0.00000000000E+00 0. -1.
        -11    1    3    3    0    0  0.51808149826E+03  0.54720571710E+03  0.19019284391E+03  0.77718456852E+03  0.00000000000E+00 0.  1.
          4    1    6    6  502    0  0.21705473638E+02 -0.41296905081E+02  0.15984341613E+02  0.49315931826E+02  0.00000000000E+00 0. -1.
          3    1    5    5  503    0 -0.11263684609E+03 -0.76385712547E+02 -0.14675583417E+03  0.20014772305E+03  0.00000000000E+00 0. -1.
         -2    1    5    5    0  503 -0.46802782660E+03 -0.39437185873E+03 -0.91842580308E+03  0.11036689563E+04  0.00000000000E+00 0.  1.
         -3    1    6    6    0  502 -0.42126988141E+02 -0.12614263757E+03  0.13941136798E+03  0.19267116459E+03  0.00000000000E+00 0.  1.
<mgrwt>
<rscale>  0 0.23359841E+04</rscale>
<asrwt>0</asrwt>
<pdfrwt beam="1">  1        1 0.24406370E+00 0.23359841E+04</pdfrwt>
<pdfrwt beam="2">  1       -1 0.13229696E+00 0.23359841E+04</pdfrwt>
<totfact> 0.24921456E+00</totfact>
</mgrwt>
</event>
<event>
12    1  0.1519630E-007  0.2226994E+04  0.7818608E-02  0.8507276E-01
          1   -1    0    0  501    0  0.00000000000E+00  0.00000000000E+00  0.36788535555E+04  0.36788535555E+04  0.00000000000E+00 0. -1.
         -1   -1    0    0    0  501 -0.00000000000E+00 -0.00000000000E+00 -0.33702780505E+03  0.33702780505E+03  0.00000000000E+00 0.  1.
         23    2    1    2    0    0 -0.22617923364E+03  0.29704331046E+03  0.29283394212E+04  0.29535319331E+04  0.93740812883E+02 0.  0.
        254    2    1    2    0    0  0.22617923364E+03 -0.29704331046E+03  0.41348632917E+03  0.10623494274E+04  0.90455712225E+03 0.  0.
        -24    2    4    4    0    0  0.17778995717E+02 -0.59663685713E+03  0.22729158597E+03  0.64375849393E+03  0.80448129184E+02 0.  0.
         24    2    4    4    0    0  0.20840023792E+03  0.29959354667E+03  0.18619474320E+03  0.41859093344E+03  0.85807545034E+02 0.  0.
         13    1    3    3    0    0 -0.22720220923E+03  0.29926588865E+03  0.27918978977E+04  0.28170684740E+04  0.00000000000E+00 0. -1.
        -13    1    3    3    0    0  0.10229755893E+01 -0.22225781954E+01  0.13644152351E+03  0.13646345911E+03  0.00000000000E+00 0.  1.
          4    1    6    6  502    0  0.41326187156E+02  0.78477424443E+02  0.86985216839E+02  0.12422957716E+03  0.00000000000E+00 0. -1.
          1    1    5    5  503    0  0.18582037635E+02 -0.28618192039E+02  0.16340399744E+02  0.37832548184E+02  0.00000000000E+00 0. -1.
         -2    1    5    5    0  503 -0.80304191745E+00 -0.56801866509E+03  0.21095118622E+03  0.60592594575E+03  0.00000000000E+00 0.  1.
         -3    1    6    6    0  502  0.16707405077E+03  0.22111612223E+03  0.99209526363E+02  0.29436135628E+03  0.00000000000E+00 0.  1.
<mgrwt>
<rscale>  0 0.22269943E+04</rscale>
<asrwt>0</asrwt>
<pdfrwt beam="1">  1        1 0.56597744E+00 0.22269943E+04</pdfrwt>
<pdfrwt beam="2">  1       -1 0.51850434E-01 0.22269943E+04</pdfrwt>
<totfact> 0.61354635E-01</totfact>
</mgrwt>
</event>
<event>
12    1  0.1519630E-007  0.1202966E+04  0.7818608E-02  0.9110264E-01
         -2   -1    0    0    0  501 -0.00000000000E+00  0.00000000000E+00  0.38750668481E+03  0.38750668481E+03  0.00000000000E+00 0.  1.
          2   -1    0    0  501    0  0.00000000000E+00 -0.00000000000E+00 -0.93361499345E+03  0.93361499345E+03  0.00000000000E+00 0. -1.
         23    2    1    2    0    0  0.16216000886E+03 -0.44403113030E+02  0.85285082467E+02  0.20922844967E+03  0.90749622239E+02 0.  0.
        254    2    1    2    0    0 -0.16216000886E+03  0.44403113030E+02 -0.63139339111E+03  0.11118932286E+04  0.89965628577E+03 0.  0.
        -24    2    4    4    0    0  0.30617377627E+03 -0.99573861962E+01  0.39164819040E+01  0.31694126519E+03  0.81208964623E+02 0.  0.
         24    2    4    4    0    0 -0.46833378514E+03  0.54360499226E+02 -0.63530987302E+03  0.79495196340E+03  0.77707085816E+02 0.  0.
         13    1    3    3    0    0 -0.23231245503E+01 -0.54803230799E+00  0.30220835781E+02  0.30314949487E+02  0.00000000000E+00 0. -1.
        -13    1    3    3    0    0  0.16448313341E+03 -0.43855080722E+02  0.55064246685E+02  0.17891350018E+03  0.00000000000E+00 0.  1.
          2    1    6    6  502    0 -0.39782326668E+03  0.57881267352E+02 -0.57780234824E+03  0.70389569273E+03  0.00000000000E+00 0. -1.
          1    1    5    5  503    0  0.74156482402E+02  0.32956663913E+01  0.35724796939E+02  0.82379041118E+02  0.00000000000E+00 0. -1.
         -2    1    5    5    0  503  0.23201729387E+03 -0.13253052587E+02 -0.31808315035E+02  0.23456222408E+03  0.00000000000E+00 0.  1.
         -1    1    6    6    0  502 -0.70510518459E+02 -0.35207681264E+01 -0.57507524778E+02  0.91056270666E+02  0.00000000000E+00 0.  1.
<mgrwt>
<rscale>  0 0.12029664E+04</rscale>
<asrwt>0</asrwt>
<pdfrwt beam="1">  1        2 0.14363308E+00 0.12029664E+04</pdfrwt>
<pdfrwt beam="2">  1       -2 0.59616413E-01 0.12029664E+04</pdfrwt>
<totfact> 0.72110602E+01</totfact>
</mgrwt>
</event>
<event>
12    1  0.1519630E-007  0.1451462E+04  0.7818608E-02  0.8917388E-01
         -1   -1    0    0    0  501 -0.00000000000E+00  0.00000000000E+00  0.78133906807E+03  0.78133906807E+03  0.00000000000E+00 0.  1.
          1   -1    0    0  501    0  0.00000000000E+00 -0.00000000000E+00 -0.67408010712E+03  0.67408010712E+03  0.00000000000E+00 0. -1.
         23    2    1    2    0    0 -0.16985313480E+01 -0.21930959965E+03 -0.34752351851E+03  0.42132681699E+03  0.92973680637E+02 0.  0.
        254    2    1    2    0    0  0.16985313480E+01  0.21930959965E+03  0.45478247946E+03  0.10340923582E+04  0.90245238997E+03 0.  0.
        -24    2    4    4    0    0 -0.30628003556E+03 -0.26770463508E+02 -0.11527117893E+03  0.33640819624E+03  0.73204589395E+02 0.  0.
         24    2    4    4    0    0  0.30797856690E+03  0.24608006315E+03  0.57005365838E+03  0.69768416196E+03  0.79973878600E+02 0.  0.
         13    1    3    3    0    0  0.31899815875E+02 -0.19120778631E+03 -0.29414600152E+03  0.35227813729E+03  0.00000000000E+00 0. -1.
        -13    1    3    3    0    0 -0.33598347223E+02 -0.28101813332E+02 -0.53377516989E+02  0.69048679702E+02  0.00000000000E+00 0.  1.
          2    1    6    6  502    0  0.10632703932E+03  0.73131159642E+02  0.12681662700E+03  0.18093109928E+03  0.00000000000E+00 0. -1.
          3    1    5    5  503    0 -0.14694806162E+03 -0.42359163259E+02 -0.33155974090E+02  0.15648434472E+03  0.00000000000E+00 0. -1.
         -4    1    5    5    0  503 -0.15933197394E+03  0.15588699751E+02 -0.82115204838E+02  0.17992385152E+03  0.00000000000E+00 0.  1.
         -1    1    6    6    0  502  0.20165152758E+03  0.17294890351E+03  0.44323703139E+03  0.51675306268E+03  0.00000000000E+00 0.  1.
<mgrwt>
<rscale>  0 0.14514615E+04</rscale>
<asrwt>0</asrwt>
<pdfrwt beam="1">  1        1 0.10370463E+00 0.14514615E+04</pdfrwt>
<pdfrwt beam="2">  1       -1 0.12020601E+00 0.14514615E+04</pdfrwt>
<totfact> 0.17274643E+01</totfact>
</mgrwt>
</event>
<event>
12    1  0.1519630E-007  0.1262497E+04  0.7818608E-02  0.9059846E-01
         -1   -1    0    0    0  501 -0.00000000000E+00  0.00000000000E+00  0.22619564156E+03  0.22619564156E+03  0.00000000000E+00 0.  1.
          1   -1    0    0  501    0  0.00000000000E+00 -0.00000000000E+00 -0.17616372865E+04  0.17616372865E+04  0.00000000000E+00 0. -1.
         23    2    1    2    0    0 -0.22416343657E+03  0.18252847659E+03 -0.44862233651E+03  0.54140996355E+03  0.91087083320E+02 0.  0.
        254    2    1    2    0    0  0.22416343657E+03 -0.18252847659E+03 -0.10868193084E+04  0.14464229645E+04  0.90961381477E+03 0.  0.
        -24    2    4    4    0    0  0.45755958050E+03 -0.97385589300E+02 -0.18786422249E+03  0.51062301156E+03  0.81229127392E+02 0.  0.
         24    2    4    4    0    0 -0.23339614393E+03 -0.85142887287E+02 -0.89895508590E+03  0.93579995292E+03  0.76669642976E+02 0.  0.
         13    1    3    3    0    0 -0.89156538059E+02  0.10906398601E+03 -0.15140453465E+03  0.20680225926E+03  0.00000000000E+00 0.  1.
        -13    1    3    3    0    0 -0.13500689851E+03  0.73464490575E+02 -0.29721780187E+03  0.33460770428E+03  0.00000000000E+00 0. -1.
          2    1    6    6  502    0 -0.56184879752E+01 -0.22780248609E+02 -0.67786314759E+02  0.71732082101E+02  0.00000000000E+00 0. -1.
          3    1    5    5  503    0  0.25788413247E+03 -0.33302419244E+02 -0.66757595139E+02  0.26845828990E+03  0.00000000000E+00 0. -1.
         -4    1    5    5    0  503  0.19967544803E+03 -0.64083170056E+02 -0.12110662735E+03  0.24216472167E+03  0.00000000000E+00 0.  1.
         -1    1    6    6    0  502 -0.22777765595E+03 -0.62362638678E+02 -0.83116877114E+03  0.86406787082E+03  0.00000000000E+00 0.  1.
<mgrwt>
<rscale>  0 0.12624970E+04</rscale>
<asrwt>0</asrwt>
<pdfrwt beam="1">  1        1 0.27102111E+00 0.12624970E+04</pdfrwt>
<pdfrwt beam="2">  1       -1 0.34799331E-01 0.12624970E+04</pdfrwt>
<totfact> 0.33434093E+01</totfact>
</mgrwt>
</event>
<event>
12    1  0.1519630E-007  0.2050609E+04  0.7818608E-02  0.8583318E-01
          2   -1    0    0  501    0  0.00000000000E+00  0.00000000000E+00  0.22699301423E+04  0.22699301423E+04  0.00000000000E+00 0. -1.
         -2   -1    0    0    0  501 -0.00000000000E+00 -0.00000000000E+00 -0.46311974874E+03  0.46311974874E+03  0.00000000000E+00 0.  1.
         23    2    1    2    0    0 -0.71270188436E+03 -0.26585678836E+03  0.30361073726E+03  0.82595653885E+03  0.10677507386E+03 0.  0.
        254    2    1    2    0    0  0.71270188436E+03  0.26585678836E+03  0.15031996563E+04  0.19070933522E+04  0.89374047653E+03 0.  0.
        -24    2    4    4    0    0 -0.16410797989E+03  0.79988375681E+02  0.60068142147E+03  0.63292197698E+03  0.80265120323E+02 0.  0.
         24    2    4    4    0    0  0.87680986425E+03  0.18586841267E+03  0.90251823484E+03  0.12741713752E+04  0.75039485096E+02 0.  0.
         11    1    3    3    0    0 -0.46116923468E+03 -0.11672808286E+03  0.18759549859E+03  0.51136540696E+03  0.00000000000E+00 0.  1.
        -11    1    3    3    0    0 -0.25153264968E+03 -0.14912870549E+03  0.11601523867E+03  0.31459113189E+03  0.00000000000E+00 0. -1.
          4    1    6    6  502    0  0.24845658440E+02 -0.61500986673E+01  0.19080196130E+02  0.31924666659E+02  0.00000000000E+00 0. -1.
          3    1    5    5  503    0  0.99267786542E+00 -0.10893366493E+02  0.35505497276E+02  0.37152270183E+02  0.00000000000E+00 0. -1.
         -4    1    5    5    0  503 -0.16510065776E+03  0.90881742174E+02  0.56517592420E+03  0.59576970680E+03  0.00000000000E+00 0.  1.
         -3    1    6    6    0  502  0.85196420581E+03  0.19201851134E+03  0.88343803871E+03  0.12422467086E+04  0.00000000000E+00 0.  1.
<mgrwt>
<rscale>  0 0.20506092E+04</rscale>
<asrwt>0</asrwt>
<pdfrwt beam="1">  1        2 0.34922002E+00 0.20506092E+04</pdfrwt>
<pdfrwt beam="2">  1       -2 0.71249193E-01 0.20506092E+04</pdfrwt>
<totfact> 0.78020358E+00</totfact>
</mgrwt>
</event>
<event>
12    1  0.1519630E-007  0.2647125E+04  0.7818608E-02  0.8352368E-01
          2   -1    0    0  501    0  0.00000000000E+00  0.00000000000E+00  0.16595545673E+04  0.16595545673E+04  0.00000000000E+00 0. -1.
         -2   -1    0    0    0  501 -0.00000000000E+00 -0.00000000000E+00 -0.10555948985E+04  0.10555948985E+04  0.00000000000E+00 0.  1.
         23    2    1    2    0    0 -0.32656340601E+03  0.29742935738E+03  0.13671274074E+04  0.14396804526E+04  0.92382772811E+02 0.  0.
        254    2    1    2    0    0  0.32656340601E+03 -0.29742935738E+03 -0.76316773863E+03  0.12754690131E+04  0.92156840514E+03 0.  0.
        -24    2    4    4    0    0  0.38010296174E+02 -0.54729262152E+02  0.20736072595E+03  0.23123664620E+03  0.77664928567E+02 0.  0.
         24    2    4    4    0    0  0.28855310984E+03 -0.24270009523E+03 -0.97052846458E+03  0.10442323669E+04  0.79558168127E+02 0.  0.
         13    1    3    3    0    0 -0.16905046484E+03  0.96298397287E+02  0.53860399242E+03  0.57266543604E+03  0.00000000000E+00 0.  1.
        -13    1    3    3    0    0 -0.15751294117E+03  0.20113096009E+03  0.82852341503E+03  0.86701501659E+03  0.00000000000E+00 0. -1.
          4    1    6    6  502    0  0.22112683949E+03 -0.15342751102E+03 -0.60977833504E+03  0.66653334363E+03  0.00000000000E+00 0. -1.
          1    1    5    5  503    0  0.15097235872E+02 -0.47038302564E+02  0.19994144332E+03  0.20595414343E+03  0.00000000000E+00 0. -1.
         -2    1    5    5    0  503  0.22913060302E+02 -0.76909595882E+01  0.74192826335E+01  0.25282502775E+02  0.00000000000E+00 0.  1.
         -3    1    6    6    0  502  0.67426270344E+02 -0.89272584214E+02 -0.36075012954E+03  0.37769902328E+03  0.00000000000E+00 0.  1.
<mgrwt>
<rscale>  0 0.26471247E+04</rscale>
<asrwt>0</asrwt>
<pdfrwt beam="1">  1        2 0.25531609E+00 0.26471247E+04</pdfrwt>
<pdfrwt beam="2">  1       -2 0.16239922E+00 0.26471247E+04</pdfrwt>
<totfact> 0.22015446E+00</totfact>
</mgrwt>
</event>
<event>
12    1  0.1519630E-007  0.1608372E+04  0.7818608E-02  0.8815421E-01
          2   -1    0    0  501    0  0.00000000000E+00  0.00000000000E+00  0.30818278035E+03  0.30818278035E+03  0.00000000000E+00 0. -1.
         -2   -1    0    0    0  501 -0.00000000000E+00 -0.00000000000E+00 -0.20984797272E+04  0.20984797272E+04  0.00000000000E+00 0.  1.
         23    2    1    2    0    0  0.90163720617E+02 -0.82938765985E+02 -0.14173179498E+04  0.14254634344E+04  0.90263483377E+02 0.  0.
        254    2    1    2    0    0 -0.90163720617E+02  0.82938765985E+02 -0.37297899699E+03  0.98119907314E+03  0.89923854094E+03 0.  0.
        -24    2    4    4    0    0 -0.43471698289E+03  0.10822294365E+03 -0.42487468706E+03  0.62254949269E+03  0.79739014270E+02 0.  0.
         24    2    4    4    0    0  0.34455326227E+03 -0.25284177664E+02  0.51895690063E+02  0.35864958045E+03  0.81117930982E+02 0.  0.
         11    1    3    3    0    0 -0.11916437118E+02 -0.39325426253E+02 -0.40275380387E+03  0.40484455925E+03  0.00000000000E+00 0. -1.
        -11    1    3    3    0    0  0.10208015773E+03 -0.43613339731E+02 -0.10145641460E+04  0.10206188751E+04  0.00000000000E+00 0.  1.
          4    1    6    6  502    0  0.29853459251E+03 -0.85966528430E+01  0.18180220606E+02  0.29921117256E+03  0.00000000000E+00 0. -1.
          1    1    5    5  503    0 -0.27743602790E+03  0.10781121825E+03 -0.28409519725E+03  0.41146578164E+03  0.00000000000E+00 0. -1.
         -2    1    5    5    0  503 -0.15728095499E+03  0.41172540190E+00 -0.14077948980E+03  0.21108371104E+03  0.00000000000E+00 0.  1.
         -1    1    6    6    0  502  0.46018669762E+02 -0.16687524821E+02  0.33715469457E+02  0.59438407887E+02  0.00000000000E+00 0.  1.
<mgrwt>
<rscale>  0 0.16083722E+04</rscale>
<asrwt>0</asrwt>
<pdfrwt beam="1">  1        2 0.47412734E-01 0.16083722E+04</pdfrwt>
<pdfrwt beam="2">  1       -2 0.32284305E+00 0.16083722E+04</pdfrwt>
<totfact> 0.23574807E+00</totfact>
</mgrwt>
</event>
<event>
12    1  0.1694957E-007  0.2471155E+04  0.7818608E-02  0.8413334E-01
         -2   -1    0    0    0  501 -0.00000000000E+00  0.00000000000E+00  0.91978303638E+03  0.91978303638E+03  0.00000000000E+00 0.  1.
          2   -1    0    0  501    0  0.00000000000E+00 -0.00000000000E+00 -0.16597954643E+04  0.16597954643E+04  0.00000000000E+00 0. -1.
         23    2    1    2    0    0  0.62599654112E+02 -0.85275541675E+03  0.34969045289E+03  0.92876572400E+03  0.95978329530E+02 0.  0.
        254    2    1    2    0    0 -0.62599654112E+02  0.85275541675E+03 -0.10897028808E+04  0.16508127767E+04  0.89812022454E+03 0.  0.
        -24    2    4    4    0    0 -0.95957723396E+01  0.83374530609E+03 -0.12238172483E+04  0.14829879288E+04  0.79380258283E+02 0.  0.
         24    2    4    4    0    0 -0.53003881773E+02  0.19010110663E+02  0.13411436754E+03  0.16782484787E+03  0.83712126903E+02 0.  0.
         13    1    3    3    0    0 -0.23729228139E+02 -0.10399640602E+03  0.40750252106E+02  0.11418805445E+03  0.00000000000E+00 0. -1.
        -13    1    3    3    0    0  0.86328882251E+02 -0.74875901073E+03  0.30894020078E+03  0.81457766954E+03  0.00000000000E+00 0.  1.
          4    1    6    6  502    0 -0.17673896522E+01  0.44983486815E+01  0.10872087535E+03  0.10882824791E+03  0.00000000000E+00 0. -1.
          1    1    5    5  503    0 -0.26473810323E+02  0.78466499494E+03 -0.11602971087E+04  0.14009601698E+04  0.00000000000E+00 0. -1.
         -2    1    5    5    0  503  0.16878037984E+02  0.49080311149E+02 -0.63520139637E+02  0.82027759010E+02  0.00000000000E+00 0.  1.
         -3    1    6    6    0  502 -0.51236492121E+02  0.14511761981E+02  0.25393492192E+02  0.58996599955E+02  0.00000000000E+00 0.  1.
<mgrwt>
<rscale>  0 0.24711550E+04</rscale>
<asrwt>0</asrwt>
<pdfrwt beam="1">  1        2 0.25535314E+00 0.24711550E+04</pdfrwt>
<pdfrwt beam="2">  1       -2 0.14150508E+00 0.24711550E+04</pdfrwt>
<totfact> 0.32250075E+00</totfact>
</mgrwt>
</event>
<event>
12    1  0.1519630E-007  0.1066938E+04  0.7818608E-02  0.9238029E-01
          1   -1    0    0  501    0  0.00000000000E+00  0.00000000000E+00  0.14314711048E+04  0.14314711048E+04  0.00000000000E+00 0. -1.
         -1   -1    0    0    0  501 -0.00000000000E+00 -0.00000000000E+00 -0.19880881592E+03  0.19880881592E+03  0.00000000000E+00 0.  1.
         23    2    1    2    0    0 -0.10093311555E+03  0.12661505595E+02  0.30194249268E+03  0.33073867904E+03  0.88718641733E+02 0.  0.
        254    2    1    2    0    0  0.10093311555E+03 -0.12661505595E+02  0.93071979622E+03  0.12995412417E+04  0.90123265156E+03 0.  0.
        -24    2    4    4    0    0  0.35680741955E+02 -0.35142439702E+02  0.10978943953E+04  0.11019176971E+04  0.79639196669E+02 0.  0.
         24    2    4    4    0    0  0.65252373594E+02  0.22480934107E+02 -0.16717459905E+03  0.19762354457E+03  0.79652081854E+02 0.  0.
         11    1    3    3    0    0 -0.57384797361E+02 -0.20362062197E+02  0.71549143948E+02  0.93951628750E+02  0.00000000000E+00 0.  1.
        -11    1    3    3    0    0 -0.43548318188E+02  0.33023567791E+02  0.23039334873E+03  0.23678705029E+03  0.00000000000E+00 0. -1.
          2    1    6    6  502    0  0.10928702939E+02  0.31075244041E+02 -0.15735331761E+02  0.36506273512E+02  0.00000000000E+00 0. -1.
          1    1    5    5  503    0  0.30990931004E+02 -0.16484174367E+02  0.15910407680E+03  0.16293027055E+03  0.00000000000E+00 0. -1.
         -2    1    5    5    0  503  0.46898109514E+01 -0.18658265335E+02  0.93879031847E+03  0.93898742656E+03  0.00000000000E+00 0.  1.
         -1    1    6    6    0  502  0.54323670655E+02 -0.85943099335E+01 -0.15143926729E+03  0.16111727106E+03  0.00000000000E+00 0.  1.
<mgrwt>
<rscale>  0 0.10669378E+04</rscale>
<asrwt>0</asrwt>
<pdfrwt beam="1">  1        1 0.22022632E+00 0.10669378E+04</pdfrwt>
<pdfrwt beam="2">  1       -1 0.30585973E-01 0.10669378E+04</pdfrwt>
<totfact> 0.71879278E+01</totfact>
</mgrwt>
</event>
<event>
12    1  0.1519630E-007  0.1764046E+04  0.7818608E-02  0.8725657E-01
          2   -1    0    0  501    0  0.00000000000E+00  0.00000000000E+00  0.10471862846E+04  0.10471862846E+04  0.00000000000E+00 0. -1.
         -2   -1    0    0    0  501 -0.00000000000E+00 -0.00000000000E+00 -0.74290918568E+03  0.74290918568E+03  0.00000000000E+00 0.  1.
         23    2    1    2    0    0 -0.33176500634E+02  0.14458743239E+03 -0.52341976097E+03  0.55172354462E+03  0.91784626779E+02 0.  0.
        254    2    1    2    0    0  0.33176500634E+02 -0.14458743239E+03  0.82769685992E+03  0.12383719257E+04  0.90910765514E+03 0.  0.
        -24    2    4    4    0    0  0.45382032960E+03 -0.13896293078E+03  0.53354913430E+03  0.71860315032E+03  0.80325719780E+02 0.  0.
         24    2    4    4    0    0 -0.42064382896E+03 -0.56245016131E+01  0.29414772562E+03  0.51976877538E+03  0.81632282231E+02 0.  0.
         11    1    3    3    0    0  0.11379889361E+02  0.80339181109E+02 -0.37806906267E+03  0.38667829270E+03  0.00000000000E+00 0.  1.
        -11    1    3    3    0    0 -0.44556389995E+02  0.64248251282E+02 -0.14535069830E+03  0.16504525191E+03  0.00000000000E+00 0. -1.
          2    1    6    6  502    0 -0.12218426761E+03  0.28065560192E+02  0.11452003686E+03  0.16979843864E+03  0.00000000000E+00 0. -1.
          3    1    5    5  503    0  0.86499481726E+01 -0.16282956940E+02  0.31414052995E+02  0.36425252445E+02  0.00000000000E+00 0. -1.
         -4    1    5    5    0  503  0.44517038143E+03 -0.12267997384E+03  0.50213508130E+03  0.68217789788E+03  0.00000000000E+00 0.  1.
         -1    1    6    6    0  502 -0.29845956135E+03 -0.33690061805E+02  0.17962768876E+03  0.34997033674E+03  0.00000000000E+00 0.  1.
<mgrwt>
<rscale>  0 0.17640457E+04</rscale>
<asrwt>0</asrwt>
<pdfrwt beam="1">  1        2 0.16110558E+00 0.17640457E+04</pdfrwt>
<pdfrwt beam="2">  1       -2 0.11429372E+00 0.17640457E+04</pdfrwt>
<totfact> 0.13322016E+01</totfact>
</mgrwt>
</event>
<event>
12    1  0.1644424E-007  0.1518737E+04  0.7818608E-02  0.8872088E-01
         -1   -1    0    0    0  501 -0.00000000000E+00  0.00000000000E+00  0.38301134763E+03  0.38301134763E+03  0.00000000000E+00 0.  1.
          1   -1    0    0  501    0  0.00000000000E+00 -0.00000000000E+00 -0.15055445341E+04  0.15055445341E+04  0.00000000000E+00 0. -1.
         23    2    1    2    0    0  0.33782982748E+03  0.23756475665E+02 -0.78925270558E+03  0.86335092936E+03  0.88100122046E+02 0.  0.
        254    2    1    2    0    0 -0.33782982748E+03 -0.23756475665E+02 -0.33328048090E+03  0.10252049524E+04  0.90844700063E+03 0.  0.
        -24    2    4    4    0    0 -0.16490540254E+03 -0.40813667076E+03 -0.38879577574E+03  0.59277297355E+03  0.80301364453E+02 0.  0.
         24    2    4    4    0    0 -0.17292442494E+03  0.38438019510E+03  0.55515294842E+02  0.43243197882E+03  0.79148450523E+02 0.  0.
         13    1    3    3    0    0  0.28659663012E+03  0.23689785898E+02 -0.73231933622E+03  0.78675945787E+03  0.00000000000E+00 0.  1.
        -13    1    3    3    0    0  0.51233197352E+02  0.66689767764E-01 -0.56933369356E+02  0.76591471488E+02  0.00000000000E+00 0. -1.
          4    1    6    6  502    0 -0.69006136696E+02  0.22068627711E+03  0.58524862753E+02  0.23851507157E+03  0.00000000000E+00 0. -1.
          3    1    5    5  503    0 -0.17272773721E+03 -0.39332798341E+03 -0.36519893147E+03  0.56383688535E+03  0.00000000000E+00 0. -1.
         -4    1    5    5    0  503  0.78223346721E+01 -0.14808687353E+02 -0.23596844278E+02  0.28936088207E+02  0.00000000000E+00 0.  1.
         -3    1    6    6    0  502 -0.10391828824E+03  0.16369391798E+03 -0.30095679111E+01  0.19391690724E+03  0.00000000000E+00 0.  1.
<mgrwt>
<rscale>  0 0.15187372E+04</rscale>
<asrwt>0</asrwt>
<pdfrwt beam="1">  1        1 0.23162224E+00 0.15187372E+04</pdfrwt>
<pdfrwt beam="2">  1       -1 0.58924822E-01 0.15187372E+04</pdfrwt>
<totfact> 0.18280706E+01</totfact>
</mgrwt>
</event>
<event>
12    1  0.1519630E-007  0.3060632E+04  0.7818608E-02  0.8226626E-01
         -2   -1    0    0    0  501 -0.00000000000E+00  0.00000000000E+00  0.12088323958E+04  0.12088323958E+04  0.00000000000E+00 0.  1.
          2   -1    0    0  501    0  0.00000000000E+00 -0.00000000000E+00 -0.19372972959E+04  0.19372972959E+04  0.00000000000E+00 0. -1.
         23    2    1    2    0    0 -0.47802776576E+03 -0.17370427935E+03  0.10151016250E+04  0.11390982975E+04  0.91814491586E+02 0.  0.
        254    2    1    2    0    0  0.47802776576E+03  0.17370427935E+03 -0.17435665250E+04  0.20070313942E+04  0.85408844304E+03 0.  0.
        -24    2    4    4    0    0  0.61778805515E+03  0.27934543274E+03 -0.16645041762E+04  0.17992503624E+04  0.83855602381E+02 0.  0.
         24    2    4    4    0    0 -0.13976028939E+03 -0.10564115339E+03 -0.79062348856E+02  0.20778103183E+03  0.78924713496E+02 0.  0.
         11    1    3    3    0    0 -0.27419452440E+02 -0.30004271547E+02  0.50862046536E+02  0.65107837171E+02  0.00000000000E+00 0. -1.
        -11    1    3    3    0    0 -0.45060831332E+03 -0.14370000781E+03  0.96423957845E+03  0.10739904604E+04  0.00000000000E+00 0.  1.
          2    1    6    6  502    0 -0.93785073540E+02 -0.21707328074E+02 -0.35075015374E+02  0.10245537963E+03  0.00000000000E+00 0. -1.
          3    1    5    5  503    0  0.55409611880E+02  0.24079166642E+02 -0.94756301900E+02  0.11237788085E+03  0.00000000000E+00 0. -1.
         -4    1    5    5    0  503  0.56237844327E+03  0.25526626610E+03 -0.15697478743E+04  0.16868724815E+04  0.00000000000E+00 0.  1.
         -1    1    6    6    0  502 -0.45975215853E+02 -0.83933825315E+02 -0.43987333482E+02  0.10532565220E+03  0.00000000000E+00 0.  1.
<mgrwt>
<rscale>  0 0.30606324E+04</rscale>
<asrwt>0</asrwt>
<pdfrwt beam="1">  1        2 0.29804573E+00 0.30606324E+04</pdfrwt>
<pdfrwt beam="2">  1       -2 0.18597422E+00 0.30606324E+04</pdfrwt>
<totfact> 0.10176773E+00</totfact>
</mgrwt>
</event>
<event>
12    1  0.1519630E-007  0.1046346E+04  0.7818608E-02  0.9259125E-01
          2   -1    0    0  501    0  0.00000000000E+00  0.00000000000E+00  0.17415128536E+04  0.17415128536E+04  0.00000000000E+00 0. -1.
         -2   -1    0    0    0  501 -0.00000000000E+00 -0.00000000000E+00 -0.15716791995E+03  0.15716791995E+03  0.00000000000E+00 0.  1.
         23    2    1    2    0    0  0.33340199415E+02 -0.12650578029E+02  0.80320344091E+02  0.12785268182E+03  0.92861965039E+02 0.  0.
        254    2    1    2    0    0 -0.33340199415E+02  0.12650578029E+02  0.15040245896E+04  0.17708280917E+04  0.93406132477E+03 0.  0.
        -24    2    4    4    0    0 -0.24799073090E+03  0.27994364200E+03  0.22355262931E+03  0.44287010503E+03  0.79311452815E+02 0.  0.
         24    2    4    4    0    0  0.21465053149E+03 -0.26729306397E+03  0.12804719602E+04  0.13279579867E+04  0.79646347917E+02 0.  0.
         13    1    3    3    0    0  0.61295264726E+02  0.11565704397E+02  0.47478703076E+02  0.78390702522E+02  0.00000000000E+00 0.  1.
        -13    1    3    3    0    0 -0.27955065311E+02 -0.24216282426E+02  0.32841641015E+02  0.49461979293E+02  0.00000000000E+00 0. -1.
          4    1    6    6  502    0 -0.13867263676E+01 -0.23769058365E+02  0.53967940017E+02  0.58986690831E+02  0.00000000000E+00 0. -1.
          1    1    5    5  503    0 -0.51724438566E+02  0.21096896974E+02  0.19067187669E+02  0.59025877821E+02  0.00000000000E+00 0. -1.
         -2    1    5    5    0  503 -0.19626629234E+03  0.25884674503E+03  0.20448544165E+03  0.38384422721E+03  0.00000000000E+00 0.  1.
         -3    1    6    6    0  502  0.21603725785E+03 -0.24352400561E+03  0.12265040202E+04  0.12689712959E+04  0.00000000000E+00 0.  1.
<mgrwt>
<rscale>  0 0.10463459E+04</rscale>
<asrwt>0</asrwt>
<pdfrwt beam="1">  1        2 0.26792504E+00 0.10463459E+04</pdfrwt>
<pdfrwt beam="2">  1       -2 0.24179681E-01 0.10463459E+04</pdfrwt>
<totfact> 0.14119752E+02</totfact>
</mgrwt>
</event>
<event>
12    1  0.1519630E-007  0.1958542E+04  0.7818608E-02  0.8626253E-01
         -1   -1    0    0    0  501 -0.00000000000E+00  0.00000000000E+00  0.59425794664E+03  0.59425794664E+03  0.00000000000E+00 0.  1.
          1   -1    0    0  501    0  0.00000000000E+00 -0.00000000000E+00 -0.16137297098E+04  0.16137297098E+04  0.00000000000E+00 0. -1.
         23    2    1    2    0    0 -0.25305987147E+03 -0.28081229697E+03 -0.11444875718E+04  0.12087260814E+04  0.90951049279E+02 0.  0.
        254    2    1    2    0    0  0.25305987147E+03  0.28081229697E+03  0.12501580859E+03  0.99926157502E+03  0.91651508347E+03 0.  0.
        -24    2    4    4    0    0  0.52675548053E+03  0.38102442837E+03 -0.35026668435E+02  0.65584841882E+03  0.79115925592E+02 0.  0.
         24    2    4    4    0    0 -0.27369560906E+03 -0.10021213140E+03  0.16004247702E+03  0.34341315620E+03  0.85832649371E+02 0.  0.
         11    1    3    3    0    0 -0.20749182983E+03 -0.21559459226E+03 -0.77473409292E+03  0.83050996526E+03  0.00000000000E+00 0. -1.
        -11    1    3    3    0    0 -0.45568041635E+02 -0.65217704703E+02 -0.36975347884E+03  0.37821611618E+03  0.00000000000E+00 0.  1.
          2    1    6    6  502    0 -0.50338853254E+02 -0.55991172400E+02  0.28858873906E+02  0.80634025924E+02  0.00000000000E+00 0. -1.
          3    1    5    5  503    0  0.14849302588E+02  0.13842930674E+02 -0.15548270572E+02  0.25571023342E+02  0.00000000000E+00 0. -1.
         -4    1    5    5    0  503  0.51190617794E+03  0.36718149769E+03 -0.19478397863E+02  0.63027739548E+03  0.00000000000E+00 0.  1.
         -1    1    6    6    0  502 -0.22335675581E+03 -0.44220959000E+02  0.13118360312E+03  0.26277913028E+03  0.00000000000E+00 0.  1.
<mgrwt>
<rscale>  0 0.19585420E+04</rscale>
<asrwt>0</asrwt>
<pdfrwt beam="1">  1        1 0.24826611E+00 0.19585420E+04</pdfrwt>
<pdfrwt beam="2">  1       -1 0.91424300E-01 0.19585420E+04</pdfrwt>
<totfact> 0.59298202E+00</totfact>
</mgrwt>
</event>
<event>
12    1  0.1519630E-007  0.2353838E+04  0.7818608E-02  0.8456991E-01
          2   -1    0    0  501    0  0.00000000000E+00  0.00000000000E+00  0.11621003819E+04  0.11621003819E+04  0.00000000000E+00 0. -1.
         -2   -1    0    0    0  501 -0.00000000000E+00 -0.00000000000E+00 -0.11919262418E+04  0.11919262418E+04  0.00000000000E+00 0.  1.
         23    2    1    2    0    0  0.55841174188E+03  0.13521494117E+03 -0.83916003659E+03  0.10212758153E+04  0.93316505460E+02 0.  0.
        254    2    1    2    0    0 -0.55841174188E+03 -0.13521494117E+03  0.80933417666E+03  0.13327508084E+04  0.88943586274E+03 0.  0.
        -24    2    4    4    0    0 -0.38983551958E+03  0.35036733524E+03  0.49496437221E+03  0.72499662428E+03  0.76820397886E+02 0.  0.
         24    2    4    4    0    0 -0.16857622230E+03 -0.48558227641E+03  0.31436980445E+03  0.60775418409E+03  0.79553029093E+02 0.  0.
         13    1    3    3    0    0  0.18740043627E+03  0.48646943260E+02 -0.36356408058E+03  0.41190325234E+03  0.00000000000E+00 0. -1.
        -13    1    3    3    0    0  0.37101130561E+03  0.86567997914E+02 -0.47559595601E+03  0.60937256299E+03  0.00000000000E+00 0.  1.
          4    1    6    6  502    0 -0.14796514784E+03 -0.41003605958E+03  0.29719042539E+03  0.52758449947E+03  0.00000000000E+00 0. -1.
          3    1    5    5  503    0 -0.14377491900E+03  0.10955868751E+03  0.12595299496E+03  0.22031452580E+03  0.00000000000E+00 0. -1.
         -4    1    5    5    0  503 -0.24606060059E+03  0.24080864773E+03  0.36901137726E+03  0.50468209848E+03  0.00000000000E+00 0.  1.
         -3    1    6    6    0  502 -0.20611074455E+02 -0.75546216829E+02  0.17179379058E+02  0.80169684621E+02  0.00000000000E+00 0.  1.
<mgrwt>
<rscale>  0 0.23538377E+04</rscale>
<asrwt>0</asrwt>
<pdfrwt beam="1">  1        2 0.17878467E+00 0.23538377E+04</pdfrwt>
<pdfrwt beam="2">  1       -2 0.18337327E+00 0.23538377E+04</pdfrwt>
<totfact> 0.30971521E+00</totfact>
</mgrwt>
</event>
<event>
12    1  0.1519630E-007  0.1703143E+04  0.7818608E-02  0.8759574E-01
          1   -1    0    0  501    0  0.00000000000E+00  0.00000000000E+00  0.21722170351E+04  0.21722170351E+04  0.00000000000E+00 0. -1.
         -1   -1    0    0    0  501 -0.00000000000E+00 -0.00000000000E+00 -0.33384060918E+03  0.33384060918E+03  0.00000000000E+00 0.  1.
         23    2    1    2    0    0  0.38605487787E+03 -0.17630872927E+03  0.12877314803E+04  0.13581912212E+04  0.79422234063E+02 0.  0.
        254    2    1    2    0    0 -0.38605487787E+03  0.17630872927E+03  0.55064494567E+03  0.11478664231E+04  0.91338071603E+03 0.  0.
        -24    2    4    4    0    0 -0.31239503954E+03  0.45947391835E+03  0.51647504229E+02  0.56379077984E+03  0.80533448710E+02 0.  0.
         24    2    4    4    0    0 -0.73659838324E+02 -0.28316518908E+03  0.49899744145E+03  0.58407564330E+03  0.80855515802E+02 0.  0.
         13    1    3    3    0    0  0.28180203686E+03 -0.15538694601E+03  0.88619728904E+03  0.94281659195E+03  0.00000000000E+00 0.  1.
        -13    1    3    3    0    0  0.10425284100E+03 -0.20921783265E+02  0.40153419124E+03  0.41537462923E+03  0.00000000000E+00 0. -1.
          4    1    6    6  502    0 -0.13348523924E+02  0.60505194707E+00  0.24931368230E+02  0.28286433155E+02  0.00000000000E+00 0. -1.
          3    1    5    5  503    0 -0.31814004453E+02  0.89408846891E+02 -0.95036375039E+01  0.95375006724E+02  0.00000000000E+00 0. -1.
         -4    1    5    5    0  503 -0.28058103509E+03  0.37006507146E+03  0.61151141733E+02  0.46841577312E+03  0.00000000000E+00 0.  1.
         -3    1    6    6    0  502 -0.60311314400E+02 -0.28377024102E+03  0.47406607322E+03  0.55578921014E+03  0.00000000000E+00 0.  1.
<mgrwt>
<rscale>  0 0.17031433E+04</rscale>
<asrwt>0</asrwt>
<pdfrwt beam="1">  1        1 0.33418723E+00 0.17031433E+04</pdfrwt>
<pdfrwt beam="2">  1       -1 0.51360095E-01 0.17031433E+04</pdfrwt>
<totfact> 0.82601584E+00</totfact>
</mgrwt>
</event>
<event>
12    1  0.1519630E-007  0.1432648E+04  0.7818608E-02  0.8930519E-01
          1   -1    0    0  501    0  0.00000000000E+00  0.00000000000E+00  0.26889972776E+04  0.26889972776E+04  0.00000000000E+00 0. -1.
         -1   -1    0    0    0  501 -0.00000000000E+00 -0.00000000000E+00 -0.19082221502E+03  0.19082221502E+03  0.00000000000E+00 0.  1.
         23    2    1    2    0    0  0.28526211522E+02  0.17929872611E+02  0.16122425284E+04  0.16150707450E+04  0.89399753789E+02 0.  0.
        254    2    1    2    0    0 -0.28526211522E+02 -0.17929872611E+02  0.88593253413E+03  0.12647487475E+04  0.90198542910E+03 0.  0.
        -24    2    4    4    0    0 -0.29928925625E+03 -0.16351308594E+03  0.29364618112E+02  0.35120458302E+03  0.78560741837E+02 0.  0.
         24    2    4    4    0    0  0.27076304473E+03  0.14558321333E+03  0.85656791602E+03  0.91354416452E+03  0.79669613900E+02 0.  0.
         11    1    3    3    0    0  0.54240315735E+02  0.19000333229E+02  0.66506032392E+03  0.66753895689E+03  0.00000000000E+00 0.  1.
        -11    1    3    3    0    0 -0.25714104213E+02 -0.10704606177E+01  0.94718220449E+03  0.94753178815E+03  0.00000000000E+00 0. -1.
          4    1    6    6  502    0  0.18645226963E+03  0.99967527022E+02  0.47261768416E+03  0.51780829531E+03  0.00000000000E+00 0. -1.
          1    1    5    5  503    0 -0.28698531966E+03 -0.16386736529E+03  0.42508786079E+02  0.33319676469E+03  0.00000000000E+00 0. -1.
         -2    1    5    5    0  503 -0.12303936594E+02  0.35427934983E+00 -0.13144167967E+02  0.18007818333E+02  0.00000000000E+00 0.  1.
         -3    1    6    6    0  502  0.84310775101E+02  0.45615686304E+02  0.38395023186E+03  0.39573586921E+03  0.00000000000E+00 0.  1.
<mgrwt>
<rscale>  0 0.14326485E+04</rscale>
<asrwt>0</asrwt>
<pdfrwt beam="1">  1        1 0.41369186E+00 0.14326485E+04</pdfrwt>
<pdfrwt beam="2">  1       -1 0.29357266E-01 0.14326485E+04</pdfrwt>
<totfact> 0.10346155E+01</totfact>
</mgrwt>
</event>
<event>
12    1  0.1519630E-007  0.2419544E+04  0.7818608E-02  0.8432223E-01
          1   -1    0    0  501    0  0.00000000000E+00  0.00000000000E+00  0.17135150049E+04  0.17135150049E+04  0.00000000000E+00 0. -1.
         -1   -1    0    0    0  501 -0.00000000000E+00 -0.00000000000E+00 -0.85412047248E+03  0.85412047248E+03  0.00000000000E+00 0.  1.
         23    2    1    2    0    0  0.91357196295E+03 -0.24663340884E+03  0.77996769588E+03  0.12295521292E+04  0.89482188610E+02 0.  0.
        254    2    1    2    0    0 -0.91357196295E+03  0.24663340884E+03  0.79426836522E+02  0.13380833481E+04  0.94271769595E+03 0.  0.
        -24    2    4    4    0    0 -0.30636680570E+03  0.37966838407E+03  0.39860884255E+03  0.63471558536E+03  0.77240944122E+02 0.  0.
         24    2    4    4    0    0 -0.60720515726E+03 -0.13303497523E+03 -0.31918200603E+03  0.70336776274E+03  0.80328382601E+02 0.  0.
         11    1    3    3    0    0  0.58908984862E+03 -0.19333047645E+03  0.54386830483E+03  0.82474011414E+03  0.00000000000E+00 0. -1.
        -11    1    3    3    0    0  0.32448211434E+03 -0.53302932387E+02  0.23609939104E+03  0.40481201511E+03  0.00000000000E+00 0.  1.
          2    1    6    6  502    0 -0.14885366921E+03 -0.61114600976E+02 -0.10665111709E+03  0.19304628996E+03  0.00000000000E+00 0. -1.
          1    1    5    5  503    0 -0.27253273962E+03  0.36493357844E+03  0.35424687679E+03  0.57701079760E+03  0.00000000000E+00 0. -1.
         -2    1    5    5    0  503 -0.33834066077E+02  0.14734805634E+02  0.44361965760E+02  0.57704787760E+02  0.00000000000E+00 0.  1.
         -1    1    6    6    0  502 -0.45835148804E+03 -0.71920374253E+02 -0.21253088894E+03  0.51032147278E+03  0.00000000000E+00 0.  1.
<mgrwt>
<rscale>  0 0.24195440E+04</rscale>
<asrwt>0</asrwt>
<pdfrwt beam="1">  1        1 0.26361769E+00 0.24195440E+04</pdfrwt>
<pdfrwt beam="2">  1       -1 0.13140315E+00 0.24195440E+04</pdfrwt>
<totfact> 0.20599286E+00</totfact>
</mgrwt>
</event>
<event>
12    1  0.1519630E-007  0.4057111E+04  0.7818608E-02  0.7993124E-01
          1   -1    0    0  501    0  0.00000000000E+00  0.00000000000E+00  0.50801620765E+04  0.50801620765E+04  0.00000000000E+00 0. -1.
         -1   -1    0    0    0  501 -0.00000000000E+00 -0.00000000000E+00 -0.81002077734E+03  0.81002077734E+03  0.00000000000E+00 0.  1.
         23    2    1    2    0    0  0.89800761086E+03 -0.13529309300E+03 -0.43621946685E+03  0.10114726771E+04  0.89820170630E+02 0.  0.
        254    2    1    2    0    0 -0.89800761086E+03  0.13529309300E+03  0.47063607660E+04  0.48787101768E+04  0.90953803598E+03 0.  0.
        -24    2    4    4    0    0 -0.55671737756E+03 -0.16091298354E+03  0.11254249262E+04  0.12684733820E+04  0.81340209465E+02 0.  0.
         24    2    4    4    0    0 -0.34129023330E+03  0.29620607654E+03  0.35809358398E+04  0.36102367948E+04  0.80567748396E+02 0.  0.
         13    1    3    3    0    0  0.39724681963E+03 -0.58474343921E+02 -0.14369115187E+03  0.42646386919E+03  0.00000000000E+00 0.  1.
        -13    1    3    3    0    0  0.50076079123E+03 -0.76818749082E+02 -0.29252831497E+03  0.58500880789E+03  0.00000000000E+00 0. -1.
          2    1    6    6  502    0 -0.20921734545E+03  0.13539851512E+03  0.17943182311E+04  0.18115414900E+04  0.00000000000E+00 0. -1.
          1    1    5    5  503    0 -0.47276979232E+03 -0.12935828649E+03  0.88184240045E+03  0.10089057746E+04  0.00000000000E+00 0. -1.
         -2    1    5    5    0  503 -0.83947585236E+02 -0.31554697054E+02  0.24358252575E+03  0.25956760742E+03  0.00000000000E+00 0.  1.
         -1    1    6    6    0  502 -0.13207288785E+03  0.16080756142E+03  0.17866176087E+04  0.17986953047E+04  0.00000000000E+00 0.  1.
<mgrwt>
<rscale>  0 0.40571107E+04</rscale>
<asrwt>0</asrwt>
<pdfrwt beam="1">  1        1 0.78156338E+00 0.40571107E+04</pdfrwt>
<pdfrwt beam="2">  1       -1 0.12461858E+00 0.40571107E+04</pdfrwt>
<totfact> 0.29486316E-03</totfact>
</mgrwt>
</event>
<event>
12    1  0.1519630E-007  0.1114128E+04  0.7818608E-02  0.9191530E-01
          1   -1    0    0  501    0  0.00000000000E+00  0.00000000000E+00  0.32216956473E+03  0.32216956473E+03  0.00000000000E+00 0. -1.
         -1   -1    0    0    0  501 -0.00000000000E+00 -0.00000000000E+00 -0.96322006851E+03  0.96322006851E+03  0.00000000000E+00 0.  1.
         23    2    1    2    0    0  0.13074381608E+03 -0.10029167627E+03 -0.27568194590E+02  0.19094438049E+03  0.92452070373E+02 0.  0.
        254    2    1    2    0    0 -0.13074381608E+03  0.10029167627E+03 -0.61348230919E+03  0.10944452527E+04  0.89123369651E+03 0.  0.
        -24    2    4    4    0    0 -0.33423302042E+03 -0.22345995041E+03 -0.56946067691E+03  0.70142940497E+03  0.77921025578E+02 0.  0.
         24    2    4    4    0    0  0.20348920434E+03  0.32375162668E+03 -0.44021632276E+02  0.39301584778E+03  0.79376195679E+02 0.  0.
         11    1    3    3    0    0  0.54218767661E+02 -0.98342249904E+02 -0.13406401383E+02  0.11309555465E+03  0.00000000000E+00 0.  1.
        -11    1    3    3    0    0  0.76525048421E+02 -0.19494263679E+01 -0.14161793206E+02  0.77848825847E+02  0.00000000000E+00 0. -1.
          4    1    6    6  502    0  0.16864334549E+03  0.26582642727E+03 -0.66543192157E+02  0.32176429857E+03  0.00000000000E+00 0. -1.
          3    1    5    5  503    0 -0.36534478542E+02 -0.32078960171E+02 -0.33051862241E+02  0.58789909045E+02  0.00000000000E+00 0. -1.
         -4    1    5    5    0  503 -0.29769854188E+03 -0.19138099023E+03 -0.53640881467E+03  0.64263949592E+03  0.00000000000E+00 0.  1.
         -3    1    6    6    0  502  0.34845858851E+02  0.57925199406E+02  0.22521559881E+02  0.71251549209E+02  0.00000000000E+00 0.  1.
<mgrwt>
<rscale>  0 0.11141278E+04</rscale>
<asrwt>0</asrwt>
<pdfrwt beam="1">  1        1 0.49564549E-01 0.11141278E+04</pdfrwt>
<pdfrwt beam="2">  1       -1 0.14818770E+00 0.11141278E+04</pdfrwt>
<totfact> 0.28666457E+01</totfact>
</mgrwt>
</event>
<event>
12    1  0.1519630E-007  0.1434141E+04  0.7818608E-02  0.8929470E-01
         -1   -1    0    0    0  501 -0.00000000000E+00  0.00000000000E+00  0.10369005618E+04  0.10369005618E+04  0.00000000000E+00 0.  1.
          1   -1    0    0  501    0  0.00000000000E+00 -0.00000000000E+00 -0.49589139851E+03  0.49589139851E+03  0.00000000000E+00 0. -1.
         23    2    1    2    0    0 -0.16746392238E+02 -0.23072090561E+03  0.55000598283E+03  0.60597757649E+03  0.10578120879E+03 0.  0.
        254    2    1    2    0    0  0.16746392238E+02  0.23072090561E+03 -0.89968195371E+01  0.92681438382E+03  0.89743600404E+03 0.  0.
        -24    2    4    4    0    0  0.35279674353E+03 -0.56317533250E+02 -0.22183193282E+03  0.42813572790E+03  0.80334228620E+02 0.  0.
         24    2    4    4    0    0 -0.33605035129E+03  0.28703843886E+03  0.21283511328E+03  0.49867865592E+03  0.89781470479E+02 0.  0.
         13    1    3    3    0    0 -0.29623498561E+02 -0.23367333183E+03  0.54081796898E+03  0.58988545773E+03  0.00000000000E+00 0.  1.
        -13    1    3    3    0    0  0.12877106322E+02  0.29524262183E+01  0.91880138473E+01  0.16092118763E+02  0.00000000000E+00 0. -1.
          2    1    6    6  502    0 -0.14537051905E+03  0.17717865726E+03  0.86734681515E+02  0.24504646371E+03  0.00000000000E+00 0. -1.
          1    1    5    5  503    0  0.16970663104E+03 -0.66011619076E+02 -0.12418047470E+03  0.22040568226E+03  0.00000000000E+00 0. -1.
         -2    1    5    5    0  503  0.18309011249E+03  0.96940858260E+01 -0.97651458115E+02  0.20773004564E+03  0.00000000000E+00 0.  1.
         -1    1    6    6    0  502 -0.19067983224E+03  0.10985978160E+03  0.12610043177E+03  0.25363219221E+03  0.00000000000E+00 0.  1.
<mgrwt>
<rscale>  0 0.14341410E+04</rscale>
<asrwt>0</asrwt>
<pdfrwt beam="1">  1        1 0.76290985E-01 0.14341410E+04</pdfrwt>
<pdfrwt beam="2">  1       -1 0.15952316E+00 0.14341410E+04</pdfrwt>
<totfact> 0.12846900E+01</totfact>
</mgrwt>
</event>
<event>
12    1  0.1519630E-007  0.1887120E+04  0.7818608E-02  0.8661295E-01
         -1   -1    0    0    0  501 -0.00000000000E+00  0.00000000000E+00  0.11891224402E+04  0.11891224402E+04  0.00000000000E+00 0.  1.
          1   -1    0    0  501    0  0.00000000000E+00 -0.00000000000E+00 -0.74870759818E+03  0.74870759818E+03  0.00000000000E+00 0. -1.
         23    2    1    2    0    0 -0.27956335090E+03 -0.45145213673E+03  0.67102377240E+03  0.86066533744E+03  0.92234597740E+02 0.  0.
        254    2    1    2    0    0  0.27956335090E+03  0.45145213673E+03 -0.23060893034E+03  0.10771647010E+04  0.90837140827E+03 0.  0.
        -24    2    4    4    0    0  0.39946721731E+03  0.21264845043E+03 -0.50711723005E+03  0.68461007039E+03  0.82034396965E+02 0.  0.
         24    2    4    4    0    0 -0.11990386641E+03  0.23880368631E+03  0.27650829972E+03  0.39255463060E+03  0.78982025927E+02 0.  0.
         13    1    3    3    0    0 -0.18569553794E+03 -0.25239531990E+03  0.45353022150E+03  0.55124939195E+03  0.00000000000E+00 0. -1.
        -13    1    3    3    0    0 -0.93867812954E+02 -0.19905681683E+03  0.21749355090E+03  0.30941594548E+03  0.00000000000E+00 0.  1.
          2    1    6    6  502    0 -0.93852252285E+02  0.23100211088E+03  0.26219275230E+03  0.36182213842E+03  0.00000000000E+00 0. -1.
          1    1    5    5  503    0  0.35498418116E+03  0.19301041028E+03 -0.40807428442E+03  0.57427468076E+03  0.00000000000E+00 0. -1.
         -2    1    5    5    0  503  0.44483036147E+02  0.19638040147E+02 -0.99042945630E+02  0.11033538963E+03  0.00000000000E+00 0.  1.
         -1    1    6    6    0  502 -0.26051614127E+02  0.78015754221E+01  0.14315547410E+02  0.30732492176E+02  0.00000000000E+00 0.  1.
<mgrwt>
<rscale>  0 0.18871195E+04</rscale>
<asrwt>0</asrwt>
<pdfrwt beam="1">  1        1 0.11518578E+00 0.18871195E+04</pdfrwt>
<pdfrwt beam="2">  1       -1 0.18294191E+00 0.18871195E+04</pdfrwt>
<totfact> 0.45599120E+00</totfact>
</mgrwt>
</event>
<event>
12    1  0.1519630E-007  0.2326925E+04  0.7818608E-02  0.8467380E-01
          2   -1    0    0  501    0  0.00000000000E+00  0.00000000000E+00  0.11271023562E+04  0.11271023562E+04  0.00000000000E+00 0. -1.
         -2   -1    0    0    0  501 -0.00000000000E+00 -0.00000000000E+00 -0.12009954510E+04  0.12009954510E+04  0.00000000000E+00 0.  1.
         23    2    1    2    0    0  0.57620288924E+03  0.41038075392E+03  0.65487422834E+03  0.96844695629E+03  0.92774562468E+02 0.  0.
        254    2    1    2    0    0 -0.57620288924E+03 -0.41038075392E+03 -0.72876732307E+03  0.13596508509E+04  0.90395049226E+03 0.  0.
        -24    2    4    4    0    0  0.20671080407E+03 -0.25976351485E+03 -0.16131837841E+03  0.37768086155E+03  0.80079796470E+02 0.  0.
         24    2    4    4    0    0 -0.78291369331E+03 -0.15061723907E+03 -0.56744894466E+03  0.98196998936E+03  0.81408545875E+02 0.  0.
         11    1    3    3    0    0  0.47597143050E+03  0.29301252341E+03  0.50391324873E+03  0.75255146254E+03  0.00000000000E+00 0. -1.
        -11    1    3    3    0    0  0.10023145873E+03  0.11736823052E+03  0.15096097961E+03  0.21589549374E+03  0.00000000000E+00 0.  1.
          4    1    6    6  502    0 -0.71119454722E+02 -0.37993098769E+02 -0.62595451655E+02  0.10207665238E+03  0.00000000000E+00 0. -1.
          1    1    5    5  503    0  0.10626706440E+02 -0.10480693921E+02 -0.31734100781E+02  0.35068860649E+02  0.00000000000E+00 0. -1.
         -2    1    5    5    0  503  0.19608409763E+03 -0.24928282093E+03 -0.12958427763E+03  0.34261200090E+03  0.00000000000E+00 0.  1.
         -3    1    6    6    0  502 -0.71179423858E+03 -0.11262414030E+03 -0.50485349301E+03  0.87989333698E+03  0.00000000000E+00 0.  1.
<mgrwt>
<rscale>  0 0.23269248E+04</rscale>
<asrwt>0</asrwt>
<pdfrwt beam="1">  1        2 0.17340036E+00 0.23269248E+04</pdfrwt>
<pdfrwt beam="2">  1       -2 0.18476853E+00 0.23269248E+04</pdfrwt>
<totfact> 0.31891457E+00</totfact>
</mgrwt>
</event>
<event>
12    1  0.1519630E-007  0.2309882E+04  0.7818608E-02  0.8474035E-01
          2   -1    0    0  501    0  0.00000000000E+00  0.00000000000E+00  0.16388998055E+04  0.16388998055E+04  0.00000000000E+00 0. -1.
         -2   -1    0    0    0  501 -0.00000000000E+00 -0.00000000000E+00 -0.81389300333E+03  0.81389300333E+03  0.00000000000E+00 0.  1.
         23    2    1    2    0    0  0.53202022502E+03 -0.29213839659E+03 -0.45862314558E+03  0.76633997433E+03  0.92473801740E+02 0.  0.
        254    2    1    2    0    0 -0.53202022502E+03  0.29213839659E+03  0.12836299478E+04  0.16864528345E+04  0.90995986596E+03 0.  0.
        -24    2    4    4    0    0  0.23275598403E+03 -0.24951896650E+02  0.18520393142E+03  0.30864922701E+03  0.78523269624E+02 0.  0.
         24    2    4    4    0    0 -0.76477620904E+03  0.31709029324E+03  0.10984260163E+04  0.13778036075E+04  0.79838358492E+02 0.  0.
         13    1    3    3    0    0  0.19633731142E+03 -0.62915821666E+02 -0.13105966679E+03  0.24430181484E+03  0.00000000000E+00 0.  1.
        -13    1    3    3    0    0  0.33568291359E+03 -0.22922257492E+03 -0.32756347879E+03  0.52203815950E+03  0.00000000000E+00 0. -1.
          2    1    6    6  502    0 -0.12765280337E+03  0.28197801944E+02  0.20399348009E+03  0.24228845239E+03  0.00000000000E+00 0. -1.
          1    1    5    5  503    0  0.14296273186E+03  0.23420876213E+02  0.10573886321E+03  0.17935324735E+03  0.00000000000E+00 0. -1.
         -2    1    5    5    0  503  0.89793252171E+02 -0.48372772863E+02  0.79465068207E+02  0.12929597966E+03  0.00000000000E+00 0.  1.
         -1    1    6    6    0  502 -0.63712340567E+03  0.28889249130E+03  0.89443253624E+03  0.11355151551E+04  0.00000000000E+00 0.  1.
<mgrwt>
<rscale>  0 0.23098823E+04</rscale>
<asrwt>0</asrwt>
<pdfrwt beam="1">  1        2 0.25213843E+00 0.23098823E+04</pdfrwt>
<pdfrwt beam="2">  1       -2 0.12521431E+00 0.23098823E+04</pdfrwt>
<totfact> 0.45881104E+00</totfact>
</mgrwt>
</event>
<event>
12    1  0.1519630E-007  0.2314120E+04  0.7818608E-02  0.8472374E-01
          2   -1    0    0  501    0  0.00000000000E+00  0.00000000000E+00  0.12811287127E+04  0.12811287127E+04  0.00000000000E+00 0. -1.
         -2   -1    0    0    0  501 -0.00000000000E+00 -0.00000000000E+00 -0.10450068650E+04  0.10450068650E+04  0.00000000000E+00 0.  1.
         23    2    1    2    0    0 -0.18693004208E+03  0.62287455181E+03 -0.63856320830E+03  0.91602740206E+03  0.91802409661E+02 0.  0.
        254    2    1    2    0    0  0.18693004208E+03 -0.62287455181E+03  0.87468505598E+03  0.14101081757E+04  0.89465947267E+03 0.  0.
        -24    2    4    4    0    0 -0.16696446314E+03 -0.15706575234E+03 -0.10666776037E+03  0.26490706993E+03  0.79063026050E+02 0.  0.
         24    2    4    4    0    0  0.35389450522E+03 -0.46580879947E+03  0.98135281635E+03  0.11452011057E+04  0.78822991321E+02 0.  0.
         13    1    3    3    0    0 -0.26266015697E+02  0.72916123579E+02 -0.12234894375E+03  0.14483068975E+03  0.00000000000E+00 0. -1.
        -13    1    3    3    0    0 -0.16066402638E+03  0.54995842823E+03 -0.51621426455E+03  0.77119671231E+03  0.00000000000E+00 0.  1.
          4    1    6    6  502    0  0.22185513507E+01 -0.14971908647E+02  0.50928976500E+02  0.53130411875E+02  0.00000000000E+00 0. -1.
          1    1    5    5  503    0 -0.88986657289E+02 -0.13314527565E+03 -0.80563874774E+02  0.17926747481E+03  0.00000000000E+00 0. -1.
         -2    1    5    5    0  503 -0.77977805855E+02 -0.23920476687E+02 -0.26103885592E+02  0.85639595129E+02  0.00000000000E+00 0.  1.
         -3    1    6    6    0  502  0.35167595387E+03 -0.45083689082E+03  0.93042383985E+03  0.10920706939E+04  0.00000000000E+00 0.  1.
<mgrwt>
<rscale>  0 0.23141204E+04</rscale>
<asrwt>0</asrwt>
<pdfrwt beam="1">  1        2 0.19709673E+00 0.23141204E+04</pdfrwt>
<pdfrwt beam="2">  1       -2 0.16077029E+00 0.23141204E+04</pdfrwt>
<totfact> 0.38180414E+00</totfact>
</mgrwt>
</event>
<event>
12    1  0.1519630E-007  0.4039530E+04  0.7818608E-02  0.7996619E-01
         -2   -1    0    0    0  501 -0.00000000000E+00  0.00000000000E+00  0.15318161083E+04  0.15318161083E+04  0.00000000000E+00 0. -1.
          2   -1    0    0  501    0  0.00000000000E+00 -0.00000000000E+00 -0.26631463209E+04  0.26631463209E+04  0.00000000000E+00 0.  1.
         23    2    1    2    0    0 -0.21251469149E+03  0.10786849915E+04 -0.21693741704E+04  0.24337805284E+04  0.91539959744E+02 0.  0.
        254    2    1    2    0    0  0.21251469149E+03 -0.10786849915E+04  0.10380439577E+04  0.17611819008E+04  0.90305183922E+03 0.  0.
        -24    2    4    4    0    0  0.37149397618E+02 -0.20569283488E+03 -0.15273809883E+03  0.27219609736E+03  0.84096186108E+02 0.  0.
         24    2    4    4    0    0  0.17536529387E+03 -0.87299215666E+03  0.11907820566E+04  0.14889858034E+04  0.79047609888E+02 0.  0.
         11    1    3    3    0    0 -0.83564649243E+01  0.23088591125E+03 -0.43807106654E+03  0.49526194469E+03  0.00000000000E+00 0. -1.
        -11    1    3    3    0    0 -0.20415822656E+03  0.84779908029E+03 -0.17313031039E+04  0.19385185837E+04  0.00000000000E+00 0.  1.
          2    1    6    6  502    0  0.13512092278E+03 -0.77981234709E+03  0.10319883975E+04  0.13005248990E+04  0.00000000000E+00 0. -1.
          3    1    5    5  503    0  0.56338671346E+02 -0.12774009606E+03 -0.12460068788E+03  0.18712805629E+03  0.00000000000E+00 0. -1.
         -4    1    5    5    0  503 -0.19189273728E+02 -0.77952738823E+02 -0.28137410946E+02  0.85068041067E+02  0.00000000000E+00 0.  1.
         -1    1    6    6    0  502  0.40244371094E+02 -0.93179809569E+02  0.15879365907E+03  0.18846090437E+03  0.00000000000E+00 0.  1.
<mgrwt>
<rscale>  0 0.40395299E+04</rscale>
<asrwt>0</asrwt>
<pdfrwt beam="1">  1        2 0.40971481E+00 0.40395299E+04</pdfrwt>
<pdfrwt beam="2">  1       -2 0.23566402E+00 0.40395299E+04</pdfrwt>
<totfact> 0.17307527E-01</totfact>
</mgrwt>
</event>
<event>
12    1  0.1519630E-007  0.2465193E+04  0.7818608E-02  0.8415492E-01
         -1   -1    0    0    0  501 -0.00000000000E+00  0.00000000000E+00  0.88264085150E+03  0.88264085150E+03  0.00000000000E+00 0.  1.
          1   -1    0    0  501    0  0.00000000000E+00 -0.00000000000E+00 -0.17213045122E+04  0.17213045122E+04  0.00000000000E+00 0. -1.
         23    2    1    2    0    0 -0.32627315552E+02  0.10503327954E+04 -0.54368329178E+03  0.11866908295E+04  0.91542778688E+02 0.  0.
        254    2    1    2    0    0  0.32627315552E+02 -0.10503327954E+04 -0.29498036896E+03  0.14172545342E+04  0.90406497213E+03 0.  0.
        -24    2    4    4    0    0  0.26247519241E+03 -0.38060792348E+02 -0.25392251467E+03  0.37532832276E+03  0.77800101973E+02 0.  0.
         24    2    4    4    0    0 -0.22984787686E+03 -0.10122720031E+04 -0.41057854292E+02  0.10419262114E+04  0.79998925125E+02 0.  0.
         11    1    3    3    0    0 -0.18168065556E+02  0.77609292715E+03 -0.44545597326E+03  0.89503147112E+03  0.00000000000E+00 0.  1.
        -11    1    3    3    0    0 -0.14459249995E+02  0.27423986826E+03 -0.98227318514E+02  0.29165935842E+03  0.00000000000E+00 0. -1.
          2    1    6    6  502    0 -0.19717120860E+03 -0.94045842929E+03 -0.23998925459E+02  0.96120470824E+03  0.00000000000E+00 0. -1.
          3    1    5    5  503    0  0.21366094826E+03 -0.53758505503E+02 -0.23081145843E+03  0.31908448265E+03  0.00000000000E+00 0. -1.
         -4    1    5    5    0  503  0.48814244149E+02  0.15697713155E+02 -0.23111056241E+02  0.56243840113E+02  0.00000000000E+00 0.  1.
         -1    1    6    6    0  502 -0.32676668265E+02 -0.71813573764E+02 -0.17058928833E+02  0.80721503199E+02  0.00000000000E+00 0.  1.
<mgrwt>
<rscale>  0 0.24651926E+04</rscale>
<asrwt>0</asrwt>
<pdfrwt beam="1">  1        1 0.26481608E+00 0.24651926E+04</pdfrwt>
<pdfrwt beam="2">  1       -1 0.13579090E+00 0.24651926E+04</pdfrwt>
<totfact> 0.18636189E+00</totfact>
</mgrwt>
</event>
<event>
12    1  0.1519630E-007  0.2294290E+04  0.7818608E-02  0.8480176E-01
          2   -1    0    0  501    0  0.00000000000E+00  0.00000000000E+00  0.11326960229E+04  0.11326960229E+04  0.00000000000E+00 0. -1.
         -2   -1    0    0    0  501 -0.00000000000E+00 -0.00000000000E+00 -0.11617778498E+04  0.11617778498E+04  0.00000000000E+00 0.  1.
         23    2    1    2    0    0  0.37839244565E+03 -0.54335908034E+03 -0.72344044297E+03  0.98500475941E+03  0.91915006546E+02 0.  0.
        254    2    1    2    0    0 -0.37839244565E+03  0.54335908034E+03  0.69435861613E+03  0.13094691133E+04  0.89115404829E+03 0.  0.
        -24    2    4    4    0    0  0.19036616484E+03  0.14042302525E+01  0.42986956517E+03  0.47671159033E+03  0.78897710450E+02 0.  0.
         24    2    4    4    0    0 -0.56875861050E+03  0.54195485009E+03  0.26448905096E+03  0.83275752297E+03  0.79556378996E+02 0.  0.
         11    1    3    3    0    0 -0.20589132907E+01  0.25883086435E+00 -0.11960616436E+02  0.12139294168E+02  0.00000000000E+00 0. -1.
        -11    1    3    3    0    0  0.38045135894E+03 -0.54361791120E+03 -0.71147982653E+03  0.97286546524E+03  0.00000000000E+00 0.  1.
          4    1    6    6  502    0 -0.25245191374E+03  0.29315361107E+03  0.14173952598E+03  0.41202075392E+03  0.00000000000E+00 0. -1.
          3    1    5    5  503    0  0.19153278206E+03  0.13538165762E+02  0.38512568350E+03  0.43033693849E+03  0.00000000000E+00 0. -1.
         -4    1    5    5    0  503 -0.11666172118E+01 -0.12133935510E+02  0.44743881663E+02  0.46374651836E+02  0.00000000000E+00 0.  1.
         -3    1    6    6    0  502 -0.31630669675E+03  0.24880123902E+03  0.12274952498E+03  0.42073676905E+03  0.00000000000E+00 0.  1.
<mgrwt>
<rscale>  0 0.22942896E+04</rscale>
<asrwt>0</asrwt>
<pdfrwt beam="1">  1        2 0.17426093E+00 0.22942896E+04</pdfrwt>
<pdfrwt beam="2">  1       -2 0.17873505E+00 0.22942896E+04</pdfrwt>
<totfact> 0.34907649E+00</totfact>
</mgrwt>
</event>
<event>
12    1  0.1519630E-007  0.1756429E+04  0.7818608E-02  0.8729820E-01
          2   -1    0    0  501    0  0.00000000000E+00  0.00000000000E+00  0.15678406150E+04  0.15678406150E+04  0.00000000000E+00 0. -1.
         -2   -1    0    0    0  501 -0.00000000000E+00 -0.00000000000E+00 -0.49192538739E+03  0.49192538739E+03  0.00000000000E+00 0.  1.
         23    2    1    2    0    0  0.36875173341E+03  0.24842016910E+03  0.95478202327E+03  0.10587640050E+04  0.10808369463E+03 0.  0.
        254    2    1    2    0    0 -0.36875173341E+03 -0.24842016910E+03  0.12113320439E+03  0.10010019974E+04  0.88861764800E+03 0.  0.
        -24    2    4    4    0    0  0.21908428521E+03 -0.25718894517E+03 -0.11034936080E+03  0.36389462335E+03  0.78091215459E+02 0.  0.
         24    2    4    4    0    0 -0.58783601862E+03  0.87687760669E+01  0.23148256519E+03  0.63710737407E+03  0.81814130134E+02 0.  0.
         13    1    3    3    0    0  0.34563307343E+03  0.19577042422E+03  0.79014213960E+03  0.88437146111E+03  0.00000000000E+00 0. -1.
        -13    1    3    3    0    0  0.23118659974E+02  0.52649744880E+02  0.16463988367E+03  0.17439254390E+03  0.00000000000E+00 0.  1.
          4    1    6    6  502    0 -0.22931806220E+03  0.27491891827E+02  0.56717174235E+02  0.23782223533E+03  0.00000000000E+00 0. -1.
          1    1    5    5  503    0 -0.47447636653E+01 -0.32939866531E+01  0.35430884436E+01  0.67761793092E+01  0.00000000000E+00 0. -1.
         -2    1    5    5    0  503  0.22382904888E+03 -0.25389495851E+03 -0.11389244924E+03  0.35711844404E+03  0.00000000000E+00 0.  1.
         -3    1    6    6    0  502 -0.35851795642E+03 -0.18723115760E+02  0.17476539096E+03  0.39928513874E+03  0.00000000000E+00 0.  1.
<mgrwt>
<rscale>  0 0.17564289E+04</rscale>
<asrwt>0</asrwt>
<pdfrwt beam="1">  1        2 0.24120625E+00 0.17564289E+04</pdfrwt>
<pdfrwt beam="2">  1       -2 0.75680830E-01 0.17564289E+04</pdfrwt>
<totfact> 0.17234333E+01</totfact>
</mgrwt>
</event>
<event>
12    1  0.1519630E-007  0.1251803E+04  0.7818608E-02  0.9068684E-01
         -2   -1    0    0    0  501 -0.00000000000E+00  0.00000000000E+00  0.56822192804E+03  0.56822192804E+03  0.00000000000E+00 0.  1.
          2   -1    0    0  501    0  0.00000000000E+00 -0.00000000000E+00 -0.68943646530E+03  0.68943646530E+03  0.00000000000E+00 0. -1.
         23    2    1    2    0    0  0.16187982944E+02  0.28496237335E+03 -0.23221969582E+02  0.30006738419E+03  0.89641341844E+02 0.  0.
        254    2    1    2    0    0 -0.16187982944E+02 -0.28496237335E+03 -0.97992567682E+02  0.95759100915E+03  0.90879722296E+03 0.  0.
        -24    2    4    4    0    0  0.29960578518E+03 -0.14485236262E+03  0.27867103284E+03  0.44106934988E+03  0.78350452399E+02 0.  0.
         24    2    4    4    0    0 -0.31579376812E+03 -0.14011001073E+03 -0.37666360052E+03  0.51652165927E+03  0.74583090833E+02 0.  0.
         13    1    3    3    0    0 -0.86718952185E+01  0.17491883753E+01 -0.12818631416E+02  0.15574939423E+02  0.00000000000E+00 0. -1.
        -13    1    3    3    0    0  0.24859878162E+02  0.28321318497E+03 -0.10403338166E+02  0.28449244477E+03  0.00000000000E+00 0.  1.
          4    1    6    6  502    0 -0.15904866411E+03 -0.10992915791E+03 -0.21957497224E+03  0.29256463516E+03  0.00000000000E+00 0. -1.
          1    1    5    5  503    0  0.29283557065E+03 -0.12365573237E+03  0.24797370935E+03  0.40315551852E+03  0.00000000000E+00 0. -1.
         -2    1    5    5    0  503  0.67702145264E+01 -0.21196630249E+02  0.30697323496E+02  0.37913831360E+02  0.00000000000E+00 0.  1.
         -3    1    6    6    0  502 -0.15674510401E+03 -0.30180852827E+02 -0.15708862828E+03  0.22395702410E+03  0.00000000000E+00 0.  1.
<mgrwt>
<rscale>  0 0.12518034E+04</rscale>
<asrwt>0</asrwt>
<pdfrwt beam="1">  1        2 0.10606715E+00 0.12518034E+04</pdfrwt>
<pdfrwt beam="2">  1       -2 0.87418758E-01 0.12518034E+04</pdfrwt>
<totfact> 0.46435927E+01</totfact>
</mgrwt>
</event>
<event>
12    1  0.1519630E-007  0.1255713E+04  0.7818608E-02  0.9065442E-01
         -1   -1    0    0    0  501 -0.00000000000E+00  0.00000000000E+00  0.13943558420E+04  0.13943558420E+04  0.00000000000E+00 0.  1.
          1   -1    0    0  501    0  0.00000000000E+00 -0.00000000000E+00 -0.28271401322E+03  0.28271401322E+03  0.00000000000E+00 0. -1.
         23    2    1    2    0    0 -0.19604897881E+03  0.12854773362E+03  0.31948977337E+02  0.25093316411E+03  0.83588239516E+02 0.  0.
        254    2    1    2    0    0  0.19604897881E+03 -0.12854773362E+03  0.10796928515E+04  0.14261366911E+04  0.90175910661E+03 0.  0.
        -24    2    4    4    0    0  0.25145030958E+03  0.30128655862E+03  0.21238569674E+03  0.45320753825E+03  0.79300314964E+02 0.  0.
         24    2    4    4    0    0 -0.55401330764E+02 -0.42983429224E+03  0.86730715473E+03  0.97292915288E+03  0.80886399567E+02 0.  0.
         11    1    3    3    0    0 -0.14458420403E+03  0.89454627370E+02 -0.15546335772E+02  0.17072905719E+03  0.00000000000E+00 0. -1.
        -11    1    3    3    0    0 -0.51464774781E+02  0.39093106251E+02  0.47495313109E+02  0.80204106921E+02  0.00000000000E+00 0.  1.
          4    1    6    6  502    0 -0.52881263772E+02 -0.21971945219E+03  0.37791820612E+03  0.44033536793E+03  0.00000000000E+00 0. -1.
          1    1    5    5  503    0  0.63531705613E+02  0.50289655460E+02  0.14160938462E+02  0.82254843277E+02  0.00000000000E+00 0. -1.
         -2    1    5    5    0  503  0.18791860396E+03  0.25099690316E+03  0.19822475828E+03  0.37095269497E+03  0.00000000000E+00 0.  1.
         -3    1    6    6    0  502 -0.25200669915E+01 -0.21011484005E+03  0.48938894861E+03  0.53259378495E+03  0.00000000000E+00 0.  1.
<mgrwt>
<rscale>  0 0.12557132E+04</rscale>
<asrwt>0</asrwt>
<pdfrwt beam="1">  1        1 0.43494464E-01 0.12557132E+04</pdfrwt>
<pdfrwt beam="2">  1       -1 0.21451628E+00 0.12557132E+04</pdfrwt>
<totfact> 0.11194164E+01</totfact>
</mgrwt>
</event>
<event>
12    1  0.1519630E-007  0.1222237E+04  0.7818608E-02  0.9093612E-01
          3   -1    0    0  501    0  0.00000000000E+00  0.00000000000E+00  0.39159802768E+03  0.39159802768E+03  0.00000000000E+00 0. -1.
         -3   -1    0    0    0  501 -0.00000000000E+00 -0.00000000000E+00 -0.95369690263E+03  0.95369690263E+03  0.00000000000E+00 0.  1.
         23    2    1    2    0    0  0.26616710559E+03 -0.17418915346E+02 -0.18101575042E+03  0.33504068252E+03  0.91308325641E+02 0.  0.
        254    2    1    2    0    0 -0.26616710559E+03  0.17418915346E+02 -0.38108312453E+03  0.10102542478E+04  0.89679482083E+03 0.  0.
        -24    2    4    4    0    0 -0.25304266735E+03  0.73856865061E+02 -0.65949756208E+03  0.71472485426E+03  0.80057197584E+02 0.  0.
         24    2    4    4    0    0 -0.13124438242E+02 -0.56437949715E+02  0.27841443755E+03  0.29552939354E+03  0.80408521692E+02 0.  0.
         11    1    3    3    0    0 -0.57450682781E+01  0.31986039447E+01  0.17019850191E+01  0.67921741527E+01  0.00000000000E+00 0. -1.
        -11    1    3    3    0    0  0.27191217387E+03 -0.20617519291E+02 -0.18271773544E+03  0.32824850837E+03  0.00000000000E+00 0.  1.
          4    1    6    6  502    0 -0.38086127337E+02 -0.23379468543E+02  0.21630518204E+03  0.22087345794E+03  0.00000000000E+00 0. -1.
          1    1    5    5  503    0 -0.70587667705E+02  0.28358170679E+02 -0.29411922850E+03  0.30379750698E+03  0.00000000000E+00 0. -1.
         -2    1    5    5    0  503 -0.18245499965E+03  0.45498694382E+02 -0.36537833358E+03  0.41092734727E+03  0.00000000000E+00 0.  1.
         -1    1    6    6    0  502  0.24961689095E+02 -0.33058481171E+02  0.62109255510E+02  0.74655935597E+02  0.00000000000E+00 0.  1.
<mgrwt>
<rscale>  0 0.12222370E+04</rscale>
<asrwt>0</asrwt>
<pdfrwt beam="1">  1        3 0.60245851E-01 0.12222370E+04</pdfrwt>
<pdfrwt beam="2">  1       -3 0.14672260E+00 0.12222370E+04</pdfrwt>
<totfact> 0.23741025E+00</totfact>
</mgrwt>
</event>
<event>
12    1  0.1519630E-007  0.1357180E+04  0.7818608E-02  0.8985411E-01
         -1   -1    0    0    0  501 -0.00000000000E+00  0.00000000000E+00  0.53403592416E+03  0.53403592416E+03  0.00000000000E+00 0.  1.
          1   -1    0    0  501    0  0.00000000000E+00 -0.00000000000E+00 -0.86227178616E+03  0.86227178616E+03  0.00000000000E+00 0. -1.
         23    2    1    2    0    0 -0.17396922747E+03 -0.17239553242E+03 -0.39199089280E+03  0.47016748930E+03  0.86110953184E+02 0.  0.
        254    2    1    2    0    0  0.17396922747E+03  0.17239553242E+03  0.63755030800E+02  0.92614022102E+03  0.89089028131E+03 0.  0.
        -24    2    4    4    0    0 -0.32974399926E+03  0.17325254381E+03  0.15253945880E+03  0.40943153847E+03  0.74955648345E+02 0.  0.
         24    2    4    4    0    0  0.50371322673E+03 -0.85701139011E+00 -0.88784427997E+02  0.51670868255E+03  0.73331021514E+02 0.  0.
         13    1    3    3    0    0 -0.70380457562E+02 -0.97978948120E+02 -0.12204211246E+03  0.17160291459E+03  0.00000000000E+00 0.  1.
        -13    1    3    3    0    0 -0.10358876990E+03 -0.74416584302E+02 -0.26994878034E+03  0.29856457472E+03  0.00000000000E+00 0. -1.
          2    1    6    6  502    0  0.58527038467E+02  0.31841562121E+01 -0.34997130709E+02  0.68266772593E+02  0.00000000000E+00 0. -1.
          1    1    5    5  503    0  0.27729685699E+00  0.13107598604E+02  0.60335337867E+01  0.14432240459E+02  0.00000000000E+00 0. -1.
         -2    1    5    5    0  503 -0.33002129612E+03  0.16014494521E+03  0.14650592501E+03  0.39499929801E+03  0.00000000000E+00 0.  1.
         -1    1    6    6    0  502  0.44518618826E+03 -0.40411676022E+01 -0.53787297289E+02  0.44844190995E+03  0.00000000000E+00 0.  1.
<mgrwt>
<rscale>  0 0.13571796E+04</rscale>
<asrwt>0</asrwt>
<pdfrwt beam="1">  1        1 0.13265720E+00 0.13571796E+04</pdfrwt>
<pdfrwt beam="2">  1       -1 0.82159373E-01 0.13571796E+04</pdfrwt>
<totfact> 0.28200236E+01</totfact>
</mgrwt>
</event>
<event>
12    1  0.1519630E-007  0.2011966E+04  0.7818608E-02  0.8601047E-01
         -1   -1    0    0    0  501 -0.00000000000E+00  0.00000000000E+00  0.54466478087E+03  0.54466478087E+03  0.00000000000E+00 0.  1.
          1   -1    0    0  501    0  0.00000000000E+00 -0.00000000000E+00 -0.18580262161E+04  0.18580262161E+04  0.00000000000E+00 0. -1.
         23    2    1    2    0    0 -0.56245576184E+03  0.36325007115E+03 -0.10577730425E+04  0.12553327257E+04  0.93109316119E+02 0.  0.
        254    2    1    2    0    0  0.56245576184E+03 -0.36325007115E+03 -0.25558839274E+03  0.11473582712E+04  0.89599022192E+03 0.  0.
        -24    2    4    4    0    0  0.39951252533E+03 -0.13129185570E+01 -0.52229350997E+03  0.66239524576E+03  0.79780758319E+02 0.  0.
         24    2    4    4    0    0  0.16294323651E+03 -0.36193715260E+03  0.26670511723E+03  0.48496302544E+03  0.80675372540E+02 0.  0.
         13    1    3    3    0    0 -0.34813156422E+03  0.25015832136E+03 -0.74670874389E+03  0.86101609739E+03  0.00000000000E+00 0. -1.
        -13    1    3    3    0    0 -0.21432419761E+03  0.11309174979E+03 -0.31106429856E+03  0.39431662835E+03  0.00000000000E+00 0.  1.
          2    1    6    6  502    0 -0.22386212758E+00 -0.68858313622E+02  0.56802401178E+02  0.89263823852E+02  0.00000000000E+00 0. -1.
          1    1    5    5  503    0  0.49827696104E+02 -0.25217204578E+02 -0.56300907369E+02  0.79300055967E+02  0.00000000000E+00 0. -1.
         -2    1    5    5    0  503  0.34968482922E+03  0.23904286021E+02 -0.46599260260E+03  0.58309518979E+03  0.00000000000E+00 0.  1.
         -1    1    6    6    0  502  0.16316709863E+03 -0.29307883897E+03  0.20990271605E+03  0.39569920159E+03  0.00000000000E+00 0.  1.
<mgrwt>
<rscale>  0 0.20119656E+04</rscale>
<asrwt>0</asrwt>
<pdfrwt beam="1">  1        1 0.28585019E+00 0.20119656E+04</pdfrwt>
<pdfrwt beam="2">  1       -1 0.83794582E-01 0.20119656E+04</pdfrwt>
<totfact> 0.48680346E+00</totfact>
</mgrwt>
</event>
<event>
12    1  0.1519630E-007  0.2108244E+04  0.7818608E-02  0.8557620E-01
         -1   -1    0    0    0  501 -0.00000000000E+00  0.00000000000E+00  0.36945408773E+03  0.36945408773E+03  0.00000000000E+00 0.  1.
          1   -1    0    0  501    0  0.00000000000E+00 -0.00000000000E+00 -0.30076092277E+04  0.30076092277E+04  0.00000000000E+00 0. -1.
         23    2    1    2    0    0 -0.66501875203E+02 -0.84752162165E+03 -0.87717107276E+03  0.12249608194E+04  0.91567022180E+02 0.  0.
        254    2    1    2    0    0  0.66501875203E+02  0.84752162165E+03 -0.17609840673E+04  0.21521024961E+04  0.89875740333E+03 0.  0.
        -24    2    4    4    0    0  0.19160649893E+03 -0.12911346292E+03 -0.43122453364E+03  0.49564819538E+03  0.79556259541E+02 0.  0.
         24    2    4    4    0    0 -0.12510462372E+03  0.97663508457E+03 -0.13297595336E+04  0.16564543007E+04  0.78186813873E+02 0.  0.
         13    1    3    3    0    0 -0.22769466869E+02 -0.11616641724E+03 -0.83781193769E+02  0.14502542379E+03  0.00000000000E+00 0. -1.
        -13    1    3    3    0    0 -0.43732408334E+02 -0.73135520441E+03 -0.79338987899E+03  0.10799353956E+04  0.00000000000E+00 0.  1.
          4    1    6    6  502    0  0.73822175739E+01  0.99984995042E+02 -0.15682884486E+03  0.18613646325E+03  0.00000000000E+00 0. -1.
          3    1    5    5  503    0  0.33677698076E+02 -0.65518000483E+02 -0.11685427756E+03  0.13813659153E+03  0.00000000000E+00 0. -1.
         -4    1    5    5    0  503  0.15792880085E+03 -0.63595462435E+02 -0.31437025608E+03  0.35751160385E+03  0.00000000000E+00 0.  1.
         -3    1    6    6    0  502 -0.13248684130E+03  0.87665008952E+03 -0.11729306888E+04  0.14703178375E+04  0.00000000000E+00 0.  1.
<mgrwt>
<rscale>  0 0.21082443E+04</rscale>
<asrwt>0</asrwt>
<pdfrwt beam="1">  1        1 0.46270911E+00 0.21082443E+04</pdfrwt>
<pdfrwt beam="2">  1       -1 0.56839090E-01 0.21082443E+04</pdfrwt>
<totfact> 0.17017761E+00</totfact>
</mgrwt>
</event>
<event>
12    1  0.1519630E-007  0.2198915E+04  0.7818608E-02  0.8518880E-01
         -1   -1    0    0    0  501 -0.00000000000E+00  0.00000000000E+00  0.49290973530E+03  0.49290973530E+03  0.00000000000E+00 0.  1.
          1   -1    0    0  501    0  0.00000000000E+00 -0.00000000000E+00 -0.24523890762E+04  0.24523890762E+04  0.00000000000E+00 0. -1.
         23    2    1    2    0    0 -0.14340163568E+03 -0.42604171038E+03  0.24340448839E+03  0.52014580821E+03  0.96074703911E+02 0.  0.
        254    2    1    2    0    0  0.14340163568E+03  0.42604171038E+03 -0.22028838293E+04  0.24251530033E+04  0.90917234666E+03 0.  0.
        -24    2    4    4    0    0 -0.20223786672E+02 -0.23702377561E+03 -0.24562310037E+03  0.35062327781E+03  0.77567414232E+02 0.  0.
         24    2    4    4    0    0  0.16362542235E+03  0.66306548599E+03 -0.19572607290E+04  0.20745297255E+04  0.79842992139E+02 0.  0.
         11    1    3    3    0    0  0.26466838103E+01 -0.39059109856E+02  0.50095616029E+02  0.63578217522E+02  0.00000000000E+00 0. -1.
        -11    1    3    3    0    0 -0.14604831949E+03 -0.38698260052E+03  0.19330887236E+03  0.45656759069E+03  0.00000000000E+00 0.  1.
          2    1    6    6  502    0  0.12908739955E+03  0.54083334888E+03 -0.16784003898E+04  0.17681041080E+04  0.00000000000E+00 0. -1.
          3    1    5    5  503    0 -0.16681519700E+02 -0.24117700841E+03 -0.22850049943E+03  0.33265162066E+03  0.00000000000E+00 0. -1.
         -4    1    5    5    0  503 -0.35422669726E+01  0.41532327921E+01 -0.17122600936E+02  0.17971657151E+02  0.00000000000E+00 0.  1.
         -3    1    6    6    0  502  0.34538022807E+02  0.12223213711E+03 -0.27886033913E+03  0.30642561756E+03  0.00000000000E+00 0.  1.
<mgrwt>
<rscale>  0 0.21989147E+04</rscale>
<asrwt>0</asrwt>
<pdfrwt beam="1">  1        1 0.37729063E+00 0.21989147E+04</pdfrwt>
<pdfrwt beam="2">  1       -1 0.75832266E-01 0.21989147E+04</pdfrwt>
<totfact> 0.23283205E+00</totfact>
</mgrwt>
</event>
<event>
12    1  0.1519630E-007  0.1647978E+04  0.7818608E-02  0.8791603E-01
          3   -1    0    0  501    0  0.00000000000E+00  0.00000000000E+00  0.15657903426E+04  0.15657903426E+04  0.00000000000E+00 0. -1.
         -3   -1    0    0    0  501 -0.00000000000E+00 -0.00000000000E+00 -0.43362003313E+03  0.43362003313E+03  0.00000000000E+00 0.  1.
         23    2    1    2    0    0 -0.56427222027E+03 -0.13901065408E+03  0.26557939113E+03  0.64532093077E+03  0.90441086834E+02 0.  0.
        254    2    1    2    0    0  0.56427222027E+03  0.13901065408E+03  0.86659091831E+03  0.13540894449E+04  0.86304768388E+03 0.  0.
        -24    2    4    4    0    0  0.61615545843E+02  0.32310691655E+03  0.73410506970E+01  0.33862399061E+03  0.80110929228E+02 0.  0.
         24    2    4    4    0    0  0.50265667443E+03 -0.18409626246E+03  0.85924986761E+03  0.10154654543E+04  0.79401433985E+02 0.  0.
         13    1    3    3    0    0 -0.46820453829E+02  0.10841863398E+02  0.34383961437E+02  0.59092788924E+02  0.00000000000E+00 0. -1.
        -13    1    3    3    0    0 -0.51745176644E+03 -0.14985251748E+03  0.23119542969E+03  0.58622814185E+03  0.00000000000E+00 0.  1.
          2    1    6    6  502    0  0.61727409412E+00  0.40503881251E+01  0.25269546422E+01  0.48137481275E+01  0.00000000000E+00 0. -1.
          3    1    5    5  503    0  0.49059226514E+02  0.86050500181E+02  0.19376384730E+02  0.10093037488E+03  0.00000000000E+00 0. -1.
         -4    1    5    5    0  503  0.12556319329E+02  0.23705641636E+03 -0.12035334033E+02  0.23769361573E+03  0.00000000000E+00 0.  1.
         -1    1    6    6    0  502  0.50203940033E+03 -0.18814665059E+03  0.85672291297E+03  0.10106517062E+04  0.00000000000E+00 0.  1.
<mgrwt>
<rscale>  0 0.16479782E+04</rscale>
<asrwt>0</asrwt>
<pdfrwt beam="1">  1        3 0.24089082E+00 0.16479782E+04</pdfrwt>
<pdfrwt beam="2">  1       -3 0.66710775E-01 0.16479782E+04</pdfrwt>
<totfact> 0.45224708E-01</totfact>
</mgrwt>
</event>
<event>
12    1  0.1519630E-007  0.1103070E+04  0.7818608E-02  0.9202205E-01
          2   -1    0    0  501    0  0.00000000000E+00  0.00000000000E+00  0.10249033866E+04  0.10249033866E+04  0.00000000000E+00 0. -1.
         -2   -1    0    0    0  501 -0.00000000000E+00 -0.00000000000E+00 -0.29679949724E+03  0.29679949724E+03  0.00000000000E+00 0.  1.
         23    2    1    2    0    0  0.11167968491E+03 -0.22020381776E+02  0.25580431837E+03  0.29550225286E+03  0.94490649880E+02 0.  0.
        254    2    1    2    0    0 -0.11167968491E+03  0.22020381776E+02  0.47229957099E+03  0.10262006310E+04  0.90391570460E+03 0.  0.
        -24    2    4    4    0    0 -0.42482377539E+02 -0.18499809387E+03  0.68069106469E+03  0.71127694334E+03  0.80904372173E+02 0.  0.
         24    2    4    4    0    0 -0.69197307374E+02  0.20701847564E+03 -0.20839149370E+03  0.31492368764E+03  0.90027761180E+02 0.  0.
         13    1    3    3    0    0  0.55239648116E+02  0.81710424101E+01  0.35693851637E+02  0.66273944373E+02  0.00000000000E+00 0.  1.
        -13    1    3    3    0    0  0.56440036797E+02 -0.30191424187E+02  0.22011046673E+03  0.22922830849E+03  0.00000000000E+00 0. -1.
          4    1    6    6  502    0 -0.74835652828E+02  0.20652101535E+03 -0.21420173187E+03  0.30681213577E+03  0.00000000000E+00 0. -1.
          3    1    5    5  503    0  0.55305303556E+01 -0.20951842480E+02  0.19864268198E+03  0.19982112394E+03  0.00000000000E+00 0. -1.
         -4    1    5    5    0  503 -0.48012907894E+02 -0.16404625139E+03  0.48204838271E+03  0.51145581940E+03  0.00000000000E+00 0.  1.
         -3    1    6    6    0  502  0.56383454535E+01  0.49746028826E+00  0.58102381687E+01  0.81115518717E+01  0.00000000000E+00 0.  1.
<mgrwt>
<rscale>  0 0.11030699E+04</rscale>
<asrwt>0</asrwt>
<pdfrwt beam="1">  1        2 0.15767744E+00 0.11030699E+04</pdfrwt>
<pdfrwt beam="2">  1       -2 0.45661462E-01 0.11030699E+04</pdfrwt>
<totfact> 0.10957611E+02</totfact>
</mgrwt>
</event>
<event>
12    1  0.1519630E-007  0.1161169E+04  0.7818608E-02  0.9147541E-01
          1   -1    0    0  501    0  0.00000000000E+00  0.00000000000E+00  0.23731985814E+03  0.23731985814E+03  0.00000000000E+00 0. -1.
         -1   -1    0    0    0  501 -0.00000000000E+00 -0.00000000000E+00 -0.14203557288E+04  0.14203557288E+04  0.00000000000E+00 0.  1.
         23    2    1    2    0    0  0.12102572606E+03  0.13625099596E+03 -0.39646711315E+03  0.44535130084E+03  0.89106953014E+02 0.  0.
        254    2    1    2    0    0 -0.12102572606E+03 -0.13625099596E+03 -0.78656875748E+03  0.12123242861E+04  0.90433854506E+03 0.  0.
        -24    2    4    4    0    0 -0.28449728290E+03  0.89792729212E+02  0.63325284167E+02  0.31435069006E+03  0.76189412198E+02 0.  0.
         24    2    4    4    0    0  0.16347155683E+03 -0.22604372518E+03 -0.84989404164E+03  0.89797359601E+03  0.78854178842E+02 0.  0.
         13    1    3    3    0    0  0.37082809228E+02  0.21360617020E+02 -0.18896130557E+03  0.19374670501E+03  0.00000000000E+00 0. -1.
        -13    1    3    3    0    0  0.83942916835E+02  0.11489037894E+03 -0.20750580758E+03  0.25160459583E+03  0.00000000000E+00 0.  1.
          4    1    6    6  502    0  0.14008502133E+03 -0.22410532385E+03 -0.80565845053E+03  0.84789890217E+03  0.00000000000E+00 0. -1.
          3    1    5    5  503    0 -0.11879950574E+03  0.77296789390E+02  0.30079046361E+02  0.14488914812E+03  0.00000000000E+00 0. -1.
         -4    1    5    5    0  503 -0.16569777716E+03  0.12495939822E+02  0.33246237805E+02  0.16946154194E+03  0.00000000000E+00 0.  1.
         -3    1    6    6    0  502  0.23386535501E+02 -0.19384013278E+01 -0.44235591109E+02  0.50074693840E+02  0.00000000000E+00 0.  1.
<mgrwt>
<rscale>  0 0.11611694E+04</rscale>
<asrwt>0</asrwt>
<pdfrwt beam="1">  1        1 0.36510747E-01 0.11611694E+04</pdfrwt>
<pdfrwt beam="2">  1       -1 0.21851627E+00 0.11611694E+04</pdfrwt>
<totfact> 0.13315129E+01</totfact>
</mgrwt>
</event>
<event>
12    1  0.1519630E-007  0.1740357E+04  0.7818608E-02  0.8738676E-01
         -1   -1    0    0    0  501 -0.00000000000E+00  0.00000000000E+00  0.34725864506E+03  0.34725864506E+03  0.00000000000E+00 0.  1.
          1   -1    0    0  501    0  0.00000000000E+00 -0.00000000000E+00 -0.21805381317E+04  0.21805381317E+04  0.00000000000E+00 0. -1.
         23    2    1    2    0    0 -0.31341788714E+03 -0.21965423822E+03 -0.14000243476E+04  0.14545814576E+04  0.96230383007E+02 0.  0.
        254    2    1    2    0    0  0.31341788714E+03  0.21965423822E+03 -0.43325513900E+03  0.10732153191E+04  0.90421366354E+03 0.  0.
        -24    2    4    4    0    0  0.14481049884E+03  0.18788920055E+03 -0.70156108956E+03  0.74485234396E+03  0.79653120823E+02 0.  0.
         24    2    4    4    0    0  0.16860738830E+03  0.31765037676E+02  0.26830595056E+03  0.32836297514E+03  0.79979318139E+02 0.  0.
         11    1    3    3    0    0 -0.27605486868E+01 -0.30268027525E+02 -0.12690214437E+03  0.13049110455E+03  0.00000000000E+00 0.  1.
        -11    1    3    3    0    0 -0.31065733846E+03 -0.18938621070E+03 -0.12731222032E+04  0.13240903531E+04  0.00000000000E+00 0. -1.
          4    1    6    6  502    0  0.53696150106E+02 -0.35133477182E+01  0.30376172267E+02  0.61792653205E+02  0.00000000000E+00 0. -1.
          1    1    5    5  503    0  0.21443405510E+02 -0.14563366973E+01 -0.35523472390E+02  0.41519364724E+02  0.00000000000E+00 0. -1.
         -2    1    5    5    0  503  0.12336709333E+03  0.18934553725E+03 -0.66603761717E+03  0.70333297923E+03  0.00000000000E+00 0.  1.
         -3    1    6    6    0  502  0.11491123819E+03  0.35278385394E+02  0.23792977829E+03  0.26657032194E+03  0.00000000000E+00 0.  1.
<mgrwt>
<rscale>  0 0.17403571E+04</rscale>
<asrwt>0</asrwt>
<pdfrwt beam="1">  1        1 0.33546740E+00 0.17403571E+04</pdfrwt>
<pdfrwt beam="2">  1       -1 0.53424407E-01 0.17403571E+04</pdfrwt>
<totfact> 0.75334208E+00</totfact>
</mgrwt>
</event>
<event>
12    1  0.1519630E-007  0.2368878E+04  0.7818608E-02  0.8451248E-01
         -2   -1    0    0    0  501 -0.00000000000E+00  0.00000000000E+00  0.12238204212E+04  0.12238204212E+04  0.00000000000E+00 0.  1.
          2   -1    0    0  501    0  0.00000000000E+00 -0.00000000000E+00 -0.11463249031E+04  0.11463249031E+04  0.00000000000E+00 0. -1.
         23    2    1    2    0    0 -0.23841062581E+03 -0.91974683379E+02 -0.94925290124E+03  0.98629108259E+03  0.79937852057E+02 0.  0.
        254    2    1    2    0    0  0.23841062581E+03  0.91974683379E+02  0.10267484194E+04  0.13838542417E+04  0.89193120618E+03 0.  0.
        -24    2    4    4    0    0 -0.72957830545E+02  0.31504822686E+03  0.56646631595E+02  0.33768053619E+03  0.79000464348E+02 0.  0.
         24    2    4    4    0    0  0.31136845635E+03 -0.22307354348E+03  0.97010178780E+03  0.10461737055E+04  0.81668977684E+02 0.  0.
         11    1    3    3    0    0 -0.57072940015E+01  0.27894504168E+01 -0.26046494061E+01  0.68657437307E+01  0.00000000000E+00 0.  1.
        -11    1    3    3    0    0 -0.23270333181E+03 -0.94764133796E+02 -0.94664825184E+03  0.97942533886E+03  0.00000000000E+00 0. -1.
          2    1    6    6  502    0  0.75068584538E+02 -0.10045656561E+03  0.30646221205E+03  0.33112822497E+03  0.00000000000E+00 0. -1.
          1    1    5    5  503    0 -0.19540936126E+02  0.60071563602E+02  0.43766952177E+02  0.76850419915E+02  0.00000000000E+00 0. -1.
         -2    1    5    5    0  503 -0.53416894419E+02  0.25497666326E+03  0.12879679418E+02  0.26083011628E+03  0.00000000000E+00 0.  1.
         -1    1    6    6    0  502  0.23629987181E+03 -0.12261697787E+03  0.66363957575E+03  0.71504548050E+03  0.00000000000E+00 0.  1.
<mgrwt>
<rscale>  0 0.23688781E+04</rscale>
<asrwt>0</asrwt>
<pdfrwt beam="1">  1        2 0.17635768E+00 0.23688781E+04</pdfrwt>
<pdfrwt beam="2">  1       -2 0.18828006E+00 0.23688781E+04</pdfrwt>
<totfact> 0.29285037E+00</totfact>
</mgrwt>
</event>
<event>
12    1  0.1519630E-007  0.1609147E+04  0.7818608E-02  0.8814948E-01
         -2   -1    0    0    0  501 -0.00000000000E+00  0.00000000000E+00  0.10315671581E+04  0.10315671581E+04  0.00000000000E+00 0.  1.
          2   -1    0    0  501    0  0.00000000000E+00 -0.00000000000E+00 -0.62752937550E+03  0.62752937550E+03  0.00000000000E+00 0. -1.
         23    2    1    2    0    0  0.74721488998E+02 -0.19791994638E+03 -0.37564551846E+03  0.44111102840E+03  0.93347617771E+02 0.  0.
        254    2    1    2    0    0 -0.74721488998E+02  0.19791994638E+03  0.77968330110E+03  0.12179855052E+04  0.91149713926E+03 0.  0.
        -24    2    4    4    0    0 -0.92802773266E+02 -0.13407555143E+03 -0.14476143311E+03  0.23221527128E+03  0.79871468499E+02 0.  0.
         24    2    4    4    0    0  0.18081284268E+02  0.33199549780E+03  0.92444473421E+03  0.98577023397E+03  0.81221574478E+02 0.  0.
         13    1    3    3    0    0  0.15398693389E+02 -0.62070944009E+02 -0.20662356534E+03  0.21629428934E+03  0.00000000000E+00 0. -1.
        -13    1    3    3    0    0  0.59322795609E+02 -0.13584900237E+03 -0.16902195312E+03  0.22481673906E+03  0.00000000000E+00 0.  1.
          2    1    6    6  502    0  0.45418668633E+02  0.26931161492E+03  0.76446562303E+03  0.81178771251E+03  0.00000000000E+00 0. -1.
          3    1    5    5  503    0 -0.40899438227E+02 -0.10612939242E+03 -0.12735625330E+03  0.17075077522E+03  0.00000000000E+00 0. -1.
         -4    1    5    5    0  503 -0.51903335039E+02 -0.27946159004E+02 -0.17405179815E+02  0.61464496058E+02  0.00000000000E+00 0.  1.
         -1    1    6    6    0  502 -0.27337384365E+02  0.62683882879E+02  0.15997911118E+03  0.17398252145E+03  0.00000000000E+00 0.  1.
<mgrwt>
<rscale>  0 0.16091472E+04</rscale>
<asrwt>0</asrwt>
<pdfrwt beam="1">  1        2 0.96542981E-01 0.16091472E+04</pdfrwt>
<pdfrwt beam="2">  1       -2 0.15870264E+00 0.16091472E+04</pdfrwt>
<totfact> 0.11579203E+01</totfact>
</mgrwt>
</event>
<event>
12    1  0.1519630E-007  0.2825386E+04  0.7818608E-02  0.8295430E-01
          1   -1    0    0  501    0  0.00000000000E+00  0.00000000000E+00  0.11923472578E+04  0.11923472578E+04  0.00000000000E+00 0. -1.
         -1   -1    0    0    0  501 -0.00000000000E+00 -0.00000000000E+00 -0.16737589885E+04  0.16737589885E+04  0.00000000000E+00 0.  1.
         23    2    1    2    0    0 -0.12341239976E+04  0.28851605313E+03 -0.18375642290E+03  0.12839292826E+04  0.91675652028E+02 0.  0.
        254    2    1    2    0    0  0.12341239976E+04 -0.28851605313E+03 -0.29765530789E+03  0.15821769637E+04  0.89910049927E+03 0.  0.
        -24    2    4    4    0    0  0.10192920309E+04 -0.28235874928E+02 -0.54267071237E+03  0.11577391232E+04  0.78197611597E+02 0.  0.
         24    2    4    4    0    0  0.21483196679E+03 -0.26028017820E+03  0.24501540449E+03  0.42443784056E+03  0.78844067295E+02 0.  0.
         13    1    3    3    0    0 -0.45135124298E+03  0.91260455160E+02 -0.24574642931E+02  0.46114024797E+03  0.00000000000E+00 0. -1.
        -13    1    3    3    0    0 -0.78277275466E+03  0.19725559797E+03 -0.15918177997E+03  0.82278903459E+03  0.00000000000E+00 0.  1.
          4    1    6    6  502    0  0.18093669823E+03 -0.23792041734E+03  0.18352579107E+03  0.35075052351E+03  0.00000000000E+00 0. -1.
          3    1    5    5  503    0  0.50789530519E+03  0.22478404911E+02 -0.28563916201E+03  0.58314033525E+03  0.00000000000E+00 0. -1.
         -4    1    5    5    0  503  0.51139672566E+03 -0.50714279838E+02 -0.25703155036E+03  0.57459878792E+03  0.00000000000E+00 0.  1.
         -3    1    6    6    0  502  0.33895268561E+02 -0.22359760858E+02  0.61489613418E+02  0.73687317055E+02  0.00000000000E+00 0.  1.
<mgrwt>
<rscale>  0 0.28253863E+04</rscale>
<asrwt>0</asrwt>
<pdfrwt beam="1">  1        1 0.18343804E+00 0.28253863E+04</pdfrwt>
<pdfrwt beam="2">  1       -1 0.25750138E+00 0.28253863E+04</pdfrwt>
<totfact> 0.58243556E-01</totfact>
</mgrwt>
</event>
<event>
12    1  0.1519630E-007  0.1589344E+04  0.7818608E-02  0.8827121E-01
         -1   -1    0    0    0  501 -0.00000000000E+00  0.00000000000E+00  0.64710803712E+03  0.64710803712E+03  0.00000000000E+00 0.  1.
          1   -1    0    0  501    0  0.00000000000E+00 -0.00000000000E+00 -0.97588599749E+03  0.97588599749E+03  0.00000000000E+00 0. -1.
         23    2    1    2    0    0  0.47286510327E+03  0.18282581435E+03  0.50943704559E+02  0.51777057059E+03  0.92002274141E+02 0.  0.
        254    2    1    2    0    0 -0.47286510327E+03 -0.18282581435E+03 -0.37972166493E+03  0.11052234640E+04  0.90570617660E+03 0.  0.
        -24    2    4    4    0    0 -0.44086902824E+03 -0.81489397996E+02  0.20951582827E+03  0.50122772944E+03  0.79538245005E+02 0.  0.
         24    2    4    4    0    0 -0.31996075033E+02 -0.10133641636E+03 -0.58923749319E+03  0.60399573459E+03  0.79480852513E+02 0.  0.
         13    1    3    3    0    0 -0.38946221392E+01  0.34577358458E+01 -0.21333928389E+01  0.56280888223E+01  0.00000000000E+00 0.  1.
        -13    1    3    3    0    0  0.47675972541E+03  0.17936807851E+03  0.53077097398E+02  0.51214248177E+03  0.00000000000E+00 0. -1.
          2    1    6    6  502    0 -0.49338459244E+02 -0.41673997987E+02 -0.38949204654E+03  0.39481015689E+03  0.00000000000E+00 0. -1.
          3    1    5    5  503    0 -0.15319107281E+02 -0.19507807565E+02  0.63070006539E+01  0.25593121364E+02  0.00000000000E+00 0. -1.
         -4    1    5    5    0  503 -0.42554992096E+03 -0.61981590431E+02  0.20320882761E+03  0.47563460807E+03  0.00000000000E+00 0.  1.
         -1    1    6    6    0  502  0.17342384211E+02 -0.59662418369E+02 -0.19974544666E+03  0.20918557770E+03  0.00000000000E+00 0.  1.
<mgrwt>
<rscale>  0 0.15893441E+04</rscale>
<asrwt>0</asrwt>
<pdfrwt beam="1">  1        1 0.15013631E+00 0.15893441E+04</pdfrwt>
<pdfrwt beam="2">  1       -1 0.99555083E-01 0.15893441E+04</pdfrwt>
<totfact> 0.14620842E+01</totfact>
</mgrwt>
</event>
<event>
12    1  0.1519630E-007  0.2079264E+04  0.7818608E-02  0.8570433E-01
          1   -1    0    0  501    0  0.00000000000E+00  0.00000000000E+00  0.13035182135E+04  0.13035182135E+04  0.00000000000E+00 0. -1.
         -1   -1    0    0    0  501 -0.00000000000E+00 -0.00000000000E+00 -0.82916701460E+03  0.82916701460E+03  0.00000000000E+00 0.  1.
         23    2    1    2    0    0  0.50398797171E+03  0.59100117674E+03 -0.14666157453E+03  0.79594272862E+03  0.93428813947E+02 0.  0.
        254    2    1    2    0    0 -0.50398797171E+03 -0.59100117674E+03  0.62101277348E+03  0.13367424995E+04  0.89327340645E+03 0.  0.
        -24    2    4    4    0    0 -0.18704548682E+03  0.20116230804E+03  0.31785932792E+03  0.42769906451E+03  0.80247424385E+02 0.  0.
         24    2    4    4    0    0 -0.31694248489E+03 -0.79216348478E+03  0.30315344556E+03  0.90904343501E+03  0.80513538250E+02 0.  0.
         11    1    3    3    0    0  0.54444802885E+02  0.99711363856E+02  0.20086069646E+01  0.11362494068E+03  0.00000000000E+00 0.  1.
        -11    1    3    3    0    0  0.44954316882E+03  0.49128981288E+03 -0.14867018149E+03  0.68231778794E+03  0.00000000000E+00 0. -1.
          2    1    6    6  502    0 -0.21091560313E+03 -0.52077963001E+03  0.23965027609E+03  0.61084291721E+03  0.00000000000E+00 0. -1.
          1    1    5    5  503    0 -0.18344372917E+03  0.20839891039E+03  0.30437911505E+03  0.41198101085E+03  0.00000000000E+00 0. -1.
         -2    1    5    5    0  503 -0.36017576547E+01 -0.72366023517E+01  0.13480212870E+02  0.15718053659E+02  0.00000000000E+00 0.  1.
         -1    1    6    6    0  502 -0.10602688176E+03 -0.27138385477E+03  0.63503169469E+02  0.29820051780E+03  0.00000000000E+00 0.  1.
<mgrwt>
<rscale>  0 0.20792636E+04</rscale>
<asrwt>0</asrwt>
<pdfrwt beam="1">  1        1 0.20054126E+00 0.20792636E+04</pdfrwt>
<pdfrwt beam="2">  1       -1 0.12756416E+00 0.20792636E+04</pdfrwt>
<totfact> 0.44075989E+00</totfact>
</mgrwt>
</event>
<event>
12    1  0.1519630E-007  0.9223608E+03  0.7818608E-02  0.9398053E-01
          2   -1    0    0  501    0  0.00000000000E+00  0.00000000000E+00  0.20494242188E+04  0.20494242188E+04  0.00000000000E+00 0. -1.
         -2   -1    0    0    0  501 -0.00000000000E+00 -0.00000000000E+00 -0.10377907204E+03  0.10377907204E+03  0.00000000000E+00 0.  1.
         23    2    1    2    0    0 -0.50505198459E+02  0.42771136761E+02  0.32391311980E+03  0.34277928531E+03  0.90541615030E+02 0.  0.
        254    2    1    2    0    0  0.50505198459E+02 -0.42771136761E+02  0.16217320269E+04  0.18104240055E+04  0.80202254788E+03 0.  0.
        -24    2    4    4    0    0 -0.32301107512E+03 -0.19534509520E+03  0.91029531853E+03  0.98876888550E+03  0.80811392282E+02 0.  0.
         24    2    4    4    0    0  0.37351627358E+03  0.15257395844E+03  0.71143670839E+03  0.82165511999E+03  0.78623957779E+02 0.  0.
         11    1    3    3    0    0 -0.22560389209E+02  0.65130737447E+02  0.14801471054E+03  0.16327687729E+03  0.00000000000E+00 0.  1.
        -11    1    3    3    0    0 -0.27944809250E+02 -0.22359600686E+02  0.17589840926E+03  0.17950240802E+03  0.00000000000E+00 0. -1.
          4    1    6    6  502    0  0.34610482090E+02 -0.14928990336E+00  0.31798270046E+02  0.47000401444E+02  0.00000000000E+00 0. -1.
          1    1    5    5  503    0  0.14994080994E+01 -0.86849275081E+01  0.46661530479E+02  0.47486573020E+02  0.00000000000E+00 0. -1.
         -2    1    5    5    0  503 -0.32451048322E+03 -0.18666016770E+03  0.86363378805E+03  0.94128231248E+03  0.00000000000E+00 0.  1.
         -3    1    6    6    0  502  0.33890579149E+03  0.15272324835E+03  0.67963843834E+03  0.77465471854E+03  0.00000000000E+00 0.  1.
<mgrwt>
<rscale>  0 0.92236076E+03</rscale>
<asrwt>0</asrwt>
<pdfrwt beam="1">  1        2 0.31529600E+00 0.92236076E+03</pdfrwt>
<pdfrwt beam="2">  1       -2 0.15966013E-01 0.92236076E+03</pdfrwt>
<totfact> 0.19973792E+02</totfact>
</mgrwt>
</event>
<event>
12    1  0.1519630E-007  0.1298691E+04  0.7818608E-02  0.9030604E-01
          2   -1    0    0  501    0  0.00000000000E+00  0.00000000000E+00  0.20164526489E+04  0.20164526489E+04  0.00000000000E+00 0.  1.
         -2   -1    0    0    0  501 -0.00000000000E+00 -0.00000000000E+00 -0.20910451814E+03  0.20910451814E+03  0.00000000000E+00 0. -1.
         23    2    1    2    0    0  0.26727122972E+03  0.19759185795E+03  0.55878845746E+03  0.65680123296E+03  0.93096008835E+02 0.  0.
        254    2    1    2    0    0 -0.26727122972E+03 -0.19759185795E+03  0.12485596733E+04  0.15687559341E+04  0.88972887463E+03 0.  0.
        -24    2    4    4    0    0  0.27641807497E+03 -0.58723528032E+02  0.14337537975E+03  0.32679638066E+03  0.79899749557E+02 0.  0.
         24    2    4    4    0    0 -0.54368930468E+03 -0.13886832991E+03  0.11051842935E+04  0.12419595534E+04  0.78413879794E+02 0.  0.
         13    1    3    3    0    0  0.15600122809E+03  0.14102850480E+03  0.42279099020E+03  0.47220508651E+03  0.00000000000E+00 0. -1.
        -13    1    3    3    0    0  0.11127000163E+03  0.56563353147E+02  0.13599746726E+03  0.18459614645E+03  0.00000000000E+00 0.  1.
          2    1    6    6  502    0 -0.22690033886E+03 -0.71505969974E+02  0.38954120147E+03  0.45644190776E+03  0.00000000000E+00 0. -1.
          1    1    5    5  503    0  0.88387472102E+02 -0.55154319558E+02  0.35947097409E+02  0.11021133337E+03  0.00000000000E+00 0. -1.
         -2    1    5    5    0  503  0.18803060286E+03 -0.35692084742E+01  0.10742828234E+03  0.21658504729E+03  0.00000000000E+00 0.  1.
         -1    1    6    6    0  502 -0.31678896582E+03 -0.67362359940E+02  0.71564309205E+03  0.78551764564E+03  0.00000000000E+00 0.  1.
<mgrwt>
<rscale>  0 0.12986907E+04</rscale>
<asrwt>0</asrwt>
<pdfrwt beam="1">  1        2 0.31022347E+00 0.12986907E+04</pdfrwt>
<pdfrwt beam="2">  1       -2 0.32169927E-01 0.12986907E+04</pdfrwt>
<totfact> 0.57729708E+01</totfact>
</mgrwt>
</event>
<event>
12    1  0.1519630E-007  0.2412690E+04  0.7818608E-02  0.8434768E-01
         -1   -1    0    0    0  501 -0.00000000000E+00  0.00000000000E+00  0.66348528059E+03  0.66348528059E+03  0.00000000000E+00 0.  1.
          1   -1    0    0  501    0  0.00000000000E+00 -0.00000000000E+00 -0.21933693044E+04  0.21933693044E+04  0.00000000000E+00 0. -1.
         23    2    1    2    0    0 -0.17926766865E+02  0.10226423388E+04 -0.47742116338E+03  0.11327163499E+04  0.94850620044E+02 0.  0.
        254    2    1    2    0    0  0.17926766865E+02 -0.10226423388E+04 -0.10524628604E+04  0.17241382351E+04  0.90490654706E+03 0.  0.
        -24    2    4    4    0    0 -0.33467111978E+03 -0.33419557068E+03 -0.91523855710E+02  0.48795846055E+03  0.77687870226E+02 0.  0.
         24    2    4    4    0    0  0.35259788665E+03 -0.68844676812E+03 -0.96093900474E+03  0.12361797745E+04  0.80327093097E+02 0.  0.
         11    1    3    3    0    0  0.20249818306E+02  0.29314085314E+03 -0.99361784281E+02  0.31018442756E+03  0.00000000000E+00 0. -1.
        -11    1    3    3    0    0 -0.38176585171E+02  0.72950148565E+03 -0.37805937909E+03  0.82253192239E+03  0.00000000000E+00 0.  1.
          4    1    6    6  502    0  0.41392548491E+02 -0.52490862776E+02 -0.56177967443E+02  0.87318942799E+02  0.00000000000E+00 0. -1.
          3    1    5    5  503    0 -0.35151169385E+01 -0.17805215183E+02  0.70451467502E+01  0.19468328832E+02  0.00000000000E+00 0. -1.
         -4    1    5    5    0  503 -0.33115600285E+03 -0.31639035550E+03 -0.98569002460E+02  0.46849013172E+03  0.00000000000E+00 0.  1.
         -3    1    6    6    0  502  0.31120533816E+03 -0.63595590534E+03 -0.90476103729E+03  0.11488608317E+04  0.00000000000E+00 0.  1.
<mgrwt>
<rscale>  0 0.24126900E+04</rscale>
<asrwt>0</asrwt>
<pdfrwt beam="1">  1        1 0.33744143E+00 0.24126900E+04</pdfrwt>
<pdfrwt beam="2">  1       -1 0.10207466E+00 0.24126900E+04</pdfrwt>
<totfact> 0.17909379E+00</totfact>
</mgrwt>
</event>
<event>
12    1  0.1519630E-007  0.3328044E+04  0.7818608E-02  0.8155796E-01
         -1   -1    0    0    0  501 -0.00000000000E+00  0.00000000000E+00  0.12692140519E+04  0.12692140519E+04  0.00000000000E+00 0.  1.
          1   -1    0    0  501    0  0.00000000000E+00 -0.00000000000E+00 -0.21816406399E+04  0.21816406399E+04  0.00000000000E+00 0. -1.
         23    2    1    2    0    0 -0.74488590999E+03  0.78784522560E+03 -0.15488327739E+04  0.18927397117E+04  0.89585358311E+02 0.  0.
        254    2    1    2    0    0  0.74488590999E+03 -0.78784522560E+03  0.63640618595E+03  0.15581149801E+04  0.92040987571E+03 0.  0.
        -24    2    4    4    0    0  0.36395167851E+02  0.15857488958E+03 -0.45902919567E+02  0.19063376828E+03  0.88111019379E+02 0.  0.
         24    2    4    4    0    0  0.70849074214E+03 -0.94642011518E+03  0.68230910552E+03  0.13674812118E+04  0.82395285552E+02 0.  0.
         11    1    3    3    0    0 -0.60384546719E+02  0.10431563161E+03 -0.17726124139E+03  0.21435855985E+03  0.00000000000E+00 0.  1.
        -11    1    3    3    0    0 -0.68450136327E+03  0.68352959399E+03 -0.13715715325E+04  0.16783811519E+04  0.00000000000E+00 0. -1.
          4    1    6    6  502    0  0.67449258425E+03 -0.92478843059E+03  0.65476005390E+03  0.13186677427E+04  0.00000000000E+00 0. -1.
          1    1    5    5  503    0  0.49397622264E+02  0.45916802657E+02  0.21276745193E+01  0.67475957573E+02  0.00000000000E+00 0. -1.
         -2    1    5    5    0  503 -0.13002454413E+02  0.11265808693E+03 -0.48030594086E+02  0.12315781071E+03  0.00000000000E+00 0.  1.
         -3    1    6    6    0  502  0.33998157891E+02 -0.21631684591E+02  0.27549051618E+02  0.48813469077E+02  0.00000000000E+00 0.  1.
<mgrwt>
<rscale>  0 0.33280438E+04</rscale>
<asrwt>0</asrwt>
<pdfrwt beam="1">  1        1 0.33563702E+00 0.33280438E+04</pdfrwt>
<pdfrwt beam="2">  1       -1 0.19526370E+00 0.33280438E+04</pdfrwt>
<totfact> 0.30125940E-01</totfact>
</mgrwt>
</event>
<event>
12    1  0.1519630E-007  0.2876852E+04  0.7818608E-02  0.8279798E-01
         -2   -1    0    0    0  501 -0.00000000000E+00  0.00000000000E+00  0.20774040575E+04  0.20774040575E+04  0.00000000000E+00 0.  1.
          2   -1    0    0  501    0  0.00000000000E+00 -0.00000000000E+00 -0.99598771420E+03  0.99598771420E+03  0.00000000000E+00 0. -1.
         23    2    1    2    0    0 -0.11872171893E+04 -0.50066610556E+03  0.40115041339E+03  0.13525553483E+04  0.91285882943E+02 0.  0.
        254    2    1    2    0    0  0.11872171893E+04  0.50066610556E+03  0.68026592995E+03  0.17208364234E+04  0.91562277000E+03 0.  0.
        -24    2    4    4    0    0  0.12285199043E+04  0.65883699097E+03  0.62295771682E+03  0.15289708938E+04  0.79676478914E+02 0.  0.
         24    2    4    4    0    0 -0.41302715008E+02 -0.15817088541E+03  0.57308213121E+02  0.19186552960E+03  0.82487616640E+02 0.  0.
         11    1    3    3    0    0 -0.59988896804E+03 -0.25199447194E+03  0.25034937401E+03  0.69716769642E+03  0.00000000000E+00 0.  1.
        -11    1    3    3    0    0 -0.58732822121E+03 -0.24867163361E+03  0.15080103938E+03  0.65538765191E+03  0.00000000000E+00 0. -1.
          4    1    6    6  502    0 -0.25629492520E+02 -0.70339259041E+02  0.69089829049E+02  0.10187191334E+03  0.00000000000E+00 0. -1.
          1    1    5    5  503    0  0.41441085839E+02  0.88736486870E+01  0.26588236753E+02  0.50030386468E+02  0.00000000000E+00 0. -1.
         -2    1    5    5    0  503  0.11870788184E+04  0.64996334228E+03  0.59636948007E+03  0.14789405073E+04  0.00000000000E+00 0.  1.
         -3    1    6    6    0  502 -0.15673222488E+02 -0.87831626371E+02 -0.11781615928E+02  0.89993616263E+02  0.00000000000E+00 0.  1.
<mgrwt>
<rscale>  0 0.28768517E+04</rscale>
<asrwt>0</asrwt>
<pdfrwt beam="1">  1        2 0.15322888E+00 0.28768517E+04</pdfrwt>
<pdfrwt beam="2">  1       -2 0.31960062E+00 0.28768517E+04</pdfrwt>
<totfact> 0.52758836E-01</totfact>
</mgrwt>
</event>
<event>
12    1  0.1519630E-007  0.1329504E+04  0.7818608E-02  0.9006490E-01
         -2   -1    0    0    0  501 -0.00000000000E+00  0.00000000000E+00  0.19535113283E+03  0.19535113283E+03  0.00000000000E+00 0.  1.
          2   -1    0    0  501    0  0.00000000000E+00 -0.00000000000E+00 -0.22620570001E+04  0.22620570001E+04  0.00000000000E+00 0. -1.
         23    2    1    2    0    0  0.28975700419E+03 -0.16335224515E+03 -0.33017824808E+03  0.47691724087E+03  0.88257020490E+02 0.  0.
        254    2    1    2    0    0 -0.28975700419E+03  0.16335224515E+03 -0.17365276192E+04  0.19804908921E+04  0.89228522559E+03 0.  0.
        -24    2    4    4    0    0 -0.22767281957E+03  0.29802951825E+03 -0.17683137609E+04  0.18094765277E+04  0.81334129802E+02 0.  0.
         24    2    4    4    0    0 -0.62084184620E+02 -0.13467727310E+03  0.31786141695E+02  0.17101436440E+03  0.79013544134E+02 0.  0.
         13    1    3    3    0    0  0.47581529669E+02 -0.65105689517E+02 -0.10162101367E+03  0.12972888342E+03  0.00000000000E+00 0. -1.
        -13    1    3    3    0    0  0.24217547452E+03 -0.98246555633E+02 -0.22855723441E+03  0.34718835746E+03  0.00000000000E+00 0.  1.
          4    1    6    6  502    0 -0.47600888809E+02 -0.37426636841E+02 -0.14616420119E+02  0.62291552378E+02  0.00000000000E+00 0. -1.
          3    1    5    5  503    0 -0.90747904919E+02  0.11973048803E+03 -0.52817067876E+03  0.54912187892E+03  0.00000000000E+00 0. -1.
         -4    1    5    5    0  503 -0.13692491465E+03  0.17829903022E+03 -0.12401430821E+04  0.12603546487E+04  0.00000000000E+00 0.  1.
         -3    1    6    6    0  502 -0.14483295811E+02 -0.97250636258E+02  0.46402561814E+02  0.10872281202E+03  0.00000000000E+00 0.  1.
<mgrwt>
<rscale>  0 0.13295043E+04</rscale>
<asrwt>0</asrwt>
<pdfrwt beam="1">  1        2 0.34800878E+00 0.13295043E+04</pdfrwt>
<pdfrwt beam="2">  1       -2 0.30054019E-01 0.13295043E+04</pdfrwt>
<totfact> 0.47736176E+01</totfact>
</mgrwt>
</event>
<event>
12    1  0.1519630E-007  0.1679132E+04  0.7818608E-02  0.8773357E-01
          3   -1    0    0  501    0  0.00000000000E+00  0.00000000000E+00  0.13798241500E+04  0.13798241500E+04  0.00000000000E+00 0. -1.
         -3   -1    0    0    0  501 -0.00000000000E+00 -0.00000000000E+00 -0.51084109271E+03  0.51084109271E+03  0.00000000000E+00 0.  1.
         23    2    1    2    0    0 -0.14107392294E+03  0.15111918935E+03 -0.31678446430E+03  0.38969282903E+03  0.93644236631E+02 0.  0.
        254    2    1    2    0    0  0.14107392294E+03 -0.15111918935E+03  0.11857675215E+04  0.15009724136E+04  0.89673558545E+03 0.  0.
        -24    2    4    4    0    0 -0.23726489138E+03  0.11981629831E+03  0.91596439379E+03  0.95728826185E+03  0.82216005484E+02 0.  0.
         24    2    4    4    0    0  0.37833881433E+03 -0.27093548766E+03  0.26980312776E+03  0.54368415179E+03  0.79072322962E+02 0.  0.
         11    1    3    3    0    0 -0.63464097648E+02  0.12876486344E+03 -0.17326265498E+03  0.22500673181E+03  0.00000000000E+00 0. -1.
        -11    1    3    3    0    0 -0.77609825297E+02  0.22354325904E+02 -0.14352180932E+03  0.16468609722E+03  0.00000000000E+00 0.  1.
          2    1    6    6  502    0  0.33106106427E+03 -0.25608222857E+03  0.26127225609E+03  0.49339915674E+03  0.00000000000E+00 0. -1.
          1    1    5    5  503    0 -0.21503517960E+03  0.12427207274E+03  0.88311680479E+03  0.91737613192E+03  0.00000000000E+00 0. -1.
         -2    1    5    5    0  503 -0.22229711786E+02 -0.44557744231E+01  0.32847589000E+02  0.39912129922E+02  0.00000000000E+00 0.  1.
         -1    1    6    6    0  502  0.47277750060E+02 -0.14853259086E+02  0.85308716705E+01  0.50284995055E+02  0.00000000000E+00 0.  1.
<mgrwt>
<rscale>  0 0.16791318E+04</rscale>
<asrwt>0</asrwt>
<pdfrwt beam="1">  1        3 0.21228064E+00 0.16791318E+04</pdfrwt>
<pdfrwt beam="2">  1       -3 0.78590938E-01 0.16791318E+04</pdfrwt>
<totfact> 0.46648349E-01</totfact>
</mgrwt>
</event>
<event>
12    1  0.1519630E-007  0.2483704E+04  0.7818608E-02  0.8408814E-01
         -2   -1    0    0    0  501 -0.00000000000E+00  0.00000000000E+00  0.90795262391E+03  0.90795262391E+03  0.00000000000E+00 0.  1.
          2   -1    0    0  501    0  0.00000000000E+00 -0.00000000000E+00 -0.16985432333E+04  0.16985432333E+04  0.00000000000E+00 0. -1.
         23    2    1    2    0    0 -0.10408187985E+04  0.45277608597E+02 -0.61943017172E+03  0.12158251066E+04  0.95828592328E+02 0.  0.
        254    2    1    2    0    0  0.10408187985E+04 -0.45277608597E+02 -0.17116043765E+03  0.13906707505E+04  0.90516043207E+03 0.  0.
        -24    2    4    4    0    0  0.88027181289E+03  0.10902464581E+03  0.23462265738E+03  0.92084432470E+03  0.78368622568E+02 0.  0.
         24    2    4    4    0    0  0.16054698563E+03 -0.15430225441E+03 -0.40578309503E+03  0.46982642585E+03  0.80575616052E+02 0.  0.
         13    1    3    3    0    0 -0.77826625213E+03  0.63791136351E+02 -0.49627267237E+03  0.92523198909E+03  0.00000000000E+00 0.  1.
        -13    1    3    3    0    0 -0.26255254639E+03 -0.18513527754E+02 -0.12315749935E+03  0.29059311756E+03  0.00000000000E+00 0. -1.
          2    1    6    6  502    0  0.11061404492E+03 -0.15025948168E+03 -0.31350911007E+03  0.36483056459E+03  0.00000000000E+00 0. -1.
          1    1    5    5  503    0  0.84226509183E+03  0.87572671235E+02  0.22247804532E+03  0.87554322469E+03  0.00000000000E+00 0. -1.
         -2    1    5    5    0  503  0.38006721063E+02  0.21451974577E+02  0.12144612062E+02  0.45301100001E+02  0.00000000000E+00 0.  1.
         -1    1    6    6    0  502  0.49932940716E+02 -0.40427727339E+01 -0.92273984959E+02  0.10499586125E+03  0.00000000000E+00 0.  1.
<mgrwt>
<rscale>  0 0.24837043E+04</rscale>
<asrwt>0</asrwt>
<pdfrwt beam="1">  1        2 0.26131434E+00 0.24837043E+04</pdfrwt>
<pdfrwt beam="2">  1       -2 0.13968502E+00 0.24837043E+04</pdfrwt>
<totfact> 0.31705091E+00</totfact>
</mgrwt>
</event>
<event>
12    1  0.1519630E-007  0.1241689E+04  0.7818608E-02  0.9077129E-01
          1   -1    0    0  501    0  0.00000000000E+00  0.00000000000E+00  0.13364808836E+04  0.13364808836E+04  0.00000000000E+00 0. -1.
         -1   -1    0    0    0  501 -0.00000000000E+00 -0.00000000000E+00 -0.28840528179E+03  0.28840528179E+03  0.00000000000E+00 0.  1.
         23    2    1    2    0    0 -0.20196591057E+03  0.14720065825E+03  0.15426896974E+03  0.30764099531E+03  0.91574036432E+02 0.  0.
        254    2    1    2    0    0  0.20196591057E+03 -0.14720065825E+03  0.89380663210E+03  0.13172451701E+04  0.93476536082E+03 0.  0.
        -24    2    4    4    0    0  0.48251582882E+03 -0.75497640099E+02  0.15424530224E+03  0.51842465970E+03  0.80318713874E+02 0.  0.
         24    2    4    4    0    0 -0.28054991825E+03 -0.71703018151E+02  0.73956132987E+03  0.79882051042E+03  0.85519984750E+02 0.  0.
         11    1    3    3    0    0 -0.13270419294E+02 -0.22721025465E+01 -0.95115481572E+01  0.16484417690E+02  0.00000000000E+00 0. -1.
        -11    1    3    3    0    0 -0.18869549128E+03  0.14947276080E+03  0.16378051790E+03  0.29115657762E+03  0.00000000000E+00 0.  1.
          2    1    6    6  502    0 -0.13983348323E+03 -0.29777413759E+02  0.25315893334E+03  0.29073964802E+03  0.00000000000E+00 0. -1.
          3    1    5    5  503    0 -0.19626931494E+01 -0.48556242841E+01  0.27796185997E+01  0.59292099935E+01  0.00000000000E+00 0. -1.
         -4    1    5    5    0  503  0.48447852197E+03 -0.70642015815E+02  0.15146568364E+03  0.51249544970E+03  0.00000000000E+00 0.  1.
         -1    1    6    6    0  502 -0.14071643502E+03 -0.41925604392E+02  0.48640239652E+03  0.50808086240E+03  0.00000000000E+00 0.  1.
<mgrwt>
<rscale>  0 0.12416894E+04</rscale>
<asrwt>0</asrwt>
<pdfrwt beam="1">  1        1 0.20561244E+00 0.12416894E+04</pdfrwt>
<pdfrwt beam="2">  1       -1 0.44370044E-01 0.12416894E+04</pdfrwt>
<totfact> 0.42256807E+01</totfact>
</mgrwt>
</event>
<event>
12    1  0.1519630E-007  0.1474330E+04  0.7818608E-02  0.8901705E-01
          2   -1    0    0  501    0  0.00000000000E+00  0.00000000000E+00  0.48373757375E+04  0.48373757375E+04  0.00000000000E+00 0.  1.
         -2   -1    0    0    0  501 -0.00000000000E+00 -0.00000000000E+00 -0.11233620245E+03  0.11233620245E+03  0.00000000000E+00 0. -1.
         23    2    1    2    0    0  0.69370169738E+01  0.16076275047E+03  0.29183656776E+04  0.29242724051E+04  0.92833650706E+02 0.  0.
        254    2    1    2    0    0 -0.69370169738E+01 -0.16076275047E+03  0.18066738575E+04  0.20254395349E+04  0.90135570013E+03 0.  0.
        -24    2    4    4    0    0 -0.10928036790E+03 -0.48404369258E+03  0.67894897405E+03  0.84506947985E+03  0.83247950551E+02 0.  0.
         24    2    4    4    0    0  0.10234335092E+03  0.32328094212E+03  0.11277248834E+04  0.11803700551E+04  0.80779484880E+02 0.  0.
         13    1    3    3    0    0  0.28417475284E+02  0.14893019514E+02  0.28887352847E+03  0.29064973832E+03  0.00000000000E+00 0. -1.
        -13    1    3    3    0    0 -0.21480458310E+02  0.14586973095E+03  0.26294921491E+04  0.26336226667E+04  0.00000000000E+00 0.  1.
          4    1    6    6  502    0  0.90578468033E+02  0.30693791856E+03  0.97149970244E+03  0.10228523924E+04  0.00000000000E+00 0. -1.
          3    1    5    5  503    0 -0.12710906601E+02 -0.23578275917E+03  0.34058493202E+03  0.41443114336E+03  0.00000000000E+00 0. -1.
         -4    1    5    5    0  503 -0.96569461295E+02 -0.24826093341E+03  0.33836404203E+03  0.43063833649E+03  0.00000000000E+00 0.  1.
         -3    1    6    6    0  502  0.11764882889E+02  0.16343023555E+02  0.15622518098E+03  0.15751766270E+03  0.00000000000E+00 0.  1.
<mgrwt>
<rscale>  0 0.14743302E+04</rscale>
<asrwt>0</asrwt>
<pdfrwt beam="1">  1        2 0.74421149E+00 0.14743302E+04</pdfrwt>
<pdfrwt beam="2">  1       -2 0.17282496E-01 0.14743302E+04</pdfrwt>
<totfact> 0.15101140E+00</totfact>
</mgrwt>
</event>
<event>
12    1  0.1519630E-007  0.2088571E+04  0.7818608E-02  0.8566295E-01
         -1   -1    0    0    0  501 -0.00000000000E+00  0.00000000000E+00  0.13335940748E+04  0.13335940748E+04  0.00000000000E+00 0.  1.
          1   -1    0    0  501    0  0.00000000000E+00 -0.00000000000E+00 -0.81773892890E+03  0.81773892890E+03  0.00000000000E+00 0. -1.
         23    2    1    2    0    0  0.53155463027E+03 -0.34970622758E+03  0.82001557972E+03  0.10419174866E+04  0.91223502490E+02 0.  0.
        254    2    1    2    0    0 -0.53155463027E+03  0.34970622758E+03 -0.30416043384E+03  0.11094155170E+04  0.85641371390E+03 0.  0.
        -24    2    4    4    0    0 -0.63869396274E+03  0.31768886170E+03  0.59828375923E+02  0.72024552577E+03  0.79485797038E+02 0.  0.
         24    2    4    4    0    0  0.10713933247E+03  0.32017365875E+02 -0.36398880977E+03  0.38916999126E+03  0.80383332756E+02 0.  0.
         13    1    3    3    0    0  0.51569543957E+03 -0.31784290728E+03  0.75698287385E+03  0.96953028390E+03  0.00000000000E+00 0.  1.
        -13    1    3    3    0    0  0.15859190694E+02 -0.31863320302E+02  0.63032705867E+02  0.72387202730E+02  0.00000000000E+00 0. -1.
          4    1    6    6  502    0  0.11237741337E+03  0.74814112900E+01 -0.29769829155E+03  0.31829063345E+03  0.00000000000E+00 0. -1.
          3    1    5    5  503    0 -0.38349173414E+03  0.23360882004E+03  0.39890759008E+02  0.45081067380E+03  0.00000000000E+00 0. -1.
         -4    1    5    5    0  503 -0.25520222860E+03  0.84080041664E+02  0.19937616914E+02  0.26943485197E+03  0.00000000000E+00 0.  1.
         -3    1    6    6    0  502 -0.52380808932E+01  0.24535954585E+02 -0.66290518216E+02  0.70879357815E+02  0.00000000000E+00 0.  1.
<mgrwt>
<rscale>  0 0.20885706E+04</rscale>
<asrwt>0</asrwt>
<pdfrwt beam="1">  1        1 0.12580599E+00 0.20885706E+04</pdfrwt>
<pdfrwt beam="2">  1       -1 0.20516832E+00 0.20885706E+04</pdfrwt>
<totfact> 0.27241434E+00</totfact>
</mgrwt>
</event>
<event>
12    1  0.1519630E-007  0.1865401E+04  0.7818608E-02  0.8672273E-01
         -2   -1    0    0    0  501 -0.00000000000E+00  0.00000000000E+00  0.20083764988E+03  0.20083764988E+03  0.00000000000E+00 0.  1.
          2   -1    0    0  501    0  0.00000000000E+00 -0.00000000000E+00 -0.43315078745E+04  0.43315078745E+04  0.00000000000E+00 0. -1.
         23    2    1    2    0    0 -0.69257894349E+03 -0.88265510539E+02 -0.19282977257E+04  0.20528092317E+04  0.90759182085E+02 0.  0.
        254    2    1    2    0    0  0.69257894349E+03  0.88265510539E+02 -0.22023724989E+04  0.24795362928E+04  0.90011066535E+03 0.  0.
        -24    2    4    4    0    0  0.34663387013E+03 -0.30862947826E+03 -0.16337418452E+04  0.17006414744E+04  0.87531782870E+02 0.  0.
         24    2    4    4    0    0  0.34594507336E+03  0.39689498880E+03 -0.56863065374E+03  0.77889481837E+03  0.78311504815E+02 0.  0.
         13    1    3    3    0    0 -0.97433517623E+02 -0.37827803697E+02 -0.35017290073E+03  0.36543849482E+03  0.00000000000E+00 0. -1.
        -13    1    3    3    0    0 -0.59514542587E+03 -0.50437706842E+02 -0.15781248250E+04  0.16873707368E+04  0.00000000000E+00 0.  1.
          4    1    6    6  502    0  0.12351154185E+03  0.12538303125E+03 -0.13999721227E+03  0.22488936155E+03  0.00000000000E+00 0. -1.
          3    1    5    5  503    0  0.59247126673E+02 -0.16833607166E+02 -0.25668554545E+03  0.26397170605E+03  0.00000000000E+00 0. -1.
         -4    1    5    5    0  503  0.28738674346E+03 -0.29179587110E+03 -0.13770562997E+04  0.14366697683E+04  0.00000000000E+00 0.  1.
         -3    1    6    6    0  502  0.22243353151E+03  0.27151195756E+03 -0.42863344147E+03  0.55400545682E+03  0.00000000000E+00 0.  1.
<mgrwt>
<rscale>  0 0.18654006E+04</rscale>
<asrwt>0</asrwt>
<pdfrwt beam="1">  1        2 0.66638580E+00 0.18654006E+04</pdfrwt>
<pdfrwt beam="2">  1       -2 0.30898101E-01 0.18654006E+04</pdfrwt>
<totfact> 0.16475027E+00</totfact>
</mgrwt>
</event>
<event>
12    1  0.1519630E-007  0.1633237E+04  0.7818608E-02  0.8800385E-01
         -2   -1    0    0    0  501 -0.00000000000E+00  0.00000000000E+00  0.30066895376E+03  0.30066895376E+03  0.00000000000E+00 0.  1.
          2   -1    0    0  501    0  0.00000000000E+00 -0.00000000000E+00 -0.22179413643E+04  0.22179413643E+04  0.00000000000E+00 0. -1.
         23    2    1    2    0    0  0.28762889408E+03  0.47675800369E+03 -0.82500084325E+03  0.99932245385E+03  0.89389040799E+02 0.  0.
        254    2    1    2    0    0 -0.28762889408E+03 -0.47675800369E+03 -0.10922715673E+04  0.15192878643E+04  0.89730143366E+03 0.  0.
        -24    2    4    4    0    0  0.26710840946E+03 -0.10173542145E+02 -0.11993247676E+03  0.30381591894E+03  0.80435752348E+02 0.  0.
         24    2    4    4    0    0 -0.55473730354E+03 -0.46658446154E+03 -0.97233909058E+03  0.12154719453E+04  0.80586643268E+02 0.  0.
         13    1    3    3    0    0  0.28820311298E+03  0.44665892328E+03 -0.75740184812E+03  0.92532307202E+03  0.00000000000E+00 0. -1.
        -13    1    3    3    0    0 -0.57421889663E+00  0.30099080409E+02 -0.67598995132E+02  0.73999381833E+02  0.00000000000E+00 0.  1.
          2    1    6    6  502    0 -0.50113833602E+03 -0.44860454558E+03 -0.90440967316E+03  0.11270947285E+04  0.00000000000E+00 0. -1.
          3    1    5    5  503    0  0.19649755846E+03 -0.49219883280E+01 -0.46863722196E+02  0.20206861436E+03  0.00000000000E+00 0. -1.
         -4    1    5    5    0  503  0.70610851002E+02 -0.52515538167E+01 -0.73068754568E+02  0.10174730459E+03  0.00000000000E+00 0.  1.
         -1    1    6    6    0  502 -0.53598967518E+02 -0.17979915963E+02 -0.67929417422E+02  0.88377216794E+02  0.00000000000E+00 0.  1.
<mgrwt>
<rscale>  0 0.16332374E+04</rscale>
<asrwt>0</asrwt>
<pdfrwt beam="1">  1        2 0.34122174E+00 0.16332374E+04</pdfrwt>
<pdfrwt beam="2">  1       -2 0.46256763E-01 0.16332374E+04</pdfrwt>
<totfact> 0.21398607E+01</totfact>
</mgrwt>
</event>
<event>
12    1  0.1519630E-007  0.1147251E+04  0.7818608E-02  0.9160323E-01
         -2   -1    0    0    0  501 -0.00000000000E+00  0.00000000000E+00  0.45318707146E+03  0.45318707146E+03  0.00000000000E+00 0.  1.
          2   -1    0    0  501    0  0.00000000000E+00 -0.00000000000E+00 -0.72607182899E+03  0.72607182899E+03  0.00000000000E+00 0. -1.
         23    2    1    2    0    0  0.12492932300E+02 -0.15977246239E+03 -0.18769674699E+03  0.26391620248E+03  0.93479302552E+02 0.  0.
        254    2    1    2    0    0 -0.12492932300E+02  0.15977246239E+03 -0.85188010535E+02  0.91534269797E+03  0.89716884949E+03 0.  0.
        -24    2    4    4    0    0 -0.34588067078E+03 -0.17383099511E+03 -0.16839909999E+03  0.42998788668E+03  0.81735381165E+02 0.  0.
         24    2    4    4    0    0  0.33338773848E+03  0.33360345750E+03  0.83211089455E+02  0.48535481129E+03  0.78781700991E+02 0.  0.
         11    1    3    3    0    0 -0.22737148383E+02 -0.12563433552E+03 -0.16810241343E+03  0.21109094149E+03  0.00000000000E+00 0. -1.
        -11    1    3    3    0    0  0.35230080683E+02 -0.34138126873E+02 -0.19594333562E+02  0.52825260994E+02  0.00000000000E+00 0.  1.
          4    1    6    6  502    0  0.33607808697E+03  0.32620316322E+03  0.75626900243E+02  0.47442218780E+03  0.00000000000E+00 0. -1.
          1    1    5    5  503    0 -0.26944454097E+03 -0.12522441526E+03 -0.90728719458E+02  0.31066576150E+03  0.00000000000E+00 0. -1.
         -2    1    5    5    0  503 -0.76436129814E+02 -0.48606579851E+02 -0.77670380533E+02  0.11932212518E+03  0.00000000000E+00 0.  1.
         -3    1    6    6    0  502 -0.26903484894E+01  0.74002942824E+01  0.75841892122E+01  0.10932623494E+02  0.00000000000E+00 0.  1.
<mgrwt>
<rscale>  0 0.11472513E+04</rscale>
<asrwt>0</asrwt>
<pdfrwt beam="1">  1        2 0.11170336E+00 0.11472513E+04</pdfrwt>
<pdfrwt beam="2">  1       -2 0.69721089E-01 0.11472513E+04</pdfrwt>
<totfact> 0.72637004E+01</totfact>
</mgrwt>
</event>
<event>
12    1  0.1519630E-007  0.1837337E+04  0.7818608E-02  0.8686692E-01
         -1   -1    0    0    0  501 -0.00000000000E+00  0.00000000000E+00  0.95769703338E+03  0.95769703338E+03  0.00000000000E+00 0.  1.
          1   -1    0    0  501    0  0.00000000000E+00 -0.00000000000E+00 -0.88123006286E+03  0.88123006286E+03  0.00000000000E+00 0. -1.
         23    2    1    2    0    0  0.59924216812E+03 -0.21055961169E+03 -0.25682068005E+03  0.69153213409E+03  0.93985661928E+02 0.  0.
        254    2    1    2    0    0 -0.59924216812E+03  0.21055961169E+03  0.33328765057E+03  0.11473949621E+04  0.89554900201E+03 0.  0.
        -24    2    4    4    0    0  0.75161361382E+02  0.12601009593E+03 -0.21403632730E+03  0.27139027292E+03  0.79456631644E+02 0.  0.
         24    2    4    4    0    0 -0.67440352950E+03  0.84549515765E+02  0.54732397787E+03  0.87600468922E+03  0.76497957937E+02 0.  0.
         13    1    3    3    0    0  0.56062405527E+03 -0.21031006307E+03 -0.25999270342E+03  0.65278316446E+03  0.00000000000E+00 0. -1.
        -13    1    3    3    0    0  0.38618112854E+02 -0.24954862026E+00  0.31720233726E+01  0.38748969627E+02  0.00000000000E+00 0.  1.
          4    1    6    6  502    0 -0.62184991458E+03  0.97632639374E+02  0.49616349032E+03  0.80150337345E+03  0.00000000000E+00 0. -1.
          3    1    5    5  503    0  0.70229958297E+02  0.13746033087E+03 -0.19931255361E+03  0.25209736935E+03  0.00000000000E+00 0. -1.
         -4    1    5    5    0  503  0.49314030844E+01 -0.11450234943E+02 -0.14723773686E+02  0.19292903571E+02  0.00000000000E+00 0.  1.
         -3    1    6    6    0  502 -0.52553614925E+02 -0.13083123609E+02  0.51160487550E+02  0.74501315770E+02  0.00000000000E+00 0.  1.
<mgrwt>
<rscale>  0 0.18373366E+04</rscale>
<asrwt>0</asrwt>
<pdfrwt beam="1">  1        1 0.13557385E+00 0.18373366E+04</pdfrwt>
<pdfrwt beam="2">  1       -1 0.14733801E+00 0.18373366E+04</pdfrwt>
<totfact> 0.64945521E+00</totfact>
</mgrwt>
</event>
<event>
12    1  0.1519630E-007  0.1563565E+04  0.7818608E-02  0.8843250E-01
          1   -1    0    0  501    0  0.00000000000E+00  0.00000000000E+00  0.10494625164E+04  0.10494625164E+04  0.00000000000E+00 0. -1.
         -1   -1    0    0    0  501 -0.00000000000E+00 -0.00000000000E+00 -0.58237775642E+03  0.58237775642E+03  0.00000000000E+00 0.  1.
         23    2    1    2    0    0 -0.10729525096E+03 -0.18119216393E+03  0.65046205748E+03  0.68952390168E+03  0.89439653440E+02 0.  0.
        254    2    1    2    0    0  0.10729525096E+03  0.18119216393E+03 -0.18337729751E+03  0.94231637113E+03  0.89999446605E+03 0.  0.
        -24    2    4    4    0    0  0.42232722458E+03  0.35376667163E+03 -0.10333582284E+03  0.56611344630E+03  0.79341031129E+02 0.  0.
         24    2    4    4    0    0 -0.31503197362E+03 -0.17257450770E+03 -0.80041474672E+02  0.37620292483E+03  0.78069826917E+02 0.  0.
         13    1    3    3    0    0 -0.54206116573E+02 -0.38008594337E+02  0.11482219389E+03  0.13254090888E+03  0.00000000000E+00 0.  1.
        -13    1    3    3    0    0 -0.53089134389E+02 -0.14318356959E+03  0.53563986359E+03  0.55698299279E+03  0.00000000000E+00 0. -1.
          4    1    6    6  502    0 -0.11959253452E+03 -0.70521326907E+02  0.73588332936E+01  0.13903159458E+03  0.00000000000E+00 0. -1.
          1    1    5    5  503    0  0.19341165862E+03  0.17324273579E+03 -0.88056731742E+02  0.27418078561E+03  0.00000000000E+00 0. -1.
         -4    1    5    5    0  503  0.22891556597E+03  0.18052393584E+03 -0.15279091096E+02  0.29193266069E+03  0.00000000000E+00 0.  1.
         -3    1    6    6    0  502 -0.19543943910E+03 -0.10205318079E+03 -0.87400307966E+02  0.23717133026E+03  0.00000000000E+00 0.  1.
<mgrwt>
<rscale>  0 0.15635647E+04</rscale>
<asrwt>0</asrwt>
<pdfrwt beam="1">  1        1 0.16145577E+00 0.15635647E+04</pdfrwt>
<pdfrwt beam="2">  1       -1 0.89596578E-01 0.15635647E+04</pdfrwt>
<totfact> 0.16267487E+01</totfact>
</mgrwt>
</event>
<event>
12    1  0.1519630E-007  0.1578898E+04  0.7818608E-02  0.8833617E-01
         -1   -1    0    0    0  501 -0.00000000000E+00  0.00000000000E+00  0.98601299620E+03  0.98601299620E+03  0.00000000000E+00 0.  1.
          1   -1    0    0  501    0  0.00000000000E+00 -0.00000000000E+00 -0.63207078737E+03  0.63207078737E+03  0.00000000000E+00 0. -1.
         23    2    1    2    0    0 -0.25566714170E+03 -0.20185557315E+03 -0.29679208788E+03  0.45015256741E+03  0.91871816996E+02 0.  0.
        254    2    1    2    0    0  0.25566714170E+03  0.20185557315E+03  0.65073429671E+03  0.11679312162E+04  0.91350798628E+03 0.  0.
        -24    2    4    4    0    0  0.81366860177E+02 -0.28872167724E+03  0.54949183806E+03  0.63109230787E+03  0.79721064510E+02 0.  0.
         24    2    4    4    0    0  0.17430028152E+03  0.49057725039E+03  0.10124245866E+03  0.53683890828E+03  0.83062333639E+02 0.  0.
         13    1    3    3    0    0 -0.75585397545E+02 -0.11576507073E+02 -0.66103399385E+02  0.10107832235E+03  0.00000000000E+00 0.  1.
        -13    1    3    3    0    0 -0.18008174415E+03 -0.19027906608E+03 -0.23068868850E+03  0.34907424506E+03  0.00000000000E+00 0. -1.
          2    1    6    6  502    0  0.35329430094E+02  0.17277175601E+03  0.31565075084E+01  0.17637520190E+03  0.00000000000E+00 0. -1.
          1    1    5    5  503    0  0.45550017285E+02 -0.45108955174E+02  0.10930823020E+03  0.12671981337E+03  0.00000000000E+00 0. -1.
         -2    1    5    5    0  503  0.35816842893E+02 -0.24361272206E+03  0.44018360786E+03  0.50437249450E+03  0.00000000000E+00 0.  1.
         -1    1    6    6    0  502  0.13897085143E+03  0.31780549438E+03  0.98085951148E+02  0.36046370638E+03  0.00000000000E+00 0.  1.
<mgrwt>
<rscale>  0 0.15788984E+04</rscale>
<asrwt>0</asrwt>
<pdfrwt beam="1">  1        1 0.97241659E-01 0.15788984E+04</pdfrwt>
<pdfrwt beam="2">  1       -1 0.15169431E+00 0.15788984E+04</pdfrwt>
<totfact> 0.10326754E+01</totfact>
</mgrwt>
</event>
<event>
12    1  0.1519630E-007  0.1866266E+04  0.7818608E-02  0.8671832E-01
          2   -1    0    0  501    0  0.00000000000E+00  0.00000000000E+00  0.39892104623E+03  0.39892104623E+03  0.00000000000E+00 0. -1.
         -2   -1    0    0    0  501 -0.00000000000E+00 -0.00000000000E+00 -0.21827310051E+04  0.21827310051E+04  0.00000000000E+00 0.  1.
         23    2    1    2    0    0 -0.34132030120E+02  0.53232345295E+03 -0.13436519828E+04  0.14484404582E+04  0.89698694873E+02 0.  0.
        254    2    1    2    0    0  0.34132030120E+02 -0.53232345295E+03 -0.44015797602E+03  0.11332115931E+04  0.89771722548E+03 0.  0.
        -24    2    4    4    0    0  0.99850398483E+02 -0.75373780428E+03 -0.20029530271E+03  0.79013675425E+03  0.78147952364E+02 0.  0.
         24    2    4    4    0    0 -0.65718368363E+02  0.22141435133E+03 -0.23986267331E+03  0.34307483888E+03  0.82601598742E+02 0.  0.
         13    1    3    3    0    0  0.19276435076E+02  0.87507501612E+02 -0.16964957345E+03  0.19185964025E+03  0.00000000000E+00 0. -1.
        -13    1    3    3    0    0 -0.53408465196E+02  0.44481595134E+03 -0.11740024094E+04  0.12565808179E+04  0.00000000000E+00 0.  1.
          2    1    6    6  502    0 -0.80144166389E+02  0.14078991245E+03 -0.14169667114E+03  0.21522739943E+03  0.00000000000E+00 0. -1.
          1    1    5    5  503    0  0.10321638430E+02 -0.24618731958E+03 -0.34906220857E+02  0.24886377157E+03  0.00000000000E+00 0. -1.
         -2    1    5    5    0  503  0.89528760054E+02 -0.50755048469E+03 -0.16538908186E+03  0.54127298268E+03  0.00000000000E+00 0.  1.
         -1    1    6    6    0  502  0.14425798026E+02  0.80624438876E+02 -0.98166002164E+02  0.12784743945E+03  0.00000000000E+00 0.  1.
<mgrwt>
<rscale>  0 0.18662662E+04</rscale>
<asrwt>0</asrwt>
<pdfrwt beam="1">  1        2 0.61372467E-01 0.18662662E+04</pdfrwt>
<pdfrwt beam="2">  1       -2 0.33580478E+00 0.18662662E+04</pdfrwt>
<totfact> 0.14346016E+00</totfact>
</mgrwt>
</event>
<event>
12    1  0.1519630E-007  0.2221529E+04  0.7818608E-02  0.8509520E-01
         -1   -1    0    0    0  501 -0.00000000000E+00  0.00000000000E+00  0.77873780660E+03  0.77873780660E+03  0.00000000000E+00 0.  1.
          1   -1    0    0  501    0  0.00000000000E+00 -0.00000000000E+00 -0.15843560119E+04  0.15843560119E+04  0.00000000000E+00 0. -1.
         23    2    1    2    0    0  0.15467333713E+03  0.30429559797E+03 -0.11890068475E+04  0.12413192411E+04  0.10303651073E+03 0.  0.
        254    2    1    2    0    0 -0.15467333713E+03 -0.30429559797E+03  0.38338864222E+03  0.11217745775E+04  0.99743255386E+03 0.  0.
        -24    2    4    4    0    0  0.37423595135E+03 -0.11845352800E+03  0.38522347585E+03  0.55552874909E+03  0.78302484878E+02 0.  0.
         24    2    4    4    0    0 -0.52890928848E+03 -0.18584206997E+03 -0.18348336308E+01  0.56624582837E+03  0.79678485954E+02 0.  0.
         13    1    3    3    0    0  0.10104422923E+03  0.89288994643E+02 -0.43395912071E+03  0.45442598877E+03  0.00000000000E+00 0.  1.
        -13    1    3    3    0    0  0.53629107896E+02  0.21500660333E+03 -0.75504772683E+03  0.78689325228E+03  0.00000000000E+00 0. -1.
          2    1    6    6  502    0 -0.92214691484E+02 -0.32959493114E+02 -0.30800316192E+02  0.10265737669E+03  0.00000000000E+00 0. -1.
          3    1    5    5  503    0  0.21429058982E+03 -0.65941925614E+02  0.16522681989E+03  0.27851157328E+03  0.00000000000E+00 0. -1.
         -4    1    5    5    0  503  0.15994536154E+03 -0.52511602390E+02  0.21999665596E+03  0.27701717581E+03  0.00000000000E+00 0.  1.
         -1    1    6    6    0  502 -0.43669459699E+03 -0.15288257686E+03  0.28965482561E+02  0.46358845168E+03  0.00000000000E+00 0.  1.
<mgrwt>
<rscale>  0 0.22215291E+04</rscale>
<asrwt>0</asrwt>
<pdfrwt beam="1">  1        1 0.24374708E+00 0.22215291E+04</pdfrwt>
<pdfrwt beam="2">  1       -1 0.11980582E+00 0.22215291E+04</pdfrwt>
<totfact> 0.32352698E+00</totfact>
</mgrwt>
</event>
<event>
12    1  0.1519630E-007  0.1424362E+04  0.7818608E-02  0.8936371E-01
         -2   -1    0    0    0  501 -0.00000000000E+00  0.00000000000E+00  0.42637497943E+03  0.42637497943E+03  0.00000000000E+00 0.  1.
          2   -1    0    0  501    0  0.00000000000E+00 -0.00000000000E+00 -0.11895667594E+04  0.11895667594E+04  0.00000000000E+00 0. -1.
         23    2    1    2    0    0 -0.26663074270E+03  0.27074004838E+03 -0.46165292589E+03  0.60493053635E+03  0.91789994394E+02 0.  0.
        254    2    1    2    0    0  0.26663074270E+03 -0.27074004838E+03 -0.30153885413E+03  0.10110112025E+04  0.88703204246E+03 0.  0.
        -24    2    4    4    0    0 -0.38401206500E+01  0.23271596035E+03 -0.35559230188E+03  0.43177903288E+03  0.76261283424E+02 0.  0.
         24    2    4    4    0    0  0.27047086335E+03 -0.50345600872E+03  0.54053447756E+02  0.57923216965E+03  0.77237882588E+02 0.  0.
         13    1    3    3    0    0 -0.95306057376E+02  0.85467823716E+02 -0.22559295671E+03  0.25938422384E+03  0.00000000000E+00 0. -1.
        -13    1    3    3    0    0 -0.17132468532E+03  0.18527222466E+03 -0.23605996919E+03  0.34554631250E+03  0.00000000000E+00 0.  1.
          4    1    6    6  502    0  0.27040518236E+03 -0.48460313344E+03  0.41309684774E+02  0.55647609979E+03  0.00000000000E+00 0. -1.
          1    1    5    5  503    0 -0.36343254646E+02  0.13716134158E+03 -0.23507123073E+03  0.27457703710E+03  0.00000000000E+00 0. -1.
         -2    1    5    5    0  503  0.32503133996E+02  0.95554618763E+02 -0.12052107115E+03  0.15720199578E+03  0.00000000000E+00 0.  1.
         -3    1    6    6    0  502  0.65680988980E-01 -0.18852875283E+02  0.12743762982E+02  0.22756069858E+02  0.00000000000E+00 0.  1.
<mgrwt>
<rscale>  0 0.14243616E+04</rscale>
<asrwt>0</asrwt>
<pdfrwt beam="1">  1        2 0.18301027E+00 0.14243616E+04</pdfrwt>
<pdfrwt beam="2">  1       -2 0.65596151E-01 0.14243616E+04</pdfrwt>
<totfact> 0.39967352E+01</totfact>
</mgrwt>
</event>
<event>
12    1  0.1519630E-007  0.4357697E+04  0.7818608E-02  0.7936035E-01
         -2   -1    0    0    0  501 -0.00000000000E+00  0.00000000000E+00  0.12664244332E+04  0.12664244332E+04  0.00000000000E+00 0.  1.
          2   -1    0    0  501    0  0.00000000000E+00 -0.00000000000E+00 -0.37486490935E+04  0.37486490935E+04  0.00000000000E+00 0. -1.
         23    2    1    2    0    0  0.17153065015E+03 -0.44066172474E+03 -0.35246733206E+04  0.35573897007E+04  0.89966360289E+02 0.  0.
        254    2    1    2    0    0 -0.17153065015E+03  0.44066172474E+03  0.10424486603E+04  0.14576838259E+04  0.90251726147E+03 0.  0.
        -24    2    4    4    0    0 -0.30173834596E+03  0.60758551844E+03  0.43434811182E+03  0.80970191745E+03  0.82174942964E+02 0.  0.
         24    2    4    4    0    0  0.13020769580E+03 -0.16692379369E+03  0.60810054853E+03  0.64798190846E+03  0.72640757271E+02 0.  0.
         13    1    3    3    0    0  0.17369149193E+03 -0.44381200834E+03 -0.35107723196E+04  0.35429733436E+04  0.00000000000E+00 0. -1.
        -13    1    3    3    0    0 -0.21608417770E+01  0.31502835947E+01 -0.13901001040E+02  0.14416357162E+02  0.00000000000E+00 0.  1.
          2    1    6    6  502    0 -0.29026827597E+01 -0.37494661723E+02  0.12042185359E+03  0.12615743358E+03  0.00000000000E+00 0. -1.
          1    1    5    5  503    0 -0.27157077627E+02  0.18671767034E+02  0.28657722306E+02  0.43673868585E+02  0.00000000000E+00 0. -1.
         -2    1    5    5    0  503 -0.27458126833E+03  0.58891375140E+03  0.40569038951E+03  0.76602804886E+03  0.00000000000E+00 0.  1.
         -1    1    6    6    0  502  0.13311037856E+03 -0.12942913197E+03  0.48767869494E+03  0.52182447488E+03  0.00000000000E+00 0.  1.
<mgrwt>
<rscale>  0 0.43576970E+04</rscale>
<asrwt>0</asrwt>
<pdfrwt beam="1">  1        2 0.57671524E+00 0.43576970E+04</pdfrwt>
<pdfrwt beam="2">  1       -2 0.19483453E+00 0.43576970E+04</pdfrwt>
<totfact> 0.59052168E-02</totfact>
</mgrwt>
</event>
<event>
12    1  0.1539860E-007  0.2166560E+04  0.7818608E-02  0.8532477E-01
         -2   -1    0    0    0  501 -0.00000000000E+00  0.00000000000E+00  0.10093107026E+04  0.10093107026E+04  0.00000000000E+00 0. -1.
          2   -1    0    0  501    0  0.00000000000E+00 -0.00000000000E+00 -0.11626706260E+04  0.11626706260E+04  0.00000000000E+00 0.  1.
         23    2    1    2    0    0 -0.55616421126E+03  0.68710272769E+03  0.71649145003E+02  0.89121837159E+03  0.87794063531E+02 0.  0.
        254    2    1    2    0    0  0.55616421126E+03 -0.68710272769E+03 -0.22500906837E+03  0.12807629570E+04  0.89905276974E+03 0.  0.
        -24    2    4    4    0    0  0.72894152524E+03 -0.26890536741E+03 -0.25343307953E+03  0.82052097757E+03  0.73215469660E+02 0.  0.
         24    2    4    4    0    0 -0.17277731398E+03 -0.41819736028E+03  0.28424011163E+02  0.46024197938E+03  0.79206835568E+02 0.  0.
         13    1    3    3    0    0 -0.18618211268E+02  0.54672297665E+02  0.12545013203E+02  0.59102244281E+02  0.00000000000E+00 0.  1.
        -13    1    3    3    0    0 -0.53754599999E+03  0.63243043003E+03  0.59104131799E+02  0.83211612731E+03  0.00000000000E+00 0. -1.
          4    1    6    6  502    0  0.29426147003E+01 -0.93297463157E+01  0.11213396701E+02  0.14880974873E+02  0.00000000000E+00 0. -1.
          1    1    5    5  503    0  0.57031475496E+02 -0.20044102937E+02 -0.41477827974E+02  0.73312792016E+02  0.00000000000E+00 0. -1.
         -2    1    5    5    0  503  0.67191004974E+03 -0.24886126447E+03 -0.21195525156E+03  0.74720818555E+03  0.00000000000E+00 0.  1.
         -3    1    6    6    0  502 -0.17571992868E+03 -0.40886761397E+03  0.17210614461E+02  0.44536100451E+03  0.00000000000E+00 0.  1.
<mgrwt>
<rscale>  0 0.21665603E+04</rscale>
<asrwt>0</asrwt>
<pdfrwt beam="1">  1        2 0.17887241E+00 0.21665603E+04</pdfrwt>
<pdfrwt beam="2">  1       -2 0.15527857E+00 0.21665603E+04</pdfrwt>
<totfact> 0.49948213E+00</totfact>
</mgrwt>
</event>
<event>
12    1  0.1519630E-007  0.1596201E+04  0.7818608E-02  0.8822886E-01
         -2   -1    0    0    0  501 -0.00000000000E+00  0.00000000000E+00  0.65247509829E+03  0.65247509829E+03  0.00000000000E+00 0.  1.
          2   -1    0    0  501    0  0.00000000000E+00 -0.00000000000E+00 -0.97622735525E+03  0.97622735525E+03  0.00000000000E+00 0. -1.
         23    2    1    2    0    0 -0.22735381714E+03  0.38274640125E+03  0.19607810557E+03  0.49484591948E+03  0.90781576871E+02 0.  0.
        254    2    1    2    0    0  0.22735381714E+03 -0.38274640125E+03 -0.51983036253E+03  0.11338565341E+04  0.90400357753E+03 0.  0.
        -24    2    4    4    0    0 -0.32251744870E+03 -0.74698241501E+02 -0.32119706879E+03  0.46824880553E+03  0.80573288909E+02 0.  0.
         24    2    4    4    0    0  0.54987126584E+03 -0.30804815975E+03 -0.19863329374E+03  0.66560772853E+03  0.79538576642E+02 0.  0.
         13    1    3    3    0    0 -0.14731296362E+03  0.31136690020E+03  0.17163919525E+03  0.38485122987E+03  0.00000000000E+00 0.  1.
        -13    1    3    3    0    0 -0.80040853520E+02  0.71379501056E+02  0.24438910313E+02  0.10999468960E+03  0.00000000000E+00 0. -1.
          4    1    6    6  502    0  0.30611865184E+03 -0.13732699829E+03 -0.77753968038E+02  0.34440239983E+03  0.00000000000E+00 0. -1.
          3    1    5    5  503    0 -0.19673497016E+03 -0.10811752891E+02 -0.15823953311E+03  0.25270791899E+03  0.00000000000E+00 0. -1.
         -4    1    5    5    0  503 -0.12578247854E+03 -0.63886488610E+02 -0.16295753568E+03  0.21554088654E+03  0.00000000000E+00 0.  1.
         -3    1    6    6    0  502  0.24375261400E+03 -0.17072116146E+03 -0.12087932570E+03  0.32120532870E+03  0.00000000000E+00 0.  1.
<mgrwt>
<rscale>  0 0.15962005E+04</rscale>
<asrwt>0</asrwt>
<pdfrwt beam="1">  1        2 0.15018882E+00 0.15962005E+04</pdfrwt>
<pdfrwt beam="2">  1       -2 0.10038078E+00 0.15962005E+04</pdfrwt>
<totfact> 0.20494972E+01</totfact>
</mgrwt>
</event>
<event>
12    1  0.1519630E-007  0.1437968E+04  0.7818608E-02  0.8926785E-01
         -2   -1    0    0    0  501 -0.00000000000E+00  0.00000000000E+00  0.98230965206E+03  0.98230965206E+03  0.00000000000E+00 0.  1.
          2   -1    0    0  501    0  0.00000000000E+00 -0.00000000000E+00 -0.52624732273E+03  0.52624732273E+03  0.00000000000E+00 0. -1.
         23    2    1    2    0    0  0.24868086662E+03  0.34736669773E+03  0.27516384565E+03  0.51783171947E+03  0.99643121299E+02 0.  0.
        254    2    1    2    0    0 -0.24868086662E+03 -0.34736669773E+03  0.18089848369E+03  0.99072525532E+03  0.87538932710E+03 0.  0.
        -24    2    4    4    0    0 -0.54489965427E+03 -0.64339793133E+02  0.82891712799E+02  0.56119298893E+03  0.83733461427E+02 0.  0.
         24    2    4    4    0    0  0.29621878765E+03 -0.28302690459E+03  0.98006770887E+02  0.42953226639E+03  0.83921641134E+02 0.  0.
         11    1    3    3    0    0  0.24028426665E+03  0.33912939137E+03  0.23820862387E+03  0.47904970658E+03  0.00000000000E+00 0. -1.
        -11    1    3    3    0    0  0.83965999793E+01  0.82373063609E+01  0.36955221779E+02  0.38782012893E+02  0.00000000000E+00 0.  1.
          2    1    6    6  502    0  0.25306553258E+03 -0.19478679893E+03  0.64909783718E+02  0.32587933478E+03  0.00000000000E+00 0. -1.
          3    1    5    5  503    0 -0.53219210903E+03 -0.49501675171E+02  0.86148456068E+02  0.54138748900E+03  0.00000000000E+00 0. -1.
         -4    1    5    5    0  503 -0.12707545240E+02 -0.14838117961E+02 -0.32567432689E+01  0.19805499928E+02  0.00000000000E+00 0.  1.
         -1    1    6    6    0  502  0.43153255068E+02 -0.88240105667E+02  0.33096987168E+02  0.10365293161E+03  0.00000000000E+00 0.  1.
<mgrwt>
<rscale>  0 0.14379678E+04</rscale>
<asrwt>0</asrwt>
<pdfrwt beam="1">  1        2 0.80961127E-01 0.14379678E+04</pdfrwt>
<pdfrwt beam="2">  1       -2 0.15112456E+00 0.14379678E+04</pdfrwt>
<totfact> 0.16521746E+01</totfact>
</mgrwt>
</event>
<event>
12    1  0.1519630E-007  0.1973731E+04  0.7818608E-02  0.8619002E-01
         -2   -1    0    0    0  501 -0.00000000000E+00  0.00000000000E+00  0.51054717595E+03  0.51054717595E+03  0.00000000000E+00 0.  1.
          2   -1    0    0  501    0  0.00000000000E+00 -0.00000000000E+00 -0.19075674597E+04  0.19075674597E+04  0.00000000000E+00 0. -1.
         23    2    1    2    0    0 -0.39567539498E+03 -0.61043271294E+03 -0.88896432679E+03  0.11519456683E+04  0.86799385207E+02 0.  0.
        254    2    1    2    0    0  0.39567539498E+03  0.61043271294E+03 -0.50805595699E+03  0.12661689673E+04  0.90325848085E+03 0.  0.
        -24    2    4    4    0    0 -0.93082901536E+02  0.14480877516E+03 -0.55303780156E+03  0.58488197222E+03  0.81253329439E+02 0.  0.
         24    2    4    4    0    0  0.48875829652E+03  0.46562393778E+03  0.44981844576E+02  0.68128699513E+03  0.80238890487E+02 0.  0.
         11    1    3    3    0    0 -0.35924260350E+03 -0.50540505977E+03 -0.72730418091E+03  0.95575148139E+03  0.00000000000E+00 0.  1.
        -11    1    3    3    0    0 -0.36432791484E+02 -0.10502765317E+03 -0.16166014588E+03  0.19619418695E+03  0.00000000000E+00 0. -1.
          2    1    6    6  502    0  0.41515195136E+03  0.35283783744E+03  0.28185033397E+02  0.54556400024E+03  0.00000000000E+00 0. -1.
          3    1    5    5  503    0 -0.68835761829E+02  0.81603544609E+02 -0.21399973199E+03  0.23915138697E+03  0.00000000000E+00 0. -1.
         -4    1    5    5    0  503 -0.24247139707E+02  0.63205230549E+02 -0.33903806958E+03  0.34573058525E+03  0.00000000000E+00 0.  1.
         -1    1    6    6    0  502  0.73606345156E+02  0.11278610034E+03  0.16796811179E+02  0.13572299489E+03  0.00000000000E+00 0.  1.
<mgrwt>
<rscale>  0 0.19737307E+04</rscale>
<asrwt>0</asrwt>
<pdfrwt beam="1">  1        2 0.29347192E+00 0.19737307E+04</pdfrwt>
<pdfrwt beam="2">  1       -2 0.78545718E-01 0.19737307E+04</pdfrwt>
<totfact> 0.10084758E+01</totfact>
</mgrwt>
</event>
<event>
12    1  0.1519630E-007  0.2490880E+04  0.7818608E-02  0.8406242E-01
          2   -1    0    0  501    0  0.00000000000E+00  0.00000000000E+00  0.20969395627E+04  0.20969395627E+04  0.00000000000E+00 0. -1.
         -2   -1    0    0    0  501 -0.00000000000E+00 -0.00000000000E+00 -0.73970682107E+03  0.73970682107E+03  0.00000000000E+00 0.  1.
         23    2    1    2    0    0  0.23979350728E+03 -0.41408324618E+03  0.17546667834E+04  0.18198168486E+04  0.62545828110E+02 0.  0.
        254    2    1    2    0    0 -0.23979350728E+03  0.41408324618E+03 -0.39743404179E+03  0.10168295352E+04  0.80437716599E+03 0.  0.
        -24    2    4    4    0    0  0.21903851418E+03  0.12281147714E+03 -0.38575654005E+03  0.46732807114E+03  0.80789159393E+02 0.  0.
         24    2    4    4    0    0 -0.45883202145E+03  0.29127176904E+03 -0.11677501738E+02  0.54950146405E+03  0.80308328307E+02 0.  0.
         11    1    3    3    0    0  0.13712744682E+03 -0.29499146106E+03  0.11730024802E+04  0.12172751198E+04  0.00000000000E+00 0. -1.
        -11    1    3    3    0    0  0.10266606045E+03 -0.11909178512E+03  0.58166430318E+03  0.60254172872E+03  0.00000000000E+00 0.  1.
          4    1    6    6  502    0 -0.44634718139E+03  0.27121407498E+03 -0.24034994694E+02  0.52283894439E+03  0.00000000000E+00 0. -1.
          3    1    5    5  503    0  0.10148716326E+03  0.10206407834E+03 -0.19658889790E+03  0.24364711197E+03  0.00000000000E+00 0. -1.
         -4    1    5    5    0  503  0.11755135092E+03  0.20747398801E+02 -0.18916764215E+03  0.22368095917E+03  0.00000000000E+00 0.  1.
         -3    1    6    6    0  502 -0.12484840064E+02  0.20057694062E+02  0.12357492956E+02  0.26662519661E+02  0.00000000000E+00 0.  1.
<mgrwt>
<rscale>  0 0.24908798E+04</rscale>
<asrwt>0</asrwt>
<pdfrwt beam="1">  1        2 0.32260608E+00 0.24908798E+04</pdfrwt>
<pdfrwt beam="2">  1       -2 0.11380105E+00 0.24908798E+04</pdfrwt>
<totfact> 0.31848820E+00</totfact>
</mgrwt>
</event>
<event>
12    1  0.1519630E-007  0.1820906E+04  0.7818608E-02  0.8695260E-01
         -1   -1    0    0    0  501 -0.00000000000E+00  0.00000000000E+00  0.95541192033E+03  0.95541192033E+03  0.00000000000E+00 0.  1.
          1   -1    0    0  501    0  0.00000000000E+00 -0.00000000000E+00 -0.86760966696E+03  0.86760966696E+03  0.00000000000E+00 0. -1.
         23    2    1    2    0    0  0.21579844743E+03  0.60226770818E+03  0.26839016659E+03  0.69982660600E+03  0.91807596176E+02 0.  0.
        254    2    1    2    0    0 -0.21579844743E+03 -0.60226770818E+03 -0.18058791322E+03  0.11231949813E+04  0.90535054501E+03 0.  0.
        -24    2    4    4    0    0 -0.44230019918E+03 -0.10900021078E+03  0.14474339654E+03  0.48525023819E+03  0.83705619125E+02 0.  0.
         24    2    4    4    0    0  0.22650175175E+03 -0.49326749740E+03 -0.32533130976E+03  0.63794474310E+03  0.80728970024E+02 0.  0.
         13    1    3    3    0    0  0.34596929925E+02  0.17208826308E+03  0.10879116405E+03  0.20651110195E+03  0.00000000000E+00 0. -1.
        -13    1    3    3    0    0  0.18120151751E+03  0.43017944510E+03  0.15959900254E+03  0.49331550406E+03  0.00000000000E+00 0.  1.
          4    1    6    6  502    0  0.61673619913E+01 -0.61544900250E+02 -0.56035562582E+02  0.83461340599E+02  0.00000000000E+00 0. -1.
          1    1    5    5  503    0 -0.35073328092E+03 -0.65135194679E+02  0.14119526169E+03  0.38365678653E+03  0.00000000000E+00 0. -1.
         -2    1    5    5    0  503 -0.91566918263E+02 -0.43865016104E+02  0.35481348475E+01  0.10159345165E+03  0.00000000000E+00 0.  1.
         -3    1    6    6    0  502  0.22033438976E+03 -0.43172259715E+03 -0.26929574717E+03  0.55448340250E+03  0.00000000000E+00 0.  1.
<mgrwt>
<rscale>  0 0.18209059E+04</rscale>
<asrwt>0</asrwt>
<pdfrwt beam="1">  1        1 0.13347841E+00 0.18209059E+04</pdfrwt>
<pdfrwt beam="2">  1       -1 0.14698645E+00 0.18209059E+04</pdfrwt>
<totfact> 0.67186457E+00</totfact>
</mgrwt>
</event>
<event>
12    1  0.1519630E-007  0.1697233E+04  0.7818608E-02  0.8762944E-01
         -2   -1    0    0    0  501 -0.00000000000E+00  0.00000000000E+00  0.53297512378E+03  0.53297512378E+03  0.00000000000E+00 0.  1.
          2   -1    0    0  501    0  0.00000000000E+00 -0.00000000000E+00 -0.13511879337E+04  0.13511879337E+04  0.00000000000E+00 0. -1.
         23    2    1    2    0    0 -0.73519522641E+02 -0.35624116276E+03 -0.82736613137E+03  0.90835832836E+03  0.90924425226E+02 0.  0.
        254    2    1    2    0    0  0.73519522641E+02  0.35624116276E+03  0.91533214501E+01  0.97580472912E+03  0.90542708145E+03 0.  0.
        -24    2    4    4    0    0 -0.40451398969E+02 -0.29534342403E+03  0.31153484081E+02  0.31012633958E+03  0.79647681268E+02 0.  0.
         24    2    4    4    0    0  0.11397092161E+03  0.65158458680E+03 -0.22000162631E+02  0.66567838954E+03  0.71357315115E+02 0.  0.
         13    1    3    3    0    0 -0.60308797963E+02 -0.25847600508E+03 -0.49511678764E+03  0.56177186626E+03  0.00000000000E+00 0. -1.
        -13    1    3    3    0    0 -0.13210724678E+02 -0.97765157685E+02 -0.33224934373E+03  0.34658646211E+03  0.00000000000E+00 0.  1.
          4    1    6    6  502    0 -0.99927920892E+00  0.61250925466E+02 -0.19367203747E+02  0.64247669299E+02  0.00000000000E+00 0. -1.
          3    1    5    5  503    0 -0.33846462344E+02 -0.87567638310E+02 -0.20126065268E+02  0.96014232256E+02  0.00000000000E+00 0. -1.
         -4    1    5    5    0  503 -0.66049366252E+01 -0.20777578572E+03  0.51279549349E+02  0.21411210732E+03  0.00000000000E+00 0.  1.
         -3    1    6    6    0  502  0.11497020082E+03  0.59033366133E+03 -0.26329588837E+01  0.60143072024E+03  0.00000000000E+00 0.  1.
<mgrwt>
<rscale>  0 0.16972325E+04</rscale>
<asrwt>0</asrwt>
<pdfrwt beam="1">  1        2 0.20787507E+00 0.16972325E+04</pdfrwt>
<pdfrwt beam="2">  1       -2 0.81996172E-01 0.16972325E+04</pdfrwt>
<totfact> 0.19211898E+01</totfact>
</mgrwt>
</event>
<event>
12    1  0.1519630E-007  0.1819148E+04  0.7818608E-02  0.8696182E-01
         -2   -1    0    0    0  501 -0.00000000000E+00  0.00000000000E+00  0.75724599224E+03  0.75724599224E+03  0.00000000000E+00 0.  1.
          2   -1    0    0  501    0  0.00000000000E+00 -0.00000000000E+00 -0.10925449153E+04  0.10925449153E+04  0.00000000000E+00 0. -1.
         23    2    1    2    0    0 -0.36485572408E+02  0.47892594912E+02 -0.82359027355E+03  0.83066696514E+03  0.89898668703E+02 0.  0.
        254    2    1    2    0    0  0.36485572408E+02 -0.47892594912E+02  0.48829135046E+03  0.10191239424E+04  0.89250225181E+03 0.  0.
        -24    2    4    4    0    0 -0.26708009683E+03 -0.28880067608E+03  0.47759137487E+03  0.62361888469E+03  0.77906247269E+02 0.  0.
         24    2    4    4    0    0  0.30356566924E+03  0.24090808117E+03  0.10699975591E+02  0.39550505776E+03  0.78236450065E+02 0.  0.
         13    1    3    3    0    0 -0.49684351461E+02  0.62645922169E+02 -0.75659883729E+03  0.76081196556E+03  0.00000000000E+00 0. -1.
        -13    1    3    3    0    0  0.13198779053E+02 -0.14753327257E+02 -0.66991436264E+02  0.69854999580E+02  0.00000000000E+00 0.  1.
          4    1    6    6  502    0  0.18304927205E+03  0.15542600637E+03  0.43781656901E+02  0.24409242704E+03  0.00000000000E+00 0. -1.
          1    1    5    5  503    0 -0.22300475680E+03 -0.26745595155E+03  0.38678015989E+03  0.52044471335E+03  0.00000000000E+00 0. -1.
         -2    1    5    5    0  503 -0.44075340034E+02 -0.21344724528E+02  0.90811214982E+02  0.10317417134E+03  0.00000000000E+00 0.  1.
         -3    1    6    6    0  502  0.12051639719E+03  0.85482074793E+02 -0.33081681310E+02  0.15141263072E+03  0.00000000000E+00 0.  1.
<mgrwt>
<rscale>  0 0.18191484E+04</rscale>
<asrwt>0</asrwt>
<pdfrwt beam="1">  1        2 0.16808383E+00 0.18191484E+04</pdfrwt>
<pdfrwt beam="2">  1       -2 0.11649938E+00 0.18191484E+04</pdfrwt>
<totfact> 0.11858202E+01</totfact>
</mgrwt>
</event>
<event>
12    1  0.1519630E-007  0.3062000E+04  0.7818608E-02  0.8226245E-01
          1   -1    0    0  501    0  0.00000000000E+00  0.00000000000E+00  0.13129565441E+04  0.13129565441E+04  0.00000000000E+00 0. -1.
         -1   -1    0    0    0  501 -0.00000000000E+00 -0.00000000000E+00 -0.17852542892E+04  0.17852542892E+04  0.00000000000E+00 0.  1.
         23    2    1    2    0    0 -0.48657488391E+03  0.79148153861E+03 -0.12698636922E+04  0.15760553435E+04  0.90545597674E+02 0.  0.
        254    2    1    2    0    0  0.48657488391E+03 -0.79148153861E+03  0.79756594716E+03  0.15221554898E+04  0.90423876911E+03 0.  0.
        -24    2    4    4    0    0  0.49629226034E+03 -0.77998399964E+03  0.96328202995E+03  0.13375859432E+04  0.80887816700E+02 0.  0.
         24    2    4    4    0    0 -0.97173764339E+01 -0.11497538966E+02 -0.16571608279E+03  0.18456954662E+03  0.79859104910E+02 0.  0.
         11    1    3    3    0    0 -0.20360914902E+01  0.69546835625E+01 -0.69181614013E+00  0.72795536665E+01  0.00000000000E+00 0. -1.
        -11    1    3    3    0    0 -0.48453879242E+03  0.78452685505E+03 -0.12691718761E+04  0.15687757898E+04  0.00000000000E+00 0.  1.
          4    1    6    6  502    0 -0.32658896041E+02  0.64860753528E+00 -0.15148339575E+03  0.15496529731E+03  0.00000000000E+00 0. -1.
          3    1    5    5  503    0  0.28327322993E+03 -0.48277939480E+03  0.53306267600E+03  0.77296538305E+03  0.00000000000E+00 0. -1.
         -4    1    5    5    0  503  0.21301903041E+03 -0.29720460484E+03  0.43021935394E+03  0.56462056017E+03  0.00000000000E+00 0.  1.
         -3    1    6    6    0  502  0.22941519607E+02 -0.12146146501E+02 -0.14232687037E+02  0.29604249306E+02  0.00000000000E+00 0.  1.
<mgrwt>
<rscale>  0 0.30620002E+04</rscale>
<asrwt>0</asrwt>
<pdfrwt beam="1">  1        1 0.20199331E+00 0.30620002E+04</pdfrwt>
<pdfrwt beam="2">  1       -1 0.27465451E+00 0.30620002E+04</pdfrwt>
<totfact> 0.36129175E-01</totfact>
</mgrwt>
</event>
<event>
12    1  0.1519630E-007  0.1042666E+04  0.7818608E-02  0.9262949E-01
         -1   -1    0    0    0  501 -0.00000000000E+00  0.00000000000E+00  0.35425734429E+03  0.35425734429E+03  0.00000000000E+00 0.  1.
          1   -1    0    0  501    0  0.00000000000E+00 -0.00000000000E+00 -0.76720469531E+03  0.76720469531E+03  0.00000000000E+00 0. -1.
         23    2    1    2    0    0 -0.28756470383E+02  0.75834075969E+02 -0.15940572877E+03  0.20069208400E+03  0.91046057306E+02 0.  0.
        254    2    1    2    0    0  0.28756470383E+02 -0.75834075969E+02 -0.25354162225E+03  0.92076995560E+03  0.88145119846E+03 0.  0.
        -24    2    4    4    0    0 -0.26308003575E+03  0.17425397415E+03 -0.38731868918E+03  0.50606159217E+03  0.80666073188E+02 0.  0.
         24    2    4    4    0    0  0.29183650613E+03 -0.25008805012E+03  0.13377706693E+03  0.41470836344E+03  0.79838236114E+02 0.  0.
         11    1    3    3    0    0 -0.94556890452E+01  0.94484673412E+02 -0.12808907454E+03  0.15944771739E+03  0.00000000000E+00 0. -1.
        -11    1    3    3    0    0 -0.19300781338E+02 -0.18650597443E+02 -0.31316654231E+02  0.41244366614E+02  0.00000000000E+00 0.  1.
          4    1    6    6  502    0  0.13765336911E+03 -0.10420759258E+03  0.19789332181E+02  0.17377942930E+03  0.00000000000E+00 0. -1.
          3    1    5    5  503    0 -0.98294789440E+02  0.63224249825E+02 -0.85910545824E+02  0.14505100234E+03  0.00000000000E+00 0. -1.
         -4    1    5    5    0  503 -0.16478524631E+03  0.11102972433E+03 -0.30140814336E+03  0.36101058982E+03  0.00000000000E+00 0.  1.
         -3    1    6    6    0  502  0.15418313702E+03 -0.14588045754E+03  0.11398773475E+03  0.24092893414E+03  0.00000000000E+00 0.  1.
<mgrwt>
<rscale>  0 0.10426656E+04</rscale>
<asrwt>0</asrwt>
<pdfrwt beam="1">  1        1 0.11803149E+00 0.10426656E+04</pdfrwt>
<pdfrwt beam="2">  1       -1 0.54501130E-01 0.10426656E+04</pdfrwt>
<totfact> 0.80373939E+01</totfact>
</mgrwt>
</event>
<event>
12    1  0.1519630E-007  0.1618856E+04  0.7818608E-02  0.8809047E-01
         -2   -1    0    0    0  501 -0.00000000000E+00  0.00000000000E+00  0.38429716061E+03  0.38429716061E+03  0.00000000000E+00 0.  1.
          2   -1    0    0  501    0  0.00000000000E+00 -0.00000000000E+00 -0.17048615340E+04  0.17048615340E+04  0.00000000000E+00 0. -1.
         23    2    1    2    0    0 -0.15940134982E+03  0.46803736791E+03 -0.12427961951E+03  0.51941662243E+03  0.99400381035E+02 0.  0.
        254    2    1    2    0    0  0.15940134982E+03 -0.46803736791E+03 -0.11962847539E+04  0.15697420722E+04  0.88798941026E+03 0.  0.
        -24    2    4    4    0    0  0.13089891230E+03 -0.46938996765E+03 -0.14302007865E+03  0.51311329134E+03  0.73273732589E+02 0.  0.
         24    2    4    4    0    0  0.28502437523E+02  0.13525997376E+01 -0.10532646753E+04  0.10566287809E+04  0.79269703707E+02 0.  0.
         11    1    3    3    0    0 -0.14440760345E+03  0.46655435157E+03 -0.11509250272E+03  0.50176967135E+03  0.00000000000E+00 0.  1.
        -11    1    3    3    0    0 -0.14993746367E+02  0.14830163384E+01 -0.91871167911E+01  0.17646951082E+02  0.00000000000E+00 0. -1.
          4    1    6    6  502    0 -0.21718827290E+02  0.20851677226E+01 -0.11694757259E+03  0.11896549969E+03  0.00000000000E+00 0. -1.
          1    1    5    5  503    0  0.38039243946E+02 -0.59710053323E+02 -0.36935339796E+02  0.79852951565E+02  0.00000000000E+00 0. -1.
         -2    1    5    5    0  503  0.92859668352E+02 -0.40967991432E+03 -0.10608473886E+03  0.43326033978E+03  0.00000000000E+00 0.  1.
         -3    1    6    6    0  502  0.50221264813E+02 -0.73256798506E+00 -0.93631710269E+03  0.93766328119E+03  0.00000000000E+00 0.  1.
<mgrwt>
<rscale>  0 0.16188557E+04</rscale>
<asrwt>0</asrwt>
<pdfrwt beam="1">  1        2 0.26228639E+00 0.16188557E+04</pdfrwt>
<pdfrwt beam="2">  1       -2 0.59122641E-01 0.16188557E+04</pdfrwt>
<totfact> 0.24931694E+01</totfact>
</mgrwt>
</event>
<event>
12    1  0.1519630E-007  0.1245346E+04  0.7818608E-02  0.9074065E-01
         -2   -1    0    0    0  501 -0.00000000000E+00  0.00000000000E+00  0.20012830796E+03  0.20012830796E+03  0.00000000000E+00 0.  1.
          2   -1    0    0  501    0  0.00000000000E+00 -0.00000000000E+00 -0.19373661395E+04  0.19373661395E+04  0.00000000000E+00 0. -1.
         23    2    1    2    0    0 -0.61959543617E+02  0.32777296420E+02 -0.84972577924E+03  0.85725180504E+03  0.89069754321E+02 0.  0.
        254    2    1    2    0    0  0.61959543617E+02 -0.32777296420E+02 -0.88751205228E+03  0.12802426424E+04  0.92001643695E+03 0.  0.
        -24    2    4    4    0    0  0.11540101825E+03  0.17509955521E+03  0.11505364751E+03  0.25189317333E+03  0.78965686948E+02 0.  0.
         24    2    4    4    0    0 -0.53441474638E+02 -0.20787685163E+03 -0.10025656998E+04  0.10283494691E+04  0.79346527818E+02 0.  0.
         13    1    3    3    0    0 -0.81133666512E+02  0.25725347967E+02 -0.52233900866E+03  0.52922821668E+03  0.00000000000E+00 0.  1.
        -13    1    3    3    0    0  0.19174122894E+02  0.70519484522E+01 -0.32738677058E+03  0.32802358836E+03  0.00000000000E+00 0. -1.
          2    1    6    6  502    0  0.97454181810E+01 -0.12092805535E+03 -0.52331415379E+03  0.53719295538E+03  0.00000000000E+00 0. -1.
          3    1    5    5  503    0  0.17057517059E+01  0.65320899133E+02  0.42825023299E+02  0.78126257257E+02  0.00000000000E+00 0. -1.
         -4    1    5    5    0  503  0.11369526655E+03  0.10977865608E+03  0.72228624212E+02  0.17376691608E+03  0.00000000000E+00 0.  1.
         -1    1    6    6    0  502 -0.63186892819E+02 -0.86948796287E+02 -0.47925154599E+03  0.49115651369E+03  0.00000000000E+00 0.  1.
<mgrwt>
<rscale>  0 0.12453462E+04</rscale>
<asrwt>0</asrwt>
<pdfrwt beam="1">  1        2 0.29805632E+00 0.12453462E+04</pdfrwt>
<pdfrwt beam="2">  1       -2 0.30788971E-01 0.12453462E+04</pdfrwt>
<totfact> 0.69619693E+01</totfact>
</mgrwt>
</event>
<event>
12    1  0.1519630E-007  0.1096814E+04  0.7818608E-02  0.9208303E-01
         -3   -1    0    0    0  501 -0.00000000000E+00  0.00000000000E+00  0.15084130517E+03  0.15084130517E+03  0.00000000000E+00 0.  1.
          3   -1    0    0  501    0  0.00000000000E+00 -0.00000000000E+00 -0.19938182788E+04  0.19938182788E+04  0.00000000000E+00 0. -1.
         23    2    1    2    0    0  0.82676655399E+02 -0.90785832609E+02 -0.67908038928E+03  0.69604968538E+03  0.90870747031E+02 0.  0.
        254    2    1    2    0    0 -0.82676655399E+02  0.90785832609E+02 -0.11638965844E+04  0.14486098986E+04  0.85366145659E+03 0.  0.
        -24    2    4    4    0    0  0.14643287621E+03  0.20567398854E+03 -0.92515622341E+01  0.26308635571E+03  0.73378895868E+02 0.  0.
         24    2    4    4    0    0 -0.22910953161E+03 -0.11488815593E+03 -0.11546450221E+04  0.11855235429E+04  0.81058483703E+02 0.  0.
         11    1    3    3    0    0  0.81834008949E+02 -0.43945114861E+02 -0.56721976249E+03  0.57477494474E+03  0.00000000000E+00 0. -1.
        -11    1    3    3    0    0  0.84264644988E+00 -0.46840717748E+02 -0.11186062679E+03  0.12127474064E+03  0.00000000000E+00 0.  1.
          2    1    6    6  502    0 -0.22872206200E+03 -0.10002625949E+03 -0.10219595512E+04  0.10520077750E+04  0.00000000000E+00 0. -1.
          1    1    5    5  503    0  0.12640828459E+03  0.15481206500E+03 -0.34592701741E+02  0.20283610354E+03  0.00000000000E+00 0. -1.
         -2    1    5    5    0  503  0.20024591620E+02  0.50861923535E+02  0.25341139507E+02  0.60250252171E+02  0.00000000000E+00 0.  1.
         -1    1    6    6    0  502 -0.38746961195E+00 -0.14861896440E+02 -0.13268547089E+03  0.13351576792E+03  0.00000000000E+00 0.  1.
<mgrwt>
<rscale>  0 0.10968138E+04</rscale>
<asrwt>0</asrwt>
<pdfrwt beam="1">  1        3 0.30674124E+00 0.10968138E+04</pdfrwt>
<pdfrwt beam="2">  1       -3 0.23206357E-01 0.10968138E+04</pdfrwt>
<totfact> 0.16407753E+00</totfact>
</mgrwt>
</event>
<event>
12    1  0.1519630E-007  0.2652109E+04  0.7818608E-02  0.8350713E-01
         -1   -1    0    0    0  501 -0.00000000000E+00  0.00000000000E+00  0.11195388187E+04  0.11195388187E+04  0.00000000000E+00 0.  1.
          1   -1    0    0  501    0  0.00000000000E+00 -0.00000000000E+00 -0.15706654194E+04  0.15706654194E+04  0.00000000000E+00 0. -1.
         23    2    1    2    0    0  0.69293986370E+03  0.90836786513E+03  0.70253035768E+02  0.11482751994E+04  0.91118666871E+02 0.  0.
        254    2    1    2    0    0 -0.69293986370E+03 -0.90836786513E+03 -0.52137963649E+03  0.15419290386E+04  0.89465669490E+03 0.  0.
        -24    2    4    4    0    0  0.12420089415E+03 -0.21620875948E+02  0.10280867891E+03  0.18174557855E+03  0.81046323039E+02 0.  0.
         24    2    4    4    0    0 -0.81714075785E+03 -0.88674698918E+03 -0.62418831540E+03  0.13601834601E+04  0.80304115961E+02 0.  0.
         11    1    3    3    0    0  0.67279555731E+03  0.90125555884E+03  0.67143147691E+02  0.11266870225E+04  0.00000000000E+00 0.  1.
        -11    1    3    3    0    0  0.20144306390E+02  0.71123062837E+01  0.31098880769E+01  0.21588176960E+02  0.00000000000E+00 0. -1.
          4    1    6    6  502    0 -0.49496525340E+03 -0.48105934353E+03 -0.34343662647E+03  0.77094578958E+03  0.00000000000E+00 0. -1.
          1    1    5    5  503    0  0.35988977469E+02 -0.34333650946E+02  0.59033963072E+01  0.50088483452E+02  0.00000000000E+00 0. -1.
         -2    1    5    5    0  503  0.88211916680E+02  0.12712774998E+02  0.96905282606E+02  0.13165709510E+03  0.00000000000E+00 0.  1.
         -3    1    6    6    0  502 -0.32217550444E+03 -0.40568764565E+03 -0.28075168893E+03  0.58923767050E+03  0.00000000000E+00 0.  1.
<mgrwt>
<rscale>  0 0.26521093E+04</rscale>
<asrwt>0</asrwt>
<pdfrwt beam="1">  1        1 0.24164083E+00 0.26521093E+04</pdfrwt>
<pdfrwt beam="2">  1       -1 0.17223674E+00 0.26521093E+04</pdfrwt>
<totfact> 0.12144341E+00</totfact>
</mgrwt>
</event>
<event>
12    1  0.1519630E-007  0.1297857E+04  0.7818608E-02  0.9031267E-01
         -2   -1    0    0    0  501 -0.00000000000E+00  0.00000000000E+00  0.59283360739E+03  0.59283360739E+03  0.00000000000E+00 0.  1.
          2   -1    0    0  501    0  0.00000000000E+00 -0.00000000000E+00 -0.71033065998E+03  0.71033065998E+03  0.00000000000E+00 0. -1.
         23    2    1    2    0    0  0.13042670568E+03  0.16450338276E+03  0.22908614207E+03  0.32379782465E+03  0.91060871205E+02 0.  0.
        254    2    1    2    0    0 -0.13042670568E+03 -0.16450338276E+03 -0.34658319466E+03  0.97936644272E+03  0.89160878743E+03 0.  0.
        -24    2    4    4    0    0 -0.34094116953E+03  0.13358595772E+03  0.10857965240E+03  0.39053957931E+03  0.81520138037E+02 0.  0.
         24    2    4    4    0    0  0.21051446386E+03 -0.29808934048E+03 -0.45516284706E+03  0.58882686342E+03  0.79813929456E+02 0.  0.
         13    1    3    3    0    0  0.52724474788E+02  0.11950107094E+03  0.91398119223E+02  0.15941766651E+03  0.00000000000E+00 0. -1.
        -13    1    3    3    0    0  0.77702230889E+02  0.45002311822E+02  0.13768802285E+03  0.16438015814E+03  0.00000000000E+00 0.  1.
          2    1    6    6  502    0  0.19291998447E+03 -0.24638518858E+03 -0.42042339990E+03  0.52409886161E+03  0.00000000000E+00 0. -1.
          1    1    5    5  503    0 -0.29790722811E+03  0.14284432681E+03  0.10356980686E+03  0.34623680214E+03  0.00000000000E+00 0. -1.
         -2    1    5    5    0  503 -0.43033941425E+02 -0.92583690836E+01  0.50098455394E+01  0.44302777170E+02  0.00000000000E+00 0.  1.
         -1    1    6    6    0  502  0.17594479385E+02 -0.51704151901E+02 -0.34739447164E+02  0.64728001807E+02  0.00000000000E+00 0.  1.
<mgrwt>
<rscale>  0 0.12978565E+04</rscale>
<asrwt>0</asrwt>
<pdfrwt beam="1">  1        2 0.10928164E+00 0.12978565E+04</pdfrwt>
<pdfrwt beam="2">  1       -2 0.91205170E-01 0.12978565E+04</pdfrwt>
<totfact> 0.40417491E+01</totfact>
</mgrwt>
</event>
<event>
12    1  0.1519630E-007  0.1948138E+04  0.7818608E-02  0.8631259E-01
         -2   -1    0    0    0  501 -0.00000000000E+00  0.00000000000E+00  0.30344941876E+03  0.30344941876E+03  0.00000000000E+00 0.  1.
          2   -1    0    0  501    0  0.00000000000E+00 -0.00000000000E+00 -0.31267486537E+04  0.31267486537E+04  0.00000000000E+00 0. -1.
         23    2    1    2    0    0 -0.76642478565E+02 -0.26871077402E+03 -0.23693821690E+04  0.23874718741E+04  0.89277865872E+02 0.  0.
        254    2    1    2    0    0  0.76642478565E+02  0.26871077402E+03 -0.45391706596E+03  0.10427261984E+04  0.89619064510E+03 0.  0.
        -24    2    4    4    0    0  0.88206713257E+02  0.59106776016E+03 -0.24765469133E+03  0.65163837062E+03  0.78474190430E+02 0.  0.
         24    2    4    4    0    0 -0.11564234692E+02 -0.32235698614E+03 -0.20626237463E+03  0.39108782774E+03  0.79735586643E+02 0.  0.
         11    1    3    3    0    0 -0.26489275920E+02 -0.14993001852E+03 -0.16139631868E+04  0.16211285762E+04  0.00000000000E+00 0. -1.
        -11    1    3    3    0    0 -0.50153202644E+02 -0.11878075550E+03 -0.75541898222E+03  0.76634329795E+03  0.00000000000E+00 0.  1.
          4    1    6    6  502    0 -0.23626587991E+02 -0.17266847352E+03 -0.68367906020E+02  0.18720787371E+03  0.00000000000E+00 0. -1.
          3    1    5    5  503    0  0.38516554860E+02  0.12879716768E+03 -0.85111707980E+02  0.15911077347E+03  0.00000000000E+00 0. -1.
         -4    1    5    5    0  503  0.49690158397E+02  0.46227059248E+03 -0.16254298335E+03  0.49252759714E+03  0.00000000000E+00 0.  1.
         -3    1    6    6    0  502  0.12062353299E+02 -0.14968851262E+03 -0.13789446861E+03  0.20387995402E+03  0.00000000000E+00 0.  1.
<mgrwt>
<rscale>  0 0.19481376E+04</rscale>
<asrwt>0</asrwt>
<pdfrwt beam="1">  1        2 0.48103824E+00 0.19481376E+04</pdfrwt>
<pdfrwt beam="2">  1       -2 0.46684527E-01 0.19481376E+04</pdfrwt>
<totfact> 0.58907537E+00</totfact>
</mgrwt>
</event>
<event>
12    1  0.1519630E-007  0.2766895E+04  0.7818608E-02  0.8313621E-01
          2   -1    0    0  501    0  0.00000000000E+00  0.00000000000E+00  0.33925938979E+04  0.33925938979E+04  0.00000000000E+00 0.  1.
         -2   -1    0    0    0  501 -0.00000000000E+00 -0.00000000000E+00 -0.56414842411E+03  0.56414842411E+03  0.00000000000E+00 0. -1.
         23    2    1    2    0    0  0.11412821804E+04  0.18416575845E+03  0.64617955311E+03  0.13274888523E+04  0.90755695466E+02 0.  0.
        254    2    1    2    0    0 -0.11412821804E+04 -0.18416575845E+03  0.21822659207E+04  0.26292534698E+04  0.90235648049E+03 0.  0.
        -24    2    4    4    0    0 -0.49253829941E+03 -0.51278143453E+03  0.86424206271E+03  0.11218910501E+04  0.78653731340E+02 0.  0.
         24    2    4    4    0    0 -0.64874388095E+03  0.32861567608E+03  0.13180238580E+04  0.15073624196E+04  0.78087695829E+02 0.  0.
         11    1    3    3    0    0  0.35562653118E+03  0.39679580306E+02  0.24420343988E+03  0.43322051986E+03  0.00000000000E+00 0.  1.
        -11    1    3    3    0    0  0.78565564917E+03  0.14448617814E+03  0.40197611323E+03  0.89426833242E+03  0.00000000000E+00 0. -1.
          2    1    6    6  502    0 -0.44415714419E+03  0.18351802806E+03  0.87011123276E+03  0.99400603254E+03  0.00000000000E+00 0. -1.
          3    1    5    5  503    0 -0.16091325508E+03 -0.21645459509E+03  0.29917298805E+03  0.40280286019E+03  0.00000000000E+00 0. -1.
         -4    1    5    5    0  503 -0.33162504433E+03 -0.29632683944E+03  0.56506907466E+03  0.71908818996E+03  0.00000000000E+00 0.  1.
         -1    1    6    6    0  502 -0.20458673676E+03  0.14509764803E+03  0.44791262523E+03  0.51335638708E+03  0.00000000000E+00 0.  1.
<mgrwt>
<rscale>  0 0.27668947E+04</rscale>
<asrwt>0</asrwt>
<pdfrwt beam="1">  1        2 0.52193751E+00 0.27668947E+04</pdfrwt>
<pdfrwt beam="2">  1       -2 0.86792067E-01 0.27668947E+04</pdfrwt>
<totfact> 0.96668254E-01</totfact>
</mgrwt>
</event>
<event>
12    1  0.1519630E-007  0.2190935E+04  0.7818608E-02  0.8522211E-01
         -2   -1    0    0    0  501 -0.00000000000E+00  0.00000000000E+00  0.75720249155E+03  0.75720249155E+03  0.00000000000E+00 0.  1.
          2   -1    0    0  501    0  0.00000000000E+00 -0.00000000000E+00 -0.15848455029E+04  0.15848455029E+04  0.00000000000E+00 0. -1.
         23    2    1    2    0    0  0.57459288026E+03  0.67485104631E+03 -0.11229248069E+03  0.89809119809E+03  0.91527515632E+02 0.  0.
        254    2    1    2    0    0 -0.57459288026E+03 -0.67485104631E+03 -0.71535053065E+03  0.14439567964E+04  0.88752686454E+03 0.  0.
        -24    2    4    4    0    0 -0.61940326685E+03 -0.80703388007E+03 -0.41273780862E+03  0.11008661321E+04  0.81176668891E+02 0.  0.
         24    2    4    4    0    0  0.44810386586E+02  0.13218283376E+03 -0.30261272203E+03  0.34309066425E+03  0.81587205370E+02 0.  0.
         13    1    3    3    0    0  0.38443370532E+03  0.38330306430E+03 -0.62214044045E+02  0.54642574991E+03  0.00000000000E+00 0.  1.
        -13    1    3    3    0    0  0.19015917494E+03  0.29154798201E+03 -0.50078436646E+02  0.35166544818E+03  0.00000000000E+00 0. -1.
          2    1    6    6  502    0  0.41625683753E+01  0.11170828391E+01  0.47939358103E+01  0.64464463157E+01  0.00000000000E+00 0. -1.
          3    1    5    5  503    0 -0.25251610466E+02 -0.65357666299E+02 -0.23122119406E+02  0.73782794614E+02  0.00000000000E+00 0. -1.
         -2    1    5    5    0  503 -0.59415165638E+03 -0.74167621377E+03 -0.38961568922E+03  0.10270833375E+04  0.00000000000E+00 0.  1.
         -1    1    6    6    0  502  0.40647818211E+02  0.13106575092E+03 -0.30740665784E+03  0.33664421794E+03  0.00000000000E+00 0.  1.
<mgrwt>
<rscale>  0 0.21909349E+04</rscale>
<asrwt>0</asrwt>
<pdfrwt beam="1">  1        2 0.24382238E+00 0.21909349E+04</pdfrwt>
<pdfrwt beam="2">  1       -2 0.11649269E+00 0.21909349E+04</pdfrwt>
<totfact> 0.59439882E+00</totfact>
</mgrwt>
</event>
<event>
12    1  0.1519630E-007  0.1475944E+04  0.7818608E-02  0.8900609E-01
          2   -1    0    0  501    0  0.00000000000E+00  0.00000000000E+00  0.15622484703E+04  0.15622484703E+04  0.00000000000E+00 0. -1.
         -2   -1    0    0    0  501 -0.00000000000E+00 -0.00000000000E+00 -0.34860185518E+03  0.34860185518E+03  0.00000000000E+00 0.  1.
         23    2    1    2    0    0 -0.46022671294E+03 -0.26991654549E+02  0.44270793891E+03  0.64496375010E+03  0.86317686828E+02 0.  0.
        254    2    1    2    0    0  0.46022671294E+03  0.26991654549E+02  0.77093867621E+03  0.12658865754E+04  0.89195582992E+03 0.  0.
        -24    2    4    4    0    0  0.16860614626E+03 -0.24997937427E+03  0.79603611597E+03  0.85501607619E+03  0.80382040806E+02 0.  0.
         24    2    4    4    0    0  0.29162056668E+03  0.27697102882E+03 -0.25097439762E+02  0.41087049919E+03  0.80182167059E+02 0.  0.
         11    1    3    3    0    0 -0.46062786601E+03 -0.20488140226E+02  0.42903004639E+03  0.62981312747E+03  0.00000000000E+00 0.  1.
        -11    1    3    3    0    0  0.40115307080E+00 -0.65035143225E+01  0.13677892519E+02  0.15150622631E+02  0.00000000000E+00 0. -1.
          2    1    6    6  502    0  0.72684601473E+02  0.63072367845E+02 -0.40482393871E+02  0.10440306073E+03  0.00000000000E+00 0. -1.
          3    1    5    5  503    0  0.26093387712E+02 -0.33468551377E+01  0.87406722668E+02  0.91279797815E+02  0.00000000000E+00 0. -1.
         -4    1    5    5    0  503  0.14251275855E+03 -0.24663251913E+03  0.70862939331E+03  0.76373627837E+03  0.00000000000E+00 0.  1.
         -1    1    6    6    0  502  0.21893596520E+03  0.21389866097E+03  0.15384954109E+02  0.30646743846E+03  0.00000000000E+00 0.  1.
<mgrwt>
<rscale>  0 0.14759441E+04</rscale>
<asrwt>0</asrwt>
<pdfrwt beam="1">  1        2 0.24034592E+00 0.14759441E+04</pdfrwt>
<pdfrwt beam="2">  1       -2 0.53631055E-01 0.14759441E+04</pdfrwt>
<totfact> 0.37122198E+01</totfact>
</mgrwt>
</event>
<event>
12    1  0.1519630E-007  0.3032874E+04  0.7818608E-02  0.8234405E-01
         -2   -1    0    0    0  501 -0.00000000000E+00  0.00000000000E+00  0.15898719414E+04  0.15898719414E+04  0.00000000000E+00 0.  1.
          2   -1    0    0  501    0  0.00000000000E+00 -0.00000000000E+00 -0.14463936794E+04  0.14463936794E+04  0.00000000000E+00 0. -1.
         23    2    1    2    0    0  0.26437203721E+03  0.49010509839E+03 -0.12000411284E+04  0.13260089229E+04  0.90029839946E+02 0.  0.
        254    2    1    2    0    0 -0.26437203721E+03 -0.49010509839E+03  0.13435193905E+04  0.17102566980E+04  0.89991001709E+03 0.  0.
        -24    2    4    4    0    0 -0.13005860545E+03  0.16970062404E+03  0.27395674031E+02  0.22972397601E+03  0.79429462711E+02 0.  0.
         24    2    4    4    0    0 -0.13431343175E+03 -0.65980572243E+03  0.13161237164E+04  0.14805327220E+04  0.80073806632E+02 0.  0.
         11    1    3    3    0    0  0.27030316749E+03  0.48479605448E+03 -0.11708986318E+04  0.12957988358E+04  0.00000000000E+00 0. -1.
        -11    1    3    3    0    0 -0.59311302853E+01  0.53090439110E+01 -0.29142496595E+02  0.30210087082E+02  0.00000000000E+00 0.  1.
          4    1    6    6  502    0 -0.98941782632E+02 -0.60235902030E+03  0.11744059892E+04  0.13235767047E+04  0.00000000000E+00 0. -1.
          3    1    5    5  503    0 -0.12786130617E+03  0.15728436676E+03  0.35272873493E+01  0.20272969047E+03  0.00000000000E+00 0. -1.
         -4    1    5    5    0  503 -0.21972992839E+01  0.12416257278E+02  0.23868386681E+02  0.26994285538E+02  0.00000000000E+00 0.  1.
         -3    1    6    6    0  502 -0.35371649120E+02 -0.57446702129E+02  0.14171772725E+03  0.15695601729E+03  0.00000000000E+00 0.  1.
<mgrwt>
<rscale>  0 0.30328737E+04</rscale>
<asrwt>0</asrwt>
<pdfrwt beam="1">  1        2 0.22252211E+00 0.30328737E+04</pdfrwt>
<pdfrwt beam="2">  1       -2 0.24459568E+00 0.30328737E+04</pdfrwt>
<totfact> 0.80645140E-01</totfact>
</mgrwt>
</event>
<event>
12    1  0.1519630E-007  0.1435713E+04  0.7818608E-02  0.8928366E-01
         -2   -1    0    0    0  501 -0.00000000000E+00  0.00000000000E+00  0.50861453965E+03  0.50861453965E+03  0.00000000000E+00 0. -1.
          2   -1    0    0  501    0  0.00000000000E+00 -0.00000000000E+00 -0.10131799387E+04  0.10131799387E+04  0.00000000000E+00 0.  1.
         23    2    1    2    0    0  0.25764449003E+03 -0.51752438903E+02  0.20405171510E+03  0.34489782477E+03  0.90875788402E+02 0.  0.
        254    2    1    2    0    0 -0.25764449003E+03  0.51752438903E+02 -0.70861711418E+03  0.11768966536E+04  0.90215770271E+03 0.  0.
        -24    2    4    4    0    0  0.44846425303E+02  0.42073497033E+03 -0.47010965843E+03  0.63753488570E+03  0.80115681414E+02 0.  0.
         24    2    4    4    0    0 -0.30249091534E+03 -0.36898253143E+03 -0.23850745575E+03  0.53936176790E+03  0.79852663450E+02 0.  0.
         11    1    3    3    0    0  0.14902668619E+03 -0.74112787379E+01  0.16206044121E+03  0.22028950691E+03  0.00000000000E+00 0. -1.
        -11    1    3    3    0    0  0.10861780385E+03 -0.44341160165E+02  0.41991273892E+02  0.12460831786E+03  0.00000000000E+00 0.  1.
          4    1    6    6  502    0 -0.29019791738E+02 -0.62180988968E+02 -0.10672772720E+02  0.69444451031E+02  0.00000000000E+00 0. -1.
          1    1    5    5  503    0  0.34001076588E+02  0.55174619047E+02 -0.65805339994E+02  0.92361542689E+02  0.00000000000E+00 0. -1.
         -2    1    5    5    0  503  0.10845348715E+02  0.36556035129E+03 -0.40430431843E+03  0.54517334301E+03  0.00000000000E+00 0.  1.
         -3    1    6    6    0  502 -0.27347112360E+03 -0.30680154246E+03 -0.22783468303E+03  0.46991731687E+03  0.00000000000E+00 0.  1.
<mgrwt>
<rscale>  0 0.14357131E+04</rscale>
<asrwt>0</asrwt>
<pdfrwt beam="1">  1        2 0.15587384E+00 0.14357131E+04</pdfrwt>
<pdfrwt beam="2">  1       -2 0.78248391E-01 0.14357131E+04</pdfrwt>
<totfact> 0.34847351E+01</totfact>
</mgrwt>
</event>
<event>
12    1  0.1519630E-007  0.1709456E+04  0.7818608E-02  0.8755990E-01
         -2   -1    0    0    0  501 -0.00000000000E+00  0.00000000000E+00  0.38523711690E+03  0.38523711690E+03  0.00000000000E+00 0. -1.
          2   -1    0    0  501    0  0.00000000000E+00 -0.00000000000E+00 -0.18963903490E+04  0.18963903490E+04  0.00000000000E+00 0.  1.
         23    2    1    2    0    0  0.57337159981E+03 -0.10105989706E+03 -0.84642954506E+03  0.10311619866E+04  0.88791742476E+02 0.  0.
        254    2    1    2    0    0 -0.57337159981E+03  0.10105989706E+03 -0.66472368708E+03  0.12504654794E+04  0.88478146493E+03 0.  0.
        -24    2    4    4    0    0  0.30219291851E+02  0.18542664149E+03 -0.59755201905E+03  0.63098656492E+03  0.76022264271E+02 0.  0.
         24    2    4    4    0    0 -0.60359089166E+03 -0.84366744424E+02 -0.67171668034E+02  0.61947891446E+03  0.88331084078E+02 0.  0.
         13    1    3    3    0    0  0.19641542283E+03  0.55273754225E+00 -0.24310157017E+03  0.31253431373E+03  0.00000000000E+00 0. -1.
        -13    1    3    3    0    0  0.37695617698E+03 -0.10161263461E+03 -0.60332797489E+03  0.71862767283E+03  0.00000000000E+00 0.  1.
          4    1    6    6  502    0 -0.37417298651E+03 -0.34002325607E+02 -0.19853573297E+01  0.37572000695E+03  0.00000000000E+00 0. -1.
          1    1    5    5  503    0  0.29234649867E+02  0.47595584185E+02 -0.26821346025E+03  0.27396799931E+03  0.00000000000E+00 0. -1.
         -2    1    5    5    0  503  0.98464198433E+00  0.13783105730E+03 -0.32933855879E+03  0.35701856560E+03  0.00000000000E+00 0.  1.
         -3    1    6    6    0  502 -0.22941790515E+03 -0.50364418817E+02 -0.65186310704E+02  0.24375890751E+03  0.00000000000E+00 0.  1.
<mgrwt>
<rscale>  0 0.17094560E+04</rscale>
<asrwt>0</asrwt>
<pdfrwt beam="1">  1        2 0.29175236E+00 0.17094560E+04</pdfrwt>
<pdfrwt beam="2">  1       -2 0.59267249E-01 0.17094560E+04</pdfrwt>
<totfact> 0.19280421E+01</totfact>
</mgrwt>
</event>
<event>
12    1  0.1519630E-007  0.1066065E+04  0.7818608E-02  0.9238913E-01
          2   -1    0    0  501    0  0.00000000000E+00  0.00000000000E+00  0.14727123447E+04  0.14727123447E+04  0.00000000000E+00 0. -1.
         -2   -1    0    0    0  501 -0.00000000000E+00 -0.00000000000E+00 -0.19292541538E+03  0.19292541538E+03  0.00000000000E+00 0.  1.
         23    2    1    2    0    0  0.50290554187E+02  0.77538976611E+02  0.55136888250E+02  0.14103336260E+03  0.91153168825E+02 0.  0.
        254    2    1    2    0    0 -0.50290554187E+02 -0.77538976611E+02  0.12246500411E+04  0.15246043975E+04  0.90338774234E+03 0.  0.
        -24    2    4    4    0    0 -0.15915385431E+02  0.37256525709E+03  0.85162214926E+03  0.93295722204E+03  0.78043082691E+02 0.  0.
         24    2    4    4    0    0 -0.34375168756E+02 -0.45010423371E+03  0.37302789181E+03  0.59164717545E+03  0.84386602737E+02 0.  0.
         13    1    3    3    0    0  0.88851238010E+01  0.14156779689E+02 -0.25459333845E+02  0.30455500587E+02  0.00000000000E+00 0.  1.
        -13    1    3    3    0    0  0.41405430386E+02  0.63382196921E+02  0.80596222095E+02  0.11057786202E+03  0.00000000000E+00 0. -1.
          2    1    6    6  502    0 -0.29779076825E+02 -0.19811791293E+03  0.11520808143E+03  0.23110690788E+03  0.00000000000E+00 0. -1.
          3    1    5    5  503    0  0.14325043277E+02  0.14695863901E+03  0.41640141735E+03  0.44180560070E+03  0.00000000000E+00 0. -1.
         -4    1    5    5    0  503 -0.30240428709E+02  0.22560661809E+03  0.43522073191E+03  0.49115162133E+03  0.00000000000E+00 0.  1.
         -3    1    6    6    0  502 -0.45960919309E+01 -0.25198632078E+03  0.25781981038E+03  0.36054026757E+03  0.00000000000E+00 0.  1.
<mgrwt>
<rscale>  0 0.10660650E+04</rscale>
<asrwt>0</asrwt>
<pdfrwt beam="1">  1        2 0.22657112E+00 0.10660650E+04</pdfrwt>
<pdfrwt beam="2">  1       -2 0.29680834E-01 0.10660650E+04</pdfrwt>
<totfact> 0.13676630E+02</totfact>
</mgrwt>
</event>
<event>
12    1  0.1519630E-007  0.1347533E+04  0.7818608E-02  0.8992698E-01
         -1   -1    0    0    0  501 -0.00000000000E+00  0.00000000000E+00  0.30456394290E+03  0.30456394290E+03  0.00000000000E+00 0.  1.
          1   -1    0    0  501    0  0.00000000000E+00 -0.00000000000E+00 -0.14905281766E+04  0.14905281766E+04  0.00000000000E+00 0. -1.
         23    2    1    2    0    0  0.19426627545E+03  0.15059271125E+03  0.28267543813E+02  0.26339107584E+03  0.90323055414E+02 0.  0.
        254    2    1    2    0    0 -0.19426627545E+03 -0.15059271125E+03 -0.12142317776E+04  0.15317010437E+04  0.90073954460E+03 0.  0.
        -24    2    4    4    0    0  0.33884428194E+03 -0.55679017284E+02 -0.28303187599E+03  0.45198419774E+03  0.79164839486E+02 0.  0.
         24    2    4    4    0    0 -0.53311055739E+03 -0.94913693964E+02 -0.93119990156E+03  0.10797168460E+04  0.73754559736E+02 0.  0.
         13    1    3    3    0    0  0.15681048268E+03  0.10082135030E+03  0.56786220081E+02  0.19488239260E+03  0.00000000000E+00 0.  1.
        -13    1    3    3    0    0  0.37455792766E+02  0.49771360948E+02 -0.28518676268E+02  0.68508683233E+02  0.00000000000E+00 0. -1.
          4    1    6    6  502    0 -0.50064444025E+03 -0.82636293231E+02 -0.89929076510E+03  0.10325683961E+04  0.00000000000E+00 0. -1.
          1    1    5    5  503    0  0.19700086801E+03 -0.52345326700E+02 -0.12282400797E+03  0.23798132733E+03  0.00000000000E+00 0. -1.
         -2    1    5    5    0  503  0.14184341393E+03 -0.33336905836E+01 -0.16020786802E+03  0.21400287041E+03  0.00000000000E+00 0.  1.
         -3    1    6    6    0  502 -0.32466117137E+02 -0.12277400734E+02 -0.31909136461E+02  0.47148449820E+02  0.00000000000E+00 0.  1.
<mgrwt>
<rscale>  0 0.13475328E+04</rscale>
<asrwt>0</asrwt>
<pdfrwt beam="1">  1        1 0.22931202E+00 0.13475328E+04</pdfrwt>
<pdfrwt beam="2">  1       -1 0.46855992E-01 0.13475328E+04</pdfrwt>
<totfact> 0.29513664E+01</totfact>
</mgrwt>
</event>
<event>
12    1  0.1519630E-007  0.2684294E+04  0.7818608E-02  0.8340119E-01
         -2   -1    0    0    0  501 -0.00000000000E+00  0.00000000000E+00  0.10201347979E+04  0.10201347979E+04  0.00000000000E+00 0.  1.
          2   -1    0    0  501    0  0.00000000000E+00 -0.00000000000E+00 -0.17658043451E+04  0.17658043451E+04  0.00000000000E+00 0. -1.
         23    2    1    2    0    0 -0.61525690397E+03 -0.89422649276E+03 -0.83320544940E+03  0.13722835435E+04  0.10367605549E+03 0.  0.
        254    2    1    2    0    0  0.61525690397E+03  0.89422649276E+03  0.87535902183E+02  0.14136555995E+04  0.90143083019E+03 0.  0.
        -24    2    4    4    0    0 -0.97722011983E+02  0.50899044204E+03 -0.18311617835E+03  0.55542810618E+03  0.79674240787E+02 0.  0.
         24    2    4    4    0    0  0.71297891595E+03  0.38523605072E+03  0.27065208053E+03  0.85822749334E+03  0.80969946573E+02 0.  0.
         13    1    3    3    0    0 -0.10312586346E+02 -0.44720021582E+02 -0.21203423814E+02  0.50555068479E+02  0.00000000000E+00 0.  1.
        -13    1    3    3    0    0 -0.60494431763E+03 -0.84950647118E+03 -0.81200202558E+03  0.13217284750E+04  0.00000000000E+00 0. -1.
          2    1    6    6  502    0  0.55986058963E+03  0.26403499440E+03  0.21284285425E+03  0.65456889530E+03  0.00000000000E+00 0. -1.
          1    1    5    5  503    0 -0.47041154760E+02  0.27945056287E+03 -0.58448543668E+02  0.28934705733E+03  0.00000000000E+00 0. -1.
         -2    1    5    5    0  503 -0.50680857223E+02  0.22953987917E+03 -0.12466763468E+03  0.26608104884E+03  0.00000000000E+00 0.  1.
         -1    1    6    6    0  502  0.15311832632E+03  0.12120105632E+03  0.57809226283E+02  0.20365859803E+03  0.00000000000E+00 0.  1.
<mgrwt>
<rscale>  0 0.26842939E+04</rscale>
<asrwt>0</asrwt>
<pdfrwt beam="1">  1        2 0.27166221E+00 0.26842939E+04</pdfrwt>
<pdfrwt beam="2">  1       -2 0.15694382E+00 0.26842939E+04</pdfrwt>
<totfact> 0.21022169E+00</totfact>
</mgrwt>
</event>
<event>
12    1  0.1519630E-007  0.1040640E+04  0.7818608E-02  0.9265061E-01
         -1   -1    0    0    0  501 -0.00000000000E+00  0.00000000000E+00  0.37355693144E+03  0.37355693144E+03  0.00000000000E+00 0.  1.
          1   -1    0    0  501    0  0.00000000000E+00 -0.00000000000E+00 -0.72474388612E+03  0.72474388612E+03  0.00000000000E+00 0. -1.
         23    2    1    2    0    0 -0.80511667934E+02 -0.38539833016E+02 -0.43284326096E+02  0.13510014569E+03  0.91711880779E+02 0.  0.
        254    2    1    2    0    0  0.80511667934E+02  0.38539833016E+02 -0.30790262857E+03  0.96320067187E+03  0.90828633052E+03 0.  0.
        -24    2    4    4    0    0  0.11429811148E+03  0.24366007772E+03  0.24211714619E+03  0.36989688939E+03  0.75951988406E+02 0.  0.
         24    2    4    4    0    0 -0.33786443545E+02 -0.20512024470E+03 -0.55001977476E+03  0.59330378248E+03  0.79194615486E+02 0.  0.
         13    1    3    3    0    0 -0.40999728961E+02  0.22399627143E+00  0.24363406160E+02  0.47692803534E+02  0.00000000000E+00 0.  1.
        -13    1    3    3    0    0 -0.39511938974E+02 -0.38763829288E+02 -0.67647732257E+02  0.87407342151E+02  0.00000000000E+00 0. -1.
          2    1    6    6  502    0 -0.17505784380E+02 -0.20121681921E+03 -0.47016101860E+03  0.51170894484E+03  0.00000000000E+00 0. -1.
          1    1    5    5  503    0  0.11415540053E+03  0.24515423135E+03  0.24609641885E+03  0.36564395248E+03  0.00000000000E+00 0. -1.
         -2    1    5    5    0  503  0.14271095226E+00 -0.14941536302E+01 -0.39792726578E+01  0.42529369113E+01  0.00000000000E+00 0.  1.
         -1    1    6    6    0  502 -0.16280659166E+02 -0.39034254907E+01 -0.79858756163E+02  0.81594837639E+02  0.00000000000E+00 0.  1.
<mgrwt>
<rscale>  0 0.10406404E+04</rscale>
<asrwt>0</asrwt>
<pdfrwt beam="1">  1        1 0.11149906E+00 0.10406404E+04</pdfrwt>
<pdfrwt beam="2">  1       -1 0.57470298E-01 0.10406404E+04</pdfrwt>
<totfact> 0.79226092E+01</totfact>
</mgrwt>
</event>
<event>
12    1  0.1519630E-007  0.1606525E+04  0.7818608E-02  0.8816549E-01
          2   -1    0    0  501    0  0.00000000000E+00  0.00000000000E+00  0.12041545266E+04  0.12041545266E+04  0.00000000000E+00 0. -1.
         -2   -1    0    0    0  501 -0.00000000000E+00 -0.00000000000E+00 -0.53583734902E+03  0.53583734902E+03  0.00000000000E+00 0.  1.
         23    2    1    2    0    0 -0.48859273518E+03 -0.12073159001E+03  0.25894033918E+02  0.51202334157E+03  0.90545146870E+02 0.  0.
        254    2    1    2    0    0  0.48859273518E+03  0.12073159001E+03  0.64242314364E+03  0.12279685340E+04  0.91755122328E+03 0.  0.
        -24    2    4    4    0    0  0.34689769889E+03  0.24848454987E+03 -0.11020621575E+03  0.44786224073E+03  0.79703147122E+02 0.  0.
         24    2    4    4    0    0  0.14169503629E+03 -0.12775295986E+03  0.75262935939E+03  0.78010629328E+03  0.75608029567E+02 0.  0.
         13    1    3    3    0    0 -0.14088451187E+03 -0.36961565482E+02 -0.33534074007E+02  0.14946282858E+03  0.00000000000E+00 0.  1.
        -13    1    3    3    0    0 -0.34770822332E+03 -0.83770024532E+02  0.59428107925E+02  0.36256051299E+03  0.00000000000E+00 0. -1.
          2    1    6    6  502    0  0.13983428272E+03 -0.13647344616E+03  0.70143787360E+03  0.72814402329E+03  0.00000000000E+00 0. -1.
          3    1    5    5  503    0  0.24680283643E+03  0.13370700730E+03 -0.86614200880E+02  0.29375367856E+03  0.00000000000E+00 0. -1.
         -4    1    5    5    0  503  0.10009486246E+03  0.11477754257E+03 -0.23592014875E+02  0.15410856217E+03  0.00000000000E+00 0.  1.
         -1    1    6    6    0  502  0.18607535720E+01  0.87204862998E+01  0.51191485790E+02  0.51962269991E+02  0.00000000000E+00 0.  1.
<mgrwt>
<rscale>  0 0.16065254E+04</rscale>
<asrwt>0</asrwt>
<pdfrwt beam="1">  1        2 0.18525454E+00 0.16065254E+04</pdfrwt>
<pdfrwt beam="2">  1       -2 0.82436516E-01 0.16065254E+04</pdfrwt>
<totfact> 0.23319411E+01</totfact>
</mgrwt>
</event>
<event>
12    1  0.1519630E-007  0.1845517E+04  0.7818608E-02  0.8682461E-01
         -2   -1    0    0    0  501 -0.00000000000E+00  0.00000000000E+00  0.60054239620E+03  0.60054239620E+03  0.00000000000E+00 0.  1.
          2   -1    0    0  501    0  0.00000000000E+00 -0.00000000000E+00 -0.14178576198E+04  0.14178576198E+04  0.00000000000E+00 0. -1.
         23    2    1    2    0    0  0.20166120576E+03 -0.26874295843E+03 -0.97771153725E+03  0.10400245482E+04  0.11331897975E+03 0.  0.
        254    2    1    2    0    0 -0.20166120576E+03  0.26874295843E+03  0.16039631364E+03  0.97837546781E+03  0.90476602443E+03 0.  0.
        -24    2    4    4    0    0 -0.48714828081E+03  0.13438258174E+03 -0.14537765173E+03  0.53159128969E+03  0.77990460200E+02 0.  0.
         24    2    4    4    0    0  0.28548707505E+03  0.13436037669E+03  0.30577396537E+03  0.44678417812E+03  0.81011129330E+02 0.  0.
         13    1    3    3    0    0  0.32593056821E+02 -0.10365208722E+03 -0.42993460718E+03  0.44345217216E+03  0.00000000000E+00 0.  1.
        -13    1    3    3    0    0  0.16906814894E+03 -0.16509087122E+03 -0.54777693006E+03  0.59657237604E+03  0.00000000000E+00 0. -1.
          2    1    6    6  502    0  0.25006659640E+03  0.12241827341E+03  0.29942345399E+03  0.40886910020E+03  0.00000000000E+00 0. -1.
          1    1    5    5  503    0 -0.36534085389E+03  0.90905884631E+02 -0.73371770173E+02  0.38356386175E+03  0.00000000000E+00 0. -1.
         -2    1    5    5    0  503 -0.12180742691E+03  0.43476697110E+02 -0.72005881555E+02  0.14802742794E+03  0.00000000000E+00 0.  1.
         -1    1    6    6    0  502  0.35420478654E+02  0.11942103280E+02  0.63505113752E+01  0.37915077918E+02  0.00000000000E+00 0.  1.
<mgrwt>
<rscale>  0 0.18455174E+04</rscale>
<asrwt>0</asrwt>
<pdfrwt beam="1">  1        2 0.21813194E+00 0.18455174E+04</pdfrwt>
<pdfrwt beam="2">  1       -2 0.92391138E-01 0.18455174E+04</pdfrwt>
<totfact> 0.13223527E+01</totfact>
</mgrwt>
</event>
<event>
12    1  0.1882307E-007  0.1970568E+04  0.7818608E-02  0.8620506E-01
         -1   -1    0    0    0  501 -0.00000000000E+00  0.00000000000E+00  0.74766208716E+03  0.74766208716E+03  0.00000000000E+00 0.  1.
          1   -1    0    0  501    0  0.00000000000E+00 -0.00000000000E+00 -0.12984264085E+04  0.12984264085E+04  0.00000000000E+00 0. -1.
         23    2    1    2    0    0 -0.75532548979E+03  0.65196089335E+02 -0.35023215469E+02  0.76438693317E+03  0.91069382348E+02 0.  0.
        254    2    1    2    0    0  0.75532548979E+03 -0.65196089335E+02 -0.51574110585E+03  0.12817015625E+04  0.89554613581E+03 0.  0.
        -24    2    4    4    0    0  0.80890823816E+03  0.22448526388E+03 -0.49003270949E+03  0.97565799031E+03  0.83965982538E+02 0.  0.
         24    2    4    4    0    0 -0.53582748371E+02 -0.28968135322E+03 -0.25708396368E+02  0.30604357216E+03  0.78837485296E+02 0.  0.
         11    1    3    3    0    0 -0.18018135033E+03 -0.29187909045E+01  0.25783032250E+02  0.18204011398E+03  0.00000000000E+00 0.  1.
        -11    1    3    3    0    0 -0.57514413946E+03  0.68114880239E+02 -0.60806247718E+02  0.58234681919E+03  0.00000000000E+00 0. -1.
          2    1    6    6  502    0 -0.17085055093E+01 -0.11954045316E+03  0.22727160208E+02  0.12169372516E+03  0.00000000000E+00 0. -1.
          3    1    5    5  503    0  0.30861319191E+03  0.93756695088E+02 -0.23515440873E+03  0.39916164149E+03  0.00000000000E+00 0. -1.
         -4    1    5    5    0  503  0.50029504625E+03  0.13072856880E+03 -0.25487830076E+03  0.57649634881E+03  0.00000000000E+00 0.  1.
         -1    1    6    6    0  502 -0.51874242861E+02 -0.17014090006E+03 -0.48435556576E+02  0.18434984699E+03  0.00000000000E+00 0.  1.
<mgrwt>
<rscale>  0 0.19705676E+04</rscale>
<asrwt>0</asrwt>
<pdfrwt beam="1">  1        1 0.19975791E+00 0.19705676E+04</pdfrwt>
<pdfrwt beam="2">  1       -1 0.11502494E+00 0.19705676E+04</pdfrwt>
<totfact> 0.57866226E+00</totfact>
</mgrwt>
</event>
<event>
12    1  0.1519630E-007  0.3209680E+04  0.7818608E-02  0.8186265E-01
          2   -1    0    0  501    0  0.00000000000E+00  0.00000000000E+00  0.12169660812E+04  0.12169660812E+04  0.00000000000E+00 0. -1.
         -2   -1    0    0    0  501 -0.00000000000E+00 -0.00000000000E+00 -0.21163376378E+04  0.21163376378E+04  0.00000000000E+00 0.  1.
         23    2    1    2    0    0  0.80325559783E+03 -0.82879613349E+03 -0.13698099312E+04  0.17935283532E+04  0.90786119949E+02 0.  0.
        254    2    1    2    0    0 -0.80325559783E+03  0.82879613349E+03  0.47043837464E+03  0.15397753659E+04  0.90414231553E+03 0.  0.
        -24    2    4    4    0    0 -0.40804380634E+03  0.47606032800E+03 -0.21625736485E+03  0.66877850136E+03  0.85815221524E+02 0.  0.
         24    2    4    4    0    0 -0.39521179149E+03  0.35273580549E+03  0.68669573949E+03  0.87099686453E+03  0.80433766391E+02 0.  0.
         11    1    3    3    0    0  0.17864037354E+03 -0.22543042339E+03 -0.30018193708E+03  0.41574084981E+03  0.00000000000E+00 0. -1.
        -11    1    3    3    0    0  0.62461522429E+03 -0.60336571010E+03 -0.10696279942E+04  0.13777875034E+04  0.00000000000E+00 0.  1.
          4    1    6    6  502    0 -0.20592307618E+03  0.22417318349E+03  0.43384586282E+03  0.52998128476E+03  0.00000000000E+00 0. -1.
          3    1    5    5  503    0 -0.35044543607E+03  0.39597107186E+03 -0.14895330326E+03  0.54935615039E+03  0.00000000000E+00 0. -1.
         -4    1    5    5    0  503 -0.57598370269E+02  0.80089256139E+02 -0.67304061591E+02  0.11942235098E+03  0.00000000000E+00 0.  1.
         -3    1    6    6    0  502 -0.18928871531E+03  0.12856262200E+03  0.25284987667E+03  0.34101557977E+03  0.00000000000E+00 0.  1.
<mgrwt>
<rscale>  0 0.32096798E+04</rscale>
<asrwt>0</asrwt>
<pdfrwt beam="1">  1        2 0.18722555E+00 0.32096798E+04</pdfrwt>
<pdfrwt beam="2">  1       -2 0.32559041E+00 0.32096798E+04</pdfrwt>
<totfact> 0.34414915E-01</totfact>
</mgrwt>
</event>
<event>
12    1  0.1519630E-007  0.1991891E+04  0.7818608E-02  0.8610421E-01
          2   -1    0    0  501    0  0.00000000000E+00  0.00000000000E+00  0.60551018511E+03  0.60551018511E+03  0.00000000000E+00 0. -1.
         -2   -1    0    0    0  501 -0.00000000000E+00 -0.00000000000E+00 -0.16381358071E+04  0.16381358071E+04  0.00000000000E+00 0.  1.
         23    2    1    2    0    0  0.66490855442E+03 -0.24928688798E+03 -0.79264003630E+03  0.10682183192E+04  0.92546270360E+02 0.  0.
        254    2    1    2    0    0 -0.66490855442E+03  0.24928688798E+03 -0.23998558567E+03  0.11754276730E+04  0.90542243996E+03 0.  0.
        -24    2    4    4    0    0 -0.36588344967E+03 -0.31729351473E+03 -0.19113121732E+03  0.52771860159E+03  0.86080816644E+02 0.  0.
         24    2    4    4    0    0 -0.29902510475E+03  0.56658040271E+03 -0.48854368356E+02  0.64770907138E+03  0.81920240672E+02 0.  0.
         13    1    3    3    0    0  0.35498096573E+03 -0.11611247328E+03 -0.48091511254E+03  0.60891127264E+03  0.00000000000E+00 0.  1.
        -13    1    3    3    0    0  0.30992758869E+03 -0.13317441470E+03 -0.31172492376E+03  0.45930704660E+03  0.00000000000E+00 0. -1.
          4    1    6    6  502    0 -0.29058128263E+03  0.56692158693E+03 -0.50669234003E+02  0.63906567645E+03  0.00000000000E+00 0. -1.
          1    1    5    5  503    0 -0.35342402452E+03 -0.31924497888E+03 -0.19483572733E+03  0.51457444388E+03  0.00000000000E+00 0. -1.
         -2    1    5    5    0  503 -0.12459425152E+02  0.19514641488E+01  0.37045100139E+01  0.13144157709E+02  0.00000000000E+00 0.  1.
         -3    1    6    6    0  502 -0.84438221137E+01 -0.34118421679E+00  0.18148656471E+01  0.86433949276E+01  0.00000000000E+00 0.  1.
<mgrwt>
<rscale>  0 0.19918915E+04</rscale>
<asrwt>0</asrwt>
<pdfrwt beam="1">  1        2 0.93155413E-01 0.19918915E+04</pdfrwt>
<pdfrwt beam="2">  1       -2 0.25202089E+00 0.19918915E+04</pdfrwt>
<totfact> 0.28471874E+00</totfact>
</mgrwt>
</event>
<event>
12    1  0.1519630E-007  0.1127524E+04  0.7818608E-02  0.9178773E-01
         -2   -1    0    0    0  501 -0.00000000000E+00  0.00000000000E+00  0.16658958250E+03  0.16658958250E+03  0.00000000000E+00 0.  1.
          2   -1    0    0  501    0  0.00000000000E+00 -0.00000000000E+00 -0.19078473883E+04  0.19078473883E+04  0.00000000000E+00 0. -1.
         23    2    1    2    0    0  0.82067016153E+02  0.32870751446E+02 -0.63338646475E+03  0.64519990825E+03  0.85375795384E+02 0.  0.
        254    2    1    2    0    0 -0.82067016153E+02 -0.32870751446E+02 -0.11078713410E+04  0.14292370625E+04  0.89862349801E+03 0.  0.
        -24    2    4    4    0    0 -0.43628982652E+02 -0.18133194411E+03 -0.12107963320E+04  0.12276616816E+04  0.79628417858E+02 0.  0.
         24    2    4    4    0    0 -0.38438033502E+02  0.14846119266E+03  0.10292499093E+03  0.20157538091E+03  0.80751918165E+02 0.  0.
         11    1    3    3    0    0  0.70078678535E+02  0.59747728395E+02 -0.43488373638E+03  0.44452747542E+03  0.00000000000E+00 0. -1.
        -11    1    3    3    0    0  0.11988337618E+02 -0.26876976949E+02 -0.19850272837E+03  0.20067243283E+03  0.00000000000E+00 0.  1.
          2    1    6    6  502    0 -0.62756748377E+02  0.11714622986E+03  0.87036368614E+02  0.15886150603E+03  0.00000000000E+00 0. -1.
          3    1    5    5  503    0 -0.55217458759E+02 -0.16638907195E+03 -0.11649694990E+04  0.11780866796E+04  0.00000000000E+00 0. -1.
         -4    1    5    5    0  503  0.11588476108E+02 -0.14942872158E+02 -0.45826832957E+02  0.49575002024E+02  0.00000000000E+00 0.  1.
         -3    1    6    6    0  502  0.24318714875E+02  0.31314962806E+02  0.15888622314E+02  0.42713874886E+02  0.00000000000E+00 0.  1.
<mgrwt>
<rscale>  0 0.11275238E+04</rscale>
<asrwt>0</asrwt>
<pdfrwt beam="1">  1        2 0.29351496E+00 0.11275238E+04</pdfrwt>
<pdfrwt beam="2">  1       -2 0.25629168E-01 0.11275238E+04</pdfrwt>
<totfact> 0.10229642E+02</totfact>
</mgrwt>
</event>
<event>
12    1  0.1519630E-007  0.2579114E+04  0.7818608E-02  0.8375331E-01
          1   -1    0    0  501    0  0.00000000000E+00  0.00000000000E+00  0.80279128221E+03  0.80279128221E+03  0.00000000000E+00 0. -1.
         -1   -1    0    0    0  501 -0.00000000000E+00 -0.00000000000E+00 -0.20714687726E+04  0.20714687726E+04  0.00000000000E+00 0.  1.
         23    2    1    2    0    0  0.40125331119E+03 -0.19045371696E+03  0.59977225273E+03  0.75185327243E+03  0.90993131950E+02 0.  0.
        254    2    1    2    0    0 -0.40125331119E+03  0.19045371696E+03 -0.18684497431E+04  0.21224067824E+04  0.90345407700E+03 0.  0.
        -24    2    4    4    0    0 -0.68366247525E+02 -0.37178851228E+02 -0.16555043318E+04  0.16593841349E+04  0.82491840440E+02 0.  0.
         24    2    4    4    0    0 -0.33288706367E+03  0.22763256819E+03 -0.21294541134E+03  0.46302264751E+03  0.80086457241E+02 0.  0.
         13    1    3    3    0    0  0.16027005708E+02 -0.22746938451E+02  0.14466209066E+02  0.31361749402E+02  0.00000000000E+00 0.  1.
        -13    1    3    3    0    0  0.38522630549E+03 -0.16770677851E+03  0.58530604367E+03  0.72049152302E+03  0.00000000000E+00 0. -1.
          2    1    6    6  502    0 -0.31935365053E+03  0.21742109393E+03 -0.18052362659E+03  0.42643577002E+03  0.00000000000E+00 0. -1.
          1    1    5    5  503    0 -0.21610098475E+02  0.12886849438E+02 -0.99873711058E+03  0.99905399418E+03  0.00000000000E+00 0. -1.
         -2    1    5    5    0  503 -0.46756149049E+02 -0.50065700666E+02 -0.65676722120E+03  0.66033014068E+03  0.00000000000E+00 0.  1.
         -1    1    6    6    0  502 -0.13533413135E+02  0.10211474260E+02 -0.32421784755E+02  0.36586877488E+02  0.00000000000E+00 0.  1.
<mgrwt>
<rscale>  0 0.25791139E+04</rscale>
<asrwt>0</asrwt>
<pdfrwt beam="1">  1        1 0.12350635E+00 0.25791139E+04</pdfrwt>
<pdfrwt beam="2">  1       -1 0.31868750E+00 0.25791139E+04</pdfrwt>
<totfact> 0.48429806E-01</totfact>
</mgrwt>
</event>
<event>
12    1  0.1519630E-007  0.2118667E+04  0.7818608E-02  0.8553065E-01
         -1   -1    0    0    0  501 -0.00000000000E+00  0.00000000000E+00  0.43834498910E+03  0.43834498910E+03  0.00000000000E+00 0.  1.
          1   -1    0    0  501    0  0.00000000000E+00 -0.00000000000E+00 -0.25600554249E+04  0.25600554249E+04  0.00000000000E+00 0. -1.
         23    2    1    2    0    0  0.33475465616E+03 -0.44317515092E+03 -0.17847330992E+04  0.18714232873E+04  0.92130293264E+02 0.  0.
        254    2    1    2    0    0 -0.33475465616E+03  0.44317515092E+03 -0.33697733660E+03  0.11269771266E+04  0.92090109367E+03 0.  0.
        -24    2    4    4    0    0  0.53508864645E+01  0.53982656837E+03  0.10471532469E+03  0.55570557284E+03  0.80012677510E+02 0.  0.
         24    2    4    4    0    0 -0.34010554262E+03 -0.96651417446E+02 -0.44169266129E+03  0.57127155377E+03  0.79028504302E+02 0.  0.
         13    1    3    3    0    0  0.23457092224E+03 -0.26239319700E+03 -0.12329303262E+04  0.12821820841E+04  0.00000000000E+00 0. -1.
        -13    1    3    3    0    0  0.10018373392E+03 -0.18078195392E+03 -0.55180277294E+03  0.58924120327E+03  0.00000000000E+00 0.  1.
          4    1    6    6  502    0 -0.15122190767E+03 -0.78839416892E+02 -0.17902640413E+03  0.24725325557E+03  0.00000000000E+00 0. -1.
          1    1    5    5  503    0 -0.20965758325E+02  0.28143224115E+03  0.21764743372E+02  0.28305012531E+03  0.00000000000E+00 0. -1.
         -2    1    5    5    0  503  0.26316644790E+02  0.25839432721E+03  0.82950581320E+02  0.27265544754E+03  0.00000000000E+00 0.  1.
         -3    1    6    6    0  502 -0.18888363495E+03 -0.17812000554E+02 -0.26266625716E+03  0.32401829820E+03  0.00000000000E+00 0.  1.
<mgrwt>
<rscale>  0 0.21186670E+04</rscale>
<asrwt>0</asrwt>
<pdfrwt beam="1">  1        1 0.39385468E+00 0.21186670E+04</pdfrwt>
<pdfrwt beam="2">  1       -1 0.67437691E-01 0.21186670E+04</pdfrwt>
<totfact> 0.25166951E+00</totfact>
</mgrwt>
</event>
<event>
12    1  0.1519630E-007  0.1772683E+04  0.7818608E-02  0.8720963E-01
          1   -1    0    0  501    0  0.00000000000E+00  0.00000000000E+00  0.10815426818E+04  0.10815426818E+04  0.00000000000E+00 0. -1.
         -1   -1    0    0    0  501 -0.00000000000E+00 -0.00000000000E+00 -0.72637126562E+03  0.72637126562E+03  0.00000000000E+00 0.  1.
         23    2    1    2    0    0  0.40675898940E+03 -0.50861551048E+03  0.17124013852E+03  0.67962298790E+03  0.91769317771E+02 0.  0.
        254    2    1    2    0    0 -0.40675898940E+03  0.50861551048E+03  0.18393127769E+03  0.11282909596E+04  0.90281070083E+03 0.  0.
        -24    2    4    4    0    0  0.26257882724E+03  0.29467151122E+03  0.21533795499E+02  0.40266392968E+03  0.76782783699E+02 0.  0.
         24    2    4    4    0    0 -0.66933781664E+03  0.21394399926E+03  0.16239748219E+03  0.72562702988E+03  0.79852968996E+02 0.  0.
         13    1    3    3    0    0  0.25009824044E+03 -0.35462802806E+03  0.14906893270E+03  0.45883735120E+03  0.00000000000E+00 0.  1.
        -13    1    3    3    0    0  0.15666074896E+03 -0.15398748241E+03  0.22171205816E+02  0.22078563670E+03  0.00000000000E+00 0. -1.
          4    1    6    6  502    0 -0.18014143346E+03  0.86361734924E+02  0.70076116038E+02  0.21170722082E+03  0.00000000000E+00 0. -1.
          3    1    5    5  503    0 -0.25330295577E+01 -0.14971910310E+01  0.37598807581E+01  0.47743610084E+01  0.00000000000E+00 0. -1.
         -4    1    5    5    0  503  0.26511185680E+03  0.29616870225E+03  0.17773914741E+02  0.39788956867E+03  0.00000000000E+00 0.  1.
         -3    1    6    6    0  502 -0.48919638319E+03  0.12758226433E+03  0.92321366153E+02  0.51391980906E+03  0.00000000000E+00 0.  1.
<mgrwt>
<rscale>  0 0.17726833E+04</rscale>
<asrwt>0</asrwt>
<pdfrwt beam="1">  1        1 0.16639118E+00 0.17726833E+04</pdfrwt>
<pdfrwt beam="2">  1       -1 0.11174943E+00 0.17726833E+04</pdfrwt>
<totfact> 0.91047445E+00</totfact>
</mgrwt>
</event>
<event>
12    1  0.1519630E-007  0.1523754E+04  0.7818608E-02  0.8868808E-01
          2   -1    0    0  501    0  0.00000000000E+00  0.00000000000E+00  0.29275920250E+04  0.29275920250E+04  0.00000000000E+00 0. -1.
         -2   -1    0    0    0  501 -0.00000000000E+00 -0.00000000000E+00 -0.19827110716E+03  0.19827110716E+03  0.00000000000E+00 0.  1.
         23    2    1    2    0    0  0.45024121136E+03 -0.21152938621E+03  0.10912769553E+04  0.12027994622E+04  0.91538645295E+02 0.  0.
        254    2    1    2    0    0 -0.45024121136E+03  0.21152938621E+03  0.16380439626E+04  0.19230636700E+04  0.87608448551E+03 0.  0.
        -24    2    4    4    0    0 -0.66568906321E+03  0.32854892099E+03  0.12710741964E+04  0.14745505198E+04  0.87082147626E+02 0.  0.
         24    2    4    4    0    0  0.21544785186E+03 -0.11701953478E+03  0.36696976621E+03  0.44851315015E+03  0.79911752311E+02 0.  0.
         11    1    3    3    0    0  0.30476505384E+03 -0.10746719752E+03  0.77052212571E+03  0.83554490172E+03  0.00000000000E+00 0.  1.
        -11    1    3    3    0    0  0.14547615752E+03 -0.10406218869E+03  0.32075482955E+03  0.36725456049E+03  0.00000000000E+00 0. -1.
          2    1    6    6  502    0  0.15455408182E+03 -0.97772637003E+02  0.20671922656E+03  0.27600596259E+03  0.00000000000E+00 0. -1.
          1    1    5    5  503    0 -0.55444151603E+03  0.30797899545E+03  0.10859092458E+04  0.12575592815E+04  0.00000000000E+00 0. -1.
         -2    1    5    5    0  503 -0.11124754718E+03  0.20569925539E+02  0.18516495057E+03  0.21699123833E+03  0.00000000000E+00 0.  1.
         -1    1    6    6    0  502  0.60893770030E+02 -0.19246897774E+02  0.16025053965E+03  0.17250718756E+03  0.00000000000E+00 0.  1.
<mgrwt>
<rscale>  0 0.15237545E+04</rscale>
<asrwt>0</asrwt>
<pdfrwt beam="1">  1        2 0.45039874E+00 0.15237545E+04</pdfrwt>
<pdfrwt beam="2">  1       -2 0.30503249E-01 0.15237545E+04</pdfrwt>
<totfact> 0.18635284E+01</totfact>
</mgrwt>
</event>
<event>
12    1  0.1958427E-007  0.2846272E+04  0.7818608E-02  0.8289045E-01
         -2   -1    0    0    0  501 -0.00000000000E+00  0.00000000000E+00  0.17680475739E+04  0.17680475739E+04  0.00000000000E+00 0.  1.
          2   -1    0    0  501    0  0.00000000000E+00 -0.00000000000E+00 -0.11455096017E+04  0.11455096017E+04  0.00000000000E+00 0. -1.
         23    2    1    2    0    0  0.59195779128E+03 -0.45830074237E+03 -0.77996981471E+03  0.10849543188E+04  0.91210552390E+02 0.  0.
        254    2    1    2    0    0 -0.59195779128E+03  0.45830074237E+03  0.14025077869E+04  0.18286028569E+04  0.90349693900E+03 0.  0.
        -24    2    4    4    0    0 -0.30821342977E+03  0.73706812639E+02 -0.19068423060E+02  0.32666623151E+03  0.76935099482E+02 0.  0.
         24    2    4    4    0    0 -0.28374436150E+03  0.38459392973E+03  0.14215762100E+04  0.15019366254E+04  0.80692951451E+02 0.  0.
         13    1    3    3    0    0  0.35885719789E+02 -0.41778559868E+02 -0.30366244713E+02  0.62891507911E+02  0.00000000000E+00 0.  1.
        -13    1    3    3    0    0  0.55607207149E+03 -0.41652218250E+03 -0.74960357000E+03  0.10220628109E+04  0.00000000000E+00 0. -1.
          2    1    6    6  502    0 -0.28506088344E+03  0.38685092552E+03  0.14194010028E+04  0.14985368038E+04  0.00000000000E+00 0. -1.
          1    1    5    5  503    0 -0.23091948486E+03  0.58111970810E+02 -0.47565003415E+02  0.24282347331E+03  0.00000000000E+00 0. -1.
         -2    1    5    5    0  503 -0.77293944915E+02  0.15594841828E+02  0.28496580354E+02  0.83842758208E+02  0.00000000000E+00 0.  1.
         -1    1    6    6    0  502  0.13165219372E+01 -0.22569957949E+01  0.21752072226E+01  0.33998215381E+01  0.00000000000E+00 0.  1.
<mgrwt>
<rscale>  0 0.28462716E+04</rscale>
<asrwt>0</asrwt>
<pdfrwt beam="1">  1        2 0.17623225E+00 0.28462716E+04</pdfrwt>
<pdfrwt beam="2">  1       -2 0.27200732E+00 0.28462716E+04</pdfrwt>
<totfact> 0.83445882E-01</totfact>
</mgrwt>
</event>
<event>
12    1  0.1519630E-007  0.1297139E+04  0.7818608E-02  0.9031837E-01
          1   -1    0    0  501    0  0.00000000000E+00  0.00000000000E+00  0.22223155267E+04  0.22223155267E+04  0.00000000000E+00 0. -1.
         -1   -1    0    0    0  501 -0.00000000000E+00 -0.00000000000E+00 -0.18928112468E+03  0.18928112468E+03  0.00000000000E+00 0.  1.
         23    2    1    2    0    0  0.17604716421E+03  0.19010114112E+03  0.88745018013E+03  0.92916366893E+03  0.92985233064E+02 0.  0.
        254    2    1    2    0    0 -0.17604716421E+03 -0.19010114112E+03  0.11455842219E+04  0.14824329825E+04  0.90449615264E+03 0.  0.
        -24    2    4    4    0    0 -0.28358472399E+03 -0.47827265432E+03  0.45913030604E+03  0.72538410210E+03  0.78844341033E+02 0.  0.
         24    2    4    4    0    0  0.10753755978E+03  0.28817151320E+03  0.68645391591E+03  0.75704888039E+03  0.85421782110E+02 0.  0.
         13    1    3    3    0    0  0.15394913458E+03  0.19401054694E+03  0.85146716061E+03  0.88675631036E+03  0.00000000000E+00 0. -1.
        -13    1    3    3    0    0  0.22098029625E+02 -0.39094058257E+01  0.35983019518E+02  0.42407358570E+02  0.00000000000E+00 0.  1.
          4    1    6    6  502    0  0.71495746924E+02  0.23317077335E+03  0.60537827427E+03  0.65265849135E+03  0.00000000000E+00 0. -1.
          3    1    5    5  503    0 -0.21776410802E+03 -0.37463596586E+03  0.31312863974E+03  0.53462403489E+03  0.00000000000E+00 0. -1.
         -4    1    5    5    0  503 -0.65820615966E+02 -0.10363668846E+03  0.14600166629E+03  0.19076006721E+03  0.00000000000E+00 0.  1.
         -3    1    6    6    0  502  0.36041812858E+02  0.55000739849E+02  0.81075641638E+02  0.10439038905E+03  0.00000000000E+00 0.  1.
<mgrwt>
<rscale>  0 0.12971390E+04</rscale>
<asrwt>0</asrwt>
<pdfrwt beam="1">  1        1 0.34189468E+00 0.12971390E+04</pdfrwt>
<pdfrwt beam="2">  1       -1 0.29120175E-01 0.12971390E+04</pdfrwt>
<totfact> 0.22280728E+01</totfact>
</mgrwt>
</event>
<event>
12    1  0.1519630E-007  0.2114166E+04  0.7818608E-02  0.8555029E-01
         -2   -1    0    0    0  501 -0.00000000000E+00  0.00000000000E+00  0.26496898876E+03  0.26496898876E+03  0.00000000000E+00 0. -1.
          2   -1    0    0  501    0  0.00000000000E+00 -0.00000000000E+00 -0.42171889966E+04  0.42171889966E+04  0.00000000000E+00 0.  1.
         23    2    1    2    0    0  0.87504596818E+02 -0.56464207148E+03 -0.29955103460E+04  0.30508410306E+04  0.89838955032E+02 0.  0.
        254    2    1    2    0    0 -0.87504596818E+02  0.56464207148E+03 -0.95670966187E+03  0.14313169548E+04  0.89827452626E+03 0.  0.
        -24    2    4    4    0    0 -0.18694291417E+03  0.25964743048E+03  0.83228089092E+02  0.33994536976E+03  0.79192791908E+02 0.  0.
         24    2    4    4    0    0  0.99438317351E+02  0.30499464099E+03 -0.10399377510E+04  0.10913715850E+04  0.81924969854E+02 0.  0.
         11    1    3    3    0    0 -0.16910097061E+02 -0.89608117074E+02 -0.53586237241E+03  0.54356604769E+03  0.00000000000E+00 0. -1.
        -11    1    3    3    0    0  0.10441469388E+03 -0.47503395440E+03 -0.24596479736E+04  0.25072749829E+04  0.00000000000E+00 0.  1.
          4    1    6    6  502    0  0.29721810717E+02  0.18220437701E+02 -0.85091312608E+02  0.91955977857E+02  0.00000000000E+00 0. -1.
          1    1    5    5  503    0 -0.63535544581E+02  0.91316033792E+02  0.68634868014E+02  0.13071391877E+03  0.00000000000E+00 0. -1.
         -2    1    5    5    0  503 -0.12340736959E+03  0.16833139669E+03  0.14593221078E+02  0.20923145099E+03  0.00000000000E+00 0.  1.
         -3    1    6    6    0  502  0.69716506634E+02  0.28677420329E+03 -0.95484643835E+03  0.99941560714E+03  0.00000000000E+00 0.  1.
<mgrwt>
<rscale>  0 0.21141658E+04</rscale>
<asrwt>0</asrwt>
<pdfrwt beam="1">  1        2 0.64879833E+00 0.21141658E+04</pdfrwt>
<pdfrwt beam="2">  1       -2 0.40764458E-01 0.21141658E+04</pdfrwt>
<totfact> 0.11910112E+00</totfact>
</mgrwt>
</event>
<event>
12    1  0.1519630E-007  0.1964605E+04  0.7818608E-02  0.8623350E-01
         -2   -1    0    0    0  501 -0.00000000000E+00  0.00000000000E+00  0.38709854873E+03  0.38709854873E+03  0.00000000000E+00 0.  1.
          2   -1    0    0  501    0  0.00000000000E+00 -0.00000000000E+00 -0.24926932511E+04  0.24926932511E+04  0.00000000000E+00 0. -1.
         23    2    1    2    0    0  0.27033329421E+03 -0.21992246978E+03 -0.18441822705E+04  0.18791132112E+04  0.92802106030E+02 0.  0.
        254    2    1    2    0    0 -0.27033329421E+03  0.21992246978E+03 -0.26141243187E+03  0.10006785887E+04  0.90087468362E+03 0.  0.
        -24    2    4    4    0    0 -0.36381747934E+03  0.43753364938E+03  0.77149844298E+02  0.57981043034E+03  0.80182192829E+02 0.  0.
         24    2    4    4    0    0  0.93484185132E+02 -0.21761117960E+03 -0.33856227617E+03  0.42086815832E+03  0.80072926055E+02 0.  0.
         13    1    3    3    0    0  0.16818434853E+03 -0.19095334311E+03 -0.13013259244E+04  0.13259707070E+04  0.00000000000E+00 0. -1.
        -13    1    3    3    0    0  0.10214894568E+03 -0.28969126672E+02 -0.54285634615E+03  0.55314250421E+03  0.00000000000E+00 0.  1.
          4    1    6    6  502    0  0.10411605116E+03 -0.19198843782E+03 -0.32023018760E+03  0.38761718927E+03  0.00000000000E+00 0. -1.
          3    1    5    5  503    0 -0.14996302445E+03  0.18155655900E+03  0.71905754165E+02  0.24621561750E+03  0.00000000000E+00 0. -1.
         -4    1    5    5    0  503 -0.21385445489E+03  0.25597709038E+03  0.52440901324E+01  0.33359481284E+03  0.00000000000E+00 0.  1.
         -3    1    6    6    0  502 -0.10631866033E+02 -0.25622741772E+02 -0.18332088568E+02  0.33250969046E+02  0.00000000000E+00 0.  1.
<mgrwt>
<rscale>  0 0.19646047E+04</rscale>
<asrwt>0</asrwt>
<pdfrwt beam="1">  1        2 0.38349126E+00 0.19646047E+04</pdfrwt>
<pdfrwt beam="2">  1       -2 0.59553624E-01 0.19646047E+04</pdfrwt>
<totfact> 0.86231079E+00</totfact>
</mgrwt>
</event>
<event>
12    1  0.1519630E-007  0.2147809E+04  0.7818608E-02  0.8540471E-01
         -3   -1    0    0    0  501 -0.00000000000E+00  0.00000000000E+00  0.15153033835E+04  0.15153033835E+04  0.00000000000E+00 0.  1.
          3   -1    0    0  501    0  0.00000000000E+00 -0.00000000000E+00 -0.76108270190E+03  0.76108270190E+03  0.00000000000E+00 0. -1.
         23    2    1    2    0    0 -0.23401939745E+03 -0.76808596530E+03 -0.79839061605E+02  0.81291601294E+03  0.98676440229E+02 0.  0.
        254    2    1    2    0    0  0.23401939745E+03  0.76808596530E+03  0.83405974320E+03  0.14634700725E+04  0.89519152660E+03 0.  0.
        -24    2    4    4    0    0  0.24775380277E+03  0.65904151751E+03  0.98770117919E+02  0.71574978193E+03  0.82610807677E+02 0.  0.
         24    2    4    4    0    0 -0.13734405321E+02  0.10904444779E+03  0.73528962528E+03  0.74772029053E+03  0.79721228950E+02 0.  0.
         13    1    3    3    0    0 -0.96331071472E+02 -0.38356804060E+03  0.61878827393E+01  0.39552801038E+03  0.00000000000E+00 0. -1.
        -13    1    3    3    0    0 -0.13768832598E+03 -0.38451792470E+03 -0.86026944344E+02  0.41738800256E+03  0.00000000000E+00 0.  1.
          2    1    6    6  502    0  0.27569242255E+02  0.76847928446E+02  0.50449482066E+03  0.51105840302E+03  0.00000000000E+00 0. -1.
          1    1    5    5  503    0  0.24121898618E+03  0.62997273416E+03  0.77224632719E+02  0.67898150857E+03  0.00000000000E+00 0. -1.
         -4    1    5    5    0  503  0.65348165960E+01  0.29068783351E+02  0.21545485201E+02  0.36768273361E+02  0.00000000000E+00 0.  1.
         -1    1    6    6    0  502 -0.41303647575E+02  0.32196519340E+02  0.23079480461E+03  0.23666188751E+03  0.00000000000E+00 0.  1.
<mgrwt>
<rscale>  0 0.21478093E+04</rscale>
<asrwt>0</asrwt>
<pdfrwt beam="1">  1        3 0.11708965E+00 0.21478093E+04</pdfrwt>
<pdfrwt beam="2">  1       -3 0.23312360E+00 0.21478093E+04</pdfrwt>
<totfact> 0.13233594E-01</totfact>
</mgrwt>
</event>
<event>
12    1  0.1519630E-007  0.1116471E+04  0.7818608E-02  0.9189285E-01
          2   -1    0    0  501    0  0.00000000000E+00  0.00000000000E+00  0.78171922062E+03  0.78171922062E+03  0.00000000000E+00 0.  1.
         -2   -1    0    0    0  501 -0.00000000000E+00 -0.00000000000E+00 -0.39864274241E+03  0.39864274241E+03  0.00000000000E+00 0. -1.
         23    2    1    2    0    0  0.72845630577E+02  0.11061723894E+03  0.22817099791E+03  0.27871184645E+03  0.89864506985E+02 0.  0.
        254    2    1    2    0    0 -0.72845630577E+02 -0.11061723894E+03  0.15490548030E+03  0.90165011658E+03  0.87831347790E+03 0.  0.
        -24    2    4    4    0    0  0.37556446615E+02  0.25471028903E+03  0.36868360280E+03  0.45679668098E+03  0.80298136763E+02 0.  0.
         24    2    4    4    0    0 -0.11040207719E+03 -0.36532752797E+03 -0.21377812250E+03  0.44485343560E+03  0.80874422175E+02 0.  0.
         11    1    3    3    0    0  0.62724750321E+02  0.46091574978E+02  0.59927572074E+02  0.98235133641E+02  0.00000000000E+00 0. -1.
        -11    1    3    3    0    0  0.10120880257E+02  0.64525663967E+02  0.16824342584E+03  0.18047671281E+03  0.00000000000E+00 0.  1.
          2    1    6    6  502    0 -0.11296022904E+03 -0.31284258431E+03 -0.20726352911E+03  0.39190389945E+03  0.00000000000E+00 0. -1.
          1    1    5    5  503    0  0.60252868057E+02  0.17817273940E+03  0.28183233984E+03  0.33882945704E+03  0.00000000000E+00 0. -1.
         -2    1    5    5    0  503 -0.22696421442E+02  0.76537549621E+02  0.86851262955E+02  0.11796722394E+03  0.00000000000E+00 0.  1.
         -1    1    6    6    0  502  0.25581518456E+01 -0.52484943658E+02 -0.65145933954E+01  0.52949536152E+02  0.00000000000E+00 0.  1.
<mgrwt>
<rscale>  0 0.11164707E+04</rscale>
<asrwt>0</asrwt>
<pdfrwt beam="1">  1        2 0.12026450E+00 0.11164707E+04</pdfrwt>
<pdfrwt beam="2">  1       -2 0.61329653E-01 0.11164707E+04</pdfrwt>
<totfact> 0.87133960E+01</totfact>
</mgrwt>
</event>
<event>
12    1  0.1519630E-007  0.1307847E+04  0.7818608E-02  0.9023366E-01
          1   -1    0    0  501    0  0.00000000000E+00  0.00000000000E+00  0.19499510243E+04  0.19499510243E+04  0.00000000000E+00 0. -1.
         -1   -1    0    0    0  501 -0.00000000000E+00 -0.00000000000E+00 -0.21929560223E+03  0.21929560223E+03  0.00000000000E+00 0.  1.
         23    2    1    2    0    0  0.30739809840E+03 -0.12648470008E+03  0.51122382179E+03  0.61640938684E+03  0.90104195025E+02 0.  0.
        254    2    1    2    0    0 -0.30739809840E+03  0.12648470008E+03  0.12194316002E+04  0.15528372396E+04  0.90210758501E+03 0.  0.
        -24    2    4    4    0    0 -0.29183616242E+03  0.43162990838E+03  0.10910634082E+04  0.12116627813E+04  0.78959555239E+02 0.  0.
         24    2    4    4    0    0 -0.15561935979E+02 -0.30514520830E+03  0.12836819200E+03  0.34117445832E+03  0.81029909877E+02 0.  0.
         13    1    3    3    0    0  0.21726276080E+03 -0.10485334800E+03  0.43053282861E+03  0.49351377724E+03  0.00000000000E+00 0.  1.
        -13    1    3    3    0    0  0.90135337607E+02 -0.21631352085E+02  0.80690993185E+02  0.12289560960E+03  0.00000000000E+00 0. -1.
          4    1    6    6  502    0  0.33053369189E+02 -0.10557892883E+03  0.48355955499E+02  0.12073828664E+03  0.00000000000E+00 0. -1.
          1    1    5    5  503    0 -0.87610879193E+02  0.10320264760E+03  0.21557524774E+03  0.25455675214E+03  0.00000000000E+00 0. -1.
         -2    1    5    5    0  503 -0.20422528323E+03  0.32842726078E+03  0.87548816049E+03  0.95710602918E+03  0.00000000000E+00 0.  1.
         -3    1    6    6    0  502 -0.48615305168E+02 -0.19956627946E+03  0.80012236504E+02  0.22043617168E+03  0.00000000000E+00 0.  1.
<mgrwt>
<rscale>  0 0.13078466E+04</rscale>
<asrwt>0</asrwt>
<pdfrwt beam="1">  1        1 0.29999245E+00 0.13078466E+04</pdfrwt>
<pdfrwt beam="2">  1       -1 0.33737786E-01 0.13078466E+04</pdfrwt>
<totfact> 0.26250561E+01</totfact>
</mgrwt>
</event>
<event>
12    1  0.1519630E-007  0.1492038E+04  0.7818608E-02  0.8889765E-01
         -2   -1    0    0    0  501 -0.00000000000E+00  0.00000000000E+00  0.27202127353E+03  0.27202127353E+03  0.00000000000E+00 0.  1.
          2   -1    0    0  501    0  0.00000000000E+00 -0.00000000000E+00 -0.20459591299E+04  0.20459591299E+04  0.00000000000E+00 0. -1.
         23    2    1    2    0    0 -0.17673452893E+03 -0.17043214344E+03  0.54051179923E+02  0.26818258232E+03  0.93371077825E+02 0.  0.
        254    2    1    2    0    0  0.17673452893E+03  0.17043214344E+03 -0.18279890363E+04  0.20497978211E+04  0.89434052877E+03 0.  0.
        -24    2    4    4    0    0 -0.14284415709E+03  0.44010197456E+03 -0.12224946068E+04  0.13095482991E+04  0.79558046280E+02 0.  0.
         24    2    4    4    0    0  0.31957868602E+03 -0.26966983112E+03 -0.60549442951E+03  0.74024952206E+03  0.80582233562E+02 0.  0.
         13    1    3    3    0    0 -0.18033777172E+03 -0.17267809064E+03  0.63669446423E+02  0.25766884426E+03  0.00000000000E+00 0.  1.
        -13    1    3    3    0    0  0.36032427907E+01  0.22459471992E+01 -0.96182665001E+01  0.10513738055E+02  0.00000000000E+00 0. -1.
          2    1    6    6  502    0  0.11028973684E+03 -0.11956610509E+03 -0.17770132821E+03  0.24091002799E+03  0.00000000000E+00 0. -1.
          1    1    5    5  503    0 -0.47452267513E+02  0.26348299323E+03 -0.74133525811E+03  0.78819602278E+03  0.00000000000E+00 0. -1.
         -2    1    5    5    0  503 -0.95391889576E+02  0.17661898133E+03 -0.48115934870E+03  0.52135227630E+03  0.00000000000E+00 0.  1.
         -1    1    6    6    0  502  0.20928894918E+03 -0.15010372603E+03 -0.42779310131E+03  0.49933949407E+03  0.00000000000E+00 0.  1.
<mgrwt>
<rscale>  0 0.14920381E+04</rscale>
<asrwt>0</asrwt>
<pdfrwt beam="1">  1        2 0.31476294E+00 0.14920381E+04</pdfrwt>
<pdfrwt beam="2">  1       -2 0.41849427E-01 0.14920381E+04</pdfrwt>
<totfact> 0.32965807E+01</totfact>
</mgrwt>
</event>
<event>
12    1  0.1519630E-007  0.2388843E+04  0.7818608E-02  0.8443692E-01
          1   -1    0    0  501    0  0.00000000000E+00  0.00000000000E+00  0.64038821892E+03  0.64038821892E+03  0.00000000000E+00 0. -1.
         -1   -1    0    0    0  501 -0.00000000000E+00 -0.00000000000E+00 -0.22277785543E+04  0.22277785543E+04  0.00000000000E+00 0.  1.
         23    2    1    2    0    0 -0.61831986832E+03 -0.29822094372E+03  0.22830865915E+03  0.72911468812E+03  0.90709391835E+02 0.  0.
        254    2    1    2    0    0  0.61831986832E+03  0.29822094372E+03 -0.18156989945E+04  0.21390520851E+04  0.89862438937E+03 0.  0.
        -24    2    4    4    0    0  0.25181257667E+03 -0.31412776862E+03 -0.60301876766E+03  0.72943992339E+03  0.79781820573E+02 0.  0.
         24    2    4    4    0    0  0.36650729164E+03  0.61234871234E+03 -0.12126802269E+04  0.14096121617E+04  0.84347930851E+02 0.  0.
         13    1    3    3    0    0 -0.57201512052E+03 -0.30034715964E+03  0.21444880514E+03  0.68073343126E+03  0.00000000000E+00 0. -1.
        -13    1    3    3    0    0 -0.46304747800E+02  0.21262159198E+01  0.13859854005E+02  0.48381256867E+02  0.00000000000E+00 0.  1.
          4    1    6    6  502    0  0.16379536563E+02  0.88670831071E+01 -0.53624984312E+02  0.56767537583E+02  0.00000000000E+00 0. -1.
          3    1    5    5  503    0  0.56681743780E+02 -0.69387320235E+02 -0.81060244300E+02  0.12082294274E+03  0.00000000000E+00 0. -1.
         -4    1    5    5    0  503  0.19513083289E+03 -0.24474044839E+03 -0.52195852336E+03  0.60861698064E+03  0.00000000000E+00 0.  1.
         -3    1    6    6    0  502  0.35012775508E+03  0.60348162923E+03 -0.11590552425E+04  0.13528446241E+04  0.00000000000E+00 0.  1.
<mgrwt>
<rscale>  0 0.23888434E+04</rscale>
<asrwt>0</asrwt>
<pdfrwt beam="1">  1        1 0.98521265E-01 0.23888434E+04</pdfrwt>
<pdfrwt beam="2">  1       -1 0.34273516E+00 0.23888434E+04</pdfrwt>
<totfact> 0.48497627E-01</totfact>
</mgrwt>
</event>
<event>
12    1  0.1519630E-007  0.1367042E+04  0.7818608E-02  0.8978027E-01
         -2   -1    0    0    0  501 -0.00000000000E+00  0.00000000000E+00  0.20134418010E+03  0.20134418010E+03  0.00000000000E+00 0.  1.
          2   -1    0    0  501    0  0.00000000000E+00 -0.00000000000E+00 -0.23204104662E+04  0.23204104662E+04  0.00000000000E+00 0. -1.
         23    2    1    2    0    0  0.98162628873E+02  0.20922320043E+03 -0.11645110690E+04  0.11906420826E+04  0.90179209331E+02 0.  0.
        254    2    1    2    0    0 -0.98162628873E+02 -0.20922320043E+03 -0.95455521709E+03  0.13311125637E+04  0.89848469399E+03 0.  0.
        -24    2    4    4    0    0  0.39253637665E+01 -0.37646272924E+03 -0.10358033317E+04  0.11048744185E+04  0.78226233866E+02 0.  0.
         24    2    4    4    0    0 -0.10208799264E+03  0.16723952881E+03  0.81248114619E+02  0.22623814516E+03  0.78685601984E+02 0.  0.
         11    1    3    3    0    0  0.10843000770E+03  0.13506568790E+03 -0.80860080321E+03  0.82694320577E+03  0.00000000000E+00 0.  1.
        -11    1    3    3    0    0 -0.10267378828E+02  0.74157512533E+02 -0.35591026579E+03  0.36369887686E+03  0.00000000000E+00 0. -1.
          4    1    6    6  502    0 -0.78399104708E+02  0.53507988289E+02  0.33975882134E+02  0.10081609493E+03  0.00000000000E+00 0. -1.
          1    1    5    5  503    0  0.24279339167E+02 -0.33189443100E+03 -0.94186900388E+03  0.99892973732E+03  0.00000000000E+00 0. -1.
         -2    1    5    5    0  503 -0.20353975400E+02 -0.44568298245E+02 -0.93934327834E+02  0.10594468117E+03  0.00000000000E+00 0.  1.
         -3    1    6    6    0  502 -0.23688887931E+02  0.11373154052E+03  0.47272232485E+02  0.12542205024E+03  0.00000000000E+00 0.  1.
<mgrwt>
<rscale>  0 0.13670423E+04</rscale>
<asrwt>0</asrwt>
<pdfrwt beam="1">  1        2 0.35698622E+00 0.13670423E+04</pdfrwt>
<pdfrwt beam="2">  1       -2 0.30976028E-01 0.13670423E+04</pdfrwt>
<totfact> 0.41695036E+01</totfact>
</mgrwt>
</event>
<event>
12    1  0.1519630E-007  0.2068781E+04  0.7818608E-02  0.8575122E-01
         -2   -1    0    0    0  501 -0.00000000000E+00  0.00000000000E+00  0.12802382916E+04  0.12802382916E+04  0.00000000000E+00 0.  1.
          2   -1    0    0  501    0  0.00000000000E+00 -0.00000000000E+00 -0.83575350622E+03  0.83575350622E+03  0.00000000000E+00 0. -1.
         23    2    1    2    0    0  0.29396659716E+03 -0.74789540430E+03  0.40984616314E+03  0.90671918118E+03  0.91661878914E+02 0.  0.
        254    2    1    2    0    0 -0.29396659716E+03  0.74789540430E+03  0.34638622202E+02  0.12092726166E+04  0.90298202146E+03 0.  0.
        -24    2    4    4    0    0  0.18148980714E+03 -0.10109976284E+03  0.64813989312E+02  0.23261639013E+03  0.82157285795E+02 0.  0.
         24    2    4    4    0    0 -0.47545640429E+03  0.84899516714E+03 -0.30175367110E+02  0.97665622646E+03  0.78072054519E+02 0.  0.
         11    1    3    3    0    0  0.20809063659E+03 -0.53648184797E+03  0.24602365550E+03  0.62581317124E+03  0.00000000000E+00 0. -1.
        -11    1    3    3    0    0  0.85875960572E+02 -0.21141355634E+03  0.16382250764E+03  0.28090600994E+03  0.00000000000E+00 0.  1.
          4    1    6    6  502    0 -0.38049338881E+03  0.61478170881E+03 -0.92866150356E+01  0.72306155315E+03  0.00000000000E+00 0. -1.
          3    1    5    5  503    0  0.10908459492E+03 -0.15679832243E+02  0.20010008765E+02  0.11200761777E+03  0.00000000000E+00 0. -1.
         -4    1    5    5    0  503  0.72405212219E+02 -0.85419930594E+02  0.44803980547E+02  0.12060877237E+03  0.00000000000E+00 0.  1.
         -3    1    6    6    0  502 -0.94963015484E+02  0.23421345833E+03 -0.20888752074E+02  0.25359467332E+03  0.00000000000E+00 0.  1.
<mgrwt>
<rscale>  0 0.20687809E+04</rscale>
<asrwt>0</asrwt>
<pdfrwt beam="1">  1        2 0.12857746E+00 0.20687809E+04</pdfrwt>
<pdfrwt beam="2">  1       -2 0.19695974E+00 0.20687809E+04</pdfrwt>
<totfact> 0.41775545E+00</totfact>
</mgrwt>
</event>
<event>
12    1  0.2386410E-007  0.2196908E+04  0.7818608E-02  0.8519716E-01
          1   -1    0    0  501    0  0.00000000000E+00  0.00000000000E+00  0.21016114050E+04  0.21016114050E+04  0.00000000000E+00 0. -1.
         -1   -1    0    0    0  501 -0.00000000000E+00 -0.00000000000E+00 -0.57413156954E+03  0.57413156954E+03  0.00000000000E+00 0.  1.
         23    2    1    2    0    0  0.28776892516E+03  0.86580157968E+03  0.72554144703E+03  0.11691018267E+04  0.89248866831E+02 0.  0.
        254    2    1    2    0    0 -0.28776892516E+03 -0.86580157968E+03  0.80193838846E+03  0.15066411478E+04  0.89131309866E+03 0.  0.
        -24    2    4    4    0    0  0.11899424980E+03 -0.68027639230E+02  0.55068928986E+03  0.57318208845E+03  0.80570598619E+02 0.  0.
         24    2    4    4    0    0 -0.40676317496E+03 -0.79777394045E+03  0.25124909859E+03  0.93345905940E+03  0.79499468366E+02 0.  0.
         13    1    3    3    0    0  0.12903502633E+03  0.38477289160E+03  0.26655874853E+03  0.48554483062E+03  0.00000000000E+00 0. -1.
        -13    1    3    3    0    0  0.15873389882E+03  0.48102868808E+03  0.45898269850E+03  0.68355699610E+03  0.00000000000E+00 0.  1.
          2    1    6    6  502    0 -0.32925220254E+03 -0.69735075751E+03  0.20035190482E+03  0.79677222445E+03  0.00000000000E+00 0. -1.
          3    1    5    5  503    0  0.76927031614E+02 -0.45783400306E+02  0.47794036164E+03  0.48625186603E+03  0.00000000000E+00 0. -1.
         -4    1    5    5    0  503  0.42067218187E+02 -0.22244238924E+02  0.72748928224E+02  0.86930222414E+02  0.00000000000E+00 0.  1.
         -1    1    6    6    0  502 -0.77510972419E+02 -0.10042318293E+03  0.50897193769E+02  0.13668683495E+03  0.00000000000E+00 0.  1.
<mgrwt>
<rscale>  0 0.21969082E+04</rscale>
<asrwt>0</asrwt>
<pdfrwt beam="1">  1        1 0.32332483E+00 0.21969082E+04</pdfrwt>
<pdfrwt beam="2">  1       -1 0.88327935E-01 0.21969082E+04</pdfrwt>
<totfact> 0.29179809E+00</totfact>
</mgrwt>
</event>
<event>
12    1  0.1519630E-007  0.1927284E+04  0.7818608E-02  0.8641393E-01
         -2   -1    0    0    0  501 -0.00000000000E+00  0.00000000000E+00  0.59069708889E+03  0.59069708889E+03  0.00000000000E+00 0.  1.
          2   -1    0    0  501    0  0.00000000000E+00 -0.00000000000E+00 -0.15720509509E+04  0.15720509509E+04  0.00000000000E+00 0. -1.
         23    2    1    2    0    0 -0.57244853470E+03  0.48127289046E+03 -0.39220717250E+03  0.84939403203E+03  0.91229575906E+02 0.  0.
        254    2    1    2    0    0  0.57244853470E+03 -0.48127289046E+03 -0.58914668955E+03  0.13133540078E+04  0.90470106004E+03 0.  0.
        -24    2    4    4    0    0  0.73987470985E+03 -0.59749215170E+03 -0.47921659779E+03  0.10678573677E+04  0.79116070336E+02 0.  0.
         24    2    4    4    0    0 -0.16742617515E+03  0.11621926124E+03 -0.10993009176E+03  0.24549664009E+03  0.81520147277E+02 0.  0.
         11    1    3    3    0    0 -0.47661825290E+03  0.44142042589E+03 -0.33938587717E+03  0.73293910048E+03  0.00000000000E+00 0.  1.
        -11    1    3    3    0    0 -0.95830281801E+02  0.39852464565E+02 -0.52821295332E+02  0.11645493155E+03  0.00000000000E+00 0. -1.
          2    1    6    6  502    0 -0.11320257363E+03  0.10093883856E+03 -0.11291000756E+03  0.18908236728E+03  0.00000000000E+00 0. -1.
          1    1    5    5  503    0  0.60918584589E+03 -0.48630977843E+03 -0.35796528318E+03  0.85775505792E+03  0.00000000000E+00 0. -1.
         -2    1    5    5    0  503  0.13068886396E+03 -0.11118237327E+03 -0.12125131461E+03  0.21010230980E+03  0.00000000000E+00 0.  1.
         -1    1    6    6    0  502 -0.54223601513E+02  0.15280422684E+02  0.29799158068E+01  0.56414272810E+02  0.00000000000E+00 0.  1.
<mgrwt>
<rscale>  0 0.19272840E+04</rscale>
<asrwt>0</asrwt>
<pdfrwt beam="1">  1        2 0.24185399E+00 0.19272840E+04</pdfrwt>
<pdfrwt beam="2">  1       -2 0.90876475E-01 0.19272840E+04</pdfrwt>
<totfact> 0.11165673E+01</totfact>
</mgrwt>
</event>
<event>
12    1  0.1519630E-007  0.2685175E+04  0.7818608E-02  0.8339831E-01
         -1   -1    0    0    0  501 -0.00000000000E+00  0.00000000000E+00  0.59109416173E+03  0.59109416173E+03  0.00000000000E+00 0.  1.
          1   -1    0    0  501    0  0.00000000000E+00 -0.00000000000E+00 -0.30494988778E+04  0.30494988778E+04  0.00000000000E+00 0. -1.
         23    2    1    2    0    0 -0.74150398476E+03 -0.38646924606E+03 -0.22581063077E+04  0.24096970658E+04  0.91701767768E+02 0.  0.
        254    2    1    2    0    0  0.74150398476E+03  0.38646924606E+03 -0.20029840832E+03  0.12308959738E+04  0.88079441884E+03 0.  0.
        -24    2    4    4    0    0 -0.99388699320E+02  0.27356806810E+03  0.11349216258E+03  0.32286832336E+03  0.81522278119E+02 0.  0.
         24    2    4    4    0    0  0.84089268408E+03  0.11290117796E+03 -0.31379057090E+03  0.90802765039E+03  0.78756011649E+02 0.  0.
         13    1    3    3    0    0 -0.62535763938E+03 -0.30367751206E+03 -0.19488691896E+04  0.20691503876E+04  0.00000000000E+00 0. -1.
        -13    1    3    3    0    0 -0.11614634538E+03 -0.82791733992E+02 -0.30923711815E+03  0.34054667815E+03  0.00000000000E+00 0.  1.
          2    1    6    6  502    0  0.22057411127E+02  0.15899629927E+02 -0.14614566615E+02  0.30869291776E+02  0.00000000000E+00 0. -1.
          1    1    5    5  503    0 -0.34679729811E+02  0.13361504748E+03  0.95004464890E+02  0.16757539474E+03  0.00000000000E+00 0. -1.
         -2    1    5    5    0  503 -0.64708969509E+02  0.13995302062E+03  0.18487697685E+02  0.15529292862E+03  0.00000000000E+00 0.  1.
         -1    1    6    6    0  502  0.81883527295E+03  0.97001548030E+02 -0.29917600428E+03  0.87715835861E+03  0.00000000000E+00 0.  1.
<mgrwt>
<rscale>  0 0.26851748E+04</rscale>
<asrwt>0</asrwt>
<pdfrwt beam="1">  1        1 0.46915367E+00 0.26851748E+04</pdfrwt>
<pdfrwt beam="2">  1       -1 0.90937564E-01 0.26851748E+04</pdfrwt>
<totfact> 0.56726867E-01</totfact>
</mgrwt>
</event>
<event>
12    1  0.1519630E-007  0.1341059E+04  0.7818608E-02  0.8997624E-01
          1   -1    0    0  501    0  0.00000000000E+00  0.00000000000E+00  0.44799259055E+03  0.44799259055E+03  0.00000000000E+00 0. -1.
         -1   -1    0    0    0  501 -0.00000000000E+00 -0.00000000000E+00 -0.10036098972E+04  0.10036098972E+04  0.00000000000E+00 0.  1.
         23    2    1    2    0    0 -0.26739189790E+02 -0.11673698572E+02 -0.54872681090E+03  0.55721192669E+03  0.92372932903E+02 0.  0.
        254    2    1    2    0    0  0.26739189790E+02  0.11673698572E+02 -0.68904957864E+01  0.89439056110E+03  0.89388798926E+03 0.  0.
        -24    2    4    4    0    0 -0.22605072026E+03 -0.23151763655E+03  0.27906142357E+03  0.43467824520E+03  0.79815753817E+02 0.  0.
         24    2    4    4    0    0  0.25278991005E+03  0.24319133513E+03 -0.28595191936E+03  0.45971231590E+03  0.80759823562E+02 0.  0.
         13    1    3    3    0    0 -0.84177345282E+00  0.91916003273E+00  0.37671651391E+01  0.39679933086E+01  0.00000000000E+00 0. -1.
        -13    1    3    3    0    0 -0.25897416337E+02 -0.12592858605E+02 -0.55249397604E+03  0.55324393338E+03  0.00000000000E+00 0.  1.
          2    1    6    6  502    0  0.19746002795E+03  0.18802546863E+03 -0.17492368392E+03  0.32394804319E+03  0.00000000000E+00 0. -1.
          1    1    5    5  503    0 -0.87110120700E+02 -0.98655113922E+02  0.64410185743E+02  0.14652534477E+03  0.00000000000E+00 0. -1.
         -2    1    5    5    0  503 -0.13894059956E+03 -0.13286252263E+03  0.21465123783E+03  0.28815290043E+03  0.00000000000E+00 0.  1.
         -1    1    6    6    0  502  0.55329882100E+02  0.55165866501E+02 -0.11102823544E+03  0.13576427271E+03  0.00000000000E+00 0.  1.
<mgrwt>
<rscale>  0 0.13410590E+04</rscale>
<asrwt>0</asrwt>
<pdfrwt beam="1">  1        1 0.68921937E-01 0.13410590E+04</pdfrwt>
<pdfrwt beam="2">  1       -1 0.15440152E+00 0.13410590E+04</pdfrwt>
<totfact> 0.16274805E+01</totfact>
</mgrwt>
</event>
<event>
12    1  0.1519630E-007  0.1264497E+04  0.7818608E-02  0.9058203E-01
          2   -1    0    0  501    0  0.00000000000E+00  0.00000000000E+00  0.20369345556E+04  0.20369345556E+04  0.00000000000E+00 0. -1.
         -2   -1    0    0    0  501 -0.00000000000E+00 -0.00000000000E+00 -0.19624481765E+03  0.19624481765E+03  0.00000000000E+00 0.  1.
         23    2    1    2    0    0  0.25097855301E+03 -0.67173165210E+02  0.63650499671E+03  0.69321839781E+03  0.88941936257E+02 0.  0.
        254    2    1    2    0    0 -0.25097855301E+03  0.67173165210E+02  0.12041847412E+04  0.15399609754E+04  0.92407599614E+03 0.  0.
        -24    2    4    4    0    0  0.11620004042E+03 -0.29125802008E+03  0.13265341578E+03  0.34929100191E+03  0.77933251225E+02 0.  0.
         24    2    4    4    0    0 -0.36717859343E+03  0.35843118529E+03  0.10715313255E+04  0.11906699735E+04  0.78883270456E+02 0.  0.
         11    1    3    3    0    0  0.21491667887E+03 -0.78519489421E+02  0.47349609315E+03  0.52588310422E+03  0.00000000000E+00 0. -1.
        -11    1    3    3    0    0  0.36061874135E+02  0.11346324211E+02  0.16300890356E+03  0.16733529359E+03  0.00000000000E+00 0.  1.
          2    1    6    6  502    0 -0.85648377750E+02  0.13334014681E+03  0.31146535362E+03  0.34946517118E+03  0.00000000000E+00 0. -1.
          1    1    5    5  503    0  0.18006488138E+01 -0.25141626297E+02  0.35960523589E+02  0.43914723793E+02  0.00000000000E+00 0. -1.
         -2    1    5    5    0  503  0.11439939160E+03 -0.26611639378E+03  0.96692892193E+02  0.30537627812E+03  0.00000000000E+00 0.  1.
         -1    1    6    6    0  502 -0.28153021568E+03  0.22509103848E+03  0.76006597183E+03  0.84120480234E+03  0.00000000000E+00 0.  1.
<mgrwt>
<rscale>  0 0.12644965E+04</rscale>
<asrwt>0</asrwt>
<pdfrwt beam="1">  1        2 0.31337453E+00 0.12644965E+04</pdfrwt>
<pdfrwt beam="2">  1       -2 0.30191512E-01 0.12644965E+04</pdfrwt>
<totfact> 0.63520576E+01</totfact>
</mgrwt>
</event>
<event>
12    1  0.1519630E-007  0.1525886E+04  0.7818608E-02  0.8867419E-01
         -2   -1    0    0    0  501 -0.00000000000E+00  0.00000000000E+00  0.23823306701E+03  0.23823306701E+03  0.00000000000E+00 0.  1.
          2   -1    0    0  501    0  0.00000000000E+00 -0.00000000000E+00 -0.24433298954E+04  0.24433298954E+04  0.00000000000E+00 0. -1.
         23    2    1    2    0    0 -0.21605931998E+03  0.11374405585E+03  0.11358762546E+02  0.27463539792E+03  0.12520479348E+03 0.  0.
        254    2    1    2    0    0  0.21605931998E+03 -0.11374405585E+03 -0.22164555909E+04  0.24069275645E+04  0.90609357914E+03 0.  0.
        -24    2    4    4    0    0 -0.29395895065E+03 -0.22279472504E+03 -0.12484473465E+04  0.13042357548E+04  0.79754454143E+02 0.  0.
         24    2    4    4    0    0  0.51001827063E+03  0.10905066920E+03 -0.96800824439E+03  0.11026918097E+04  0.82937211385E+02 0.  0.
         13    1    3    3    0    0  0.60553023143E+01  0.13733647973E+02  0.26626544472E+02  0.30565546671E+02  0.00000000000E+00 0. -1.
        -13    1    3    3    0    0 -0.22211462230E+03  0.10001040787E+03 -0.15267781926E+02  0.24406985124E+03  0.00000000000E+00 0.  1.
          4    1    6    6  502    0  0.84178331387E+02 -0.12649943486E+02 -0.14879899664E+03  0.17142681805E+03  0.00000000000E+00 0. -1.
          1    1    5    5  503    0 -0.87791992872E+02 -0.37601789349E+02 -0.41784693697E+03  0.42862266775E+03  0.00000000000E+00 0. -1.
         -2    1    5    5    0  503 -0.20616695777E+03 -0.18519293569E+03 -0.83060040957E+03  0.87561308709E+03  0.00000000000E+00 0.  1.
         -3    1    6    6    0  502  0.42583993924E+03  0.12170061268E+03 -0.81920924775E+03  0.93126499160E+03  0.00000000000E+00 0.  1.
<mgrwt>
<rscale>  0 0.15258859E+04</rscale>
<asrwt>0</asrwt>
<pdfrwt beam="1">  1        2 0.37589691E+00 0.15258859E+04</pdfrwt>
<pdfrwt beam="2">  1       -2 0.36651241E-01 0.15258859E+04</pdfrwt>
<totfact> 0.25435699E+01</totfact>
</mgrwt>
</event>
<event>
12    1  0.1519630E-007  0.1329005E+04  0.7818608E-02  0.9006875E-01
         -1   -1    0    0    0  501 -0.00000000000E+00  0.00000000000E+00  0.34287922222E+03  0.34287922222E+03  0.00000000000E+00 0.  1.
          1   -1    0    0  501    0  0.00000000000E+00 -0.00000000000E+00 -0.12878109947E+04  0.12878109947E+04  0.00000000000E+00 0. -1.
         23    2    1    2    0    0  0.24121307297E+03 -0.20072955374E+02 -0.55987450665E+03  0.61683479088E+03  0.91864171116E+02 0.  0.
        254    2    1    2    0    0 -0.24121307297E+03  0.20072955374E+02 -0.38505726581E+03  0.10138554260E+04  0.90611646978E+03 0.  0.
        -24    2    4    4    0    0 -0.14691278636E+03  0.84416942401E+02 -0.67042330943E+03  0.69602363589E+03  0.79195333961E+02 0.  0.
         24    2    4    4    0    0 -0.94300286613E+02 -0.64343987028E+02  0.28536604362E+03  0.31783179014E+03  0.80935624108E+02 0.  0.
         11    1    3    3    0    0  0.79520995776E+02  0.53629191784E+01 -0.29403707226E+03  0.30464758252E+03  0.00000000000E+00 0. -1.
        -11    1    3    3    0    0  0.16169207719E+03 -0.25435874552E+02 -0.26583743439E+03  0.31218720836E+03  0.00000000000E+00 0.  1.
          4    1    6    6  502    0 -0.73642704545E+02 -0.17277000970E+02  0.99492027470E+02  0.12498162355E+03  0.00000000000E+00 0. -1.
          1    1    5    5  503    0 -0.84973954670E+02  0.86812487296E+01 -0.24394872439E+03  0.25847034101E+03  0.00000000000E+00 0. -1.
         -2    1    5    5    0  503 -0.61938831687E+02  0.75735693672E+02 -0.42647458504E+03  0.43755329487E+03  0.00000000000E+00 0.  1.
         -3    1    6    6    0  502 -0.20657582068E+02 -0.47066986058E+02  0.18587401615E+03  0.19285016659E+03  0.00000000000E+00 0.  1.
<mgrwt>
<rscale>  0 0.13290051E+04</rscale>
<asrwt>0</asrwt>
<pdfrwt beam="1">  1        1 0.19812477E+00 0.13290051E+04</pdfrwt>
<pdfrwt beam="2">  1       -1 0.52750649E-01 0.13290051E+04</pdfrwt>
<totfact> 0.32770786E+01</totfact>
</mgrwt>
</event>
<event>
12    1  0.1519630E-007  0.1068830E+04  0.7818608E-02  0.9236116E-01
         -3   -1    0    0    0  501 -0.00000000000E+00  0.00000000000E+00  0.59520672629E+03  0.59520672629E+03  0.00000000000E+00 0.  1.
          3   -1    0    0  501    0  0.00000000000E+00 -0.00000000000E+00 -0.47983219378E+03  0.47983219378E+03  0.00000000000E+00 0. -1.
         23    2    1    2    0    0  0.10476500255E+03 -0.58498576201E+02 -0.10015732645E+02  0.15199597133E+03  0.92761367083E+02 0.  0.
        254    2    1    2    0    0 -0.10476500255E+03  0.58498576201E+02  0.12539026515E+03  0.92304294873E+03  0.90658026530E+03 0.  0.
        -24    2    4    4    0    0 -0.34399868498E+01  0.90519067275E+02  0.50595296914E+03  0.52005316066E+03  0.79128679229E+02 0.  0.
         24    2    4    4    0    0 -0.10132501570E+03 -0.32020491074E+02 -0.38056270399E+03  0.40298978808E+03  0.79251037686E+02 0.  0.
         11    1    3    3    0    0  0.12458232905E+02  0.13427946119E+02 -0.28143124568E+02  0.33579052466E+02  0.00000000000E+00 0. -1.
        -11    1    3    3    0    0  0.92306769647E+02 -0.71926522319E+02  0.18127391922E+02  0.11841691886E+03  0.00000000000E+00 0.  1.
          2    1    6    6  502    0 -0.32114160078E+02 -0.18527328159E+02 -0.26523185168E+03  0.26781059783E+03  0.00000000000E+00 0. -1.
          1    1    5    5  503    0 -0.22915165994E+02  0.11961066604E+01  0.49843288392E+02  0.54871567331E+02  0.00000000000E+00 0. -1.
         -2    1    5    5    0  503  0.19475179144E+02  0.89322960614E+02  0.45610968075E+03  0.46518159332E+03  0.00000000000E+00 0.  1.
         -1    1    6    6    0  502 -0.69210855625E+02 -0.13493162915E+02 -0.11533085231E+03  0.13517919025E+03  0.00000000000E+00 0.  1.
<mgrwt>
<rscale>  0 0.10688299E+04</rscale>
<asrwt>0</asrwt>
<pdfrwt beam="1">  1        3 0.73820338E-01 0.10688299E+04</pdfrwt>
<pdfrwt beam="2">  1       -3 0.91570265E-01 0.10688299E+04</pdfrwt>
<totfact> 0.48556316E+00</totfact>
</mgrwt>
</event>
<event>
12    1  0.1519630E-007  0.1675262E+04  0.7818608E-02  0.8775600E-01
          2   -1    0    0  501    0  0.00000000000E+00  0.00000000000E+00  0.58104193293E+03  0.58104193293E+03  0.00000000000E+00 0. -1.
         -2   -1    0    0    0  501 -0.00000000000E+00 -0.00000000000E+00 -0.12075305135E+04  0.12075305135E+04  0.00000000000E+00 0.  1.
         23    2    1    2    0    0 -0.20586113195E+03 -0.39122614174E+03 -0.58858235594E+03  0.74192850289E+03  0.92693117613E+02 0.  0.
        254    2    1    2    0    0  0.20586113195E+03  0.39122614174E+03 -0.37906224657E+02  0.10466439436E+04  0.94793985206E+03 0.  0.
        -24    2    4    4    0    0 -0.33104991861E+03  0.19257870883E+03 -0.20934845642E+03  0.44364585245E+03  0.79462308605E+02 0.  0.
         24    2    4    4    0    0  0.53691105056E+03  0.19864743291E+03  0.17144223176E+03  0.60299809112E+03  0.80498324546E+02 0.  0.
         11    1    3    3    0    0 -0.38702351841E+01 -0.52682480893E+02 -0.39395083566E+02  0.65896852145E+02  0.00000000000E+00 0. -1.
        -11    1    3    3    0    0 -0.20199089676E+03 -0.33854366085E+03 -0.54918727237E+03  0.67603165074E+03  0.00000000000E+00 0.  1.
          2    1    6    6  502    0  0.39567071984E+03  0.13317368861E+03  0.89094176172E+02  0.42688209391E+03  0.00000000000E+00 0. -1.
          3    1    5    5  503    0 -0.26616107853E+03  0.12978272048E+03 -0.18833232814E+03  0.35093352659E+03  0.00000000000E+00 0. -1.
         -4    1    5    5    0  503 -0.64888840082E+02  0.62795988348E+02 -0.21016128270E+02  0.92712325865E+02  0.00000000000E+00 0.  1.
         -1    1    6    6    0  502  0.14124033072E+03  0.65473744306E+02  0.82348055586E+02  0.17611599721E+03  0.00000000000E+00 0.  1.
<mgrwt>
<rscale>  0 0.16752622E+04</rscale>
<asrwt>0</asrwt>
<pdfrwt beam="1">  1        2 0.89391067E-01 0.16752622E+04</pdfrwt>
<pdfrwt beam="2">  1       -2 0.18577392E+00 0.16752622E+04</pdfrwt>
<totfact> 0.81287772E+00</totfact>
</mgrwt>
</event>
<event>
12    1  0.1519630E-007  0.1651800E+04  0.7818608E-02  0.8789342E-01
          1   -1    0    0  501    0  0.00000000000E+00  0.00000000000E+00  0.17355016478E+04  0.17355016478E+04  0.00000000000E+00 0. -1.
         -1   -1    0    0    0  501 -0.00000000000E+00 -0.00000000000E+00 -0.39303374645E+03  0.39303374645E+03  0.00000000000E+00 0.  1.
         23    2    1    2    0    0  0.39702806915E+03 -0.37966702241E+03  0.33189356022E+03  0.64810953920E+03  0.90079431000E+02 0.  0.
        254    2    1    2    0    0 -0.39702806915E+03  0.37966702241E+03  0.10105743411E+04  0.14804258550E+04  0.93199886145E+03 0.  0.
        -24    2    4    4    0    0 -0.11863574622E+03 -0.94887054243E+02 -0.12738707382E+03  0.21427351216E+03  0.81287625714E+02 0.  0.
         24    2    4    4    0    0 -0.27839232293E+03  0.47455407665E+03  0.11379614149E+04  0.12661523429E+04  0.74038613875E+02 0.  0.
         13    1    3    3    0    0  0.27368034496E+01 -0.23788162726E+02  0.25267710254E+02  0.34811261978E+02  0.00000000000E+00 0.  1.
        -13    1    3    3    0    0  0.39429126570E+03 -0.35587885968E+03  0.30662584997E+03  0.61329827722E+03  0.00000000000E+00 0. -1.
          4    1    6    6  502    0 -0.53279117935E+02  0.15552995575E+03  0.31871502215E+03  0.35861887414E+03  0.00000000000E+00 0. -1.
          1    1    5    5  503    0  0.55237960754E+01 -0.93645928378E+01 -0.36835004303E+02  0.38406060252E+02  0.00000000000E+00 0. -1.
         -2    1    5    5    0  503 -0.12415954229E+03 -0.85522461405E+02 -0.90552069516E+02  0.17586745191E+03  0.00000000000E+00 0.  1.
         -3    1    6    6    0  502 -0.22511320500E+03  0.31902412090E+03  0.81924639279E+03  0.90753346873E+03  0.00000000000E+00 0.  1.
<mgrwt>
<rscale>  0 0.16517999E+04</rscale>
<asrwt>0</asrwt>
<pdfrwt beam="1">  1        1 0.26700025E+00 0.16517999E+04</pdfrwt>
<pdfrwt beam="2">  1       -1 0.60466731E-01 0.16517999E+04</pdfrwt>
<totfact> 0.11944917E+01</totfact>
</mgrwt>
</event>
<event>
12    1  0.1519630E-007  0.1733821E+04  0.7818608E-02  0.8742307E-01
         -1   -1    0    0    0  501 -0.00000000000E+00  0.00000000000E+00  0.38705949132E+03  0.38705949132E+03  0.00000000000E+00 0.  1.
          1   -1    0    0  501    0  0.00000000000E+00 -0.00000000000E+00 -0.19416489105E+04  0.19416489105E+04  0.00000000000E+00 0. -1.
         23    2    1    2    0    0 -0.47765063957E+03  0.14978213070E+02 -0.26229800050E+02  0.48757908542E+03  0.93117569664E+02 0.  0.
        254    2    1    2    0    0  0.47765063957E+03 -0.14978213070E+02 -0.15283596191E+04  0.18411293164E+04  0.90857006004E+03 0.  0.
        -24    2    4    4    0    0 -0.98003703517E+02  0.32785753191E+03 -0.53901787717E+03  0.64334677431E+03  0.79117083956E+02 0.  0.
         24    2    4    4    0    0  0.57565434308E+03 -0.34283574498E+03 -0.98934174195E+03  0.11977825421E+04  0.83496497100E+02 0.  0.
         11    1    3    3    0    0 -0.17104373676E+03  0.34560019566E+01  0.35210825285E+02  0.17466455293E+03  0.00000000000E+00 0. -1.
        -11    1    3    3    0    0 -0.30660690281E+03  0.11522211114E+02 -0.61440625335E+02  0.31291453248E+03  0.00000000000E+00 0.  1.
          2    1    6    6  502    0  0.93014914922E+01 -0.48789554999E+01 -0.43204897008E+02  0.44463300329E+02  0.00000000000E+00 0. -1.
          1    1    5    5  503    0 -0.13257462154E+02  0.12264112673E+03 -0.25110175231E+03  0.27976543082E+03  0.00000000000E+00 0. -1.
         -2    1    5    5    0  503 -0.84746241363E+02  0.20521640518E+03 -0.28791612486E+03  0.36358134349E+03  0.00000000000E+00 0.  1.
         -1    1    6    6    0  502  0.56635285159E+03 -0.33795678948E+03 -0.94613684494E+03  0.11533192418E+04  0.00000000000E+00 0.  1.
<mgrwt>
<rscale>  0 0.17338208E+04</rscale>
<asrwt>0</asrwt>
<pdfrwt beam="1">  1        1 0.29871522E+00 0.17338208E+04</pdfrwt>
<pdfrwt beam="2">  1       -1 0.59547614E-01 0.17338208E+04</pdfrwt>
<totfact> 0.88579666E+00</totfact>
</mgrwt>
</event>
<event>
12    1  0.1519630E-007  0.2261874E+04  0.7818608E-02  0.8493107E-01
         -1   -1    0    0    0  501 -0.00000000000E+00  0.00000000000E+00  0.41361765843E+03  0.41361765843E+03  0.00000000000E+00 0.  1.
          1   -1    0    0  501    0  0.00000000000E+00 -0.00000000000E+00 -0.30922731145E+04  0.30922731145E+04  0.00000000000E+00 0. -1.
         23    2    1    2    0    0  0.25958010438E+03 -0.81870100303E+03 -0.17676562995E+04  0.19673944323E+04  0.91536309939E+02 0.  0.
        254    2    1    2    0    0 -0.25958010438E+03  0.81870100303E+03 -0.91099915649E+03  0.15384963406E+04  0.89409080294E+03 0.  0.
        -24    2    4    4    0    0  0.28385353019E+03  0.57937350514E+02 -0.19581194875E+03  0.35864100042E+03  0.79696202677E+02 0.  0.
         24    2    4    4    0    0 -0.54343363457E+03  0.76076365251E+03 -0.71518720774E+03  0.11798553402E+04  0.80525967295E+02 0.  0.
         13    1    3    3    0    0  0.85053916249E+02 -0.16144445713E+03 -0.41812473173E+03  0.45620913263E+03  0.00000000000E+00 0.  1.
        -13    1    3    3    0    0  0.17452618813E+03 -0.65725654589E+03 -0.13495315678E+04  0.15111852997E+04  0.00000000000E+00 0. -1.
          4    1    6    6  502    0 -0.80189855565E+02  0.68920621033E+02 -0.77357352588E+02  0.13101383491E+03  0.00000000000E+00 0. -1.
          1    1    5    5  503    0  0.21048048160E+02  0.23643481631E+02 -0.49593002742E+01  0.32041055135E+02  0.00000000000E+00 0. -1.
         -2    1    5    5    0  503  0.26280548203E+03  0.34293868884E+02 -0.19085264847E+03  0.32659994529E+03  0.00000000000E+00 0.  1.
         -3    1    6    6    0  502 -0.46324377901E+03  0.69184303148E+03 -0.63782985515E+03  0.10488415052E+04  0.00000000000E+00 0.  1.
<mgrwt>
<rscale>  0 0.22618742E+04</rscale>
<asrwt>0</asrwt>
<pdfrwt beam="1">  1        1 0.47573433E+00 0.22618742E+04</pdfrwt>
<pdfrwt beam="2">  1       -1 0.63633485E-01 0.22618742E+04</pdfrwt>
<totfact> 0.11625057E+00</totfact>
</mgrwt>
</event>
<event>
12    1  0.1519630E-007  0.3050675E+04  0.7818608E-02  0.8229407E-01
         -1   -1    0    0    0  501 -0.00000000000E+00  0.00000000000E+00  0.87439247986E+03  0.87439247986E+03  0.00000000000E+00 0.  1.
          1   -1    0    0  501    0  0.00000000000E+00 -0.00000000000E+00 -0.26608813927E+04  0.26608813927E+04  0.00000000000E+00 0. -1.
         23    2    1    2    0    0 -0.40757373136E+03  0.52982282644E+03  0.60066046386E+03  0.90304328263E+03  0.88688237943E+02 0.  0.
        254    2    1    2    0    0  0.40757373136E+03 -0.52982282644E+03 -0.23871493767E+04  0.26322305900E+04  0.88505771452E+03 0.  0.
        -24    2    4    4    0    0  0.54095585166E+03 -0.88052335279E+02 -0.17871809467E+04  0.18710983401E+04  0.81282316131E+02 0.  0.
         24    2    4    4    0    0 -0.13338212030E+03 -0.44177049116E+03 -0.59996843003E+03  0.76113224986E+03  0.80051407684E+02 0.  0.
         13    1    3    3    0    0 -0.72732999514E+02  0.15779464105E+03  0.15068048706E+03  0.22998662384E+03  0.00000000000E+00 0. -1.
        -13    1    3    3    0    0 -0.33484073185E+03  0.37202818538E+03  0.44997997679E+03  0.67305665879E+03  0.00000000000E+00 0.  1.
          4    1    6    6  502    0 -0.84108309288E+02 -0.31492290047E+03 -0.47690309651E+03  0.57765664922E+03  0.00000000000E+00 0. -1.
          3    1    5    5  503    0  0.53396802037E+03 -0.84206865713E+02 -0.17803167766E+04  0.18605753057E+04  0.00000000000E+00 0. -1.
         -4    1    5    5    0  503  0.69878312881E+01 -0.38454695660E+01 -0.68641700365E+01  0.10523034381E+02  0.00000000000E+00 0.  1.
         -3    1    6    6    0  502 -0.49273811007E+02 -0.12684759069E+03 -0.12306533352E+03  0.18347560063E+03  0.00000000000E+00 0.  1.
<mgrwt>
<rscale>  0 0.30506751E+04</rscale>
<asrwt>0</asrwt>
<pdfrwt beam="1">  1        1 0.40936636E+00 0.30506751E+04</pdfrwt>
<pdfrwt beam="2">  1       -1 0.13452192E+00 0.30506751E+04</pdfrwt>
<totfact> 0.41170889E-01</totfact>
</mgrwt>
</event>
<event>
12    1  0.1519630E-007  0.1731059E+04  0.7818608E-02  0.8743846E-01
          2   -1    0    0  501    0  0.00000000000E+00  0.00000000000E+00  0.62014802421E+03  0.62014802421E+03  0.00000000000E+00 0. -1.
         -2   -1    0    0    0  501 -0.00000000000E+00 -0.00000000000E+00 -0.12080033977E+04  0.12080033977E+04  0.00000000000E+00 0.  1.
         23    2    1    2    0    0 -0.24639970127E+03  0.13055161254E+02  0.39211037324E+03  0.47250441094E+03  0.92879618492E+02 0.  0.
        254    2    1    2    0    0  0.24639970127E+03 -0.13055161254E+02 -0.97996574672E+03  0.13556470110E+04  0.90363859123E+03 0.  0.
        -24    2    4    4    0    0  0.30556958739E+01  0.41305156991E+03 -0.58314786071E+03  0.71943839151E+03  0.83121808517E+02 0.  0.
         24    2    4    4    0    0  0.24334400540E+03 -0.42610673116E+03 -0.39681788601E+03  0.63620861945E+03  0.80707629740E+02 0.  0.
         11    1    3    3    0    0 -0.80598332623E+02  0.17699073169E+02  0.62510951128E+02  0.10352278698E+03  0.00000000000E+00 0.  1.
        -11    1    3    3    0    0 -0.16580136865E+03 -0.46439119149E+01  0.32959942211E+03  0.36898162396E+03  0.00000000000E+00 0. -1.
          2    1    6    6  502    0  0.20087393300E+03 -0.32070414944E+03 -0.34189912762E+03  0.50999657047E+03  0.00000000000E+00 0. -1.
          3    1    5    5  503    0 -0.17547898389E+02  0.38681721544E+03 -0.54780185348E+03  0.67083705740E+03  0.00000000000E+00 0. -1.
         -4    1    5    5    0  503  0.20603594263E+02  0.26234354465E+02 -0.35346007230E+02  0.48601334115E+02  0.00000000000E+00 0.  1.
         -1    1    6    6    0  502  0.42470072396E+02 -0.10540258173E+03 -0.54918758390E+02  0.12621204898E+03  0.00000000000E+00 0.  1.
<mgrwt>
<rscale>  0 0.17310585E+04</rscale>
<asrwt>0</asrwt>
<pdfrwt beam="1">  1        2 0.95407389E-01 0.17310585E+04</pdfrwt>
<pdfrwt beam="2">  1       -2 0.18584667E+00 0.17310585E+04</pdfrwt>
<totfact> 0.74708315E+00</totfact>
</mgrwt>
</event>
<event>
12    1  0.1519630E-007  0.1217908E+04  0.7818608E-02  0.9097325E-01
          2   -1    0    0  501    0  0.00000000000E+00  0.00000000000E+00  0.50620719453E+03  0.50620719453E+03  0.00000000000E+00 0. -1.
         -2   -1    0    0    0  501 -0.00000000000E+00 -0.00000000000E+00 -0.73255536648E+03  0.73255536648E+03  0.00000000000E+00 0.  1.
         23    2    1    2    0    0  0.23152215544E+03  0.10449622497E+03 -0.98044497526E+02  0.28769456948E+03  0.92916480364E+02 0.  0.
        254    2    1    2    0    0 -0.23152215544E+03 -0.10449622497E+03 -0.12830367443E+03  0.95106799152E+03  0.90749464027E+03 0.  0.
        -24    2    4    4    0    0 -0.51573703625E+03 -0.11912866292E+03 -0.29593925141E+03  0.61145766389E+03  0.78256663044E+02 0.  0.
         24    2    4    4    0    0  0.28421488081E+03  0.14632437948E+02  0.16763557699E+03  0.33961032763E+03  0.79001780038E+02 0.  0.
         11    1    3    3    0    0  0.20195018682E+03  0.10794704631E+03 -0.11188502262E+03  0.25486212165E+03  0.00000000000E+00 0.  1.
        -11    1    3    3    0    0  0.29571968617E+02 -0.34508213380E+01  0.13840525098E+02  0.32832447834E+02  0.00000000000E+00 0. -1.
          2    1    6    6  502    0  0.17609717621E+03  0.36387499621E+02  0.13418087401E+03  0.22436303739E+03  0.00000000000E+00 0. -1.
          1    1    5    5  503    0 -0.23150971633E+03 -0.86232643713E+02 -0.16285862229E+03  0.29589820623E+03  0.00000000000E+00 0. -1.
         -2    1    5    5    0  503 -0.28422731992E+03 -0.32896019208E+02 -0.13308062913E+03  0.31555945766E+03  0.00000000000E+00 0.  1.
         -1    1    6    6    0  502  0.10811770460E+03 -0.21755061673E+02  0.33454702975E+02  0.11524729024E+03  0.00000000000E+00 0.  1.
<mgrwt>
<rscale>  0 0.12179077E+04</rscale>
<asrwt>0</asrwt>
<pdfrwt beam="1">  1        2 0.77878030E-01 0.12179077E+04</pdfrwt>
<pdfrwt beam="2">  1       -2 0.11270083E+00 0.12179077E+04</pdfrwt>
<totfact> 0.37053891E+01</totfact>
</mgrwt>
</event>
<event>
12    1  0.1519630E-007  0.2121191E+04  0.7818608E-02  0.8551965E-01
          2   -1    0    0  501    0  0.00000000000E+00  0.00000000000E+00  0.26502045584E+04  0.26502045584E+04  0.00000000000E+00 0. -1.
         -2   -1    0    0    0  501 -0.00000000000E+00 -0.00000000000E+00 -0.42444390712E+03  0.42444390712E+03  0.00000000000E+00 0.  1.
         23    2    1    2    0    0  0.65299112304E+03  0.48672590340E+03  0.13437266807E+04  0.15739197297E+04  0.91227250788E+02 0.  0.
        254    2    1    2    0    0 -0.65299112304E+03 -0.48672590340E+03  0.88203397063E+03  0.15007287359E+04  0.90050169435E+03 0.  0.
        -24    2    4    4    0    0 -0.32711885864E+03 -0.63169496629E+03  0.88119664998E+03  0.11352821389E+04  0.79452633332E+02 0.  0.
         24    2    4    4    0    0 -0.32587226440E+03  0.14496906290E+03  0.83732065085E+00  0.36544659693E+03  0.79635119145E+02 0.  0.
         13    1    3    3    0    0  0.59574816743E+03  0.45904736123E+03  0.12749948449E+04  0.14802878820E+04  0.00000000000E+00 0. -1.
        -13    1    3    3    0    0  0.57242955608E+02  0.27678542165E+02  0.68731835760E+02  0.93631847734E+02  0.00000000000E+00 0.  1.
          2    1    6    6  502    0 -0.12064747789E+03  0.50896654286E+02 -0.38057553148E+02  0.13636224070E+03  0.00000000000E+00 0. -1.
          1    1    5    5  503    0 -0.32486270464E+03 -0.59371150161E+03  0.81994614333E+03  0.10631748690E+04  0.00000000000E+00 0. -1.
         -2    1    5    5    0  503 -0.22561539969E+01 -0.37983464685E+02  0.61250506646E+02  0.72107269985E+02  0.00000000000E+00 0.  1.
         -1    1    6    6    0  502 -0.20522478651E+03  0.94072408610E+02  0.38894873798E+02  0.22908435623E+03  0.00000000000E+00 0.  1.
<mgrwt>
<rscale>  0 0.21211913E+04</rscale>
<asrwt>0</asrwt>
<pdfrwt beam="1">  1        2 0.40772377E+00 0.21211913E+04</pdfrwt>
<pdfrwt beam="2">  1       -2 0.65299065E-01 0.21211913E+04</pdfrwt>
<totfact> 0.56562638E+00</totfact>
</mgrwt>
</event>
<event>
12    1  0.1519630E-007  0.1376162E+04  0.7818608E-02  0.8971257E-01
          2   -1    0    0  501    0  0.00000000000E+00  0.00000000000E+00  0.20956350184E+04  0.20956350184E+04  0.00000000000E+00 0.  1.
         -2   -1    0    0    0  501 -0.00000000000E+00 -0.00000000000E+00 -0.22592452705E+03  0.22592452705E+03  0.00000000000E+00 0. -1.
         23    2    1    2    0    0 -0.13219214841E+03  0.34897352078E+03  0.66517382042E+03  0.76788393529E+03  0.89063148363E+02 0.  0.
        254    2    1    2    0    0  0.13219214841E+03 -0.34897352078E+03  0.12045366709E+04  0.15536756102E+04  0.90760235109E+03 0.  0.
        -24    2    4    4    0    0  0.95478759036E+02  0.22528418238E+03  0.81343583914E+03  0.85326782638E+03  0.80740094668E+02 0.  0.
         24    2    4    4    0    0  0.36713389372E+02 -0.57425770316E+03  0.39110083180E+03  0.70040778379E+03  0.80569351245E+02 0.  0.
         11    1    3    3    0    0 -0.95394602751E+02  0.30213960000E+03  0.60651787006E+03  0.68428970095E+03  0.00000000000E+00 0.  1.
        -11    1    3    3    0    0 -0.36797545657E+02  0.46833920786E+02  0.58655950354E+02  0.83594234338E+02  0.00000000000E+00 0. -1.
          4    1    6    6  502    0 -0.15855489493E+02 -0.19036862007E+03  0.16053248486E+03  0.24952412057E+03  0.00000000000E+00 0. -1.
          3    1    5    5  503    0  0.85534894474E+02  0.10856495039E+03  0.38293335948E+03  0.40711242235E+03  0.00000000000E+00 0. -1.
         -4    1    5    5    0  503  0.99438645617E+01  0.11671923198E+03  0.43050247966E+03  0.44615540404E+03  0.00000000000E+00 0.  1.
         -3    1    6    6    0  502  0.52568878865E+02 -0.38388908309E+03  0.23056834694E+03  0.45088366322E+03  0.00000000000E+00 0.  1.
<mgrwt>
<rscale>  0 0.13761618E+04</rscale>
<asrwt>0</asrwt>
<pdfrwt beam="1">  1        2 0.32240537E+00 0.13761618E+04</pdfrwt>
<pdfrwt beam="2">  1       -2 0.34757621E-01 0.13761618E+04</pdfrwt>
<totfact> 0.44774780E+01</totfact>
</mgrwt>
</event>
<event>
12    1  0.2574609E-007  0.1266908E+04  0.7818608E-02  0.9056227E-01
         -1   -1    0    0    0  501 -0.00000000000E+00  0.00000000000E+00  0.21146506445E+03  0.21146506445E+03  0.00000000000E+00 0.  1.
          1   -1    0    0  501    0  0.00000000000E+00 -0.00000000000E+00 -0.18975425551E+04  0.18975425551E+04  0.00000000000E+00 0. -1.
         23    2    1    2    0    0  0.17059507822E+03  0.33898466407E+02 -0.84206778817E+03  0.86478056638E+03  0.92279365933E+02 0.  0.
        254    2    1    2    0    0 -0.17059507822E+03 -0.33898466407E+02 -0.84400970248E+03  0.12442270532E+04  0.89749473270E+03 0.  0.
        -24    2    4    4    0    0 -0.71265700633E+02  0.33607940879E+03 -0.76845888774E+03  0.84565790571E+03  0.81117582841E+02 0.  0.
         24    2    4    4    0    0 -0.99329377583E+02 -0.36997787520E+03 -0.75550814736E+02  0.39856914746E+03  0.79996789385E+02 0.  0.
         13    1    3    3    0    0  0.13176018988E+03  0.47479409932E+02 -0.76197435280E+03  0.77473863743E+03  0.00000000000E+00 0. -1.
        -13    1    3    3    0    0  0.38834888337E+02 -0.13580943525E+02 -0.80093435368E+02  0.90041928946E+02  0.00000000000E+00 0.  1.
          4    1    6    6  502    0 -0.84199835122E+02 -0.36579943566E+03 -0.75450727003E+02  0.38287289219E+03  0.00000000000E+00 0. -1.
          1    1    5    5  503    0 -0.71878691991E+02  0.30342410520E+03 -0.73725900371E+03  0.80048958302E+03  0.00000000000E+00 0. -1.
         -2    1    5    5    0  503  0.61299135818E+00  0.32655303589E+02 -0.31199884032E+02  0.45168322689E+02  0.00000000000E+00 0.  1.
         -3    1    6    6    0  502 -0.15129542461E+02 -0.41784395355E+01 -0.10008773277E+00  0.15696255273E+02  0.00000000000E+00 0.  1.
<mgrwt>
<rscale>  0 0.12669080E+04</rscale>
<asrwt>0</asrwt>
<pdfrwt beam="1">  1        1 0.29192961E+00 0.12669080E+04</pdfrwt>
<pdfrwt beam="2">  1       -1 0.32533089E-01 0.12669080E+04</pdfrwt>
<totfact> 0.30487327E+01</totfact>
</mgrwt>
</event>
<event>
12    1  0.1519630E-007  0.1988670E+04  0.7818608E-02  0.8611936E-01
          1   -1    0    0  501    0  0.00000000000E+00  0.00000000000E+00  0.19945958294E+04  0.19945958294E+04  0.00000000000E+00 0.  1.
         -1   -1    0    0    0  501 -0.00000000000E+00 -0.00000000000E+00 -0.49569057016E+03  0.49569057016E+03  0.00000000000E+00 0. -1.
         23    2    1    2    0    0  0.41327590942E+03  0.67168859789E+03  0.55369154372E+03  0.96806695050E+03  0.92826425241E+02 0.  0.
        254    2    1    2    0    0 -0.41327590942E+03 -0.67168859789E+03  0.94521371554E+03  0.15222194491E+04  0.89541081816E+03 0.  0.
        -24    2    4    4    0    0 -0.52375950230E+02  0.19993105474E+03  0.31237700700E+03  0.38330571280E+03  0.81413808121E+02 0.  0.
         24    2    4    4    0    0 -0.36089995919E+03 -0.87161965263E+03  0.63283670854E+03  0.11389137363E+04  0.81685981747E+02 0.  0.
         13    1    3    3    0    0  0.17054621473E+03  0.28581397720E+03  0.17861538052E+03  0.37772886450E+03  0.00000000000E+00 0. -1.
        -13    1    3    3    0    0  0.24272969469E+03  0.38587462070E+03  0.37507616320E+03  0.59033808600E+03  0.00000000000E+00 0.  1.
          2    1    6    6  502    0 -0.20333758766E+03 -0.59189416813E+03  0.42139483956E+03  0.75449220780E+03  0.00000000000E+00 0. -1.
          3    1    5    5  503    0 -0.45931374401E+02  0.84382480676E+02  0.20055879323E+03  0.22238238181E+03  0.00000000000E+00 0. -1.
         -4    1    5    5    0  503 -0.64445758282E+01  0.11554857406E+03  0.11181821377E+03  0.16092333099E+03  0.00000000000E+00 0.  1.
         -1    1    6    6    0  502 -0.15756237153E+03 -0.27972548451E+03  0.21144186897E+03  0.38442152848E+03  0.00000000000E+00 0.  1.
<mgrwt>
<rscale>  0 0.19886703E+04</rscale>
<asrwt>0</asrwt>
<pdfrwt beam="1">  1        1 0.30686089E+00 0.19886703E+04</pdfrwt>
<pdfrwt beam="2">  1       -1 0.76260089E-01 0.19886703E+04</pdfrwt>
<totfact> 0.48173992E+00</totfact>
</mgrwt>
</event>
<event>
12    1  0.1519630E-007  0.1894330E+04  0.7818608E-02  0.8657684E-01
          1   -1    0    0  501    0  0.00000000000E+00  0.00000000000E+00  0.76563967377E+03  0.76563967377E+03  0.00000000000E+00 0. -1.
         -1   -1    0    0    0  501 -0.00000000000E+00 -0.00000000000E+00 -0.11717280246E+04  0.11717280246E+04  0.00000000000E+00 0.  1.
         23    2    1    2    0    0  0.16364737911E+03 -0.70032673331E+03 -0.26582742777E+03  0.77509694041E+03  0.11345945360E+03 0.  0.
        254    2    1    2    0    0 -0.16364737911E+03  0.70032673331E+03 -0.14026092303E+03  0.11622707579E+04  0.90219853144E+03 0.  0.
        -24    2    4    4    0    0 -0.32582044997E+03  0.20660895562E+03 -0.41262868716E+03  0.57048683654E+03  0.79665369041E+02 0.  0.
         24    2    4    4    0    0  0.16217307086E+03  0.49371777768E+03  0.27236776413E+03  0.59178392140E+03  0.77244169825E+02 0.  0.
         13    1    3    3    0    0  0.18646152720E+02 -0.87398697673E+01 -0.14171778510E+02  0.24998072744E+02  0.00000000000E+00 0.  1.
        -13    1    3    3    0    0  0.14500122639E+03 -0.69158686354E+03 -0.25165564926E+03  0.75009886767E+03  0.00000000000E+00 0. -1.
          2    1    6    6  502    0  0.15963656884E+03  0.45992624945E+03  0.27245789697E+03  0.55789720797E+03  0.00000000000E+00 0. -1.
          3    1    5    5  503    0 -0.27531896677E+03  0.20528153968E+03 -0.35933145999E+03  0.49705144818E+03  0.00000000000E+00 0. -1.
         -4    1    5    5    0  503 -0.50501483204E+02  0.13274159442E+01 -0.53297227171E+02  0.73435388356E+02  0.00000000000E+00 0.  1.
         -1    1    6    6    0  502  0.25365020283E+01  0.33791528234E+02 -0.90132834113E-01  0.33886713427E+02  0.00000000000E+00 0.  1.
<mgrwt>
<rscale>  0 0.18943299E+04</rscale>
<asrwt>0</asrwt>
<pdfrwt beam="1">  1        1 0.11779072E+00 0.18943299E+04</pdfrwt>
<pdfrwt beam="2">  1       -1 0.18026585E+00 0.18943299E+04</pdfrwt>
<totfact> 0.45985193E+00</totfact>
</mgrwt>
</event>
<event>
12    1  0.1519630E-007  0.1518912E+04  0.7818608E-02  0.8871973E-01
          1   -1    0    0  501    0  0.00000000000E+00  0.00000000000E+00  0.12491955280E+04  0.12491955280E+04  0.00000000000E+00 0. -1.
         -1   -1    0    0    0  501 -0.00000000000E+00 -0.00000000000E+00 -0.46171608279E+03  0.46171608279E+03  0.00000000000E+00 0.  1.
         23    2    1    2    0    0 -0.64912682309E+02  0.21655089017E+02 -0.28631521555E+03  0.30800737289E+03  0.90606511316E+02 0.  0.
        254    2    1    2    0    0  0.64912682309E+02 -0.21655089017E+02  0.10737946608E+04  0.14029042379E+04  0.90023481828E+03 0.  0.
        -24    2    4    4    0    0  0.59843717881E+02  0.15210556249E+03  0.11733644255E+04  0.11872186936E+04  0.77374277527E+02 0.  0.
         24    2    4    4    0    0  0.50689644274E+01 -0.17376065151E+03 -0.99569764693E+02  0.21568554430E+03  0.79922822551E+02 0.  0.
         13    1    3    3    0    0 -0.74327837794E+02  0.75903879639E+01 -0.12369280251E+03  0.14450657720E+03  0.00000000000E+00 0. -1.
        -13    1    3    3    0    0  0.94151554855E+01  0.14064701053E+02 -0.16262241303E+03  0.16350079569E+03  0.00000000000E+00 0.  1.
          2    1    6    6  502    0  0.32161215891E+02 -0.15515120724E+03 -0.83284754478E+02  0.17900444476E+03  0.00000000000E+00 0. -1.
          3    1    5    5  503    0  0.57796602553E+02  0.14792134447E+03  0.11714770121E+04  0.11821926921E+04  0.00000000000E+00 0. -1.
         -4    1    5    5    0  503  0.20471153280E+01  0.41842180248E+01  0.18874133241E+01  0.50260014625E+01  0.00000000000E+00 0.  1.
         -1    1    6    6    0  502 -0.27092251464E+02 -0.18609444265E+02 -0.16285010214E+02  0.36681099533E+02  0.00000000000E+00 0.  1.
<mgrwt>
<rscale>  0 0.15189123E+04</rscale>
<asrwt>0</asrwt>
<pdfrwt beam="1">  1        1 0.19218393E+00 0.15189123E+04</pdfrwt>
<pdfrwt beam="2">  1       -1 0.71033244E-01 0.15189123E+04</pdfrwt>
<totfact> 0.19026473E+01</totfact>
</mgrwt>
</event>
<event>
12    1  0.1519630E-007  0.1693049E+04  0.7818608E-02  0.8765339E-01
          2   -1    0    0  501    0  0.00000000000E+00  0.00000000000E+00  0.19652679451E+04  0.19652679451E+04  0.00000000000E+00 0. -1.
         -2   -1    0    0    0  501 -0.00000000000E+00 -0.00000000000E+00 -0.36463416619E+03  0.36463416619E+03  0.00000000000E+00 0.  1.
         23    2    1    2    0    0  0.58259072743E+03  0.13740473190E+03  0.58158530989E+03  0.84047078587E+03  0.99285714921E+02 0.  0.
        254    2    1    2    0    0 -0.58259072743E+03 -0.13740473190E+03  0.10190484691E+04  0.14894313255E+04  0.90645125348E+03 0.  0.
        -24    2    4    4    0    0  0.13650633145E+03 -0.20958865760E+03  0.34639158362E+02  0.26548356275E+03  0.81977233879E+02 0.  0.
         24    2    4    4    0    0 -0.71909705888E+03  0.72183925700E+02  0.98440931071E+03  0.12239477627E+04  0.81702727222E+02 0.  0.
         11    1    3    3    0    0  0.34450609777E+03  0.90946043904E+02  0.27832506188E+03  0.45212882497E+03  0.00000000000E+00 0.  1.
        -11    1    3    3    0    0  0.23808462966E+03  0.46458688000E+02  0.30326024801E+03  0.38834196090E+03  0.00000000000E+00 0. -1.
          2    1    6    6  502    0 -0.35665826531E+03  0.72991559704E+02  0.46416813347E+03  0.58990248528E+03  0.00000000000E+00 0. -1.
          3    1    5    5  503    0  0.14498012005E+03 -0.17708855016E+03  0.36897516014E+02  0.23182108726E+03  0.00000000000E+00 0. -1.
         -4    1    5    5    0  503 -0.84737885994E+01 -0.32500107440E+02 -0.22583576512E+01  0.33662475490E+02  0.00000000000E+00 0.  1.
         -1    1    6    6    0  502 -0.36243879357E+03 -0.80763400398E+00  0.52024117723E+03  0.63404527744E+03  0.00000000000E+00 0.  1.
<mgrwt>
<rscale>  0 0.16930491E+04</rscale>
<asrwt>0</asrwt>
<pdfrwt beam="1">  1        2 0.30234891E+00 0.16930491E+04</pdfrwt>
<pdfrwt beam="2">  1       -2 0.56097565E-01 0.16930491E+04</pdfrwt>
<totfact> 0.19842222E+01</totfact>
</mgrwt>
</event>
<event>
12    1  0.1519630E-007  0.1786724E+04  0.7818608E-02  0.8713391E-01
         -1   -1    0    0    0  501 -0.00000000000E+00  0.00000000000E+00  0.38446321686E+03  0.38446321686E+03  0.00000000000E+00 0.  1.
          1   -1    0    0  501    0  0.00000000000E+00 -0.00000000000E+00 -0.20758703767E+04  0.20758703767E+04  0.00000000000E+00 0. -1.
         23    2    1    2    0    0  0.39401959162E+03 -0.54209878908E+03 -0.64970625390E+03  0.93779229686E+03  0.90629134403E+02 0.  0.
        254    2    1    2    0    0 -0.39401959162E+03  0.54209878908E+03 -0.10417009059E+04  0.15225412967E+04  0.88536359029E+03 0.  0.
        -24    2    4    4    0    0 -0.28225091964E+03 -0.12173101321E+03 -0.68877615749E+03  0.75844300268E+03  0.79618917142E+02 0.  0.
         24    2    4    4    0    0 -0.11176867199E+03  0.66382980228E+03 -0.35292474845E+03  0.76409829402E+03  0.78282069611E+02 0.  0.
         11    1    3    3    0    0  0.31645787374E+03 -0.44826635006E+03 -0.48062258767E+03  0.72944251194E+03  0.00000000000E+00 0. -1.
        -11    1    3    3    0    0  0.77561717886E+02 -0.93832439014E+02 -0.16908366622E+03  0.20834978492E+03  0.00000000000E+00 0.  1.
          4    1    6    6  502    0  0.80403854558E+00  0.21317938016E+03 -0.10765051269E+03  0.23881944537E+03  0.00000000000E+00 0. -1.
          1    1    5    5  503    0  0.87182966852E+00 -0.57306215982E+01 -0.48196236140E+02  0.48543560736E+02  0.00000000000E+00 0. -1.
         -2    1    5    5    0  503 -0.28312274930E+03 -0.11600039161E+03 -0.64057992135E+03  0.70989944194E+03  0.00000000000E+00 0.  1.
         -3    1    6    6    0  502 -0.11257271053E+03  0.45065042212E+03 -0.24527423575E+03  0.52527884865E+03  0.00000000000E+00 0.  1.
<mgrwt>
<rscale>  0 0.17867242E+04</rscale>
<asrwt>0</asrwt>
<pdfrwt beam="1">  1        1 0.31936466E+00 0.17867242E+04</pdfrwt>
<pdfrwt beam="2">  1       -1 0.59148189E-01 0.17867242E+04</pdfrwt>
<totfact> 0.72455223E+00</totfact>
</mgrwt>
</event>
<event>
12    1  0.1985711E-007  0.2046251E+04  0.7818608E-02  0.8585297E-01
          2   -1    0    0  501    0  0.00000000000E+00  0.00000000000E+00  0.17114114260E+04  0.17114114260E+04  0.00000000000E+00 0. -1.
         -2   -1    0    0    0  501 -0.00000000000E+00 -0.00000000000E+00 -0.61165044768E+03  0.61165044768E+03  0.00000000000E+00 0.  1.
         23    2    1    2    0    0  0.51272411245E+03  0.29872666288E+02 -0.27882494971E+03  0.59136321439E+03  0.90491475157E+02 0.  0.
        254    2    1    2    0    0 -0.51272411245E+03 -0.29872666288E+02  0.13785859280E+04  0.17316986593E+04  0.91351118982E+03 0.  0.
        -24    2    4    4    0    0 -0.13299696736E+03 -0.13699078531E+02 -0.11038344018E+03  0.19291424890E+03  0.84590457403E+02 0.  0.
         24    2    4    4    0    0 -0.37972714509E+03 -0.16173587757E+02  0.14889693682E+04  0.15387844104E+04  0.79833530038E+02 0.  0.
         13    1    3    3    0    0  0.42050847138E+03 -0.92541121550E+01 -0.21268997369E+03  0.47132795165E+03  0.00000000000E+00 0. -1.
        -13    1    3    3    0    0  0.92215641068E+02  0.39126778443E+02 -0.66134976021E+02  0.12003526274E+03  0.00000000000E+00 0.  1.
          2    1    6    6  502    0 -0.17610082355E+01 -0.33967659339E+00  0.76858268355E+02  0.76879190583E+02  0.00000000000E+00 0. -1.
          1    1    5    5  503    0 -0.19732012831E+02  0.21407821793E+02  0.24652706186E+01  0.29218568128E+02  0.00000000000E+00 0. -1.
         -2    1    5    5    0  503 -0.11326495453E+03 -0.35106900323E+02 -0.11284871080E+03  0.16369568077E+03  0.00000000000E+00 0.  1.
         -1    1    6    6    0  502 -0.37796613685E+03 -0.15833911164E+02  0.14121110998E+04  0.14619052198E+04  0.00000000000E+00 0.  1.
<mgrwt>
<rscale>  0 0.20462508E+04</rscale>
<asrwt>0</asrwt>
<pdfrwt beam="1">  1        2 0.26329406E+00 0.20462508E+04</pdfrwt>
<pdfrwt beam="2">  1       -2 0.94100069E-01 0.20462508E+04</pdfrwt>
<totfact> 0.85247293E+00</totfact>
</mgrwt>
</event>
<event>
12    1  0.1519630E-007  0.1148944E+04  0.7818608E-02  0.9158759E-01
         -2   -1    0    0    0  501 -0.00000000000E+00  0.00000000000E+00  0.10438138686E+03  0.10438138686E+03  0.00000000000E+00 0.  1.
          2   -1    0    0  501    0  0.00000000000E+00 -0.00000000000E+00 -0.31616544022E+04  0.31616544022E+04  0.00000000000E+00 0. -1.
         23    2    1    2    0    0 -0.18416271179E+03  0.24797416752E+02 -0.37964395742E+03  0.43217794378E+03  0.90096750161E+02 0.  0.
        254    2    1    2    0    0  0.18416271179E+03 -0.24797416752E+02 -0.26776290579E+04  0.28338578453E+04  0.90913260812E+03 0.  0.
        -24    2    4    4    0    0  0.19011133088E+03  0.38444945009E+03 -0.80775549331E+03  0.91802357172E+03  0.79716017523E+02 0.  0.
         24    2    4    4    0    0 -0.59486190889E+01 -0.40924686684E+03 -0.18698735646E+04  0.19158342736E+04  0.80470069246E+02 0.  0.
         11    1    3    3    0    0 -0.16082145973E+03  0.82045084885E+01 -0.23598124393E+03  0.28568864758E+03  0.00000000000E+00 0. -1.
        -11    1    3    3    0    0 -0.23341252056E+02  0.16592908263E+02 -0.14366271349E+03  0.14648929619E+03  0.00000000000E+00 0.  1.
          4    1    6    6  502    0  0.14024809056E+01 -0.36303633342E+03 -0.15150624706E+04  0.15579511019E+04  0.00000000000E+00 0. -1.
          3    1    5    5  503    0  0.14307983139E+03  0.34890039001E+03 -0.68932468580E+03  0.78573013354E+03  0.00000000000E+00 0. -1.
         -4    1    5    5    0  503  0.47031499490E+02  0.35549060080E+02 -0.11843080751E+03  0.13229343818E+03  0.00000000000E+00 0.  1.
         -3    1    6    6    0  502 -0.73510999945E+01 -0.46210533420E+02 -0.35481109407E+03  0.35788317164E+03  0.00000000000E+00 0.  1.
<mgrwt>
<rscale>  0 0.11489436E+04</rscale>
<asrwt>0</asrwt>
<pdfrwt beam="1">  1        2 0.48640837E+00 0.11489436E+04</pdfrwt>
<pdfrwt beam="2">  1       -2 0.16058675E-01 0.11489436E+04</pdfrwt>
<totfact> 0.43376840E+01</totfact>
</mgrwt>
</event>
<event>
12    1  0.1519630E-007  0.1406577E+04  0.7818608E-02  0.8949072E-01
         -1   -1    0    0    0  501 -0.00000000000E+00  0.00000000000E+00  0.38155980436E+03  0.38155980436E+03  0.00000000000E+00 0.  1.
          1   -1    0    0  501    0  0.00000000000E+00 -0.00000000000E+00 -0.12962959129E+04  0.12962959129E+04  0.00000000000E+00 0. -1.
         23    2    1    2    0    0 -0.31969015181E+03 -0.97677310653E+02 -0.51220806942E+03  0.62472270160E+03  0.12719550830E+03 0.  0.
        254    2    1    2    0    0  0.31969015181E+03  0.97677310653E+02 -0.40252803915E+03  0.10531330157E+04  0.91395715231E+03 0.  0.
        -24    2    4    4    0    0  0.60796206834E+02  0.36499876879E+03  0.12922872729E+03  0.39985114200E+03  0.79123901655E+02 0.  0.
         24    2    4    4    0    0  0.25889394497E+03 -0.26732145814E+03 -0.53175676644E+03  0.65328187370E+03  0.74331091190E+02 0.  0.
         13    1    3    3    0    0 -0.27027702551E+03 -0.11836754664E+03 -0.47610744410E+03  0.56012395498E+03  0.00000000000E+00 0. -1.
        -13    1    3    3    0    0 -0.49413126295E+02  0.20690235987E+02 -0.36100625319E+02  0.64598746612E+02  0.00000000000E+00 0.  1.
          2    1    6    6  502    0  0.22775224268E+03 -0.20263734479E+03 -0.45947063845E+03  0.55140388568E+03  0.00000000000E+00 0. -1.
          3    1    5    5  503    0  0.63195838237E+02  0.33891869698E+03  0.96651998658E+02  0.35805195988E+03  0.00000000000E+00 0. -1.
         -4    1    5    5    0  503 -0.23996314032E+01  0.26080071814E+02  0.32576728637E+02  0.41799182114E+02  0.00000000000E+00 0.  1.
         -1    1    6    6    0  502  0.31141702297E+02 -0.64684113348E+02 -0.72286127990E+02  0.10187798801E+03  0.00000000000E+00 0.  1.
<mgrwt>
<rscale>  0 0.14065766E+04</rscale>
<asrwt>0</asrwt>
<pdfrwt beam="1">  1        1 0.19943014E+00 0.14065766E+04</pdfrwt>
<pdfrwt beam="2">  1       -1 0.58701508E-01 0.14065766E+04</pdfrwt>
<totfact> 0.26084114E+01</totfact>
</mgrwt>
</event>
<event>
12    1  0.1519630E-007  0.1411455E+04  0.7818608E-02  0.8945568E-01
          1   -1    0    0  501    0  0.00000000000E+00  0.00000000000E+00  0.41976213304E+03  0.41976213304E+03  0.00000000000E+00 0. -1.
         -1   -1    0    0    0  501 -0.00000000000E+00 -0.00000000000E+00 -0.11865089258E+04  0.11865089258E+04  0.00000000000E+00 0.  1.
         23    2    1    2    0    0  0.41359926274E+03  0.32151851599E+02 -0.17697343907E+03  0.45944753161E+03  0.87603335929E+02 0.  0.
        254    2    1    2    0    0 -0.41359926274E+03 -0.32151851599E+02 -0.58977335368E+03  0.11468235272E+04  0.89178108422E+03 0.  0.
        -24    2    4    4    0    0 -0.29944950750E+03  0.25908222166E+03 -0.69734153671E+03  0.80587003643E+03  0.79672402183E+02 0.  0.
         24    2    4    4    0    0 -0.11414975524E+03 -0.29123407326E+03  0.10756818303E+03  0.34095349079E+03  0.82649360751E+02 0.  0.
         13    1    3    3    0    0  0.34316316548E+03  0.28370768162E+02 -0.18059084671E+03  0.38881732541E+03  0.00000000000E+00 0.  1.
        -13    1    3    3    0    0  0.70436097265E+02  0.37810834369E+01  0.36174076352E+01  0.70630206200E+02  0.00000000000E+00 0. -1.
          4    1    6    6  502    0 -0.77435783810E+02 -0.88983199380E+02  0.41274851930E+02  0.12497169195E+03  0.00000000000E+00 0. -1.
          3    1    5    5  503    0 -0.86618284880E+02  0.12193671586E+03 -0.28878413611E+03  0.32521926022E+03  0.00000000000E+00 0. -1.
         -4    1    5    5    0  503 -0.21283122262E+03  0.13714550580E+03 -0.40855740060E+03  0.48065077621E+03  0.00000000000E+00 0.  1.
         -3    1    6    6    0  502 -0.36713971431E+02 -0.20225087388E+03  0.66293331101E+02  0.21598179884E+03  0.00000000000E+00 0.  1.
<mgrwt>
<rscale>  0 0.14114553E+04</rscale>
<asrwt>0</asrwt>
<pdfrwt beam="1">  1        1 0.64578791E-01 0.14114553E+04</pdfrwt>
<pdfrwt beam="2">  1       -1 0.18253983E+00 0.14114553E+04</pdfrwt>
<totfact> 0.10933479E+01</totfact>
</mgrwt>
</event>
<event>
12    1  0.1519630E-007  0.2257976E+04  0.7818608E-02  0.8494677E-01
          1   -1    0    0  501    0  0.00000000000E+00  0.00000000000E+00  0.40536417031E+03  0.40536417031E+03  0.00000000000E+00 0. -1.
         -1   -1    0    0    0  501 -0.00000000000E+00 -0.00000000000E+00 -0.31443688182E+04  0.31443688182E+04  0.00000000000E+00 0.  1.
         23    2    1    2    0    0 -0.49975367251E+03  0.80532077402E+03 -0.11657442590E+04  0.15045351631E+04  0.79819153949E+02 0.  0.
        254    2    1    2    0    0  0.49975367251E+03 -0.80532077402E+03 -0.15732603889E+04  0.20451978255E+04  0.89966138718E+03 0.  0.
        -24    2    4    4    0    0 -0.65634213541E+02 -0.62741609109E+03 -0.11441487696E+04  0.13090794395E+04  0.81570648312E+02 0.  0.
         24    2    4    4    0    0  0.56538788605E+03 -0.17790468293E+03 -0.42911161933E+03  0.73611838592E+03  0.80124642552E+02 0.  0.
         11    1    3    3    0    0 -0.28992121814E+03  0.47603314736E+03 -0.62308991901E+03  0.83600413712E+03  0.00000000000E+00 0.  1.
        -11    1    3    3    0    0 -0.20983245437E+03  0.32928762666E+03 -0.54265433995E+03  0.66853102594E+03  0.00000000000E+00 0. -1.
          2    1    6    6  502    0  0.18417212000E+03 -0.78996036878E+02 -0.18517545941E+03  0.27285471298E+03  0.00000000000E+00 0. -1.
          3    1    5    5  503    0 -0.72806547221E+02 -0.41294004902E+03 -0.70421394905E+03  0.81959597574E+03  0.00000000000E+00 0. -1.
         -2    1    5    5    0  503  0.71723336801E+01 -0.21447604206E+03 -0.43993482057E+03  0.48948346380E+03  0.00000000000E+00 0.  1.
         -1    1    6    6    0  502  0.38121576604E+03 -0.98908646056E+02 -0.24393615992E+03  0.46326367293E+03  0.00000000000E+00 0.  1.
<mgrwt>
<rscale>  0 0.22579765E+04</rscale>
<asrwt>0</asrwt>
<pdfrwt beam="1">  1        1 0.62363717E-01 0.22579765E+04</pdfrwt>
<pdfrwt beam="2">  1       -1 0.48374906E+00 0.22579765E+04</pdfrwt>
<totfact> 0.10164806E-01</totfact>
</mgrwt>
</event>
<event>
12    1  0.1519630E-007  0.1542073E+04  0.7818608E-02  0.8856947E-01
          2   -1    0    0  501    0  0.00000000000E+00  0.00000000000E+00  0.21015915410E+04  0.21015915410E+04  0.00000000000E+00 0. -1.
         -2   -1    0    0    0  501 -0.00000000000E+00 -0.00000000000E+00 -0.28287967285E+03  0.28287967285E+03  0.00000000000E+00 0.  1.
         23    2    1    2    0    0 -0.36641527636E+03 -0.22297253706E+03  0.19837003421E+03  0.48138708460E+03  0.91683955626E+02 0.  0.
        254    2    1    2    0    0  0.36641527636E+03  0.22297253706E+03  0.16203418339E+04  0.19030841292E+04  0.90124615788E+03 0.  0.
        -24    2    4    4    0    0  0.32341913325E+01  0.47479912431E+03  0.11792658705E+04  0.12736615005E+04  0.78108617007E+02 0.  0.
         24    2    4    4    0    0  0.36318108503E+03 -0.25182658725E+03  0.44107596342E+03  0.62942262873E+03  0.79421089632E+02 0.  0.
         13    1    3    3    0    0 -0.22815116730E+03 -0.14930409893E+03  0.77345821816E+02  0.28342026260E+03  0.00000000000E+00 0.  1.
        -13    1    3    3    0    0 -0.13826410906E+03 -0.73668438126E+02  0.12102421239E+03  0.19796682201E+03  0.00000000000E+00 0. -1.
          4    1    6    6  502    0  0.12085492097E+03 -0.54385367117E+02  0.94864570385E+02  0.16298149218E+03  0.00000000000E+00 0. -1.
          3    1    5    5  503    0 -0.26075565568E+02  0.78472086345E+02  0.23729397446E+03  0.25128914375E+03  0.00000000000E+00 0. -1.
         -4    1    5    5    0  503  0.29309756900E+02  0.39632703797E+03  0.94197189605E+03  0.10223723567E+04  0.00000000000E+00 0.  1.
         -3    1    6    6    0  502  0.24232616405E+03 -0.19744122014E+03  0.34621139303E+03  0.46644113654E+03  0.00000000000E+00 0.  1.
<mgrwt>
<rscale>  0 0.15420733E+04</rscale>
<asrwt>0</asrwt>
<pdfrwt beam="1">  1        2 0.32332177E+00 0.15420733E+04</pdfrwt>
<pdfrwt beam="2">  1       -2 0.43519951E-01 0.15420733E+04</pdfrwt>
<totfact> 0.28292469E+01</totfact>
</mgrwt>
</event>
<event>
12    1  0.1519630E-007  0.1390082E+04  0.7818608E-02  0.8961029E-01
         -2   -1    0    0    0  501 -0.00000000000E+00  0.00000000000E+00  0.17240628765E+03  0.17240628765E+03  0.00000000000E+00 0.  1.
          2   -1    0    0  501    0  0.00000000000E+00 -0.00000000000E+00 -0.28019964897E+04  0.28019964897E+04  0.00000000000E+00 0. -1.
         23    2    1    2    0    0 -0.20280895153E+03  0.13047891379E+03 -0.14388031154E+04  0.14616914149E+04  0.90725795329E+02 0.  0.
        254    2    1    2    0    0  0.20280895153E+03 -0.13047891379E+03 -0.11907870866E+04  0.15127113624E+04  0.90120228716E+03 0.  0.
        -24    2    4    4    0    0  0.12873696358E+03  0.42989418262E+02 -0.12785972400E+04  0.12883061681E+04  0.80626204231E+02 0.  0.
         24    2    4    4    0    0  0.74071987948E+02 -0.17346833205E+03  0.87810153342E+02  0.22440519427E+03  0.84078216923E+02 0.  0.
         11    1    3    3    0    0 -0.19719185425E+03  0.12774626632E+03 -0.14355466428E+04  0.14546470017E+04  0.00000000000E+00 0. -1.
        -11    1    3    3    0    0 -0.56170972824E+01  0.27326474686E+01 -0.32564725707E+01  0.70444132240E+01  0.00000000000E+00 0.  1.
          4    1    6    6  502    0  0.83165648936E+02 -0.12813675640E+03  0.91426832936E+02  0.17802926525E+03  0.00000000000E+00 0. -1.
          3    1    5    5  503    0  0.84974873975E+02  0.46583550781E+02 -0.11050280704E+04  0.11092690354E+04  0.00000000000E+00 0. -1.
         -4    1    5    5    0  503  0.43762089608E+02 -0.35941325187E+01 -0.17356916954E+03  0.17903713271E+03  0.00000000000E+00 0.  1.
         -3    1    6    6    0  502 -0.90936609886E+01 -0.45331575650E+02 -0.36166795944E+01  0.46375929019E+02  0.00000000000E+00 0.  1.
<mgrwt>
<rscale>  0 0.13900817E+04</rscale>
<asrwt>0</asrwt>
<pdfrwt beam="1">  1        2 0.43107634E+00 0.13900817E+04</pdfrwt>
<pdfrwt beam="2">  1       -2 0.26524047E-01 0.13900817E+04</pdfrwt>
<totfact> 0.29124057E+01</totfact>
</mgrwt>
</event>
<event>
12    1  0.1519630E-007  0.2021090E+04  0.7818608E-02  0.8596823E-01
          2   -1    0    0  501    0  0.00000000000E+00  0.00000000000E+00  0.54429985980E+03  0.54429985980E+03  0.00000000000E+00 0.  1.
         -2   -1    0    0    0  501 -0.00000000000E+00 -0.00000000000E+00 -0.18761742845E+04  0.18761742845E+04  0.00000000000E+00 0. -1.
         23    2    1    2    0    0 -0.21920835196E+03 -0.72579680382E+03 -0.23807676562E+03  0.79988231323E+03  0.91092626930E+02 0.  0.
        254    2    1    2    0    0  0.21920835196E+03  0.72579680382E+03 -0.10937976591E+04  0.16205918311E+04  0.92471144795E+03 0.  0.
        -24    2    4    4    0    0  0.47139348012E+03  0.32127053910E+03 -0.95909504164E+03  0.11187409018E+04  0.79317930745E+02 0.  0.
         24    2    4    4    0    0 -0.25218512815E+03  0.40452626472E+03 -0.13470261745E+03  0.50185092926E+03  0.80440800222E+02 0.  0.
         11    1    3    3    0    0 -0.18777194850E+03 -0.69373093358E+03 -0.22577074279E+03  0.75332153902E+03  0.00000000000E+00 0.  1.
        -11    1    3    3    0    0 -0.31436403464E+02 -0.32065870235E+02 -0.12306022829E+02  0.46560774205E+02  0.00000000000E+00 0. -1.
          2    1    6    6  502    0 -0.22692688650E+03  0.32270570513E+03 -0.87577502454E+02  0.40410964215E+03  0.00000000000E+00 0. -1.
          1    1    5    5  503    0  0.34672466342E+03  0.20283104363E+03 -0.62431944716E+03  0.74238345657E+03  0.00000000000E+00 0. -1.
         -4    1    5    5    0  503  0.12466881669E+03  0.11843949547E+03 -0.33477559449E+03  0.37635744527E+03  0.00000000000E+00 0.  1.
         -1    1    6    6    0  502 -0.25258241652E+02  0.81820559590E+02 -0.47125114992E+02  0.97741287110E+02  0.00000000000E+00 0.  1.
<mgrwt>
<rscale>  0 0.20210902E+04</rscale>
<asrwt>0</asrwt>
<pdfrwt beam="1">  1        2 0.83738440E-01 0.20210902E+04</pdfrwt>
<pdfrwt beam="2">  1       -2 0.28864220E+00 0.20210902E+04</pdfrwt>
<totfact> 0.19292405E+00</totfact>
</mgrwt>
</event>
<event>
12    1  0.1519630E-007  0.2548722E+04  0.7818608E-02  0.8385831E-01
          1   -1    0    0  501    0  0.00000000000E+00  0.00000000000E+00  0.89081118669E+03  0.89081118669E+03  0.00000000000E+00 0.  1.
         -1   -1    0    0    0  501 -0.00000000000E+00 -0.00000000000E+00 -0.18230527492E+04  0.18230527492E+04  0.00000000000E+00 0. -1.
         23    2    1    2    0    0 -0.10993764635E+04  0.17434624130E+03 -0.61175009809E+03  0.12733846016E+04  0.90801656033E+02 0.  0.
        254    2    1    2    0    0  0.10993764635E+04 -0.17434624130E+03 -0.32049146444E+03  0.14404793343E+04  0.85629475853E+03 0.  0.
        -24    2    4    4    0    0  0.33676439334E+03 -0.76650423514E+02 -0.53161097183E+03  0.63918967210E+03  0.81655786670E+02 0.  0.
         24    2    4    4    0    0  0.76261207016E+03 -0.97695817786E+02  0.21111950739E+03  0.80128966222E+03  0.79825021302E+02 0.  0.
         11    1    3    3    0    0 -0.10579505401E+04  0.18256299596E+03 -0.59839042639E+03  0.12290889696E+04  0.00000000000E+00 0. -1.
        -11    1    3    3    0    0 -0.41425923443E+02 -0.82167546574E+01 -0.13359671694E+02  0.44295632041E+02  0.00000000000E+00 0.  1.
          4    1    6    6  502    0  0.30103830807E+02 -0.20302609994E+02  0.74754787513E+01  0.37071813881E+02  0.00000000000E+00 0. -1.
          1    1    5    5  503    0  0.42569558270E+02 -0.28066329789E+02 -0.42615484432E+02  0.66452732619E+02  0.00000000000E+00 0. -1.
         -2    1    5    5    0  503  0.29419483507E+03 -0.48584093725E+02 -0.48899548740E+03  0.57273693948E+03  0.00000000000E+00 0.  1.
         -3    1    6    6    0  502  0.73250823935E+03 -0.77393207792E+02  0.20364402864E+03  0.76421784834E+03  0.00000000000E+00 0.  1.
<mgrwt>
<rscale>  0 0.25487219E+04</rscale>
<asrwt>0</asrwt>
<pdfrwt beam="1">  1        1 0.13704788E+00 0.25487219E+04</pdfrwt>
<pdfrwt beam="2">  1       -1 0.28046965E+00 0.25487219E+04</pdfrwt>
<totfact> 0.72397150E-01</totfact>
</mgrwt>
</event>
<event>
12    1  0.1519630E-007  0.2070280E+04  0.7818608E-02  0.8574449E-01
          3   -1    0    0  501    0  0.00000000000E+00  0.00000000000E+00  0.40097947802E+03  0.40097947802E+03  0.00000000000E+00 0. -1.
         -3   -1    0    0    0  501 -0.00000000000E+00 -0.00000000000E+00 -0.26722443555E+04  0.26722443555E+04  0.00000000000E+00 0.  1.
         23    2    1    2    0    0  0.61075582472E+03  0.50975035107E+03 -0.12805882705E+04  0.15100531225E+04  0.86521767346E+02 0.  0.
        254    2    1    2    0    0 -0.61075582472E+03 -0.50975035107E+03 -0.99067660695E+03  0.15631707111E+04  0.91060113908E+03 0.  0.
        -24    2    4    4    0    0 -0.13497058332E+03 -0.66346066431E+03 -0.70988923385E+03  0.98429258068E+03  0.80573249891E+02 0.  0.
         24    2    4    4    0    0 -0.47578524140E+03  0.15371031324E+03 -0.28078737310E+03  0.57887813037E+03  0.79119432513E+02 0.  0.
         13    1    3    3    0    0  0.16657127742E+03  0.10447252714E+03 -0.26799617395E+03  0.33238900198E+03  0.00000000000E+00 0. -1.
        -13    1    3    3    0    0  0.44418454730E+03  0.40527782393E+03 -0.10125920966E+04  0.11776641205E+04  0.00000000000E+00 0.  1.
          4    1    6    6  502    0 -0.44648965207E+02  0.22715216334E+02 -0.44446622323E+01  0.50291810163E+02  0.00000000000E+00 0. -1.
          3    1    5    5  503    0 -0.11764494225E+02 -0.66935008465E+02 -0.11047369696E+03  0.12970403387E+03  0.00000000000E+00 0. -1.
         -4    1    5    5    0  503 -0.12320608909E+03 -0.59652565584E+03 -0.59941553689E+03  0.85458854681E+03  0.00000000000E+00 0.  1.
         -3    1    6    6    0  502 -0.43113627620E+03  0.13099509690E+03 -0.27634271087E+03  0.52858632021E+03  0.00000000000E+00 0.  1.
<mgrwt>
<rscale>  0 0.20702803E+04</rscale>
<asrwt>0</asrwt>
<pdfrwt beam="1">  1        3 0.61689149E-01 0.20702803E+04</pdfrwt>
<pdfrwt beam="2">  1       -3 0.41111453E+00 0.20702803E+04</pdfrwt>
<totfact> 0.56933595E-02</totfact>
</mgrwt>
</event>
<event>
12    1  0.1519630E-007  0.1821674E+04  0.7818608E-02  0.8694857E-01
          1   -1    0    0  501    0  0.00000000000E+00  0.00000000000E+00  0.53390571694E+03  0.53390571694E+03  0.00000000000E+00 0. -1.
         -1   -1    0    0    0  501 -0.00000000000E+00 -0.00000000000E+00 -0.15538780207E+04  0.15538780207E+04  0.00000000000E+00 0.  1.
         23    2    1    2    0    0 -0.14199500952E+03 -0.59191053586E+03 -0.26982690494E+02  0.61596837601E+03  0.90378700301E+02 0.  0.
        254    2    1    2    0    0  0.14199500952E+03  0.59191053586E+03 -0.99298961324E+03  0.14718153616E+04  0.89982855115E+03 0.  0.
        -24    2    4    4    0    0  0.98241158066E+02  0.44990477203E+03 -0.11498697251E+04  0.12412107505E+04  0.79612270181E+02 0.  0.
         24    2    4    4    0    0  0.43753851453E+02  0.14200576383E+03  0.15688011183E+03  0.23060461108E+03  0.80542415427E+02 0.  0.
         13    1    3    3    0    0 -0.61422557525E+02 -0.25454889232E+03  0.33149745060E+02  0.26394464335E+03  0.00000000000E+00 0.  1.
        -13    1    3    3    0    0 -0.80572451994E+02 -0.33736164354E+03 -0.60132435553E+02  0.35202373266E+03  0.00000000000E+00 0. -1.
          2    1    6    6  502    0 -0.24685821960E+01  0.10933882404E+03  0.12320439231E+03  0.16474342059E+03  0.00000000000E+00 0. -1.
          3    1    5    5  503    0  0.11167725254E+03  0.39000278423E+03 -0.98399981846E+03  0.10643446919E+04  0.00000000000E+00 0. -1.
         -4    1    5    5    0  503 -0.13436094471E+02  0.59901987799E+02 -0.16586990662E+03  0.17686605864E+03  0.00000000000E+00 0.  1.
         -1    1    6    6    0  502  0.46222433649E+02  0.32666939788E+02  0.33675719518E+02  0.65861190488E+02  0.00000000000E+00 0.  1.
<mgrwt>
<rscale>  0 0.18216743E+04</rscale>
<asrwt>0</asrwt>
<pdfrwt beam="1">  1        1 0.82139341E-01 0.18216743E+04</pdfrwt>
<pdfrwt beam="2">  1       -1 0.23905816E+00 0.18216743E+04</pdfrwt>
<totfact> 0.31330434E+00</totfact>
</mgrwt>
</event>
<event>
12    1  0.1519630E-007  0.1695674E+04  0.7818608E-02  0.8763835E-01
          1   -1    0    0  501    0  0.00000000000E+00  0.00000000000E+00  0.20546136801E+04  0.20546136801E+04  0.00000000000E+00 0. -1.
         -1   -1    0    0    0  501 -0.00000000000E+00 -0.00000000000E+00 -0.34986020311E+03  0.34986020311E+03  0.00000000000E+00 0.  1.
         23    2    1    2    0    0  0.34163705825E+03 -0.33022509247E+03  0.86661735760E+02  0.49086646667E+03  0.87607878599E+02 0.  0.
        254    2    1    2    0    0 -0.34163705825E+03  0.33022509247E+03  0.16180917412E+04  0.19136074165E+04  0.90438264594E+03 0.  0.
        -24    2    4    4    0    0 -0.37987988278E+02 -0.19900777671E+03  0.10628170502E+04  0.10848832502E+04  0.79651754058E+02 0.  0.
         24    2    4    4    0    0 -0.30364906997E+03  0.52923286918E+03  0.55527469098E+03  0.82872416629E+03  0.78508431597E+02 0.  0.
         13    1    3    3    0    0  0.18533908182E+03 -0.21850258744E+03  0.84540700576E+02  0.29873246563E+03  0.00000000000E+00 0.  1.
        -13    1    3    3    0    0  0.15629797643E+03 -0.11172250503E+03  0.21210351846E+01  0.19213400104E+03  0.00000000000E+00 0. -1.
          4    1    6    6  502    0  0.31749349290E+01  0.87985633668E+01  0.21119173648E+01  0.95893234421E+01  0.00000000000E+00 0. -1.
          3    1    5    5  503    0  0.10028191536E+02 -0.18687663853E+02  0.25107108219E+03  0.25196523910E+03  0.00000000000E+00 0. -1.
         -4    1    5    5    0  503 -0.48016179814E+02 -0.18032011285E+03  0.81174596802E+03  0.83291801110E+03  0.00000000000E+00 0.  1.
         -3    1    6    6    0  502 -0.30682400490E+03  0.52043430581E+03  0.55316277362E+03  0.81913484285E+03  0.00000000000E+00 0.  1.
<mgrwt>
<rscale>  0 0.16956740E+04</rscale>
<asrwt>0</asrwt>
<pdfrwt beam="1">  1        1 0.31609440E+00 0.16956740E+04</pdfrwt>
<pdfrwt beam="2">  1       -1 0.53824648E-01 0.16956740E+04</pdfrwt>
<totfact> 0.90778238E+00</totfact>
</mgrwt>
</event>
<event>
12    1  0.1519630E-007  0.1580342E+04  0.7818608E-02  0.8832717E-01
         -1   -1    0    0    0  501 -0.00000000000E+00  0.00000000000E+00  0.29283382359E+03  0.29283382359E+03  0.00000000000E+00 0.  1.
          1   -1    0    0  501    0  0.00000000000E+00 -0.00000000000E+00 -0.21321648380E+04  0.21321648380E+04  0.00000000000E+00 0. -1.
         23    2    1    2    0    0  0.20709620777E+03 -0.48638746787E+03 -0.65246111031E+03  0.84469795141E+03  0.91364766096E+02 0.  0.
        254    2    1    2    0    0 -0.20709620777E+03  0.48638746787E+03 -0.11868699041E+04  0.15803007102E+04  0.89957131855E+03 0.  0.
        -24    2    4    4    0    0 -0.67727401217E+02  0.59738711103E+03 -0.12383449720E+04  0.13785043255E+04  0.72921494794E+02 0.  0.
         24    2    4    4    0    0 -0.13936880655E+03 -0.11099964316E+03  0.51475067834E+02  0.20179638475E+03  0.79545667807E+02 0.  0.
         13    1    3    3    0    0  0.46016859722E+02 -0.63900942715E+02 -0.57898557239E+02  0.97740087932E+02  0.00000000000E+00 0. -1.
        -13    1    3    3    0    0  0.16107934805E+03 -0.42248652516E+03 -0.59456255307E+03  0.74695786348E+03  0.00000000000E+00 0.  1.
          4    1    6    6  502    0 -0.15800158805E+02 -0.35881997610E+02  0.41121675763E+02  0.56816854791E+02  0.00000000000E+00 0. -1.
          1    1    5    5  503    0 -0.20548707252E+02  0.17634305775E+03 -0.44516932943E+03  0.47926491135E+03  0.00000000000E+00 0. -1.
         -2    1    5    5    0  503 -0.47178693965E+02  0.42104405328E+03 -0.79317564255E+03  0.89923941412E+03  0.00000000000E+00 0.  1.
         -3    1    6    6    0  502 -0.12356864774E+03 -0.75117645552E+02  0.10353392071E+02  0.14497952996E+03  0.00000000000E+00 0.  1.
<mgrwt>
<rscale>  0 0.15803417E+04</rscale>
<asrwt>0</asrwt>
<pdfrwt beam="1">  1        1 0.32802536E+00 0.15803417E+04</pdfrwt>
<pdfrwt beam="2">  1       -1 0.45051357E-01 0.15803417E+04</pdfrwt>
<totfact> 0.11390212E+01</totfact>
</mgrwt>
</event>
<event>
12    1  0.1519630E-007  0.1853289E+04  0.7818608E-02  0.8678463E-01
         -1   -1    0    0    0  501 -0.00000000000E+00  0.00000000000E+00  0.13524429752E+04  0.13524429752E+04  0.00000000000E+00 0.  1.
          1   -1    0    0  501    0  0.00000000000E+00 -0.00000000000E+00 -0.63490285487E+03  0.63490285487E+03  0.00000000000E+00 0. -1.
         23    2    1    2    0    0 -0.60001773420E+03 -0.41638232693E+03  0.24107068256E+03  0.77772492615E+03  0.11552256587E+03 0.  0.
        254    2    1    2    0    0  0.60001773420E+03  0.41638232693E+03  0.47646943776E+03  0.12096209039E+04  0.83831025435E+03 0.  0.
        -24    2    4    4    0    0  0.56912821919E+03  0.19890065590E+03  0.67100265089E+03  0.90572079871E+03  0.81346216450E+02 0.  0.
         24    2    4    4    0    0  0.30889515015E+02  0.21748167103E+03 -0.19453321312E+03  0.30390010521E+03  0.79118035665E+02 0.  0.
         11    1    3    3    0    0 -0.51140338534E+03 -0.30161590767E+03  0.20707482804E+03  0.62879691690E+03  0.00000000000E+00 0. -1.
        -11    1    3    3    0    0 -0.88614348867E+02 -0.11476641926E+03  0.33995854521E+02  0.14892800925E+03  0.00000000000E+00 0.  1.
          4    1    6    6  502    0  0.29295769160E+02  0.11611221186E+03 -0.55909804576E+02  0.13215972942E+03  0.00000000000E+00 0. -1.
          3    1    5    5  503    0  0.18539228724E+03  0.32150016379E+02  0.17679395544E+03  0.25818603061E+03  0.00000000000E+00 0. -1.
         -4    1    5    5    0  503  0.38373593195E+03  0.16675063952E+03  0.49420869545E+03  0.64753476810E+03  0.00000000000E+00 0.  1.
         -3    1    6    6    0  502  0.15937458549E+01  0.10136945917E+03 -0.13862340855E+03  0.17174037579E+03  0.00000000000E+00 0.  1.
<mgrwt>
<rscale>  0 0.18532889E+04</rscale>
<asrwt>0</asrwt>
<pdfrwt beam="1">  1        1 0.97677363E-01 0.18532889E+04</pdfrwt>
<pdfrwt beam="2">  1       -1 0.20806815E+00 0.18532889E+04</pdfrwt>
<totfact> 0.39242402E+00</totfact>
</mgrwt>
</event>
<event>
12    1  0.1519630E-007  0.1993674E+04  0.7818608E-02  0.8609584E-01
         -1   -1    0    0    0  501 -0.00000000000E+00  0.00000000000E+00  0.10497739509E+04  0.10497739509E+04  0.00000000000E+00 0.  1.
          1   -1    0    0  501    0  0.00000000000E+00 -0.00000000000E+00 -0.94656909458E+03  0.94656909458E+03  0.00000000000E+00 0. -1.
         23    2    1    2    0    0 -0.48747277107E+03  0.32468065588E+03  0.57520520375E+03  0.82602146398E+03  0.91668978929E+02 0.  0.
        254    2    1    2    0    0  0.48747277107E+03 -0.32468065588E+03 -0.47200034739E+03  0.11703215815E+04  0.89656067583E+03 0.  0.
        -24    2    4    4    0    0 -0.34709401277E+02 -0.23186229708E+03 -0.57283081468E+03  0.62438530302E+03  0.82200955172E+02 0.  0.
         24    2    4    4    0    0  0.52218217234E+03 -0.92818358805E+02  0.10083046729E+03  0.54593627852E+03  0.81179851106E+02 0.  0.
         11    1    3    3    0    0 -0.37370792687E+03  0.26767512811E+03  0.49540678652E+03  0.67582207196E+03  0.00000000000E+00 0.  1.
        -11    1    3    3    0    0 -0.11376484419E+03  0.57005527772E+02  0.79798417231E+02  0.15019939202E+03  0.00000000000E+00 0. -1.
          2    1    6    6  502    0  0.31825202934E+03 -0.61127944628E+02  0.10138291811E+03  0.33955776516E+03  0.00000000000E+00 0. -1.
          1    1    5    5  503    0  0.69378907101E+01 -0.28761947829E+01 -0.68850606125E+02  0.69259026760E+02  0.00000000000E+00 0. -1.
         -2    1    5    5    0  503 -0.41647291987E+02 -0.22898610229E+03 -0.50398020856E+03  0.55512627626E+03  0.00000000000E+00 0.  1.
         -1    1    6    6    0  502  0.20393014300E+03 -0.31690414177E+02 -0.55245081978E+00  0.20637851336E+03  0.00000000000E+00 0.  1.
<mgrwt>
<rscale>  0 0.19936736E+04</rscale>
<asrwt>0</asrwt>
<pdfrwt beam="1">  1        1 0.14562601E+00 0.19936736E+04</pdfrwt>
<pdfrwt beam="2">  1       -1 0.16150368E+00 0.19936736E+04</pdfrwt>
<totfact> 0.44075522E+00</totfact>
</mgrwt>
</event>
<event>
12    1  0.1519630E-007  0.1624527E+04  0.7818608E-02  0.8805620E-01
         -2   -1    0    0    0  501 -0.00000000000E+00  0.00000000000E+00  0.32365413478E+03  0.32365413478E+03  0.00000000000E+00 0.  1.
          2   -1    0    0  501    0  0.00000000000E+00 -0.00000000000E+00 -0.20385086706E+04  0.20385086706E+04  0.00000000000E+00 0. -1.
         23    2    1    2    0    0 -0.55226423088E+02  0.39883234604E+03 -0.16576587001E+03  0.44546525422E+03  0.94041325995E+02 0.  0.
        254    2    1    2    0    0  0.55226423088E+02 -0.39883234604E+03 -0.15490886658E+04  0.19166975512E+04  0.10544840492E+04 0.  0.
        -24    2    4    4    0    0  0.23306156764E+03  0.61191530641E+02 -0.13590639021E+04  0.13824728700E+04  0.78194939102E+02 0.  0.
         24    2    4    4    0    0 -0.17783514455E+03 -0.46002387668E+03 -0.19002476368E+03  0.53422468117E+03  0.77712890824E+02 0.  0.
         11    1    3    3    0    0  0.63922984536E+01  0.71780842652E+01 -0.21519311897E+02  0.23568350765E+02  0.00000000000E+00 0. -1.
        -11    1    3    3    0    0 -0.61618721541E+02  0.39165426178E+03 -0.14424655811E+03  0.42189690345E+03  0.00000000000E+00 0.  1.
          4    1    6    6  502    0 -0.18178690546E+03 -0.41788840390E+03 -0.16289252843E+03  0.48395368883E+03  0.00000000000E+00 0. -1.
          1    1    5    5  503    0  0.20926982521E+03  0.44409284411E+02 -0.12884948281E+04  0.13061335944E+04  0.00000000000E+00 0. -1.
         -2    1    5    5    0  503  0.23791742424E+02  0.16782246230E+02 -0.70569074018E+02  0.76339275631E+02  0.00000000000E+00 0.  1.
         -3    1    6    6    0  502  0.39517609120E+01 -0.42135472781E+02 -0.27132235256E+02  0.50270992339E+02  0.00000000000E+00 0.  1.
<mgrwt>
<rscale>  0 0.16245267E+04</rscale>
<asrwt>0</asrwt>
<pdfrwt beam="1">  1        2 0.31361672E+00 0.16245267E+04</pdfrwt>
<pdfrwt beam="2">  1       -2 0.49792943E-01 0.16245267E+04</pdfrwt>
<totfact> 0.23235701E+01</totfact>
</mgrwt>
</event>
<event>
12    1  0.1519630E-007  0.1126757E+04  0.7818608E-02  0.9179498E-01
          1   -1    0    0  501    0  0.00000000000E+00  0.00000000000E+00  0.12634614474E+04  0.12634614474E+04  0.00000000000E+00 0. -1.
         -1   -1    0    0    0  501 -0.00000000000E+00 -0.00000000000E+00 -0.25121103331E+03  0.25121103331E+03  0.00000000000E+00 0.  1.
         23    2    1    2    0    0 -0.81951610325E+02  0.48105521006E+02  0.38880034883E+03  0.41046070779E+03  0.91005899840E+02 0.  0.
        254    2    1    2    0    0  0.81951610325E+02 -0.48105521006E+02  0.62345006524E+03  0.11042117729E+04  0.90640137245E+03 0.  0.
        -24    2    4    4    0    0 -0.29036597557E+03 -0.14591349907E+03  0.62768458706E+03  0.71151436647E+03  0.81618649101E+02 0.  0.
         24    2    4    4    0    0  0.37231758590E+03  0.97807978060E+02 -0.42345218203E+01  0.39269740643E+03  0.77501848371E+02 0.  0.
         11    1    3    3    0    0 -0.88638526053E+02  0.28109993851E+02  0.20085167774E+03  0.22133313468E+03  0.00000000000E+00 0. -1.
        -11    1    3    3    0    0  0.66869157277E+01  0.19995527155E+02  0.18794867109E+03  0.18912757312E+03  0.00000000000E+00 0.  1.
          2    1    6    6  502    0  0.21614138019E+03  0.94580331692E+02 -0.12587888402E+02  0.23626466157E+03  0.00000000000E+00 0. -1.
          1    1    5    5  503    0 -0.71387022928E+02 -0.66153082379E+02  0.24266467082E+03  0.26145454637E+03  0.00000000000E+00 0. -1.
         -2    1    5    5    0  503 -0.21897895265E+03 -0.79760416687E+02  0.38501991624E+03  0.45005982010E+03  0.00000000000E+00 0.  1.
         -1    1    6    6    0  502  0.15617620571E+03  0.32276463681E+01  0.83533665819E+01  0.15643274486E+03  0.00000000000E+00 0.  1.
<mgrwt>
<rscale>  0 0.11267572E+04</rscale>
<asrwt>0</asrwt>
<pdfrwt beam="1">  1        1 0.19437868E+00 0.11267572E+04</pdfrwt>
<pdfrwt beam="2">  1       -1 0.38647852E-01 0.11267572E+04</pdfrwt>
<totfact> 0.61958559E+01</totfact>
</mgrwt>
</event>
<event>
12    1  0.1519630E-007  0.1510240E+04  0.7818608E-02  0.8877672E-01
         -2   -1    0    0    0  501 -0.00000000000E+00  0.00000000000E+00  0.24033702935E+03  0.24033702935E+03  0.00000000000E+00 0.  1.
          2   -1    0    0  501    0  0.00000000000E+00 -0.00000000000E+00 -0.23725259513E+04  0.23725259513E+04  0.00000000000E+00 0. -1.
         23    2    1    2    0    0  0.13195894292E+03  0.33480962286E+02 -0.15179515673E+04  0.15266277511E+04  0.88776080316E+02 0.  0.
        254    2    1    2    0    0 -0.13195894292E+03 -0.33480962286E+02 -0.61423735473E+03  0.10862352296E+04  0.88548591666E+03 0.  0.
        -24    2    4    4    0    0 -0.25302067944E+03 -0.83650361501E+02 -0.79945725056E+03  0.84609507764E+03  0.75684461609E+02 0.  0.
         24    2    4    4    0    0  0.12106173652E+03  0.50169399215E+02  0.18521989583E+03  0.24014015196E+03  0.78663651744E+02 0.  0.
         11    1    3    3    0    0  0.12226022971E+03  0.43136994804E+02 -0.14886804806E+04  0.14943152069E+04  0.00000000000E+00 0. -1.
        -11    1    3    3    0    0  0.96987132160E+01 -0.96560325180E+01 -0.29271086642E+02  0.32312544240E+02  0.00000000000E+00 0.  1.
          4    1    6    6  502    0  0.12743660223E+03  0.59592370575E+02  0.16407922368E+03  0.21613266727E+03  0.00000000000E+00 0. -1.
          3    1    5    5  503    0 -0.46520137801E+02 -0.48830786384E+02 -0.20773297059E+03  0.21840685884E+03  0.00000000000E+00 0. -1.
         -4    1    5    5    0  503 -0.20650054164E+03 -0.34819575117E+02 -0.59172427997E+03  0.62768821880E+03  0.00000000000E+00 0.  1.
         -3    1    6    6    0  502 -0.63748657118E+01 -0.94229713605E+01  0.21140672146E+02  0.24007484684E+02  0.00000000000E+00 0.  1.
<mgrwt>
<rscale>  0 0.15102395E+04</rscale>
<asrwt>0</asrwt>
<pdfrwt beam="1">  1        2 0.36500399E+00 0.15102395E+04</pdfrwt>
<pdfrwt beam="2">  1       -2 0.36974927E-01 0.15102395E+04</pdfrwt>
<totfact> 0.27483905E+01</totfact>
</mgrwt>
</event>
<event>
12    1  0.1519630E-007  0.1660931E+04  0.7818608E-02  0.8783966E-01
          2   -1    0    0  501    0  0.00000000000E+00  0.00000000000E+00  0.18114915047E+04  0.18114915047E+04  0.00000000000E+00 0. -1.
         -2   -1    0    0    0  501 -0.00000000000E+00 -0.00000000000E+00 -0.38072123634E+03  0.38072123634E+03  0.00000000000E+00 0.  1.
         23    2    1    2    0    0 -0.34269772379E+03  0.41249266860E+03  0.21262323253E+03  0.58371159674E+03  0.88986839565E+02 0.  0.
        254    2    1    2    0    0  0.34269772379E+03 -0.41249266860E+03  0.12181470359E+04  0.16085011443E+04  0.90321747039E+03 0.  0.
        -24    2    4    4    0    0  0.49843760731E+03 -0.54873923407E+03  0.11601224324E+04  0.13789800019E+04  0.78402756045E+02 0.  0.
         24    2    4    4    0    0 -0.15573988351E+03  0.13624656547E+03  0.58024603481E+02  0.22952114243E+03  0.80591949312E+02 0.  0.
         11    1    3    3    0    0 -0.30608839316E+03  0.32068846919E+03  0.19001390998E+03  0.48232404531E+03  0.00000000000E+00 0.  1.
        -11    1    3    3    0    0 -0.36609330634E+02  0.91804199410E+02  0.22609322548E+02  0.10138755143E+03  0.00000000000E+00 0. -1.
          4    1    6    6  502    0 -0.32440802163E+02  0.80407251778E+02  0.23528008544E+02  0.89840408333E+02  0.00000000000E+00 0. -1.
          1    1    5    5  503    0  0.60846143852E+02 -0.10833688312E+03  0.17783429768E+03  0.21694278254E+03  0.00000000000E+00 0. -1.
         -2    1    5    5    0  503  0.43759146346E+03 -0.44040235095E+03  0.98228813469E+03  0.11620372194E+04  0.00000000000E+00 0.  1.
         -1    1    6    6    0  502 -0.12329908135E+03  0.55839313695E+02  0.34496594937E+02  0.13968073410E+03  0.00000000000E+00 0.  1.
<mgrwt>
<rscale>  0 0.16609314E+04</rscale>
<asrwt>0</asrwt>
<pdfrwt beam="1">  1        2 0.27869100E+00 0.16609314E+04</pdfrwt>
<pdfrwt beam="2">  1       -2 0.58572499E-01 0.16609314E+04</pdfrwt>
<totfact> 0.22114083E+01</totfact>
</mgrwt>
</event>
<event>
12    1  0.1519630E-007  0.1291958E+04  0.7818608E-02  0.9035967E-01
         -2   -1    0    0    0  501 -0.00000000000E+00  0.00000000000E+00  0.44073712504E+03  0.44073712504E+03  0.00000000000E+00 0.  1.
          2   -1    0    0  501    0  0.00000000000E+00 -0.00000000000E+00 -0.94679788326E+03  0.94679788326E+03  0.00000000000E+00 0. -1.
         23    2    1    2    0    0 -0.24955195103E+03 -0.10799376504E+03 -0.29426292600E+03  0.41081773613E+03  0.90783881561E+02 0.  0.
        254    2    1    2    0    0  0.24955195103E+03  0.10799376504E+03 -0.21179783222E+03  0.97671727217E+03  0.91388154510E+03 0.  0.
        -24    2    4    4    0    0  0.19930881069E+03 -0.54400212048E+02  0.33340072489E+03  0.40025553877E+03  0.79781375482E+02 0.  0.
         24    2    4    4    0    0  0.50243140343E+02  0.16239397709E+03 -0.54519855711E+03  0.57646173339E+03  0.78552443924E+02 0.  0.
         13    1    3    3    0    0 -0.18827144475E+03 -0.38751060791E+02 -0.17533375682E+03  0.26017245799E+03  0.00000000000E+00 0. -1.
        -13    1    3    3    0    0 -0.61280506284E+02 -0.69242704254E+02 -0.11892916918E+03  0.15064527813E+03  0.00000000000E+00 0.  1.
          4    1    6    6  502    0  0.75592404520E+01  0.13401167992E+03 -0.42774510599E+03  0.44831032574E+03  0.00000000000E+00 0. -1.
          3    1    5    5  503    0  0.20624096584E+03 -0.57043526890E+02  0.32389182210E+03  0.38819481240E+03  0.00000000000E+00 0. -1.
         -4    1    5    5    0  503 -0.69321551525E+01  0.26433148427E+01  0.95089027928E+01  0.12060726377E+02  0.00000000000E+00 0.  1.
         -3    1    6    6    0  502  0.42683899891E+02  0.28382297175E+02 -0.11745345112E+03  0.12815140765E+03  0.00000000000E+00 0.  1.
<mgrwt>
<rscale>  0 0.12919582E+04</rscale>
<asrwt>0</asrwt>
<pdfrwt beam="1">  1        2 0.14566121E+00 0.12919582E+04</pdfrwt>
<pdfrwt beam="2">  1       -2 0.67805713E-01 0.12919582E+04</pdfrwt>
<totfact> 0.53326850E+01</totfact>
</mgrwt>
</event>
<event>
12    1  0.1519630E-007  0.1291851E+04  0.7818608E-02  0.9036053E-01
          2   -1    0    0  501    0  0.00000000000E+00  0.00000000000E+00  0.33212987974E+04  0.33212987974E+04  0.00000000000E+00 0. -1.
         -2   -1    0    0    0  501 -0.00000000000E+00 -0.00000000000E+00 -0.12561940945E+03  0.12561940945E+03  0.00000000000E+00 0.  1.
         23    2    1    2    0    0  0.16295173484E+03  0.20525981183E+03  0.15573406103E+04  0.15818885910E+04  0.91525295570E+02 0.  0.
        254    2    1    2    0    0 -0.16295173484E+03 -0.20525981183E+03  0.16383387777E+04  0.18650296158E+04  0.85176091672E+03 0.  0.
        -24    2    4    4    0    0  0.33091994765E+03 -0.69449565525E+02  0.44974824598E+03  0.56828533353E+03  0.79645976936E+02 0.  0.
         24    2    4    4    0    0 -0.49387168249E+03 -0.13581024630E+03  0.11885905317E+04  0.12967442823E+04  0.80278389818E+02 0.  0.
         13    1    3    3    0    0 -0.10824245018E+02  0.23005051912E+02  0.12136782693E+03  0.12400220203E+03  0.00000000000E+00 0.  1.
        -13    1    3    3    0    0  0.17377597986E+03  0.18225475992E+03  0.14359727833E+04  0.14578863890E+04  0.00000000000E+00 0. -1.
          2    1    6    6  502    0 -0.29174567606E+03 -0.11225281573E+03  0.77929024269E+03  0.83964844816E+03  0.00000000000E+00 0. -1.
          3    1    5    5  503    0  0.19562417113E+03 -0.39698207986E+02  0.19926882547E+03  0.28205111035E+03  0.00000000000E+00 0. -1.
         -4    1    5    5    0  503  0.13529577652E+03 -0.29751357538E+02  0.25047942051E+03  0.28623422318E+03  0.00000000000E+00 0.  1.
         -1    1    6    6    0  502 -0.20212600643E+03 -0.23557430572E+02  0.40930028900E+03  0.45709583413E+03  0.00000000000E+00 0.  1.
<mgrwt>
<rscale>  0 0.12918508E+04</rscale>
<asrwt>0</asrwt>
<pdfrwt beam="1">  1        2 0.51096898E+00 0.12918508E+04</pdfrwt>
<pdfrwt beam="2">  1       -2 0.19326066E-01 0.12918508E+04</pdfrwt>
<totfact> 0.24419562E+01</totfact>
</mgrwt>
</event>
<event>
12    1  0.1519630E-007  0.2347457E+04  0.7818608E-02  0.8459441E-01
          2   -1    0    0  501    0  0.00000000000E+00  0.00000000000E+00  0.22475473446E+04  0.22475473446E+04  0.00000000000E+00 0. -1.
         -2   -1    0    0    0  501 -0.00000000000E+00 -0.00000000000E+00 -0.61295208887E+03  0.61295208887E+03  0.00000000000E+00 0.  1.
         23    2    1    2    0    0  0.50202475272E+03 -0.64978358139E+03  0.13923416785E+04  0.16190668104E+04  0.92273679210E+02 0.  0.
        254    2    1    2    0    0 -0.50202475272E+03  0.64978358139E+03  0.24225357718E+03  0.12414326230E+04  0.89901090475E+03 0.  0.
        -24    2    4    4    0    0 -0.27076129459E+03  0.78356904535E+02  0.49094174809E+03  0.57179036873E+03  0.80429737169E+02 0.  0.
         24    2    4    4    0    0 -0.23126345813E+03  0.57142667685E+03 -0.24868817091E+03  0.66964225429E+03  0.81016716178E+02 0.  0.
         11    1    3    3    0    0  0.74717411518E+02 -0.77805304339E+02  0.13122220215E+03  0.16986943017E+03  0.00000000000E+00 0.  1.
        -11    1    3    3    0    0  0.42730734120E+03 -0.57197827705E+03  0.12611194764E+04  0.14491973802E+04  0.00000000000E+00 0. -1.
          4    1    6    6  502    0 -0.13516992445E+03  0.42486736009E+03 -0.19215825366E+03  0.48549765869E+03  0.00000000000E+00 0. -1.
          1    1    5    5  503    0 -0.23834050233E+03  0.59427361180E+02  0.36183182343E+03  0.43733291067E+03  0.00000000000E+00 0. -1.
         -2    1    5    5    0  503 -0.32420792252E+02  0.18929543356E+02  0.12910992466E+03  0.13445745806E+03  0.00000000000E+00 0.  1.
         -3    1    6    6    0  502 -0.96093533681E+02  0.14655931676E+03 -0.56529917251E+02  0.18414459560E+03  0.00000000000E+00 0.  1.
<mgrwt>
<rscale>  0 0.23474572E+04</rscale>
<asrwt>0</asrwt>
<pdfrwt beam="1">  1        2 0.34577651E+00 0.23474572E+04</pdfrwt>
<pdfrwt beam="2">  1       -2 0.94300322E-01 0.23474572E+04</pdfrwt>
<totfact> 0.41567681E+00</totfact>
</mgrwt>
</event>
<event>
12    1  0.1519630E-007  0.1751476E+04  0.7818608E-02  0.8732538E-01
          1   -1    0    0  501    0  0.00000000000E+00  0.00000000000E+00  0.26569783671E+04  0.26569783671E+04  0.00000000000E+00 0. -1.
         -1   -1    0    0    0  501 -0.00000000000E+00 -0.00000000000E+00 -0.28864248074E+03  0.28864248074E+03  0.00000000000E+00 0.  1.
         23    2    1    2    0    0  0.16845941601E+03 -0.60956567107E+03  0.10197991935E+04  0.12033372861E+04  0.89896311254E+02 0.  0.
        254    2    1    2    0    0 -0.16845941601E+03  0.60956567107E+03  0.13485366928E+04  0.17422835617E+04  0.90390924071E+03 0.  0.
        -24    2    4    4    0    0 -0.75525707943E+02 -0.21735488154E+03  0.47046522631E+03  0.52968377158E+03  0.79247029092E+02 0.  0.
         24    2    4    4    0    0 -0.92933708065E+02  0.82692055261E+03  0.87807146649E+03  0.12125997901E+04  0.83393503172E+02 0.  0.
         11    1    3    3    0    0  0.45351753994E+02 -0.66444455891E+02  0.10364737218E+03  0.13120375402E+03  0.00000000000E+00 0.  1.
        -11    1    3    3    0    0  0.12310766201E+03 -0.54312121518E+03  0.91615182134E+03  0.10721335321E+04  0.00000000000E+00 0. -1.
          4    1    6    6  502    0 -0.42677732135E+02  0.19052994365E+03  0.16608347950E+03  0.25633331897E+03  0.00000000000E+00 0. -1.
          1    1    5    5  503    0 -0.40516395257E+02 -0.66731395978E+02  0.23805072555E+03  0.25052505948E+03  0.00000000000E+00 0. -1.
         -2    1    5    5    0  503 -0.35009312687E+02 -0.15062348556E+03  0.23241450077E+03  0.27915871210E+03  0.00000000000E+00 0.  1.
         -3    1    6    6    0  502 -0.50255975931E+02  0.63639060896E+03  0.71198798699E+03  0.95626647118E+03  0.00000000000E+00 0.  1.
<mgrwt>
<rscale>  0 0.17514758E+04</rscale>
<asrwt>0</asrwt>
<pdfrwt beam="1">  1        1 0.40876589E+00 0.17514758E+04</pdfrwt>
<pdfrwt beam="2">  1       -1 0.44406537E-01 0.17514758E+04</pdfrwt>
<totfact> 0.50153188E+00</totfact>
</mgrwt>
</event>
<event>
12    1  0.1519630E-007  0.1413131E+04  0.7818608E-02  0.8944368E-01
         -1   -1    0    0    0  501 -0.00000000000E+00  0.00000000000E+00  0.73600492880E+03  0.73600492880E+03  0.00000000000E+00 0.  1.
          1   -1    0    0  501    0  0.00000000000E+00 -0.00000000000E+00 -0.67830365092E+03  0.67830365092E+03  0.00000000000E+00 0. -1.
         23    2    1    2    0    0 -0.90533783951E+01  0.13207933845E+03 -0.38544166655E+03  0.41768227768E+03  0.91467433907E+02 0.  0.
        254    2    1    2    0    0  0.90533783951E+01 -0.13207933845E+03  0.44314294444E+03  0.99662630204E+03  0.88281447734E+03 0.  0.
        -24    2    4    4    0    0 -0.17430109670E+03 -0.73518732414E+02 -0.21981025209E+03  0.30134051775E+03  0.81876030597E+02 0.  0.
         24    2    4    4    0    0  0.18335447510E+03 -0.58560606035E+02  0.66295319652E+03  0.69528578429E+03  0.82868407381E+02 0.  0.
         11    1    3    3    0    0 -0.15100971366E+02  0.12734166599E+03 -0.38872326203E+03  0.40932836902E+03  0.00000000000E+00 0. -1.
        -11    1    3    3    0    0  0.60475929707E+01  0.47376724537E+01  0.32815954819E+01  0.83539086615E+01  0.00000000000E+00 0.  1.
          2    1    6    6  502    0  0.17728252591E+02  0.10030028074E+02  0.23115942246E+02  0.30809725559E+02  0.00000000000E+00 0. -1.
          3    1    5    5  503    0 -0.13880986166E+03 -0.90454272863E+02 -0.16449237312E+03  0.23346925705E+03  0.00000000000E+00 0. -1.
         -4    1    5    5    0  503 -0.35491235042E+02  0.16935540450E+02 -0.55317878963E+02  0.67871260694E+02  0.00000000000E+00 0.  1.
         -1    1    6    6    0  502  0.16562622251E+03 -0.68590634109E+02  0.63983725428E+03  0.66447605873E+03  0.00000000000E+00 0.  1.
<mgrwt>
<rscale>  0 0.14131310E+04</rscale>
<asrwt>0</asrwt>
<pdfrwt beam="1">  1        1 0.10435441E+00 0.14131310E+04</pdfrwt>
<pdfrwt beam="2">  1       -1 0.11323153E+00 0.14131310E+04</pdfrwt>
<totfact> 0.19836167E+01</totfact>
</mgrwt>
</event>
<event>
12    1  0.1519630E-007  0.1692743E+04  0.7818608E-02  0.8765514E-01
          2   -1    0    0  501    0  0.00000000000E+00  0.00000000000E+00  0.17462365146E+04  0.17462365146E+04  0.00000000000E+00 0. -1.
         -2   -1    0    0    0  501 -0.00000000000E+00 -0.00000000000E+00 -0.41022203875E+03  0.41022203875E+03  0.00000000000E+00 0.  1.
         23    2    1    2    0    0  0.33574833969E+03 -0.32930649255E+03  0.17742806642E+02  0.47955775856E+03  0.92147289511E+02 0.  0.
        254    2    1    2    0    0 -0.33574833969E+03  0.32930649255E+03  0.13182716692E+04  0.16769007948E+04  0.92357261117E+03 0.  0.
        -24    2    4    4    0    0  0.29799951144E+03 -0.18110651634E+02  0.40490298143E+03  0.50939683318E+03  0.80043767760E+02 0.  0.
         24    2    4    4    0    0 -0.63374785113E+03  0.34741714418E+03  0.91336868776E+03  0.11675039616E+04  0.80548927384E+02 0.  0.
         11    1    3    3    0    0  0.14399514392E+03 -0.11815703639E+03 -0.34916882621E+02  0.18951220386E+03  0.00000000000E+00 0. -1.
        -11    1    3    3    0    0  0.19175319577E+03 -0.21114945616E+03  0.52659689263E+02  0.29004555470E+03  0.00000000000E+00 0.  1.
          4    1    6    6  502    0 -0.22066981342E+02 -0.73067052493E+00  0.17154120646E+02  0.27959781833E+02  0.00000000000E+00 0. -1.
          1    1    5    5  503    0  0.70400516156E+02  0.29076422589E+02  0.87944589831E+02  0.11634398096E+03  0.00000000000E+00 0. -1.
         -2    1    5    5    0  503  0.22759899528E+03 -0.47187074222E+02  0.31695839160E+03  0.39305285221E+03  0.00000000000E+00 0.  1.
         -3    1    6    6    0  502 -0.61168086978E+03  0.34814781471E+03  0.89621456711E+03  0.11395441798E+04  0.00000000000E+00 0.  1.
<mgrwt>
<rscale>  0 0.16927430E+04</rscale>
<asrwt>0</asrwt>
<pdfrwt beam="1">  1        2 0.26865177E+00 0.16927430E+04</pdfrwt>
<pdfrwt beam="2">  1       -2 0.63111084E-01 0.16927430E+04</pdfrwt>
<totfact> 0.20465100E+01</totfact>
</mgrwt>
</event>
<event>
12    1  0.1519630E-007  0.1775422E+04  0.7818608E-02  0.8719480E-01
         -2   -1    0    0    0  501 -0.00000000000E+00  0.00000000000E+00  0.44344063321E+03  0.44344063321E+03  0.00000000000E+00 0.  1.
          2   -1    0    0  501    0  0.00000000000E+00 -0.00000000000E+00 -0.17770824581E+04  0.17770824581E+04  0.00000000000E+00 0. -1.
         23    2    1    2    0    0  0.35754799586E+03 -0.37680611219E+03 -0.98882617499E+03  0.11206884885E+04  0.91334924302E+02 0.  0.
        254    2    1    2    0    0 -0.35754799586E+03  0.37680611219E+03 -0.34481564987E+03  0.10998346028E+04  0.90604354505E+03 0.  0.
        -24    2    4    4    0    0  0.15061006280E+02  0.48530146758E+03 -0.47358655522E+03  0.68317076172E+03  0.81815133330E+02 0.  0.
         24    2    4    4    0    0 -0.37260900214E+03 -0.10849535539E+03  0.12877090535E+03  0.41666384105E+03  0.80113043597E+02 0.  0.
         13    1    3    3    0    0  0.13654954675E+03 -0.16744456548E+03 -0.50192153796E+03  0.54645099643E+03  0.00000000000E+00 0. -1.
        -13    1    3    3    0    0  0.22099844911E+03 -0.20936154671E+03 -0.48690463703E+03  0.57423749208E+03  0.00000000000E+00 0.  1.
          4    1    6    6  502    0 -0.31330911811E+03 -0.59175809752E+02  0.10992966519E+03  0.33726682499E+03  0.00000000000E+00 0. -1.
          3    1    5    5  503    0  0.46686969861E+02  0.28891418029E+03 -0.26268977184E+03  0.39326453305E+03  0.00000000000E+00 0. -1.
         -2    1    5    5    0  503 -0.31625963581E+02  0.19638728729E+03 -0.21089678338E+03  0.28990622867E+03  0.00000000000E+00 0.  1.
         -1    1    6    6    0  502 -0.59299884036E+02 -0.49319545640E+02  0.18841240160E+02  0.79397016062E+02  0.00000000000E+00 0.  1.
<mgrwt>
<rscale>  0 0.17754217E+04</rscale>
<asrwt>0</asrwt>
<pdfrwt beam="1">  1        2 0.27339730E+00 0.17754217E+04</pdfrwt>
<pdfrwt beam="2">  1       -2 0.68221636E-01 0.17754217E+04</pdfrwt>
<totfact> 0.16523936E+01</totfact>
</mgrwt>
</event>
<event>
12    1  0.1519630E-007  0.3424790E+04  0.7818608E-02  0.8131849E-01
         -1   -1    0    0    0  501 -0.00000000000E+00  0.00000000000E+00  0.28875707031E+04  0.28875707031E+04  0.00000000000E+00 0.  1.
          1   -1    0    0  501    0  0.00000000000E+00 -0.00000000000E+00 -0.10154891068E+04  0.10154891068E+04  0.00000000000E+00 0. -1.
         23    2    1    2    0    0  0.10066367762E+04 -0.46345233616E+03 -0.44749972528E+03  0.11986955380E+04  0.92245983907E+02 0.  0.
        254    2    1    2    0    0 -0.10066367762E+04  0.46345233616E+03  0.23195813215E+04  0.27043642719E+04  0.83965644222E+03 0.  0.
        -24    2    4    4    0    0 -0.85188822156E+03  0.50330174742E+03  0.11417515517E+04  0.15130891500E+04  0.82558943057E+02 0.  0.
         24    2    4    4    0    0 -0.15474855464E+03 -0.39849411259E+02  0.11778297698E+04  0.11912751219E+04  0.79488103919E+02 0.  0.
         13    1    3    3    0    0  0.61159700041E+03 -0.29552513433E+03 -0.22741386025E+03  0.71631212454E+03  0.00000000000E+00 0.  1.
        -13    1    3    3    0    0  0.39503977579E+03 -0.16792720183E+03 -0.22008586503E+03  0.48238341344E+03  0.00000000000E+00 0. -1.
          2    1    6    6  502    0 -0.11986984545E+03  0.34260761905E+01  0.89869233262E+03  0.90665783323E+03  0.00000000000E+00 0. -1.
          1    1    5    5  503    0 -0.66591760546E+03  0.43077257196E+03  0.90049671697E+03  0.11999606674E+04  0.00000000000E+00 0. -1.
         -2    1    5    5    0  503 -0.18597061610E+03  0.72529175462E+02  0.24125483476E+03  0.31312848264E+03  0.00000000000E+00 0.  1.
         -1    1    6    6    0  502 -0.34878709189E+02 -0.43275487450E+02  0.27913743718E+03  0.28461728866E+03  0.00000000000E+00 0.  1.
<mgrwt>
<rscale>  0 0.34247900E+04</rscale>
<asrwt>0</asrwt>
<pdfrwt beam="1">  1        1 0.15622909E+00 0.34247900E+04</pdfrwt>
<pdfrwt beam="2">  1       -1 0.44424164E+00 0.34247900E+04</pdfrwt>
<totfact> 0.42798560E-02</totfact>
</mgrwt>
</event>
<event>
12    1  0.1519630E-007  0.1909266E+04  0.7818608E-02  0.8650258E-01
          1   -1    0    0  501    0  0.00000000000E+00  0.00000000000E+00  0.73305533612E+03  0.73305533612E+03  0.00000000000E+00 0. -1.
         -1   -1    0    0    0  501 -0.00000000000E+00 -0.00000000000E+00 -0.12431862673E+04  0.12431862673E+04  0.00000000000E+00 0.  1.
         23    2    1    2    0    0 -0.28565047186E+03  0.24020734730E+03 -0.86847055041E+03  0.94974589682E+03  0.92089140678E+02 0.  0.
        254    2    1    2    0    0  0.28565047186E+03 -0.24020734730E+03  0.35833961925E+03  0.10264957066E+04  0.88656099120E+03 0.  0.
        -24    2    4    4    0    0 -0.30676386224E+02  0.29328505664E+03  0.16599399084E+00  0.30579683451E+03  0.80959936523E+02 0.  0.
         24    2    4    4    0    0  0.31632685809E+03 -0.53349240395E+03  0.35817362526E+03  0.72069887207E+03  0.80260152943E+02 0.  0.
         11    1    3    3    0    0 -0.33757557517E+01  0.20763357889E+02 -0.99767456290E+02  0.10196106165E+03  0.00000000000E+00 0. -1.
        -11    1    3    3    0    0 -0.28227471611E+03  0.21944398941E+03 -0.76870309412E+03  0.84778483517E+03  0.00000000000E+00 0.  1.
          2    1    6    6  502    0  0.23461682129E+03 -0.45347736907E+03  0.30311398454E+03  0.59377172778E+03  0.00000000000E+00 0. -1.
          1    1    5    5  503    0 -0.93080612651E+01  0.26543270703E+03 -0.18122945742E+02  0.26621345407E+03  0.00000000000E+00 0. -1.
         -2    1    5    5    0  503 -0.21368324959E+02  0.27852349609E+02  0.18288939733E+02  0.39583380438E+02  0.00000000000E+00 0.  1.
         -1    1    6    6    0  502  0.81710036799E+02 -0.80015034876E+02  0.55059640722E+02  0.12692714428E+03  0.00000000000E+00 0.  1.
<mgrwt>
<rscale>  0 0.19092662E+04</rscale>
<asrwt>0</asrwt>
<pdfrwt beam="1">  1        1 0.11277775E+00 0.19092662E+04</pdfrwt>
<pdfrwt beam="2">  1       -1 0.19125942E+00 0.19092662E+04</pdfrwt>
<totfact> 0.41075605E+00</totfact>
</mgrwt>
</event>
<event>
12    1  0.1519630E-007  0.2415421E+04  0.7818608E-02  0.8433753E-01
         -2   -1    0    0    0  501 -0.00000000000E+00  0.00000000000E+00  0.81963400782E+03  0.81963400782E+03  0.00000000000E+00 0.  1.
          2   -1    0    0  501    0  0.00000000000E+00 -0.00000000000E+00 -0.17795312150E+04  0.17795312150E+04  0.00000000000E+00 0. -1.
         23    2    1    2    0    0 -0.73905461067E+03 -0.43182904544E+03 -0.10623415273E+04  0.13672793621E+04  0.90583062796E+02 0.  0.
        254    2    1    2    0    0  0.73905461067E+03  0.43182904544E+03  0.10244432017E+03  0.12318858607E+04  0.87998289362E+03 0.  0.
        -24    2    4    4    0    0  0.16644504372E+03 -0.23843860482E+03 -0.10987151776E+03  0.32088860212E+03  0.79629289278E+02 0.  0.
         24    2    4    4    0    0  0.57260956695E+03  0.67026765026E+03  0.21231583792E+03  0.91099725860E+03  0.87735688238E+02 0.  0.
         13    1    3    3    0    0 -0.61182673398E+03 -0.34404235614E+03 -0.91962336716E+03  0.11568942184E+04  0.00000000000E+00 0. -1.
        -13    1    3    3    0    0 -0.12722787668E+03 -0.87786689302E+02 -0.14271816015E+03  0.21038514363E+03  0.00000000000E+00 0.  1.
          2    1    6    6  502    0  0.14206335172E+02  0.45213785845E+02  0.55771043716E+01  0.47720126599E+02  0.00000000000E+00 0. -1.
          1    1    5    5  503    0  0.34568878731E+02 -0.20003304044E+02  0.64688395100E+01  0.40459676643E+02  0.00000000000E+00 0. -1.
         -2    1    5    5    0  503  0.13187616499E+03 -0.21843530077E+03 -0.11634035727E+03  0.28042892548E+03  0.00000000000E+00 0.  1.
         -1    1    6    6    0  502  0.55840323178E+03  0.62505386441E+03  0.20673873355E+03  0.86327713200E+03  0.00000000000E+00 0.  1.
<mgrwt>
<rscale>  0 0.24154207E+04</rscale>
<asrwt>0</asrwt>
<pdfrwt beam="1">  1        2 0.27377403E+00 0.24154207E+04</pdfrwt>
<pdfrwt beam="2">  1       -2 0.12609754E+00 0.24154207E+04</pdfrwt>
<totfact> 0.37317149E+00</totfact>
</mgrwt>
</event>
<event>
12    1  0.1519630E-007  0.2081985E+04  0.7818608E-02  0.8569221E-01
         -2   -1    0    0    0  501 -0.00000000000E+00  0.00000000000E+00  0.39252515655E+03  0.39252515655E+03  0.00000000000E+00 0.  1.
          2   -1    0    0  501    0  0.00000000000E+00 -0.00000000000E+00 -0.27607534753E+04  0.27607534753E+04  0.00000000000E+00 0. -1.
         23    2    1    2    0    0 -0.63184209573E+03 -0.30326065304E+03 -0.16754699152E+04  0.18184523039E+04  0.91530798149E+02 0.  0.
        254    2    1    2    0    0  0.63184209573E+03  0.30326065304E+03 -0.69275840355E+03  0.13348263280E+04  0.90036418334E+03 0.  0.
        -24    2    4    4    0    0  0.71598451908E+03 -0.93876908705E+02 -0.45772764911E+03  0.85895875238E+03  0.82757670250E+02 0.  0.
         24    2    4    4    0    0 -0.84142423350E+02  0.39713756174E+03 -0.23503075445E+03  0.47586757563E+03  0.80076860894E+02 0.  0.
         11    1    3    3    0    0 -0.52146983050E+03 -0.21537592466E+03 -0.13858540690E+04  0.14962984574E+04  0.00000000000E+00 0. -1.
        -11    1    3    3    0    0 -0.11037226522E+03 -0.87884728374E+02 -0.28961584628E+03  0.32215384652E+03  0.00000000000E+00 0.  1.
          4    1    6    6  502    0 -0.28348329741E+02  0.20880420823E+03 -0.79106617367E+02  0.22507927955E+03  0.00000000000E+00 0. -1.
          1    1    5    5  503    0  0.20993301074E+03 -0.10858407350E+01 -0.16505004616E+03  0.26704787171E+03  0.00000000000E+00 0. -1.
         -2    1    5    5    0  503  0.50605150834E+03 -0.92791067970E+02 -0.29267760295E+03  0.59191088067E+03  0.00000000000E+00 0.  1.
         -3    1    6    6    0  502 -0.55794093609E+02  0.18833335351E+03 -0.15592413708E+03  0.25078829608E+03  0.00000000000E+00 0.  1.
<mgrwt>
<rscale>  0 0.20819848E+04</rscale>
<asrwt>0</asrwt>
<pdfrwt beam="1">  1        2 0.42473130E+00 0.20819848E+04</pdfrwt>
<pdfrwt beam="2">  1       -2 0.60388487E-01 0.20819848E+04</pdfrwt>
<totfact> 0.57637322E+00</totfact>
</mgrwt>
</event>
<event>
12    1  0.1519630E-007  0.1833045E+04  0.7818608E-02  0.8688921E-01
          1   -1    0    0  501    0  0.00000000000E+00  0.00000000000E+00  0.28473055266E+04  0.28473055266E+04  0.00000000000E+00 0. -1.
         -1   -1    0    0    0  501 -0.00000000000E+00 -0.00000000000E+00 -0.29502039652E+03  0.29502039652E+03  0.00000000000E+00 0.  1.
         23    2    1    2    0    0 -0.39916844233E+03 -0.56341089215E+03  0.86112142570E+03  0.11073231623E+04  0.88697222841E+02 0.  0.
        254    2    1    2    0    0  0.39916844233E+03  0.56341089215E+03  0.16911637044E+04  0.20350027608E+04  0.89690260486E+03 0.  0.
        -24    2    4    4    0    0  0.33921137232E+03 -0.16502004799E+03  0.45905977307E+03  0.60026744783E+03  0.85376591172E+02 0.  0.
         24    2    4    4    0    0  0.59957070008E+02  0.72843094014E+03  0.12321039313E+04  0.14347353129E+04  0.78605571472E+02 0.  0.
         11    1    3    3    0    0 -0.94673908585E+02 -0.20509906813E+03  0.28530108047E+03  0.36390312342E+03  0.00000000000E+00 0.  1.
        -11    1    3    3    0    0 -0.30449453374E+03 -0.35831182401E+03  0.57582034523E+03  0.74342003893E+03  0.00000000000E+00 0. -1.
          2    1    6    6  502    0  0.22186052378E+02  0.43814770852E+03  0.80794236024E+03  0.91936744170E+03  0.00000000000E+00 0. -1.
          1    1    5    5  503    0  0.22672063712E+03 -0.13310455592E+03  0.26224329664E+03  0.37133625831E+03  0.00000000000E+00 0. -1.
         -2    1    5    5    0  503  0.11249073520E+03 -0.31915492074E+02  0.19681647643E+03  0.22893118952E+03  0.00000000000E+00 0.  1.
         -1    1    6    6    0  502  0.37771017630E+02  0.29028323162E+03  0.42416157108E+03  0.51536787124E+03  0.00000000000E+00 0.  1.
<mgrwt>
<rscale>  0 0.18330447E+04</rscale>
<asrwt>0</asrwt>
<pdfrwt beam="1">  1        1 0.43804699E+00 0.18330447E+04</pdfrwt>
<pdfrwt beam="2">  1       -1 0.45387755E-01 0.18330447E+04</pdfrwt>
<totfact> 0.35036004E+00</totfact>
</mgrwt>
</event>
<event>
12    1  0.1519630E-007  0.2588820E+04  0.7818608E-02  0.8372009E-01
         -1   -1    0    0    0  501 -0.00000000000E+00  0.00000000000E+00  0.78902012707E+03  0.78902012707E+03  0.00000000000E+00 0.  1.
          1   -1    0    0  501    0  0.00000000000E+00 -0.00000000000E+00 -0.21235163344E+04  0.21235163344E+04  0.00000000000E+00 0. -1.
         23    2    1    2    0    0 -0.21622896526E+03  0.71627606462E+03 -0.15545841178E+04  0.17275301366E+04  0.88443357303E+02 0.  0.
        254    2    1    2    0    0  0.21622896526E+03 -0.71627606462E+03  0.22008791051E+03  0.11850063248E+04  0.89218548259E+03 0.  0.
        -24    2    4    4    0    0  0.19841729057E+03 -0.84737811220E+03  0.38804436699E+03  0.95617016050E+03  0.79144544015E+02 0.  0.
         24    2    4    4    0    0  0.17811674684E+02  0.13110204758E+03 -0.16795645648E+03  0.22883616431E+03  0.81557441036E+02 0.  0.
         13    1    3    3    0    0 -0.17236772810E+03  0.46113649051E+03 -0.10805474186E+04  0.11874090367E+04  0.00000000000E+00 0. -1.
        -13    1    3    3    0    0 -0.43861237156E+02  0.25513957411E+03 -0.47403669924E+03  0.54012109996E+03  0.00000000000E+00 0.  1.
          4    1    6    6  502    0  0.18014767656E+02  0.71315326839E+00 -0.49472328738E+02  0.52655025895E+02  0.00000000000E+00 0. -1.
          3    1    5    5  503    0  0.86407094140E+02 -0.50179271656E+03  0.25329037172E+03  0.56869862732E+03  0.00000000000E+00 0. -1.
         -4    1    5    5    0  503  0.11201019643E+03 -0.34558539563E+03  0.13475399527E+03  0.38747153318E+03  0.00000000000E+00 0.  1.
         -3    1    6    6    0  502 -0.20309297239E+00  0.13038889431E+03 -0.11848412775E+03  0.17618113842E+03  0.00000000000E+00 0.  1.
<mgrwt>
<rscale>  0 0.25888199E+04</rscale>
<asrwt>0</asrwt>
<pdfrwt beam="1">  1        1 0.32669481E+00 0.25888199E+04</pdfrwt>
<pdfrwt beam="2">  1       -1 0.12138772E+00 0.25888199E+04</pdfrwt>
<totfact> 0.13029122E+00</totfact>
</mgrwt>
</event>
<event>
12    1  0.1519630E-007  0.1932771E+04  0.7818608E-02  0.8638714E-01
         -1   -1    0    0    0  501 -0.00000000000E+00  0.00000000000E+00  0.82567250023E+03  0.82567250023E+03  0.00000000000E+00 0.  1.
          1   -1    0    0  501    0  0.00000000000E+00 -0.00000000000E+00 -0.11310793351E+04  0.11310793351E+04  0.00000000000E+00 0. -1.
         23    2    1    2    0    0  0.64960406734E+03 -0.20391849512E+03 -0.50280981579E+03  0.85135817456E+03  0.91786892214E+02 0.  0.
        254    2    1    2    0    0 -0.64960406734E+03  0.20391849512E+03  0.19740298094E+03  0.11053936607E+04  0.84815034715E+03 0.  0.
        -24    2    4    4    0    0  0.94886047729E+02  0.13303806754E+03  0.29560986028E+03  0.34692207004E+03  0.79165925261E+02 0.  0.
         24    2    4    4    0    0 -0.74449011507E+03  0.70880427585E+02 -0.98206879333E+02  0.75847159070E+03  0.79655485050E+02 0.  0.
         13    1    3    3    0    0  0.26943894559E+02 -0.30342522345E+02 -0.31824928346E+02  0.51570031806E+02  0.00000000000E+00 0. -1.
        -13    1    3    3    0    0  0.62266017278E+03 -0.17357597278E+03 -0.47098488744E+03  0.79978814275E+03  0.00000000000E+00 0.  1.
          2    1    6    6  502    0 -0.25502831337E+03  0.33609667828E+02  0.30808757588E+01  0.25725190415E+03  0.00000000000E+00 0. -1.
          1    1    5    5  503    0  0.22374944528E+02  0.55330611203E+02  0.45129068105E+02  0.74824778427E+02  0.00000000000E+00 0. -1.
         -2    1    5    5    0  503  0.72511103201E+02  0.77707456334E+02  0.25048079217E+03  0.27209729162E+03  0.00000000000E+00 0.  1.
         -1    1    6    6    0  502 -0.48946180170E+03  0.37270759757E+02 -0.10128775509E+03  0.50121968655E+03  0.00000000000E+00 0.  1.
<mgrwt>
<rscale>  0 0.19327712E+04</rscale>
<asrwt>0</asrwt>
<pdfrwt beam="1">  1        1 0.17401220E+00 0.19327712E+04</pdfrwt>
<pdfrwt beam="2">  1       -1 0.12702654E+00 0.19327712E+04</pdfrwt>
<totfact> 0.60273899E+00</totfact>
</mgrwt>
</event>
<event>
12    1  0.1519630E-007  0.1650241E+04  0.7818608E-02  0.8790264E-01
          1   -1    0    0  501    0  0.00000000000E+00  0.00000000000E+00  0.13145442481E+04  0.13145442481E+04  0.00000000000E+00 0. -1.
         -1   -1    0    0    0  501 -0.00000000000E+00 -0.00000000000E+00 -0.51791620590E+03  0.51791620590E+03  0.00000000000E+00 0.  1.
         23    2    1    2    0    0  0.29671720920E+03  0.50017665002E+02  0.82353404898E+03  0.88151576924E+03  0.91207743967E+02 0.  0.
        254    2    1    2    0    0 -0.29671720920E+03 -0.50017665002E+02 -0.26906006740E+02  0.95094468479E+03  0.90168120269E+03 0.  0.
        -24    2    4    4    0    0 -0.17756680523E+03  0.16171738163E+03 -0.41483220045E+03  0.48611108069E+03  0.80843963240E+02 0.  0.
         24    2    4    4    0    0 -0.11915040397E+03 -0.21173504663E+03  0.38792619371E+03  0.46483360411E+03  0.80962948303E+02 0.  0.
         11    1    3    3    0    0  0.17282428140E+03 -0.16812705799E+02  0.45898660477E+03  0.49073373909E+03  0.00000000000E+00 0.  1.
        -11    1    3    3    0    0  0.12389292780E+03  0.66830370800E+02  0.36454744420E+03  0.39078203016E+03  0.00000000000E+00 0. -1.
          2    1    6    6  502    0 -0.15291836919E+02 -0.62194887692E+02  0.51043869044E+02  0.81899456032E+02  0.00000000000E+00 0. -1.
          1    1    5    5  503    0 -0.38377329213E+02  0.78574625014E+02 -0.10695175928E+03  0.13815017158E+03  0.00000000000E+00 0. -1.
         -2    1    5    5    0  503 -0.13918947602E+03  0.83142756619E+02 -0.30788044117E+03  0.34796090911E+03  0.00000000000E+00 0.  1.
         -1    1    6    6    0  502 -0.10385856705E+03 -0.14954015894E+03  0.33688232467E+03  0.38293414807E+03  0.00000000000E+00 0.  1.
<mgrwt>
<rscale>  0 0.16502409E+04</rscale>
<asrwt>0</asrwt>
<pdfrwt beam="1">  1        1 0.20223757E+00 0.16502409E+04</pdfrwt>
<pdfrwt beam="2">  1       -1 0.79679417E-01 0.16502409E+04</pdfrwt>
<totfact> 0.13277969E+01</totfact>
</mgrwt>
</event>
<event>
12    1  0.1519630E-007  0.1681043E+04  0.7818608E-02  0.8772250E-01
         -2   -1    0    0    0  501 -0.00000000000E+00  0.00000000000E+00  0.61743099012E+03  0.61743099012E+03  0.00000000000E+00 0.  1.
          2   -1    0    0  501    0  0.00000000000E+00 -0.00000000000E+00 -0.11442198107E+04  0.11442198107E+04  0.00000000000E+00 0. -1.
         23    2    1    2    0    0  0.39891526805E+02 -0.44709397533E+03  0.22463075641E+03  0.51045743072E+03  0.92862560625E+02 0.  0.
        254    2    1    2    0    0 -0.39891526805E+02  0.44709397533E+03 -0.75141957700E+03  0.12511933701E+04  0.89407444434E+03 0.  0.
        -24    2    4    4    0    0  0.14718108569E+03  0.16832411142E+03  0.15337144018E+03  0.28282199709E+03  0.80437583913E+02 0.  0.
         24    2    4    4    0    0 -0.18707261250E+03  0.27876986390E+03 -0.90479101718E+03  0.96837137302E+03  0.79922036714E+02 0.  0.
         11    1    3    3    0    0 -0.22268237668E+02 -0.12770940904E+03  0.36805376638E+02  0.13475979859E+03  0.00000000000E+00 0. -1.
        -11    1    3    3    0    0  0.62159764472E+02 -0.31938456629E+03  0.18782537977E+03  0.37569763213E+03  0.00000000000E+00 0.  1.
          2    1    6    6  502    0  0.78541911039E+01  0.16174436877E+02 -0.42535808232E+02  0.46180035817E+02  0.00000000000E+00 0. -1.
          3    1    5    5  503    0 -0.88354777822E+01  0.60817979310E+01  0.51319055101E+00  0.10738589212E+02  0.00000000000E+00 0. -1.
         -4    1    5    5    0  503  0.15601656347E+03  0.16224231349E+03  0.15285824962E+03  0.27208340788E+03  0.00000000000E+00 0.  1.
         -1    1    6    6    0  502 -0.19492680360E+03  0.26259542703E+03 -0.86225520895E+03  0.92219133720E+03  0.00000000000E+00 0.  1.
<mgrwt>
<rscale>  0 0.16810435E+04</rscale>
<asrwt>0</asrwt>
<pdfrwt beam="1">  1        2 0.17603381E+00 0.16810435E+04</pdfrwt>
<pdfrwt beam="2">  1       -2 0.94989384E-01 0.16810435E+04</pdfrwt>
<totfact> 0.18186457E+01</totfact>
</mgrwt>
</event>
<event>
12    1  0.1519630E-007  0.1881434E+04  0.7818608E-02  0.8664154E-01
          1   -1    0    0  501    0  0.00000000000E+00  0.00000000000E+00  0.19940686309E+04  0.19940686309E+04  0.00000000000E+00 0. -1.
         -1   -1    0    0    0  501 -0.00000000000E+00 -0.00000000000E+00 -0.44379021503E+03  0.44379021503E+03  0.00000000000E+00 0.  1.
         23    2    1    2    0    0  0.43143795100E+02 -0.72348528323E+03  0.44142579543E+03  0.85354019058E+03  0.91552072400E+02 0.  0.
        254    2    1    2    0    0 -0.43143795100E+02  0.72348528323E+03  0.11088526205E+04  0.15843186554E+04  0.86903344338E+03 0.  0.
        -24    2    4    4    0    0 -0.38625553638E+03  0.50377988929E+03  0.37669315876E+03  0.74258336316E+03  0.80899932908E+02 0.  0.
         24    2    4    4    0    0  0.34311174128E+03  0.21970539394E+03  0.73215946170E+03  0.84173529220E+03  0.80403343509E+02 0.  0.
         11    1    3    3    0    0  0.40623677824E+02 -0.66082533078E+03  0.36982810995E+03  0.75836220364E+03  0.00000000000E+00 0. -1.
        -11    1    3    3    0    0  0.25201172760E+01 -0.62659952455E+02  0.71597685485E+02  0.95177986949E+02  0.00000000000E+00 0.  1.
          2    1    6    6  502    0  0.21391578940E+03  0.18154413550E+03  0.49595460401E+03  0.56981506415E+03  0.00000000000E+00 0. -1.
          1    1    5    5  503    0 -0.14665224111E+03  0.14089746111E+03  0.94971946905E+02  0.22445187695E+03  0.00000000000E+00 0. -1.
         -2    1    5    5    0  503 -0.23960329528E+03  0.36288242818E+03  0.28172121185E+03  0.51813148620E+03  0.00000000000E+00 0.  1.
         -1    1    6    6    0  502  0.12919595189E+03  0.38161258438E+02  0.23620485769E+03  0.27192022806E+03  0.00000000000E+00 0.  1.
<mgrwt>
<rscale>  0 0.18814337E+04</rscale>
<asrwt>0</asrwt>
<pdfrwt beam="1">  1        1 0.30677978E+00 0.18814337E+04</pdfrwt>
<pdfrwt beam="2">  1       -1 0.68275419E-01 0.18814337E+04</pdfrwt>
<totfact> 0.61206777E+00</totfact>
</mgrwt>
</event>
<event>
12    1  0.1519630E-007  0.1276610E+04  0.7818608E-02  0.9048322E-01
          1   -1    0    0  501    0  0.00000000000E+00  0.00000000000E+00  0.29378597292E+04  0.29378597292E+04  0.00000000000E+00 0. -1.
         -1   -1    0    0    0  501 -0.00000000000E+00 -0.00000000000E+00 -0.13868362166E+03  0.13868362166E+03  0.00000000000E+00 0.  1.
         23    2    1    2    0    0  0.18754158657E+03 -0.16699606577E+03  0.21885351261E+03  0.34276380862E+03  0.80812349586E+02 0.  0.
        254    2    1    2    0    0 -0.18754158657E+03  0.16699606577E+03  0.25803225949E+04  0.27337795422E+04  0.86742513162E+03 0.  0.
        -24    2    4    4    0    0 -0.48581220526E+03 -0.88475072179E+02  0.13285910687E+04  0.14194751389E+04  0.76903218719E+02 0.  0.
         24    2    4    4    0    0  0.29827061870E+03  0.25547113795E+03  0.12517315263E+04  0.13143044033E+04  0.79582576426E+02 0.  0.
         13    1    3    3    0    0  0.13496588279E+03 -0.16210425805E+03  0.17797264068E+03  0.27598521849E+03  0.00000000000E+00 0.  1.
        -13    1    3    3    0    0  0.52575703776E+02 -0.48918077232E+01  0.40880871925E+02  0.66778590130E+02  0.00000000000E+00 0. -1.
          4    1    6    6  502    0  0.16831173091E+03  0.16700885323E+03  0.86317890876E+03  0.89515284971E+03  0.00000000000E+00 0. -1.
          1    1    5    5  503    0 -0.37700717315E+03 -0.42900650263E+02  0.10688236875E+04  0.11341776533E+04  0.00000000000E+00 0. -1.
         -2    1    5    5    0  503 -0.10880503212E+03 -0.45574421916E+02  0.25976738121E+03  0.28529748560E+03  0.00000000000E+00 0.  1.
         -3    1    6    6    0  502  0.12995888779E+03  0.88462284728E+02  0.38855261750E+03  0.41915155362E+03  0.00000000000E+00 0.  1.
<mgrwt>
<rscale>  0 0.12766096E+04</rscale>
<asrwt>0</asrwt>
<pdfrwt beam="1">  1        1 0.45197837E+00 0.12766096E+04</pdfrwt>
<pdfrwt beam="2">  1       -1 0.21335944E-01 0.12766096E+04</pdfrwt>
<totfact> 0.12096495E+01</totfact>
</mgrwt>
</event>
<event>
12    1  0.1519630E-007  0.2153759E+04  0.7818608E-02  0.8537925E-01
          1   -1    0    0  501    0  0.00000000000E+00  0.00000000000E+00  0.10521987147E+04  0.10521987147E+04  0.00000000000E+00 0. -1.
         -1   -1    0    0    0  501 -0.00000000000E+00 -0.00000000000E+00 -0.11021392348E+04  0.11021392348E+04  0.00000000000E+00 0.  1.
         23    2    1    2    0    0  0.21303594637E+03  0.84762144400E+03 -0.16324096311E+03  0.89375877383E+03  0.91163079032E+02 0.  0.
        254    2    1    2    0    0 -0.21303594637E+03 -0.84762144400E+03  0.11330044296E+03  0.12605791757E+04  0.90131927812E+03 0.  0.
        -24    2    4    4    0    0  0.34088285752E+03 -0.21235388624E+03  0.36939042114E+02  0.41076118559E+03  0.77877873642E+02 0.  0.
         24    2    4    4    0    0 -0.55391880389E+03 -0.63526755776E+03  0.76361400845E+02  0.84981799013E+03  0.77256983854E+02 0.  0.
         11    1    3    3    0    0  0.21582967805E+03  0.76347989754E+03 -0.13399551544E+03  0.80463581951E+03  0.00000000000E+00 0. -1.
        -11    1    3    3    0    0 -0.27937316775E+01  0.84141546465E+02 -0.29245447666E+02  0.89122954323E+02  0.00000000000E+00 0.  1.
          2    1    6    6  502    0 -0.45845270684E+02 -0.90242647079E+02  0.61754054891E+01  0.10140838145E+03  0.00000000000E+00 0. -1.
          1    1    5    5  503    0  0.83000945225E+02 -0.93111333343E+02  0.47233970053E+01  0.12482462812E+03  0.00000000000E+00 0. -1.
         -2    1    5    5    0  503  0.25788191230E+03 -0.11924255290E+03  0.32215645109E+02  0.28593655748E+03  0.00000000000E+00 0.  1.
         -3    1    6    6    0  502 -0.50807353321E+03 -0.54502491068E+03  0.70185995355E+02  0.74840960867E+03  0.00000000000E+00 0.  1.
<mgrwt>
<rscale>  0 0.21537590E+04</rscale>
<asrwt>0</asrwt>
<pdfrwt beam="1">  1        1 0.16187673E+00 0.21537590E+04</pdfrwt>
<pdfrwt beam="2">  1       -1 0.16955988E+00 0.21537590E+04</pdfrwt>
<totfact> 0.31285446E+00</totfact>
</mgrwt>
</event>
<event>
12    1  0.1519630E-007  0.1829129E+04  0.7818608E-02  0.8690961E-01
          2   -1    0    0  501    0  0.00000000000E+00  0.00000000000E+00  0.13435289805E+04  0.13435289805E+04  0.00000000000E+00 0. -1.
         -2   -1    0    0    0  501 -0.00000000000E+00 -0.00000000000E+00 -0.62256033225E+03  0.62256033225E+03  0.00000000000E+00 0.  1.
         23    2    1    2    0    0 -0.49262116271E+03 -0.26754496179E+02 -0.27505302911E+03  0.57225597466E+03  0.91822212410E+02 0.  0.
        254    2    1    2    0    0  0.49262116271E+03  0.26754496179E+02  0.99602167736E+03  0.13938333381E+04  0.84102364983E+03 0.  0.
        -24    2    4    4    0    0  0.30188924168E+03 -0.10185294845E+03  0.10864723172E+04  0.11348168606E+04  0.76655552591E+02 0.  0.
         24    2    4    4    0    0  0.19073192103E+03  0.12860744463E+03 -0.90450639795E+02  0.25901647752E+03  0.77393002733E+02 0.  0.
         11    1    3    3    0    0 -0.15489294869E+03 -0.47650822487E+02 -0.10925364306E+03  0.19544509449E+03  0.00000000000E+00 0. -1.
        -11    1    3    3    0    0 -0.33772821402E+03  0.20896326308E+02 -0.16579938605E+03  0.37681088017E+03  0.00000000000E+00 0.  1.
          4    1    6    6  502    0  0.45924792938E+02  0.60002808746E+02 -0.58657839672E+02  0.95656499093E+02  0.00000000000E+00 0. -1.
          1    1    5    5  503    0  0.10913480140E+03 -0.51233062951E+01  0.29856839524E+03  0.31793040084E+03  0.00000000000E+00 0. -1.
         -4    1    5    5    0  503  0.19275444029E+03 -0.96729642155E+02  0.78790392192E+03  0.81688645973E+03  0.00000000000E+00 0.  1.
         -3    1    6    6    0  502  0.14480712809E+03  0.68604635883E+02 -0.31792800123E+02  0.16335997842E+03  0.00000000000E+00 0.  1.
<mgrwt>
<rscale>  0 0.18291286E+04</rscale>
<asrwt>0</asrwt>
<pdfrwt beam="1">  1        2 0.20669676E+00 0.18291286E+04</pdfrwt>
<pdfrwt beam="2">  1       -2 0.95778513E-01 0.18291286E+04</pdfrwt>
<totfact> 0.13433144E+01</totfact>
</mgrwt>
</event>
<event>
12    1  0.1519630E-007  0.1354256E+04  0.7818608E-02  0.8987612E-01
         -2   -1    0    0    0  501 -0.00000000000E+00  0.00000000000E+00  0.26381769676E+03  0.26381769676E+03  0.00000000000E+00 0. -1.
          2   -1    0    0  501    0  0.00000000000E+00 -0.00000000000E+00 -0.17379522300E+04  0.17379522300E+04  0.00000000000E+00 0.  1.
         23    2    1    2    0    0 -0.14972540875E+03  0.77565866849E+01  0.86601035085E+02  0.19437334698E+03  0.88336833061E+02 0.  0.
        254    2    1    2    0    0  0.14972540875E+03 -0.77565866849E+01 -0.15607355683E+04  0.18073965798E+04  0.89906007567E+03 0.  0.
        -24    2    4    4    0    0  0.40682485994E+03  0.28725789760E+03 -0.98391209308E+03  0.11052440397E+04  0.73877019065E+02 0.  0.
         24    2    4    4    0    0 -0.25709945119E+03 -0.29501448428E+03 -0.57682347523E+03  0.70215254007E+03  0.84612021745E+02 0.  0.
         13    1    3    3    0    0 -0.66363011013E+02  0.38930834657E+02  0.11246879717E+02  0.77757002393E+02  0.00000000000E+00 0.  1.
        -13    1    3    3    0    0 -0.83362397738E+02 -0.31174247972E+02  0.75354155368E+02  0.11661634459E+03  0.00000000000E+00 0. -1.
          4    1    6    6  502    0 -0.14282367593E+03 -0.17499389220E+03 -0.25857181857E+03  0.34333780752E+03  0.00000000000E+00 0. -1.
          3    1    5    5  503    0  0.59609828066E+02  0.26902153167E+02 -0.18257578518E+03  0.19393549128E+03  0.00000000000E+00 0. -1.
         -4    1    5    5    0  503  0.34721503187E+03  0.26035574443E+03 -0.80133630791E+03  0.91130854840E+03  0.00000000000E+00 0.  1.
         -3    1    6    6    0  502 -0.11427577525E+03 -0.12002059209E+03 -0.31825165666E+03  0.35881473256E+03  0.00000000000E+00 0.  1.
<mgrwt>
<rscale>  0 0.13542563E+04</rscale>
<asrwt>0</asrwt>
<pdfrwt beam="1">  1        2 0.26737726E+00 0.13542563E+04</pdfrwt>
<pdfrwt beam="2">  1       -2 0.40587340E-01 0.13542563E+04</pdfrwt>
<totfact> 0.52423397E+01</totfact>
</mgrwt>
</event>
<event>
12    1  0.1617216E-007  0.1554291E+04  0.7818608E-02  0.8849131E-01
          1   -1    0    0  501    0  0.00000000000E+00  0.00000000000E+00  0.13829959882E+04  0.13829959882E+04  0.00000000000E+00 0. -1.
         -1   -1    0    0    0  501 -0.00000000000E+00 -0.00000000000E+00 -0.43670082570E+03  0.43670082570E+03  0.00000000000E+00 0.  1.
         23    2    1    2    0    0 -0.13878740203E+03 -0.87012119604E+02 -0.24229616749E+03  0.30620104089E+03  0.90656454499E+02 0.  0.
        254    2    1    2    0    0  0.13878740203E+03  0.87012119604E+02  0.11885913300E+04  0.15134957731E+04  0.92254379480E+03 0.  0.
        -24    2    4    4    0    0 -0.21963575737E+03  0.28244360674E+03  0.15293014382E+03  0.39760986266E+03  0.81802916190E+02 0.  0.
         24    2    4    4    0    0  0.35842315940E+03 -0.19543148713E+03  0.10356611862E+04  0.11158859104E+04  0.77114493023E+02 0.  0.
         13    1    3    3    0    0 -0.39947088718E+02 -0.64559546517E+02 -0.56786674106E+02  0.94807337793E+02  0.00000000000E+00 0. -1.
        -13    1    3    3    0    0 -0.98840313310E+02 -0.22452573087E+02 -0.18550949338E+03  0.21139370310E+03  0.00000000000E+00 0.  1.
          2    1    6    6  502    0  0.22936572401E+02 -0.50159246761E-01  0.29129322872E+02  0.37075683681E+02  0.00000000000E+00 0. -1.
          1    1    5    5  503    0 -0.10941910466E+02  0.44194280341E+02  0.42219104043E+02  0.62091163346E+02  0.00000000000E+00 0. -1.
         -2    1    5    5    0  503 -0.20869384691E+03  0.23824932640E+03  0.11071103978E+03  0.33551869932E+03  0.00000000000E+00 0.  1.
         -1    1    6    6    0  502  0.33548658700E+03 -0.19538132789E+03  0.10065318633E+04  0.10788102267E+04  0.00000000000E+00 0.  1.
<mgrwt>
<rscale>  0 0.15542915E+04</rscale>
<asrwt>0</asrwt>
<pdfrwt beam="1">  1        1 0.21276861E+00 0.15542915E+04</pdfrwt>
<pdfrwt beam="2">  1       -1 0.67184743E-01 0.15542915E+04</pdfrwt>
<totfact> 0.17068519E+01</totfact>
</mgrwt>
</event>
<event>
12    1  0.1519630E-007  0.4524226E+04  0.7818608E-02  0.7906409E-01
         -2   -1    0    0    0  501 -0.00000000000E+00  0.00000000000E+00  0.14850748595E+04  0.14850748595E+04  0.00000000000E+00 0.  1.
          2   -1    0    0  501    0  0.00000000000E+00 -0.00000000000E+00 -0.34457214922E+04  0.34457214922E+04  0.00000000000E+00 0. -1.
         23    2    1    2    0    0  0.77413668519E+03 -0.19930275394E+04 -0.13595063784E+04  0.25353262623E+04  0.90417273670E+02 0.  0.
        254    2    1    2    0    0 -0.77413668519E+03  0.19930275394E+04 -0.60114025437E+03  0.23954700894E+04  0.89747477042E+03 0.  0.
        -24    2    4    4    0    0 -0.62194596568E+03  0.57315372357E+03 -0.43883691257E+03  0.95615200342E+03  0.79541453032E+02 0.  0.
         24    2    4    4    0    0 -0.15219071951E+03  0.14198738158E+04 -0.16230334180E+03  0.14393180860E+04  0.78041718530E+02 0.  0.
         13    1    3    3    0    0  0.23734846035E+03 -0.54933947308E+03 -0.42092311929E+03  0.73163134205E+03  0.00000000000E+00 0.  1.
        -13    1    3    3    0    0  0.53678822484E+03 -0.14436880663E+04 -0.93858325910E+03  0.18036949203E+04  0.00000000000E+00 0. -1.
          2    1    6    6  502    0 -0.14357746832E+03  0.12114790932E+04 -0.11435735496E+03  0.12253055485E+04  0.00000000000E+00 0. -1.
          3    1    5    5  503    0 -0.60325482218E+03  0.56377908787E+03 -0.41394112708E+03  0.92363980918E+03  0.00000000000E+00 0. -1.
         -4    1    5    5    0  503 -0.18691143492E+02  0.93746357026E+01 -0.24895785488E+02  0.32512194246E+02  0.00000000000E+00 0.  1.
         -1    1    6    6    0  502 -0.86132511990E+01  0.20839472267E+03 -0.47945986845E+02  0.21401253745E+03  0.00000000000E+00 0.  1.
<mgrwt>
<rscale>  0 0.45242256E+04</rscale>
<asrwt>0</asrwt>
<pdfrwt beam="1">  1        2 0.53011099E+00 0.45242256E+04</pdfrwt>
<pdfrwt beam="2">  1       -2 0.22847306E+00 0.45242256E+04</pdfrwt>
<totfact> 0.58517904E-02</totfact>
</mgrwt>
</event>
<event>
12    1  0.1519630E-007  0.1972388E+04  0.7818608E-02  0.8619640E-01
         -2   -1    0    0    0  501 -0.00000000000E+00  0.00000000000E+00  0.12347308000E+04  0.12347308000E+04  0.00000000000E+00 0.  1.
          2   -1    0    0  501    0  0.00000000000E+00 -0.00000000000E+00 -0.78768507229E+03  0.78768507229E+03  0.00000000000E+00 0. -1.
         23    2    1    2    0    0  0.26110255876E+03 -0.11216099845E+03  0.92436575575E+03  0.97140214370E+03  0.91735699717E+02 0.  0.
        254    2    1    2    0    0 -0.26110255876E+03  0.11216099845E+03 -0.47732002800E+03  0.10510137286E+04  0.89221119298E+03 0.  0.
        -24    2    4    4    0    0  0.20620703172E+03  0.38212654584E+02  0.14340628029E+03  0.26631074267E+03  0.79840488033E+02 0.  0.
         24    2    4    4    0    0 -0.46730959048E+03  0.73948343869E+02 -0.62072630829E+03  0.78470298597E+03  0.81308151260E+02 0.  0.
         13    1    3    3    0    0  0.18845896761E+03 -0.48157663975E+02  0.71044940823E+03  0.73659643274E+03  0.00000000000E+00 0.  1.
        -13    1    3    3    0    0  0.72643591150E+02 -0.64003334478E+02  0.21391634753E+03  0.23480571096E+03  0.00000000000E+00 0. -1.
          4    1    6    6  502    0 -0.24247162663E+03  0.10629416353E+02 -0.36529051958E+03  0.43856885196E+03  0.00000000000E+00 0. -1.
          1    1    5    5  503    0  0.14738777624E+03  0.20335553719E+02  0.14069890986E+03  0.20477518054E+03  0.00000000000E+00 0. -1.
         -2    1    5    5    0  503  0.58819255488E+02  0.17877100865E+02  0.27073704299E+01  0.61535562126E+02  0.00000000000E+00 0.  1.
         -3    1    6    6    0  502 -0.22483796385E+03  0.63318927516E+02 -0.25543578871E+03  0.34613413401E+03  0.00000000000E+00 0.  1.
<mgrwt>
<rscale>  0 0.19723884E+04</rscale>
<asrwt>0</asrwt>
<pdfrwt beam="1">  1        2 0.12118232E+00 0.19723884E+04</pdfrwt>
<pdfrwt beam="2">  1       -2 0.18995858E+00 0.19723884E+04</pdfrwt>
<totfact> 0.50755295E+00</totfact>
</mgrwt>
</event>
<event>
12    1  0.1519630E-007  0.1734084E+04  0.7818608E-02  0.8742160E-01
         -2   -1    0    0    0  501 -0.00000000000E+00  0.00000000000E+00  0.14050958468E+04  0.14050958468E+04  0.00000000000E+00 0.  1.
          2   -1    0    0  501    0  0.00000000000E+00 -0.00000000000E+00 -0.53502520136E+03  0.53502520136E+03  0.00000000000E+00 0. -1.
         23    2    1    2    0    0  0.22747268974E+03 -0.57863466170E+03  0.47850559669E+03  0.78931882174E+03  0.86571935315E+02 0.  0.
        254    2    1    2    0    0 -0.22747268974E+03  0.57863466170E+03  0.39156504871E+03  0.11508022264E+04  0.88569784948E+03 0.  0.
        -24    2    4    4    0    0 -0.52229008798E+03  0.49364014363E+03  0.41460086550E+03  0.83343205180E+03  0.79041633909E+02 0.  0.
         24    2    4    4    0    0  0.29481739824E+03  0.84994518073E+02 -0.23035816790E+02  0.31737017458E+03  0.77793395949E+02 0.  0.
         13    1    3    3    0    0  0.10671173571E+03 -0.21538487782E+03  0.13906133486E+03  0.27769784836E+03  0.00000000000E+00 0. -1.
        -13    1    3    3    0    0  0.12076095403E+03 -0.36324978389E+03  0.33944426183E+03  0.51162097338E+03  0.00000000000E+00 0.  1.
          2    1    6    6  502    0  0.19529327351E+03  0.17708628772E+02 -0.75355206921E+01  0.19623924756E+03  0.00000000000E+00 0. -1.
          3    1    5    5  503    0 -0.50853110909E+03  0.46945277333E+03  0.41210398072E+03  0.80549331854E+03  0.00000000000E+00 0. -1.
         -4    1    5    5    0  503 -0.13758978892E+02  0.24187370305E+02  0.24968847791E+01  0.27938733257E+02  0.00000000000E+00 0.  1.
         -1    1    6    6    0  502  0.99524124725E+02  0.67285889301E+02 -0.15500296098E+02  0.12113092702E+03  0.00000000000E+00 0.  1.
<mgrwt>
<rscale>  0 0.17340838E+04</rscale>
<asrwt>0</asrwt>
<pdfrwt beam="1">  1        2 0.82311570E-01 0.17340838E+04</pdfrwt>
<pdfrwt beam="2">  1       -2 0.21616859E+00 0.17340838E+04</pdfrwt>
<totfact> 0.56387655E+00</totfact>
</mgrwt>
</event>
<event>
12    1  0.1519630E-007  0.1722432E+04  0.7818608E-02  0.8748673E-01
         -2   -1    0    0    0  501 -0.00000000000E+00  0.00000000000E+00  0.35100928368E+03  0.35100928368E+03  0.00000000000E+00 0.  1.
          2   -1    0    0  501    0  0.00000000000E+00 -0.00000000000E+00 -0.21130306319E+04  0.21130306319E+04  0.00000000000E+00 0. -1.
         23    2    1    2    0    0  0.29826499150E+03 -0.64804479044E+02 -0.14543499882E+04  0.14889849506E+04  0.93705225291E+02 0.  0.
        254    2    1    2    0    0 -0.29826499150E+03  0.64804479044E+02 -0.30767135997E+03  0.97505496494E+03  0.87344656004E+03 0.  0.
        -24    2    4    4    0    0 -0.33447360703E+03  0.42806974066E+03 -0.21055387301E+03  0.58895223885E+03  0.86113352859E+02 0.  0.
         24    2    4    4    0    0  0.36208615529E+02 -0.36326526162E+03 -0.97117486962E+02  0.38610272609E+03  0.79817258036E+02 0.  0.
         13    1    3    3    0    0  0.18894010197E+03 -0.42903605869E+02 -0.11172247027E+04  0.11339004003E+04  0.00000000000E+00 0. -1.
        -13    1    3    3    0    0  0.10932488953E+03 -0.21900873175E+02 -0.33712528556E+03  0.35508455033E+03  0.00000000000E+00 0.  1.
          2    1    6    6  502    0  0.57464883897E+02 -0.31769593153E+03 -0.76731799014E+02  0.33184437131E+03  0.00000000000E+00 0. -1.
          1    1    5    5  503    0 -0.25290599379E+03  0.32322828035E+03 -0.11794982990E+03  0.42702473615E+03  0.00000000000E+00 0. -1.
         -2    1    5    5    0  503 -0.81567613242E+02  0.10484146031E+03 -0.92604043116E+02  0.16192750270E+03  0.00000000000E+00 0.  1.
         -1    1    6    6    0  502 -0.21256268368E+02 -0.45569330090E+02 -0.20385687948E+02  0.54258354775E+02  0.00000000000E+00 0.  1.
<mgrwt>
<rscale>  0 0.17224324E+04</rscale>
<asrwt>0</asrwt>
<pdfrwt beam="1">  1        2 0.32508163E+00 0.17224324E+04</pdfrwt>
<pdfrwt beam="2">  1       -2 0.54001429E-01 0.17224324E+04</pdfrwt>
<totfact> 0.17730400E+01</totfact>
</mgrwt>
</event>
<event>
12    1  0.1519630E-007  0.1938265E+04  0.7818608E-02  0.8636040E-01
          2   -1    0    0  501    0  0.00000000000E+00  0.00000000000E+00  0.12518010284E+04  0.12518010284E+04  0.00000000000E+00 0. -1.
         -2   -1    0    0    0  501 -0.00000000000E+00 -0.00000000000E+00 -0.75029328272E+03  0.75029328272E+03  0.00000000000E+00 0.  1.
         23    2    1    2    0    0 -0.51865596231E+03  0.47687001635E+03  0.48601859749E+03  0.86076580704E+03  0.91075121445E+02 0.  0.
        254    2    1    2    0    0  0.51865596231E+03 -0.47687001635E+03  0.15489148205E+02  0.11413285041E+04  0.89776490286E+03 0.  0.
        -24    2    4    4    0    0  0.43055533941E+03  0.39152444291E+02  0.30732036273E+03  0.53657849832E+03  0.80992995554E+02 0.  0.
         24    2    4    4    0    0  0.88100622896E+02 -0.51602246064E+03 -0.29183121452E+03  0.60475000576E+03  0.80723057823E+02 0.  0.
         13    1    3    3    0    0 -0.27490963798E+03  0.19980773750E+03  0.26148389022E+03  0.42880329507E+03  0.00000000000E+00 0.  1.
        -13    1    3    3    0    0 -0.24374632433E+03  0.27706227884E+03  0.22453470726E+03  0.43196251197E+03  0.00000000000E+00 0. -1.
          2    1    6    6  502    0  0.95064575319E+02 -0.33559681777E+03 -0.18234989436E+03  0.39359113500E+03  0.00000000000E+00 0. -1.
          1    1    5    5  503    0  0.70886345196E+02  0.22888600662E+02  0.86776166230E+02  0.11436286548E+03  0.00000000000E+00 0. -1.
         -4    1    5    5    0  503  0.35966899421E+03  0.16263843629E+02  0.22054419650E+03  0.42221563284E+03  0.00000000000E+00 0.  1.
         -1    1    6    6    0  502 -0.69639524226E+01 -0.18042564287E+03 -0.10948132016E+03  0.21115887076E+03  0.00000000000E+00 0.  1.
<mgrwt>
<rscale>  0 0.19382651E+04</rscale>
<asrwt>0</asrwt>
<pdfrwt beam="1">  1        2 0.19258477E+00 0.19382651E+04</pdfrwt>
<pdfrwt beam="2">  1       -2 0.11542974E+00 0.19382651E+04</pdfrwt>
<totfact> 0.96276931E+00</totfact>
</mgrwt>
</event>
<event>
12    1  0.1519630E-007  0.2262975E+04  0.7818608E-02  0.8492664E-01
          2   -1    0    0  501    0  0.00000000000E+00  0.00000000000E+00  0.77760046107E+03  0.77760046107E+03  0.00000000000E+00 0. -1.
         -2   -1    0    0    0  501 -0.00000000000E+00 -0.00000000000E+00 -0.16464289328E+04  0.16464289328E+04  0.00000000000E+00 0.  1.
         23    2    1    2    0    0  0.71626534249E+03 -0.37147049503E+03  0.16741103463E+03  0.82941066081E+03  0.94176537494E+02 0.  0.
        254    2    1    2    0    0 -0.71626534249E+03  0.37147049503E+03 -0.10362395063E+04  0.15946187330E+04  0.90442811749E+03 0.  0.
        -24    2    4    4    0    0 -0.62414476685E+03  0.33889738964E+03 -0.19031351617E+03  0.73964611707E+03  0.80305749283E+02 0.  0.
         24    2    4    4    0    0 -0.92120575645E+02  0.32573105382E+02 -0.84592599016E+03  0.85497261595E+03  0.76421106766E+02 0.  0.
         13    1    3    3    0    0  0.64883676762E+03 -0.34506593843E+03  0.12485694288E+03  0.74541861331E+03  0.00000000000E+00 0. -1.
        -13    1    3    3    0    0  0.67428574872E+02 -0.26404556597E+02  0.42554091753E+02  0.83992047500E+02  0.00000000000E+00 0.  1.
          4    1    6    6  502    0 -0.28702461129E+02  0.50098897088E+02 -0.43433251332E+03  0.43815346956E+03  0.00000000000E+00 0. -1.
          3    1    5    5  503    0 -0.27320448913E+03  0.10581705146E+03 -0.91295206658E+02  0.30687579901E+03  0.00000000000E+00 0. -1.
         -4    1    5    5    0  503 -0.35094027772E+03  0.23308033819E+03 -0.99018309514E+02  0.43277031806E+03  0.00000000000E+00 0.  1.
         -3    1    6    6    0  502 -0.63418114516E+02 -0.17525791706E+02 -0.41159347684E+03  0.41681914640E+03  0.00000000000E+00 0.  1.
<mgrwt>
<rscale>  0 0.22629749E+04</rscale>
<asrwt>0</asrwt>
<pdfrwt beam="1">  1        2 0.11963084E+00 0.22629749E+04</pdfrwt>
<pdfrwt beam="2">  1       -2 0.25329676E+00 0.22629749E+04</pdfrwt>
<totfact> 0.19944938E+00</totfact>
</mgrwt>
</event>
<event>
12    1  0.1519630E-007  0.1355423E+04  0.7818608E-02  0.8986733E-01
          2   -1    0    0  501    0  0.00000000000E+00  0.00000000000E+00  0.48287082693E+04  0.48287082693E+04  0.00000000000E+00 0. -1.
         -2   -1    0    0    0  501 -0.00000000000E+00 -0.00000000000E+00 -0.95117114968E+02  0.95117114968E+02  0.00000000000E+00 0.  1.
         23    2    1    2    0    0  0.27085891898E+03  0.20466700701E+02  0.40301105559E+03  0.49443335090E+03  0.90900977600E+02 0.  0.
        254    2    1    2    0    0 -0.27085891898E+03 -0.20466700701E+02  0.43305800988E+04  0.44293920334E+04  0.88983501493E+03 0.  0.
        -24    2    4    4    0    0 -0.40433975346E+02  0.35418013569E+03  0.30815519182E+04  0.31030328352E+04  0.75974185162E+02 0.  0.
         24    2    4    4    0    0 -0.23042494364E+03 -0.37464683639E+03  0.12490281805E+04  0.13263591982E+04  0.75507748807E+02 0.  0.
         13    1    3    3    0    0  0.24930955046E+02  0.30914825742E+02  0.45739198952E+02  0.60575187090E+02  0.00000000000E+00 0. -1.
        -13    1    3    3    0    0  0.24592796394E+03 -0.10448125042E+02  0.35727185664E+03  0.43385816381E+03  0.00000000000E+00 0.  1.
          4    1    6    6  502    0 -0.69741318895E+02 -0.12978183080E+03  0.32065539871E+03  0.35288391843E+03  0.00000000000E+00 0. -1.
          1    1    5    5  503    0 -0.60541673429E+02  0.30522443564E+03  0.26820173022E+04  0.27000081592E+04  0.00000000000E+00 0. -1.
         -2    1    5    5    0  503  0.20107698083E+02  0.48955700050E+02  0.39953461601E+03  0.40302467602E+03  0.00000000000E+00 0.  1.
         -3    1    6    6    0  502 -0.16068362474E+03 -0.24486500559E+03  0.92837278182E+03  0.97347527973E+03  0.00000000000E+00 0.  1.
<mgrwt>
<rscale>  0 0.13554229E+04</rscale>
<asrwt>0</asrwt>
<pdfrwt beam="1">  1        2 0.74287800E+00 0.13554229E+04</pdfrwt>
<pdfrwt beam="2">  1       -2 0.14633406E-01 0.13554229E+04</pdfrwt>
<totfact> 0.20891206E+00</totfact>
</mgrwt>
</event>
<event>
12    1  0.1519630E-007  0.1442268E+04  0.7818608E-02  0.8923779E-01
          1   -1    0    0  501    0  0.00000000000E+00  0.00000000000E+00  0.68238944857E+03  0.68238944857E+03  0.00000000000E+00 0. -1.
         -1   -1    0    0    0  501 -0.00000000000E+00 -0.00000000000E+00 -0.76207817495E+03  0.76207817495E+03  0.00000000000E+00 0.  1.
         23    2    1    2    0    0 -0.66515265838E+02 -0.43079182747E+03  0.47063681969E+01  0.44570758709E+03  0.92882851366E+02 0.  0.
        254    2    1    2    0    0  0.66515265838E+02  0.43079182747E+03 -0.84395094572E+02  0.99876003644E+03  0.89464696903E+03 0.  0.
        -24    2    4    4    0    0  0.36459533328E+03  0.37906470647E+03 -0.30752106875E+03  0.61452272662E+03  0.80306693790E+02 0.  0.
         24    2    4    4    0    0 -0.29808006745E+03  0.51727120997E+02  0.22312597417E+03  0.38423730981E+03  0.79534195448E+02 0.  0.
         13    1    3    3    0    0 -0.46139241962E+02 -0.39475519268E+03  0.27601998695E+02  0.39839975166E+03  0.00000000000E+00 0. -1.
        -13    1    3    3    0    0 -0.20376023877E+02 -0.36036634796E+02 -0.22895630498E+02  0.47307835423E+02  0.00000000000E+00 0.  1.
          2    1    6    6  502    0 -0.71174208591E+02 -0.20978007794E+02  0.45444203551E+02  0.87011610811E+02  0.00000000000E+00 0. -1.
          3    1    5    5  503    0  0.56994866248E+02  0.43348583148E+02 -0.73351485914E+02  0.10250831637E+03  0.00000000000E+00 0. -1.
         -4    1    5    5    0  503  0.30760046704E+03  0.33571612333E+03 -0.23416958283E+03  0.51201441025E+03  0.00000000000E+00 0.  1.
         -1    1    6    6    0  502 -0.22690585885E+03  0.72705128791E+02  0.17768177062E+03  0.29722569900E+03  0.00000000000E+00 0.  1.
<mgrwt>
<rscale>  0 0.14422678E+04</rscale>
<asrwt>0</asrwt>
<pdfrwt beam="1">  1        1 0.10498299E+00 0.14422678E+04</pdfrwt>
<pdfrwt beam="2">  1       -1 0.11724280E+00 0.14422678E+04</pdfrwt>
<totfact> 0.18036646E+01</totfact>
</mgrwt>
</event>
<event>
12    1  0.1519630E-007  0.2101596E+04  0.7818608E-02  0.8560541E-01
         -1   -1    0    0    0  501 -0.00000000000E+00  0.00000000000E+00  0.12919336489E+04  0.12919336489E+04  0.00000000000E+00 0.  1.
          1   -1    0    0  501    0  0.00000000000E+00 -0.00000000000E+00 -0.85466983783E+03  0.85466983783E+03  0.00000000000E+00 0. -1.
         23    2    1    2    0    0  0.14882325859E+03 -0.36188710982E+03 -0.59546671409E+03  0.71820987233E+03  0.90189636685E+02 0.  0.
        254    2    1    2    0    0 -0.14882325859E+03  0.36188710982E+03  0.10327305252E+04  0.14283936145E+04  0.90590581054E+03 0.  0.
        -24    2    4    4    0    0  0.28569141737E+03  0.18912423899E+03  0.85051743008E+03  0.92020537822E+03  0.77527256496E+02 0.  0.
         24    2    4    4    0    0 -0.43451467596E+03  0.17276287083E+03  0.18221309512E+03  0.50818823623E+03  0.80022860781E+02 0.  0.
         13    1    3    3    0    0 -0.76419630158E+01 -0.55557548958E+02 -0.10666293051E+03  0.12050735077E+03  0.00000000000E+00 0.  1.
        -13    1    3    3    0    0  0.15646522160E+03 -0.30632956086E+03 -0.48880378358E+03  0.59770252155E+03  0.00000000000E+00 0. -1.
          4    1    6    6  502    0 -0.33529329767E+03  0.10333631472E+03  0.11247020138E+03  0.36844203832E+03  0.00000000000E+00 0. -1.
          3    1    5    5  503    0  0.20765142360E+03  0.17292188568E+03  0.68889837723E+03  0.74000139623E+03  0.00000000000E+00 0. -1.
         -4    1    5    5    0  503  0.78039993777E+02  0.16202353308E+02  0.16161905285E+03  0.18020398199E+03  0.00000000000E+00 0.  1.
         -3    1    6    6    0  502 -0.99221378289E+02  0.69426556109E+02  0.69742893747E+02  0.13974619791E+03  0.00000000000E+00 0.  1.
<mgrwt>
<rscale>  0 0.21015963E+04</rscale>
<asrwt>0</asrwt>
<pdfrwt beam="1">  1        1 0.13148767E+00 0.21015963E+04</pdfrwt>
<pdfrwt beam="2">  1       -1 0.19875902E+00 0.21015963E+04</pdfrwt>
<totfact> 0.28013070E+00</totfact>
</mgrwt>
</event>
<event>
12    1  0.1519630E-007  0.1248970E+04  0.7818608E-02  0.9071041E-01
          2   -1    0    0  501    0  0.00000000000E+00  0.00000000000E+00  0.11498513679E+04  0.11498513679E+04  0.00000000000E+00 0. -1.
         -2   -1    0    0    0  501 -0.00000000000E+00 -0.00000000000E+00 -0.33915834590E+03  0.33915834590E+03  0.00000000000E+00 0.  1.
         23    2    1    2    0    0 -0.17590725367E+03  0.39968918456E+02  0.60191641116E+03  0.63468166472E+03  0.89311663129E+02 0.  0.
        254    2    1    2    0    0  0.17590725367E+03 -0.39968918456E+02  0.20877661084E+03  0.85432804908E+03  0.80854676171E+03 0.  0.
        -24    2    4    4    0    0  0.38531131712E+03  0.21119287602E+01  0.39645730905E+03  0.55856599178E+03  0.79676206815E+02 0.  0.
         24    2    4    4    0    0 -0.20940406345E+03 -0.42080847217E+02 -0.18768069822E+03  0.29576205729E+03  0.81426596150E+02 0.  0.
         13    1    3    3    0    0 -0.89214702641E+02 -0.25346081093E+02  0.27827793788E+03  0.29332626494E+03  0.00000000000E+00 0.  1.
        -13    1    3    3    0    0 -0.86692551031E+02  0.65314999550E+02  0.32363847328E+03  0.34135539977E+03  0.00000000000E+00 0. -1.
          2    1    6    6  502    0 -0.27233780804E+02  0.12584416741E+02 -0.58805884713E+02  0.66016501259E+02  0.00000000000E+00 0. -1.
          3    1    5    5  503    0  0.16318066679E+03 -0.77175689711E+01  0.11453736187E+03  0.19951515769E+03  0.00000000000E+00 0. -1.
         -4    1    5    5    0  503  0.22213065033E+03  0.98294977313E+01  0.28191994718E+03  0.35905083409E+03  0.00000000000E+00 0.  1.
         -1    1    6    6    0  502 -0.18217028265E+03 -0.54665263957E+02 -0.12887481350E+03  0.22974555604E+03  0.00000000000E+00 0.  1.
<mgrwt>
<rscale>  0 0.12489703E+04</rscale>
<asrwt>0</asrwt>
<pdfrwt beam="1">  1        2 0.17690021E+00 0.12489703E+04</pdfrwt>
<pdfrwt beam="2">  1       -2 0.52178208E-01 0.12489703E+04</pdfrwt>
<totfact> 0.69239100E+01</totfact>
</mgrwt>
</event>
<event>
12    1  0.1519630E-007  0.1160987E+04  0.7818608E-02  0.9147707E-01
          2   -1    0    0  501    0  0.00000000000E+00  0.00000000000E+00  0.75399481229E+03  0.75399481229E+03  0.00000000000E+00 0. -1.
         -2   -1    0    0    0  501 -0.00000000000E+00 -0.00000000000E+00 -0.44691639245E+03  0.44691639245E+03  0.00000000000E+00 0.  1.
         23    2    1    2    0    0  0.14385296382E+03  0.17444570731E+03  0.10235522026E+03  0.26505907114E+03  0.93030855530E+02 0.  0.
        254    2    1    2    0    0 -0.14385296382E+03 -0.17444570731E+03  0.20472319958E+03  0.93585213360E+03  0.88475004805E+03 0.  0.
        -24    2    4    4    0    0  0.35446497977E+03  0.19908726538E+02  0.20121767238E+02  0.36451623407E+03  0.80158718259E+02 0.  0.
         24    2    4    4    0    0 -0.49831794358E+03 -0.19435443385E+03  0.18460143234E+03  0.57133589953E+03  0.79073398906E+02 0.  0.
         13    1    3    3    0    0  0.98643257341E+01  0.38160036732E+02 -0.13385500492E+02  0.41625292179E+02  0.00000000000E+00 0.  1.
        -13    1    3    3    0    0  0.13398863808E+03  0.13628567058E+03  0.11574072075E+03  0.22343377896E+03  0.00000000000E+00 0. -1.
          2    1    6    6  502    0 -0.44865670008E+03 -0.18608408073E+03  0.14386491716E+03  0.50657401633E+03  0.00000000000E+00 0. -1.
          1    1    5    5  503    0  0.18415439913E+01 -0.98086227085E+01 -0.88960078661E+00  0.10019568517E+02  0.00000000000E+00 0. -1.
         -4    1    5    5    0  503  0.35262343577E+03  0.29717349247E+02  0.21011368025E+02  0.35449666556E+03  0.00000000000E+00 0.  1.
         -1    1    6    6    0  502 -0.49661243499E+02 -0.82703531257E+01  0.40736515180E+02  0.64761883200E+02  0.00000000000E+00 0.  1.
<mgrwt>
<rscale>  0 0.11609869E+04</rscale>
<asrwt>0</asrwt>
<pdfrwt beam="1">  1        2 0.11599920E+00 0.11609869E+04</pdfrwt>
<pdfrwt beam="2">  1       -2 0.68756368E-01 0.11609869E+04</pdfrwt>
<totfact> 0.71248483E+01</totfact>
</mgrwt>
</event>
<event>
12    1  0.1519630E-007  0.1510740E+04  0.7818608E-02  0.8877342E-01
         -2   -1    0    0    0  501 -0.00000000000E+00  0.00000000000E+00  0.59299358246E+03  0.59299358246E+03  0.00000000000E+00 0.  1.
          2   -1    0    0  501    0  0.00000000000E+00 -0.00000000000E+00 -0.96220967810E+03  0.96220967810E+03  0.00000000000E+00 0. -1.
         23    2    1    2    0    0  0.41359704667E+03  0.17932558204E+03 -0.28039288077E+03  0.53871115344E+03  0.91484194626E+02 0.  0.
        254    2    1    2    0    0 -0.41359704667E+03 -0.17932558204E+03 -0.88823214870E+02  0.10164921071E+04  0.90672292291E+03 0.  0.
        -24    2    4    4    0    0 -0.71871032864E+02 -0.50990325818E+03 -0.11596759063E+03  0.53392003093E+03  0.80345126058E+02 0.  0.
         24    2    4    4    0    0 -0.34172601381E+03  0.33057767614E+03  0.27144375762E+02  0.48257207619E+03  0.77978991405E+02 0.  0.
         11    1    3    3    0    0  0.77375861941E+02  0.45130979389E+02 -0.17390937870E+02  0.91248419338E+02  0.00000000000E+00 0.  1.
        -11    1    3    3    0    0  0.33622118473E+03  0.13419460265E+03 -0.26300194290E+03  0.44746273410E+03  0.00000000000E+00 0. -1.
          4    1    6    6  502    0 -0.11491854117E+03  0.64713685549E+02 -0.19247011541E+01  0.13190085927E+03  0.00000000000E+00 0. -1.
          1    1    5    5  503    0  0.98494746410E+00 -0.36494453687E+02  0.11483638127E+02  0.38271258355E+02  0.00000000000E+00 0. -1.
         -2    1    5    5    0  503 -0.72855980328E+02 -0.47340880450E+03 -0.12745122876E+03  0.49564877258E+03  0.00000000000E+00 0.  1.
         -3    1    6    6    0  502 -0.22680747264E+03  0.26586399059E+03  0.29069076916E+02  0.35067121691E+03  0.00000000000E+00 0.  1.
<mgrwt>
<rscale>  0 0.15107404E+04</rscale>
<asrwt>0</asrwt>
<pdfrwt beam="1">  1        2 0.14803226E+00 0.15107404E+04</pdfrwt>
<pdfrwt beam="2">  1       -2 0.91229782E-01 0.15107404E+04</pdfrwt>
<totfact> 0.26358876E+01</totfact>
</mgrwt>
</event>
<event>
12    1  0.1519630E-007  0.1088753E+04  0.7818608E-02  0.9216223E-01
         -2   -1    0    0    0  501 -0.00000000000E+00  0.00000000000E+00  0.87898842327E+03  0.87898842327E+03  0.00000000000E+00 0.  1.
          2   -1    0    0  501    0  0.00000000000E+00 -0.00000000000E+00 -0.33714441365E+03  0.33714441365E+03  0.00000000000E+00 0. -1.
         23    2    1    2    0    0  0.93694249633E+02  0.10427920352E+03  0.96967997724E+02  0.19296812487E+03  0.90449654126E+02 0.  0.
        254    2    1    2    0    0 -0.93694249633E+02 -0.10427920352E+03  0.44487601189E+03  0.10231647120E+04  0.91065833183E+03 0.  0.
        -24    2    4    4    0    0  0.31445486558E+03 -0.26135680924E+03  0.39674709735E+03  0.57535383298E+03  0.80215519979E+02 0.  0.
         24    2    4    4    0    0 -0.40814911522E+03  0.15707760571E+03  0.48128914538E+02  0.44781087907E+03  0.83421319380E+02 0.  0.
         13    1    3    3    0    0  0.42487688897E+01  0.26867908641E+02  0.64955080666E+02  0.70420870885E+02  0.00000000000E+00 0.  1.
        -13    1    3    3    0    0  0.89445480743E+02  0.77411294880E+02  0.32012917058E+02  0.12254725398E+03  0.00000000000E+00 0. -1.
          4    1    6    6  502    0 -0.36990276064E+03  0.16069019685E+03  0.27570854951E+02  0.40423946336E+03  0.00000000000E+00 0. -1.
          1    1    5    5  503    0  0.30756074417E+03 -0.23343703365E+03  0.35400651453E+03  0.52383878471E+03  0.00000000000E+00 0. -1.
         -2    1    5    5    0  503  0.68941214165E+01 -0.27919775588E+02  0.42740582820E+02  0.51515048276E+02  0.00000000000E+00 0.  1.
         -3    1    6    6    0  502 -0.38246354579E+02 -0.36125911319E+01  0.20558059587E+02  0.43571415713E+02  0.00000000000E+00 0.  1.
<mgrwt>
<rscale>  0 0.10887535E+04</rscale>
<asrwt>0</asrwt>
<pdfrwt beam="1">  1        2 0.51868372E-01 0.10887535E+04</pdfrwt>
<pdfrwt beam="2">  1       -2 0.13522899E+00 0.10887535E+04</pdfrwt>
<totfact> 0.37576549E+01</totfact>
</mgrwt>
</event>
<event>
12    1  0.1519630E-007  0.2198038E+04  0.7818608E-02  0.8519245E-01
         -1   -1    0    0    0  501 -0.00000000000E+00  0.00000000000E+00  0.57864130618E+03  0.57864130618E+03  0.00000000000E+00 0.  1.
          1   -1    0    0  501    0  0.00000000000E+00 -0.00000000000E+00 -0.20873767578E+04  0.20873767578E+04  0.00000000000E+00 0. -1.
         23    2    1    2    0    0  0.25931783342E+03  0.39473698517E+03  0.31892680138E+03  0.57706418240E+03  0.90695864163E+02 0.  0.
        254    2    1    2    0    0 -0.25931783342E+03 -0.39473698517E+03 -0.18276622530E+04  0.20889538816E+04  0.89460381296E+03 0.  0.
        -24    2    4    4    0    0 -0.33944514071E+03 -0.64676964205E+03 -0.13049636173E+04  0.14978252671E+04  0.83764639589E+02 0.  0.
         24    2    4    4    0    0  0.80127307292E+02  0.25203265688E+03 -0.52269863571E+03  0.59112861450E+03  0.79235911017E+02 0.  0.
         13    1    3    3    0    0  0.19936704168E+03  0.22888338061E+03  0.21975824603E+03  0.37473791632E+03  0.00000000000E+00 0. -1.
        -13    1    3    3    0    0  0.59950791739E+02  0.16585360456E+03  0.99168555351E+02  0.20232626608E+03  0.00000000000E+00 0.  1.
          4    1    6    6  502    0  0.61353401558E+02  0.95408305204E+02 -0.27486488908E+03  0.29735112549E+03  0.00000000000E+00 0. -1.
          1    1    5    5  503    0 -0.11901924728E+03 -0.28048305022E+03 -0.47693224793E+03  0.56595113906E+03  0.00000000000E+00 0. -1.
         -2    1    5    5    0  503 -0.22042589343E+03 -0.36628659183E+03 -0.82803136935E+03  0.93187412802E+03  0.00000000000E+00 0.  1.
         -3    1    6    6    0  502  0.18773905733E+02  0.15662435168E+03 -0.24783374663E+03  0.29377748900E+03  0.00000000000E+00 0.  1.
<mgrwt>
<rscale>  0 0.21980377E+04</rscale>
<asrwt>0</asrwt>
<pdfrwt beam="1">  1        1 0.32113489E+00 0.21980377E+04</pdfrwt>
<pdfrwt beam="2">  1       -1 0.89021739E-01 0.21980377E+04</pdfrwt>
<totfact> 0.29325280E+00</totfact>
</mgrwt>
</event>
<event>
12    1  0.1519630E-007  0.1152393E+04  0.7818608E-02  0.9155578E-01
          1   -1    0    0  501    0  0.00000000000E+00  0.00000000000E+00  0.15491582477E+03  0.15491582477E+03  0.00000000000E+00 0. -1.
         -1   -1    0    0    0  501 -0.00000000000E+00 -0.00000000000E+00 -0.21431167104E+04  0.21431167104E+04  0.00000000000E+00 0.  1.
         23    2    1    2    0    0  0.39527762857E+02 -0.84056106759E+02 -0.17518848592E+02  0.12958732549E+03  0.88645878374E+02 0.  0.
        254    2    1    2    0    0 -0.39527762857E+02  0.84056106759E+02 -0.19706820370E+04  0.21684452097E+04  0.89996614554E+03 0.  0.
        -24    2    4    4    0    0 -0.35640450794E+03  0.15945417875E+03 -0.16762398943E+04  0.17230241233E+04  0.81130375678E+02 0.  0.
         24    2    4    4    0    0  0.31687674508E+03 -0.75398071988E+02 -0.29444214277E+03  0.44542108639E+03  0.74886767420E+02 0.  0.
         13    1    3    3    0    0  0.40040827525E+02 -0.75309956942E+02 -0.48000281122E+02  0.97871775663E+02  0.00000000000E+00 0.  1.
        -13    1    3    3    0    0 -0.51306466795E+00 -0.87461498171E+01  0.30481432531E+02  0.31715549831E+02  0.00000000000E+00 0. -1.
          4    1    6    6  502    0  0.45958865340E+02 -0.14620304336E+02 -0.84640452431E+02  0.97416511896E+02  0.00000000000E+00 0. -1.
          1    1    5    5  503    0 -0.81342797201E+02  0.11631720587E+02 -0.25614941886E+03  0.26900645413E+03  0.00000000000E+00 0. -1.
         -2    1    5    5    0  503 -0.27506171074E+03  0.14782245816E+03 -0.14200904754E+04  0.14540176691E+04  0.00000000000E+00 0.  1.
         -3    1    6    6    0  502  0.27091787974E+03 -0.60777767652E+02 -0.20980169034E+03  0.34800457450E+03  0.00000000000E+00 0.  1.
<mgrwt>
<rscale>  0 0.11523935E+04</rscale>
<asrwt>0</asrwt>
<pdfrwt beam="1">  1        1 0.23833203E-01 0.11523935E+04</pdfrwt>
<pdfrwt beam="2">  1       -1 0.32971027E+00 0.11523935E+04</pdfrwt>
<totfact> 0.44151900E+00</totfact>
</mgrwt>
</event>
<event>
12    1  0.1519630E-007  0.1586700E+04  0.7818608E-02  0.8828761E-01
          2   -1    0    0  501    0  0.00000000000E+00  0.00000000000E+00  0.53746867851E+03  0.53746867851E+03  0.00000000000E+00 0. -1.
         -2   -1    0    0    0  501 -0.00000000000E+00 -0.00000000000E+00 -0.11710528528E+04  0.11710528528E+04  0.00000000000E+00 0.  1.
         23    2    1    2    0    0  0.23838223584E+03  0.27490109914E+03 -0.63883746522E+03  0.74132862057E+03  0.95174114298E+02 0.  0.
        254    2    1    2    0    0 -0.23838223584E+03 -0.27490109914E+03  0.52532908987E+01  0.96719291077E+03  0.89612377767E+03 0.  0.
        -24    2    4    4    0    0 -0.12409364349E+03 -0.42817617515E+03 -0.33900796269E+03  0.56552310945E+03  0.78459666235E+02 0.  0.
         24    2    4    4    0    0 -0.11428859235E+03  0.15327507601E+03  0.34426125359E+03  0.40166980132E+03  0.79168726799E+02 0.  0.
         13    1    3    3    0    0  0.12332991620E+03  0.11987614677E+03 -0.21296359439E+03  0.27374084702E+03  0.00000000000E+00 0. -1.
        -13    1    3    3    0    0  0.11505231964E+03  0.15502495236E+03 -0.42587387083E+03  0.46758777354E+03  0.00000000000E+00 0.  1.
          2    1    6    6  502    0 -0.74899262012E+02  0.96797943147E+02  0.13918943719E+03  0.18534681188E+03  0.00000000000E+00 0. -1.
          3    1    5    5  503    0 -0.92957181316E+02 -0.30984060016E+03 -0.19994344645E+03  0.38028885975E+03  0.00000000000E+00 0. -1.
         -4    1    5    5    0  503 -0.31136462175E+02 -0.11833557499E+03 -0.13906451624E+03  0.18523424970E+03  0.00000000000E+00 0.  1.
         -1    1    6    6    0  502 -0.39389330335E+02  0.56477132865E+02  0.20507181640E+03  0.21632298944E+03  0.00000000000E+00 0.  1.
<mgrwt>
<rscale>  0 0.15867000E+04</rscale>
<asrwt>0</asrwt>
<pdfrwt beam="1">  1        2 0.82687489E-01 0.15867000E+04</pdfrwt>
<pdfrwt beam="2">  1       -2 0.18016198E+00 0.15867000E+04</pdfrwt>
<totfact> 0.98118623E+00</totfact>
</mgrwt>
</event>
<event>
12    1  0.1519630E-007  0.1695214E+04  0.7818608E-02  0.8764099E-01
         -3   -1    0    0    0  501 -0.00000000000E+00  0.00000000000E+00  0.18470109560E+04  0.18470109560E+04  0.00000000000E+00 0.  1.
          3   -1    0    0  501    0  0.00000000000E+00 -0.00000000000E+00 -0.38897323415E+03  0.38897323415E+03  0.00000000000E+00 0. -1.
         23    2    1    2    0    0  0.28687316919E+03  0.51940085501E+03  0.69212043230E+03  0.91610927953E+03  0.90288735954E+02 0.  0.
        254    2    1    2    0    0 -0.28687316919E+03 -0.51940085501E+03  0.76591728951E+03  0.13198749106E+04  0.89630743710E+03 0.  0.
        -24    2    4    4    0    0 -0.57828237664E+03 -0.29027052650E+03  0.65668881459E+03  0.92524259106E+03  0.78524947749E+02 0.  0.
         24    2    4    4    0    0  0.29140920745E+03 -0.22913032851E+03  0.10922847492E+03  0.39463231951E+03  0.79898524641E+02 0.  0.
         11    1    3    3    0    0  0.27563269561E+03  0.44757372099E+03  0.58284557574E+03  0.78485959494E+03  0.00000000000E+00 0. -1.
        -11    1    3    3    0    0  0.11240473584E+02  0.71827134026E+02  0.10927485656E+03  0.13124968459E+03  0.00000000000E+00 0.  1.
          4    1    6    6  502    0  0.14440138977E+03 -0.98516908520E+02  0.11890012304E+02  0.17521048777E+03  0.00000000000E+00 0. -1.
          1    1    5    5  503    0 -0.32563748310E+02 -0.15855699152E+02  0.67288494768E+02  0.76416898836E+02  0.00000000000E+00 0. -1.
         -2    1    5    5    0  503 -0.54571862833E+03 -0.27441482735E+03  0.58940031982E+03  0.84882569223E+03  0.00000000000E+00 0.  1.
         -3    1    6    6    0  502  0.14700781767E+03 -0.13061341999E+03  0.97338462611E+02  0.21942183174E+03  0.00000000000E+00 0.  1.
<mgrwt>
<rscale>  0 0.16952142E+04</rscale>
<asrwt>0</asrwt>
<pdfrwt beam="1">  1        3 0.59842037E-01 0.16952142E+04</pdfrwt>
<pdfrwt beam="2">  1       -3 0.28415553E+00 0.16952142E+04</pdfrwt>
<totfact> 0.31807706E-01</totfact>
</mgrwt>
</event>
<event>
12    1  0.1519630E-007  0.1682909E+04  0.7818608E-02  0.8771172E-01
          2   -1    0    0  501    0  0.00000000000E+00  0.00000000000E+00  0.24199375273E+04  0.24199375273E+04  0.00000000000E+00 0. -1.
         -2   -1    0    0    0  501 -0.00000000000E+00 -0.00000000000E+00 -0.29258846565E+03  0.29258846565E+03  0.00000000000E+00 0.  1.
         23    2    1    2    0    0 -0.21965007675E+03 -0.19889817805E+01 -0.12924084500E+03  0.27059049370E+03  0.90917033609E+02 0.  0.
        254    2    1    2    0    0  0.21965007675E+03  0.19889817805E+01  0.22565899066E+04  0.24419354992E+04  0.90697346345E+03 0.  0.
        -24    2    4    4    0    0 -0.10760221374E+03 -0.21899012390E+03  0.18571000968E+04  0.18745862323E+04  0.75616546146E+02 0.  0.
         24    2    4    4    0    0  0.32725229048E+03  0.22097910568E+03  0.39948980980E+03  0.56734926688E+03  0.79795085868E+02 0.  0.
         13    1    3    3    0    0 -0.11488089833E+03 -0.42421537304E+02 -0.88639349774E+02  0.15117586434E+03  0.00000000000E+00 0. -1.
        -13    1    3    3    0    0 -0.10476917841E+03  0.40432555524E+02 -0.40601495231E+02  0.11941462936E+03  0.00000000000E+00 0.  1.
          2    1    6    6  502    0  0.30675997756E+02  0.13056252684E+02  0.70734359299E+02  0.78197392270E+02  0.00000000000E+00 0. -1.
          1    1    5    5  503    0  0.77828489409E+01 -0.19207121114E+02  0.83011215441E+02  0.85559033001E+02  0.00000000000E+00 0. -1.
         -2    1    5    5    0  503 -0.11538506268E+03 -0.19978300278E+03  0.17740888814E+04  0.17890271993E+04  0.00000000000E+00 0.  1.
         -1    1    6    6    0  502  0.29657629273E+03  0.20792285300E+03  0.32875545050E+03  0.48915187461E+03  0.00000000000E+00 0.  1.
<mgrwt>
<rscale>  0 0.16829092E+04</rscale>
<asrwt>0</asrwt>
<pdfrwt beam="1">  1        2 0.37229807E+00 0.16829092E+04</pdfrwt>
<pdfrwt beam="2">  1       -2 0.45013612E-01 0.16829092E+04</pdfrwt>
<totfact> 0.17290953E+01</totfact>
</mgrwt>
</event>
<event>
12    1  0.1519630E-007  0.1232731E+04  0.7818608E-02  0.9084680E-01
          2   -1    0    0  501    0  0.00000000000E+00  0.00000000000E+00  0.94943397401E+03  0.94943397401E+03  0.00000000000E+00 0.  1.
         -2   -1    0    0    0  501 -0.00000000000E+00 -0.00000000000E+00 -0.40013965616E+03  0.40013965616E+03  0.00000000000E+00 0. -1.
         23    2    1    2    0    0  0.22187438108E+03  0.16241800556E+03  0.15369262741E+03  0.32818158935E+03  0.92053692795E+02 0.  0.
        254    2    1    2    0    0 -0.22187438108E+03 -0.16241800556E+03  0.39560169044E+03  0.10213920408E+04  0.90062931002E+03 0.  0.
        -24    2    4    4    0    0 -0.32551073079E+03  0.29911787288E+03  0.27694702364E+03  0.52763743803E+03  0.79201479636E+02 0.  0.
         24    2    4    4    0    0  0.10363634971E+03 -0.46153587844E+03  0.11865466680E+03  0.49375460279E+03  0.77193378961E+02 0.  0.
         11    1    3    3    0    0  0.45204591859E+01  0.23135831053E+02 -0.63899053781E+01  0.24424007053E+02  0.00000000000E+00 0. -1.
        -11    1    3    3    0    0  0.21735392189E+03  0.13928217451E+03  0.16008253279E+03  0.30375758230E+03  0.00000000000E+00 0.  1.
          4    1    6    6  502    0  0.93857946408E+02 -0.43186658039E+03  0.12975445652E+03  0.46060208026E+03  0.00000000000E+00 0. -1.
          1    1    5    5  503    0 -0.29179647310E+03  0.24020867301E+03  0.25643151342E+03  0.45673023698E+03  0.00000000000E+00 0. -1.
         -2    1    5    5    0  503 -0.33714257691E+02  0.58909199867E+02  0.20515510218E+02  0.70907201046E+02  0.00000000000E+00 0.  1.
         -3    1    6    6    0  502  0.97784033028E+01 -0.29669298057E+02 -0.11099789716E+02  0.33152522530E+02  0.00000000000E+00 0.  1.
<mgrwt>
<rscale>  0 0.12327306E+04</rscale>
<asrwt>0</asrwt>
<pdfrwt beam="1">  1        2 0.14606676E+00 0.12327306E+04</pdfrwt>
<pdfrwt beam="2">  1       -2 0.61559947E-01 0.12327306E+04</pdfrwt>
<totfact> 0.65633973E+01</totfact>
</mgrwt>
</event>
<event>
12    1  0.1519630E-007  0.1952044E+04  0.7818608E-02  0.8629376E-01
         -2   -1    0    0    0  501 -0.00000000000E+00  0.00000000000E+00  0.44691421759E+03  0.44691421759E+03  0.00000000000E+00 0.  1.
          2   -1    0    0  501    0  0.00000000000E+00 -0.00000000000E+00 -0.21315479378E+04  0.21315479378E+04  0.00000000000E+00 0. -1.
         23    2    1    2    0    0 -0.80211750013E+02 -0.64567187812E+03 -0.17207543983E+03  0.68311984931E+03  0.11711819884E+03 0.  0.
        254    2    1    2    0    0  0.80211750013E+02  0.64567187812E+03 -0.15125582804E+04  0.18953423061E+04  0.93870325806E+03 0.  0.
        -24    2    4    4    0    0 -0.32600351427E+03  0.20955446838E+03 -0.10923481193E+04  0.11617087562E+04  0.78431205948E+02 0.  0.
         24    2    4    4    0    0  0.40621526428E+03  0.43611740974E+03 -0.42021016112E+03  0.73363354989E+03  0.80202057306E+02 0.  0.
         11    1    3    3    0    0 -0.73341997748E+02 -0.63878205640E+03 -0.15183575429E+03  0.66066304611E+03  0.00000000000E+00 0.  1.
        -11    1    3    3    0    0 -0.68697522648E+01 -0.68898217181E+01 -0.20239685538E+02  0.22456803205E+02  0.00000000000E+00 0. -1.
          4    1    6    6  502    0  0.14583393174E+03  0.20442195992E+03 -0.20348362328E+03  0.32320497875E+03  0.00000000000E+00 0. -1.
          1    1    5    5  503    0 -0.19766889280E+03  0.11920904454E+03 -0.53475796584E+03  0.58245160271E+03  0.00000000000E+00 0. -1.
         -2    1    5    5    0  503 -0.12833462147E+03  0.90345423842E+02 -0.55759015345E+03  0.57925715352E+03  0.00000000000E+00 0.  1.
         -3    1    6    6    0  502  0.26038133253E+03  0.23169544982E+03 -0.21672653784E+03  0.41042857114E+03  0.00000000000E+00 0.  1.
<mgrwt>
<rscale>  0 0.19520441E+04</rscale>
<asrwt>0</asrwt>
<pdfrwt beam="1">  1        2 0.32793045E+00 0.19520441E+04</pdfrwt>
<pdfrwt beam="2">  1       -2 0.68756034E-01 0.19520441E+04</pdfrwt>
<totfact> 0.10171721E+01</totfact>
</mgrwt>
</event>
<event>
12    1  0.1519630E-007  0.1936121E+04  0.7818608E-02  0.8637083E-01
          2   -1    0    0  501    0  0.00000000000E+00  0.00000000000E+00  0.13459407296E+04  0.13459407296E+04  0.00000000000E+00 0. -1.
         -2   -1    0    0    0  501 -0.00000000000E+00 -0.00000000000E+00 -0.69627219549E+03  0.69627219549E+03  0.00000000000E+00 0.  1.
         23    2    1    2    0    0  0.95213271151E+02 -0.72018185419E+03  0.17001728961E+03  0.75159983430E+03  0.90933833338E+02 0.  0.
        254    2    1    2    0    0 -0.95213271151E+02  0.72018185419E+03  0.47965124446E+03  0.12906130908E+04  0.95283228516E+03 0.  0.
        -24    2    4    4    0    0  0.17175284641E+03  0.32379726499E+03 -0.22282202286E+03  0.43695870574E+03  0.83303946966E+02 0.  0.
         24    2    4    4    0    0 -0.26696611756E+03  0.39638458920E+03  0.70247326732E+03  0.85365438503E+03  0.82858115431E+02 0.  0.
         13    1    3    3    0    0  0.74319959773E+02 -0.52408371044E+03  0.16455789084E+03  0.55431623773E+03  0.00000000000E+00 0. -1.
        -13    1    3    3    0    0  0.20893311378E+02 -0.19609814374E+03  0.54593987730E+01  0.19728359657E+03  0.00000000000E+00 0.  1.
          2    1    6    6  502    0 -0.19784946511E+03  0.22686371489E+03  0.46232838555E+03  0.55168749493E+03  0.00000000000E+00 0. -1.
          3    1    5    5  503    0  0.12102904444E+03  0.25078286766E+03 -0.12640075041E+03  0.30580586328E+03  0.00000000000E+00 0. -1.
         -4    1    5    5    0  503  0.50723801971E+02  0.73014397327E+02 -0.96421272449E+02  0.13115284246E+03  0.00000000000E+00 0.  1.
         -1    1    6    6    0  502 -0.69116652453E+02  0.16952087431E+03  0.24014488177E+03  0.30196689009E+03  0.00000000000E+00 0.  1.
<mgrwt>
<rscale>  0 0.19361210E+04</rscale>
<asrwt>0</asrwt>
<pdfrwt beam="1">  1        2 0.20706780E+00 0.19361210E+04</pdfrwt>
<pdfrwt beam="2">  1       -2 0.10711880E+00 0.19361210E+04</pdfrwt>
<totfact> 0.10172146E+01</totfact>
</mgrwt>
</event>
<event>
12    1  0.1519630E-007  0.1192787E+04  0.7818608E-02  0.9119193E-01
         -2   -1    0    0    0  501 -0.00000000000E+00  0.00000000000E+00  0.39688536456E+03  0.39688536456E+03  0.00000000000E+00 0.  1.
          2   -1    0    0  501    0  0.00000000000E+00 -0.00000000000E+00 -0.89619145701E+03  0.89619145701E+03  0.00000000000E+00 0. -1.
         23    2    1    2    0    0  0.15936139965E+03 -0.14883997967E+03 -0.22692409157E+03  0.32802288611E+03  0.92493649677E+02 0.  0.
        254    2    1    2    0    0 -0.15936139965E+03  0.14883997967E+03 -0.27238200088E+03  0.96505393545E+03  0.89977094234E+03 0.  0.
        -24    2    4    4    0    0 -0.17352062840E+03  0.15276139527E+03  0.30015908213E+03  0.38686797013E+03  0.78268124790E+02 0.  0.
         24    2    4    4    0    0  0.14159228751E+02 -0.39214155972E+01 -0.57254108301E+03  0.57818596533E+03  0.79245551975E+02 0.  0.
         11    1    3    3    0    0  0.12895423189E+03 -0.13901511835E+03 -0.22737609227E+03  0.29606466251E+03  0.00000000000E+00 0. -1.
        -11    1    3    3    0    0  0.30407167756E+02 -0.98248613214E+01  0.45200069817E+00  0.31958223598E+02  0.00000000000E+00 0.  1.
          4    1    6    6  502    0  0.14798664609E+02  0.15242323426E+02 -0.39929496419E+02  0.45229344257E+02  0.00000000000E+00 0. -1.
          3    1    5    5  503    0 -0.23965514439E+02 -0.72507221736E+01  0.29634354775E+02  0.38795796645E+02  0.00000000000E+00 0. -1.
         -4    1    5    5    0  503 -0.14955511396E+03  0.16001211744E+03  0.27052472736E+03  0.34807217348E+03  0.00000000000E+00 0.  1.
         -3    1    6    6    0  502 -0.63943585777E+00 -0.19163739023E+02 -0.53261158659E+03  0.53295662107E+03  0.00000000000E+00 0.  1.
<mgrwt>
<rscale>  0 0.11927871E+04</rscale>
<asrwt>0</asrwt>
<pdfrwt beam="1">  1        2 0.13787561E+00 0.11927871E+04</pdfrwt>
<pdfrwt beam="2">  1       -2 0.61059287E-01 0.11927871E+04</pdfrwt>
<totfact> 0.72686030E+01</totfact>
</mgrwt>
</event>
<event>
12    1  0.1519630E-007  0.1878797E+04  0.7818608E-02  0.8665483E-01
         -1   -1    0    0    0  501 -0.00000000000E+00  0.00000000000E+00  0.95462141929E+03  0.95462141929E+03  0.00000000000E+00 0.  1.
          1   -1    0    0  501    0  0.00000000000E+00 -0.00000000000E+00 -0.92441875489E+03  0.92441875489E+03  0.00000000000E+00 0. -1.
         23    2    1    2    0    0  0.60781784744E+03 -0.11007809189E+03 -0.36204247641E+03  0.72175627615E+03  0.91091412673E+02 0.  0.
        254    2    1    2    0    0 -0.60781784744E+03  0.11007809189E+03  0.39224514081E+03  0.11572838980E+04  0.89659915691E+03 0.  0.
        -24    2    4    4    0    0  0.74183535441E+02 -0.27873274629E+03  0.91637048657E+02  0.31295197229E+03  0.79664593691E+02 0.  0.
         24    2    4    4    0    0 -0.68200138288E+03  0.38881083818E+03  0.30060809215E+03  0.84433192575E+03  0.78939354103E+02 0.  0.
         13    1    3    3    0    0  0.65897197992E+02  0.29409371299E+01 -0.12730669672E+02  0.67180054813E+02  0.00000000000E+00 0.  1.
        -13    1    3    3    0    0  0.54192064945E+03 -0.11301902902E+03 -0.34931180674E+03  0.65457622134E+03  0.00000000000E+00 0. -1.
          2    1    6    6  502    0 -0.33091167369E+03  0.21438323238E+03  0.11592100479E+03  0.41097492073E+03  0.00000000000E+00 0. -1.
          1    1    5    5  503    0 -0.10174685196E+02 -0.38845517725E+02  0.33037308846E+02  0.51999636940E+02  0.00000000000E+00 0. -1.
         -2    1    5    5    0  503  0.84358220638E+02 -0.23988722856E+03  0.58599739811E+02  0.26095233535E+03  0.00000000000E+00 0.  1.
         -1    1    6    6    0  502 -0.35108970919E+03  0.17442760580E+03  0.18468708736E+03  0.43335700502E+03  0.00000000000E+00 0.  1.
<mgrwt>
<rscale>  0 0.18787974E+04</rscale>
<asrwt>0</asrwt>
<pdfrwt beam="1">  1        1 0.14221827E+00 0.18787974E+04</pdfrwt>
<pdfrwt beam="2">  1       -1 0.14686483E+00 0.18787974E+04</pdfrwt>
<totfact> 0.60163874E+00</totfact>
</mgrwt>
</event>
<event>
12    1  0.1519630E-007  0.1610375E+04  0.7818608E-02  0.8814200E-01
         -2   -1    0    0    0  501 -0.00000000000E+00  0.00000000000E+00  0.58266883284E+03  0.58266883284E+03  0.00000000000E+00 0.  1.
          2   -1    0    0  501    0  0.00000000000E+00 -0.00000000000E+00 -0.11126848874E+04  0.11126848874E+04  0.00000000000E+00 0. -1.
         23    2    1    2    0    0  0.89183314105E+02  0.22875665095E+03 -0.69197648988E+03  0.74044209558E+03  0.95602120786E+02 0.  0.
        254    2    1    2    0    0 -0.89183314105E+02 -0.22875665095E+03  0.16196043535E+03  0.95491162463E+03  0.90848321909E+03 0.  0.
        -24    2    4    4    0    0  0.30864308062E+02 -0.52415987446E+03 -0.91640072028E+02  0.53976375350E+03  0.85151789674E+02 0.  0.
         24    2    4    4    0    0 -0.12004762217E+03  0.29540322352E+03  0.25360050738E+03  0.41514787113E+03  0.79749868393E+02 0.  0.
         11    1    3    3    0    0  0.90002699551E+02  0.23777519378E+03 -0.67283407262E+03  0.71926574920E+03  0.00000000000E+00 0. -1.
        -11    1    3    3    0    0 -0.81938544653E+00 -0.90185428327E+01 -0.19142417262E+02  0.21176346379E+02  0.00000000000E+00 0.  1.
          2    1    6    6  502    0 -0.31142546015E+02  0.55548019189E+02  0.15186242404E+02  0.65468027055E+02  0.00000000000E+00 0. -1.
          3    1    5    5  503    0 -0.32512657701E+01 -0.31267104883E+03 -0.17881956672E+02  0.31319885038E+03  0.00000000000E+00 0. -1.
         -4    1    5    5    0  503  0.34115573832E+02 -0.21148882563E+03 -0.73758115357E+02  0.22656490312E+03  0.00000000000E+00 0.  1.
         -1    1    6    6    0  502 -0.88905076152E+02  0.23985520433E+03  0.23841426497E+03  0.34967984407E+03  0.00000000000E+00 0.  1.
<mgrwt>
<rscale>  0 0.16103749E+04</rscale>
<asrwt>0</asrwt>
<pdfrwt beam="1">  1        2 0.17118229E+00 0.16103749E+04</pdfrwt>
<pdfrwt beam="2">  1       -2 0.89641360E-01 0.16103749E+04</pdfrwt>
<totfact> 0.21871849E+01</totfact>
</mgrwt>
</event>
<event>
12    1  0.1519630E-007  0.1475191E+04  0.7818608E-02  0.8901120E-01
         -2   -1    0    0    0  501 -0.00000000000E+00  0.00000000000E+00  0.15580738489E+03  0.15580738489E+03  0.00000000000E+00 0.  1.
          2   -1    0    0  501    0  0.00000000000E+00 -0.00000000000E+00 -0.34917948403E+04  0.34917948403E+04  0.00000000000E+00 0. -1.
         23    2    1    2    0    0 -0.82835179083E+02  0.39232046053E+02 -0.20296442813E+04  0.20337691334E+04  0.91433906107E+02 0.  0.
        254    2    1    2    0    0  0.82835179083E+02 -0.39232046053E+02 -0.13063431741E+04  0.16138330917E+04  0.94314576770E+03 0.  0.
        -24    2    4    4    0    0 -0.24088205283E+03 -0.38960001657E+03 -0.63051485289E+03  0.78249430028E+03  0.70256771657E+02 0.  0.
         24    2    4    4    0    0  0.32371723191E+03  0.35036797052E+03 -0.67582832119E+03  0.83133879144E+03  0.82642031846E+02 0.  0.
         11    1    3    3    0    0  0.11043966567E+02 -0.12478713218E+01 -0.73850246642E+03  0.73858609470E+03  0.00000000000E+00 0.  1.
        -11    1    3    3    0    0 -0.93879145650E+02  0.40479917375E+02 -0.12911418149E+04  0.12951830387E+04  0.00000000000E+00 0. -1.
          4    1    6    6  502    0  0.23177096822E+03  0.26158797069E+03 -0.55228103814E+03  0.65357508613E+03  0.00000000000E+00 0. -1.
          3    1    5    5  503    0 -0.16632743044E+03 -0.32301355232E+03 -0.48683130705E+03  0.60745970288E+03  0.00000000000E+00 0. -1.
         -4    1    5    5    0  503 -0.74554622388E+02 -0.66586464257E+02 -0.14368354584E+03  0.17503459740E+03  0.00000000000E+00 0.  1.
         -3    1    6    6    0  502  0.91946263694E+02  0.88779999830E+02 -0.12354728305E+03  0.17776370531E+03  0.00000000000E+00 0.  1.
<mgrwt>
<rscale>  0 0.14751914E+04</rscale>
<asrwt>0</asrwt>
<pdfrwt beam="1">  1        2 0.53719915E+00 0.14751914E+04</pdfrwt>
<pdfrwt beam="2">  1       -2 0.23970369E-01 0.14751914E+04</pdfrwt>
<totfact> 0.12528546E+01</totfact>
</mgrwt>
</event>
<event>
12    1  0.1519630E-007  0.2349774E+04  0.7818608E-02  0.8458550E-01
         -2   -1    0    0    0  501 -0.00000000000E+00  0.00000000000E+00  0.67600318913E+03  0.67600318913E+03  0.00000000000E+00 0.  1.
          2   -1    0    0  501    0  0.00000000000E+00 -0.00000000000E+00 -0.20419428612E+04  0.20419428612E+04  0.00000000000E+00 0. -1.
         23    2    1    2    0    0  0.31470792394E+03  0.88676551864E+03 -0.19005403773E+03  0.96437078449E+03  0.92175432075E+02 0.  0.
        254    2    1    2    0    0 -0.31470792394E+03 -0.88676551864E+03 -0.11758856344E+04  0.17535752659E+04  0.89829005643E+03 0.  0.
        -24    2    4    4    0    0 -0.52799773620E+03 -0.28824603302E+03 -0.32240739114E+03  0.68676790049E+03  0.76395276651E+02 0.  0.
         24    2    4    4    0    0  0.21328981226E+03 -0.59851948562E+03 -0.85347824322E+03  0.10668073654E+04  0.77037162990E+02 0.  0.
         11    1    3    3    0    0  0.90232247696E+02  0.32802395041E+03 -0.10628789646E+03  0.35642486936E+03  0.00000000000E+00 0. -1.
        -11    1    3    3    0    0  0.22447567624E+03  0.55874156823E+03 -0.83766141263E+02  0.60794591512E+03  0.00000000000E+00 0.  1.
          4    1    6    6  502    0  0.18714017871E+03 -0.47118470099E+03 -0.71900425238E+03  0.87977473473E+03  0.00000000000E+00 0. -1.
          3    1    5    5  503    0 -0.51603079082E+03 -0.28619476425E+03 -0.30163092701E+03  0.66270388281E+03  0.00000000000E+00 0. -1.
         -4    1    5    5    0  503 -0.11966945372E+02 -0.20512687772E+01 -0.20776464126E+02  0.24064017675E+02  0.00000000000E+00 0.  1.
         -3    1    6    6    0  502  0.26149633547E+02 -0.12733478462E+03 -0.13447399084E+03  0.18703263064E+03  0.00000000000E+00 0.  1.
<mgrwt>
<rscale>  0 0.23497744E+04</rscale>
<asrwt>0</asrwt>
<pdfrwt beam="1">  1        2 0.31414505E+00 0.23497744E+04</pdfrwt>
<pdfrwt beam="2">  1       -2 0.10400049E+00 0.23497744E+04</pdfrwt>
<totfact> 0.42995601E+00</totfact>
</mgrwt>
</event>
<event>
12    1  0.1519630E-007  0.2567943E+04  0.7818608E-02  0.8379173E-01
          2   -1    0    0  501    0  0.00000000000E+00  0.00000000000E+00  0.31269195234E+04  0.31269195234E+04  0.00000000000E+00 0. -1.
         -2   -1    0    0    0  501 -0.00000000000E+00 -0.00000000000E+00 -0.52722250135E+03  0.52722250135E+03  0.00000000000E+00 0.  1.
         23    2    1    2    0    0  0.26640460643E+02  0.99540191530E+02  0.27266107173E+04  0.27300704318E+04  0.90887817172E+02 0.  0.
        254    2    1    2    0    0 -0.26640460643E+02 -0.99540191530E+02 -0.12691369522E+03  0.92407159292E+03  0.90949615664E+03 0.  0.
        -24    2    4    4    0    0 -0.75427843351E+02  0.47509575491E+02  0.37377799496E+03  0.39249531857E+03  0.79975410376E+02 0.  0.
         24    2    4    4    0    0  0.48787382707E+02 -0.14704976702E+03 -0.50069169017E+03  0.53157627436E+03  0.88754290939E+02 0.  0.
         11    1    3    3    0    0  0.44539490709E+02  0.69089325086E+02  0.24259081600E+04  0.24273004556E+04  0.00000000000E+00 0. -1.
        -11    1    3    3    0    0 -0.17899030066E+02  0.30450866443E+02  0.30070255727E+03  0.30276997621E+03  0.00000000000E+00 0.  1.
          2    1    6    6  502    0  0.52501321504E+02 -0.10459200824E+03 -0.23543361310E+03  0.26291607620E+03  0.00000000000E+00 0. -1.
          1    1    5    5  503    0 -0.72271715324E+02  0.52427789840E+02  0.20480185440E+03  0.22341815850E+03  0.00000000000E+00 0. -1.
         -2    1    5    5    0  503 -0.31561280261E+01 -0.49182143493E+01  0.16897614056E+03  0.16907716006E+03  0.00000000000E+00 0.  1.
         -1    1    6    6    0  502 -0.37139387965E+01 -0.42457758783E+02 -0.26525807707E+03  0.26866019816E+03  0.00000000000E+00 0.  1.
<mgrwt>
<rscale>  0 0.25679426E+04</rscale>
<asrwt>0</asrwt>
<pdfrwt beam="1">  1        2 0.48106453E+00 0.25679426E+04</pdfrwt>
<pdfrwt beam="2">  1       -2 0.81111156E-01 0.25679426E+04</pdfrwt>
<totfact> 0.17189427E+00</totfact>
</mgrwt>
</event>
<event>
12    1  0.1519630E-007  0.1543351E+04  0.7818608E-02  0.8856126E-01
          2   -1    0    0  501    0  0.00000000000E+00  0.00000000000E+00  0.12261537606E+04  0.12261537606E+04  0.00000000000E+00 0. -1.
         -2   -1    0    0    0  501 -0.00000000000E+00 -0.00000000000E+00 -0.48565123847E+03  0.48565123847E+03  0.00000000000E+00 0.  1.
         23    2    1    2    0    0 -0.30099721227E+03 -0.36032870699E+03  0.44657741189E+03  0.65440267354E+03  0.91517077403E+02 0.  0.
        254    2    1    2    0    0  0.30099721227E+03  0.36032870699E+03  0.29392511023E+03  0.10574023255E+04  0.90070617225E+03 0.  0.
        -24    2    4    4    0    0  0.41738729444E+03 -0.11873478462E+03 -0.59072119265E+02  0.44518886009E+03  0.79959384873E+02 0.  0.
         24    2    4    4    0    0 -0.11639008218E+03  0.47906349161E+03  0.35299722950E+03  0.61221346544E+03  0.84556507824E+02 0.  0.
         11    1    3    3    0    0 -0.24059226349E+03 -0.32239027895E+03  0.34305063809E+03  0.52868125512E+03  0.00000000000E+00 0. -1.
        -11    1    3    3    0    0 -0.60404948775E+02 -0.37938428035E+02  0.10352677379E+03  0.12572141842E+03  0.00000000000E+00 0.  1.
          2    1    6    6  502    0  0.28575038360E+01  0.10729214246E+03  0.10198996400E+03  0.14805985924E+03  0.00000000000E+00 0. -1.
          1    1    5    5  503    0  0.25128209371E+02 -0.15506281032E+02 -0.24017909290E+02  0.38062207297E+02  0.00000000000E+00 0. -1.
         -2    1    5    5    0  503  0.39225908507E+03 -0.10322850359E+03 -0.35054209974E+02  0.40712665279E+03  0.00000000000E+00 0.  1.
         -1    1    6    6    0  502 -0.11924758601E+03  0.37177134915E+03  0.25100726550E+03  0.46415360620E+03  0.00000000000E+00 0.  1.
<mgrwt>
<rscale>  0 0.15433510E+04</rscale>
<asrwt>0</asrwt>
<pdfrwt beam="1">  1        2 0.18863904E+00 0.15433510E+04</pdfrwt>
<pdfrwt beam="2">  1       -2 0.74715575E-01 0.15433510E+04</pdfrwt>
<totfact> 0.28340462E+01</totfact>
</mgrwt>
</event>
<event>
12    1  0.1519630E-007  0.1949625E+04  0.7818608E-02  0.8630542E-01
          2   -1    0    0  501    0  0.00000000000E+00  0.00000000000E+00  0.55488038350E+03  0.55488038350E+03  0.00000000000E+00 0. -1.
         -2   -1    0    0    0  501 -0.00000000000E+00 -0.00000000000E+00 -0.17125478307E+04  0.17125478307E+04  0.00000000000E+00 0.  1.
         23    2    1    2    0    0 -0.60737214207E+03  0.15399076499E+03  0.59782128647E+02  0.63578930680E+03  0.89666409924E+02 0.  0.
        254    2    1    2    0    0  0.60737214207E+03 -0.15399076499E+03 -0.12174495759E+04  0.16316389074E+04  0.88738265690E+03 0.  0.
        -24    2    4    4    0    0 -0.16915483407E+03  0.14375777338E+03 -0.16514750792E+03  0.28799186207E+03  0.79912188973E+02 0.  0.
         24    2    4    4    0    0  0.77652697614E+03 -0.29774853838E+03 -0.10523020680E+04  0.13436470454E+04  0.79996271791E+02 0.  0.
         13    1    3    3    0    0 -0.49741965474E+03  0.11752658743E+03  0.14228921737E+02  0.51131328351E+03  0.00000000000E+00 0. -1.
        -13    1    3    3    0    0 -0.10995248733E+03  0.36464177560E+02  0.45553206910E+02  0.12447602329E+03  0.00000000000E+00 0.  1.
          2    1    6    6  502    0  0.64423187330E+03 -0.21966049854E+03 -0.82940473047E+03  0.10729387905E+04  0.00000000000E+00 0. -1.
          1    1    5    5  503    0 -0.12411407298E+03  0.13457656710E+03 -0.15728333805E+03  0.24135700518E+03  0.00000000000E+00 0. -1.
         -2    1    5    5    0  503 -0.45040761095E+02  0.91812062860E+01 -0.78641698706E+01  0.46634856885E+02  0.00000000000E+00 0.  1.
         -1    1    6    6    0  502  0.13229510284E+03 -0.78088039833E+02 -0.22289733749E+03  0.27070825488E+03  0.00000000000E+00 0.  1.
<mgrwt>
<rscale>  0 0.19496248E+04</rscale>
<asrwt>0</asrwt>
<pdfrwt beam="1">  1        2 0.85366215E-01 0.19496248E+04</pdfrwt>
<pdfrwt beam="2">  1       -2 0.26346889E+00 0.19496248E+04</pdfrwt>
<totfact> 0.27004546E+00</totfact>
</mgrwt>
</event>
<event>
12    1  0.1519630E-007  0.2057497E+04  0.7818608E-02  0.8580201E-01
         -1   -1    0    0    0  501 -0.00000000000E+00  0.00000000000E+00  0.62571397072E+03  0.62571397072E+03  0.00000000000E+00 0.  1.
          1   -1    0    0  501    0  0.00000000000E+00 -0.00000000000E+00 -0.16913853236E+04  0.16913853236E+04  0.00000000000E+00 0. -1.
         23    2    1    2    0    0  0.12815813868E+03 -0.52379761212E+03 -0.11375388167E+04  0.12621662653E+04  0.90998213305E+02 0.  0.
        254    2    1    2    0    0 -0.12815813868E+03  0.52379761212E+03  0.71867463808E+02  0.10549330290E+04  0.90384197533E+03 0.  0.
        -24    2    4    4    0    0  0.80063969072E+02  0.33819367576E+03  0.45230814183E+03  0.57614848306E+03  0.81112378195E+02 0.  0.
         24    2    4    4    0    0 -0.20822210775E+03  0.18560393636E+03 -0.38044067802E+03  0.47878454595E+03  0.81818485690E+02 0.  0.
         11    1    3    3    0    0 -0.20228711948E+01 -0.46447016900E+02 -0.15888157011E+03  0.16554386340E+03  0.00000000000E+00 0.  1.
        -11    1    3    3    0    0  0.13018100987E+03 -0.47735059522E+03 -0.97865724655E+03  0.10966224019E+04  0.00000000000E+00 0. -1.
          4    1    6    6  502    0 -0.15914512276E+03  0.10721911638E+03 -0.30049132389E+03  0.35653631617E+03  0.00000000000E+00 0. -1.
          3    1    5    5  503    0  0.14130216156E+02  0.20671069491E+03  0.22975117972E+03  0.30937772864E+03  0.00000000000E+00 0. -1.
         -4    1    5    5    0  503  0.65933752916E+02  0.13148298086E+03  0.22255696211E+03  0.26677075442E+03  0.00000000000E+00 0.  1.
         -3    1    6    6    0  502 -0.49076984985E+02  0.78384819974E+02 -0.79949354135E+02  0.12224822978E+03  0.00000000000E+00 0.  1.
<mgrwt>
<rscale>  0 0.20574970E+04</rscale>
<asrwt>0</asrwt>
<pdfrwt beam="1">  1        1 0.26021312E+00 0.20574970E+04</pdfrwt>
<pdfrwt beam="2">  1       -1 0.96263688E-01 0.20574970E+04</pdfrwt>
<totfact> 0.46342738E+00</totfact>
</mgrwt>
</event>
<event>
12    1  0.1519630E-007  0.1805655E+04  0.7818608E-02  0.8703298E-01
         -2   -1    0    0    0  501 -0.00000000000E+00  0.00000000000E+00  0.37413338424E+03  0.37413338424E+03  0.00000000000E+00 0.  1.
          2   -1    0    0  501    0  0.00000000000E+00 -0.00000000000E+00 -0.21786281676E+04  0.21786281676E+04  0.00000000000E+00 0. -1.
         23    2    1    2    0    0  0.15356400612E+03 -0.26434694804E+03  0.17080414756E+03  0.36182500479E+03  0.91005847925E+02 0.  0.
        254    2    1    2    0    0 -0.15356400612E+03  0.26434694804E+03 -0.19752989309E+04  0.21909365471E+04  0.89718218540E+03 0.  0.
        -24    2    4    4    0    0 -0.13320732266E+03  0.57445649354E+03 -0.15313195621E+04  0.16429747665E+04  0.81743673178E+02 0.  0.
         24    2    4    4    0    0 -0.20356683452E+02 -0.31010954550E+03 -0.44397936880E+03  0.54796178059E+03  0.81006841073E+02 0.  0.
         13    1    3    3    0    0  0.14115566055E+03 -0.15823361139E+03  0.11765383964E+03  0.24249788094E+03  0.00000000000E+00 0.  1.
        -13    1    3    3    0    0  0.12408345570E+02 -0.10611333666E+03  0.53150307914E+02  0.11932712386E+03  0.00000000000E+00 0. -1.
          4    1    6    6  502    0 -0.37627519265E+02 -0.70396893698E+02 -0.92629956093E+02  0.12227780508E+03  0.00000000000E+00 0. -1.
          1    1    5    5  503    0 -0.87300489169E+02  0.28027248377E+03 -0.85583164864E+03  0.90477723854E+03  0.00000000000E+00 0. -1.
         -2    1    5    5    0  503 -0.45906833495E+02  0.29418400977E+03 -0.67548791350E+03  0.73819752794E+03  0.00000000000E+00 0.  1.
         -3    1    6    6    0  502  0.17270835813E+02 -0.23971265180E+03 -0.35134941271E+03  0.42568397552E+03  0.00000000000E+00 0.  1.
<mgrwt>
<rscale>  0 0.18056550E+04</rscale>
<asrwt>0</asrwt>
<pdfrwt beam="1">  1        2 0.33517356E+00 0.18056550E+04</pdfrwt>
<pdfrwt beam="2">  1       -2 0.57558982E-01 0.18056550E+04</pdfrwt>
<totfact> 0.14165278E+01</totfact>
</mgrwt>
</event>
<event>
12    1  0.1519630E-007  0.1689039E+04  0.7818608E-02  0.8767641E-01
         -2   -1    0    0    0  501 -0.00000000000E+00  0.00000000000E+00  0.61283643253E+03  0.61283643253E+03  0.00000000000E+00 0.  1.
          2   -1    0    0  501    0  0.00000000000E+00 -0.00000000000E+00 -0.11637899075E+04  0.11637899075E+04  0.00000000000E+00 0. -1.
         23    2    1    2    0    0 -0.17873127218E+03 -0.40143636432E+03 -0.63473376243E+03  0.77753832727E+03  0.92643828497E+02 0.  0.
        254    2    1    2    0    0  0.17873127218E+03  0.40143636432E+03  0.83780287427E+02  0.99908801278E+03  0.89334299038E+03 0.  0.
        -24    2    4    4    0    0 -0.25682229516E+03  0.10249807790E+03  0.30596071042E+03  0.42041858894E+03  0.81708545129E+02 0.  0.
         24    2    4    4    0    0  0.43555356734E+03  0.29893828643E+03 -0.22218042299E+03  0.57866942383E+03  0.80144573146E+02 0.  0.
         13    1    3    3    0    0 -0.36240927119E+02 -0.13985281528E+03 -0.14752078971E+03  0.20648147165E+03  0.00000000000E+00 0.  1.
        -13    1    3    3    0    0 -0.14249034506E+03 -0.26158354905E+03 -0.48721297272E+03  0.57105685562E+03  0.00000000000E+00 0. -1.
          4    1    6    6  502    0  0.41174397300E+03  0.27068886050E+03 -0.22484622542E+03  0.54162845529E+03  0.00000000000E+00 0. -1.
          1    1    5    5  503    0 -0.14809597811E+03  0.35785681922E+02  0.11551052053E+03  0.19119548665E+03  0.00000000000E+00 0. -1.
         -2    1    5    5    0  503 -0.10872631705E+03  0.66712395975E+02  0.19045018989E+03  0.22922310229E+03  0.00000000000E+00 0.  1.
         -3    1    6    6    0  502  0.23809594345E+02  0.28249425923E+02  0.26658024261E+01  0.37040968540E+02  0.00000000000E+00 0.  1.
<mgrwt>
<rscale>  0 0.16890386E+04</rscale>
<asrwt>0</asrwt>
<pdfrwt beam="1">  1        2 0.17904460E+00 0.16890386E+04</pdfrwt>
<pdfrwt beam="2">  1       -2 0.94282529E-01 0.16890386E+04</pdfrwt>
<totfact> 0.17996209E+01</totfact>
</mgrwt>
</event>
<event>
12    1  0.1519630E-007  0.1992356E+04  0.7818608E-02  0.8610203E-01
         -2   -1    0    0    0  501 -0.00000000000E+00  0.00000000000E+00  0.37352661707E+03  0.37352661707E+03  0.00000000000E+00 0.  1.
          2   -1    0    0  501    0  0.00000000000E+00 -0.00000000000E+00 -0.26567591556E+04  0.26567591556E+04  0.00000000000E+00 0. -1.
         23    2    1    2    0    0  0.57796376849E+03  0.36719253523E+03 -0.29300109086E+03  0.75041888649E+03  0.91686369417E+02 0.  0.
        254    2    1    2    0    0 -0.57796376849E+03 -0.36719253523E+03 -0.19902314477E+04  0.22798668862E+04  0.87629865217E+03 0.  0.
        -24    2    4    4    0    0 -0.19619265439E+03  0.15359376421E+03 -0.13203779154E+04  0.13461222932E+04  0.81023370965E+02 0.  0.
         24    2    4    4    0    0 -0.38177111410E+03 -0.52078629944E+03 -0.66985353228E+03  0.93374459302E+03  0.78788686025E+02 0.  0.
         13    1    3    3    0    0  0.43987191248E+03  0.32206211106E+03 -0.22079678175E+03  0.58818578833E+03  0.00000000000E+00 0.  1.
        -13    1    3    3    0    0  0.13809185602E+03  0.45130424173E+02 -0.72204309105E+02  0.16223309816E+03  0.00000000000E+00 0. -1.
          4    1    6    6  502    0 -0.90712182060E+02 -0.84164768851E+02 -0.15816496717E+03  0.20081973292E+03  0.00000000000E+00 0. -1.
          3    1    5    5  503    0 -0.48108357187E+02  0.18671610128E+02 -0.45197982992E+03  0.45491626670E+03  0.00000000000E+00 0. -1.
         -4    1    5    5    0  503 -0.14808429721E+03  0.13492215408E+03 -0.86839808548E+03  0.89120602647E+03  0.00000000000E+00 0.  1.
         -3    1    6    6    0  502 -0.29105893204E+03 -0.43662153059E+03 -0.51168856511E+03  0.73292486011E+03  0.00000000000E+00 0.  1.
<mgrwt>
<rscale>  0 0.19923557E+04</rscale>
<asrwt>0</asrwt>
<pdfrwt beam="1">  1        2 0.40873217E+00 0.19923557E+04</pdfrwt>
<pdfrwt beam="2">  1       -2 0.57465635E-01 0.19923557E+04</pdfrwt>
<totfact> 0.74370658E+00</totfact>
</mgrwt>
</event>
<event>
12    1  0.1519630E-007  0.1808722E+04  0.7818608E-02  0.8701675E-01
          2   -1    0    0  501    0  0.00000000000E+00  0.00000000000E+00  0.21821129251E+04  0.21821129251E+04  0.00000000000E+00 0. -1.
         -2   -1    0    0    0  501 -0.00000000000E+00 -0.00000000000E+00 -0.37480595492E+03  0.37480595492E+03  0.00000000000E+00 0.  1.
         23    2    1    2    0    0  0.23915042007E+03  0.22901289528E+03  0.15654423547E+04  0.16024873338E+04  0.87841103759E+02 0.  0.
        254    2    1    2    0    0 -0.23915042007E+03 -0.22901289528E+03  0.24186461555E+03  0.95443154628E+03  0.86185918493E+03 0.  0.
        -24    2    4    4    0    0  0.85557181721E+02  0.26704080512E+03 -0.37352335942E+02  0.29421852589E+03  0.80861121881E+02 0.  0.
         24    2    4    4    0    0 -0.32470760179E+03 -0.49605370040E+03  0.27921695149E+03  0.66021302039E+03  0.80092608558E+02 0.  0.
         13    1    3    3    0    0  0.16799782972E+02  0.60923044767E+02  0.25314440303E+03  0.26091366173E+03  0.00000000000E+00 0.  1.
        -13    1    3    3    0    0  0.22235063710E+03  0.16808985051E+03  0.13122979516E+04  0.13415736721E+04  0.00000000000E+00 0. -1.
          2    1    6    6  502    0 -0.18241942793E+03 -0.34713547652E+03  0.19002776792E+03  0.43576420152E+03  0.00000000000E+00 0. -1.
          1    1    5    5  503    0  0.22569735062E+02  0.13200761552E+03  0.18291046630E+02  0.13516643770E+03  0.00000000000E+00 0. -1.
         -2    1    5    5    0  503  0.62987446659E+02  0.13503318961E+03 -0.55643382572E+02  0.15905208819E+03  0.00000000000E+00 0.  1.
         -1    1    6    6    0  502 -0.14228817387E+03 -0.14891822388E+03  0.89189183566E+02  0.22444881887E+03  0.00000000000E+00 0.  1.
<mgrwt>
<rscale>  0 0.18087221E+04</rscale>
<asrwt>0</asrwt>
<pdfrwt beam="1">  1        2 0.33570967E+00 0.18087221E+04</pdfrwt>
<pdfrwt beam="2">  1       -2 0.57662456E-01 0.18087221E+04</pdfrwt>
<totfact> 0.14045015E+01</totfact>
</mgrwt>
</event>
<event>
12    1  0.1519630E-007  0.2841812E+04  0.7818608E-02  0.8290404E-01
          2   -1    0    0  501    0  0.00000000000E+00  0.00000000000E+00  0.17594620445E+04  0.17594620445E+04  0.00000000000E+00 0. -1.
         -2   -1    0    0    0  501 -0.00000000000E+00 -0.00000000000E+00 -0.11474946698E+04  0.11474946698E+04  0.00000000000E+00 0.  1.
         23    2    1    2    0    0 -0.34143684890E+03 -0.41037092904E+03 -0.90800969902E+03  0.10571368087E+04  0.89850974495E+02 0.  0.
        254    2    1    2    0    0  0.34143684890E+03  0.41037092904E+03  0.15199770738E+04  0.18498199056E+04  0.90913143001E+03 0.  0.
        -24    2    4    4    0    0 -0.16183060913E+03  0.29962592231E+03  0.11711251134E+04  0.12222249489E+04  0.79592432353E+02 0.  0.
         24    2    4    4    0    0  0.50326745803E+03  0.11074500673E+03  0.34885196045E+03  0.62759495666E+03  0.81456420774E+02 0.  0.
         11    1    3    3    0    0 -0.74509648813E+01  0.38015328578E+01 -0.77341163186E+01  0.11392325705E+02  0.00000000000E+00 0. -1.
        -11    1    3    3    0    0 -0.33398588402E+03 -0.41417246190E+03 -0.90027558271E+03  0.10457444830E+04  0.00000000000E+00 0.  1.
          2    1    6    6  502    0  0.58581166323E+01  0.13467268928E+02  0.12737781146E+02  0.19440574358E+02  0.00000000000E+00 0. -1.
          1    1    5    5  503    0 -0.59574933855E+02  0.15678382937E+03  0.68814088564E+03  0.70828540884E+03  0.00000000000E+00 0. -1.
         -2    1    5    5    0  503 -0.10225567527E+03  0.14284209293E+03  0.48298422772E+03  0.51393954009E+03  0.00000000000E+00 0.  1.
         -1    1    6    6    0  502  0.49740934139E+03  0.97277737806E+02  0.33611417931E+03  0.60815438230E+03  0.00000000000E+00 0.  1.
<mgrwt>
<rscale>  0 0.28418116E+04</rscale>
<asrwt>0</asrwt>
<pdfrwt beam="1">  1        2 0.27068647E+00 0.28418116E+04</pdfrwt>
<pdfrwt beam="2">  1       -2 0.17653764E+00 0.28418116E+04</pdfrwt>
<totfact> 0.15106982E+00</totfact>
</mgrwt>
</event>
<event>
12    1  0.1519630E-007  0.1685546E+04  0.7818608E-02  0.8769651E-01
         -4   -1    0    0    0  501 -0.00000000000E+00  0.00000000000E+00  0.40151830258E+03  0.40151830258E+03  0.00000000000E+00 0.  1.
          4   -1    0    0  501    0  0.00000000000E+00 -0.00000000000E+00 -0.17689503771E+04  0.17689503771E+04  0.00000000000E+00 0. -1.
         23    2    1    2    0    0  0.23396491118E+03 -0.22566007734E+03 -0.11310480977E+04  0.11800618541E+04  0.87258981421E+02 0.  0.
        254    2    1    2    0    0 -0.23396491118E+03  0.22566007734E+03 -0.23638397676E+03  0.99040682559E+03  0.90518851381E+03 0.  0.
        -24    2    4    4    0    0 -0.47280632961E+03  0.38774230836E+03 -0.13600790983E+02  0.61704771609E+03  0.81688306403E+02 0.  0.
         24    2    4    4    0    0  0.23884141844E+03 -0.16208223102E+03 -0.22278318578E+03  0.37335910950E+03  0.80304445757E+02 0.  0.
         13    1    3    3    0    0  0.18860540094E+03 -0.20800564289E+03 -0.10346494418E+04  0.10720717384E+04  0.00000000000E+00 0. -1.
        -13    1    3    3    0    0  0.45359510237E+02 -0.17654434454E+02 -0.96398655895E+02  0.10799011567E+03  0.00000000000E+00 0.  1.
          4    1    6    6  502    0  0.10433155795E+03 -0.42198010493E+02 -0.48060188780E+02  0.12237453910E+03  0.00000000000E+00 0. -1.
          3    1    5    5  503    0  0.25832677077E+00  0.12817092524E+02  0.31223812280E+01  0.13194463157E+02  0.00000000000E+00 0. -1.
         -4    1    5    5    0  503 -0.47306465638E+03  0.37492521584E+03 -0.16723172211E+02  0.60385325294E+03  0.00000000000E+00 0.  1.
         -3    1    6    6    0  502  0.13450986048E+03 -0.11988422052E+03 -0.17472299700E+03  0.25098457040E+03  0.00000000000E+00 0.  1.
<mgrwt>
<rscale>  0 0.16855456E+04</rscale>
<asrwt>0</asrwt>
<pdfrwt beam="1">  1        4 0.27214621E+00 0.16855456E+04</pdfrwt>
<pdfrwt beam="2">  1       -4 0.61772047E-01 0.16855456E+04</pdfrwt>
<totfact> 0.21647708E-01</totfact>
</mgrwt>
</event>
<event>
12    1  0.1519630E-007  0.1472227E+04  0.7818608E-02  0.8903135E-01
          1   -1    0    0  501    0  0.00000000000E+00  0.00000000000E+00  0.10834974255E+04  0.10834974255E+04  0.00000000000E+00 0. -1.
         -1   -1    0    0    0  501 -0.00000000000E+00 -0.00000000000E+00 -0.50010526515E+03  0.50010526515E+03  0.00000000000E+00 0.  1.
         23    2    1    2    0    0  0.12995970335E+03 -0.37789150417E+03  0.37394434649E+03  0.55460017462E+03  0.89752247829E+02 0.  0.
        254    2    1    2    0    0 -0.12995970335E+03  0.37789150417E+03  0.20944781388E+03  0.10290025161E+04  0.92481688885E+03 0.  0.
        -24    2    4    4    0    0 -0.34519573504E+03  0.57721464716E+03  0.25062128767E+03  0.72224143910E+03  0.80528393363E+02 0.  0.
         24    2    4    4    0    0  0.21523603168E+03 -0.19932314299E+03 -0.41173473786E+02  0.30676107696E+03  0.79692149697E+02 0.  0.
         11    1    3    3    0    0  0.24343692249E+02 -0.17126505504E+03  0.20099686793E+03  0.26518686873E+03  0.00000000000E+00 0. -1.
        -11    1    3    3    0    0  0.10561601110E+03 -0.20662644912E+03  0.17294747856E+03  0.28941330588E+03  0.00000000000E+00 0.  1.
          2    1    6    6  502    0  0.11213613542E+03 -0.15457991198E+03 -0.35397028791E+02  0.19422258288E+03  0.00000000000E+00 0. -1.
          3    1    5    5  503    0 -0.25439990251E+03  0.35647893587E+03  0.14602784443E+03  0.46164994689E+03  0.00000000000E+00 0. -1.
         -4    1    5    5    0  503 -0.90795832526E+02  0.22073571130E+03  0.10459344324E+03  0.26059149221E+03  0.00000000000E+00 0.  1.
         -1    1    6    6    0  502  0.10309989626E+03 -0.44743231014E+02 -0.57764449950E+01  0.11253849407E+03  0.00000000000E+00 0.  1.
<mgrwt>
<rscale>  0 0.14722266E+04</rscale>
<asrwt>0</asrwt>
<pdfrwt beam="1">  1        1 0.16669191E+00 0.14722266E+04</pdfrwt>
<pdfrwt beam="2">  1       -1 0.76939272E-01 0.14722266E+04</pdfrwt>
<totfact> 0.21439449E+01</totfact>
</mgrwt>
</event>
<event>
12    1  0.1519630E-007  0.1405859E+04  0.7818608E-02  0.8949589E-01
         -2   -1    0    0    0  501 -0.00000000000E+00  0.00000000000E+00  0.26401671707E+03  0.26401671707E+03  0.00000000000E+00 0.  1.
          2   -1    0    0  501    0  0.00000000000E+00 -0.00000000000E+00 -0.18715087849E+04  0.18715087849E+04  0.00000000000E+00 0. -1.
         23    2    1    2    0    0  0.33473641702E+03 -0.22428480294E+03 -0.60014507772E+03  0.72894337055E+03  0.93979686360E+02 0.  0.
        254    2    1    2    0    0 -0.33473641702E+03  0.22428480294E+03 -0.10073469901E+04  0.14065821314E+04  0.89519449966E+03 0.  0.
        -24    2    4    4    0    0 -0.47304884378E+03  0.33261634785E+03 -0.10566873584E+04  0.12071490019E+04  0.78814313021E+02 0.  0.
         24    2    4    4    0    0  0.13831242677E+03 -0.10833154491E+03  0.49340368271E+02  0.19943312953E+03  0.80455268265E+02 0.  0.
         13    1    3    3    0    0  0.19861661972E+03 -0.18653610309E+03 -0.39294046250E+03  0.47816993471E+03  0.00000000000E+00 0. -1.
        -13    1    3    3    0    0  0.13611979730E+03 -0.37748699848E+02 -0.20720461521E+03  0.25077343584E+03  0.00000000000E+00 0.  1.
          2    1    6    6  502    0  0.56108310620E+02 -0.49260043674E+01  0.35575782491E+02  0.66618648586E+02  0.00000000000E+00 0. -1.
          1    1    5    5  503    0 -0.27821785187E+03  0.14871968426E+03 -0.55404581520E+03  0.63756527738E+03  0.00000000000E+00 0. -1.
         -2    1    5    5    0  503 -0.19483099191E+03  0.18389666358E+03 -0.50264154320E+03  0.56958372452E+03  0.00000000000E+00 0.  1.
         -1    1    6    6    0  502  0.82204116147E+02 -0.10340554054E+03  0.13764585780E+02  0.13281448094E+03  0.00000000000E+00 0.  1.
<mgrwt>
<rscale>  0 0.14058586E+04</rscale>
<asrwt>0</asrwt>
<pdfrwt beam="1">  1        2 0.28792443E+00 0.14058586E+04</pdfrwt>
<pdfrwt beam="2">  1       -2 0.40617957E-01 0.14058586E+04</pdfrwt>
<totfact> 0.43978098E+01</totfact>
</mgrwt>
</event>
<event>
12    1  0.1519630E-007  0.2171122E+04  0.7818608E-02  0.8530545E-01
         -2   -1    0    0    0  501 -0.00000000000E+00  0.00000000000E+00  0.16717689164E+04  0.16717689164E+04  0.00000000000E+00 0.  1.
          2   -1    0    0  501    0  0.00000000000E+00 -0.00000000000E+00 -0.70490744660E+03  0.70490744660E+03  0.00000000000E+00 0. -1.
         23    2    1    2    0    0 -0.11888949881E+03 -0.78458117349E+03  0.78837260825E+03  0.11223044358E+04  0.91288259646E+02 0.  0.
        254    2    1    2    0    0  0.11888949881E+03  0.78458117349E+03  0.17848886150E+03  0.12543719272E+04  0.95492844095E+03 0.  0.
        -24    2    4    4    0    0  0.41614028141E+03  0.52667727767E+03 -0.19767711932E+03  0.70414797246E+03  0.78653893642E+02 0.  0.
         24    2    4    4    0    0 -0.29725078260E+03  0.25790389582E+03  0.37616598082E+03  0.55022395473E+03  0.79831748080E+02 0.  0.
         11    1    3    3    0    0 -0.29258593033E+02 -0.61134209249E+02  0.46346255951E+02  0.82106225388E+02  0.00000000000E+00 0. -1.
        -11    1    3    3    0    0 -0.89630905780E+02 -0.72344696424E+03  0.74202635230E+03  0.10401982104E+04  0.00000000000E+00 0.  1.
          2    1    6    6  502    0 -0.12978847355E+03  0.62420859582E+02  0.12826845711E+03  0.19285800130E+03  0.00000000000E+00 0. -1.
          1    1    5    5  503    0  0.15337870167E+03  0.21031739852E+03 -0.38358882767E+02  0.26311563643E+03  0.00000000000E+00 0. -1.
         -2    1    5    5    0  503  0.26276157974E+03  0.31635987916E+03 -0.15931823655E+03  0.44103233603E+03  0.00000000000E+00 0.  1.
         -1    1    6    6    0  502 -0.16746230905E+03  0.19548303624E+03  0.24789752372E+03  0.35736595343E+03  0.00000000000E+00 0.  1.
<mgrwt>
<rscale>  0 0.21711217E+04</rscale>
<asrwt>0</asrwt>
<pdfrwt beam="1">  1        2 0.10844730E+00 0.21711217E+04</pdfrwt>
<pdfrwt beam="2">  1       -2 0.25719522E+00 0.21711217E+04</pdfrwt>
<totfact> 0.21594622E+00</totfact>
</mgrwt>
</event>
<event>
12    1  0.1519630E-007  0.1796000E+04  0.7818608E-02  0.8708429E-01
          2   -1    0    0  501    0  0.00000000000E+00  0.00000000000E+00  0.13084768350E+04  0.13084768350E+04  0.00000000000E+00 0. -1.
         -2   -1    0    0    0  501 -0.00000000000E+00 -0.00000000000E+00 -0.61629227518E+03  0.61629227518E+03  0.00000000000E+00 0.  1.
         23    2    1    2    0    0  0.11396419307E+03  0.88471058722E+02  0.95072072745E+03  0.96410171407E+03  0.69334319949E+02 0.  0.
        254    2    1    2    0    0 -0.11396419307E+03 -0.88471058722E+02 -0.25853616767E+03  0.96066739607E+03  0.91390695935E+03 0.  0.
        -24    2    4    4    0    0 -0.45587528626E+03  0.16072299837E+03 -0.18436437989E+03  0.52376604717E+03  0.81770953088E+02 0.  0.
         24    2    4    4    0    0  0.34191109319E+03 -0.24919405710E+03 -0.74171787775E+02  0.43690134890E+03  0.79877786843E+02 0.  0.
         13    1    3    3    0    0  0.10275556417E+03  0.42682305471E+02  0.72728764661E+03  0.73574982574E+03  0.00000000000E+00 0. -1.
        -13    1    3    3    0    0  0.11208628902E+02  0.45788753251E+02  0.22343308084E+03  0.22835188832E+03  0.00000000000E+00 0.  1.
          4    1    6    6  502    0  0.21529805407E+03 -0.19091700008E+03 -0.23953612038E+02  0.28874959487E+03  0.00000000000E+00 0. -1.
          1    1    5    5  503    0 -0.30498797215E+03  0.14126078768E+03 -0.14851021275E+03  0.36746095927E+03  0.00000000000E+00 0. -1.
         -2    1    5    5    0  503 -0.15088731411E+03  0.19462210692E+02 -0.35854167143E+02  0.15630508791E+03  0.00000000000E+00 0.  1.
         -3    1    6    6    0  502  0.12661303911E+03 -0.58277057022E+02 -0.50218175736E+02  0.14815175403E+03  0.00000000000E+00 0.  1.
<mgrwt>
<rscale>  0 0.17960002E+04</rscale>
<asrwt>0</asrwt>
<pdfrwt beam="1">  1        2 0.20130413E+00 0.17960002E+04</pdfrwt>
<pdfrwt beam="2">  1       -2 0.94814196E-01 0.17960002E+04</pdfrwt>
<totfact> 0.14453565E+01</totfact>
</mgrwt>
</event>
<event>
12    1  0.1519630E-007  0.3590419E+04  0.7818608E-02  0.8092690E-01
         -2   -1    0    0    0  501 -0.00000000000E+00  0.00000000000E+00  0.87165724335E+03  0.87165724335E+03  0.00000000000E+00 0.  1.
          2   -1    0    0  501    0  0.00000000000E+00 -0.00000000000E+00 -0.36972981373E+04  0.36972981373E+04  0.00000000000E+00 0. -1.
         23    2    1    2    0    0  0.19147210058E+03  0.15598846363E+04 -0.65513357598E+03  0.17053403358E+04  0.95310096655E+02 0.  0.
        254    2    1    2    0    0 -0.19147210058E+03 -0.15598846363E+04 -0.21705073180E+04  0.28636150449E+04  0.10095976742E+04 0.  0.
        -24    2    4    4    0    0 -0.57686210741E+03 -0.11939242687E+04 -0.14826832605E+04  0.19907366282E+04  0.80359326391E+02 0.  0.
         24    2    4    4    0    0  0.38539000683E+03 -0.36596036768E+03 -0.68782405744E+03  0.87287841672E+03  0.79764329721E+02 0.  0.
         13    1    3    3    0    0  0.46898240513E+02  0.31367931514E+03 -0.92409171807E+02  0.33035376908E+03  0.00000000000E+00 0.  1.
        -13    1    3    3    0    0  0.14457386007E+03  0.12462053212E+04 -0.56272440417E+03  0.13749865667E+04  0.00000000000E+00 0. -1.
          2    1    6    6  502    0  0.21574186908E+03 -0.25269715864E+03 -0.39791850218E+03  0.51840094756E+03  0.00000000000E+00 0. -1.
          3    1    5    5  503    0 -0.82512432250E+01 -0.31783243185E+01 -0.88448970681E+01  0.12506676792E+02  0.00000000000E+00 0. -1.
         -4    1    5    5    0  503 -0.56861086418E+03 -0.11907459443E+04 -0.14738383635E+04  0.19782299514E+04  0.00000000000E+00 0.  1.
         -1    1    6    6    0  502  0.16964813775E+03 -0.11326320904E+03 -0.28990555526E+03  0.35447746915E+03  0.00000000000E+00 0.  1.
<mgrwt>
<rscale>  0 0.35904188E+04</rscale>
<asrwt>0</asrwt>
<pdfrwt beam="1">  1        2 0.56881511E+00 0.35904188E+04</pdfrwt>
<pdfrwt beam="2">  1       -2 0.13410111E+00 0.35904188E+04</pdfrwt>
<totfact> 0.19153882E-01</totfact>
</mgrwt>
</event>
<event>
12    1  0.1519630E-007  0.1642303E+04  0.7818608E-02  0.8794973E-01
         -2   -1    0    0    0  501 -0.00000000000E+00  0.00000000000E+00  0.82180784488E+03  0.82180784488E+03  0.00000000000E+00 0.  1.
          2   -1    0    0  501    0  0.00000000000E+00 -0.00000000000E+00 -0.82049610948E+03  0.82049610948E+03  0.00000000000E+00 0. -1.
         23    2    1    2    0    0 -0.39941982822E+02  0.44440420095E+03  0.35387720663E+03  0.57632107070E+03  0.88467187958E+02 0.  0.
        254    2    1    2    0    0  0.39941982822E+02 -0.44440420095E+03 -0.35256547123E+03  0.10659828837E+04  0.90162444561E+03 0.  0.
        -24    2    4    4    0    0  0.46313547250E+03 -0.21826434521E+03 -0.16116386084E+03  0.54273080982E+03  0.80306610010E+02 0.  0.
         24    2    4    4    0    0 -0.42319348968E+03 -0.22613985574E+03 -0.19140161039E+03  0.52325207384E+03  0.83223748141E+02 0.  0.
         13    1    3    3    0    0 -0.85124575126E+01  0.15558130040E+03  0.72441695040E+02  0.17183073691E+03  0.00000000000E+00 0. -1.
        -13    1    3    3    0    0 -0.31429525310E+02  0.28882290055E+03  0.28143551159E+03  0.40449033379E+03  0.00000000000E+00 0.  1.
          2    1    6    6  502    0 -0.38938413696E+02 -0.10277926706E+01 -0.11299362937E+01  0.38968361204E+02  0.00000000000E+00 0. -1.
          3    1    5    5  503    0  0.17189625903E+03 -0.11198611134E+03 -0.93249300452E+02  0.22535448750E+03  0.00000000000E+00 0. -1.
         -4    1    5    5    0  503  0.29123921347E+03 -0.10627823386E+03 -0.67914560387E+02  0.31737632232E+03  0.00000000000E+00 0.  1.
         -1    1    6    6    0  502 -0.38425507598E+03 -0.22511206307E+03 -0.19027167410E+03  0.48428371263E+03  0.00000000000E+00 0.  1.
<mgrwt>
<rscale>  0 0.16423034E+04</rscale>
<asrwt>0</asrwt>
<pdfrwt beam="1">  1        2 0.12623017E+00 0.16423034E+04</pdfrwt>
<pdfrwt beam="2">  1       -2 0.12643198E+00 0.16423034E+04</pdfrwt>
<totfact> 0.14827543E+01</totfact>
</mgrwt>
</event>
<event>
12    1  0.1519630E-007  0.1180780E+04  0.7818608E-02  0.9129848E-01
         -2   -1    0    0    0  501 -0.00000000000E+00  0.00000000000E+00  0.55035979833E+03  0.55035979833E+03  0.00000000000E+00 0.  1.
          2   -1    0    0  501    0  0.00000000000E+00 -0.00000000000E+00 -0.63333196154E+03  0.63333196154E+03  0.00000000000E+00 0. -1.
         23    2    1    2    0    0  0.65158099556E+02  0.91292931463E+02 -0.22542718124E+03  0.26705764101E+03  0.89007821599E+02 0.  0.
        254    2    1    2    0    0 -0.65158099556E+02 -0.91292931463E+02  0.14245501803E+03  0.91663411886E+03  0.89852362152E+03 0.  0.
        -24    2    4    4    0    0  0.34606192421E+03 -0.21873742139E+03  0.22050098598E+03  0.47195834102E+03  0.80740794723E+02 0.  0.
         24    2    4    4    0    0 -0.41122002377E+03  0.12744448993E+03 -0.78045967947E+02  0.44467577785E+03  0.79381158540E+02 0.  0.
         11    1    3    3    0    0 -0.79586526260E+01  0.52906949351E+02 -0.50288464506E+02  0.73426256228E+02  0.00000000000E+00 0.  1.
        -11    1    3    3    0    0  0.73116752182E+02  0.38385982112E+02 -0.17513871674E+03  0.19363138478E+03  0.00000000000E+00 0. -1.
          4    1    6    6  502    0 -0.39745554444E+03  0.13678831909E+03 -0.69741681369E+02  0.42608198291E+03  0.00000000000E+00 0. -1.
          1    1    5    5  503    0  0.31418891944E+03 -0.17496224990E+03  0.21109450395E+03  0.41699802828E+03  0.00000000000E+00 0. -1.
         -2    1    5    5    0  503  0.31873004769E+02 -0.43775171491E+02  0.94064820253E+01  0.54960312737E+02  0.00000000000E+00 0.  1.
         -3    1    6    6    0  502 -0.13764479327E+02 -0.93438291560E+01 -0.83042865775E+01  0.18593794933E+02  0.00000000000E+00 0.  1.
<mgrwt>
<rscale>  0 0.11807802E+04</rscale>
<asrwt>0</asrwt>
<pdfrwt beam="1">  1        2 0.97435686E-01 0.11807802E+04</pdfrwt>
<pdfrwt beam="2">  1       -2 0.84670738E-01 0.11807802E+04</pdfrwt>
<totfact> 0.55787198E+01</totfact>
</mgrwt>
</event>
<event>
12    1  0.1519630E-007  0.1940045E+04  0.7818608E-02  0.8635176E-01
          2   -1    0    0  501    0  0.00000000000E+00  0.00000000000E+00  0.14480692552E+04  0.14480692552E+04  0.00000000000E+00 0. -1.
         -2   -1    0    0    0  501 -0.00000000000E+00 -0.00000000000E+00 -0.64979217774E+03  0.64979217774E+03  0.00000000000E+00 0.  1.
         23    2    1    2    0    0 -0.19903557949E+03  0.17448016276E+03 -0.45603867619E+03  0.53465282117E+03  0.88452676055E+02 0.  0.
        254    2    1    2    0    0  0.19903557949E+03 -0.17448016276E+03  0.12543157537E+04  0.15632086118E+04  0.89456954173E+03 0.  0.
        -24    2    4    4    0    0 -0.74643784064E+01  0.34875778164E+03  0.40214081744E+03  0.53891487951E+03  0.83811115683E+02 0.  0.
         24    2    4    4    0    0  0.20649995790E+03 -0.52323794440E+03  0.85217493626E+03  0.10242937323E+04  0.80965109685E+02 0.  0.
         13    1    3    3    0    0 -0.15103271884E+03  0.10718724067E+03 -0.37820146658E+03  0.42111321049E+03  0.00000000000E+00 0.  1.
        -13    1    3    3    0    0 -0.48002860646E+02  0.67292922089E+02 -0.77837209614E+02  0.11353961068E+03  0.00000000000E+00 0. -1.
          4    1    6    6  502    0 -0.25166860969E+01 -0.12570884073E+02  0.43142826260E+02  0.45007380428E+02  0.00000000000E+00 0. -1.
          1    1    5    5  503    0  0.34605568867E+02  0.22322455773E+03  0.23997014527E+03  0.32956398345E+03  0.00000000000E+00 0. -1.
         -2    1    5    5    0  503 -0.42069947273E+02  0.12553322391E+03  0.16217067217E+03  0.20935089606E+03  0.00000000000E+00 0.  1.
         -1    1    6    6    0  502  0.20901664399E+03 -0.51066706032E+03  0.80903211000E+03  0.97928635188E+03  0.00000000000E+00 0.  1.
<mgrwt>
<rscale>  0 0.19400454E+04</rscale>
<asrwt>0</asrwt>
<pdfrwt beam="1">  1        2 0.22277988E+00 0.19400454E+04</pdfrwt>
<pdfrwt beam="2">  1       -2 0.99968028E-01 0.19400454E+04</pdfrwt>
<totfact> 0.10484695E+01</totfact>
</mgrwt>
</event>
<event>
12    1  0.1519630E-007  0.1431170E+04  0.7818608E-02  0.8931560E-01
         -2   -1    0    0    0  501 -0.00000000000E+00  0.00000000000E+00  0.33912255886E+03  0.33912255886E+03  0.00000000000E+00 0.  1.
          2   -1    0    0  501    0  0.00000000000E+00 -0.00000000000E+00 -0.15099607072E+04  0.15099607072E+04  0.00000000000E+00 0. -1.
         23    2    1    2    0    0 -0.34218570471E+03  0.18737018398E+02 -0.68847424626E+03  0.77438120707E+03  0.90704651153E+02 0.  0.
        254    2    1    2    0    0  0.34218570471E+03 -0.18737018398E+02 -0.48236390204E+03  0.10747020590E+04  0.89714405151E+03 0.  0.
        -24    2    4    4    0    0  0.40852503248E+02  0.10558498691E+03 -0.67368725284E+03  0.68780178309E+03  0.79997885606E+02 0.  0.
         24    2    4    4    0    0  0.30133320146E+03 -0.12432200531E+03  0.19132335079E+03  0.38690027587E+03  0.82641028546E+02 0.  0.
         13    1    3    3    0    0 -0.20587717397E+03 -0.15043065920E+02 -0.48549856533E+03  0.52756095527E+03  0.00000000000E+00 0. -1.
        -13    1    3    3    0    0 -0.13630853074E+03  0.33780084318E+02 -0.20297568093E+03  0.24682025180E+03  0.00000000000E+00 0.  1.
          4    1    6    6  502    0  0.68760153030E+02 -0.13071985322E+02  0.77696628235E+01  0.70421609648E+02  0.00000000000E+00 0. -1.
          1    1    5    5  503    0 -0.37088535540E+01 -0.63913587597E+01 -0.65759363790E+01  0.98918148356E+01  0.00000000000E+00 0. -1.
         -2    1    5    5    0  503  0.44561356802E+02  0.11197634567E+03 -0.66711131646E+03  0.67790996825E+03  0.00000000000E+00 0.  1.
         -3    1    6    6    0  502  0.23257304843E+03 -0.11125001999E+03  0.18355368797E+03  0.31647866622E+03  0.00000000000E+00 0.  1.
<mgrwt>
<rscale>  0 0.14311698E+04</rscale>
<asrwt>0</asrwt>
<pdfrwt beam="1">  1        2 0.23230165E+00 0.14311698E+04</pdfrwt>
<pdfrwt beam="2">  1       -2 0.52172702E-01 0.14311698E+04</pdfrwt>
<totfact> 0.42191851E+01</totfact>
</mgrwt>
</event>
<event>
12    1  0.1519630E-007  0.1642527E+04  0.7818608E-02  0.8794840E-01
         -1   -1    0    0    0  501 -0.00000000000E+00  0.00000000000E+00  0.69262727873E+03  0.69262727873E+03  0.00000000000E+00 0.  1.
          1   -1    0    0  501    0  0.00000000000E+00 -0.00000000000E+00 -0.97379000312E+03  0.97379000312E+03  0.00000000000E+00 0. -1.
         23    2    1    2    0    0 -0.69044751196E+02  0.50602001705E+03 -0.34636160258E+03  0.62376645465E+03  0.91075764544E+02 0.  0.
        254    2    1    2    0    0  0.69044751196E+02 -0.50602001705E+03  0.65198878184E+02  0.10426508272E+04  0.90666775525E+03 0.  0.
        -24    2    4    4    0    0 -0.18964256212E+03 -0.30820239596E+03  0.41641694589E+03  0.55725002161E+03  0.78558866583E+02 0.  0.
         24    2    4    4    0    0  0.25868731332E+03 -0.19781762109E+03 -0.35121806770E+03  0.48540080558E+03  0.78796406593E+02 0.  0.
         11    1    3    3    0    0 -0.28290525657E+02  0.83582108986E+02 -0.25885553541E+02  0.91958603004E+02  0.00000000000E+00 0.  1.
        -11    1    3    3    0    0 -0.40754225540E+02  0.42243790807E+03 -0.32047604903E+03  0.53180785165E+03  0.00000000000E+00 0. -1.
          4    1    6    6  502    0  0.15399803832E+03 -0.13014835357E+03 -0.26858132939E+03  0.33584210612E+03  0.00000000000E+00 0. -1.
          1    1    5    5  503    0 -0.10911748704E+03 -0.23364014051E+03  0.26013865188E+03  0.36628740005E+03  0.00000000000E+00 0. -1.
         -2    1    5    5    0  503 -0.80525075079E+02 -0.74562255456E+02  0.15627829401E+03  0.19096262156E+03  0.00000000000E+00 0.  1.
         -3    1    6    6    0  502  0.10468927500E+03 -0.67669267521E+02 -0.82636738310E+02  0.14955869946E+03  0.00000000000E+00 0.  1.
<mgrwt>
<rscale>  0 0.16425267E+04</rscale>
<asrwt>0</asrwt>
<pdfrwt beam="1">  1        1 0.14981385E+00 0.16425267E+04</pdfrwt>
<pdfrwt beam="2">  1       -1 0.10655804E+00 0.16425267E+04</pdfrwt>
<totfact> 0.12482433E+01</totfact>
</mgrwt>
</event>
<event>
12    1  0.1519630E-007  0.1377642E+04  0.7818608E-02  0.8970163E-01
         -2   -1    0    0    0  501 -0.00000000000E+00  0.00000000000E+00  0.16720857804E+03  0.16720857804E+03  0.00000000000E+00 0.  1.
          2   -1    0    0  501    0  0.00000000000E+00 -0.00000000000E+00 -0.28376198010E+04  0.28376198010E+04  0.00000000000E+00 0. -1.
         23    2    1    2    0    0  0.25872736986E+03 -0.26615014468E+03 -0.57891735659E+03  0.69338187190E+03  0.88641768308E+02 0.  0.
        254    2    1    2    0    0 -0.25872736986E+03  0.26615014468E+03 -0.20914938664E+04  0.23114465072E+04  0.91140694036E+03 0.  0.
        -24    2    4    4    0    0 -0.29498415830E+03  0.31470974682E+03 -0.33620932176E+03  0.55312310467E+03  0.82768245675E+02 0.  0.
         24    2    4    4    0    0  0.36256788445E+02 -0.48559602140E+02 -0.17552845446E+04  0.17583234025E+04  0.83694477010E+02 0.  0.
         13    1    3    3    0    0  0.90342390956E+02 -0.83654301206E+02 -0.12188602363E+03  0.17325124089E+03  0.00000000000E+00 0.  1.
        -13    1    3    3    0    0  0.16838497890E+03 -0.18249584347E+03 -0.45703133296E+03  0.52013063101E+03  0.00000000000E+00 0. -1.
          2    1    6    6  502    0  0.12866280525E+02  0.15098981345E+02 -0.11964157611E+03  0.12127500627E+03  0.00000000000E+00 0. -1.
          1    1    5    5  503    0 -0.69864428496E+02  0.43899396022E+02 -0.97276860798E+02  0.12755776333E+03  0.00000000000E+00 0. -1.
         -2    1    5    5    0  503 -0.22511972981E+03  0.27081035080E+03 -0.23893246096E+03  0.42556534134E+03  0.00000000000E+00 0.  1.
         -1    1    6    6    0  502  0.23390507920E+02 -0.63658583485E+02 -0.16356429685E+04  0.16370483962E+04  0.00000000000E+00 0.  1.
<mgrwt>
<rscale>  0 0.13776420E+04</rscale>
<asrwt>0</asrwt>
<pdfrwt beam="1">  1        2 0.43655686E+00 0.13776420E+04</pdfrwt>
<pdfrwt beam="2">  1       -2 0.25724399E-01 0.13776420E+04</pdfrwt>
<totfact> 0.29347250E+01</totfact>
</mgrwt>
</event>
<event>
12    1  0.1519630E-007  0.1573099E+04  0.7818608E-02  0.8837247E-01
         -2   -1    0    0    0  501 -0.00000000000E+00  0.00000000000E+00  0.58339494447E+03  0.58339494447E+03  0.00000000000E+00 0. -1.
          2   -1    0    0  501    0  0.00000000000E+00 -0.00000000000E+00 -0.10604482647E+04  0.10604482647E+04  0.00000000000E+00 0.  1.
         23    2    1    2    0    0 -0.31703118778E+03 -0.12651621111E+03  0.25914079444E+03  0.43826866365E+03  0.91707930370E+02 0.  0.
        254    2    1    2    0    0  0.31703118778E+03  0.12651621111E+03 -0.73619411472E+03  0.12055745456E+04  0.89157898398E+03 0.  0.
        -24    2    4    4    0    0 -0.14828537233E+03  0.15051787395E+03  0.97807820924E+02  0.24698597781E+03  0.82410687277E+02 0.  0.
         24    2    4    4    0    0  0.46531656011E+03 -0.24001662843E+02 -0.83400193564E+03  0.95858856775E+03  0.78976152355E+02 0.  0.
         11    1    3    3    0    0 -0.28077355003E+03 -0.14009764063E+03  0.24019341756E+03  0.39516327403E+03  0.00000000000E+00 0. -1.
        -11    1    3    3    0    0 -0.36257637752E+02  0.13581429520E+02  0.18947376884E+02  0.43105389616E+02  0.00000000000E+00 0.  1.
          2    1    6    6  502    0  0.23826316427E+03 -0.39105945603E+02 -0.48798500832E+03  0.54445199859E+03  0.00000000000E+00 0. -1.
          1    1    5    5  503    0 -0.10471944635E+03  0.11946252430E+03  0.10856222571E+03  0.19241417310E+03  0.00000000000E+00 0. -1.
         -2    1    5    5    0  503 -0.43565925976E+02  0.31055349644E+02 -0.10754404785E+02  0.54571804716E+02  0.00000000000E+00 0.  1.
         -1    1    6    6    0  502  0.22705339584E+03  0.15104282760E+02 -0.34601692732E+03  0.41413656916E+03  0.00000000000E+00 0.  1.
<mgrwt>
<rscale>  0 0.15730991E+04</rscale>
<asrwt>0</asrwt>
<pdfrwt beam="1">  1        2 0.16314589E+00 0.15730991E+04</pdfrwt>
<pdfrwt beam="2">  1       -2 0.89753069E-01 0.15730991E+04</pdfrwt>
<totfact> 0.23568049E+01</totfact>
</mgrwt>
</event>
<event>
12    1  0.1519630E-007  0.1535502E+04  0.7818608E-02  0.8861182E-01
          1   -1    0    0  501    0  0.00000000000E+00  0.00000000000E+00  0.59476526875E+03  0.59476526875E+03  0.00000000000E+00 0. -1.
         -1   -1    0    0    0  501 -0.00000000000E+00 -0.00000000000E+00 -0.99104882756E+03  0.99104882756E+03  0.00000000000E+00 0.  1.
         23    2    1    2    0    0  0.72875772323E+02 -0.11653656776E+03 -0.62710569930E+03  0.64875107442E+03  0.93406362989E+02 0.  0.
        254    2    1    2    0    0 -0.72875772323E+02  0.11653656776E+03  0.23082214049E+03  0.93706302190E+03  0.89772857627E+03 0.  0.
        -24    2    4    4    0    0 -0.90362700721E+02 -0.35823158602E+03 -0.47776778617E+02  0.38064381730E+03  0.78178054262E+02 0.  0.
         24    2    4    4    0    0  0.17486928398E+02  0.47476815378E+03  0.27859891911E+03  0.55641920460E+03  0.79210990455E+02 0.  0.
         13    1    3    3    0    0  0.45691631903E+01 -0.44161721877E+02 -0.37649702214E+03  0.37910571429E+03  0.00000000000E+00 0.  1.
        -13    1    3    3    0    0  0.68306609133E+02 -0.72374845880E+02 -0.25060867716E+03  0.26964536012E+03  0.00000000000E+00 0. -1.
          2    1    6    6  502    0  0.38747257689E+02  0.19170944666E+03  0.87739884590E+02  0.21436452427E+03  0.00000000000E+00 0. -1.
          3    1    5    5  503    0  0.14238048776E+02 -0.31549240369E+02 -0.45337112608E+01  0.34908897700E+02  0.00000000000E+00 0. -1.
         -4    1    5    5    0  503 -0.10460074950E+03 -0.32668234565E+03 -0.43243067356E+02  0.34573491960E+03  0.00000000000E+00 0.  1.
         -1    1    6    6    0  502 -0.21260329291E+02  0.28305870712E+03  0.19085903452E+03  0.34205468033E+03  0.00000000000E+00 0.  1.
<mgrwt>
<rscale>  0 0.15355018E+04</rscale>
<asrwt>0</asrwt>
<pdfrwt beam="1">  1        1 0.91502350E-01 0.15355018E+04</pdfrwt>
<pdfrwt beam="2">  1       -1 0.15246905E+00 0.15355018E+04</pdfrwt>
<totfact> 0.11168402E+01</totfact>
</mgrwt>
</event>
<event>
12    1  0.1519630E-007  0.1211745E+04  0.7818608E-02  0.9102638E-01
          3   -1    0    0  501    0  0.00000000000E+00  0.00000000000E+00  0.18273564496E+04  0.18273564496E+04  0.00000000000E+00 0. -1.
         -3   -1    0    0    0  501 -0.00000000000E+00 -0.00000000000E+00 -0.20088122253E+03  0.20088122253E+03  0.00000000000E+00 0.  1.
         23    2    1    2    0    0 -0.23503829360E+03 -0.12458629877E+03  0.35324540740E+03  0.45128992288E+03  0.90086243943E+02 0.  0.
        254    2    1    2    0    0  0.23503829360E+03  0.12458629877E+03  0.12732298197E+04  0.15769477493E+04  0.89156339363E+03 0.  0.
        -24    2    4    4    0    0 -0.19370244120E+03 -0.10419999839E+03  0.97205796483E+03  0.99980759687E+03  0.79625802232E+02 0.  0.
         24    2    4    4    0    0  0.42874073480E+03  0.22878629716E+03  0.30117185486E+03  0.57714015239E+03  0.78895385765E+02 0.  0.
         11    1    3    3    0    0 -0.10562559647E+03 -0.41255470097E+02  0.22085563859E+03  0.24826597338E+03  0.00000000000E+00 0.  1.
        -11    1    3    3    0    0 -0.12941269713E+03 -0.83330828673E+02  0.13238976881E+03  0.20302394950E+03  0.00000000000E+00 0. -1.
          2    1    6    6  502    0  0.79094014517E+02  0.36563739829E+02  0.21101813090E+02  0.89655210214E+02  0.00000000000E+00 0. -1.
          1    1    5    5  503    0 -0.18736837119E+02 -0.29801215547E+01  0.24809856935E+02  0.31232662244E+02  0.00000000000E+00 0. -1.
         -2    1    5    5    0  503 -0.17496560408E+03 -0.10121987684E+03  0.94724810790E+03  0.96857493463E+03  0.00000000000E+00 0.  1.
         -1    1    6    6    0  502  0.34964672028E+03  0.19222255733E+03  0.28007004177E+03  0.48748494217E+03  0.00000000000E+00 0.  1.
<mgrwt>
<rscale>  0 0.12117452E+04</rscale>
<asrwt>0</asrwt>
<pdfrwt beam="1">  1        3 0.28113175E+00 0.12117452E+04</pdfrwt>
<pdfrwt beam="2">  1       -3 0.30904805E-01 0.12117452E+04</pdfrwt>
<totfact> 0.13145800E+00</totfact>
</mgrwt>
</event>
<event>
12    1  0.1519630E-007  0.1427254E+04  0.7818608E-02  0.8934323E-01
          4   -1    0    0  501    0  0.00000000000E+00  0.00000000000E+00  0.11287132030E+04  0.11287132030E+04  0.00000000000E+00 0.  1.
         -4   -1    0    0    0  501 -0.00000000000E+00 -0.00000000000E+00 -0.45118962586E+03  0.45118962586E+03  0.00000000000E+00 0. -1.
         23    2    1    2    0    0  0.24854104770E+03 -0.14463490918E+03  0.54906524450E+03  0.62660516060E+03  0.92029751857E+02 0.  0.
        254    2    1    2    0    0 -0.24854104770E+03  0.14463490918E+03  0.12845833266E+03  0.95329766827E+03  0.89976829893E+03 0.  0.
        -24    2    4    4    0    0 -0.56075807021E+03 -0.42177158744E+01 -0.24414400404E+02  0.56709645805E+03  0.80838897578E+02 0.  0.
         24    2    4    4    0    0  0.31221702250E+03  0.14885262505E+03  0.15287273306E+03  0.38620121022E+03  0.78388322701E+02 0.  0.
         13    1    3    3    0    0  0.92603352130E+02 -0.21025103634E+02  0.11526369062E+03  0.14934240585E+03  0.00000000000E+00 0. -1.
        -13    1    3    3    0    0  0.15593769557E+03 -0.12360980554E+03  0.43380155388E+03  0.47726275475E+03  0.00000000000E+00 0.  1.
          4    1    6    6  502    0  0.18750848203E+03  0.96775491723E+02  0.13344982046E+03  0.24966734110E+03  0.00000000000E+00 0. -1.
          1    1    5    5  503    0 -0.31853573316E+03  0.28083958539E+02 -0.39838979449E+02  0.32224348917E+03  0.00000000000E+00 0. -1.
         -2    1    5    5    0  503 -0.24222233704E+03 -0.32301674414E+02  0.15424579044E+02  0.24485296888E+03  0.00000000000E+00 0.  1.
         -3    1    6    6    0  502  0.12470854048E+03  0.52077133327E+02  0.19422912603E+02  0.13653386912E+03  0.00000000000E+00 0.  1.
<mgrwt>
<rscale>  0 0.14272543E+04</rscale>
<asrwt>0</asrwt>
<pdfrwt beam="1">  1        4 0.17364818E+00 0.14272543E+04</pdfrwt>
<pdfrwt beam="2">  1       -4 0.69413789E-01 0.14272543E+04</pdfrwt>
<totfact> 0.73780948E-01</totfact>
</mgrwt>
</event>
<event>
12    1  0.1519630E-007  0.1749322E+04  0.7818608E-02  0.8733724E-01
          2   -1    0    0  501    0  0.00000000000E+00  0.00000000000E+00  0.39806497090E+03  0.39806497090E+03  0.00000000000E+00 0. -1.
         -2   -1    0    0    0  501 -0.00000000000E+00 -0.00000000000E+00 -0.19218770197E+04  0.19218770197E+04  0.00000000000E+00 0.  1.
         23    2    1    2    0    0 -0.51569278585E+03 -0.12555386126E+03 -0.10853033519E+04  0.12118039054E+04  0.94247111058E+02 0.  0.
        254    2    1    2    0    0  0.51569278585E+03  0.12555386126E+03 -0.43850869693E+03  0.11081380853E+04  0.86831867264E+03 0.  0.
        -24    2    4    4    0    0  0.92987700390E+02  0.12667650314E+03 -0.61801150214E+03  0.64281433567E+03  0.81107364055E+02 0.  0.
         24    2    4    4    0    0  0.42270508546E+03 -0.11226418735E+01  0.17950280521E+03  0.46532374958E+03  0.74993901399E+02 0.  0.
         11    1    3    3    0    0 -0.78840397367E+02 -0.52039607389E+02 -0.15727266871E+03  0.18346286086E+03  0.00000000000E+00 0. -1.
        -11    1    3    3    0    0 -0.43685238848E+03 -0.73514253874E+02 -0.92803068319E+03  0.10283410445E+04  0.00000000000E+00 0.  1.
          2    1    6    6  502    0  0.38290183582E+03  0.15129648822E+02  0.17741913455E+03  0.42227984968E+03  0.00000000000E+00 0. -1.
          1    1    5    5  503    0  0.56077037461E+02  0.44179586846E+02 -0.40774273513E+03  0.41394517520E+03  0.00000000000E+00 0. -1.
         -2    1    5    5    0  503  0.36910662929E+02  0.82496916290E+02 -0.21026876701E+03  0.22886916047E+03  0.00000000000E+00 0.  1.
         -1    1    6    6    0  502  0.39803249643E+02 -0.16252290695E+02  0.20836706656E+01  0.43043899898E+02  0.00000000000E+00 0.  1.
<mgrwt>
<rscale>  0 0.17493221E+04</rscale>
<asrwt>0</asrwt>
<pdfrwt beam="1">  1        2 0.61240763E-01 0.17493221E+04</pdfrwt>
<pdfrwt beam="2">  1       -2 0.29567340E+00 0.17493221E+04</pdfrwt>
<totfact> 0.25647879E+00</totfact>
</mgrwt>
</event>
<event>
12    1  0.1519630E-007  0.3509339E+04  0.7818608E-02  0.8111580E-01
          2   -1    0    0  501    0  0.00000000000E+00  0.00000000000E+00  0.24140505427E+04  0.24140505427E+04  0.00000000000E+00 0. -1.
         -2   -1    0    0    0  501 -0.00000000000E+00 -0.00000000000E+00 -0.12753940680E+04  0.12753940680E+04  0.00000000000E+00 0.  1.
         23    2    1    2    0    0  0.59124659398E+03 -0.19443373349E+03  0.21286688285E+04  0.22197542740E+04  0.93279384801E+02 0.  0.
        254    2    1    2    0    0 -0.59124659398E+03  0.19443373349E+03 -0.99001235383E+03  0.14696903368E+04  0.89021807084E+03 0.  0.
        -24    2    4    4    0    0 -0.48942667806E+03  0.47442685423E+03 -0.92965214862E+03  0.11555170151E+04  0.79668949275E+02 0.  0.
         24    2    4    4    0    0 -0.10181991592E+03 -0.27999312073E+03 -0.60360205211E+02  0.31417332170E+03  0.79360435725E+02 0.  0.
         13    1    3    3    0    0  0.27691451823E+03 -0.56998792774E+02  0.10802549483E+04  0.11166383775E+04  0.00000000000E+00 0.  1.
        -13    1    3    3    0    0  0.31433207575E+03 -0.13743494072E+03  0.10484138802E+04  0.11031158965E+04  0.00000000000E+00 0. -1.
          4    1    6    6  502    0 -0.31090632319E+02 -0.19611668479E+03 -0.41217787706E+02  0.20279863780E+03  0.00000000000E+00 0. -1.
          3    1    5    5  503    0 -0.48991487070E+03  0.47279333152E+03 -0.93096663278E+03  0.11533642036E+04  0.00000000000E+00 0. -1.
         -4    1    5    5    0  503  0.48819264174E+00  0.16335227039E+01  0.13144841624E+01  0.21528114392E+01  0.00000000000E+00 0.  1.
         -3    1    6    6    0  502 -0.70729283603E+02 -0.83876435947E+02 -0.19142417504E+02  0.11137468390E+03  0.00000000000E+00 0.  1.
<mgrwt>
<rscale>  0 0.35093394E+04</rscale>
<asrwt>0</asrwt>
<pdfrwt beam="1">  1        2 0.37139239E+00 0.35093394E+04</pdfrwt>
<pdfrwt beam="2">  1       -2 0.19621447E+00 0.35093394E+04</pdfrwt>
<totfact> 0.45137027E-01</totfact>
</mgrwt>
</event>
<event>
12    1  0.1519630E-007  0.1520977E+04  0.7818608E-02  0.8870622E-01
         -2   -1    0    0    0  501 -0.00000000000E+00  0.00000000000E+00  0.10451646382E+04  0.10451646382E+04  0.00000000000E+00 0.  1.
          2   -1    0    0  501    0  0.00000000000E+00 -0.00000000000E+00 -0.55335098037E+03  0.55335098037E+03  0.00000000000E+00 0. -1.
         23    2    1    2    0    0 -0.77557584837E+02 -0.40507592071E+03 -0.11248138727E+03  0.43753213693E+03  0.93169887107E+02 0.  0.
        254    2    1    2    0    0  0.77557584837E+02  0.40507592071E+03  0.60429504514E+03  0.11609834817E+04  0.90144798111E+03 0.  0.
        -24    2    4    4    0    0 -0.35425764127E+02  0.63476515459E+03  0.62123331743E+03  0.89229717949E+03  0.77984842037E+02 0.  0.
         24    2    4    4    0    0  0.11298334896E+03 -0.22968923389E+03 -0.16938272296E+02  0.26868630219E+03  0.79893946003E+02 0.  0.
         11    1    3    3    0    0 -0.28135417885E+02 -0.44256467455E+02  0.98247687892E+01  0.53355062861E+02  0.00000000000E+00 0.  1.
        -11    1    3    3    0    0 -0.49422166952E+02 -0.36081945325E+03 -0.12230615606E+03  0.38417707407E+03  0.00000000000E+00 0. -1.
          2    1    6    6  502    0  0.29990229361E+02 -0.14990952764E+03 -0.14134544426E+02  0.15353196957E+03  0.00000000000E+00 0. -1.
          1    1    5    5  503    0 -0.11549420308E+02  0.44808252296E+03  0.38994575268E+03  0.59411196463E+03  0.00000000000E+00 0. -1.
         -2    1    5    5    0  503 -0.23876343818E+02  0.18668263164E+03  0.23128756476E+03  0.29818521486E+03  0.00000000000E+00 0.  1.
         -1    1    6    6    0  502  0.82993119602E+02 -0.79779706248E+02 -0.28037278709E+01  0.11515433262E+03  0.00000000000E+00 0.  1.
<mgrwt>
<rscale>  0 0.15209772E+04</rscale>
<asrwt>0</asrwt>
<pdfrwt beam="1">  1        2 0.85130920E-01 0.15209772E+04</pdfrwt>
<pdfrwt beam="2">  1       -2 0.16079456E+00 0.15209772E+04</pdfrwt>
<totfact> 0.13090707E+01</totfact>
</mgrwt>
</event>
<event>
12    1  0.1519630E-007  0.1491614E+04  0.7818608E-02  0.8890049E-01
         -1   -1    0    0    0  501 -0.00000000000E+00  0.00000000000E+00  0.79890601233E+03  0.79890601233E+03  0.00000000000E+00 0.  1.
          1   -1    0    0  501    0  0.00000000000E+00 -0.00000000000E+00 -0.69623676620E+03  0.69623676620E+03  0.00000000000E+00 0. -1.
         23    2    1    2    0    0  0.10698407832E+03  0.79153132301E+02  0.48204008222E+03  0.50855096970E+03  0.92469651999E+02 0.  0.
        254    2    1    2    0    0 -0.10698407832E+03 -0.79153132301E+02 -0.37937083610E+03  0.98659180884E+03  0.90096079527E+03 0.  0.
        -24    2    4    4    0    0 -0.49042622740E+03 -0.69665462791E+02 -0.11692478877E+03  0.51520686954E+03  0.79972188651E+02 0.  0.
         24    2    4    4    0    0  0.38344214908E+03 -0.94876695105E+01 -0.26244604732E+03  0.47138493930E+03  0.78790454223E+02 0.  0.
         11    1    3    3    0    0  0.22333368326E+02  0.32242933325E+02  0.39927122654E+02  0.55969288129E+02  0.00000000000E+00 0. -1.
        -11    1    3    3    0    0  0.84650709995E+02  0.46910198976E+02  0.44211295957E+03  0.45258168157E+03  0.00000000000E+00 0.  1.
          2    1    6    6  502    0  0.20916970961E+03  0.31346062378E+02 -0.15944601572E+03  0.26487275242E+03  0.00000000000E+00 0. -1.
          1    1    5    5  503    0 -0.24986394683E+03 -0.59605439308E+02 -0.27412377543E+02  0.25833358040E+03  0.00000000000E+00 0. -1.
         -2    1    5    5    0  503 -0.24056228057E+03 -0.10060023483E+02 -0.89512411228E+02  0.25687328913E+03  0.00000000000E+00 0.  1.
         -1    1    6    6    0  502  0.17427243948E+03 -0.40833731888E+02 -0.10300003160E+03  0.20651218688E+03  0.00000000000E+00 0.  1.
<mgrwt>
<rscale>  0 0.14916135E+04</rscale>
<asrwt>0</asrwt>
<pdfrwt beam="1">  1        1 0.10711335E+00 0.14916135E+04</pdfrwt>
<pdfrwt beam="2">  1       -1 0.12290862E+00 0.14916135E+04</pdfrwt>
<totfact> 0.15522090E+01</totfact>
</mgrwt>
</event>
<event>
12    1  0.1519630E-007  0.2502967E+04  0.7818608E-02  0.8401929E-01
          2   -1    0    0  501    0  0.00000000000E+00  0.00000000000E+00  0.13626621309E+04  0.13626621309E+04  0.00000000000E+00 0. -1.
         -2   -1    0    0    0  501 -0.00000000000E+00 -0.00000000000E+00 -0.11493761540E+04  0.11493761540E+04  0.00000000000E+00 0.  1.
         23    2    1    2    0    0  0.88418336872E+03  0.30766775018E+03  0.66210258017E+03  0.11502435259E+04  0.90778126329E+02 0.  0.
        254    2    1    2    0    0 -0.88418336872E+03 -0.30766775018E+03 -0.44881660323E+03  0.13617947590E+04  0.88125419057E+03 0.  0.
        -24    2    4    4    0    0 -0.12502478287E+03  0.77370534504E+02 -0.47714629638E+03  0.50563677274E+03  0.79890937212E+02 0.  0.
         24    2    4    4    0    0 -0.75915858584E+03 -0.38503828468E+03  0.28329693156E+02  0.85615798630E+03  0.87336629586E+02 0.  0.
         11    1    3    3    0    0  0.78429341331E+03  0.24888588682E+03  0.55569463568E+03  0.99290325356E+03  0.00000000000E+00 0. -1.
        -11    1    3    3    0    0  0.99889955406E+02  0.58781863356E+02  0.10640794449E+03  0.15734027235E+03  0.00000000000E+00 0.  1.
          2    1    6    6  502    0 -0.10582640564E+03 -0.64246352490E+02  0.33671508436E+02  0.12829884029E+03  0.00000000000E+00 0. -1.
          1    1    5    5  503    0 -0.11091228687E+03  0.40091762548E+02 -0.26913925294E+03  0.29384489493E+03  0.00000000000E+00 0. -1.
         -2    1    5    5    0  503 -0.14112495997E+02  0.37278771956E+02 -0.20800704345E+03  0.21179187781E+03  0.00000000000E+00 0.  1.
         -1    1    6    6    0  502 -0.65333218020E+03 -0.32079193219E+03 -0.53418152797E+01  0.72785914601E+03  0.00000000000E+00 0.  1.
<mgrwt>
<rscale>  0 0.25029673E+04</rscale>
<asrwt>0</asrwt>
<pdfrwt beam="1">  1        2 0.20964033E+00 0.25029673E+04</pdfrwt>
<pdfrwt beam="2">  1       -2 0.17682710E+00 0.25029673E+04</pdfrwt>
<totfact> 0.25864955E+00</totfact>
</mgrwt>
</event>
<event>
12    1  0.1519630E-007  0.2217666E+04  0.7818608E-02  0.8511111E-01
         -1   -1    0    0    0  501 -0.00000000000E+00  0.00000000000E+00  0.89365197135E+03  0.89365197135E+03  0.00000000000E+00 0.  1.
          1   -1    0    0  501    0  0.00000000000E+00 -0.00000000000E+00 -0.13758271272E+04  0.13758271272E+04  0.00000000000E+00 0. -1.
         23    2    1    2    0    0  0.50306879217E+03  0.46796344631E+03  0.33611078492E+03  0.77027471981E+03  0.91020258716E+02 0.  0.
        254    2    1    2    0    0 -0.50306879217E+03 -0.46796344631E+03 -0.81828594074E+03  0.14992043787E+04  0.10516434242E+04 0.  0.
        -24    2    4    4    0    0 -0.40395443459E+03 -0.62811290939E+03 -0.10642774230E+03  0.75857980546E+03  0.80071497836E+02 0.  0.
         24    2    4    4    0    0 -0.99114357588E+02  0.16014946307E+03 -0.71185819844E+03  0.74062457325E+03  0.79442793269E+02 0.  0.
         11    1    3    3    0    0  0.40502165164E+03  0.37340615709E+03  0.22730235730E+03  0.59593712595E+03  0.00000000000E+00 0.  1.
        -11    1    3    3    0    0  0.98047140529E+02  0.94557289221E+02  0.10880842763E+03  0.17433759386E+03  0.00000000000E+00 0. -1.
          4    1    6    6  502    0 -0.44407443752E+02  0.10351677847E+03 -0.53947940752E+03  0.55111321489E+03  0.00000000000E+00 0. -1.
          3    1    5    5  503    0 -0.23514297367E+03 -0.31753647487E+03 -0.25498380833E+02  0.39594418592E+03  0.00000000000E+00 0. -1.
         -4    1    5    5    0  503 -0.16881146091E+03 -0.31057643451E+03 -0.80929361462E+02  0.36263561954E+03  0.00000000000E+00 0.  1.
         -3    1    6    6    0  502 -0.54706913836E+02  0.56632684601E+02 -0.17237879092E+03  0.18951135836E+03  0.00000000000E+00 0.  1.
<mgrwt>
<rscale>  0 0.22176660E+04</rscale>
<asrwt>0</asrwt>
<pdfrwt beam="1">  1        1 0.21166571E+00 0.22176660E+04</pdfrwt>
<pdfrwt beam="2">  1       -1 0.13748492E+00 0.22176660E+04</pdfrwt>
<totfact> 0.31966340E+00</totfact>
</mgrwt>
</event>
<event>
12    1  0.1519630E-007  0.2227652E+04  0.7818608E-02  0.8507006E-01
          2   -1    0    0  501    0  0.00000000000E+00  0.00000000000E+00  0.12773078581E+04  0.12773078581E+04  0.00000000000E+00 0. -1.
         -2   -1    0    0    0  501 -0.00000000000E+00 -0.00000000000E+00 -0.97126776398E+03  0.97126776398E+03  0.00000000000E+00 0.  1.
         23    2    1    2    0    0  0.25711938901E+03  0.75371060368E+03  0.61909358371E+03  0.10128726703E+04  0.91891928747E+02 0.  0.
        254    2    1    2    0    0 -0.25711938901E+03 -0.75371060368E+03 -0.31305348953E+03  0.12357029518E+04  0.89149831381E+03 0.  0.
        -24    2    4    4    0    0  0.33019457421E+02  0.14179613055E+03 -0.23515777313E+03  0.28781360344E+03  0.79630803418E+02 0.  0.
         24    2    4    4    0    0 -0.29013884644E+03 -0.89550673423E+03 -0.77895716409E+02  0.94788934838E+03  0.79458246130E+02 0.  0.
         13    1    3    3    0    0  0.21282922287E+02  0.16386198779E+03  0.15036446653E+03  0.22341259279E+03  0.00000000000E+00 0.  1.
        -13    1    3    3    0    0  0.23583646673E+03  0.58984861589E+03  0.46872911718E+03  0.78946007752E+03  0.00000000000E+00 0. -1.
          4    1    6    6  502    0 -0.14094910303E+03 -0.35084032367E+03 -0.60404015013E+02  0.38288931480E+03  0.00000000000E+00 0. -1.
          1    1    5    5  503    0  0.34622829083E+02  0.14781529129E+02 -0.69727990699E+02  0.79241571060E+02  0.00000000000E+00 0. -1.
         -2    1    5    5    0  503 -0.16033716623E+01  0.12701460142E+03 -0.16542978243E+03  0.20857203238E+03  0.00000000000E+00 0.  1.
         -3    1    6    6    0  502 -0.14918974340E+03 -0.54466641057E+03 -0.17491701396E+02  0.56500003359E+03  0.00000000000E+00 0.  1.
<mgrwt>
<rscale>  0 0.22276516E+04</rscale>
<asrwt>0</asrwt>
<pdfrwt beam="1">  1        2 0.19650890E+00 0.22276516E+04</pdfrwt>
<pdfrwt beam="2">  1       -2 0.14942581E+00 0.22276516E+04</pdfrwt>
<totfact> 0.47056105E+00</totfact>
</mgrwt>
</event>
<event>
12    1  0.1519630E-007  0.1568857E+04  0.7818608E-02  0.8839912E-01
          1   -1    0    0  501    0  0.00000000000E+00  0.00000000000E+00  0.34028700242E+03  0.34028700242E+03  0.00000000000E+00 0. -1.
         -1   -1    0    0    0  501 -0.00000000000E+00 -0.00000000000E+00 -0.18082616989E+04  0.18082616989E+04  0.00000000000E+00 0.  1.
         23    2    1    2    0    0  0.12621676608E+03  0.48924223809E+03 -0.67831473857E+03  0.85061491686E+03  0.90256371831E+02 0.  0.
        254    2    1    2    0    0 -0.12621676608E+03 -0.48924223809E+03 -0.78965995790E+03  0.12979337845E+04  0.89765283944E+03 0.  0.
        -24    2    4    4    0    0 -0.38405534577E+03  0.45432371374E+02 -0.15222182043E+03  0.42319351929E+03  0.79741226243E+02 0.  0.
         24    2    4    4    0    0  0.25783857970E+03 -0.53467460946E+03 -0.63743813746E+03  0.87474026517E+03  0.80532485552E+02 0.  0.
         13    1    3    3    0    0  0.45112528787E+02  0.95085888039E+02 -0.19601850043E+03  0.22248532282E+03  0.00000000000E+00 0.  1.
        -13    1    3    3    0    0  0.81104237292E+02  0.39415635005E+03 -0.48229623814E+03  0.62812959404E+03  0.00000000000E+00 0. -1.
          4    1    6    6  502    0  0.43528239617E+02 -0.40269755899E+02 -0.49735140956E+02  0.77394735804E+02  0.00000000000E+00 0. -1.
          3    1    5    5  503    0 -0.39321935862E+02  0.24534627188E+02 -0.36368115717E+02  0.58913516378E+02  0.00000000000E+00 0. -1.
         -4    1    5    5    0  503 -0.34473340991E+03  0.20897744185E+02 -0.11585370472E+03  0.36428000291E+03  0.00000000000E+00 0.  1.
         -3    1    6    6    0  502  0.21431034008E+03 -0.49440485356E+03 -0.58770299651E+03  0.79734552936E+03  0.00000000000E+00 0.  1.
<mgrwt>
<rscale>  0 0.15688568E+04</rscale>
<asrwt>0</asrwt>
<pdfrwt beam="1">  1        1 0.52351846E-01 0.15688568E+04</pdfrwt>
<pdfrwt beam="2">  1       -1 0.27819411E+00 0.15688568E+04</pdfrwt>
<totfact> 0.32732522E+00</totfact>
</mgrwt>
</event>
<event>
12    1  0.1519630E-007  0.1428617E+04  0.7818608E-02  0.8933361E-01
         -2   -1    0    0    0  501 -0.00000000000E+00  0.00000000000E+00  0.62237058863E+03  0.62237058863E+03  0.00000000000E+00 0.  1.
          2   -1    0    0  501    0  0.00000000000E+00 -0.00000000000E+00 -0.81982765860E+03  0.81982765860E+03  0.00000000000E+00 0. -1.
         23    2    1    2    0    0 -0.84000989646E+02  0.38678325717E+03  0.92494125814E+02  0.41671644396E+03  0.91869347816E+02 0.  0.
        254    2    1    2    0    0  0.84000989646E+02 -0.38678325717E+03 -0.28995119578E+03  0.10254818033E+04  0.90049085426E+03 0.  0.
        -24    2    4    4    0    0  0.43143174843E+03 -0.61485796445E+02 -0.31340749573E+03  0.54258481225E+03  0.79121194284E+02 0.  0.
         24    2    4    4    0    0 -0.34743075878E+03 -0.32529746073E+03  0.23456299942E+02  0.48289699102E+03  0.78183986984E+02 0.  0.
         13    1    3    3    0    0 -0.58287444310E+02  0.10623999242E+03  0.33339292553E+01  0.12122490354E+03  0.00000000000E+00 0. -1.
        -13    1    3    3    0    0 -0.25713545337E+02  0.28054326476E+03  0.89160196559E+02  0.29549154043E+03  0.00000000000E+00 0.  1.
          4    1    6    6  502    0 -0.19458567810E+03 -0.16748276530E+03  0.50130748464E+02  0.26158584583E+03  0.00000000000E+00 0. -1.
          1    1    5    5  503    0  0.21642836971E+03 -0.54685772144E+02 -0.19842895558E+03  0.29867343923E+03  0.00000000000E+00 0. -1.
         -2    1    5    5    0  503  0.21500337872E+03 -0.68000243012E+01 -0.11497854015E+03  0.24391137301E+03  0.00000000000E+00 0.  1.
         -3    1    6    6    0  502 -0.15284508068E+03 -0.15781469543E+03 -0.26674448523E+02  0.22131114519E+03  0.00000000000E+00 0.  1.
<mgrwt>
<rscale>  0 0.14286170E+04</rscale>
<asrwt>0</asrwt>
<pdfrwt beam="1">  1        2 0.12612733E+00 0.14286170E+04</pdfrwt>
<pdfrwt beam="2">  1       -2 0.95749322E-01 0.14286170E+04</pdfrwt>
<totfact> 0.29634064E+01</totfact>
</mgrwt>
</event>
<event>
12    1  0.1519630E-007  0.1252513E+04  0.7818608E-02  0.9068094E-01
          1   -1    0    0  501    0  0.00000000000E+00  0.00000000000E+00  0.17753600408E+04  0.17753600408E+04  0.00000000000E+00 0. -1.
         -1   -1    0    0    0  501 -0.00000000000E+00 -0.00000000000E+00 -0.22091146210E+03  0.22091146210E+03  0.00000000000E+00 0.  1.
         23    2    1    2    0    0  0.66546903503E+02 -0.26551017993E+03  0.55613174203E+03  0.62640825505E+03  0.90446898757E+02 0.  0.
        254    2    1    2    0    0 -0.66546903503E+02  0.26551017993E+03  0.99831683668E+03  0.13698632479E+04  0.89719823084E+03 0.  0.
        -24    2    4    4    0    0  0.29342065666E+03  0.68400203532E+02  0.88313307231E+03  0.93662455567E+03  0.81038665361E+02 0.  0.
         24    2    4    4    0    0 -0.35996756016E+03  0.19710997640E+03  0.11518376437E+03  0.43323869219E+03  0.77456295244E+02 0.  0.
         13    1    3    3    0    0  0.73179060271E+02 -0.23625763195E+03  0.53591767840E+03  0.59023775001E+03  0.00000000000E+00 0. -1.
        -13    1    3    3    0    0 -0.66321567677E+01 -0.29252547975E+02  0.20214063627E+02  0.36170505038E+02  0.00000000000E+00 0.  1.
          4    1    6    6  502    0 -0.34786091055E+03  0.17971993247E+03  0.12337474461E+03  0.41052136950E+03  0.00000000000E+00 0. -1.
          3    1    5    5  503    0  0.27579998577E+03  0.71943595930E+02  0.86635296941E+03  0.91203562472E+03  0.00000000000E+00 0. -1.
         -4    1    5    5    0  503  0.17620670885E+02 -0.35433923984E+01  0.16780102896E+02  0.24588930951E+02  0.00000000000E+00 0.  1.
         -3    1    6    6    0  502 -0.12106649612E+02  0.17390043929E+02 -0.81909802379E+01  0.22717322684E+02  0.00000000000E+00 0.  1.
<mgrwt>
<rscale>  0 0.12525133E+04</rscale>
<asrwt>0</asrwt>
<pdfrwt beam="1">  1        1 0.27313231E+00 0.12525133E+04</pdfrwt>
<pdfrwt beam="2">  1       -1 0.33986380E-01 0.12525133E+04</pdfrwt>
<totfact> 0.34165165E+01</totfact>
</mgrwt>
</event>
<event>
12    1  0.1519630E-007  0.1181133E+04  0.7818608E-02  0.9129533E-01
          2   -1    0    0  501    0  0.00000000000E+00  0.00000000000E+00  0.66790953141E+03  0.66790953141E+03  0.00000000000E+00 0. -1.
         -2   -1    0    0    0  501 -0.00000000000E+00 -0.00000000000E+00 -0.52217945354E+03  0.52217945354E+03  0.00000000000E+00 0.  1.
         23    2    1    2    0    0  0.19083687948E+03 -0.84742864104E+02  0.11667044238E+03  0.25928081137E+03  0.10007237100E+03 0.  0.
        254    2    1    2    0    0 -0.19083687948E+03  0.84742864104E+02  0.29059635490E+02  0.93080817358E+03  0.90661972513E+03 0.  0.
        -24    2    4    4    0    0 -0.38060748524E+03  0.35983541247E+03 -0.13890319416E+03  0.54805431265E+03  0.82011282020E+02 0.  0.
         24    2    4    4    0    0  0.18977060576E+03 -0.27509254837E+03  0.16796282965E+03  0.38275386093E+03  0.81241694533E+02 0.  0.
         13    1    3    3    0    0  0.95490473932E+01  0.21234598493E+01  0.44704619694E+02  0.45762390779E+02  0.00000000000E+00 0. -1.
        -13    1    3    3    0    0  0.18128783208E+03 -0.86866323953E+02  0.71965822686E+02  0.21351842060E+03  0.00000000000E+00 0.  1.
          4    1    6    6  502    0  0.47953028016E+02 -0.12657400648E+03  0.41448901145E+02  0.14155735028E+03  0.00000000000E+00 0. -1.
          1    1    5    5  503    0 -0.20792775558E+03  0.16877623842E+03 -0.10766344243E+03  0.28863608062E+03  0.00000000000E+00 0. -1.
         -2    1    5    5    0  503 -0.17267972966E+03  0.19105917406E+03 -0.31239751723E+02  0.25941823204E+03  0.00000000000E+00 0.  1.
         -3    1    6    6    0  502  0.14181757775E+03 -0.14851854189E+03  0.12651392850E+03  0.24119651065E+03  0.00000000000E+00 0.  1.
<mgrwt>
<rscale>  0 0.11811327E+04</rscale>
<asrwt>0</asrwt>
<pdfrwt beam="1">  1        2 0.10275531E+00 0.11811327E+04</pdfrwt>
<pdfrwt beam="2">  1       -2 0.80335301E-01 0.11811327E+04</pdfrwt>
<totfact> 0.58834289E+01</totfact>
</mgrwt>
</event>
<event>
12    1  0.1519630E-007  0.1587764E+04  0.7818608E-02  0.8828101E-01
          1   -1    0    0  501    0  0.00000000000E+00  0.00000000000E+00  0.58217959066E+03  0.58217959066E+03  0.00000000000E+00 0. -1.
         -1   -1    0    0    0  501 -0.00000000000E+00 -0.00000000000E+00 -0.10825669344E+04  0.10825669344E+04  0.00000000000E+00 0.  1.
         23    2    1    2    0    0  0.44258530565E+03 -0.26244442259E+03 -0.30889584972E+03  0.60652547263E+03  0.87736396316E+02 0.  0.
        254    2    1    2    0    0 -0.44258530565E+03  0.26244442259E+03 -0.19149149403E+03  0.10582210524E+04  0.90465682765E+03 0.  0.
        -24    2    4    4    0    0  0.20689773568E+03 -0.13713476536E+03 -0.12277008595E+03  0.28845062667E+03  0.80738176366E+02 0.  0.
         24    2    4    4    0    0 -0.64948304133E+03  0.39957918795E+03 -0.68721408075E+02  0.76977042577E+03  0.79574669638E+02 0.  0.
         13    1    3    3    0    0  0.49841808871E+02 -0.40400116161E+02 -0.90183537870E+01  0.64789705991E+02  0.00000000000E+00 0. -1.
        -13    1    3    3    0    0  0.39274349678E+03 -0.22204430643E+03 -0.29987749594E+03  0.54173576664E+03  0.00000000000E+00 0.  1.
          2    1    6    6  502    0 -0.23632054189E+03  0.10657278725E+03 -0.52231444757E+01  0.25929218796E+03  0.00000000000E+00 0. -1.
          3    1    5    5  503    0  0.12016411771E+02 -0.35001891933E+02 -0.10905631038E+01  0.37023180828E+02  0.00000000000E+00 0. -1.
         -4    1    5    5    0  503  0.19488132391E+03 -0.10213287343E+03 -0.12167952285E+03  0.25142744584E+03  0.00000000000E+00 0.  1.
         -1    1    6    6    0  502 -0.41316249945E+03  0.29300640070E+03 -0.63498263599E+02  0.51047823781E+03  0.00000000000E+00 0.  1.
<mgrwt>
<rscale>  0 0.15877637E+04</rscale>
<asrwt>0</asrwt>
<pdfrwt beam="1">  1        1 0.89566091E-01 0.15877637E+04</pdfrwt>
<pdfrwt beam="2">  1       -1 0.16654876E+00 0.15877637E+04</pdfrwt>
<totfact> 0.89653775E+00</totfact>
</mgrwt>
</event>
<event>
12    1  0.1519630E-007  0.2062757E+04  0.7818608E-02  0.8577829E-01
         -1   -1    0    0    0  501 -0.00000000000E+00  0.00000000000E+00  0.11567367283E+04  0.11567367283E+04  0.00000000000E+00 0. -1.
          1   -1    0    0  501    0  0.00000000000E+00 -0.00000000000E+00 -0.91960575959E+03  0.91960575959E+03  0.00000000000E+00 0.  1.
         23    2    1    2    0    0 -0.24819235659E+03 -0.79296767766E+03 -0.28088293440E+02  0.83675632397E+03  0.94736528296E+02 0.  0.
        254    2    1    2    0    0  0.24819235659E+03  0.79296767766E+03  0.26521926218E+03  0.12395861639E+04  0.88081520032E+03 0.  0.
        -24    2    4    4    0    0  0.48327465920E+03  0.39417483504E+03  0.40778907289E+03  0.74910778561E+03  0.77086637565E+02 0.  0.
         24    2    4    4    0    0 -0.23508230261E+03  0.39879284262E+03 -0.14256981071E+03  0.49047837833E+03  0.77093893109E+02 0.  0.
         13    1    3    3    0    0 -0.19823657347E+03 -0.72597820485E+03 -0.30223373779E+02  0.75316369091E+03  0.00000000000E+00 0.  1.
        -13    1    3    3    0    0 -0.49955783119E+02 -0.66989472810E+02  0.21350803389E+01  0.83592633063E+02  0.00000000000E+00 0. -1.
          2    1    6    6  502    0 -0.36213446256E+02  0.12776454848E+03 -0.31999733929E+02  0.13659859629E+03  0.00000000000E+00 0. -1.
          3    1    5    5  503    0  0.28330237916E+03  0.21858878907E+03  0.27741015891E+03  0.45276670926E+03  0.00000000000E+00 0. -1.
         -4    1    5    5    0  503  0.19997228004E+03  0.17558604597E+03  0.13037891398E+03  0.29634107635E+03  0.00000000000E+00 0.  1.
         -1    1    6    6    0  502 -0.19886885636E+03  0.27102829414E+03 -0.11057007678E+03  0.35387978204E+03  0.00000000000E+00 0.  1.
<mgrwt>
<rscale>  0 0.20627571E+04</rscale>
<asrwt>0</asrwt>
<pdfrwt beam="1">  1        1 0.14147781E+00 0.20627571E+04</pdfrwt>
<pdfrwt beam="2">  1       -1 0.17795950E+00 0.20627571E+04</pdfrwt>
<totfact> 0.34833856E+00</totfact>
</mgrwt>
</event>
<event>
12    1  0.1519630E-007  0.2782987E+04  0.7818608E-02  0.8308570E-01
          1   -1    0    0  501    0  0.00000000000E+00  0.00000000000E+00  0.25515595249E+04  0.25515595249E+04  0.00000000000E+00 0. -1.
         -1   -1    0    0    0  501 -0.00000000000E+00 -0.00000000000E+00 -0.75885140542E+03  0.75885140542E+03  0.00000000000E+00 0.  1.
         23    2    1    2    0    0  0.11838065130E+03  0.84646203614E+03 -0.27161622659E+03  0.90142643543E+03  0.91007069621E+02 0.  0.
        254    2    1    2    0    0 -0.11838065130E+03 -0.84646203614E+03  0.20643243460E+04  0.24089844948E+04  0.90069935804E+03 0.  0.
        -24    2    4    4    0    0 -0.13076751067E+03  0.15442500633E+03  0.55592251988E+03  0.59692813489E+03  0.79536945418E+02 0.  0.
         24    2    4    4    0    0  0.12386859371E+02 -0.10008870425E+04  0.15084018262E+04  0.18120563600E+04  0.79648455535E+02 0.  0.
         13    1    3    3    0    0  0.47735405207E+02  0.29489950546E+03 -0.50342898761E+02  0.30295015214E+03  0.00000000000E+00 0. -1.
        -13    1    3    3    0    0  0.70645246092E+02  0.55156253068E+03 -0.22127332783E+03  0.59847628329E+03  0.00000000000E+00 0.  1.
          2    1    6    6  502    0  0.27680099891E+02 -0.84993921107E+03  0.13191449761E+04  0.15694923760E+04  0.00000000000E+00 0. -1.
          1    1    5    5  503    0 -0.10308756424E+03  0.14078639448E+03  0.37776550959E+03  0.41611853481E+03  0.00000000000E+00 0. -1.
         -2    1    5    5    0  503 -0.27679946431E+02  0.13638611846E+02  0.17815701028E+03  0.18080960008E+03  0.00000000000E+00 0.  1.
         -1    1    6    6    0  502 -0.15293240520E+02 -0.15094783140E+03  0.18925685007E+03  0.24256398394E+03  0.00000000000E+00 0.  1.
<mgrwt>
<rscale>  0 0.27829873E+04</rscale>
<asrwt>0</asrwt>
<pdfrwt beam="1">  1        1 0.39254762E+00 0.27829873E+04</pdfrwt>
<pdfrwt beam="2">  1       -1 0.11674637E+00 0.27829873E+04</pdfrwt>
<totfact> 0.71549685E-01</totfact>
</mgrwt>
</event>
<event>
12    1  0.1519630E-007  0.1209272E+04  0.7818608E-02  0.9104779E-01
         -2   -1    0    0    0  501 -0.00000000000E+00  0.00000000000E+00  0.68730887338E+03  0.68730887338E+03  0.00000000000E+00 0.  1.
          2   -1    0    0  501    0  0.00000000000E+00 -0.00000000000E+00 -0.53190758860E+03  0.53190758860E+03  0.00000000000E+00 0. -1.
         23    2    1    2    0    0 -0.15423680161E+03  0.15499551703E+03 -0.10694882570E+03  0.25915591660E+03  0.88944569929E+02 0.  0.
        254    2    1    2    0    0  0.15423680161E+03 -0.15499551703E+03  0.26235011048E+03  0.96006054538E+03  0.89726031287E+03 0.  0.
        -24    2    4    4    0    0 -0.27955476866E+03  0.14073570051E+02  0.37403511491E+03  0.47407320198E+03  0.80586596879E+02 0.  0.
         24    2    4    4    0    0  0.43379157026E+03 -0.16906908709E+03 -0.11168500442E+03  0.48598734340E+03  0.83370708867E+02 0.  0.
         13    1    3    3    0    0 -0.13742292307E+03  0.16297231326E+03 -0.82859728969E+02  0.22871547687E+03  0.00000000000E+00 0.  1.
        -13    1    3    3    0    0 -0.16813878541E+02 -0.79767962304E+01 -0.24089096731E+02  0.30440439731E+02  0.00000000000E+00 0. -1.
          4    1    6    6  502    0  0.12309455694E+03 -0.78365967014E+02 -0.61924479430E+02  0.15851856638E+03  0.00000000000E+00 0. -1.
          3    1    5    5  503    0 -0.28078474743E+03  0.42237060024E+01  0.35534404419E+03  0.45290981864E+03  0.00000000000E+00 0. -1.
         -4    1    5    5    0  503  0.12299787749E+01  0.98498640483E+01  0.18691070717E+02  0.21163383333E+02  0.00000000000E+00 0.  1.
         -3    1    6    6    0  502  0.31069701332E+03 -0.90703120072E+02 -0.49760524991E+02  0.32746877703E+03  0.00000000000E+00 0.  1.
<mgrwt>
<rscale>  0 0.12092722E+04</rscale>
<asrwt>0</asrwt>
<pdfrwt beam="1">  1        2 0.81831936E-01 0.12092722E+04</pdfrwt>
<pdfrwt beam="2">  1       -2 0.10573983E+00 0.12092722E+04</pdfrwt>
<totfact> 0.40827076E+01</totfact>
</mgrwt>
</event>
<event>
12    1  0.1519630E-007  0.2117702E+04  0.7818608E-02  0.8553485E-01
          2   -1    0    0  501    0  0.00000000000E+00  0.00000000000E+00  0.18222623250E+04  0.18222623250E+04  0.00000000000E+00 0. -1.
         -2   -1    0    0    0  501 -0.00000000000E+00 -0.00000000000E+00 -0.61526021269E+03  0.61526021269E+03  0.00000000000E+00 0.  1.
         23    2    1    2    0    0  0.49005502832E+03 -0.42011553506E+03  0.11558202840E+04  0.13271941482E+04  0.94195459239E+02 0.  0.
        254    2    1    2    0    0 -0.49005502832E+03  0.42011553506E+03  0.51181828345E+02  0.11103283895E+04  0.90197481086E+03 0.  0.
        -24    2    4    4    0    0 -0.26171967380E+03 -0.92542506725E+02 -0.32124037499E+03  0.43204586693E+03  0.80043421982E+02 0.  0.
         24    2    4    4    0    0 -0.22833535452E+03  0.51265804178E+03  0.37242220333E+03  0.67828252258E+03  0.80084836125E+02 0.  0.
         13    1    3    3    0    0  0.26091367214E+03 -0.27028518363E+03  0.60636506997E+03  0.71330822432E+03  0.00000000000E+00 0. -1.
        -13    1    3    3    0    0  0.22914135618E+03 -0.14983035143E+03  0.54945521400E+03  0.61388592386E+03  0.00000000000E+00 0.  1.
          4    1    6    6  502    0 -0.19952349288E+03  0.36466910235E+03  0.28500688058E+03  0.50400605194E+03  0.00000000000E+00 0. -1.
          3    1    5    5  503    0 -0.51435630557E+02 -0.22640748727E+02 -0.12085333142E+03  0.13328073870E+03  0.00000000000E+00 0. -1.
         -4    1    5    5    0  503 -0.21028404325E+03 -0.69901757998E+02 -0.20038704357E+03  0.29876512823E+03  0.00000000000E+00 0.  1.
         -3    1    6    6    0  502 -0.28811861639E+02  0.14798893944E+03  0.87415322754E+02  0.17427647064E+03  0.00000000000E+00 0.  1.
<mgrwt>
<rscale>  0 0.21177021E+04</rscale>
<asrwt>0</asrwt>
<pdfrwt beam="1">  1        2 0.28034805E+00 0.21177021E+04</pdfrwt>
<pdfrwt beam="2">  1       -2 0.94655418E-01 0.21177021E+04</pdfrwt>
<totfact> 0.72540789E+00</totfact>
</mgrwt>
</event>
<event>
12    1  0.1519630E-007  0.3133789E+04  0.7818608E-02  0.8206525E-01
          1   -1    0    0  501    0  0.00000000000E+00  0.00000000000E+00  0.18833521582E+04  0.18833521582E+04  0.00000000000E+00 0. -1.
         -1   -1    0    0    0  501 -0.00000000000E+00 -0.00000000000E+00 -0.13036110029E+04  0.13036110029E+04  0.00000000000E+00 0.  1.
         23    2    1    2    0    0  0.18009481005E+02 -0.21640017853E+03 -0.11795074615E+04  0.12031957486E+04  0.96378311940E+02 0.  0.
        254    2    1    2    0    0 -0.18009481005E+02  0.21640017853E+03  0.17592486168E+04  0.19837674124E+04  0.89063127732E+03 0.  0.
        -24    2    4    4    0    0  0.34395914272E+03 -0.12192639824E+03  0.47349793269E+03  0.60319440352E+03  0.80431696068E+02 0.  0.
         24    2    4    4    0    0 -0.36196862372E+03  0.33832657677E+03  0.12857506841E+04  0.13805730089E+04  0.85678784177E+02 0.  0.
         13    1    3    3    0    0  0.16556612285E+01 -0.19461415684E+03 -0.11304630073E+04  0.11470937286E+04  0.00000000000E+00 0.  1.
        -13    1    3    3    0    0  0.16353819777E+02 -0.21786021690E+02 -0.49044454227E+02  0.56102020042E+02  0.00000000000E+00 0. -1.
          4    1    6    6  502    0  0.49714493883E+01  0.52385724652E+01  0.20133374372E+02  0.21389500090E+02  0.00000000000E+00 0. -1.
          3    1    5    5  503    0  0.18397913731E+03 -0.96629242588E+02  0.22230519791E+03  0.30431091749E+03  0.00000000000E+00 0. -1.
         -4    1    5    5    0  503  0.15998000541E+03 -0.25297155654E+02  0.25119273478E+03  0.29888348603E+03  0.00000000000E+00 0.  1.
         -3    1    6    6    0  502 -0.36694007311E+03  0.33308800431E+03  0.12656173098E+04  0.13591835088E+04  0.00000000000E+00 0.  1.
<mgrwt>
<rscale>  0 0.31337891E+04</rscale>
<asrwt>0</asrwt>
<pdfrwt beam="1">  1        1 0.28974649E+00 0.31337891E+04</pdfrwt>
<pdfrwt beam="2">  1       -1 0.20055554E+00 0.31337891E+04</pdfrwt>
<totfact> 0.44887913E-01</totfact>
</mgrwt>
</event>
<event>
12    1  0.1519630E-007  0.1128718E+04  0.7818608E-02  0.9177645E-01
         -2   -1    0    0    0  501 -0.00000000000E+00  0.00000000000E+00  0.31190588060E+03  0.31190588060E+03  0.00000000000E+00 0.  1.
          2   -1    0    0  501    0  0.00000000000E+00 -0.00000000000E+00 -0.10211451943E+04  0.10211451943E+04  0.00000000000E+00 0. -1.
         23    2    1    2    0    0 -0.12997234694E+03 -0.79809940663E+02 -0.25478341363E+03  0.31079692306E+03  0.91748034977E+02 0.  0.
        254    2    1    2    0    0  0.12997234694E+03  0.79809940663E+02 -0.45445590006E+03  0.10222541518E+04  0.90289033012E+03 0.  0.
        -24    2    4    4    0    0 -0.12418854001E+03  0.32079328512E+03 -0.54717768539E+03  0.65158723708E+03  0.82652180233E+02 0.  0.
         24    2    4    4    0    0  0.25416088695E+03 -0.24098334446E+03  0.92721785328E+02  0.37066691474E+03  0.78268150918E+02 0.  0.
         11    1    3    3    0    0 -0.13968731876E+03 -0.53107497475E+02 -0.20955894550E+03  0.25738668371E+03  0.00000000000E+00 0. -1.
        -11    1    3    3    0    0  0.97149718199E+01 -0.26702443188E+02 -0.45224468137E+02  0.53410239355E+02  0.00000000000E+00 0.  1.
          4    1    6    6  502    0  0.10773670607E+03 -0.52876434408E+02  0.40241438087E+02  0.12657996875E+03  0.00000000000E+00 0. -1.
          1    1    5    5  503    0 -0.73125453445E+02  0.25006538687E+03 -0.35319849067E+03  0.43889543568E+03  0.00000000000E+00 0. -1.
         -2    1    5    5    0  503 -0.51063086565E+02  0.70727898254E+02 -0.19397919472E+03  0.21269180140E+03  0.00000000000E+00 0.  1.
         -3    1    6    6    0  502  0.14642418088E+03 -0.18810691005E+03  0.52480347242E+02  0.24408694599E+03  0.00000000000E+00 0.  1.
<mgrwt>
<rscale>  0 0.11287182E+04</rscale>
<asrwt>0</asrwt>
<pdfrwt beam="1">  1        2 0.15709926E+00 0.11287182E+04</pdfrwt>
<pdfrwt beam="2">  1       -2 0.47985519E-01 0.11287182E+04</pdfrwt>
<totfact> 0.99539924E+01</totfact>
</mgrwt>
</event>
<event>
12    1  0.1519630E-007  0.1410889E+04  0.7818608E-02  0.8945974E-01
          1   -1    0    0  501    0  0.00000000000E+00  0.00000000000E+00  0.17074217363E+04  0.17074217363E+04  0.00000000000E+00 0. -1.
         -1   -1    0    0    0  501 -0.00000000000E+00 -0.00000000000E+00 -0.29146414306E+03  0.29146414306E+03  0.00000000000E+00 0.  1.
         23    2    1    2    0    0  0.21801781063E+03  0.30182039880E+03  0.13947457165E+03  0.40931338005E+03  0.97246943754E+02 0.  0.
        254    2    1    2    0    0 -0.21801781063E+03 -0.30182039880E+03  0.12764830216E+04  0.15895724993E+04  0.87103645574E+03 0.  0.
        -24    2    4    4    0    0 -0.44456479663E+03 -0.19395384706E+03  0.12268328945E+04  0.13219333923E+04  0.84457027192E+02 0.  0.
         24    2    4    4    0    0  0.22654698601E+03 -0.10786655174E+03  0.49650127027E+02  0.26763910694E+03  0.78783415751E+02 0.  0.
         11    1    3    3    0    0  0.14872289979E+03  0.26067448719E+03  0.13359901735E+03  0.32850934025E+03  0.00000000000E+00 0.  1.
        -11    1    3    3    0    0  0.69294910837E+02  0.41145911614E+02  0.58755542990E+01  0.80804039805E+02  0.00000000000E+00 0. -1.
          4    1    6    6  502    0  0.11080961337E+03 -0.29276681813E+02  0.56073290760E+02  0.12759352824E+03  0.00000000000E+00 0. -1.
          1    1    5    5  503    0 -0.28807735319E+02 -0.24578700433E+02  0.16135773539E+03  0.16574171744E+03  0.00000000000E+00 0. -1.
         -2    1    5    5    0  503 -0.41575706131E+03 -0.16937514663E+03  0.10654751592E+04  0.11561916749E+04  0.00000000000E+00 0.  1.
         -3    1    6    6    0  502  0.11573737264E+03 -0.78589869931E+02 -0.64231637332E+01  0.14004557870E+03  0.00000000000E+00 0.  1.
<mgrwt>
<rscale>  0 0.14108894E+04</rscale>
<asrwt>0</asrwt>
<pdfrwt beam="1">  1        1 0.26268026E+00 0.14108894E+04</pdfrwt>
<pdfrwt beam="2">  1       -1 0.44840638E-01 0.14108894E+04</pdfrwt>
<totfact> 0.22628669E+01</totfact>
</mgrwt>
</event>
<event>
12    1  0.1531197E-007  0.1421823E+04  0.7818608E-02  0.8938172E-01
         -1   -1    0    0    0  501 -0.00000000000E+00  0.00000000000E+00  0.21722421106E+03  0.21722421106E+03  0.00000000000E+00 0.  1.
          1   -1    0    0  501    0  0.00000000000E+00 -0.00000000000E+00 -0.23266047601E+04  0.23266047601E+04  0.00000000000E+00 0. -1.
         23    2    1    2    0    0 -0.39636510680E+03 -0.21227990257E+02 -0.78134835159E+03  0.88127933187E+03  0.92693520782E+02 0.  0.
        254    2    1    2    0    0  0.39636510680E+03  0.21227990257E+02 -0.13280321974E+04  0.16625496393E+04  0.91806637024E+03 0.  0.
        -24    2    4    4    0    0  0.58626960929E+03 -0.53581238110E+02 -0.13152127753E+04  0.14432433734E+04  0.81140536155E+02 0.  0.
         24    2    4    4    0    0 -0.18990450249E+03  0.74809228367E+02 -0.12819422136E+02  0.21930626591E+03  0.79188130204E+02 0.  0.
         13    1    3    3    0    0 -0.23999870718E+03 -0.50186915816E+01 -0.37142082374E+03  0.44224200956E+03  0.00000000000E+00 0.  1.
        -13    1    3    3    0    0 -0.15636639962E+03 -0.16209298676E+02 -0.40992752785E+03  0.43903732231E+03  0.00000000000E+00 0. -1.
          4    1    6    6  502    0 -0.19379796768E+03  0.79228138549E+02 -0.19649595223E+02  0.21028755742E+03  0.00000000000E+00 0. -1.
          3    1    5    5  503    0  0.56841390903E+03 -0.44151447559E+02 -0.12936097031E+04  0.14136724466E+04  0.00000000000E+00 0. -1.
         -4    1    5    5    0  503  0.17855700265E+02 -0.94297905507E+01 -0.21603072172E+02  0.29570926753E+02  0.00000000000E+00 0.  1.
         -3    1    6    6    0  502  0.38934651834E+01 -0.44189101816E+01  0.68301730869E+01  0.90187084843E+01  0.00000000000E+00 0.  1.
<mgrwt>
<rscale>  0 0.14218226E+04</rscale>
<asrwt>0</asrwt>
<pdfrwt beam="1">  1        1 0.35793923E+00 0.14218226E+04</pdfrwt>
<pdfrwt beam="2">  1       -1 0.33419106E-01 0.14218226E+04</pdfrwt>
<totfact> 0.14675062E+01</totfact>
</mgrwt>
</event>
<event>
12    1  0.1519630E-007  0.1633080E+04  0.7818608E-02  0.8800480E-01
         -2   -1    0    0    0  501 -0.00000000000E+00  0.00000000000E+00  0.22212566240E+04  0.22212566240E+04  0.00000000000E+00 0.  1.
          2   -1    0    0  501    0  0.00000000000E+00 -0.00000000000E+00 -0.30016231844E+03  0.30016231844E+03  0.00000000000E+00 0. -1.
         23    2    1    2    0    0 -0.26481648223E+03 -0.39214417870E+03  0.21283302694E+03  0.52681803027E+03  0.91293556815E+02 0.  0.
        254    2    1    2    0    0  0.26481648223E+03  0.39214417870E+03  0.17082612787E+04  0.19946009122E+04  0.91453342021E+03 0.  0.
        -24    2    4    4    0    0  0.28364415638E+03  0.56656608320E+03  0.62351390401E+03  0.89288083549E+03  0.83758365605E+02 0.  0.
         24    2    4    4    0    0 -0.18827674152E+02 -0.17442190450E+03  0.10847473746E+04  0.11017200767E+04  0.79578756997E+02 0.  0.
         11    1    3    3    0    0 -0.14057902250E+03 -0.19950838649E+03  0.60040187918E+02  0.25133818256E+03  0.00000000000E+00 0. -1.
        -11    1    3    3    0    0 -0.12423745973E+03 -0.19263579221E+03  0.15279283902E+03  0.27547984771E+03  0.00000000000E+00 0.  1.
          2    1    6    6  502    0 -0.95594389252E+01  0.52919368471E+01  0.10648629022E+03  0.10704539912E+03  0.00000000000E+00 0. -1.
          1    1    5    5  503    0  0.35308193748E+02  0.55418517335E+02  0.10342117792E+03  0.12253089672E+03  0.00000000000E+00 0. -1.
         -2    1    5    5    0  503  0.24833596263E+03  0.51114756586E+03  0.52009272609E+03  0.77034993877E+03  0.00000000000E+00 0.  1.
         -1    1    6    6    0  502 -0.92682352269E+01 -0.17971384135E+03  0.97826108442E+03  0.99467467760E+03  0.00000000000E+00 0.  1.
<mgrwt>
<rscale>  0 0.16330800E+04</rscale>
<asrwt>0</asrwt>
<pdfrwt beam="1">  1        2 0.46178820E-01 0.16330800E+04</pdfrwt>
<pdfrwt beam="2">  1       -2 0.34173178E+00 0.16330800E+04</pdfrwt>
<totfact> 0.18497028E+00</totfact>
</mgrwt>
</event>
<event>
12    1  0.1519630E-007  0.1038552E+04  0.7818608E-02  0.9267244E-01
         -2   -1    0    0    0  501 -0.00000000000E+00  0.00000000000E+00  0.44175961274E+03  0.44175961274E+03  0.00000000000E+00 0. -1.
          2   -1    0    0  501    0  0.00000000000E+00 -0.00000000000E+00 -0.61039438209E+03  0.61039438209E+03  0.00000000000E+00 0.  1.
         23    2    1    2    0    0 -0.15870597930E+02  0.58605595319E+02 -0.11177580221E+03  0.16203186483E+03  0.10036933585E+03 0.  0.
        254    2    1    2    0    0  0.15870597930E+02 -0.58605595319E+02 -0.56858967142E+02  0.89012213000E+03  0.88622681774E+03 0.  0.
        -24    2    4    4    0    0 -0.41128570559E+03 -0.86229139038E+02 -0.13330153454E+03  0.44807038897E+03  0.80039854567E+02 0.  0.
         24    2    4    4    0    0  0.42715630352E+03  0.27623543720E+02  0.76442567401E+02  0.44205174103E+03  0.79628561667E+02 0.  0.
         11    1    3    3    0    0  0.83872675340E+01  0.78687078246E+02 -0.52665077850E+02  0.95055841297E+02  0.00000000000E+00 0. -1.
        -11    1    3    3    0    0 -0.24257865464E+02 -0.20081482928E+02 -0.59110724363E+02  0.66976023532E+02  0.00000000000E+00 0.  1.
          4    1    6    6  502    0  0.18484766312E+03 -0.56163382713E+01  0.68920550027E+02  0.19735816181E+03  0.00000000000E+00 0. -1.
          3    1    5    5  503    0 -0.22929708113E+03 -0.27889087015E+02 -0.10902389945E+03  0.25542349783E+03  0.00000000000E+00 0. -1.
         -4    1    5    5    0  503 -0.18198862446E+03 -0.58340052023E+02 -0.24277635092E+02  0.19264689114E+03  0.00000000000E+00 0.  1.
         -3    1    6    6    0  502  0.24230864040E+03  0.33239881991E+02  0.75220173739E+01  0.24469357922E+03  0.00000000000E+00 0.  1.
<mgrwt>
<rscale>  0 0.10385520E+04</rscale>
<asrwt>0</asrwt>
<pdfrwt beam="1">  1        2 0.93906828E-01 0.10385520E+04</pdfrwt>
<pdfrwt beam="2">  1       -2 0.67963017E-01 0.10385520E+04</pdfrwt>
<totfact> 0.96009763E+01</totfact>
</mgrwt>
</event>
<event>
12    1  0.1519630E-007  0.2149714E+04  0.7818608E-02  0.8539655E-01
          2   -1    0    0  501    0  0.00000000000E+00  0.00000000000E+00  0.16744289235E+04  0.16744289235E+04  0.00000000000E+00 0. -1.
         -2   -1    0    0    0  501 -0.00000000000E+00 -0.00000000000E+00 -0.68997718369E+03  0.68997718369E+03  0.00000000000E+00 0.  1.
         23    2    1    2    0    0 -0.30673324311E+03 -0.42451980330E+03  0.11910252706E+04  0.13041203944E+04  0.88805755168E+02 0.  0.
        254    2    1    2    0    0  0.30673324311E+03  0.42451980330E+03 -0.20657353074E+03  0.10602857128E+04  0.89846025141E+03 0.  0.
        -24    2    4    4    0    0 -0.63484332349E+02  0.22952158584E+03  0.30412919683E+03  0.39481929064E+03  0.81714656447E+02 0.  0.
         24    2    4    4    0    0  0.37021757546E+03  0.19499821746E+03 -0.51070272757E+03  0.66546642217E+03  0.83324216742E+02 0.  0.
         13    1    3    3    0    0 -0.95404717869E+02 -0.10359523233E+03  0.41353483826E+03  0.43685820904E+03  0.00000000000E+00 0. -1.
        -13    1    3    3    0    0 -0.21132852524E+03 -0.32092457096E+03  0.77749043233E+03  0.86726218538E+03  0.00000000000E+00 0.  1.
          2    1    6    6  502    0 -0.27909532960E+01  0.55582268363E+01 -0.18348070379E+02  0.19373564269E+02  0.00000000000E+00 0. -1.
          3    1    5    5  503    0  0.19001311422E+02  0.33441420469E+02  0.56747354312E+02  0.68553925198E+02  0.00000000000E+00 0. -1.
         -4    1    5    5    0  503 -0.82485643771E+02  0.19608016537E+03  0.24738184252E+03  0.32626536544E+03  0.00000000000E+00 0.  1.
         -1    1    6    6    0  502  0.37300852875E+03  0.18943999062E+03 -0.49235465719E+03  0.64609285790E+03  0.00000000000E+00 0.  1.
<mgrwt>
<rscale>  0 0.21497142E+04</rscale>
<asrwt>0</asrwt>
<pdfrwt beam="1">  1        2 0.25760445E+00 0.21497142E+04</pdfrwt>
<pdfrwt beam="2">  1       -2 0.10615034E+00 0.21497142E+04</pdfrwt>
<totfact> 0.66606885E+00</totfact>
</mgrwt>
</event>
<event>
12    1  0.1519630E-007  0.1186904E+04  0.7818608E-02  0.9124397E-01
         -2   -1    0    0    0  501 -0.00000000000E+00  0.00000000000E+00  0.66917035920E+03  0.66917035920E+03  0.00000000000E+00 0.  1.
          2   -1    0    0  501    0  0.00000000000E+00 -0.00000000000E+00 -0.52630117508E+03  0.52630117508E+03  0.00000000000E+00 0. -1.
         23    2    1    2    0    0 -0.13130745792E+03 -0.88462587998E+02 -0.14904071996E+03  0.23473209684E+03  0.88423656900E+02 0.  0.
        254    2    1    2    0    0  0.13130745792E+03  0.88462587998E+02  0.29190990408E+03  0.96073943743E+03  0.90152182256E+03 0.  0.
        -24    2    4    4    0    0 -0.29107620400E+03 -0.17666061602E+03  0.29231185932E+03  0.45578577871E+03  0.79750380500E+02 0.  0.
         24    2    4    4    0    0  0.42238366193E+03  0.26512320402E+03 -0.40195523428E+00  0.50495365871E+03  0.79244966433E+02 0.  0.
         11    1    3    3    0    0 -0.10234554839E+03 -0.59107623202E+02 -0.15296967333E+03  0.19330815647E+03  0.00000000000E+00 0. -1.
        -11    1    3    3    0    0 -0.28961909530E+02 -0.29354964797E+02  0.39289533696E+01  0.41423940378E+02  0.00000000000E+00 0.  1.
          4    1    6    6  502    0  0.64811244983E+02  0.75407366029E+02  0.10782222986E+02  0.10001512216E+03  0.00000000000E+00 0. -1.
          3    1    5    5  503    0 -0.28682391872E+03 -0.15242797527E+03  0.27629723932E+03  0.42642984470E+03  0.00000000000E+00 0. -1.
         -4    1    5    5    0  503 -0.42522852820E+01 -0.24232640759E+02  0.16014619999E+02  0.29355934017E+02  0.00000000000E+00 0.  1.
         -3    1    6    6    0  502  0.35757241694E+03  0.18971583799E+03 -0.11184178220E+02  0.40493853656E+03  0.00000000000E+00 0.  1.
<mgrwt>
<rscale>  0 0.11869038E+04</rscale>
<asrwt>0</asrwt>
<pdfrwt beam="1">  1        2 0.80969412E-01 0.11869038E+04</pdfrwt>
<pdfrwt beam="2">  1       -2 0.10294929E+00 0.11869038E+04</pdfrwt>
<totfact> 0.44146321E+01</totfact>
</mgrwt>
</event>
<event>
12    1  0.1519630E-007  0.2564001E+04  0.7818608E-02  0.8380533E-01
          1   -1    0    0  501    0  0.00000000000E+00  0.00000000000E+00  0.58389572551E+03  0.58389572551E+03  0.00000000000E+00 0. -1.
         -1   -1    0    0    0  501 -0.00000000000E+00 -0.00000000000E+00 -0.28147573003E+04  0.28147573003E+04  0.00000000000E+00 0.  1.
         23    2    1    2    0    0  0.93574358444E+03  0.31642556343E+03 -0.18029639542E+04  0.20577673525E+04  0.89365897405E+02 0.  0.
        254    2    1    2    0    0 -0.93574358444E+03 -0.31642556343E+03 -0.42789762053E+03  0.13408856733E+04  0.79946033187E+03 0.  0.
        -24    2    4    4    0    0 -0.63591101093E+03 -0.18207003565E+03  0.13921892766E+03  0.68070133758E+03  0.80250167974E+02 0.  0.
         24    2    4    4    0    0 -0.29983257350E+03 -0.13435552779E+03 -0.56711654820E+03  0.66018433573E+03  0.79190895484E+02 0.  0.
         11    1    3    3    0    0  0.78393066618E+03  0.24308865526E+03 -0.14380065903E+04  0.16557482712E+04  0.00000000000E+00 0.  1.
        -11    1    3    3    0    0  0.15181291825E+03  0.73336908171E+02 -0.36495736394E+03  0.40201908132E+03  0.00000000000E+00 0. -1.
          2    1    6    6  502    0 -0.32003411344E+02  0.46633236517E+01 -0.30038608046E+02  0.44139357704E+02  0.00000000000E+00 0. -1.
          1    1    5    5  503    0 -0.27042715351E+03 -0.64249530541E+02  0.96945730449E+02  0.29437615763E+03  0.00000000000E+00 0. -1.
         -2    1    5    5    0  503 -0.36548385742E+03 -0.11782050511E+03  0.42273197214E+02  0.38632517995E+03  0.00000000000E+00 0.  1.
         -1    1    6    6    0  502 -0.26782916216E+03 -0.13901885144E+03 -0.53707794015E+03  0.61604497803E+03  0.00000000000E+00 0.  1.
<mgrwt>
<rscale>  0 0.25640006E+04</rscale>
<asrwt>0</asrwt>
<pdfrwt beam="1">  1        1 0.89830113E-01 0.25640006E+04</pdfrwt>
<pdfrwt beam="2">  1       -1 0.43303958E+00 0.25640006E+04</pdfrwt>
<totfact> 0.13328691E-01</totfact>
</mgrwt>
</event>
<event>
12    1  0.1519630E-007  0.1487411E+04  0.7818608E-02  0.8892868E-01
         -2   -1    0    0    0  501 -0.00000000000E+00  0.00000000000E+00  0.63014105314E+03  0.63014105314E+03  0.00000000000E+00 0. -1.
          2   -1    0    0  501    0  0.00000000000E+00 -0.00000000000E+00 -0.87773696839E+03  0.87773696839E+03  0.00000000000E+00 0.  1.
         23    2    1    2    0    0 -0.42471600173E+03  0.12321176852E+03 -0.23132510508E+03  0.50671190455E+03  0.87640332862E+02 0.  0.
        254    2    1    2    0    0  0.42471600173E+03 -0.12321176852E+03 -0.16270810171E+02  0.10011661170E+04  0.89805569565E+03 0.  0.
        -24    2    4    4    0    0  0.26999121344E+03  0.40594499289E+02  0.41783913376E+03  0.50547852635E+03  0.79848795837E+02 0.  0.
         24    2    4    4    0    0  0.15472478829E+03 -0.16380626781E+03 -0.43410994393E+03  0.49568759062E+03  0.80513915554E+02 0.  0.
         13    1    3    3    0    0 -0.40046420325E+03  0.94521095111E+02 -0.22381788813E+03  0.46840181741E+03  0.00000000000E+00 0.  1.
        -13    1    3    3    0    0 -0.24251798482E+02  0.28690673410E+02 -0.75072169442E+01  0.38310087139E+02  0.00000000000E+00 0. -1.
          2    1    6    6  502    0  0.88332729275E+02 -0.14302173878E+03 -0.33198478573E+03  0.37211797428E+03  0.00000000000E+00 0. -1.
          1    1    5    5  503    0  0.95052156623E+02  0.42786137716E+02  0.11103472161E+03  0.15229666925E+03  0.00000000000E+00 0. -1.
         -2    1    5    5    0  503  0.17493905682E+03 -0.21916384268E+01  0.30680441214E+03  0.35318185711E+03  0.00000000000E+00 0.  1.
         -1    1    6    6    0  502  0.66392059017E+02 -0.20784529031E+02 -0.10212515820E+03  0.12356961635E+03  0.00000000000E+00 0.  1.
<mgrwt>
<rscale>  0 0.14874113E+04</rscale>
<asrwt>0</asrwt>
<pdfrwt beam="1">  1        2 0.13503646E+00 0.14874113E+04</pdfrwt>
<pdfrwt beam="2">  1       -2 0.96944779E-01 0.14874113E+04</pdfrwt>
<totfact> 0.26105562E+01</totfact>
</mgrwt>
</event>
<event>
12    1  0.1519630E-007  0.1281037E+04  0.7818608E-02  0.9044739E-01
         -1   -1    0    0    0  501 -0.00000000000E+00  0.00000000000E+00  0.28715844466E+03  0.28715844466E+03  0.00000000000E+00 0.  1.
          1   -1    0    0  501    0  0.00000000000E+00 -0.00000000000E+00 -0.14287029603E+04  0.14287029603E+04  0.00000000000E+00 0. -1.
         23    2    1    2    0    0 -0.27189853660E+03  0.39524398976E+02 -0.10141219694E+03  0.30522638106E+03  0.85951833511E+02 0.  0.
        254    2    1    2    0    0  0.27189853660E+03 -0.39524398976E+02 -0.10401323187E+04  0.14106350239E+04  0.91242804536E+03 0.  0.
        -24    2    4    4    0    0  0.14127112418E+03 -0.46154076689E+03 -0.66451065483E+03  0.82495311568E+03  0.77432697619E+02 0.  0.
         24    2    4    4    0    0  0.13062741242E+03  0.42201636791E+03 -0.37562166390E+03  0.58568190825E+03  0.82282000448E+02 0.  0.
         11    1    3    3    0    0 -0.12132276611E+03  0.33677704438E+02 -0.43554548027E+01  0.12598559973E+03  0.00000000000E+00 0. -1.
        -11    1    3    3    0    0 -0.15057577049E+03  0.58466945385E+01 -0.97056742134E+02  0.17924078132E+03  0.00000000000E+00 0.  1.
          2    1    6    6  502    0  0.79757950084E+02  0.28158339978E+03 -0.29669864011E+03  0.41675007460E+03  0.00000000000E+00 0. -1.
          1    1    5    5  503    0  0.10349922610E+03 -0.36326471486E+03 -0.56800163840E+03  0.68212843665E+03  0.00000000000E+00 0. -1.
         -2    1    5    5    0  503  0.37771898077E+02 -0.98276052033E+02 -0.96509016432E+02  0.14282467903E+03  0.00000000000E+00 0.  1.
         -1    1    6    6    0  502  0.50869462340E+02  0.14043296813E+03 -0.78923023787E+02  0.16893183365E+03  0.00000000000E+00 0.  1.
<mgrwt>
<rscale>  0 0.12810373E+04</rscale>
<asrwt>0</asrwt>
<pdfrwt beam="1">  1        1 0.21980046E+00 0.12810373E+04</pdfrwt>
<pdfrwt beam="2">  1       -1 0.44178221E-01 0.12810373E+04</pdfrwt>
<totfact> 0.36572336E+01</totfact>
</mgrwt>
</event>
<event>
12    1  0.1519630E-007  0.1196447E+04  0.7818608E-02  0.9115972E-01
          1   -1    0    0  501    0  0.00000000000E+00  0.00000000000E+00  0.14091689700E+04  0.14091689700E+04  0.00000000000E+00 0. -1.
         -1   -1    0    0    0  501 -0.00000000000E+00 -0.00000000000E+00 -0.25395930348E+03  0.25395930348E+03  0.00000000000E+00 0.  1.
         23    2    1    2    0    0 -0.35254497762E+02  0.10005679271E+03 -0.53300716824E+02  0.14972863017E+03  0.91232970459E+02 0.  0.
        254    2    1    2    0    0  0.35254497762E+02 -0.10005679271E+03  0.12085103833E+04  0.15133996433E+04  0.90478002426E+03 0.  0.
        -24    2    4    4    0    0 -0.37603905282E+02  0.14926503795E+03  0.12286913785E+04  0.12408952075E+04  0.80276442624E+02 0.  0.
         24    2    4    4    0    0  0.72858403044E+02 -0.24932183067E+03 -0.20180995124E+02  0.27250443579E+03  0.79885373013E+02 0.  0.
         11    1    3    3    0    0 -0.31446957582E+02  0.11189879589E+03 -0.25109161241E+02  0.11891476629E+03  0.00000000000E+00 0.  1.
        -11    1    3    3    0    0 -0.38075401800E+01 -0.11842003176E+02 -0.28191555583E+02  0.30813863886E+02  0.00000000000E+00 0. -1.
          2    1    6    6  502    0 -0.15763374932E+02 -0.48031908978E+02  0.64525491200E+01  0.50962571162E+02  0.00000000000E+00 0. -1.
          1    1    5    5  503    0 -0.28463304273E+02  0.11004047378E+02  0.13180395382E+03  0.13529054288E+03  0.00000000000E+00 0. -1.
         -2    1    5    5    0  503 -0.91406010093E+01  0.13826099058E+03  0.10968874246E+04  0.11056046646E+04  0.00000000000E+00 0.  1.
         -1    1    6    6    0  502  0.88621777976E+02 -0.20128992169E+03 -0.26633544244E+02  0.22154186463E+03  0.00000000000E+00 0.  1.
<mgrwt>
<rscale>  0 0.11964474E+04</rscale>
<asrwt>0</asrwt>
<pdfrwt beam="1">  1        1 0.21679522E+00 0.11964474E+04</pdfrwt>
<pdfrwt beam="2">  1       -1 0.39070663E-01 0.11964474E+04</pdfrwt>
<totfact> 0.47632782E+01</totfact>
</mgrwt>
</event>
<event>
12    1  0.1923313E-007  0.1756210E+04  0.7818608E-02  0.8729939E-01
          1   -1    0    0  501    0  0.00000000000E+00  0.00000000000E+00  0.23941782943E+04  0.23941782943E+04  0.00000000000E+00 0. -1.
         -1   -1    0    0    0  501 -0.00000000000E+00 -0.00000000000E+00 -0.32205974093E+03  0.32205974093E+03  0.00000000000E+00 0.  1.
         23    2    1    2    0    0  0.35096261621E+03 -0.11385291046E+02  0.15953468621E+04  0.16362401332E+04  0.94052007038E+02 0.  0.
        254    2    1    2    0    0 -0.35096261621E+03  0.11385291046E+02  0.47677169120E+03  0.10799979020E+04  0.90320531444E+03 0.  0.
        -24    2    4    4    0    0 -0.52126219401E+03  0.31231978956E+03  0.31940962054E+03  0.69157838205E+03  0.83667359018E+02 0.  0.
         24    2    4    4    0    0  0.17029957780E+03 -0.30093449852E+03  0.15736207067E+03  0.38841951998E+03  0.80891183844E+02 0.  0.
         13    1    3    3    0    0  0.31137030733E+03  0.91778403671E+01  0.14829240119E+04  0.15152885290E+04  0.00000000000E+00 0. -1.
        -13    1    3    3    0    0  0.39592308884E+02 -0.20563131413E+02  0.11242285025E+03  0.12095160418E+03  0.00000000000E+00 0.  1.
          2    1    6    6  502    0  0.17755023399E+03 -0.26941700840E+03  0.14582322069E+03  0.35408194207E+03  0.00000000000E+00 0. -1.
          1    1    5    5  503    0 -0.44072445864E+03  0.29150289212E+03  0.29353591491E+03  0.60446283417E+03  0.00000000000E+00 0. -1.
         -2    1    5    5    0  503 -0.80537735375E+02  0.20816897442E+02  0.25873705628E+02  0.87115547874E+02  0.00000000000E+00 0.  1.
         -1    1    6    6    0  502 -0.72506561897E+01 -0.31517490117E+02  0.11538849973E+02  0.34337577916E+02  0.00000000000E+00 0.  1.
<mgrwt>
<rscale>  0 0.17562101E+04</rscale>
<asrwt>0</asrwt>
<pdfrwt beam="1">  1        1 0.36833511E+00 0.17562101E+04</pdfrwt>
<pdfrwt beam="2">  1       -1 0.49547654E-01 0.17562101E+04</pdfrwt>
<totfact> 0.62081665E+00</totfact>
</mgrwt>
</event>
<event>
12    1  0.1519630E-007  0.1640710E+04  0.7818608E-02  0.8795922E-01
         -1   -1    0    0    0  501 -0.00000000000E+00  0.00000000000E+00  0.24342808300E+03  0.24342808300E+03  0.00000000000E+00 0.  1.
          1   -1    0    0  501    0  0.00000000000E+00 -0.00000000000E+00 -0.27646030386E+04  0.27646030386E+04  0.00000000000E+00 0. -1.
         23    2    1    2    0    0  0.20827081664E+02 -0.49380831614E+03 -0.14041053472E+04  0.14914183979E+04  0.92393674687E+02 0.  0.
        254    2    1    2    0    0 -0.20827081664E+02  0.49380831614E+03 -0.11170696083E+04  0.15166127237E+04  0.89888220767E+03 0.  0.
        -24    2    4    4    0    0 -0.44650935182E+03  0.33293625157E+03 -0.58089291597E+03  0.80849231453E+03  0.77498993247E+02 0.  0.
         24    2    4    4    0    0  0.42568227015E+03  0.16087206457E+03 -0.53617669237E+03  0.70812040913E+03  0.82848368155E+02 0.  0.
         13    1    3    3    0    0  0.34631071862E+02 -0.10043113971E+03 -0.23689897659E+03  0.25962829212E+03  0.00000000000E+00 0.  1.
        -13    1    3    3    0    0 -0.13803990198E+02 -0.39337717643E+03 -0.11672063706E+04  0.12317901058E+04  0.00000000000E+00 0. -1.
          4    1    6    6  502    0  0.73857282541E+02  0.54777800611E+02 -0.14244652591E+03  0.16954798249E+03  0.00000000000E+00 0. -1.
          1    1    5    5  503    0 -0.44375115220E+01  0.19472023141E+02 -0.26992619819E+02  0.33577562722E+02  0.00000000000E+00 0. -1.
         -2    1    5    5    0  503 -0.44207184030E+03  0.31346422843E+03 -0.55390029615E+03  0.77491475181E+03  0.00000000000E+00 0.  1.
         -3    1    6    6    0  502  0.35182498761E+03  0.10609426396E+03 -0.39373016646E+03  0.53857242664E+03  0.00000000000E+00 0.  1.
<mgrwt>
<rscale>  0 0.16407096E+04</rscale>
<asrwt>0</asrwt>
<pdfrwt beam="1">  1        1 0.42532355E+00 0.16407096E+04</pdfrwt>
<pdfrwt beam="2">  1       -1 0.37450473E-01 0.16407096E+04</pdfrwt>
<totfact> 0.58187954E+00</totfact>
</mgrwt>
</event>
<event>
12    1  0.1519630E-007  0.1377110E+04  0.7818608E-02  0.8970556E-01
         -2   -1    0    0    0  501 -0.00000000000E+00  0.00000000000E+00  0.19128561672E+03  0.19128561672E+03  0.00000000000E+00 0. -1.
          2   -1    0    0  501    0  0.00000000000E+00 -0.00000000000E+00 -0.24785350644E+04  0.24785350644E+04  0.00000000000E+00 0.  1.
         23    2    1    2    0    0  0.35932502628E+03  0.57303164564E+02 -0.40438017975E+03  0.55161706412E+03  0.91432644442E+02 0.  0.
        254    2    1    2    0    0 -0.35932502628E+03 -0.57303164564E+02 -0.18828692679E+04  0.21182036170E+04  0.89955086336E+03 0.  0.
        -24    2    4    4    0    0 -0.38073867414E+03  0.36915852609E+03 -0.10405642015E+04  0.11706879273E+04  0.80600312614E+02 0.  0.
         24    2    4    4    0    0  0.21413647857E+02 -0.42646169066E+03 -0.84230506648E+03  0.94751568971E+03  0.77330713902E+02 0.  0.
         13    1    3    3    0    0  0.30581502223E+03  0.76528768311E+02 -0.31475524270E+03  0.44547765714E+03  0.00000000000E+00 0. -1.
        -13    1    3    3    0    0  0.53510004053E+02 -0.19225603747E+02 -0.89624937053E+02  0.10613940698E+03  0.00000000000E+00 0.  1.
          4    1    6    6  502    0  0.10131611786E+02 -0.39895923057E+01 -0.28640462478E+02  0.30640536795E+02  0.00000000000E+00 0. -1.
          3    1    5    5  503    0 -0.50630545367E+02  0.56042561373E+02 -0.21745856852E+03  0.23020089016E+03  0.00000000000E+00 0. -1.
         -4    1    5    5    0  503 -0.33010812877E+03  0.31311596472E+03 -0.82310563295E+03  0.94048703714E+03  0.00000000000E+00 0.  1.
         -3    1    6    6    0  502  0.11282036071E+02 -0.42247209835E+03 -0.81366460400E+03  0.91687515291E+03  0.00000000000E+00 0.  1.
<mgrwt>
<rscale>  0 0.13771102E+04</rscale>
<asrwt>0</asrwt>
<pdfrwt beam="1">  1        2 0.38131306E+00 0.13771102E+04</pdfrwt>
<pdfrwt beam="2">  1       -2 0.29428558E-01 0.13771102E+04</pdfrwt>
<totfact> 0.37258325E+01</totfact>
</mgrwt>
</event>
<event>
12    1  0.1519630E-007  0.1514816E+04  0.7818608E-02  0.8874660E-01
         -2   -1    0    0    0  501 -0.00000000000E+00  0.00000000000E+00  0.35513374942E+03  0.35513374942E+03  0.00000000000E+00 0.  1.
          2   -1    0    0  501    0  0.00000000000E+00 -0.00000000000E+00 -0.16153541799E+04  0.16153541799E+04  0.00000000000E+00 0. -1.
         23    2    1    2    0    0 -0.43879781279E+03 -0.17176368344E+03 -0.30093295709E+03  0.56695156663E+03  0.93952917875E+02 0.  0.
        254    2    1    2    0    0  0.43879781279E+03  0.17176368344E+03 -0.95928747341E+03  0.14035363627E+04  0.90974478912E+03 0.  0.
        -24    2    4    4    0    0  0.12221466954E+02 -0.83556008791E+01 -0.92959104317E+03  0.93266036242E+03  0.74139488555E+02 0.  0.
         24    2    4    4    0    0  0.42657634584E+03  0.18011928432E+03 -0.29696430243E+02  0.47087600029E+03  0.80199714893E+02 0.  0.
         11    1    3    3    0    0 -0.58152265716E+02  0.71899373846E+01 -0.51024529466E+02  0.77697386151E+02  0.00000000000E+00 0. -1.
        -11    1    3    3    0    0 -0.38064554708E+03 -0.17895362082E+03 -0.24990842763E+03  0.48925418048E+03  0.00000000000E+00 0.  1.
          2    1    6    6  502    0  0.37771211588E+03  0.15126541835E+03 -0.10243855559E+00  0.40687550893E+03  0.00000000000E+00 0. -1.
          1    1    5    5  503    0  0.36805283593E+02 -0.32459452460E+01 -0.78760777802E+03  0.78847395458E+03  0.00000000000E+00 0. -1.
         -2    1    5    5    0  503 -0.24583816639E+02 -0.51096556330E+01 -0.14198326515E+03  0.14418640784E+03  0.00000000000E+00 0.  1.
         -1    1    6    6    0  502  0.48864229955E+02  0.28853865971E+02 -0.29593991687E+02  0.64000491362E+02  0.00000000000E+00 0.  1.
<mgrwt>
<rscale>  0 0.15148159E+04</rscale>
<asrwt>0</asrwt>
<pdfrwt beam="1">  1        2 0.24851603E+00 0.15148159E+04</pdfrwt>
<pdfrwt beam="2">  1       -2 0.54635961E-01 0.15148159E+04</pdfrwt>
<totfact> 0.33257270E+01</totfact>
</mgrwt>
</event>
<event>
12    1  0.1519630E-007  0.2100362E+04  0.7818608E-02  0.8561084E-01
          2   -1    0    0  501    0  0.00000000000E+00  0.00000000000E+00  0.14396041657E+04  0.14396041657E+04  0.00000000000E+00 0.  1.
         -2   -1    0    0    0  501 -0.00000000000E+00 -0.00000000000E+00 -0.76609928685E+03  0.76609928685E+03  0.00000000000E+00 0. -1.
         23    2    1    2    0    0 -0.24552125983E+03  0.65559569236E+03 -0.23633177104E+03  0.74424411160E+03  0.89219901283E+02 0.  0.
        254    2    1    2    0    0  0.24552125983E+03 -0.65559569236E+03  0.90983664984E+03  0.14614593409E+04  0.90441930256E+03 0.  0.
        -24    2    4    4    0    0  0.18791115265E+03 -0.19243930865E+02  0.77844450927E+03  0.80505474244E+03  0.80351441493E+02 0.  0.
         24    2    4    4    0    0  0.57610107180E+02 -0.63635176150E+03  0.13139214057E+03  0.65640459846E+03  0.73079501013E+02 0.  0.
         11    1    3    3    0    0 -0.16382864748E+03  0.51352863378E+03 -0.20885694908E+03  0.57807673248E+03  0.00000000000E+00 0. -1.
        -11    1    3    3    0    0 -0.81692612344E+02  0.14206705858E+03 -0.27474821960E+02  0.16616737913E+03  0.00000000000E+00 0.  1.
          4    1    6    6  502    0 -0.28787747502E+01 -0.38536544834E+02 -0.82708947711E+01  0.39519113504E+02  0.00000000000E+00 0. -1.
          1    1    5    5  503    0  0.14420836943E+03 -0.40481429317E+02  0.48459609893E+03  0.50721610683E+03  0.00000000000E+00 0. -1.
         -2    1    5    5    0  503  0.43702783220E+02  0.21237498451E+02  0.29384841035E+03  0.29783863561E+03  0.00000000000E+00 0.  1.
         -3    1    6    6    0  502  0.60488881930E+02 -0.59781521666E+03  0.13966303534E+03  0.61688548496E+03  0.00000000000E+00 0.  1.
<mgrwt>
<rscale>  0 0.21003616E+04</rscale>
<asrwt>0</asrwt>
<pdfrwt beam="1">  1        2 0.22147756E+00 0.21003616E+04</pdfrwt>
<pdfrwt beam="2">  1       -2 0.11786143E+00 0.21003616E+04</pdfrwt>
<totfact> 0.70288607E+00</totfact>
</mgrwt>
</event>
<event>
12    1  0.1519630E-007  0.2609638E+04  0.7818608E-02  0.8364935E-01
         -2   -1    0    0    0  501 -0.00000000000E+00  0.00000000000E+00  0.82022297534E+03  0.82022297534E+03  0.00000000000E+00 0.  1.
          2   -1    0    0  501    0  0.00000000000E+00 -0.00000000000E+00 -0.20757187878E+04  0.20757187878E+04  0.00000000000E+00 0. -1.
         23    2    1    2    0    0  0.50648288543E+03 -0.37618680111E+03  0.51268327697E+03  0.81811395543E+03  0.91787139720E+02 0.  0.
        254    2    1    2    0    0 -0.50648288543E+03  0.37618680111E+03 -0.17681790894E+04  0.20778278077E+04  0.89043230154E+03 0.  0.
        -24    2    4    4    0    0 -0.70851933304E+03  0.16992838280E+03 -0.15253063431E+04  0.16922368469E+04  0.78935449021E+02 0.  0.
         24    2    4    4    0    0  0.20203644761E+03  0.20625841832E+03 -0.24287274625E+03  0.38559096075E+03  0.79573593919E+02 0.  0.
         13    1    3    3    0    0  0.25491711232E+03 -0.18639033674E+03  0.31541726188E+03  0.44633187303E+03  0.00000000000E+00 0.  1.
        -13    1    3    3    0    0  0.25156577311E+03 -0.18979646438E+03  0.19726601509E+03  0.37178208240E+03  0.00000000000E+00 0. -1.
          4    1    6    6  502    0  0.16695822949E+03  0.12133509348E+03 -0.18370560347E+03  0.27630599713E+03  0.00000000000E+00 0. -1.
          3    1    5    5  503    0 -0.68676462885E+03  0.15259768300E+03 -0.14856027717E+04  0.16437601113E+04  0.00000000000E+00 0. -1.
         -4    1    5    5    0  503 -0.21754704189E+02  0.17330699796E+02 -0.39703571427E+02  0.48476735594E+02  0.00000000000E+00 0.  1.
         -3    1    6    6    0  502  0.35078218118E+02  0.84923324834E+02 -0.59167142779E+02  0.10928496361E+03  0.00000000000E+00 0.  1.
<mgrwt>
<rscale>  0 0.26096377E+04</rscale>
<asrwt>0</asrwt>
<pdfrwt beam="1">  1        2 0.31934135E+00 0.26096377E+04</pdfrwt>
<pdfrwt beam="2">  1       -2 0.12618815E+00 0.26096377E+04</pdfrwt>
<totfact> 0.25087433E+00</totfact>
</mgrwt>
</event>
<event>
12    1  0.1519630E-007  0.1444373E+04  0.7818608E-02  0.8922311E-01
         -2   -1    0    0    0  501 -0.00000000000E+00  0.00000000000E+00  0.62677825358E+03  0.62677825358E+03  0.00000000000E+00 0.  1.
          2   -1    0    0  501    0  0.00000000000E+00 -0.00000000000E+00 -0.83211775355E+03  0.83211775355E+03  0.00000000000E+00 0. -1.
         23    2    1    2    0    0 -0.30906648602E+03  0.27369511200E+03 -0.19381108191E+03  0.46531019664E+03  0.92302418760E+02 0.  0.
        254    2    1    2    0    0  0.30906648602E+03 -0.27369511200E+03 -0.11528418059E+02  0.99358581049E+03  0.90368620177E+03 0.  0.
        -24    2    4    4    0    0  0.22358276814E+03  0.15128340574E+02  0.40729111914E+03  0.47161668890E+03  0.79486631717E+02 0.  0.
         24    2    4    4    0    0  0.85483717881E+02 -0.28882345258E+03 -0.41881953720E+03  0.52196912159E+03  0.79470160216E+02 0.  0.
         13    1    3    3    0    0 -0.15999022425E+03  0.13652895679E+03 -0.48059455913E+02  0.21574693323E+03  0.00000000000E+00 0.  1.
        -13    1    3    3    0    0 -0.14907626177E+03  0.13716615522E+03 -0.14575162600E+03  0.24956326341E+03  0.00000000000E+00 0. -1.
          4    1    6    6  502    0  0.69888288327E+02 -0.23594333366E+03 -0.28091571546E+03  0.37345316806E+03  0.00000000000E+00 0. -1.
          3    1    5    5  503    0  0.21680346210E+03  0.18193370858E+02  0.33826935377E+03  0.40219509647E+03  0.00000000000E+00 0. -1.
         -4    1    5    5    0  503  0.67793060363E+01 -0.30650302838E+01  0.69021765376E+02  0.69421592437E+02  0.00000000000E+00 0.  1.
         -3    1    6    6    0  502  0.15595429554E+02 -0.52880118921E+02 -0.13790382175E+03  0.14851595353E+03  0.00000000000E+00 0.  1.
<mgrwt>
<rscale>  0 0.14443730E+04</rscale>
<asrwt>0</asrwt>
<pdfrwt beam="1">  1        2 0.12801812E+00 0.14443730E+04</pdfrwt>
<pdfrwt beam="2">  1       -2 0.96427423E-01 0.14443730E+04</pdfrwt>
<totfact> 0.28534308E+01</totfact>
</mgrwt>
</event>
<event>
12    1  0.1519630E-007  0.1975367E+04  0.7818608E-02  0.8618225E-01
         -2   -1    0    0    0  501 -0.00000000000E+00  0.00000000000E+00  0.48178132172E+03  0.48178132172E+03  0.00000000000E+00 0.  1.
          2   -1    0    0  501    0  0.00000000000E+00 -0.00000000000E+00 -0.20248159878E+04  0.20248159878E+04  0.00000000000E+00 0. -1.
         23    2    1    2    0    0 -0.21684037949E+03  0.36629326821E+03  0.21750585179E+03  0.48690224250E+03  0.92598540312E+02 0.  0.
        254    2    1    2    0    0  0.21684037949E+03 -0.36629326821E+03 -0.17605405178E+04  0.20196950670E+04  0.89357413802E+03 0.  0.
        -24    2    4    4    0    0  0.29447638423E+03  0.21426075149E+03 -0.46781368823E+03  0.59817355242E+03  0.79611189082E+02 0.  0.
         24    2    4    4    0    0 -0.77636004738E+02 -0.58055401970E+03 -0.12927268296E+04  0.14215215146E+04  0.80687305921E+02 0.  0.
         13    1    3    3    0    0 -0.13549024336E+03  0.28747590803E+03  0.12831170419E+03  0.34273006459E+03  0.00000000000E+00 0. -1.
        -13    1    3    3    0    0 -0.81350136135E+02  0.78817360186E+02  0.89194147607E+02  0.14417217791E+03  0.00000000000E+00 0.  1.
          4    1    6    6  502    0  0.12562648045E+02 -0.17611889073E+03 -0.40780050260E+03  0.44438376852E+03  0.00000000000E+00 0. -1.
          3    1    5    5  503    0  0.15347277649E+03  0.10506600658E+03 -0.30188197171E+03  0.35457789512E+03  0.00000000000E+00 0. -1.
         -4    1    5    5    0  503  0.14100360774E+03  0.10919474491E+03 -0.16593171652E+03  0.24359565731E+03  0.00000000000E+00 0.  1.
         -3    1    6    6    0  502 -0.90198652783E+02 -0.40443512897E+03 -0.88492632700E+03  0.97713774603E+03  0.00000000000E+00 0.  1.
<mgrwt>
<rscale>  0 0.19753668E+04</rscale>
<asrwt>0</asrwt>
<pdfrwt beam="1">  1        2 0.31151015E+00 0.19753668E+04</pdfrwt>
<pdfrwt beam="2">  1       -2 0.74120204E-01 0.19753668E+04</pdfrwt>
<totfact> 0.98747221E+00</totfact>
</mgrwt>
</event>
<event>
12    1  0.1519630E-007  0.1548498E+04  0.7818608E-02  0.8852828E-01
          2   -1    0    0  501    0  0.00000000000E+00  0.00000000000E+00  0.14145358876E+04  0.14145358876E+04  0.00000000000E+00 0. -1.
         -2   -1    0    0    0  501 -0.00000000000E+00 -0.00000000000E+00 -0.42378652064E+03  0.42378652064E+03  0.00000000000E+00 0.  1.
         23    2    1    2    0    0  0.13465576812E+03  0.26427453512E+03  0.82054606561E+03  0.87724431133E+03  0.91041365091E+02 0.  0.
        254    2    1    2    0    0 -0.13465576812E+03 -0.26427453512E+03  0.17020330133E+03  0.96107809690E+03  0.89818079403E+03 0.  0.
        -24    2    4    4    0    0 -0.42832035167E+03 -0.11646091566E+03  0.35698354527E+03  0.57516915628E+03  0.79754863273E+02 0.  0.
         24    2    4    4    0    0  0.29366458355E+03 -0.14781361946E+03 -0.18678024394E+03  0.38590894062E+03  0.77143354815E+02 0.  0.
         11    1    3    3    0    0  0.90649782323E+02  0.14316129900E+03  0.58141423764E+03  0.60560305176E+03  0.00000000000E+00 0. -1.
        -11    1    3    3    0    0  0.44005985797E+02  0.12111323612E+03  0.23913182797E+03  0.27164125957E+03  0.00000000000E+00 0.  1.
          4    1    6    6  502    0  0.24353514763E+03 -0.12303561902E+03 -0.11801891199E+03  0.29728033111E+03  0.00000000000E+00 0. -1.
          3    1    5    5  503    0 -0.25635725305E+03 -0.63425098442E+02  0.16191335509E+03  0.30977042929E+03  0.00000000000E+00 0. -1.
         -4    1    5    5    0  503 -0.17196309862E+03 -0.53035817215E+02  0.19507019018E+03  0.26539872699E+03  0.00000000000E+00 0.  1.
         -1    1    6    6    0  502  0.50129435921E+02 -0.24778000446E+02 -0.68761331948E+02  0.88628609507E+02  0.00000000000E+00 0.  1.
<mgrwt>
<rscale>  0 0.15484976E+04</rscale>
<asrwt>0</asrwt>
<pdfrwt beam="1">  1        2 0.21762090E+00 0.15484976E+04</pdfrwt>
<pdfrwt beam="2">  1       -2 0.65197927E-01 0.15484976E+04</pdfrwt>
<totfact> 0.29638817E+01</totfact>
</mgrwt>
</event>
<event>
12    1  0.1519630E-007  0.1360779E+04  0.7818608E-02  0.8982708E-01
          2   -1    0    0  501    0  0.00000000000E+00  0.00000000000E+00  0.88480541396E+03  0.88480541396E+03  0.00000000000E+00 0. -1.
         -2   -1    0    0    0  501 -0.00000000000E+00 -0.00000000000E+00 -0.52319976239E+03  0.52319976239E+03  0.00000000000E+00 0.  1.
         23    2    1    2    0    0 -0.20464685941E+02  0.28124405862E+03 -0.15903606889E+03  0.33666943549E+03  0.92394879215E+02 0.  0.
        254    2    1    2    0    0  0.20464685941E+02 -0.28124405862E+03  0.52064172045E+03  0.10713357409E+04  0.89284682039E+03 0.  0.
        -24    2    4    4    0    0 -0.24132310196E+03  0.23448353622E+03  0.25350319947E+03  0.42919265227E+03  0.81994465175E+02 0.  0.
         24    2    4    4    0    0  0.26178778790E+03 -0.51572759485E+03  0.26713852098E+03  0.64214308859E+03  0.80479555471E+02 0.  0.
         13    1    3    3    0    0  0.29264396158E+02  0.11260285806E+03 -0.92672413983E+02  0.14874133535E+03  0.00000000000E+00 0. -1.
        -13    1    3    3    0    0 -0.49729082099E+02  0.16864120056E+03 -0.66363654906E+02  0.18792810015E+03  0.00000000000E+00 0.  1.
          2    1    6    6  502    0  0.86292736323E+01 -0.12884423483E+01  0.11354649886E+02  0.14319655063E+02  0.00000000000E+00 0. -1.
          1    1    5    5  503    0 -0.10053315119E+03  0.85135420594E+02  0.14895002797E+03  0.19884935293E+03  0.00000000000E+00 0. -1.
         -2    1    5    5    0  503 -0.14078995077E+03  0.14934811563E+03  0.10455317150E+03  0.23034329934E+03  0.00000000000E+00 0.  1.
         -1    1    6    6    0  502  0.25315851427E+03 -0.51443915250E+03  0.25578387109E+03  0.62782343352E+03  0.00000000000E+00 0.  1.
<mgrwt>
<rscale>  0 0.13607792E+04</rscale>
<asrwt>0</asrwt>
<pdfrwt beam="1">  1        2 0.13612391E+00 0.13607792E+04</pdfrwt>
<pdfrwt beam="2">  1       -2 0.80492271E-01 0.13607792E+04</pdfrwt>
<totfact> 0.39971027E+01</totfact>
</mgrwt>
</event>
<event>
12    1  0.1519630E-007  0.2069073E+04  0.7818608E-02  0.8574991E-01
          2   -1    0    0  501    0  0.00000000000E+00  0.00000000000E+00  0.14775643342E+04  0.14775643342E+04  0.00000000000E+00 0.  1.
         -2   -1    0    0    0  501 -0.00000000000E+00 -0.00000000000E+00 -0.72434431917E+03  0.72434431917E+03  0.00000000000E+00 0. -1.
         23    2    1    2    0    0  0.12260362468E+03 -0.80434458203E+03  0.12749786616E+03  0.82861877573E+03  0.91386619341E+02 0.  0.
        254    2    1    2    0    0 -0.12260362468E+03  0.80434458203E+03  0.62572214889E+03  0.13732898776E+04  0.91235685180E+03 0.  0.
        -24    2    4    4    0    0 -0.49538909655E+03  0.34585984617E+03  0.20391035016E+03  0.64297267272E+03  0.82492646868E+02 0.  0.
         24    2    4    4    0    0  0.37278547187E+03  0.45848473585E+03  0.42181179873E+03  0.73031720493E+03  0.79124997459E+02 0.  0.
         13    1    3    3    0    0  0.63762508347E+02 -0.36211963115E+03  0.12452533332E+02  0.36790127796E+03  0.00000000000E+00 0.  1.
        -13    1    3    3    0    0  0.58841116333E+02 -0.44222495087E+03  0.11504533282E+03  0.46071749777E+03  0.00000000000E+00 0. -1.
          2    1    6    6  502    0  0.34777207791E+03  0.41532514591E+03  0.40913955973E+03  0.67884871240E+03  0.00000000000E+00 0. -1.
          3    1    5    5  503    0 -0.47703893417E+03  0.32387437124E+03  0.17568878171E+03  0.60276637355E+03  0.00000000000E+00 0. -1.
         -4    1    5    5    0  503 -0.18350162376E+02  0.21985474933E+02  0.28221568448E+02  0.40206299170E+02  0.00000000000E+00 0.  1.
         -3    1    6    6    0  502  0.25013393960E+02  0.43159589944E+02  0.12672238998E+02  0.51468492524E+02  0.00000000000E+00 0.  1.
<mgrwt>
<rscale>  0 0.20690726E+04</rscale>
<asrwt>0</asrwt>
<pdfrwt beam="1">  1        2 0.22731759E+00 0.20690726E+04</pdfrwt>
<pdfrwt beam="2">  1       -2 0.11143759E+00 0.20690726E+04</pdfrwt>
<totfact> 0.76888731E+00</totfact>
</mgrwt>
</event>
<event>
12    1  0.1519630E-007  0.1725241E+04  0.7818608E-02  0.8747098E-01
          2   -1    0    0  501    0  0.00000000000E+00  0.00000000000E+00  0.45011160873E+03  0.45011160873E+03  0.00000000000E+00 0. -1.
         -2   -1    0    0    0  501 -0.00000000000E+00 -0.00000000000E+00 -0.16531763122E+04  0.16531763122E+04  0.00000000000E+00 0.  1.
         23    2    1    2    0    0 -0.46934573503E+03 -0.38131363381E+03 -0.31257425618E+03  0.68723801751E+03  0.94381781872E+02 0.  0.
        254    2    1    2    0    0  0.46934573503E+03  0.38131363381E+03 -0.89049044728E+03  0.14160499034E+04  0.92007531537E+03 0.  0.
        -24    2    4    4    0    0  0.64183407384E+03  0.19116022377E+03 -0.24631907233E+03  0.71826050686E+03  0.82047917942E+02 0.  0.
         24    2    4    4    0    0 -0.17248833880E+03  0.19015341005E+03 -0.64417137495E+03  0.69778939655E+03  0.77735032419E+02 0.  0.
         11    1    3    3    0    0 -0.38348025160E+03 -0.26051671018E+03 -0.22865162955E+03  0.51692129705E+03  0.00000000000E+00 0. -1.
        -11    1    3    3    0    0 -0.85865483433E+02 -0.12079692363E+03 -0.83922626638E+02  0.17031672045E+03  0.00000000000E+00 0.  1.
          2    1    6    6  502    0 -0.10091527293E+03  0.15890025569E+03 -0.41554595843E+03  0.45619253297E+03  0.00000000000E+00 0. -1.
          3    1    5    5  503    0  0.53567388875E+03  0.13010067176E+03 -0.21632774048E+03  0.59217429122E+03  0.00000000000E+00 0. -1.
         -4    1    5    5    0  503  0.10616018508E+03  0.61059552011E+02 -0.29991331850E+02  0.12608621564E+03  0.00000000000E+00 0.  1.
         -1    1    6    6    0  502 -0.71573065872E+02  0.31253154352E+02 -0.22862541652E+03  0.24159686359E+03  0.00000000000E+00 0.  1.
<mgrwt>
<rscale>  0 0.17252407E+04</rscale>
<asrwt>0</asrwt>
<pdfrwt beam="1">  1        2 0.69247939E-01 0.17252407E+04</pdfrwt>
<pdfrwt beam="2">  1       -2 0.25433482E+00 0.17252407E+04</pdfrwt>
<totfact> 0.39913097E+00</totfact>
</mgrwt>
</event>
<event>
12    1  0.1519630E-007  0.1204351E+04  0.7818608E-02  0.9109057E-01
          1   -1    0    0  501    0  0.00000000000E+00  0.00000000000E+00  0.60176723072E+03  0.60176723072E+03  0.00000000000E+00 0. -1.
         -1   -1    0    0    0  501 -0.00000000000E+00 -0.00000000000E+00 -0.60258360223E+03  0.60258360223E+03  0.00000000000E+00 0.  1.
         23    2    1    2    0    0  0.23018725140E+03  0.94450419322E+02 -0.30267904665E+02  0.26650690416E+03  0.90568932288E+02 0.  0.
        254    2    1    2    0    0 -0.23018725140E+03 -0.94450419322E+02  0.29451533150E+02  0.93784392878E+03  0.90375704120E+03 0.  0.
        -24    2    4    4    0    0  0.11766838705E+03  0.22529872491E+02 -0.36568085111E+03  0.39278080751E+03  0.78745370759E+02 0.  0.
         24    2    4    4    0    0 -0.34785563846E+03 -0.11698029181E+03  0.39513238426E+03  0.54506312127E+03  0.79222920920E+02 0.  0.
         11    1    3    3    0    0  0.22240341487E+03  0.10649195642E+03 -0.17327016852E+02  0.24719231630E+03  0.00000000000E+00 0.  1.
        -11    1    3    3    0    0  0.77838365349E+01 -0.12041537096E+02 -0.12940887813E+02  0.19314587860E+02  0.00000000000E+00 0. -1.
          2    1    6    6  502    0 -0.23236002147E+03 -0.85482267345E+02  0.21028222623E+03  0.32483382256E+03  0.00000000000E+00 0. -1.
          1    1    5    5  503    0  0.45985843060E+01  0.11529926556E-01  0.36516409398E+01  0.58721028697E+01  0.00000000000E+00 0. -1.
         -2    1    5    5    0  503  0.11306980275E+03  0.22518342564E+02 -0.36933249205E+03  0.38690870464E+03  0.00000000000E+00 0.  1.
         -1    1    6    6    0  502 -0.11549561699E+03 -0.31498024468E+02  0.18485015803E+03  0.22022929871E+03  0.00000000000E+00 0.  1.
<mgrwt>
<rscale>  0 0.12043506E+04</rscale>
<asrwt>0</asrwt>
<pdfrwt beam="1">  1        1 0.92579574E-01 0.12043506E+04</pdfrwt>
<pdfrwt beam="2">  1       -1 0.92705170E-01 0.12043506E+04</pdfrwt>
<totfact> 0.38185373E+01</totfact>
</mgrwt>
</event>
<event>
12    1  0.1519630E-007  0.1614111E+04  0.7818608E-02  0.8811925E-01
         -2   -1    0    0    0  501 -0.00000000000E+00  0.00000000000E+00  0.23004249247E+03  0.23004249247E+03  0.00000000000E+00 0.  1.
          2   -1    0    0  501    0  0.00000000000E+00 -0.00000000000E+00 -0.28313850025E+04  0.28313850025E+04  0.00000000000E+00 0. -1.
         23    2    1    2    0    0  0.38571536257E+03  0.34872912504E+02 -0.17363004075E+03  0.43465630535E+03  0.93735008259E+02 0.  0.
        254    2    1    2    0    0 -0.38571536257E+03 -0.34872912504E+02 -0.24277124692E+04  0.26267711896E+04  0.92528189660E+03 0.  0.
        -24    2    4    4    0    0 -0.20289305912E+03 -0.47123530856E+03 -0.11536435340E+04  0.12651866216E+04  0.81089300569E+02 0.  0.
         24    2    4    4    0    0 -0.18282230345E+03  0.43636239605E+03 -0.12740689353E+04  0.13615845679E+04  0.82612035891E+02 0.  0.
         13    1    3    3    0    0  0.31282751669E+03  0.44316782579E+02 -0.17493586182E+03  0.36114759887E+03  0.00000000000E+00 0.  1.
        -13    1    3    3    0    0  0.72887845881E+02 -0.94438700749E+01  0.13058210683E+01  0.73508706476E+02  0.00000000000E+00 0. -1.
          4    1    6    6  502    0 -0.16296773053E+03  0.42762266044E+03 -0.11960990343E+04  0.12806531618E+04  0.00000000000E+00 0. -1.
          3    1    5    5  503    0 -0.20301346347E+03 -0.41048159187E+03 -0.99564098641E+03  0.10959062813E+04  0.00000000000E+00 0. -1.
         -4    1    5    5    0  503  0.12040434308E+00 -0.60753716691E+02 -0.15800254754E+03  0.16928034032E+03  0.00000000000E+00 0.  1.
         -3    1    6    6    0  502 -0.19854572918E+02  0.87397356153E+01 -0.77969901006E+02  0.80931406186E+02  0.00000000000E+00 0.  1.
<mgrwt>
<rscale>  0 0.16141114E+04</rscale>
<asrwt>0</asrwt>
<pdfrwt beam="1">  1        2 0.43559771E+00 0.16141114E+04</pdfrwt>
<pdfrwt beam="2">  1       -2 0.35391151E-01 0.16141114E+04</pdfrwt>
<totfact> 0.15967193E+01</totfact>
</mgrwt>
</event>
<event>
12    1  0.1519630E-007  0.3053651E+04  0.7818608E-02  0.8228574E-01
         -1   -1    0    0    0  501 -0.00000000000E+00  0.00000000000E+00  0.15450361234E+04  0.15450361234E+04  0.00000000000E+00 0.  1.
          1   -1    0    0  501    0  0.00000000000E+00 -0.00000000000E+00 -0.15088292964E+04  0.15088292964E+04  0.00000000000E+00 0. -1.
         23    2    1    2    0    0 -0.16790065271E+03 -0.10082130489E+04  0.98352717954E+03  0.14213501901E+04  0.90699884261E+02 0.  0.
        254    2    1    2    0    0  0.16790065271E+03  0.10082130489E+04 -0.94732035245E+03  0.16325152297E+04  0.85029756192E+03 0.  0.
        -24    2    4    4    0    0  0.72110637963E+02  0.58879310979E+03 -0.10346583996E+02  0.59839275423E+03  0.78035673061E+02 0.  0.
         24    2    4    4    0    0  0.95790014749E+02  0.41941993909E+03 -0.93697376846E+03  0.10341224754E+04  0.80003994896E+02 0.  0.
         11    1    3    3    0    0 -0.73212008128E+02 -0.45303278974E+03  0.50439737378E+03  0.68192038933E+03  0.00000000000E+00 0. -1.
        -11    1    3    3    0    0 -0.94688644584E+02 -0.55518025915E+03  0.47912980576E+03  0.73942980081E+03  0.00000000000E+00 0.  1.
          4    1    6    6  502    0  0.73219184541E+02  0.24677158040E+03 -0.47214344187E+03  0.53775151472E+03  0.00000000000E+00 0. -1.
          3    1    5    5  503    0  0.39227836141E+02  0.12776232249E+03  0.20272500075E+02  0.13517769208E+03  0.00000000000E+00 0. -1.
         -4    1    5    5    0  503  0.32882801822E+02  0.46103078730E+03 -0.30619084071E+02  0.46321506215E+03  0.00000000000E+00 0.  1.
         -3    1    6    6    0  502  0.22570830208E+02  0.17264835869E+03 -0.46483032659E+03  0.49637096073E+03  0.00000000000E+00 0.  1.
<mgrwt>
<rscale>  0 0.30536508E+04</rscale>
<asrwt>0</asrwt>
<pdfrwt beam="1">  1        1 0.23212758E+00 0.30536508E+04</pdfrwt>
<pdfrwt beam="2">  1       -1 0.23769787E+00 0.30536508E+04</pdfrwt>
<totfact> 0.45874991E-01</totfact>
</mgrwt>
</event>
<event>
12    1  0.1519630E-007  0.2584524E+04  0.7818608E-02  0.8373477E-01
          2   -1    0    0  501    0  0.00000000000E+00  0.00000000000E+00  0.13954065178E+04  0.13954065178E+04  0.00000000000E+00 0. -1.
         -2   -1    0    0    0  501 -0.00000000000E+00 -0.00000000000E+00 -0.11967418688E+04  0.11967418688E+04  0.00000000000E+00 0.  1.
         23    2    1    2    0    0 -0.10315670977E+04 -0.42722446756E+03  0.29892827873E+03  0.11597678855E+04  0.95142049565E+02 0.  0.
        254    2    1    2    0    0  0.10315670977E+04  0.42722446756E+03 -0.10026362972E+03  0.14323805011E+04  0.89163315413E+03 0.  0.
        -24    2    4    4    0    0  0.18102350668E+02  0.26998896996E+03 -0.26875063142E+03  0.38988948749E+03  0.81025746291E+02 0.  0.
         24    2    4    4    0    0  0.10134647471E+04  0.15723549760E+03  0.16848700171E+03  0.10424910136E+04  0.81029922706E+02 0.  0.
         13    1    3    3    0    0 -0.35337861901E+03 -0.10499867448E+03  0.12255560060E+03  0.38848557921E+03  0.00000000000E+00 0. -1.
        -13    1    3    3    0    0 -0.67818847873E+03 -0.32222579308E+03  0.17637267812E+03  0.77128230629E+03  0.00000000000E+00 0.  1.
          2    1    6    6  502    0  0.61521613161E+03  0.12225029101E+03  0.13254639354E+03  0.64109638018E+03  0.00000000000E+00 0. -1.
          1    1    5    5  503    0  0.38842978933E+02  0.17234816194E+03 -0.20854301262E+03  0.27331822853E+03  0.00000000000E+00 0. -1.
         -2    1    5    5    0  503 -0.20740628265E+02  0.97640808022E+02 -0.60207618803E+02  0.11657125895E+03  0.00000000000E+00 0.  1.
         -1    1    6    6    0  502  0.39824861546E+03  0.34985206585E+02  0.35940608166E+02  0.40139463339E+03  0.00000000000E+00 0.  1.
<mgrwt>
<rscale>  0 0.25845243E+04</rscale>
<asrwt>0</asrwt>
<pdfrwt beam="1">  1        2 0.21467793E+00 0.25845243E+04</pdfrwt>
<pdfrwt beam="2">  1       -2 0.18411413E+00 0.25845243E+04</pdfrwt>
<totfact> 0.21909893E+00</totfact>
</mgrwt>
</event>
<event>
12    1  0.1519630E-007  0.1377770E+04  0.7818608E-02  0.8970069E-01
          2   -1    0    0  501    0  0.00000000000E+00  0.00000000000E+00  0.30029800823E+03  0.30029800823E+03  0.00000000000E+00 0. -1.
         -2   -1    0    0    0  501 -0.00000000000E+00 -0.00000000000E+00 -0.15803058731E+04  0.15803058731E+04  0.00000000000E+00 0.  1.
         23    2    1    2    0    0 -0.10906087629E+03  0.22276352866E+02 -0.90997687020E+03  0.92127883013E+03  0.91138728882E+02 0.  0.
        254    2    1    2    0    0  0.10906087629E+03 -0.22276352866E+02 -0.37003099465E+03  0.95932505118E+03  0.87806099230E+03 0.  0.
        -24    2    4    4    0    0  0.45901937296E+03 -0.13378907609E+03 -0.95764138730E+02  0.49412282489E+03  0.79926805125E+02 0.  0.
         24    2    4    4    0    0 -0.34995849667E+03  0.11151272322E+03 -0.27426685592E+03  0.46520222629E+03  0.79276517710E+02 0.  0.
         13    1    3    3    0    0 -0.65242598595E+02 -0.14195289819E+02 -0.24732848248E+03  0.25618251535E+03  0.00000000000E+00 0. -1.
        -13    1    3    3    0    0 -0.43818277692E+02  0.36471642684E+02 -0.66264838772E+03  0.66509631478E+03  0.00000000000E+00 0.  1.
          2    1    6    6  502    0 -0.21644113365E+02 -0.44814946243E+00  0.20141313723E+01  0.21742244744E+02  0.00000000000E+00 0. -1.
          3    1    5    5  503    0  0.98618679817E+02  0.40569392630E+01 -0.25088643431E+02  0.10184077177E+03  0.00000000000E+00 0. -1.
         -4    1    5    5    0  503  0.36040069314E+03 -0.13784601535E+03 -0.70675495299E+02  0.39228205312E+03  0.00000000000E+00 0.  1.
         -1    1    6    6    0  502 -0.32831438331E+03  0.11196087268E+03 -0.27628098729E+03  0.44345998155E+03  0.00000000000E+00 0.  1.
<mgrwt>
<rscale>  0 0.13777702E+04</rscale>
<asrwt>0</asrwt>
<pdfrwt beam="1">  1        2 0.46199694E-01 0.13777702E+04</pdfrwt>
<pdfrwt beam="2">  1       -2 0.24312398E+00 0.13777702E+04</pdfrwt>
<totfact> 0.75811080E+00</totfact>
</mgrwt>
</event>
<event>
12    1  0.1519630E-007  0.1477456E+04  0.7818608E-02  0.8899584E-01
          1   -1    0    0  501    0  0.00000000000E+00  0.00000000000E+00  0.23670826127E+03  0.23670826127E+03  0.00000000000E+00 0. -1.
         -1   -1    0    0    0  501 -0.00000000000E+00 -0.00000000000E+00 -0.23054494175E+04  0.23054494175E+04  0.00000000000E+00 0.  1.
         23    2    1    2    0    0 -0.16292954342E+03 -0.32140321218E+03 -0.11172655175E+04  0.11775323793E+04  0.91946760895E+02 0.  0.
        254    2    1    2    0    0  0.16292954342E+03  0.32140321218E+03 -0.95147563877E+03  0.13646252995E+04  0.90942303463E+03 0.  0.
        -24    2    4    4    0    0  0.67453258616E+01  0.24706709539E+03 -0.10950414927E+04  0.11254184999E+04  0.79770170909E+02 0.  0.
         24    2    4    4    0    0  0.15618421756E+03  0.74336116781E+02  0.14356585391E+03  0.23920679959E+03  0.81788571888E+02 0.  0.
         11    1    3    3    0    0 -0.75350777122E+02 -0.24235497527E+03 -0.77602019765E+03  0.81646862818E+03  0.00000000000E+00 0.  1.
        -11    1    3    3    0    0 -0.87578766299E+02 -0.79048236905E+02 -0.34124531986E+03  0.36106375115E+03  0.00000000000E+00 0. -1.
          4    1    6    6  502    0  0.33913849892E+02  0.59045442738E+02  0.52732363862E+02  0.86123258885E+02  0.00000000000E+00 0. -1.
          3    1    5    5  503    0  0.14644408086E+02  0.11691247359E+03 -0.68754637708E+03  0.69756935555E+03  0.00000000000E+00 0. -1.
         -4    1    5    5    0  503 -0.78990822245E+01  0.13015462181E+03 -0.40749511560E+03  0.42784914434E+03  0.00000000000E+00 0.  1.
         -3    1    6    6    0  502  0.12227036767E+03  0.15290674043E+02  0.90833490045E+02  0.15308354071E+03  0.00000000000E+00 0.  1.
<mgrwt>
<rscale>  0 0.14774558E+04</rscale>
<asrwt>0</asrwt>
<pdfrwt beam="1">  1        1 0.36416656E-01 0.14774558E+04</pdfrwt>
<pdfrwt beam="2">  1       -1 0.35468452E+00 0.14774558E+04</pdfrwt>
<totfact> 0.16833149E+00</totfact>
</mgrwt>
</event>
<event>
12    1  0.1519630E-007  0.1421453E+04  0.7818608E-02  0.8938435E-01
         -2   -1    0    0    0  501 -0.00000000000E+00  0.00000000000E+00  0.22857540894E+03  0.22857540894E+03  0.00000000000E+00 0.  1.
          2   -1    0    0  501    0  0.00000000000E+00 -0.00000000000E+00 -0.22099146003E+04  0.22099146003E+04  0.00000000000E+00 0. -1.
         23    2    1    2    0    0  0.11958161179E+03  0.27225349272E+02 -0.12474361574E+04  0.12569575981E+04  0.93832058117E+02 0.  0.
        254    2    1    2    0    0 -0.11958161179E+03 -0.27225349272E+02 -0.73390303391E+03  0.11815324111E+04  0.91780400616E+03 0.  0.
        -24    2    4    4    0    0 -0.10451475812E+03 -0.32705752836E+03  0.32987052625E+02  0.35379065264E+03  0.78674765533E+02 0.  0.
         24    2    4    4    0    0 -0.15066853673E+02  0.29983217909E+03 -0.76689008654E+03  0.82774175844E+03  0.83124413644E+02 0.  0.
         13    1    3    3    0    0  0.24816210646E+02  0.50582713558E+02 -0.50509227800E+03  0.50822501367E+03  0.00000000000E+00 0.  1.
        -13    1    3    3    0    0  0.94765401147E+02 -0.23357364286E+02 -0.74234387943E+03  0.74873258447E+03  0.00000000000E+00 0. -1.
          2    1    6    6  502    0 -0.34569640712E+02  0.69449795734E+02 -0.14850020187E+03  0.16754296208E+03  0.00000000000E+00 0. -1.
          1    1    5    5  503    0  0.88800855007E+01 -0.59184605936E+02 -0.66571593804E+01  0.60216204375E+02  0.00000000000E+00 0. -1.
         -2    1    5    5    0  503 -0.11339484362E+03 -0.26787292242E+03  0.39644212005E+02  0.29357444826E+03  0.00000000000E+00 0.  1.
         -1    1    6    6    0  502  0.19502787039E+02  0.23038238335E+03 -0.61838988467E+03  0.66019879636E+03  0.00000000000E+00 0.  1.
<mgrwt>
<rscale>  0 0.14214530E+04</rscale>
<asrwt>0</asrwt>
<pdfrwt beam="1">  1        2 0.33998686E+00 0.14214530E+04</pdfrwt>
<pdfrwt beam="2">  1       -2 0.35165448E-01 0.14214530E+04</pdfrwt>
<totfact> 0.37667005E+01</totfact>
</mgrwt>
</event>
<event>
12    1  0.1519630E-007  0.1589596E+04  0.7818608E-02  0.8826965E-01
          1   -1    0    0  501    0  0.00000000000E+00  0.00000000000E+00  0.10217137755E+04  0.10217137755E+04  0.00000000000E+00 0. -1.
         -1   -1    0    0    0  501 -0.00000000000E+00 -0.00000000000E+00 -0.61827884208E+03  0.61827884208E+03  0.00000000000E+00 0.  1.
         23    2    1    2    0    0 -0.38874226417E+03  0.35155102426E+03  0.58992357855E+02  0.53699306877E+03  0.10086023507E+03 0.  0.
        254    2    1    2    0    0  0.38874226417E+03 -0.35155102426E+03  0.34444257560E+03  0.11029995488E+04  0.90733601617E+03 0.  0.
        -24    2    4    4    0    0  0.19092681649E+02  0.15938427554E+03  0.42598878569E+03  0.46204933009E+03  0.79090202453E+02 0.  0.
         24    2    4    4    0    0  0.36964958252E+03 -0.51093529979E+03 -0.81546210092E+02  0.64095021874E+03  0.80446902363E+02 0.  0.
         11    1    3    3    0    0 -0.36944196719E+03  0.35648283644E+03  0.52617715865E+02  0.51607751726E+03  0.00000000000E+00 0. -1.
        -11    1    3    3    0    0 -0.19300296977E+02 -0.49318121777E+01  0.63746419900E+01  0.20915551517E+02  0.00000000000E+00 0.  1.
          2    1    6    6  502    0  0.17625794943E+03 -0.19309015532E+03 -0.72011643008E+01  0.26153877262E+03  0.00000000000E+00 0. -1.
          3    1    5    5  503    0 -0.28852755468E+02  0.67080066902E+02  0.14330798897E+03  0.16083966108E+03  0.00000000000E+00 0. -1.
         -4    1    5    5    0  503  0.47945437117E+02  0.92304208633E+02  0.28268079673E+03  0.30120966902E+03  0.00000000000E+00 0.  1.
         -1    1    6    6    0  502  0.19339163308E+03 -0.31784514448E+03 -0.74345045791E+02  0.37941144612E+03  0.00000000000E+00 0.  1.
<mgrwt>
<rscale>  0 0.15895962E+04</rscale>
<asrwt>0</asrwt>
<pdfrwt beam="1">  1        1 0.15718673E+00 0.15895962E+04</pdfrwt>
<pdfrwt beam="2">  1       -1 0.95119822E-01 0.15895962E+04</pdfrwt>
<totfact> 0.14925527E+01</totfact>
</mgrwt>
</event>
<event>
12    1  0.1519630E-007  0.4079887E+04  0.7818608E-02  0.7988622E-01
          2   -1    0    0  501    0  0.00000000000E+00  0.00000000000E+00  0.19053731253E+04  0.19053731253E+04  0.00000000000E+00 0. -1.
         -2   -1    0    0    0  501 -0.00000000000E+00 -0.00000000000E+00 -0.21840181345E+04  0.21840181345E+04  0.00000000000E+00 0.  1.
         23    2    1    2    0    0  0.14377062566E+03 -0.10983001861E+04 -0.17299113904E+04  0.20559796921E+04  0.86751275862E+02 0.  0.
        254    2    1    2    0    0 -0.14377062566E+03  0.10983001861E+04  0.14512663812E+04  0.20334115676E+04  0.89535199925E+03 0.  0.
        -24    2    4    4    0    0 -0.77787750637E+02  0.98242823510E+03  0.15576920183E+04  0.18448806612E+04  0.77227320341E+02 0.  0.
         24    2    4    4    0    0 -0.65982875023E+02  0.11587195102E+03 -0.10642563709E+03  0.18853090643E+03  0.80233643932E+02 0.  0.
         13    1    3    3    0    0  0.40872695395E+02 -0.19393492304E+03 -0.25735027666E+03  0.32482379300E+03  0.00000000000E+00 0. -1.
        -13    1    3    3    0    0  0.10289793026E+03 -0.90436526309E+03 -0.14725611138E+04  0.17311558991E+04  0.00000000000E+00 0.  1.
          2    1    6    6  502    0 -0.47610726596E+02  0.12373736535E+03 -0.10378594087E+03  0.16837232075E+03  0.00000000000E+00 0. -1.
          1    1    5    5  503    0 -0.84952085955E+02  0.63607250285E+03  0.10356284890E+04  0.12183314217E+04  0.00000000000E+00 0. -1.
         -2    1    5    5    0  503  0.71643353185E+01  0.34635573226E+03  0.52206352926E+03  0.62654923953E+03  0.00000000000E+00 0.  1.
         -1    1    6    6    0  502 -0.18372148427E+02 -0.78654143311E+01 -0.26396962152E+01  0.20158585678E+02  0.00000000000E+00 0.  1.
<mgrwt>
<rscale>  0 0.40798870E+04</rscale>
<asrwt>0</asrwt>
<pdfrwt beam="1">  1        2 0.29313433E+00 0.40798870E+04</pdfrwt>
<pdfrwt beam="2">  1       -2 0.33600279E+00 0.40798870E+04</pdfrwt>
<totfact> 0.11256804E-01</totfact>
</mgrwt>
</event>
<event>
12    1  0.1519630E-007  0.2540285E+04  0.7818608E-02  0.8388773E-01
         -2   -1    0    0    0  501 -0.00000000000E+00  0.00000000000E+00  0.17633214622E+04  0.17633214622E+04  0.00000000000E+00 0.  1.
          2   -1    0    0  501    0  0.00000000000E+00 -0.00000000000E+00 -0.91489956907E+03  0.91489956907E+03  0.00000000000E+00 0. -1.
         23    2    1    2    0    0  0.50574006011E+02 -0.97914512757E+03  0.90434607951E+03  0.13370555426E+04  0.92697257089E+02 0.  0.
        254    2    1    2    0    0 -0.50574006011E+02  0.97914512757E+03 -0.55924186362E+02  0.13411654887E+04  0.91340814676E+03 0.  0.
        -24    2    4    4    0    0 -0.32852338526E+03  0.38119328074E+03 -0.34715343674E+03  0.61623038151E+03  0.77385027700E+02 0.  0.
         24    2    4    4    0    0  0.27794937925E+03  0.59795184683E+03  0.29122925038E+03  0.72493510721E+03  0.76903607419E+02 0.  0.
         13    1    3    3    0    0  0.40888459818E+02 -0.32921413674E+03  0.25653984629E+03  0.41936440802E+03  0.00000000000E+00 0. -1.
        -13    1    3    3    0    0  0.96855461933E+01 -0.64993099083E+03  0.64780623322E+03  0.91769113456E+03  0.00000000000E+00 0.  1.
          4    1    6    6  502    0  0.84029457193E+02  0.21412257611E+03  0.13896834136E+03  0.26874081785E+03  0.00000000000E+00 0. -1.
          1    1    5    5  503    0 -0.30215180404E+03  0.34273297511E+03 -0.28491263787E+03  0.53845781277E+03  0.00000000000E+00 0. -1.
         -2    1    5    5    0  503 -0.26371581222E+02  0.38460305634E+02 -0.62240798867E+02  0.77772568745E+02  0.00000000000E+00 0.  1.
         -3    1    6    6    0  502  0.19391992205E+03  0.38382927072E+03  0.15226090902E+03  0.45619428936E+03  0.00000000000E+00 0.  1.
<mgrwt>
<rscale>  0 0.25402851E+04</rscale>
<asrwt>0</asrwt>
<pdfrwt beam="1">  1        2 0.14075378E+00 0.25402851E+04</pdfrwt>
<pdfrwt beam="2">  1       -2 0.27128022E+00 0.25402851E+04</pdfrwt>
<totfact> 0.12122971E+00</totfact>
</mgrwt>
</event>
<event>
12    1  0.1519630E-007  0.2935195E+04  0.7818608E-02  0.8262482E-01
          2   -1    0    0  501    0  0.00000000000E+00  0.00000000000E+00  0.31861580339E+04  0.31861580339E+04  0.00000000000E+00 0. -1.
         -2   -1    0    0    0  501 -0.00000000000E+00 -0.00000000000E+00 -0.67600003539E+03  0.67600003539E+03  0.00000000000E+00 0.  1.
         23    2    1    2    0    0  0.91182683762E+02 -0.12183240965E+04  0.18219378443E+04  0.21954331669E+04  0.88551656996E+02 0.  0.
        254    2    1    2    0    0 -0.91182683762E+02  0.12183240965E+04  0.68822015415E+03  0.16667249023E+04  0.90094230299E+03 0.  0.
        -24    2    4    4    0    0 -0.37757178650E+03  0.42813345700E+03 -0.26102194744E+01  0.57582157454E+03  0.75531195477E+02 0.  0.
         24    2    4    4    0    0  0.28638910274E+03  0.79019063954E+03  0.69083037363E+03  0.10909033278E+04  0.80021874532E+02 0.  0.
         13    1    3    3    0    0  0.35785353427E+02 -0.21542776942E+03  0.27776983781E+03  0.35333524896E+03  0.00000000000E+00 0.  1.
        -13    1    3    3    0    0  0.55397330335E+02 -0.10028963271E+04  0.15441680065E+04  0.18420979180E+04  0.00000000000E+00 0. -1.
          4    1    6    6  502    0  0.24676655568E+03  0.73535787716E+03  0.62042145585E+03  0.99326115568E+03  0.00000000000E+00 0. -1.
          1    1    5    5  503    0 -0.11951116133E+03  0.10944643637E+03  0.28633017872E+02  0.16456393842E+03  0.00000000000E+00 0. -1.
         -2    1    5    5    0  503 -0.25806062518E+03  0.31868702063E+03 -0.31243237346E+02  0.41125763612E+03  0.00000000000E+00 0.  1.
         -3    1    6    6    0  502  0.39622547057E+02  0.54832762379E+02  0.70408917775E+02  0.97642172076E+02  0.00000000000E+00 0.  1.
<mgrwt>
<rscale>  0 0.29351954E+04</rscale>
<asrwt>0</asrwt>
<pdfrwt beam="1">  1        2 0.49017815E+00 0.29351954E+04</pdfrwt>
<pdfrwt beam="2">  1       -2 0.10400001E+00 0.29351954E+04</pdfrwt>
<totfact> 0.85648931E-01</totfact>
</mgrwt>
</event>
<event>
12    1  0.1519630E-007  0.2322602E+04  0.7818608E-02  0.8469062E-01
         -1   -1    0    0    0  501 -0.00000000000E+00  0.00000000000E+00  0.10154058256E+04  0.10154058256E+04  0.00000000000E+00 0.  1.
          1   -1    0    0  501    0  0.00000000000E+00 -0.00000000000E+00 -0.13281589811E+04  0.13281589811E+04  0.00000000000E+00 0. -1.
         23    2    1    2    0    0  0.22026973936E+02 -0.46682302325E+03  0.74284655808E+03  0.88288627055E+03  0.96219723842E+02 0.  0.
        254    2    1    2    0    0 -0.22026973936E+02  0.46682302325E+03 -0.10555997136E+04  0.14606785361E+04  0.89492016840E+03 0.  0.
        -24    2    4    4    0    0 -0.30889340750E+03 -0.12782363335E+03 -0.33057029893E+03  0.47697707430E+03  0.80476011537E+02 0.  0.
         24    2    4    4    0    0  0.28686643357E+03  0.59464665660E+03 -0.72502941465E+03  0.98370146176E+03  0.78127567851E+02 0.  0.
         13    1    3    3    0    0 -0.27322751416E+01 -0.38984073160E+03  0.55367332159E+03  0.67715390302E+03  0.00000000000E+00 0.  1.
        -13    1    3    3    0    0  0.24759249078E+02 -0.76982291648E+02  0.18917323650E+03  0.20573236753E+03  0.00000000000E+00 0. -1.
          2    1    6    6  502    0  0.23604629409E+03  0.53784498717E+03 -0.65998993566E+03  0.88350540369E+03  0.00000000000E+00 0. -1.
          3    1    5    5  503    0 -0.13578030927E+03 -0.91013066859E+02 -0.12541310267E+03  0.20602940821E+03  0.00000000000E+00 0. -1.
         -4    1    5    5    0  503 -0.17311309823E+03 -0.36810566494E+02 -0.20515719626E+03  0.27094766609E+03  0.00000000000E+00 0.  1.
         -1    1    6    6    0  502  0.50820139474E+02  0.56801669436E+02 -0.65039478983E+02  0.10019605807E+03  0.00000000000E+00 0.  1.
<mgrwt>
<rscale>  0 0.23226023E+04</rscale>
<asrwt>0</asrwt>
<pdfrwt beam="1">  1        1 0.20433215E+00 0.23226023E+04</pdfrwt>
<pdfrwt beam="2">  1       -1 0.15621628E+00 0.23226023E+04</pdfrwt>
<totfact> 0.24335974E+00</totfact>
</mgrwt>
</event>
<event>
12    1  0.1519630E-007  0.1618996E+04  0.7818608E-02  0.8808962E-01
          2   -1    0    0  501    0  0.00000000000E+00  0.00000000000E+00  0.12043985046E+04  0.12043985046E+04  0.00000000000E+00 0. -1.
         -2   -1    0    0    0  501 -0.00000000000E+00 -0.00000000000E+00 -0.54407832840E+03  0.54407832840E+03  0.00000000000E+00 0.  1.
         23    2    1    2    0    0  0.20426851888E+03  0.43301123024E+03  0.52742441206E+03  0.71967552823E+03  0.10262554349E+03 0.  0.
        254    2    1    2    0    0 -0.20426851888E+03 -0.43301123024E+03  0.13289576416E+03  0.10288013048E+04  0.90085874991E+03 0.  0.
        -24    2    4    4    0    0  0.39579568300E+02 -0.57167075130E+03 -0.17504333109E+03  0.60465794431E+03  0.81222359843E+02 0.  0.
         24    2    4    4    0    0 -0.24384808718E+03  0.13865952106E+03  0.30793909525E+03  0.42414336048E+03  0.79892123860E+02 0.  0.
         13    1    3    3    0    0  0.16900470588E+03  0.26590847599E+03  0.38354729714E+03  0.49636522577E+03  0.00000000000E+00 0. -1.
        -13    1    3    3    0    0  0.35263812995E+02  0.16710275425E+03  0.14387711492E+03  0.22331030246E+03  0.00000000000E+00 0.  1.
          2    1    6    6  502    0 -0.24934961511E+03  0.13843596569E+03  0.30601198079E+03  0.41830978896E+03  0.00000000000E+00 0. -1.
          1    1    5    5  503    0  0.30663413313E+02 -0.54659616581E+03 -0.18240906629E+03  0.57704478237E+03  0.00000000000E+00 0. -1.
         -2    1    5    5    0  503  0.89161549870E+01 -0.25074585484E+02  0.73657352016E+01  0.27613161934E+02  0.00000000000E+00 0.  1.
         -1    1    6    6    0  502  0.55015279305E+01  0.22355536506E+00  0.19271144676E+01  0.58335715255E+01  0.00000000000E+00 0.  1.
<mgrwt>
<rscale>  0 0.16189961E+04</rscale>
<asrwt>0</asrwt>
<pdfrwt beam="1">  1        2 0.18529208E+00 0.16189961E+04</pdfrwt>
<pdfrwt beam="2">  1       -2 0.83704358E-01 0.16189961E+04</pdfrwt>
<totfact> 0.22496764E+01</totfact>
</mgrwt>
</event>
<event>
12    1  0.1636077E-007  0.1415029E+04  0.7818608E-02  0.8943011E-01
          1   -1    0    0  501    0  0.00000000000E+00  0.00000000000E+00  0.81673701515E+03  0.81673701515E+03  0.00000000000E+00 0. -1.
         -1   -1    0    0    0  501 -0.00000000000E+00 -0.00000000000E+00 -0.61289846288E+03  0.61289846288E+03  0.00000000000E+00 0.  1.
         23    2    1    2    0    0  0.39962253895E+03  0.17517515311E+02 -0.44190255934E+02  0.41272970133E+03  0.91585974162E+02 0.  0.
        254    2    1    2    0    0 -0.39962253895E+03 -0.17517515311E+02  0.24802880821E+03  0.10169057767E+04  0.90142888350E+03 0.  0.
        -24    2    4    4    0    0 -0.57841656894E+03 -0.14831843352E+03  0.41230391753E+03  0.72999228825E+03  0.79562148929E+02 0.  0.
         24    2    4    4    0    0  0.17879402999E+03  0.13080091821E+03 -0.16427510932E+03  0.28691348845E+03  0.79100271458E+02 0.  0.
         13    1    3    3    0    0  0.36529285104E+03  0.28892901912E+02 -0.15838359628E+02  0.36677584495E+03  0.00000000000E+00 0. -1.
        -13    1    3    3    0    0  0.34329687902E+02 -0.11375386601E+02 -0.28351896305E+02  0.45953856377E+02  0.00000000000E+00 0.  1.
          4    1    6    6  502    0 -0.28150526159E+01  0.17728507246E+02 -0.28012820183E+02  0.33270746686E+02  0.00000000000E+00 0. -1.
          3    1    5    5  503    0 -0.20969088660E+02 -0.13633051868E+02  0.36840536415E+02  0.44528506664E+02  0.00000000000E+00 0. -1.
         -4    1    5    5    0  503 -0.55744748028E+03 -0.13468538166E+03  0.37546338112E+03  0.68546378158E+03  0.00000000000E+00 0.  1.
         -3    1    6    6    0  502  0.18160908261E+03  0.11307241097E+03 -0.13626228914E+03  0.25364274176E+03  0.00000000000E+00 0.  1.
<mgrwt>
<rscale>  0 0.14150291E+04</rscale>
<asrwt>0</asrwt>
<pdfrwt beam="1">  1        1 0.12565185E+00 0.14150291E+04</pdfrwt>
<pdfrwt beam="2">  1       -1 0.94292071E-01 0.14150291E+04</pdfrwt>
<totfact> 0.22684425E+01</totfact>
</mgrwt>
</event>
<event>
12    1  0.1519630E-007  0.1725422E+04  0.7818608E-02  0.8746997E-01
          2   -1    0    0  501    0  0.00000000000E+00  0.00000000000E+00  0.14854135481E+04  0.14854135481E+04  0.00000000000E+00 0. -1.
         -2   -1    0    0    0  501 -0.00000000000E+00 -0.00000000000E+00 -0.50105255022E+03  0.50105255022E+03  0.00000000000E+00 0.  1.
         23    2    1    2    0    0 -0.35804201023E+03 -0.12817922459E+03 -0.21189410558E+03  0.44541938679E+03  0.94208935035E+02 0.  0.
        254    2    1    2    0    0  0.35804201023E+03  0.12817922459E+03  0.11962551035E+04  0.15410467115E+04  0.89396571514E+03 0.  0.
        -24    2    4    4    0    0 -0.29466138393E+03  0.42770873585E+02  0.41276582738E+03  0.51462141491E+03  0.76189852527E+02 0.  0.
         24    2    4    4    0    0  0.65270339416E+03  0.85408351001E+02  0.78348927609E+03  0.10264252966E+04  0.79856975988E+02 0.  0.
         13    1    3    3    0    0 -0.33640097821E+03 -0.11640383773E+03 -0.22118081198E+03  0.41908999411E+03  0.00000000000E+00 0.  1.
        -13    1    3    3    0    0 -0.21641032024E+02 -0.11775386852E+02  0.92867064046E+01  0.26329392671E+02  0.00000000000E+00 0. -1.
          4    1    6    6  502    0  0.38845192643E+03  0.65728192547E+02  0.52362012398E+03  0.65528095400E+03  0.00000000000E+00 0. -1.
          3    1    5    5  503    0 -0.24107124584E+03  0.54107771527E+01  0.34008770837E+03  0.41689839465E+03  0.00000000000E+00 0. -1.
         -4    1    5    5    0  503 -0.53590138092E+02  0.37360096432E+02  0.72678119009E+02  0.97723020260E+02  0.00000000000E+00 0.  1.
         -3    1    6    6    0  502  0.26425146773E+03  0.19680158454E+02  0.25986915211E+03  0.37114434261E+03  0.00000000000E+00 0.  1.
<mgrwt>
<rscale>  0 0.17254220E+04</rscale>
<asrwt>0</asrwt>
<pdfrwt beam="1">  1        2 0.22852516E+00 0.17254220E+04</pdfrwt>
<pdfrwt beam="2">  1       -2 0.77085008E-01 0.17254220E+04</pdfrwt>
<totfact> 0.18456258E+01</totfact>
</mgrwt>
</event>
<event>
12    1  0.1519630E-007  0.1589946E+04  0.7818608E-02  0.8826749E-01
          1   -1    0    0  501    0  0.00000000000E+00  0.00000000000E+00  0.21939957871E+04  0.21939957871E+04  0.00000000000E+00 0. -1.
         -1   -1    0    0    0  501 -0.00000000000E+00 -0.00000000000E+00 -0.28805068679E+03  0.28805068679E+03  0.00000000000E+00 0.  1.
         23    2    1    2    0    0 -0.37484347988E+03 -0.80986059864E+02  0.11971685897E+04  0.12603896497E+04  0.91121131426E+02 0.  0.
        254    2    1    2    0    0  0.37484347988E+03  0.80986059864E+02  0.70877651055E+03  0.12216568241E+04  0.91815841648E+03 0.  0.
        -24    2    4    4    0    0 -0.25282747438E+02 -0.37255285550E+03  0.32209204877E+03  0.49944984375E+03  0.79196029424E+02 0.  0.
         24    2    4    4    0    0  0.40012622732E+03  0.45353891537E+03  0.38668446178E+03  0.72220698039E+03  0.79117027270E+02 0.  0.
         13    1    3    3    0    0 -0.27130723750E+03 -0.45136018933E+02  0.71852024396E+03  0.76936091550E+03  0.00000000000E+00 0.  1.
        -13    1    3    3    0    0 -0.10353624238E+03 -0.35850040931E+02  0.47864834575E+03  0.49102873420E+03  0.00000000000E+00 0. -1.
          4    1    6    6  502    0  0.28181436666E+03  0.32785726073E+03  0.23312771216E+03  0.49118046668E+03  0.00000000000E+00 0. -1.
          1    1    5    5  503    0 -0.29647755196E+02 -0.22261082005E+03  0.14479183668E+03  0.26720636700E+03  0.00000000000E+00 0. -1.
         -2    1    5    5    0  503  0.43650077578E+01 -0.14994203545E+03  0.17730021209E+03  0.23224347675E+03  0.00000000000E+00 0.  1.
         -3    1    6    6    0  502  0.11831186066E+03  0.12568165463E+03  0.15355674962E+03  0.23102651371E+03  0.00000000000E+00 0.  1.
<mgrwt>
<rscale>  0 0.15899459E+04</rscale>
<asrwt>0</asrwt>
<pdfrwt beam="1">  1        1 0.33753780E+00 0.15899459E+04</pdfrwt>
<pdfrwt beam="2">  1       -1 0.44315492E-01 0.15899459E+04</pdfrwt>
<totfact> 0.10653340E+01</totfact>
</mgrwt>
</event>
<event>
12    1  0.1519630E-007  0.1132261E+04  0.7818608E-02  0.9174306E-01
         -2   -1    0    0    0  501 -0.00000000000E+00  0.00000000000E+00  0.14141645102E+03  0.14141645102E+03  0.00000000000E+00 0.  1.
          2   -1    0    0  501    0  0.00000000000E+00 -0.00000000000E+00 -0.22663819854E+04  0.22663819854E+04  0.00000000000E+00 0. -1.
         23    2    1    2    0    0 -0.10569637061E+02  0.49651426013E+02 -0.17178521376E+01  0.10565601825E+03  0.92645894911E+02 0.  0.
        254    2    1    2    0    0  0.10569637061E+02 -0.49651426013E+02 -0.21232476822E+04  0.23021424181E+04  0.88831414038E+03 0.  0.
        -24    2    4    4    0    0  0.26853013423E+01 -0.27101363848E+03 -0.15818832565E+03  0.32308700131E+03  0.76850900804E+02 0.  0.
         24    2    4    4    0    0  0.78843357185E+01  0.22136221247E+03 -0.19650593566E+04  0.19790554168E+04  0.78349704523E+02 0.  0.
         11    1    3    3    0    0 -0.30892824900E+02  0.52019898663E+02  0.30295384572E+02  0.67662743172E+02  0.00000000000E+00 0.  1.
        -11    1    3    3    0    0  0.20323187839E+02 -0.23684726498E+01 -0.32013236709E+02  0.37993275079E+02  0.00000000000E+00 0. -1.
          4    1    6    6  502    0 -0.22532154953E+02  0.12215364556E+03 -0.82717052739E+03  0.83644503257E+03  0.00000000000E+00 0. -1.
          3    1    5    5  503    0  0.34016868051E+02 -0.66487078291E+02 -0.37897388553E+02  0.83748975820E+02  0.00000000000E+00 0. -1.
         -4    1    5    5    0  503 -0.31331566709E+02 -0.20452656019E+03 -0.12029093710E+03  0.23933802549E+03  0.00000000000E+00 0.  1.
         -3    1    6    6    0  502  0.30416490671E+02  0.99208566906E+02 -0.11378888292E+04  0.11426103842E+04  0.00000000000E+00 0.  1.
<mgrwt>
<rscale>  0 0.11322609E+04</rscale>
<asrwt>0</asrwt>
<pdfrwt beam="1">  1        2 0.34867416E+00 0.11322609E+04</pdfrwt>
<pdfrwt beam="2">  1       -2 0.21756376E-01 0.11322609E+04</pdfrwt>
<totfact> 0.86856144E+01</totfact>
</mgrwt>
</event>
<event>
12    1  0.1519630E-007  0.1131605E+04  0.7818608E-02  0.9174923E-01
         -1   -1    0    0    0  501 -0.00000000000E+00  0.00000000000E+00  0.34767822311E+03  0.34767822311E+03  0.00000000000E+00 0.  1.
          1   -1    0    0  501    0  0.00000000000E+00 -0.00000000000E+00 -0.92077221031E+03  0.92077221031E+03  0.00000000000E+00 0. -1.
         23    2    1    2    0    0  0.90138180197E+02 -0.67877327781E+02  0.69138352003E+02  0.16059692923E+03  0.90989223562E+02 0.  0.
        254    2    1    2    0    0 -0.90138180197E+02  0.67877327781E+02 -0.64223233921E+03  0.11078535042E+04  0.89562536033E+03 0.  0.
        -24    2    4    4    0    0  0.31572229665E+03 -0.10793757798E+02  0.16414053864E+02  0.32603463504E+03  0.78943576492E+02 0.  0.
         24    2    4    4    0    0 -0.40586047685E+03  0.78671085579E+02 -0.65864639307E+03  0.78181886915E+03  0.80708157434E+02 0.  0.
         13    1    3    3    0    0 -0.81050123533E+01  0.14343724039E+02  0.43663690989E+01  0.17044026040E+02  0.00000000000E+00 0. -1.
        -13    1    3    3    0    0  0.98243192551E+02 -0.82221051820E+02  0.64771982904E+02  0.14355290319E+03  0.00000000000E+00 0.  1.
          2    1    6    6  502    0 -0.38337293550E+03  0.63443094026E+02 -0.64048751886E+03  0.74914891422E+03  0.00000000000E+00 0. -1.
          3    1    5    5  503    0  0.27487076816E+03 -0.34436415767E+02  0.32698937928E+01  0.27703880257E+03  0.00000000000E+00 0. -1.
         -4    1    5    5    0  503  0.40851528491E+02  0.23642657969E+02  0.13144160071E+02  0.48995832475E+02  0.00000000000E+00 0.  1.
         -1    1    6    6    0  502 -0.22487541355E+02  0.15227991553E+02 -0.18158874210E+02  0.32669954936E+02  0.00000000000E+00 0.  1.
<mgrwt>
<rscale>  0 0.11316050E+04</rscale>
<asrwt>0</asrwt>
<pdfrwt beam="1">  1        1 0.14165726E+00 0.11316050E+04</pdfrwt>
<pdfrwt beam="2">  1       -1 0.53488958E-01 0.11316050E+04</pdfrwt>
<totfact> 0.61353102E+01</totfact>
</mgrwt>
</event>
<event>
12    1  0.1519630E-007  0.3393717E+04  0.7818608E-02  0.8139450E-01
          2   -1    0    0  501    0  0.00000000000E+00  0.00000000000E+00  0.12536168708E+04  0.12536168708E+04  0.00000000000E+00 0.  1.
         -2   -1    0    0    0  501 -0.00000000000E+00 -0.00000000000E+00 -0.22968170315E+04  0.22968170315E+04  0.00000000000E+00 0. -1.
         23    2    1    2    0    0  0.19180342995E+03  0.10689760487E+04 -0.16849268070E+04  0.20068253697E+04  0.94187956665E+02 0.  0.
        254    2    1    2    0    0 -0.19180342995E+03 -0.10689760487E+04  0.64172664632E+03  0.15436085326E+04  0.88961557145E+03 0.  0.
        -24    2    4    4    0    0  0.13463349354E+03  0.42692060917E+02  0.28775845136E+03  0.32933000236E+03  0.75528368699E+02 0.  0.
         24    2    4    4    0    0 -0.32643692349E+03 -0.11116681096E+04  0.35396819496E+03  0.12142785302E+04  0.82533720910E+02 0.  0.
         11    1    3    3    0    0  0.10304551064E+03  0.71962973149E+03 -0.10584422751E+04  0.12840503796E+04  0.00000000000E+00 0.  1.
        -11    1    3    3    0    0  0.88757919315E+02  0.34934631717E+03 -0.62648453195E+03  0.72277499011E+03  0.00000000000E+00 0. -1.
          2    1    6    6  502    0 -0.31594561737E+02 -0.76266582083E+02  0.55501279278E+01  0.82738212417E+02  0.00000000000E+00 0. -1.
          3    1    5    5  503    0  0.97852306628E+00  0.24980247754E+02  0.53282949798E+02  0.58856121384E+02  0.00000000000E+00 0. -1.
         -4    1    5    5    0  503  0.13365497048E+03  0.17711813162E+02  0.23447550156E+03  0.27047388098E+03  0.00000000000E+00 0.  1.
         -1    1    6    6    0  502 -0.29484236176E+03 -0.10354015275E+04  0.34841806703E+03  0.11315403178E+04  0.00000000000E+00 0.  1.
<mgrwt>
<rscale>  0 0.33937169E+04</rscale>
<asrwt>0</asrwt>
<pdfrwt beam="1">  1        2 0.19286414E+00 0.33937169E+04</pdfrwt>
<pdfrwt beam="2">  1       -2 0.35335646E+00 0.33937169E+04</pdfrwt>
<totfact> 0.21606261E-01</totfact>
</mgrwt>
</event>
<event>
12    1  0.1519630E-007  0.2557954E+04  0.7818608E-02  0.8382625E-01
          2   -1    0    0  501    0  0.00000000000E+00  0.00000000000E+00  0.27467962320E+04  0.27467962320E+04  0.00000000000E+00 0. -1.
         -2   -1    0    0    0  501 -0.00000000000E+00 -0.00000000000E+00 -0.59552367827E+03  0.59552367827E+03  0.00000000000E+00 0.  1.
         23    2    1    2    0    0 -0.22589795080E+03  0.10878895468E+04  0.11537538021E+04  0.16042782343E+04  0.89595015694E+02 0.  0.
        254    2    1    2    0    0  0.22589795080E+03 -0.10878895468E+04  0.99751875166E+03  0.17380416760E+04  0.88950079118E+03 0.  0.
        -24    2    4    4    0    0  0.55961848807E+03 -0.58630263571E+03  0.54809985997E+03  0.98210438613E+03  0.84805282455E+02 0.  0.
         24    2    4    4    0    0 -0.33372053727E+03 -0.50158691109E+03  0.44941889169E+03  0.75593728990E+03  0.80653702250E+02 0.  0.
         13    1    3    3    0    0 -0.80421774482E+02  0.23785491197E+03  0.22941198239E+03  0.34010656951E+03  0.00000000000E+00 0.  1.
        -13    1    3    3    0    0 -0.14547617632E+03  0.85003463484E+03  0.92434181972E+03  0.12641716648E+04  0.00000000000E+00 0. -1.
          4    1    6    6  502    0 -0.16052964865E+03 -0.26451687071E+03  0.27802376173E+03  0.41597614724E+03  0.00000000000E+00 0. -1.
          3    1    5    5  503    0  0.53406094731E+03 -0.56988723849E+03  0.50759262458E+03  0.93147347389E+03  0.00000000000E+00 0. -1.
         -4    1    5    5    0  503  0.25557540760E+02 -0.16415397221E+02  0.40507235386E+02  0.50630912240E+02  0.00000000000E+00 0.  1.
         -3    1    6    6    0  502 -0.17319088862E+03 -0.23707004038E+03  0.17139512995E+03  0.33996114266E+03  0.00000000000E+00 0.  1.
<mgrwt>
<rscale>  0 0.25579540E+04</rscale>
<asrwt>0</asrwt>
<pdfrwt beam="1">  1        2 0.42258403E+00 0.25579540E+04</pdfrwt>
<pdfrwt beam="2">  1       -2 0.91619029E-01 0.25579540E+04</pdfrwt>
<totfact> 0.22407173E+00</totfact>
</mgrwt>
</event>
<event>
12    1  0.1519630E-007  0.3056349E+04  0.7818608E-02  0.8227821E-01
         -2   -1    0    0    0  501 -0.00000000000E+00  0.00000000000E+00  0.72313941832E+03  0.72313941832E+03  0.00000000000E+00 0.  1.
          2   -1    0    0  501    0  0.00000000000E+00 -0.00000000000E+00 -0.32294142675E+04  0.32294142675E+04  0.00000000000E+00 0. -1.
         23    2    1    2    0    0 -0.66582639918E+03  0.10491513731E+04 -0.32750855360E+03  0.12882420182E+04  0.90896903645E+02 0.  0.
        254    2    1    2    0    0  0.66582639918E+03 -0.10491513731E+04 -0.21787662956E+04  0.26643116677E+04  0.89860485981E+03 0.  0.
        -24    2    4    4    0    0  0.67999158295E+03 -0.81798582139E+03 -0.21709100988E+04  0.24188334824E+04  0.80096204873E+02 0.  0.
         24    2    4    4    0    0 -0.14165183761E+02 -0.23116555174E+03 -0.78561968273E+01  0.24547818522E+03  0.80991696167E+02 0.  0.
         13    1    3    3    0    0 -0.61947389675E+03  0.94169133921E+03 -0.27661058201E+03  0.11606222043E+04  0.00000000000E+00 0. -1.
        -13    1    3    3    0    0 -0.46352502433E+02  0.10746003392E+03 -0.50897971585E+02  0.12761981383E+03  0.00000000000E+00 0.  1.
          4    1    6    6  502    0  0.15145852701E+02 -0.37341693540E+01 -0.41244942365E+01  0.16135437010E+02  0.00000000000E+00 0. -1.
          3    1    5    5  503    0  0.85098521667E+02 -0.12985338962E+03 -0.26890366723E+03  0.31050417619E+03  0.00000000000E+00 0. -1.
         -4    1    5    5    0  503  0.59489306128E+03 -0.68813243177E+03 -0.19020064315E+04  0.21083293062E+04  0.00000000000E+00 0.  1.
         -3    1    6    6    0  502 -0.29311036462E+02 -0.22743138238E+03 -0.37317025908E+01  0.22934274821E+03  0.00000000000E+00 0.  1.
<mgrwt>
<rscale>  0 0.30563486E+04</rscale>
<asrwt>0</asrwt>
<pdfrwt beam="1">  1        2 0.49683297E+00 0.30563486E+04</pdfrwt>
<pdfrwt beam="2">  1       -2 0.11125222E+00 0.30563486E+04</pdfrwt>
<totfact> 0.67508306E-01</totfact>
</mgrwt>
</event>
<event>
12    1  0.1519630E-007  0.2206500E+04  0.7818608E-02  0.8515728E-01
          2   -1    0    0  501    0  0.00000000000E+00  0.00000000000E+00  0.26778917061E+04  0.26778917061E+04  0.00000000000E+00 0.  1.
         -2   -1    0    0    0  501 -0.00000000000E+00 -0.00000000000E+00 -0.45452198039E+03  0.45452198039E+03  0.00000000000E+00 0. -1.
         23    2    1    2    0    0 -0.25121402374E+03  0.41244588834E+03 -0.15807836866E+03  0.51643877201E+03  0.92196193330E+02 0.  0.
        254    2    1    2    0    0  0.25121402374E+03 -0.41244588834E+03  0.23814480943E+04  0.26159749144E+04  0.96892189079E+03 0.  0.
        -24    2    4    4    0    0  0.41369169221E+03 -0.43807147922E+03  0.71185825299E+03  0.93620001491E+03  0.81736518477E+02 0.  0.
         24    2    4    4    0    0 -0.16247766847E+03  0.25625590879E+02  0.16695898413E+04  0.16797748995E+04  0.84010779824E+02 0.  0.
         13    1    3    3    0    0 -0.15221477454E+03  0.16821028380E+03 -0.54760239236E+02  0.23337249402E+03  0.00000000000E+00 0. -1.
        -13    1    3    3    0    0 -0.98999249199E+02  0.24423560454E+03 -0.10331812942E+03  0.28306627799E+03  0.00000000000E+00 0.  1.
          2    1    6    6  502    0 -0.62838903160E+02 -0.30989053462E+02  0.64917842978E+03  0.65294845346E+03  0.00000000000E+00 0. -1.
          3    1    5    5  503    0  0.13748736899E+02 -0.45872668770E+02  0.57412467236E+02  0.74763098521E+02  0.00000000000E+00 0. -1.
         -4    1    5    5    0  503  0.39994295531E+03 -0.39219881045E+03  0.65444578576E+03  0.86143691639E+03  0.00000000000E+00 0.  1.
         -1    1    6    6    0  502 -0.99638765312E+02  0.56614644340E+02  0.10204114116E+04  0.10268264461E+04  0.00000000000E+00 0.  1.
<mgrwt>
<rscale>  0 0.22065001E+04</rscale>
<asrwt>0</asrwt>
<pdfrwt beam="1">  1        2 0.41198333E+00 0.22065001E+04</pdfrwt>
<pdfrwt beam="2">  1       -2 0.69926460E-01 0.22065001E+04</pdfrwt>
<totfact> 0.46607798E+00</totfact>
</mgrwt>
</event>
<event>
12    1  0.1519630E-007  0.1223744E+04  0.7818608E-02  0.9092324E-01
          2   -1    0    0  501    0  0.00000000000E+00  0.00000000000E+00  0.14388439997E+04  0.14388439997E+04  0.00000000000E+00 0. -1.
         -2   -1    0    0    0  501 -0.00000000000E+00 -0.00000000000E+00 -0.26020010142E+03  0.26020010142E+03  0.00000000000E+00 0.  1.
         23    2    1    2    0    0 -0.11582248266E+03  0.22127901164E+03  0.13347544293E+03  0.29781145472E+03  0.92177655746E+02 0.  0.
        254    2    1    2    0    0  0.11582248266E+03 -0.22127901164E+03  0.10451684554E+04  0.14012326464E+04  0.89927558668E+03 0.  0.
        -24    2    4    4    0    0 -0.18217887513E+03 -0.29091162975E+03  0.49265376035E+02  0.35609947370E+03  0.81000240914E+02 0.  0.
         24    2    4    4    0    0  0.29800135779E+03  0.69632618110E+02  0.99590307933E+03  0.10451331727E+04  0.82625023695E+02 0.  0.
         11    1    3    3    0    0 -0.72932386608E+02  0.15391498321E+03  0.13593308442E+03  0.21791456701E+03  0.00000000000E+00 0. -1.
        -11    1    3    3    0    0 -0.42890096053E+02  0.67364028424E+02 -0.24576414934E+01  0.79896887715E+02  0.00000000000E+00 0.  1.
          4    1    6    6  502    0  0.25082628285E+03  0.28616784892E+02  0.84159005366E+03  0.87863904020E+03  0.00000000000E+00 0. -1.
          3    1    5    5  503    0 -0.11694795979E+03 -0.15435624010E+03 -0.91720394217E+01  0.19387315560E+03  0.00000000000E+00 0. -1.
         -4    1    5    5    0  503 -0.65230915338E+02 -0.13655538964E+03  0.58437415456E+02  0.16222631809E+03  0.00000000000E+00 0.  1.
         -3    1    6    6    0  502  0.47175074936E+02  0.41015833218E+02  0.15431302568E+03  0.16649413252E+03  0.00000000000E+00 0.  1.
<mgrwt>
<rscale>  0 0.12237440E+04</rscale>
<asrwt>0</asrwt>
<pdfrwt beam="1">  1        2 0.22136061E+00 0.12237440E+04</pdfrwt>
<pdfrwt beam="2">  1       -2 0.40030786E-01 0.12237440E+04</pdfrwt>
<totfact> 0.79952760E+01</totfact>
</mgrwt>
</event>
<event>
12    1  0.1519630E-007  0.1564376E+04  0.7818608E-02  0.8842737E-01
         -2   -1    0    0    0  501 -0.00000000000E+00  0.00000000000E+00  0.18748897227E+03  0.18748897227E+03  0.00000000000E+00 0.  1.
          2   -1    0    0  501    0  0.00000000000E+00 -0.00000000000E+00 -0.32632199729E+04  0.32632199729E+04  0.00000000000E+00 0. -1.
         23    2    1    2    0    0  0.23647071442E+03 -0.38520554080E+03 -0.15929159016E+04  0.16583844969E+04  0.92500609335E+02 0.  0.
        254    2    1    2    0    0 -0.23647071442E+03  0.38520554080E+03 -0.14828150990E+04  0.17923244482E+04  0.89965804744E+03 0.  0.
        -24    2    4    4    0    0 -0.26319435110E+03  0.45926099489E+03 -0.15650052672E+04  0.16540245291E+04  0.79772981228E+02 0.  0.
         24    2    4    4    0    0  0.26723636681E+02 -0.74055454097E+02  0.82190168135E+02  0.13829991917E+03  0.78570228876E+02 0.  0.
         13    1    3    3    0    0  0.61561599368E+02 -0.62946122101E+02 -0.43424532770E+03  0.44308131244E+03  0.00000000000E+00 0. -1.
        -13    1    3    3    0    0  0.17490911505E+03 -0.32225941870E+03 -0.11586705739E+04  0.12153031845E+04  0.00000000000E+00 0.  1.
          4    1    6    6  502    0  0.11977103906E+02  0.46755669940E+01 -0.99153546314E+01  0.16236569901E+02  0.00000000000E+00 0. -1.
          3    1    5    5  503    0 -0.23554944287E+02  0.90453245561E+01 -0.68843126902E+02  0.73321411732E+02  0.00000000000E+00 0. -1.
         -4    1    5    5    0  503 -0.23963940681E+03  0.45021567034E+03 -0.14961621403E+04  0.15807031173E+04  0.00000000000E+00 0.  1.
         -3    1    6    6    0  502  0.14746532775E+02 -0.78731021091E+02  0.92105522766E+02  0.12206334927E+03  0.00000000000E+00 0.  1.
<mgrwt>
<rscale>  0 0.15643756E+04</rscale>
<asrwt>0</asrwt>
<pdfrwt beam="1">  1        2 0.50203380E+00 0.15643756E+04</pdfrwt>
<pdfrwt beam="2">  1       -2 0.28844460E-01 0.15643756E+04</pdfrwt>
<totfact> 0.12618825E+01</totfact>
</mgrwt>
</event>
<event>
12    1  0.1519630E-007  0.2053870E+04  0.7818608E-02  0.8581841E-01
         -2   -1    0    0    0  501 -0.00000000000E+00  0.00000000000E+00  0.91720672813E+03  0.91720672813E+03  0.00000000000E+00 0.  1.
          2   -1    0    0  501    0  0.00000000000E+00 -0.00000000000E+00 -0.11497902833E+04  0.11497902833E+04  0.00000000000E+00 0. -1.
         23    2    1    2    0    0  0.12893294408E+03 -0.50912996529E+03  0.54394979941E+03  0.76149711447E+03  0.90329648727E+02 0.  0.
        254    2    1    2    0    0 -0.12893294408E+03  0.50912996529E+03 -0.77653335459E+03  0.13054998970E+04  0.90856419948E+03 0.  0.
        -24    2    4    4    0    0  0.44852821719E+02  0.42763002063E+03 -0.94167627053E+03  0.10383044780E+04  0.80266932089E+02 0.  0.
         24    2    4    4    0    0 -0.17378576580E+03  0.81499944658E+02  0.16514291594E+03  0.26719541897E+03  0.85308123045E+02 0.  0.
         11    1    3    3    0    0  0.71731893034E+02 -0.30939062594E+03  0.38971481956E+03  0.50273816692E+03  0.00000000000E+00 0.  1.
        -11    1    3    3    0    0  0.57201051048E+02 -0.19973933935E+03  0.15423497986E+03  0.25875894755E+03  0.00000000000E+00 0. -1.
          2    1    6    6  502    0 -0.79206785510E+01  0.29484819725E+02  0.50348632341E+02  0.58881886192E+02  0.00000000000E+00 0. -1.
          3    1    5    5  503    0 -0.12083005757E+02  0.35079861170E+02 -0.48944347276E+02  0.61417789102E+02  0.00000000000E+00 0. -1.
         -4    1    5    5    0  503  0.56935827476E+02  0.39255015946E+03 -0.89273192326E+03  0.97688668890E+03  0.00000000000E+00 0.  1.
         -1    1    6    6    0  502 -0.16586508725E+03  0.52015124933E+02  0.11479428360E+03  0.20831353278E+03  0.00000000000E+00 0.  1.
<mgrwt>
<rscale>  0 0.20538699E+04</rscale>
<asrwt>0</asrwt>
<pdfrwt beam="1">  1        2 0.17689081E+00 0.20538699E+04</pdfrwt>
<pdfrwt beam="2">  1       -2 0.14110873E+00 0.20538699E+04</pdfrwt>
<totfact> 0.66103322E+00</totfact>
</mgrwt>
</event>
<event>
12    1  0.1519630E-007  0.1647729E+04  0.7818608E-02  0.8791751E-01
          2   -1    0    0  501    0  0.00000000000E+00  0.00000000000E+00  0.95127027172E+03  0.95127027172E+03  0.00000000000E+00 0.  1.
         -2   -1    0    0    0  501 -0.00000000000E+00 -0.00000000000E+00 -0.71352232270E+03  0.71352232270E+03  0.00000000000E+00 0. -1.
         23    2    1    2    0    0  0.47703112704E+03  0.86761846398E+02  0.39584884111E+03  0.63236476629E+03  0.90014323777E+02 0.  0.
        254    2    1    2    0    0 -0.47703112704E+03 -0.86761846398E+02 -0.15810089209E+03  0.10324278281E+04  0.89767756686E+03 0.  0.
        -24    2    4    4    0    0 -0.28407225439E+03  0.37750838202E+03  0.52621863318E+02  0.48205578684E+03  0.79994355534E+02 0.  0.
         24    2    4    4    0    0 -0.19295887265E+03 -0.46427022842E+03 -0.21072275541E+03  0.55037204128E+03  0.75665927942E+02 0.  0.
         13    1    3    3    0    0  0.31833075215E+03  0.59925629735E+02  0.20782558825E+03  0.38485974588E+03  0.00000000000E+00 0.  1.
        -13    1    3    3    0    0  0.15870037488E+03  0.26836216663E+02  0.18802325286E+03  0.24750502041E+03  0.00000000000E+00 0. -1.
          2    1    6    6  502    0 -0.42714259150E+02 -0.10508736947E+03 -0.14437173822E+02  0.11435162939E+03  0.00000000000E+00 0. -1.
          1    1    5    5  503    0 -0.18015724291E+02  0.45394469369E+02  0.26853783308E+02  0.55734637785E+02  0.00000000000E+00 0. -1.
         -2    1    5    5    0  503 -0.26605653010E+03  0.33211391265E+03  0.25768080010E+02  0.42632114905E+03  0.00000000000E+00 0.  1.
         -1    1    6    6    0  502 -0.15024461350E+03 -0.35918285895E+03 -0.19628558159E+03  0.43602041189E+03  0.00000000000E+00 0.  1.
<mgrwt>
<rscale>  0 0.16477288E+04</rscale>
<asrwt>0</asrwt>
<pdfrwt beam="1">  1        2 0.14634927E+00 0.16477288E+04</pdfrwt>
<pdfrwt beam="2">  1       -2 0.10977266E+00 0.16477288E+04</pdfrwt>
<totfact> 0.17097640E+01</totfact>
</mgrwt>
</event>
<event>
12    1  0.1519630E-007  0.1398290E+04  0.7818608E-02  0.8955057E-01
         -2   -1    0    0    0  501 -0.00000000000E+00  0.00000000000E+00  0.31366558179E+03  0.31366558179E+03  0.00000000000E+00 0.  1.
          2   -1    0    0  501    0  0.00000000000E+00 -0.00000000000E+00 -0.15583589370E+04  0.15583589370E+04  0.00000000000E+00 0. -1.
         23    2    1    2    0    0  0.43325944651E+02  0.29640019316E+03 -0.60496638306E+00  0.31325186328E+03  0.91630518275E+02 0.  0.
        254    2    1    2    0    0 -0.43325944651E+02 -0.29640019316E+03 -0.12440883888E+04  0.15587726555E+04  0.89010452216E+03 0.  0.
        -24    2    4    4    0    0  0.25946454547E+03  0.20981119787E+03 -0.42244535594E+03  0.54415368606E+03  0.79376105971E+02 0.  0.
         24    2    4    4    0    0 -0.30279049012E+03 -0.50621139103E+03 -0.82164303286E+03  0.10146189694E+04  0.80139418208E+02 0.  0.
         11    1    3    3    0    0  0.42848244343E+02  0.11309507023E+03  0.36295472451E+02  0.12626887295E+03  0.00000000000E+00 0.  1.
        -11    1    3    3    0    0  0.47770030736E+00  0.18330512292E+03 -0.36900438834E+02  0.18698299033E+03  0.00000000000E+00 0. -1.
          2    1    6    6  502    0 -0.13844675176E+03 -0.29708652227E+03 -0.41707161392E+03  0.53044946595E+03  0.00000000000E+00 0. -1.
          1    1    5    5  503    0  0.18336190039E+03  0.14325468369E+03 -0.34789589496E+03  0.41853917934E+03  0.00000000000E+00 0. -1.
         -2    1    5    5    0  503  0.76102645074E+02  0.66556514181E+02 -0.74549460977E+02  0.12561450672E+03  0.00000000000E+00 0.  1.
         -1    1    6    6    0  502 -0.16434373836E+03 -0.20912486876E+03 -0.40457141894E+03  0.48416950347E+03  0.00000000000E+00 0.  1.
<mgrwt>
<rscale>  0 0.13982898E+04</rscale>
<asrwt>0</asrwt>
<pdfrwt beam="1">  1        2 0.23974753E+00 0.13982898E+04</pdfrwt>
<pdfrwt beam="2">  1       -2 0.48256243E-01 0.13982898E+04</pdfrwt>
<totfact> 0.46588931E+01</totfact>
</mgrwt>
</event>
<event>
12    1  0.1519630E-007  0.1946211E+04  0.7818608E-02  0.8632190E-01
          1   -1    0    0  501    0  0.00000000000E+00  0.00000000000E+00  0.98425523407E+03  0.98425523407E+03  0.00000000000E+00 0. -1.
         -1   -1    0    0    0  501 -0.00000000000E+00 -0.00000000000E+00 -0.96208188819E+03  0.96208188819E+03  0.00000000000E+00 0.  1.
         23    2    1    2    0    0  0.69825667817E+02 -0.74097336203E+03 -0.13673560688E+03  0.76282456459E+03  0.96371899613E+02 0.  0.
        254    2    1    2    0    0 -0.69825667817E+02  0.74097336203E+03  0.15890895275E+03  0.11835125577E+04  0.90638445032E+03 0.  0.
        -24    2    4    4    0    0  0.22584258353E+03  0.54205785744E+02  0.33078296826E+03  0.41207604593E+03  0.80287955474E+02 0.  0.
         24    2    4    4    0    0 -0.29566825135E+03  0.68676757628E+03 -0.17187401550E+03  0.77143651175E+03  0.80648594299E+02 0.  0.
         11    1    3    3    0    0 -0.15797285619E+02 -0.17686176307E+03 -0.70854179395E+01  0.17770717660E+03  0.00000000000E+00 0. -1.
        -11    1    3    3    0    0  0.85622953436E+02 -0.56411159896E+03 -0.12965018894E+03  0.58511738799E+03  0.00000000000E+00 0.  1.
          2    1    6    6  502    0 -0.18947282010E+03  0.38233007417E+03 -0.13140474949E+03  0.44647893943E+03  0.00000000000E+00 0. -1.
          1    1    5    5  503    0  0.13735516743E+03  0.69759749232E+02  0.18396758451E+03  0.23995194682E+03  0.00000000000E+00 0. -1.
         -2    1    5    5    0  503  0.88487416097E+02 -0.15553963488E+02  0.14681538375E+03  0.17212409911E+03  0.00000000000E+00 0.  1.
         -1    1    6    6    0  502 -0.10619543125E+03  0.30443750211E+03 -0.40469266015E+02  0.32495757231E+03  0.00000000000E+00 0.  1.
<mgrwt>
<rscale>  0 0.19462108E+04</rscale>
<asrwt>0</asrwt>
<pdfrwt beam="1">  1        1 0.15142388E+00 0.19462108E+04</pdfrwt>
<pdfrwt beam="2">  1       -1 0.14801260E+00 0.19462108E+04</pdfrwt>
<totfact> 0.52475297E+00</totfact>
</mgrwt>
</event>
<event>
12    1  0.1519630E-007  0.2003629E+04  0.7818608E-02  0.8604926E-01
          2   -1    0    0  501    0  0.00000000000E+00  0.00000000000E+00  0.24118420717E+04  0.24118420717E+04  0.00000000000E+00 0. -1.
         -2   -1    0    0    0  501 -0.00000000000E+00 -0.00000000000E+00 -0.41612703849E+03  0.41612703849E+03  0.00000000000E+00 0.  1.
         23    2    1    2    0    0 -0.61263500067E+03 -0.14075616141E+03  0.11153132610E+03  0.64468901795E+03  0.89725983625E+02 0.  0.
        254    2    1    2    0    0  0.61263500067E+03  0.14075616141E+03  0.18841837071E+04  0.21832800923E+04  0.90632763282E+03 0.  0.
        -24    2    4    4    0    0  0.10042369465E+03 -0.28010870762E+03  0.18882889024E+03  0.36115504369E+03  0.78935475318E+02 0.  0.
         24    2    4    4    0    0  0.51221130603E+03  0.42086486903E+03  0.16953548169E+04  0.18221250486E+04  0.80150342825E+02 0.  0.
         11    1    3    3    0    0 -0.91688930271E+02 -0.37089799811E+02 -0.11184691631E+02  0.99536980621E+02  0.00000000000E+00 0. -1.
        -11    1    3    3    0    0 -0.52094607040E+03 -0.10366636160E+03  0.12271601774E+03  0.54515203733E+03  0.00000000000E+00 0.  1.
          4    1    6    6  502    0  0.48586199581E+03  0.41458574567E+03  0.15936802037E+04  0.17169041357E+04  0.00000000000E+00 0. -1.
          1    1    5    5  503    0  0.99047191409E+02 -0.23600776940E+03  0.12845043108E+03  0.28637305492E+03  0.00000000000E+00 0. -1.
         -2    1    5    5    0  503  0.13765032383E+01 -0.44100938222E+02  0.60378459165E+02  0.74781988769E+02  0.00000000000E+00 0.  1.
         -3    1    6    6    0  502  0.26349310217E+02  0.62791233615E+01  0.10167461320E+03  0.10522091289E+03  0.00000000000E+00 0.  1.
<mgrwt>
<rscale>  0 0.20036294E+04</rscale>
<asrwt>0</asrwt>
<pdfrwt beam="1">  1        2 0.37105262E+00 0.20036294E+04</pdfrwt>
<pdfrwt beam="2">  1       -2 0.64019546E-01 0.20036294E+04</pdfrwt>
<totfact> 0.82022120E+00</totfact>
</mgrwt>
</event>
<event>
12    1  0.1519630E-007  0.1357660E+04  0.7818608E-02  0.8985049E-01
         -2   -1    0    0    0  501 -0.00000000000E+00  0.00000000000E+00  0.43641210525E+03  0.43641210525E+03  0.00000000000E+00 0.  1.
          2   -1    0    0  501    0  0.00000000000E+00 -0.00000000000E+00 -0.10559065997E+04  0.10559065997E+04  0.00000000000E+00 0. -1.
         23    2    1    2    0    0 -0.28587770980E+02  0.34691640754E+03 -0.28699450629E+03  0.46011115535E+03  0.90377951780E+02 0.  0.
        254    2    1    2    0    0  0.28587770980E+02 -0.34691640754E+03 -0.33249998820E+03  0.10322075496E+04  0.91308703251E+03 0.  0.
        -24    2    4    4    0    0  0.57556543768E+02 -0.22163009990E+03 -0.64117588726E+03  0.68604426144E+03  0.84365593328E+02 0.  0.
         24    2    4    4    0    0 -0.28968772788E+02 -0.12528630763E+03  0.30867589905E+03  0.34616328821E+03  0.89511802412E+02 0.  0.
         11    1    3    3    0    0 -0.45466936231E+02  0.25874138556E+03 -0.25115325345E+03  0.36344504895E+03  0.00000000000E+00 0. -1.
        -11    1    3    3    0    0  0.16879165251E+02  0.88175021977E+02 -0.35841252841E+02  0.96666106394E+02  0.00000000000E+00 0.  1.
          2    1    6    6  502    0 -0.81661974674E+01 -0.21020550710E+02  0.16965094046E+03  0.17114319131E+03  0.00000000000E+00 0. -1.
          1    1    5    5  503    0  0.40182365604E+01 -0.12063856205E+03 -0.23632500408E+03  0.26536638150E+03  0.00000000000E+00 0. -1.
         -2    1    5    5    0  503  0.53538307207E+02 -0.10099153785E+03 -0.40485088318E+03  0.42067787994E+03  0.00000000000E+00 0.  1.
         -1    1    6    6    0  502 -0.20802575320E+02 -0.10426575692E+03  0.13902495859E+03  0.17502009690E+03  0.00000000000E+00 0.  1.
<mgrwt>
<rscale>  0 0.13576604E+04</rscale>
<asrwt>0</asrwt>
<pdfrwt beam="1">  1        2 0.16244717E+00 0.13576604E+04</pdfrwt>
<pdfrwt beam="2">  1       -2 0.67140325E-01 0.13576604E+04</pdfrwt>
<totfact> 0.46130063E+01</totfact>
</mgrwt>
</event>
<event>
12    1  0.1519630E-007  0.3225333E+04  0.7818608E-02  0.8182159E-01
         -1   -1    0    0    0  501 -0.00000000000E+00  0.00000000000E+00  0.95583356865E+03  0.95583356865E+03  0.00000000000E+00 0.  1.
          1   -1    0    0  501    0  0.00000000000E+00 -0.00000000000E+00 -0.27208645354E+04  0.27208645354E+04  0.00000000000E+00 0. -1.
         23    2    1    2    0    0  0.77844930227E+03 -0.12653033629E+04 -0.95111383151E+03  0.17662873725E+04  0.90430334501E+02 0.  0.
        254    2    1    2    0    0 -0.77844930227E+03  0.12653033629E+04 -0.81391713522E+03  0.19104107315E+04  0.88330750229E+03 0.  0.
        -24    2    4    4    0    0 -0.77207256865E+03  0.10076177636E+04 -0.26570519912E+03  0.12994571951E+04  0.81241248001E+02 0.  0.
         24    2    4    4    0    0 -0.63767336165E+01  0.25768559936E+03 -0.54821193610E+03  0.61095353639E+03  0.79280299545E+02 0.  0.
         11    1    3    3    0    0  0.65194376807E+03 -0.10304376990E+04 -0.81646775222E+03  0.14674645204E+04  0.00000000000E+00 0. -1.
        -11    1    3    3    0    0  0.12650553419E+03 -0.23486566394E+03 -0.13464607929E+03  0.29882285212E+03  0.00000000000E+00 0.  1.
          4    1    6    6  502    0  0.82479774873E+01  0.21391639785E+03 -0.37605610860E+03  0.43271982994E+03  0.00000000000E+00 0. -1.
          3    1    5    5  503    0 -0.68432365345E+03  0.84631422890E+03 -0.22583872711E+03  0.11115528631E+04  0.00000000000E+00 0. -1.
         -4    1    5    5    0  503 -0.87748915198E+02  0.16130353467E+03 -0.39866472014E+02  0.18790433205E+03  0.00000000000E+00 0.  1.
         -3    1    6    6    0  502 -0.14624711104E+02  0.43769201513E+02 -0.17215582749E+03  0.17823370645E+03  0.00000000000E+00 0.  1.
<mgrwt>
<rscale>  0 0.32253333E+04</rscale>
<asrwt>0</asrwt>
<pdfrwt beam="1">  1        1 0.41859454E+00 0.32253333E+04</pdfrwt>
<pdfrwt beam="2">  1       -1 0.14705132E+00 0.32253333E+04</pdfrwt>
<totfact> 0.29129614E-01</totfact>
</mgrwt>
</event>
<event>
12    1  0.1519630E-007  0.1132553E+04  0.7818608E-02  0.9174031E-01
          1   -1    0    0  501    0  0.00000000000E+00  0.00000000000E+00  0.50530610405E+03  0.50530610405E+03  0.00000000000E+00 0. -1.
         -1   -1    0    0    0  501 -0.00000000000E+00 -0.00000000000E+00 -0.63460411202E+03  0.63460411202E+03  0.00000000000E+00 0.  1.
         23    2    1    2    0    0 -0.11302001704E+03  0.89912258985E+02  0.11048678679E+03  0.20307415434E+03  0.90410417207E+02 0.  0.
        254    2    1    2    0    0  0.11302001704E+03 -0.89912258985E+02 -0.23978479477E+03  0.93683606172E+03  0.89403988735E+03 0.  0.
        -24    2    4    4    0    0  0.45185547864E+03 -0.12985160807E+03 -0.32367164012E+03  0.57651534309E+03  0.81066617718E+02 0.  0.
         24    2    4    4    0    0 -0.33883546160E+03  0.39939349080E+02  0.83886845353E+02  0.36032071863E+03  0.79933696346E+02 0.  0.
         13    1    3    3    0    0  0.28995249075E+01 -0.13388200080E+02  0.24462936831E+01  0.13915297297E+02  0.00000000000E+00 0.  1.
        -13    1    3    3    0    0 -0.11591954194E+03  0.10330045907E+03  0.10804049311E+03  0.18915885705E+03  0.00000000000E+00 0. -1.
          4    1    6    6  502    0 -0.33913475945E+03  0.46447442229E+02  0.77027177297E+02  0.35086027988E+03  0.00000000000E+00 0. -1.
          3    1    5    5  503    0  0.43692941564E+03 -0.13729128810E+03 -0.32178038864E+03  0.55973103411E+03  0.00000000000E+00 0. -1.
         -4    1    5    5    0  503  0.14926063002E+02  0.74396800311E+01 -0.18912514798E+01  0.16784308977E+02  0.00000000000E+00 0.  1.
         -3    1    6    6    0  502  0.29929784516E+00 -0.65080931491E+01  0.68596680560E+01  0.94604387570E+01  0.00000000000E+00 0.  1.
<mgrwt>
<rscale>  0 0.11325535E+04</rscale>
<asrwt>0</asrwt>
<pdfrwt beam="1">  1        1 0.77739401E-01 0.11325535E+04</pdfrwt>
<pdfrwt beam="2">  1       -1 0.97631402E-01 0.11325535E+04</pdfrwt>
<totfact> 0.43746032E+01</totfact>
</mgrwt>
</event>
<event>
12    1  0.1519630E-007  0.4125210E+04  0.7818608E-02  0.7979753E-01
          2   -1    0    0  501    0  0.00000000000E+00  0.00000000000E+00  0.34503870915E+04  0.34503870915E+04  0.00000000000E+00 0. -1.
         -2   -1    0    0    0  501 -0.00000000000E+00 -0.00000000000E+00 -0.12330037355E+04  0.12330037355E+04  0.00000000000E+00 0.  1.
         23    2    1    2    0    0  0.17920080516E+04  0.42928633108E+02  0.19808789611E+04  0.26730617891E+04  0.90786259286E+02 0.  0.
        254    2    1    2    0    0 -0.17920080516E+04 -0.42928633108E+02  0.23650439487E+03  0.20103290378E+04  0.87883604095E+03 0.  0.
        -24    2    4    4    0    0 -0.18032831946E+04  0.12595850437E+03  0.22418492985E+03  0.18232884648E+04  0.80163074313E+02 0.  0.
         24    2    4    4    0    0  0.11275142969E+02 -0.16888713747E+03  0.12319465024E+02  0.18704057299E+03  0.78628319784E+02 0.  0.
         11    1    3    3    0    0  0.60015341491E+02  0.10934357384E+02  0.89059820556E+02  0.10794930765E+03  0.00000000000E+00 0. -1.
        -11    1    3    3    0    0  0.17319927102E+04  0.31994275725E+02  0.18918191406E+04  0.25651124814E+04  0.00000000000E+00 0.  1.
          4    1    6    6  502    0  0.38777070729E+02 -0.13893810338E+03 -0.10076007083E+01  0.14425142302E+03  0.00000000000E+00 0. -1.
          3    1    5    5  503    0 -0.67231213662E+03  0.83367051525E+02  0.70206193657E+02  0.68108926284E+03  0.00000000000E+00 0. -1.
         -4    1    5    5    0  503 -0.11309710580E+04  0.42591452841E+02  0.15397873619E+03  0.11421992020E+04  0.00000000000E+00 0.  1.
         -3    1    6    6    0  502 -0.27501927760E+02 -0.29949034096E+02  0.13327065732E+02  0.42789149967E+02  0.00000000000E+00 0.  1.
<mgrwt>
<rscale>  0 0.41252104E+04</rscale>
<asrwt>0</asrwt>
<pdfrwt beam="1">  1        2 0.53082878E+00 0.41252104E+04</pdfrwt>
<pdfrwt beam="2">  1       -2 0.18969288E+00 0.41252104E+04</pdfrwt>
<totfact> 0.10688538E-01</totfact>
</mgrwt>
</event>
<event>
12    1  0.1519630E-007  0.1944494E+04  0.7818608E-02  0.8633020E-01
          1   -1    0    0  501    0  0.00000000000E+00  0.00000000000E+00  0.14962516679E+04  0.14962516679E+04  0.00000000000E+00 0. -1.
         -1   -1    0    0    0  501 -0.00000000000E+00 -0.00000000000E+00 -0.63175512263E+03  0.63175512263E+03  0.00000000000E+00 0.  1.
         23    2    1    2    0    0  0.48353105973E+02  0.23302022518E+02  0.11906427224E+04  0.11954085980E+04  0.92144543234E+02 0.  0.
        254    2    1    2    0    0 -0.48353105973E+02 -0.23302022518E+02 -0.32614617709E+03  0.93259819249E+03  0.87205908784E+03 0.  0.
        -24    2    4    4    0    0 -0.42043675432E+03  0.15470103348E+03 -0.17353762082E+03  0.48713621559E+03  0.80541371704E+02 0.  0.
         24    2    4    4    0    0  0.37208364834E+03 -0.17800305600E+03 -0.15260855627E+03  0.44546197690E+03  0.70821409957E+02 0.  0.
         13    1    3    3    0    0  0.48673437484E+02 -0.94636903338E+01  0.29285366205E+03  0.29702177079E+03  0.00000000000E+00 0.  1.
        -13    1    3    3    0    0 -0.32033151125E+00  0.32765712852E+02  0.89778906032E+03  0.89838682725E+03  0.00000000000E+00 0. -1.
          4    1    6    6  502    0  0.34067416084E+03 -0.15345629037E+03 -0.15714302515E+03  0.40534139595E+03  0.00000000000E+00 0. -1.
          3    1    5    5  503    0 -0.30328211481E+03  0.73630375094E+02 -0.13080849830E+03  0.33839671471E+03  0.00000000000E+00 0. -1.
         -4    1    5    5    0  503 -0.11715463950E+03  0.81070658388E+02 -0.42729122524E+02  0.14873950087E+03  0.00000000000E+00 0.  1.
         -3    1    6    6    0  502  0.31409487507E+02 -0.24546765627E+02  0.45344688731E+01  0.40120580955E+02  0.00000000000E+00 0.  1.
<mgrwt>
<rscale>  0 0.19444944E+04</rscale>
<asrwt>0</asrwt>
<pdfrwt beam="1">  1        1 0.23019256E+00 0.19444944E+04</pdfrwt>
<pdfrwt beam="2">  1       -1 0.97193097E-01 0.19444944E+04</pdfrwt>
<totfact> 0.62378736E+00</totfact>
</mgrwt>
</event>
<event>
12    1  0.1519630E-007  0.1687726E+04  0.7818608E-02  0.8768396E-01
         -1   -1    0    0    0  501 -0.00000000000E+00  0.00000000000E+00  0.44049143978E+03  0.44049143978E+03  0.00000000000E+00 0.  1.
          1   -1    0    0  501    0  0.00000000000E+00 -0.00000000000E+00 -0.16166134873E+04  0.16166134873E+04  0.00000000000E+00 0. -1.
         23    2    1    2    0    0  0.61860023561E+02 -0.34977434150E+03 -0.10105782027E+04  0.10751626432E+04  0.92399420925E+02 0.  0.
        254    2    1    2    0    0 -0.61860023561E+02  0.34977434150E+03 -0.16554384483E+03  0.98194228393E+03  0.90035389261E+03 0.  0.
        -24    2    4    4    0    0 -0.78146947212E+02  0.55071765882E+03 -0.37906786800E+03  0.67804730211E+03  0.81601533355E+02 0.  0.
         24    2    4    4    0    0  0.16286923651E+02 -0.20094331733E+03  0.21352402318E+03  0.30389498182E+03  0.78205951459E+02 0.  0.
         13    1    3    3    0    0  0.68330693763E+02 -0.16127840732E+03 -0.41549018704E+03  0.45090121302E+03  0.00000000000E+00 0.  1.
        -13    1    3    3    0    0 -0.64706702016E+01 -0.18849593418E+03 -0.59508801570E+03  0.62426143017E+03  0.00000000000E+00 0. -1.
          2    1    6    6  502    0  0.42203291675E+02 -0.16252573160E+03  0.18321015514E+03  0.24851899768E+03  0.00000000000E+00 0. -1.
          3    1    5    5  503    0 -0.47394853044E+02  0.14694311965E+03 -0.13599828596E+03  0.20575248793E+03  0.00000000000E+00 0. -1.
         -4    1    5    5    0  503 -0.30752094169E+02  0.40377453918E+03 -0.24306958204E+03  0.47229481418E+03  0.00000000000E+00 0.  1.
         -1    1    6    6    0  502 -0.25916368024E+02 -0.38417585730E+02  0.30313868031E+02  0.55375984143E+02  0.00000000000E+00 0.  1.
<mgrwt>
<rscale>  0 0.16877256E+04</rscale>
<asrwt>0</asrwt>
<pdfrwt beam="1">  1        1 0.24870977E+00 0.16877256E+04</pdfrwt>
<pdfrwt beam="2">  1       -1 0.67767913E-01 0.16877256E+04</pdfrwt>
<totfact> 0.11415749E+01</totfact>
</mgrwt>
</event>
<event>
12    1  0.1572603E-007  0.3204854E+04  0.7818608E-02  0.8187536E-01
         -2   -1    0    0    0  501 -0.00000000000E+00  0.00000000000E+00  0.81208081042E+03  0.81208081042E+03  0.00000000000E+00 0.  1.
          2   -1    0    0  501    0  0.00000000000E+00 -0.00000000000E+00 -0.31619664663E+04  0.31619664663E+04  0.00000000000E+00 0. -1.
         23    2    1    2    0    0 -0.78208047931E+03 -0.10940551194E+04 -0.33641036334E+03  0.13912725765E+04  0.11773261699E+03 0.  0.
        254    2    1    2    0    0  0.78208047931E+03  0.10940551194E+04 -0.20134752925E+04  0.25827747002E+04  0.89890818110E+03 0.  0.
        -24    2    4    4    0    0  0.34728249993E+02  0.15063085263E+03 -0.97730122342E+03  0.99260799344E+03  0.79102732182E+02 0.  0.
         24    2    4    4    0    0  0.74735222932E+03  0.94342426678E+03 -0.10361740691E+04  0.15901667068E+04  0.79929669276E+02 0.  0.
         13    1    3    3    0    0 -0.18410264241E+03 -0.27608747049E+03 -0.32438347037E+02  0.33342213583E+03  0.00000000000E+00 0. -1.
        -13    1    3    3    0    0 -0.59797783691E+03 -0.81796764892E+03 -0.30397201631E+03  0.10578504407E+04  0.00000000000E+00 0.  1.
          4    1    6    6  502    0  0.59445082328E+03  0.79866036914E+03 -0.86115576724E+03  0.13163659909E+04  0.00000000000E+00 0. -1.
          3    1    5    5  503    0  0.24279290960E+02  0.73124267566E+02 -0.70800764072E+03  0.71218779952E+03  0.00000000000E+00 0. -1.
         -4    1    5    5    0  503  0.10448959032E+02  0.77506585065E+02 -0.26929358270E+03  0.28042019392E+03  0.00000000000E+00 0.  1.
         -3    1    6    6    0  502  0.15290140604E+03  0.14476389764E+03 -0.17501830188E+03  0.27380071588E+03  0.00000000000E+00 0.  1.
<mgrwt>
<rscale>  0 0.32048540E+04</rscale>
<asrwt>0</asrwt>
<pdfrwt beam="1">  1        2 0.48645637E+00 0.32048540E+04</pdfrwt>
<pdfrwt beam="2">  1       -2 0.12493551E+00 0.32048540E+04</pdfrwt>
<totfact> 0.55425895E-01</totfact>
</mgrwt>
</event>
<event>
12    1  0.1519630E-007  0.2711993E+04  0.7818608E-02  0.8331124E-01
          2   -1    0    0  501    0  0.00000000000E+00  0.00000000000E+00  0.12370721741E+04  0.12370721741E+04  0.00000000000E+00 0. -1.
         -2   -1    0    0    0  501 -0.00000000000E+00 -0.00000000000E+00 -0.14863530529E+04  0.14863530529E+04  0.00000000000E+00 0.  1.
         23    2    1    2    0    0 -0.47048715775E+03 -0.96710397712E+03 -0.57749066050E+03  0.12241433201E+04  0.91559472430E+02 0.  0.
        254    2    1    2    0    0  0.47048715775E+03  0.96710397712E+03  0.32820978170E+03  0.14992819069E+04  0.99170373967E+03 0.  0.
        -24    2    4    4    0    0  0.34613280822E+03  0.21638431071E+03  0.56218058670E+03  0.69921301787E+03  0.78878016247E+02 0.  0.
         24    2    4    4    0    0  0.12435434953E+03  0.75071966641E+03 -0.23397080500E+03  0.80006888899E+03  0.79522749957E+02 0.  0.
         11    1    3    3    0    0 -0.15412529335E+03 -0.23533140157E+03 -0.12980938081E+03  0.30981599371E+03  0.00000000000E+00 0. -1.
        -11    1    3    3    0    0 -0.31636186440E+03 -0.73177257555E+03 -0.44768127969E+03  0.91432732638E+03  0.00000000000E+00 0.  1.
          2    1    6    6  502    0  0.38772698542E+02  0.46959790010E+03 -0.14795790770E+03  0.49387959300E+03  0.00000000000E+00 0. -1.
          3    1    5    5  503    0  0.59189011942E+02  0.50005602135E+02  0.62922119883E+02  0.99815292165E+02  0.00000000000E+00 0. -1.
         -4    1    5    5    0  503  0.28694379628E+03  0.16637870857E+03  0.49925846682E+03  0.59939772571E+03  0.00000000000E+00 0.  1.
         -1    1    6    6    0  502  0.85581650986E+02  0.28112176631E+03 -0.86012897297E+02  0.30618929599E+03  0.00000000000E+00 0.  1.
<mgrwt>
<rscale>  0 0.27119926E+04</rscale>
<asrwt>0</asrwt>
<pdfrwt beam="1">  1        2 0.19031880E+00 0.27119926E+04</pdfrwt>
<pdfrwt beam="2">  1       -2 0.22866970E+00 0.27119926E+04</pdfrwt>
<totfact> 0.13751110E+00</totfact>
</mgrwt>
</event>
<event>
12    1  0.1519630E-007  0.1232728E+04  0.7818608E-02  0.9084682E-01
         -1   -1    0    0    0  501 -0.00000000000E+00  0.00000000000E+00  0.23717809466E+03  0.23717809466E+03  0.00000000000E+00 0.  1.
          1   -1    0    0  501    0  0.00000000000E+00 -0.00000000000E+00 -0.16017694548E+04  0.16017694548E+04  0.00000000000E+00 0. -1.
         23    2    1    2    0    0  0.96834550024E+01  0.22989130007E+03 -0.54628198494E+03  0.59956414712E+03  0.90052097650E+02 0.  0.
        254    2    1    2    0    0 -0.96834550024E+01 -0.22989130007E+03 -0.81830937520E+03  0.12393834023E+04  0.90194079921E+03 0.  0.
        -24    2    4    4    0    0 -0.44682268964E+03 -0.78661615508E+02 -0.37721568050E+03  0.59536000520E+03  0.79521697958E+02 0.  0.
         24    2    4    4    0    0  0.43713923463E+03 -0.15122968457E+03 -0.44109369470E+03  0.64402339714E+03  0.79002282248E+02 0.  0.
         13    1    3    3    0    0  0.11749535101E+02  0.15219616305E+03 -0.24707196214E+03  0.29042430700E+03  0.00000000000E+00 0.  1.
        -13    1    3    3    0    0 -0.20660800986E+01  0.77695137024E+02 -0.29921002279E+03  0.30913984011E+03  0.00000000000E+00 0. -1.
          2    1    6    6  502    0  0.33648789483E+03 -0.92512800318E+02 -0.36424812970E+03  0.50443971055E+03  0.00000000000E+00 0. -1.
          3    1    5    5  503    0 -0.36250080337E+03 -0.90702784911E+02 -0.28604088600E+03  0.47058815975E+03  0.00000000000E+00 0. -1.
         -4    1    5    5    0  503 -0.84321886271E+02  0.12041169404E+02 -0.91174794500E+02  0.12477184545E+03  0.00000000000E+00 0.  1.
         -1    1    6    6    0  502  0.10065133980E+03 -0.58716884248E+02 -0.76845565004E+02  0.13958368658E+03  0.00000000000E+00 0.  1.
<mgrwt>
<rscale>  0 0.12327281E+04</rscale>
<asrwt>0</asrwt>
<pdfrwt beam="1">  1        1 0.24642606E+00 0.12327281E+04</pdfrwt>
<pdfrwt beam="2">  1       -1 0.36488939E-01 0.12327281E+04</pdfrwt>
<totfact> 0.39553744E+01</totfact>
</mgrwt>
</event>
<event>
12    1  0.1519630E-007  0.1591005E+04  0.7818608E-02  0.8826093E-01
         -2   -1    0    0    0  501 -0.00000000000E+00  0.00000000000E+00  0.23181625139E+03  0.23181625139E+03  0.00000000000E+00 0.  1.
          2   -1    0    0  501    0  0.00000000000E+00 -0.00000000000E+00 -0.27298518101E+04  0.27298518101E+04  0.00000000000E+00 0. -1.
         23    2    1    2    0    0 -0.42471829289E+03 -0.19908782904E+03 -0.16347182305E+04  0.17031418050E+04  0.91469792526E+02 0.  0.
        254    2    1    2    0    0  0.42471829289E+03  0.19908782904E+03 -0.86331732822E+03  0.12585262565E+04  0.78647945745E+03 0.  0.
        -24    2    4    4    0    0  0.34472155750E+03  0.14673994703E+03  0.36117943930E+01  0.38289905381E+03  0.78949832764E+02 0.  0.
         24    2    4    4    0    0  0.79996735392E+02  0.52347882011E+02 -0.86692912261E+03  0.87562720264E+03  0.77570071220E+02 0.  0.
         13    1    3    3    0    0 -0.16874616147E+03 -0.11844450447E+03 -0.61177766028E+03  0.64558211969E+03  0.00000000000E+00 0. -1.
        -13    1    3    3    0    0 -0.25597213142E+03 -0.80643324578E+02 -0.10229405702E+04  0.10575596853E+04  0.00000000000E+00 0.  1.
          4    1    6    6  502    0  0.92149433326E+02  0.55840400220E+02 -0.81903629012E+03  0.82609328341E+03  0.00000000000E+00 0. -1.
          3    1    5    5  503    0  0.17630266377E+03  0.11402379463E+03  0.17985194399E+02  0.21073092372E+03  0.00000000000E+00 0. -1.
         -2    1    5    5    0  503  0.16841889373E+03  0.32716152407E+02 -0.14373400006E+02  0.17216813010E+03  0.00000000000E+00 0.  1.
         -3    1    6    6    0  502 -0.12152697934E+02 -0.34925182087E+01 -0.47892832490E+02  0.49533919231E+02  0.00000000000E+00 0.  1.
<mgrwt>
<rscale>  0 0.15910047E+04</rscale>
<asrwt>0</asrwt>
<pdfrwt beam="1">  1        2 0.41997718E+00 0.15910047E+04</pdfrwt>
<pdfrwt beam="2">  1       -2 0.35664041E-01 0.15910047E+04</pdfrwt>
<totfact> 0.18139889E+01</totfact>
</mgrwt>
</event>
<event>
12    1  0.1519630E-007  0.1290408E+04  0.7818608E-02  0.9037207E-01
         -1   -1    0    0    0  501 -0.00000000000E+00  0.00000000000E+00  0.16017676361E+03  0.16017676361E+03  0.00000000000E+00 0.  1.
          1   -1    0    0  501    0  0.00000000000E+00 -0.00000000000E+00 -0.25989296493E+04  0.25989296493E+04  0.00000000000E+00 0. -1.
         23    2    1    2    0    0 -0.19973271589E+03  0.22937069262E+03 -0.41476917961E+03  0.52275081053E+03  0.93439098477E+02 0.  0.
        254    2    1    2    0    0  0.19973271589E+03 -0.22937069262E+03 -0.20239837061E+04  0.22363556024E+04  0.90126148556E+03 0.  0.
        -24    2    4    4    0    0  0.26122897536E+03  0.31973426008E+02 -0.19169006478E+04  0.19365655262E+04  0.80715959050E+02 0.  0.
         24    2    4    4    0    0 -0.61496259468E+02 -0.26134411863E+03 -0.10708305827E+03  0.29979007620E+03  0.79528423501E+02 0.  0.
         11    1    3    3    0    0 -0.20100291678E+03  0.23289745716E+03 -0.41714125759E+03  0.51831479517E+03  0.00000000000E+00 0.  1.
        -11    1    3    3    0    0  0.12702008858E+01 -0.35267645396E+01  0.23720779758E+01  0.44360153664E+01  0.00000000000E+00 0. -1.
          2    1    6    6  502    0 -0.25063421467E+02 -0.33012119514E+02  0.68712107678E+01  0.42014148424E+02  0.00000000000E+00 0. -1.
          3    1    5    5  503    0  0.14666350409E+03 -0.18395950847E+02 -0.91178081699E+03  0.92368439018E+03  0.00000000000E+00 0. -1.
         -4    1    5    5    0  503  0.11456547128E+03  0.50369376855E+02 -0.10051198309E+04  0.10128811360E+04  0.00000000000E+00 0.  1.
         -1    1    6    6    0  502 -0.36432838001E+02 -0.22833199912E+03 -0.11395426903E+03  0.25777592777E+03  0.00000000000E+00 0.  1.
<mgrwt>
<rscale>  0 0.12904079E+04</rscale>
<asrwt>0</asrwt>
<pdfrwt beam="1">  1        1 0.39983532E+00 0.12904079E+04</pdfrwt>
<pdfrwt beam="2">  1       -1 0.24642580E-01 0.12904079E+04</pdfrwt>
<totfact> 0.16410333E+01</totfact>
</mgrwt>
</event>
<event>
12    1  0.1519630E-007  0.1217166E+04  0.7818608E-02  0.9097963E-01
          2   -1    0    0  501    0  0.00000000000E+00  0.00000000000E+00  0.17371621253E+04  0.17371621253E+04  0.00000000000E+00 0. -1.
         -2   -1    0    0    0  501 -0.00000000000E+00 -0.00000000000E+00 -0.21320577782E+03  0.21320577782E+03  0.00000000000E+00 0.  1.
         23    2    1    2    0    0  0.29920029321E+02 -0.39622379607E+02  0.76777297474E+03  0.77487395014E+03  0.92136619992E+02 0.  0.
        254    2    1    2    0    0 -0.29920029321E+02  0.39622379607E+02  0.75618337271E+03  0.11754939530E+04  0.89861426605E+03 0.  0.
        -24    2    4    4    0    0 -0.45658002979E+03 -0.41670653649E+01  0.38507294660E+03  0.60269539294E+03  0.80485243604E+02 0.  0.
         24    2    4    4    0    0  0.42666000047E+03  0.43789444971E+02  0.37111042611E+03  0.57279856001E+03  0.80118477840E+02 0.  0.
         13    1    3    3    0    0  0.15484205925E+01 -0.31341627665E+02  0.72827947413E+02  0.79300726071E+02  0.00000000000E+00 0.  1.
        -13    1    3    3    0    0  0.28371608729E+02 -0.82807519417E+01  0.69494502732E+03  0.69557322406E+03  0.00000000000E+00 0. -1.
          2    1    6    6  502    0  0.83626086117E+02  0.59154922683E+01  0.34344107902E+02  0.90597091982E+02  0.00000000000E+00 0. -1.
          1    1    5    5  503    0 -0.11889300773E+02 -0.90169943504E+01  0.30406503926E+02  0.33870594045E+02  0.00000000000E+00 0. -1.
         -2    1    5    5    0  503 -0.44469072902E+03  0.48499289855E+01  0.35466644267E+03  0.56882479890E+03  0.00000000000E+00 0.  1.
         -1    1    6    6    0  502  0.34303391435E+03  0.37873952703E+02  0.33676631821E+03  0.48220146803E+03  0.00000000000E+00 0.  1.
<mgrwt>
<rscale>  0 0.12171656E+04</rscale>
<asrwt>0</asrwt>
<pdfrwt beam="1">  1        2 0.26725570E+00 0.12171656E+04</pdfrwt>
<pdfrwt beam="2">  1       -2 0.32800890E-01 0.12171656E+04</pdfrwt>
<totfact> 0.79897521E+01</totfact>
</mgrwt>
</event>
<event>
12    1  0.1519630E-007  0.1664705E+04  0.7818608E-02  0.8781755E-01
         -1   -1    0    0    0  501 -0.00000000000E+00  0.00000000000E+00  0.14366167876E+04  0.14366167876E+04  0.00000000000E+00 0.  1.
          1   -1    0    0  501    0  0.00000000000E+00 -0.00000000000E+00 -0.48225132087E+03  0.48225132087E+03  0.00000000000E+00 0. -1.
         23    2    1    2    0    0 -0.43852761388E+03  0.17039271741E+03  0.75372312594E+03  0.89326808982E+03  0.92136764818E+02 0.  0.
        254    2    1    2    0    0  0.43852761388E+03 -0.17039271741E+03  0.20064234082E+03  0.10256000187E+04  0.88896451172E+03 0.  0.
        -24    2    4    4    0    0  0.44096719740E+03 -0.14506842474E+02  0.50454684004E+03  0.67488144568E+03  0.78961599955E+02 0.  0.
         24    2    4    4    0    0 -0.24395835211E+01 -0.15588587493E+03 -0.30390449922E+03  0.35071857299E+03  0.79619188809E+02 0.  0.
         11    1    3    3    0    0 -0.43322929671E+03  0.16792659366E+03  0.75568776129E+03  0.88710256281E+03  0.00000000000E+00 0.  1.
        -11    1    3    3    0    0 -0.52983171719E+01  0.24661237466E+01 -0.19646353516E+01  0.61655270053E+01  0.00000000000E+00 0. -1.
          2    1    6    6  502    0  0.81408732545E+01 -0.14218434750E+03 -0.30123277019E+03  0.33320240744E+03  0.00000000000E+00 0. -1.
          1    1    5    5  503    0  0.42789907837E+03 -0.71130010841E+01  0.46196526396E+03  0.62973019712E+03  0.00000000000E+00 0. -1.
         -2    1    5    5    0  503  0.13068119030E+02 -0.73938413895E+01  0.42581576076E+02  0.45151248561E+02  0.00000000000E+00 0.  1.
         -1    1    6    6    0  502 -0.10580456776E+02 -0.13701527436E+02 -0.26717290323E+01  0.17516165553E+02  0.00000000000E+00 0.  1.
<mgrwt>
<rscale>  0 0.16647046E+04</rscale>
<asrwt>0</asrwt>
<pdfrwt beam="1">  1        1 0.74192511E-01 0.16647046E+04</pdfrwt>
<pdfrwt beam="2">  1       -1 0.22101797E+00 0.16647046E+04</pdfrwt>
<totfact> 0.48164522E+00</totfact>
</mgrwt>
</event>
<event>
12    1  0.1519630E-007  0.1040061E+04  0.7818608E-02  0.9265666E-01
         -2   -1    0    0    0  501 -0.00000000000E+00  0.00000000000E+00  0.37325336075E+03  0.37325336075E+03  0.00000000000E+00 0.  1.
          2   -1    0    0  501    0  0.00000000000E+00 -0.00000000000E+00 -0.72452650373E+03  0.72452650373E+03  0.00000000000E+00 0. -1.
         23    2    1    2    0    0  0.45774573628E+02  0.71613067072E+02 -0.78922418095E+02  0.14757362923E+03  0.91244095696E+02 0.  0.
        254    2    1    2    0    0 -0.45774573628E+02 -0.71613067072E+02 -0.27235072488E+03  0.95020623525E+03  0.90636263670E+03 0.  0.
        -24    2    4    4    0    0  0.28643149050E+03 -0.88814335029E+02  0.19872209329E+03  0.36828244282E+03  0.78806741297E+02 0.  0.
         24    2    4    4    0    0 -0.33220606412E+03  0.17201267957E+02 -0.47107281817E+03  0.58192379243E+03  0.77903449970E+02 0.  0.
         13    1    3    3    0    0  0.55709318288E+02  0.90063180283E+01 -0.16949829304E+02  0.58923158622E+02  0.00000000000E+00 0.  1.
        -13    1    3    3    0    0 -0.99347446603E+01  0.62606749044E+02 -0.61972588791E+02  0.88650470607E+02  0.00000000000E+00 0. -1.
          2    1    6    6  502    0 -0.15744237505E+03  0.34661999008E+02 -0.17715161604E+03  0.23952505235E+03  0.00000000000E+00 0. -1.
          1    1    5    5  503    0  0.19447979866E+03 -0.42058718253E+02  0.89914739211E+02  0.21834831851E+03  0.00000000000E+00 0. -1.
         -2    1    5    5    0  503  0.91951691836E+02 -0.46755616776E+02  0.10880735408E+03  0.14993412431E+03  0.00000000000E+00 0.  1.
         -1    1    6    6    0  502 -0.17476368907E+03 -0.17460731051E+02 -0.29392120213E+03  0.34239874008E+03  0.00000000000E+00 0.  1.
<mgrwt>
<rscale>  0 0.10400614E+04</rscale>
<asrwt>0</asrwt>
<pdfrwt beam="1">  1        2 0.11146561E+00 0.10400614E+04</pdfrwt>
<pdfrwt beam="2">  1       -2 0.57423595E-01 0.10400614E+04</pdfrwt>
<totfact> 0.11102506E+02</totfact>
</mgrwt>
</event>
<event>
12    1  0.1519630E-007  0.1502400E+04  0.7818608E-02  0.8882859E-01
         -2   -1    0    0    0  501 -0.00000000000E+00  0.00000000000E+00  0.35096945172E+03  0.35096945172E+03  0.00000000000E+00 0.  1.
          2   -1    0    0  501    0  0.00000000000E+00 -0.00000000000E+00 -0.16078359281E+04  0.16078359281E+04  0.00000000000E+00 0. -1.
         23    2    1    2    0    0  0.24645542021E+03 -0.33430266806E+03 -0.11267176095E+03  0.43970477193E+03  0.90259695961E+02 0.  0.
        254    2    1    2    0    0 -0.24645542021E+03  0.33430266806E+03 -0.11441947154E+04  0.15191006079E+04  0.90883802851E+03 0.  0.
        -24    2    4    4    0    0  0.20851390737E+03 -0.14616737969E+03 -0.60713655276E+03  0.66323225517E+03  0.80120397833E+02 0.  0.
         24    2    4    4    0    0 -0.45496932758E+03  0.48047004775E+03 -0.53705816267E+03  0.85586835272E+03  0.78934221233E+02 0.  0.
         11    1    3    3    0    0  0.19651052534E+03 -0.30950100648E+03 -0.80584078682E+02  0.37536789063E+03  0.00000000000E+00 0. -1.
        -11    1    3    3    0    0  0.49944894871E+02 -0.24801661579E+02 -0.32087682272E+02  0.64336881292E+02  0.00000000000E+00 0.  1.
          4    1    6    6  502    0 -0.28750023372E+03  0.35509527788E+03 -0.35633765343E+03  0.57941829797E+03  0.00000000000E+00 0. -1.
          1    1    5    5  503    0  0.17957006227E+03 -0.14741303222E+03 -0.48595107958E+03  0.53863202752E+03  0.00000000000E+00 0. -1.
         -2    1    5    5    0  503  0.28943845106E+02  0.12456525286E+01 -0.12118547318E+03  0.12460022765E+03  0.00000000000E+00 0.  1.
         -3    1    6    6    0  502 -0.16746909385E+03  0.12537476987E+03 -0.18072050923E+03  0.27645005475E+03  0.00000000000E+00 0.  1.
<mgrwt>
<rscale>  0 0.15023998E+04</rscale>
<asrwt>0</asrwt>
<pdfrwt beam="1">  1        2 0.24735937E+00 0.15023998E+04</pdfrwt>
<pdfrwt beam="2">  1       -2 0.53995301E-01 0.15023998E+04</pdfrwt>
<totfact> 0.34445486E+01</totfact>
</mgrwt>
</event>
<event>
12    1  0.1519630E-007  0.1896822E+04  0.7818608E-02  0.8656440E-01
          2   -1    0    0  501    0  0.00000000000E+00  0.00000000000E+00  0.12780492853E+04  0.12780492853E+04  0.00000000000E+00 0. -1.
         -2   -1    0    0    0  501 -0.00000000000E+00 -0.00000000000E+00 -0.70379366533E+03  0.70379366533E+03  0.00000000000E+00 0.  1.
         23    2    1    2    0    0 -0.57045237511E+03  0.13473693362E+03  0.67599239488E+03  0.89890179807E+03  0.86537685947E+02 0.  0.
        254    2    1    2    0    0  0.57045237511E+03 -0.13473693362E+03 -0.10173677487E+03  0.10829411526E+04  0.90489845568E+03 0.  0.
        -24    2    4    4    0    0 -0.16484565196E+03 -0.95916811882E+02  0.19606399724E+03  0.28452685599E+03  0.78360174793E+02 0.  0.
         24    2    4    4    0    0  0.73529802707E+03 -0.38820121736E+02 -0.29780077211E+03  0.79841429662E+03  0.81301283579E+02 0.  0.
         11    1    3    3    0    0 -0.19127767478E+03  0.57519386250E+01  0.19950127669E+03  0.27644347174E+03  0.00000000000E+00 0.  1.
        -11    1    3    3    0    0 -0.37917470033E+03  0.12898499499E+03  0.47649111818E+03  0.62245832633E+03  0.00000000000E+00 0. -1.
          2    1    6    6  502    0  0.61355990249E+03 -0.21160853296E+02 -0.27753962045E+03  0.67374459298E+03  0.00000000000E+00 0. -1.
          3    1    5    5  503    0 -0.98311221300E+02 -0.96498740652E+02  0.14964521572E+03  0.20339811643E+03  0.00000000000E+00 0. -1.
         -4    1    5    5    0  503 -0.66534430656E+02  0.58192876975E+00  0.46418781526E+02  0.81128739557E+02  0.00000000000E+00 0.  1.
         -1    1    6    6    0  502  0.12173812458E+03 -0.17659268440E+02 -0.20261151665E+02  0.12466970364E+03  0.00000000000E+00 0.  1.
<mgrwt>
<rscale>  0 0.18968215E+04</rscale>
<asrwt>0</asrwt>
<pdfrwt beam="1">  1        2 0.19662297E+00 0.18968215E+04</pdfrwt>
<pdfrwt beam="2">  1       -2 0.10827595E+00 0.18968215E+04</pdfrwt>
<totfact> 0.10890957E+01</totfact>
</mgrwt>
</event>
<event>
12    1  0.1519630E-007  0.2701318E+04  0.7818608E-02  0.8334577E-01
         -1   -1    0    0    0  501 -0.00000000000E+00  0.00000000000E+00  0.76802880834E+03  0.76802880834E+03  0.00000000000E+00 0.  1.
          1   -1    0    0  501    0  0.00000000000E+00 -0.00000000000E+00 -0.23752750064E+04  0.23752750064E+04  0.00000000000E+00 0. -1.
         23    2    1    2    0    0  0.24399625502E+03 -0.17860912150E+03  0.63273694715E+03  0.70709948610E+03  0.90544178149E+02 0.  0.
        254    2    1    2    0    0 -0.24399625502E+03  0.17860912150E+03 -0.22399831452E+04  0.24362043286E+04  0.90891784520E+03 0.  0.
        -24    2    4    4    0    0 -0.31997064311E+03  0.20222259389E+03 -0.29127423028E+03  0.48419394678E+03  0.79548167441E+02 0.  0.
         24    2    4    4    0    0  0.75974388084E+02 -0.23613472395E+02 -0.19487089149E+04  0.19520103818E+04  0.80922135730E+02 0.  0.
         13    1    3    3    0    0  0.98421543226E+02 -0.78148260733E+02  0.16771935416E+03  0.20957989547E+03  0.00000000000E+00 0. -1.
        -13    1    3    3    0    0  0.14557471180E+03 -0.10046086076E+03  0.46501759299E+03  0.49751959062E+03  0.00000000000E+00 0.  1.
          4    1    6    6  502    0  0.44742805312E+02 -0.18308318182E+02 -0.39071802165E+03  0.39369745438E+03  0.00000000000E+00 0. -1.
          3    1    5    5  503    0 -0.67408531270E+02  0.93834792607E+01 -0.64881402986E+02  0.94029549741E+02  0.00000000000E+00 0. -1.
         -4    1    5    5    0  503 -0.25256211184E+03  0.19283911463E+03 -0.22639282729E+03  0.39016439704E+03  0.00000000000E+00 0.  1.
         -3    1    6    6    0  502  0.31231582772E+02 -0.53051542131E+01 -0.15579908932E+04  0.15583129274E+04  0.00000000000E+00 0.  1.
<mgrwt>
<rscale>  0 0.27013179E+04</rscale>
<asrwt>0</asrwt>
<pdfrwt beam="1">  1        1 0.36542692E+00 0.27013179E+04</pdfrwt>
<pdfrwt beam="2">  1       -1 0.11815828E+00 0.27013179E+04</pdfrwt>
<totfact> 0.92711468E-01</totfact>
</mgrwt>
</event>
<event>
12    1  0.1519630E-007  0.1896224E+04  0.7818608E-02  0.8656738E-01
         -2   -1    0    0    0  501 -0.00000000000E+00  0.00000000000E+00  0.57277027841E+03  0.57277027841E+03  0.00000000000E+00 0.  1.
          2   -1    0    0  501    0  0.00000000000E+00 -0.00000000000E+00 -0.15694178690E+04  0.15694178690E+04  0.00000000000E+00 0. -1.
         23    2    1    2    0    0 -0.27412977777E+03 -0.48421844054E+03 -0.92468985649E+03  0.10830941481E+04  0.91798528282E+02 0.  0.
        254    2    1    2    0    0  0.27412977777E+03  0.48421844054E+03 -0.71957734120E+02  0.10590939993E+04  0.89826919720E+03 0.  0.
        -24    2    4    4    0    0  0.32404415182E+03 -0.86825239908E+02 -0.27944379746E+03  0.44396371323E+03  0.80446927303E+02 0.  0.
         24    2    4    4    0    0 -0.49914374041E+02  0.57104368045E+03  0.20748606334E+03  0.61513028608E+03  0.82173430343E+02 0.  0.
         13    1    3    3    0    0 -0.25522262072E+03 -0.47984860721E+03 -0.90338749755E+03  0.10542780671E+04  0.00000000000E+00 0. -1.
        -13    1    3    3    0    0 -0.18907157057E+02 -0.43698333259E+01 -0.21302358935E+02  0.28816081057E+02  0.00000000000E+00 0.  1.
          2    1    6    6  502    0 -0.35584161679E+02  0.76994330557E+02  0.29554841217E+02  0.89821200948E+02  0.00000000000E+00 0. -1.
          1    1    5    5  503    0  0.45347636871E+02 -0.21368931708E+02 -0.10600770500E+02  0.51238810948E+02  0.00000000000E+00 0. -1.
         -2    1    5    5    0  503  0.27869651494E+03 -0.65456308200E+02 -0.26884302696E+03  0.39272490228E+03  0.00000000000E+00 0.  1.
         -1    1    6    6    0  502 -0.14330212362E+02  0.49404934989E+03  0.17793122213E+03  0.52530908513E+03  0.00000000000E+00 0.  1.
<mgrwt>
<rscale>  0 0.18962235E+04</rscale>
<asrwt>0</asrwt>
<pdfrwt beam="1">  1        2 0.24144890E+00 0.18962235E+04</pdfrwt>
<pdfrwt beam="2">  1       -2 0.88118505E-01 0.18962235E+04</pdfrwt>
<totfact> 0.12058909E+01</totfact>
</mgrwt>
</event>
<event>
12    1  0.1880640E-007  0.3201410E+04  0.7818608E-02  0.8188445E-01
          2   -1    0    0  501    0  0.00000000000E+00  0.00000000000E+00  0.23163254906E+04  0.23163254906E+04  0.00000000000E+00 0. -1.
         -2   -1    0    0    0  501 -0.00000000000E+00 -0.00000000000E+00 -0.11061725696E+04  0.11061725696E+04  0.00000000000E+00 0.  1.
         23    2    1    2    0    0 -0.85517544832E+02 -0.16385650184E+03  0.21145333380E+04  0.21248672732E+04  0.98221624630E+02 0.  0.
        254    2    1    2    0    0  0.85517544832E+02  0.16385650184E+03 -0.90438041707E+03  0.12976307870E+04  0.91201947183E+03 0.  0.
        -24    2    4    4    0    0  0.28004861528E+03  0.42435234664E+03 -0.27235897512E+03  0.58238728438E+03  0.80581614934E+02 0.  0.
         24    2    4    4    0    0 -0.19453107044E+03 -0.26049584480E+03 -0.63202144195E+03  0.71524350264E+03  0.80135775220E+02 0.  0.
         13    1    3    3    0    0  0.17594768030E+02 -0.10220169050E+02  0.11456114008E+03  0.11635412556E+03  0.00000000000E+00 0.  1.
        -13    1    3    3    0    0 -0.10311231286E+03 -0.15363633279E+03  0.19999721979E+04  0.20085131477E+04  0.00000000000E+00 0. -1.
          4    1    6    6  502    0 -0.16778000167E+03 -0.25786292100E+03 -0.58929892452E+03  0.66476810801E+03  0.00000000000E+00 0. -1.
          3    1    5    5  503    0  0.27068182621E+03  0.37083479221E+03 -0.23005836414E+03  0.51353086087E+03  0.00000000000E+00 0. -1.
         -4    1    5    5    0  503  0.93667890616E+01  0.53517554426E+02 -0.42300610984E+02  0.68856423511E+02  0.00000000000E+00 0.  1.
         -3    1    6    6    0  502 -0.26751068772E+02 -0.26329237978E+01 -0.42722517422E+02  0.50475394630E+02  0.00000000000E+00 0.  1.
<mgrwt>
<rscale>  0 0.32014095E+04</rscale>
<asrwt>0</asrwt>
<pdfrwt beam="1">  1        2 0.35635777E+00 0.32014095E+04</pdfrwt>
<pdfrwt beam="2">  1       -2 0.17018039E+00 0.32014095E+04</pdfrwt>
<totfact> 0.79396545E-01</totfact>
</mgrwt>
</event>
<event>
12    1  0.1519630E-007  0.1680295E+04  0.7818608E-02  0.8772683E-01
          2   -1    0    0  501    0  0.00000000000E+00  0.00000000000E+00  0.83046898553E+03  0.83046898553E+03  0.00000000000E+00 0. -1.
         -2   -1    0    0    0  501 -0.00000000000E+00 -0.00000000000E+00 -0.84993882700E+03  0.84993882700E+03  0.00000000000E+00 0.  1.
         23    2    1    2    0    0  0.56560071393E+03  0.96626674241E+02  0.16355217621E+03  0.60369381735E+03  0.91956669080E+02 0.  0.
        254    2    1    2    0    0 -0.56560071393E+03 -0.96626674241E+02 -0.18302201767E+03  0.10767139952E+04  0.89251055270E+03 0.  0.
        -24    2    4    4    0    0 -0.37594844963E+03  0.37792364317E+03 -0.14340346265E+03  0.55767679529E+03  0.79217031385E+02 0.  0.
         24    2    4    4    0    0 -0.18965226430E+03 -0.47455031741E+03 -0.39618555019E+02  0.51903719989E+03  0.81633325631E+02 0.  0.
         13    1    3    3    0    0  0.32411743072E+03  0.59192788871E+02  0.14069039037E+03  0.35825923728E+03  0.00000000000E+00 0. -1.
        -13    1    3    3    0    0  0.24148328321E+03  0.37433885370E+02  0.22861785842E+02  0.24543458008E+03  0.00000000000E+00 0.  1.
          2    1    6    6  502    0 -0.99259510151E+01 -0.11093971696E+03  0.11601696554E+01  0.11138891909E+03  0.00000000000E+00 0. -1.
          3    1    5    5  503    0 -0.12581839122E+03  0.17536264376E+03 -0.39158341923E+02  0.21935291231E+03  0.00000000000E+00 0. -1.
         -4    1    5    5    0  503 -0.25013005841E+03  0.20256099941E+03 -0.10424512073E+03  0.33832388298E+03  0.00000000000E+00 0.  1.
         -1    1    6    6    0  502 -0.17972631329E+03 -0.36361060045E+03 -0.40778724674E+02  0.40764828079E+03  0.00000000000E+00 0.  1.
<mgrwt>
<rscale>  0 0.16802950E+04</rscale>
<asrwt>0</asrwt>
<pdfrwt beam="1">  1        2 0.12776446E+00 0.16802950E+04</pdfrwt>
<pdfrwt beam="2">  1       -2 0.13075982E+00 0.16802950E+04</pdfrwt>
<totfact> 0.13357632E+01</totfact>
</mgrwt>
</event>
<event>
12    1  0.1519630E-007  0.1220735E+04  0.7818608E-02  0.9094898E-01
          2   -1    0    0  501    0  0.00000000000E+00  0.00000000000E+00  0.43885070987E+03  0.43885070987E+03  0.00000000000E+00 0. -1.
         -2   -1    0    0    0  501 -0.00000000000E+00 -0.00000000000E+00 -0.84891879712E+03  0.84891879712E+03  0.00000000000E+00 0.  1.
         23    2    1    2    0    0  0.45991535634E+02 -0.10787872690E+03  0.13978793807E+03  0.20339973466E+03  0.89876266952E+02 0.  0.
        254    2    1    2    0    0 -0.45991535634E+02  0.10787872690E+03 -0.54985602533E+03  0.10843697723E+04  0.92723412010E+03 0.  0.
        -24    2    4    4    0    0 -0.24962104391E+03  0.43734252448E+03 -0.44277648721E+03  0.67533297976E+03  0.80277435467E+02 0.  0.
         24    2    4    4    0    0  0.20362950828E+03 -0.32946379758E+03 -0.10707953812E+03  0.40903679257E+03  0.76378659531E+02 0.  0.
         11    1    3    3    0    0  0.47069046849E+02 -0.12163182795E+03  0.11016596173E+03  0.17072297990E+03  0.00000000000E+00 0. -1.
        -11    1    3    3    0    0 -0.10775112144E+01  0.13753101054E+02  0.29621976345E+02  0.32676754759E+02  0.00000000000E+00 0.  1.
          2    1    6    6  502    0  0.42585173082E+02 -0.13683202126E+03 -0.47616918171E+02  0.15100950270E+03  0.00000000000E+00 0. -1.
          3    1    5    5  503    0 -0.11176076392E+03  0.13380242843E+03 -0.12281512312E+03  0.21325363461E+03  0.00000000000E+00 0. -1.
         -4    1    5    5    0  503 -0.13786027999E+03  0.30354009605E+03 -0.31996136408E+03  0.46207934515E+03  0.00000000000E+00 0.  1.
         -1    1    6    6    0  502  0.16104433519E+03 -0.19263177633E+03 -0.59462619953E+02  0.25802728987E+03  0.00000000000E+00 0.  1.
<mgrwt>
<rscale>  0 0.12207352E+04</rscale>
<asrwt>0</asrwt>
<pdfrwt beam="1">  1        2 0.67515494E-01 0.12207352E+04</pdfrwt>
<pdfrwt beam="2">  1       -2 0.13060289E+00 0.12207352E+04</pdfrwt>
<totfact> 0.30254567E+01</totfact>
</mgrwt>
</event>
<event>
12    1  0.1519630E-007  0.1442958E+04  0.7818608E-02  0.8923297E-01
          1   -1    0    0  501    0  0.00000000000E+00  0.00000000000E+00  0.15701308200E+04  0.15701308200E+04  0.00000000000E+00 0. -1.
         -1   -1    0    0    0  501 -0.00000000000E+00 -0.00000000000E+00 -0.33152133953E+03  0.33152133953E+03  0.00000000000E+00 0.  1.
         23    2    1    2    0    0 -0.20357700746E+03 -0.16634723058E+03 -0.72785204204E+02  0.28801632937E+03  0.92416021044E+02 0.  0.
        254    2    1    2    0    0  0.20357700746E+03  0.16634723058E+03  0.13113946846E+04  0.16136358301E+04  0.90274557559E+03 0.  0.
        -24    2    4    4    0    0  0.52949452042E+03  0.20344950351E+03  0.10114695895E+04  0.11624311507E+04  0.80120546066E+02 0.  0.
         24    2    4    4    0    0 -0.32591751296E+03 -0.37102272931E+02  0.29992509510E+03  0.45120467942E+03  0.77664639036E+02 0.  0.
         13    1    3    3    0    0 -0.35104053789E+02 -0.16137441055E+02 -0.46991054342E+02  0.60834782685E+02  0.00000000000E+00 0. -1.
        -13    1    3    3    0    0 -0.16847295367E+03 -0.15020978952E+03 -0.25794149863E+02  0.22718154669E+03  0.00000000000E+00 0.  1.
          4    1    6    6  502    0 -0.15874032755E+03  0.19000526916E+02  0.12640211434E+03  0.20380629559E+03  0.00000000000E+00 0. -1.
          1    1    5    5  503    0  0.37052708671E+03  0.11800518939E+03  0.74854844536E+03  0.84352849493E+03  0.00000000000E+00 0. -1.
         -2    1    5    5    0  503  0.15896743370E+03  0.85444314115E+02  0.26292114419E+03  0.31890265576E+03  0.00000000000E+00 0.  1.
         -3    1    6    6    0  502 -0.16717718541E+03 -0.56102799847E+02  0.17352298076E+03  0.24739838383E+03  0.00000000000E+00 0.  1.
<mgrwt>
<rscale>  0 0.14429579E+04</rscale>
<asrwt>0</asrwt>
<pdfrwt beam="1">  1        1 0.24155858E+00 0.14429579E+04</pdfrwt>
<pdfrwt beam="2">  1       -1 0.51003284E-01 0.14429579E+04</pdfrwt>
<totfact> 0.21970093E+01</totfact>
</mgrwt>
</event>
<event>
12    1  0.1519630E-007  0.2752729E+04  0.7818608E-02  0.8318096E-01
          2   -1    0    0  501    0  0.00000000000E+00  0.00000000000E+00  0.10789358400E+04  0.10789358400E+04  0.00000000000E+00 0. -1.
         -2   -1    0    0    0  501 -0.00000000000E+00 -0.00000000000E+00 -0.17557848216E+04  0.17557848216E+04  0.00000000000E+00 0.  1.
         23    2    1    2    0    0  0.89399136783E+03  0.46679145761E+03  0.41243394520E+03  0.10934648381E+04  0.91917149279E+02 0.  0.
        254    2    1    2    0    0 -0.89399136783E+03 -0.46679145761E+03 -0.10892829268E+04  0.17412558236E+04  0.91012071615E+03 0.  0.
        -24    2    4    4    0    0 -0.83504404133E+03 -0.47501276238E+03 -0.39764997221E+03  0.10428306200E+04  0.80215498262E+02 0.  0.
         24    2    4    4    0    0 -0.58947326504E+02  0.82213047721E+01 -0.69163295458E+03  0.69842520363E+03  0.76806536541E+02 0.  0.
         13    1    3    3    0    0  0.53843195349E+03  0.30269676451E+03  0.29584705053E+03  0.68487938872E+03  0.00000000000E+00 0. -1.
        -13    1    3    3    0    0  0.35555941434E+03  0.16409469310E+03  0.11658689468E+03  0.40858544937E+03  0.00000000000E+00 0.  1.
          2    1    6    6  502    0 -0.30777791745E+02  0.24949663809E+01 -0.62614661085E+03  0.62690754948E+03  0.00000000000E+00 0. -1.
          3    1    5    5  503    0 -0.82460589897E+03 -0.47336080430E+03 -0.38366569901E+03  0.10253022521E+04  0.00000000000E+00 0. -1.
         -4    1    5    5    0  503 -0.10438142356E+02 -0.16519580779E+01 -0.13984273203E+02  0.17528367818E+02  0.00000000000E+00 0.  1.
         -1    1    6    6    0  502 -0.28169534759E+02  0.57263383912E+01 -0.65486343734E+02  0.71517654153E+02  0.00000000000E+00 0.  1.
<mgrwt>
<rscale>  0 0.27527290E+04</rscale>
<asrwt>0</asrwt>
<pdfrwt beam="1">  1        2 0.16599013E+00 0.27527290E+04</pdfrwt>
<pdfrwt beam="2">  1       -2 0.27012074E+00 0.27527290E+04</pdfrwt>
<totfact> 0.94889247E-01</totfact>
</mgrwt>
</event>
<event>
12    1  0.1519630E-007  0.1529415E+04  0.7818608E-02  0.8865124E-01
         -1   -1    0    0    0  501 -0.00000000000E+00  0.00000000000E+00  0.74176938399E+03  0.74176938399E+03  0.00000000000E+00 0.  1.
          1   -1    0    0  501    0  0.00000000000E+00 -0.00000000000E+00 -0.78835506265E+03  0.78835506265E+03  0.00000000000E+00 0. -1.
         23    2    1    2    0    0 -0.14189376522E+02  0.11781843877E+03  0.46871841690E+03  0.49221133947E+03  0.92154899179E+02 0.  0.
        254    2    1    2    0    0  0.14189376522E+02 -0.11781843877E+03 -0.51530409556E+03  0.10379131072E+04  0.89310849520E+03 0.  0.
        -24    2    4    4    0    0  0.17979673952E+02  0.58000690944E+01  0.24614158420E+03  0.26238670677E+03  0.88905539414E+02 0.  0.
         24    2    4    4    0    0 -0.37902974297E+01 -0.12361850786E+03 -0.76144567976E+03  0.77552640040E+03  0.79660358038E+02 0.  0.
         13    1    3    3    0    0 -0.73942303670E+01 -0.13966424582E+02  0.27892345601E+02  0.32058050493E+02  0.00000000000E+00 0. -1.
        -13    1    3    3    0    0 -0.67951461553E+01  0.13178486335E+03  0.44082607130E+03  0.46015328898E+03  0.00000000000E+00 0.  1.
          2    1    6    6  502    0  0.12219481643E+02 -0.10665392779E+03 -0.42770662596E+03  0.44097316691E+03  0.00000000000E+00 0. -1.
          3    1    5    5  503    0 -0.15706759960E+02  0.18896052053E+02  0.15769222586E+02  0.29196429107E+02  0.00000000000E+00 0. -1.
         -4    1    5    5    0  503  0.33686433912E+02 -0.13095982959E+02  0.23037236161E+03  0.23319027766E+03  0.00000000000E+00 0.  1.
         -1    1    6    6    0  502 -0.16009779073E+02 -0.16964580069E+02 -0.33373905380E+03  0.33455323349E+03  0.00000000000E+00 0.  1.
<mgrwt>
<rscale>  0 0.15294151E+04</rscale>
<asrwt>0</asrwt>
<pdfrwt beam="1">  1        1 0.12128539E+00 0.15294151E+04</pdfrwt>
<pdfrwt beam="2">  1       -1 0.11411837E+00 0.15294151E+04</pdfrwt>
<totfact> 0.15278490E+01</totfact>
</mgrwt>
</event>
<event>
12    1  0.1519630E-007  0.2282530E+04  0.7818608E-02  0.8484841E-01
          2   -1    0    0  501    0  0.00000000000E+00  0.00000000000E+00  0.23157815655E+04  0.23157815655E+04  0.00000000000E+00 0.  1.
         -2   -1    0    0    0  501 -0.00000000000E+00 -0.00000000000E+00 -0.56243889628E+03  0.56243889628E+03  0.00000000000E+00 0. -1.
         23    2    1    2    0    0 -0.22494644944E+03  0.52161230147E+03  0.17177041634E+04  0.18114195150E+04  0.89737216253E+02 0.  0.
        254    2    1    2    0    0  0.22494644944E+03 -0.52161230147E+03  0.35638505784E+02  0.10668009468E+04  0.90228258260E+03 0.  0.
        -24    2    4    4    0    0  0.12740945881E+03  0.47332532902E+02 -0.33902133534E+03  0.37394700714E+03  0.80170814319E+02 0.  0.
         24    2    4    4    0    0  0.97536990630E+02 -0.56894483437E+03  0.37465984112E+03  0.69285393968E+03  0.80404577435E+02 0.  0.
         11    1    3    3    0    0 -0.21018583456E+02  0.47439715464E+02  0.25736888051E+03  0.26254723025E+03  0.00000000000E+00 0. -1.
        -11    1    3    3    0    0 -0.20392786598E+03  0.47417258601E+03  0.14603352829E+04  0.15488722847E+04  0.00000000000E+00 0.  1.
          4    1    6    6  502    0  0.44601997920E+02 -0.36397056484E+03  0.27784529276E+03  0.46006729616E+03  0.00000000000E+00 0. -1.
          1    1    5    5  503    0  0.49338960652E+02 -0.10151105093E+02 -0.58788962468E+02  0.77417827927E+02  0.00000000000E+00 0. -1.
         -2    1    5    5    0  503  0.78070498155E+02  0.57483637995E+02 -0.28023237287E+03  0.29652917921E+03  0.00000000000E+00 0.  1.
         -3    1    6    6    0  502  0.52934992710E+02 -0.20497426953E+03  0.96814548363E+02  0.23278664351E+03  0.00000000000E+00 0.  1.
<mgrwt>
<rscale>  0 0.22825298E+04</rscale>
<asrwt>0</asrwt>
<pdfrwt beam="1">  1        2 0.35627408E+00 0.22825298E+04</pdfrwt>
<pdfrwt beam="2">  1       -2 0.86529063E-01 0.22825298E+04</pdfrwt>
<totfact> 0.46637445E+00</totfact>
</mgrwt>
</event>
<event>
12    1  0.1519630E-007  0.2273177E+04  0.7818608E-02  0.8488573E-01
         -2   -1    0    0    0  501 -0.00000000000E+00  0.00000000000E+00  0.63985619279E+03  0.63985619279E+03  0.00000000000E+00 0.  1.
          2   -1    0    0  501    0  0.00000000000E+00 -0.00000000000E+00 -0.20189425815E+04  0.20189425815E+04  0.00000000000E+00 0. -1.
         23    2    1    2    0    0  0.36204793392E+03  0.77836245311E+03 -0.10747732857E+04  0.13784522651E+04  0.89812118597E+02 0.  0.
        254    2    1    2    0    0 -0.36204793392E+03 -0.77836245311E+03 -0.30431310300E+03  0.12803465092E+04  0.89986326963E+03 0.  0.
        -24    2    4    4    0    0  0.26032289195E+03 -0.35450801397E+03  0.37755903165E+02  0.44864458305E+03  0.80078172029E+02 0.  0.
         24    2    4    4    0    0 -0.62237082587E+03 -0.42385443915E+03 -0.34206900616E+03  0.83170192613E+03  0.87857034217E+02 0.  0.
         11    1    3    3    0    0  0.35628585885E+03  0.72321078800E+03 -0.10238436238E+04  0.13031612422E+04  0.00000000000E+00 0. -1.
        -11    1    3    3    0    0  0.57620750660E+01  0.55151665109E+02 -0.50929661925E+02  0.75291022952E+02  0.00000000000E+00 0.  1.
          4    1    6    6  502    0 -0.14067909389E+03 -0.14240113757E+03 -0.86675993207E+02  0.21813165574E+03  0.00000000000E+00 0. -1.
          1    1    5    5  503    0  0.75943746324E+02 -0.50297827072E+02  0.13626484197E+02  0.92103230592E+02  0.00000000000E+00 0. -1.
         -2    1    5    5    0  503  0.18437914563E+03 -0.30421018689E+03  0.24129418967E+02  0.35654135246E+03  0.00000000000E+00 0.  1.
         -3    1    6    6    0  502 -0.48169173199E+03 -0.28145330157E+03 -0.25539301296E+03  0.61357027038E+03  0.00000000000E+00 0.  1.
<mgrwt>
<rscale>  0 0.22731766E+04</rscale>
<asrwt>0</asrwt>
<pdfrwt beam="1">  1        2 0.31060656E+00 0.22731766E+04</pdfrwt>
<pdfrwt beam="2">  1       -2 0.98439413E-01 0.22731766E+04</pdfrwt>
<totfact> 0.50790542E+00</totfact>
</mgrwt>
</event>
<event>
12    1  0.1519630E-007  0.1329496E+04  0.7818608E-02  0.9006496E-01
         -2   -1    0    0    0  501 -0.00000000000E+00  0.00000000000E+00  0.17384705907E+03  0.17384705907E+03  0.00000000000E+00 0.  1.
          2   -1    0    0  501    0  0.00000000000E+00 -0.00000000000E+00 -0.25418323220E+04  0.25418323220E+04  0.00000000000E+00 0. -1.
         23    2    1    2    0    0  0.33900757125E+02  0.29082171518E+03 -0.93549396203E+03  0.98433047617E+03  0.89615857860E+02 0.  0.
        254    2    1    2    0    0 -0.33900757125E+02 -0.29082171518E+03 -0.14324913009E+04  0.17313489049E+04  0.92726003472E+03 0.  0.
        -24    2    4    4    0    0 -0.33220323144E+03 -0.47520860618E+03 -0.67857891978E+03  0.89598053965E+03  0.78291574928E+02 0.  0.
         24    2    4    4    0    0  0.29830247431E+03  0.18438689100E+03 -0.75391238113E+03  0.83536836525E+03  0.80458284177E+02 0.  0.
         13    1    3    3    0    0  0.31085858155E+01  0.44126045878E+02 -0.62112251477E+02  0.76254199977E+02  0.00000000000E+00 0.  1.
        -13    1    3    3    0    0  0.30792171309E+02  0.24669566930E+03 -0.87338171055E+03  0.90807627620E+03  0.00000000000E+00 0. -1.
          2    1    6    6  502    0  0.13966457599E+03  0.41986383616E+02 -0.33366362715E+03  0.36414346936E+03  0.00000000000E+00 0. -1.
          3    1    5    5  503    0 -0.24470547096E+02 -0.20197006318E+02 -0.65725942480E+02  0.72983739657E+02  0.00000000000E+00 0. -1.
         -4    1    5    5    0  503 -0.30773268434E+03 -0.45501159986E+03 -0.61285297729E+03  0.82299679999E+03  0.00000000000E+00 0.  1.
         -1    1    6    6    0  502  0.15863789832E+03  0.14240050738E+03 -0.42024875398E+03  0.47122489589E+03  0.00000000000E+00 0.  1.
<mgrwt>
<rscale>  0 0.13294963E+04</rscale>
<asrwt>0</asrwt>
<pdfrwt beam="1">  1        2 0.39105112E+00 0.13294963E+04</pdfrwt>
<pdfrwt beam="2">  1       -2 0.26745702E-01 0.13294963E+04</pdfrwt>
<totfact> 0.41034434E+01</totfact>
</mgrwt>
</event>
<event>
12    1  0.1519630E-007  0.1482826E+04  0.7818608E-02  0.8895954E-01
         -2   -1    0    0    0  501 -0.00000000000E+00  0.00000000000E+00  0.65542079953E+03  0.65542079953E+03  0.00000000000E+00 0.  1.
          2   -1    0    0  501    0  0.00000000000E+00 -0.00000000000E+00 -0.83868795921E+03  0.83868795921E+03  0.00000000000E+00 0. -1.
         23    2    1    2    0    0  0.32189322454E+03  0.28888790362E+03  0.11227347912E+03  0.45630790272E+03  0.92412656694E+02 0.  0.
        254    2    1    2    0    0 -0.32189322454E+03 -0.28888790362E+03 -0.29554063880E+03  0.10378008560E+04  0.89588776010E+03 0.  0.
        -24    2    4    4    0    0 -0.13115263813E+03 -0.15392683254E+03  0.31316497061E+03  0.38105556746E+03  0.78971908995E+02 0.  0.
         24    2    4    4    0    0 -0.19074058641E+03 -0.13496107107E+03 -0.60870560941E+03  0.65674528855E+03  0.78710819427E+02 0.  0.
         13    1    3    3    0    0  0.16559401955E+03  0.20232762926E+03  0.88711044161E+02  0.27609327813E+03  0.00000000000E+00 0.  1.
        -13    1    3    3    0    0  0.15629920499E+03  0.86560274353E+02  0.23562434955E+02  0.18021462459E+03  0.00000000000E+00 0. -1.
          2    1    6    6  502    0 -0.17782076457E+03 -0.14334241700E+03 -0.53966958520E+03  0.58601240090E+03  0.00000000000E+00 0. -1.
          3    1    5    5  503    0 -0.10921725124E+03 -0.12967107695E+03  0.30229898761E+03  0.34659439418E+03  0.00000000000E+00 0. -1.
         -4    1    5    5    0  503 -0.21935386890E+02 -0.24255755589E+02  0.10865982998E+02  0.34461173279E+02  0.00000000000E+00 0.  1.
         -1    1    6    6    0  502 -0.12919821838E+02  0.83813459240E+01 -0.69036024212E+02  0.70732887646E+02  0.00000000000E+00 0.  1.
<mgrwt>
<rscale>  0 0.14828264E+04</rscale>
<asrwt>0</asrwt>
<pdfrwt beam="1">  1        2 0.12902892E+00 0.14828264E+04</pdfrwt>
<pdfrwt beam="2">  1       -2 0.10083397E+00 0.14828264E+04</pdfrwt>
<totfact> 0.25330317E+01</totfact>
</mgrwt>
</event>
<event>
12    1  0.1519630E-007  0.1828567E+04  0.7818608E-02  0.8691254E-01
         -2   -1    0    0    0  501 -0.00000000000E+00  0.00000000000E+00  0.54283681006E+03  0.54283681006E+03  0.00000000000E+00 0. -1.
          2   -1    0    0  501    0  0.00000000000E+00 -0.00000000000E+00 -0.15398991099E+04  0.15398991099E+04  0.00000000000E+00 0.  1.
         23    2    1    2    0    0 -0.56325720213E+03 -0.78783589399E+02 -0.83064482551E+03  0.10107687406E+04  0.90648172269E+02 0.  0.
        254    2    1    2    0    0  0.56325720213E+03  0.78783589399E+02 -0.16641747428E+03  0.10719671793E+04  0.89328233391E+03 0.  0.
        -24    2    4    4    0    0  0.54906855116E+03 -0.25919919775E+03  0.11690129197E+03  0.62346691783E+03  0.79903614363E+02 0.  0.
         24    2    4    4    0    0  0.14188650974E+02  0.33798278715E+03 -0.28331876625E+03  0.44850026148E+03  0.80307403223E+02 0.  0.
         13    1    3    3    0    0 -0.24090056421E+03 -0.19715465994E+02 -0.42879421125E+03  0.49222581915E+03  0.00000000000E+00 0. -1.
        -13    1    3    3    0    0 -0.32235663792E+03 -0.59068123405E+02 -0.40185061426E+03  0.51854292146E+03  0.00000000000E+00 0.  1.
          4    1    6    6  502    0  0.84127545801E+00  0.24196995096E+03 -0.24476004638E+03  0.34417676449E+03  0.00000000000E+00 0. -1.
          3    1    5    5  503    0  0.52563984757E+03 -0.24601508200E+03  0.12812056731E+03  0.59433622614E+03  0.00000000000E+00 0. -1.
         -4    1    5    5    0  503  0.23428703583E+02 -0.13184115744E+02 -0.11219275344E+02  0.29130691697E+02  0.00000000000E+00 0.  1.
         -3    1    6    6    0  502  0.13347375516E+02  0.96012836186E+02 -0.38558719875E+02  0.10432349699E+03  0.00000000000E+00 0.  1.
<mgrwt>
<rscale>  0 0.18285666E+04</rscale>
<asrwt>0</asrwt>
<pdfrwt beam="1">  1        2 0.23690756E+00 0.18285666E+04</pdfrwt>
<pdfrwt beam="2">  1       -2 0.83513355E-01 0.18285666E+04</pdfrwt>
<totfact> 0.14239219E+01</totfact>
</mgrwt>
</event>
<event>
12    1  0.1519630E-007  0.1600385E+04  0.7818608E-02  0.8820311E-01
          1   -1    0    0  501    0  0.00000000000E+00  0.00000000000E+00  0.54490214803E+03  0.54490214803E+03  0.00000000000E+00 0. -1.
         -1   -1    0    0    0  501 -0.00000000000E+00 -0.00000000000E+00 -0.11750885584E+04  0.11750885584E+04  0.00000000000E+00 0.  1.
         23    2    1    2    0    0  0.25356286406E+02 -0.33594927477E+01  0.37835366021E+03  0.39009169521E+03  0.91464807598E+02 0.  0.
        254    2    1    2    0    0 -0.25356286406E+02  0.33594927477E+01 -0.10085400706E+04  0.13298990112E+04  0.86650105518E+03 0.  0.
        -24    2    4    4    0    0  0.25473514478E+03 -0.30729838493E+03 -0.67671643224E+03  0.79002411916E+03  0.82889612328E+02 0.  0.
         24    2    4    4    0    0 -0.28009143118E+03  0.31065787768E+03 -0.33182363838E+03  0.53987489208E+03  0.79990282735E+02 0.  0.
         13    1    3    3    0    0  0.19118941182E+02 -0.44940850974E+02  0.25859133952E+03  0.26316286758E+03  0.00000000000E+00 0. -1.
        -13    1    3    3    0    0  0.62373452231E+01  0.41581358227E+02  0.11976232068E+03  0.12692882763E+03  0.00000000000E+00 0.  1.
          4    1    6    6  502    0 -0.20532417151E+03  0.27394766823E+03 -0.27360198822E+03  0.43825037170E+03  0.00000000000E+00 0. -1.
          3    1    5    5  503    0  0.20149258287E+03 -0.22929491549E+03 -0.57646396243E+03  0.65229297038E+03  0.00000000000E+00 0. -1.
         -4    1    5    5    0  503  0.53242561910E+02 -0.78003469443E+02 -0.10025246981E+03  0.13773114879E+03  0.00000000000E+00 0.  1.
         -3    1    6    6    0  502 -0.74767259675E+02  0.36710209447E+02 -0.58221650153E+02  0.10162452039E+03  0.00000000000E+00 0.  1.
<mgrwt>
<rscale>  0 0.16003853E+04</rscale>
<asrwt>0</asrwt>
<pdfrwt beam="1">  1        1 0.83831100E-01 0.16003853E+04</pdfrwt>
<pdfrwt beam="2">  1       -1 0.18078286E+00 0.16003853E+04</pdfrwt>
<totfact> 0.77464060E+00</totfact>
</mgrwt>
</event>
<event>
12    1  0.1519630E-007  0.1506578E+04  0.7818608E-02  0.8880091E-01
          1   -1    0    0  501    0  0.00000000000E+00  0.00000000000E+00  0.10039756473E+04  0.10039756473E+04  0.00000000000E+00 0. -1.
         -1   -1    0    0    0  501 -0.00000000000E+00 -0.00000000000E+00 -0.56519693726E+03  0.56519693726E+03  0.00000000000E+00 0.  1.
         23    2    1    2    0    0  0.40328345929E+01  0.15369566113E+02 -0.35678382807E+03  0.36802760803E+03  0.88865814487E+02 0.  0.
        254    2    1    2    0    0 -0.40328345929E+01 -0.15369566113E+02  0.79556253810E+03  0.12011449765E+04  0.89976497781E+03 0.  0.
        -24    2    4    4    0    0 -0.69329196438E+02 -0.13390181851E+02 -0.18602615008E+03  0.21431347040E+03  0.79615957164E+02 0.  0.
         24    2    4    4    0    0  0.65296361845E+02 -0.19793842626E+01  0.98158868818E+03  0.98683150612E+03  0.77798045536E+02 0.  0.
         11    1    3    3    0    0 -0.20414365293E+02  0.36299190217E+02 -0.29899860607E+03  0.30188498464E+03  0.00000000000E+00 0.  1.
        -11    1    3    3    0    0  0.24447199886E+02 -0.20929624104E+02 -0.57785222005E+02  0.66142623395E+02  0.00000000000E+00 0. -1.
          4    1    6    6  502    0  0.13650183455E+01  0.30048152376E+02  0.28692573579E+03  0.28849806342E+03  0.00000000000E+00 0. -1.
          3    1    5    5  503    0 -0.17015353233E+02 -0.14545661414E+02 -0.14151397799E+01  0.22429916010E+02  0.00000000000E+00 0. -1.
         -4    1    5    5    0  503 -0.52313843206E+02  0.11554795635E+01 -0.18461101030E+03  0.19188355439E+03  0.00000000000E+00 0.  1.
         -3    1    6    6    0  502  0.63931343500E+02 -0.32027536638E+02  0.69466295239E+03  0.69833344271E+03  0.00000000000E+00 0.  1.
<mgrwt>
<rscale>  0 0.15065775E+04</rscale>
<asrwt>0</asrwt>
<pdfrwt beam="1">  1        1 0.15445779E+00 0.15065775E+04</pdfrwt>
<pdfrwt beam="2">  1       -1 0.86953375E-01 0.15065775E+04</pdfrwt>
<totfact> 0.18929731E+01</totfact>
</mgrwt>
</event>
<event>
12    1  0.1519630E-007  0.1142703E+04  0.7818608E-02  0.9164542E-01
         -2   -1    0    0    0  501 -0.00000000000E+00  0.00000000000E+00  0.11033457232E+03  0.11033457232E+03  0.00000000000E+00 0.  1.
          2   -1    0    0  501    0  0.00000000000E+00 -0.00000000000E+00 -0.29586588358E+04  0.29586588358E+04  0.00000000000E+00 0. -1.
         23    2    1    2    0    0  0.11173675077E+03 -0.60805571632E+02 -0.15362321024E+03  0.21945712610E+03  0.91536443324E+02 0.  0.
        254    2    1    2    0    0 -0.11173675077E+03  0.60805571632E+02 -0.26947010532E+04  0.28495362820E+04  0.91774769803E+03 0.  0.
        -24    2    4    4    0    0  0.15985006995E+03  0.42474286926E+03 -0.12102902666E+04  0.12951028166E+04  0.80809816134E+02 0.  0.
         24    2    4    4    0    0 -0.27158682072E+03 -0.36393729763E+03 -0.14844107866E+04  0.15544334654E+04  0.81106454974E+02 0.  0.
         13    1    3    3    0    0  0.98286913097E+02 -0.26936946653E+02 -0.15197072946E+03  0.18297819267E+03  0.00000000000E+00 0. -1.
        -13    1    3    3    0    0  0.13449837677E+02 -0.33868624978E+02 -0.16524807851E+01  0.36478933430E+02  0.00000000000E+00 0.  1.
          2    1    6    6  502    0 -0.89074547995E+02 -0.10551222926E+03 -0.33669619756E+03  0.36391130111E+03  0.00000000000E+00 0. -1.
          1    1    5    5  503    0  0.76140196984E+02  0.17280488805E+03 -0.61403740926E+03  0.64241793165E+03  0.00000000000E+00 0. -1.
         -2    1    5    5    0  503  0.83709872965E+02  0.25193798121E+03 -0.59625285734E+03  0.65268488499E+03  0.00000000000E+00 0.  1.
         -1    1    6    6    0  502 -0.18251227273E+03 -0.25842506836E+03 -0.11477145891E+04  0.11905221643E+04  0.00000000000E+00 0.  1.
<mgrwt>
<rscale>  0 0.11427027E+04</rscale>
<asrwt>0</asrwt>
<pdfrwt beam="1">  1        2 0.45517826E+00 0.11427027E+04</pdfrwt>
<pdfrwt beam="2">  1       -2 0.16974550E-01 0.11427027E+04</pdfrwt>
<totfact> 0.52865420E+01</totfact>
</mgrwt>
</event>
<event>
12    1  0.1519630E-007  0.2034322E+04  0.7818608E-02  0.8590740E-01
          1   -1    0    0  501    0  0.00000000000E+00  0.00000000000E+00  0.55959161773E+03  0.55959161773E+03  0.00000000000E+00 0. -1.
         -1   -1    0    0    0  501 -0.00000000000E+00 -0.00000000000E+00 -0.18488786024E+04  0.18488786024E+04  0.00000000000E+00 0.  1.
         23    2    1    2    0    0 -0.26302836506E+03 -0.34162146609E+03 -0.13560772953E+04  0.14256987475E+04  0.88216443003E+02 0.  0.
        254    2    1    2    0    0  0.26302836506E+03  0.34162146609E+03  0.66790310600E+02  0.98277147268E+03  0.88061891588E+03 0.  0.
        -24    2    4    4    0    0 -0.20413376052E+03  0.18177711909E+03  0.31479855398E+03  0.42462180225E+03  0.80573147779E+02 0.  0.
         24    2    4    4    0    0  0.46716212558E+03  0.15984434699E+03 -0.24800824338E+03  0.55814967044E+03  0.78944911033E+02 0.  0.
         11    1    3    3    0    0 -0.13239863192E+02 -0.46652056142E+02 -0.23225388537E+03  0.23726267214E+03  0.00000000000E+00 0. -1.
        -11    1    3    3    0    0 -0.24978850187E+03 -0.29496940994E+03 -0.11238234099E+04  0.11884360753E+04  0.00000000000E+00 0.  1.
          4    1    6    6  502    0  0.89440715254E+02  0.88940454401E+00 -0.32770037616E+02  0.95259162031E+02  0.00000000000E+00 0. -1.
          1    1    5    5  503    0 -0.12186932858E+03  0.15672834570E+03  0.20865479852E+03  0.28801516026E+03  0.00000000000E+00 0. -1.
         -2    1    5    5    0  503 -0.82264431943E+02  0.25048773395E+02  0.10614375546E+03  0.13660664199E+03  0.00000000000E+00 0.  1.
         -3    1    6    6    0  502  0.37772141033E+03  0.15895494245E+03 -0.21523820577E+03  0.46289050841E+03  0.00000000000E+00 0.  1.
<mgrwt>
<rscale>  0 0.20343225E+04</rscale>
<asrwt>0</asrwt>
<pdfrwt beam="1">  1        1 0.86091017E-01 0.20343225E+04</pdfrwt>
<pdfrwt beam="2">  1       -1 0.28444287E+00 0.20343225E+04</pdfrwt>
<totfact> 0.14588471E+00</totfact>
</mgrwt>
</event>
<event>
12    1  0.1519630E-007  0.2640347E+04  0.7818608E-02  0.8354624E-01
         -1   -1    0    0    0  501 -0.00000000000E+00  0.00000000000E+00  0.11098400339E+04  0.11098400339E+04  0.00000000000E+00 0.  1.
          1   -1    0    0  501    0  0.00000000000E+00 -0.00000000000E+00 -0.15703684084E+04  0.15703684084E+04  0.00000000000E+00 0. -1.
         23    2    1    2    0    0 -0.55604169925E+02 -0.68547630185E+01 -0.13843886017E+04  0.13876755424E+04  0.77283885912E+02 0.  0.
        254    2    1    2    0    0  0.55604169925E+02  0.68547630185E+01  0.92386022719E+03  0.12925329000E+04  0.90221104330E+03 0.  0.
        -24    2    4    4    0    0  0.43654886017E+03 -0.74738712569E+02  0.26373095915E+03  0.52148747119E+03  0.78958098518E+02 0.  0.
         24    2    4    4    0    0 -0.38094469025E+03  0.81593475588E+02  0.66012926804E+03  0.77104542878E+03  0.83450886391E+02 0.  0.
         13    1    3    3    0    0  0.14098979215E+02 -0.13080556949E+02 -0.55726900784E+03  0.55760077948E+03  0.00000000000E+00 0.  1.
        -13    1    3    3    0    0 -0.69703149140E+02  0.62257939307E+01 -0.82711959384E+03  0.83007476291E+03  0.00000000000E+00 0. -1.
          2    1    6    6  502    0 -0.25544726756E+03  0.14246247651E+02  0.41378416627E+03  0.48649110818E+03  0.00000000000E+00 0. -1.
          1    1    5    5  503    0  0.33718720100E+03 -0.27519690874E+02  0.21726941757E+03  0.40206783223E+03  0.00000000000E+00 0. -1.
         -4    1    5    5    0  503  0.99361659172E+02 -0.47219021695E+02  0.46461541576E+02  0.11941963896E+03  0.00000000000E+00 0.  1.
         -1    1    6    6    0  502 -0.12549742268E+03  0.67347227936E+02  0.24634510177E+03  0.28455432061E+03  0.00000000000E+00 0.  1.
<mgrwt>
<rscale>  0 0.26403467E+04</rscale>
<asrwt>0</asrwt>
<pdfrwt beam="1">  1        1 0.24159514E+00 0.26403467E+04</pdfrwt>
<pdfrwt beam="2">  1       -1 0.17074462E+00 0.26403467E+04</pdfrwt>
<totfact> 0.12472605E+00</totfact>
</mgrwt>
</event>
<event>
12    1  0.1519630E-007  0.1463388E+04  0.7818608E-02  0.8909171E-01
         -2   -1    0    0    0  501 -0.00000000000E+00  0.00000000000E+00  0.53143309129E+03  0.53143309129E+03  0.00000000000E+00 0.  1.
          2   -1    0    0  501    0  0.00000000000E+00 -0.00000000000E+00 -0.10074193623E+04  0.10074193623E+04  0.00000000000E+00 0. -1.
         23    2    1    2    0    0 -0.22409820252E+03 -0.38701055585E+03 -0.13202807021E+03  0.48023000521E+03  0.11485761562E+03 0.  0.
        254    2    1    2    0    0  0.22409820252E+03  0.38701055585E+03 -0.34395820076E+03  0.10586224483E+04  0.89575502764E+03 0.  0.
        -24    2    4    4    0    0  0.41875953197E+03 -0.11176391349E+03 -0.51592606613E+02  0.44342624997E+03  0.78194143889E+02 0.  0.
         24    2    4    4    0    0 -0.19466132945E+03  0.49877446934E+03 -0.29236559415E+03  0.61519619836E+03  0.79496650158E+02 0.  0.
         13    1    3    3    0    0 -0.21302527107E+02 -0.18134915314E+02  0.18092339129E+02  0.33316745786E+02  0.00000000000E+00 0.  1.
        -13    1    3    3    0    0 -0.20279567541E+03 -0.36887564054E+03 -0.15012040933E+03  0.44691325942E+03  0.00000000000E+00 0. -1.
          2    1    6    6  502    0 -0.11661349825E+03  0.37086829934E+03 -0.23780451172E+03  0.45573346292E+03  0.00000000000E+00 0. -1.
          3    1    5    5  503    0  0.24578043541E+03 -0.90972514916E+02 -0.12674719043E+01  0.26207942954E+03  0.00000000000E+00 0. -1.
         -4    1    5    5    0  503  0.17297909655E+03 -0.20791398572E+02 -0.50325134709E+02  0.18134682044E+03  0.00000000000E+00 0.  1.
         -1    1    6    6    0  502 -0.78047831196E+02  0.12790617000E+03 -0.54561082431E+02  0.15946273544E+03  0.00000000000E+00 0.  1.
<mgrwt>
<rscale>  0 0.14633878E+04</rscale>
<asrwt>0</asrwt>
<pdfrwt beam="1">  1        2 0.15498759E+00 0.14633878E+04</pdfrwt>
<pdfrwt beam="2">  1       -2 0.81758937E-01 0.14633878E+04</pdfrwt>
<totfact> 0.31774202E+01</totfact>
</mgrwt>
</event>
<event>
12    1  0.1519630E-007  0.1900937E+04  0.7818608E-02  0.8654390E-01
         -1   -1    0    0    0  501 -0.00000000000E+00  0.00000000000E+00  0.16966245239E+04  0.16966245239E+04  0.00000000000E+00 0.  1.
          1   -1    0    0  501    0  0.00000000000E+00 -0.00000000000E+00 -0.53246323101E+03  0.53246323101E+03  0.00000000000E+00 0. -1.
         23    2    1    2    0    0 -0.59419887761E+03 -0.33510364388E+03  0.15261562926E+03  0.70496763455E+03  0.91219938444E+02 0.  0.
        254    2    1    2    0    0  0.59419887761E+03  0.33510364388E+03  0.10115456637E+04  0.15241201204E+04  0.91342802313E+03 0.  0.
        -24    2    4    4    0    0 -0.21723891023E+03  0.21705759415E+03  0.28117720644E+03  0.42290149610E+03  0.74015611114E+02 0.  0.
         24    2    4    4    0    0  0.81143778784E+03  0.11804604974E+03  0.73036845722E+03  0.11012186243E+04  0.82935045771E+02 0.  0.
         11    1    3    3    0    0 -0.24610146109E+03 -0.16065577718E+03  0.10775114597E+03  0.31302798173E+03  0.00000000000E+00 0. -1.
        -11    1    3    3    0    0 -0.34809741652E+03 -0.17444786670E+03  0.44864483290E+02  0.39193965282E+03  0.00000000000E+00 0.  1.
          2    1    6    6  502    0  0.24844089364E+03 -0.21642318140E+01  0.21624803218E+03  0.32937937542E+03  0.00000000000E+00 0. -1.
          1    1    5    5  503    0 -0.20057166001E+03  0.22086013484E+03  0.27071763246E+03  0.40286005819E+03  0.00000000000E+00 0. -1.
         -2    1    5    5    0  503 -0.16667250219E+02 -0.38025406959E+01  0.10459573982E+02  0.20041437910E+02  0.00000000000E+00 0.  1.
         -1    1    6    6    0  502  0.56299689420E+03  0.12021028155E+03  0.51412042504E+03  0.77183924888E+03  0.00000000000E+00 0.  1.
<mgrwt>
<rscale>  0 0.19009368E+04</rscale>
<asrwt>0</asrwt>
<pdfrwt beam="1">  1        1 0.81917421E-01 0.19009368E+04</pdfrwt>
<pdfrwt beam="2">  1       -1 0.26101915E+00 0.19009368E+04</pdfrwt>
<totfact> 0.22451218E+00</totfact>
</mgrwt>
</event>
<event>
12    1  0.1583988E-007  0.1470692E+04  0.7818608E-02  0.8904180E-01
          2   -1    0    0  501    0  0.00000000000E+00  0.00000000000E+00  0.11805910219E+04  0.11805910219E+04  0.00000000000E+00 0. -1.
         -2   -1    0    0    0  501 -0.00000000000E+00 -0.00000000000E+00 -0.45801934085E+03  0.45801934085E+03  0.00000000000E+00 0.  1.
         23    2    1    2    0    0  0.39168088776E+03  0.31061792352E+02 -0.64343737587E+01  0.40360085186E+03  0.92051581620E+02 0.  0.
        254    2    1    2    0    0 -0.39168088776E+03 -0.31061792352E+02  0.72900605479E+03  0.12350095109E+04  0.91619861998E+03 0.  0.
        -24    2    4    4    0    0  0.19479480582E+03 -0.28221365408E+03  0.29416756273E+03  0.45886179815E+03  0.80187479780E+02 0.  0.
         24    2    4    4    0    0 -0.58647569358E+03  0.25115186173E+03  0.43483849206E+03  0.77614771272E+03  0.79308013350E+02 0.  0.
         11    1    3    3    0    0  0.19669014462E+03  0.46330160688E+02  0.31076688868E+02  0.20444866684E+03  0.00000000000E+00 0. -1.
        -11    1    3    3    0    0  0.19499074314E+03 -0.15268368336E+02 -0.37511062626E+02  0.19915218502E+03  0.00000000000E+00 0.  1.
          4    1    6    6  502    0 -0.15896363051E+02 -0.36887305624E+01  0.31102790024E+01  0.16612493096E+02  0.00000000000E+00 0. -1.
          1    1    5    5  503    0  0.11455176863E+02  0.36342938911E+01  0.15211349172E+02  0.19385930792E+02  0.00000000000E+00 0. -1.
         -2    1    5    5    0  503  0.18333962896E+03 -0.28584794797E+03  0.27895621356E+03  0.43947586736E+03  0.00000000000E+00 0.  1.
         -3    1    6    6    0  502 -0.57057933053E+03  0.25484059229E+03  0.43172821306E+03  0.75953521963E+03  0.00000000000E+00 0.  1.
<mgrwt>
<rscale>  0 0.14706917E+04</rscale>
<asrwt>0</asrwt>
<pdfrwt beam="1">  1        2 0.18162939E+00 0.14706917E+04</pdfrwt>
<pdfrwt beam="2">  1       -2 0.70464514E-01 0.14706917E+04</pdfrwt>
<totfact> 0.34520657E+01</totfact>
</mgrwt>
</event>
<event>
12    1  0.1519630E-007  0.2072327E+04  0.7818608E-02  0.8573533E-01
          2   -1    0    0  501    0  0.00000000000E+00  0.00000000000E+00  0.15975632928E+04  0.15975632928E+04  0.00000000000E+00 0. -1.
         -2   -1    0    0    0  501 -0.00000000000E+00 -0.00000000000E+00 -0.67204511759E+03  0.67204511759E+03  0.00000000000E+00 0.  1.
         23    2    1    2    0    0 -0.32226813525E+03  0.49630129702E+03 -0.27590566042E+03  0.65921239504E+03  0.90913804796E+02 0.  0.
        254    2    1    2    0    0  0.32226813525E+03 -0.49630129702E+03  0.12014238357E+04  0.16103960154E+04  0.89430663926E+03 0.  0.
        -24    2    4    4    0    0  0.51011315898E+03 -0.60980401868E+03  0.10896012646E+04  0.13510262378E+04  0.77230844655E+02 0.  0.
         24    2    4    4    0    0 -0.18784502373E+03  0.11350272167E+03  0.11182257108E+03  0.25936977754E+03  0.81238989010E+02 0.  0.
         13    1    3    3    0    0 -0.59245661232E+02  0.10191322553E+03 -0.17099097021E+02  0.11911646834E+03  0.00000000000E+00 0. -1.
        -13    1    3    3    0    0 -0.26302247402E+03  0.39438807149E+03 -0.25880656340E+03  0.54009592670E+03  0.00000000000E+00 0.  1.
          2    1    6    6  502    0 -0.18091992368E+02 -0.12980302491E+02  0.12482740263E+02  0.25526990521E+02  0.00000000000E+00 0. -1.
          1    1    5    5  503    0  0.31018833630E+03 -0.41642755482E+03  0.74670164172E+03  0.90950099183E+03  0.00000000000E+00 0. -1.
         -2    1    5    5    0  503  0.19992482268E+03 -0.19337646386E+03  0.34289962287E+03  0.44152524601E+03  0.00000000000E+00 0.  1.
         -1    1    6    6    0  502 -0.16975303136E+03  0.12648302416E+03  0.99339830817E+02  0.23384278702E+03  0.00000000000E+00 0.  1.
<mgrwt>
<rscale>  0 0.20723268E+04</rscale>
<asrwt>0</asrwt>
<pdfrwt beam="1">  1        2 0.24577897E+00 0.20723268E+04</pdfrwt>
<pdfrwt beam="2">  1       -2 0.10339156E+00 0.20723268E+04</pdfrwt>
<totfact> 0.78826166E+00</totfact>
</mgrwt>
</event>
<event>
12    1  0.1519630E-007  0.1621857E+04  0.7818608E-02  0.8807232E-01
         -1   -1    0    0    0  501 -0.00000000000E+00  0.00000000000E+00  0.19871302025E+03  0.19871302025E+03  0.00000000000E+00 0.  1.
          1   -1    0    0  501    0  0.00000000000E+00 -0.00000000000E+00 -0.33093191858E+04  0.33093191858E+04  0.00000000000E+00 0. -1.
         23    2    1    2    0    0  0.11221665812E+03  0.13786150386E+03 -0.22378596243E+04  0.22465762279E+04  0.86548697373E+02 0.  0.
        254    2    1    2    0    0 -0.11221665812E+03 -0.13786150386E+03 -0.87274654122E+03  0.12614559781E+04  0.89330078192E+03 0.  0.
        -24    2    4    4    0    0  0.23766952795E+03 -0.72795181234E+02  0.53474596390E+02  0.26607395983E+03  0.78421149659E+02 0.  0.
         24    2    4    4    0    0 -0.34988618606E+03 -0.65066322624E+02 -0.92622113761E+03  0.99538201831E+03  0.79030355485E+02 0.  0.
         11    1    3    3    0    0  0.93365325719E+01  0.55223942120E+02 -0.38872333337E+03  0.39273742441E+03  0.00000000000E+00 0.  1.
        -11    1    3    3    0    0  0.10288012554E+03  0.82637561738E+02 -0.18491362910E+04  0.18538388035E+04  0.00000000000E+00 0. -1.
          2    1    6    6  502    0 -0.18119211522E+02  0.80095886708E+01 -0.22831855476E+02  0.30228346983E+02  0.00000000000E+00 0. -1.
          3    1    5    5  503    0  0.88403865896E+02  0.11519079137E+02  0.21035011697E+02  0.91599150687E+02  0.00000000000E+00 0. -1.
         -4    1    5    5    0  503  0.14926566205E+03 -0.84314260371E+02  0.32439584693E+02  0.17447480914E+03  0.00000000000E+00 0.  1.
         -1    1    6    6    0  502 -0.33176697454E+03 -0.73075911295E+02 -0.90338928213E+03  0.96515367133E+03  0.00000000000E+00 0.  1.
<mgrwt>
<rscale>  0 0.16218567E+04</rscale>
<asrwt>0</asrwt>
<pdfrwt beam="1">  1        1 0.50912602E+00 0.16218567E+04</pdfrwt>
<pdfrwt beam="2">  1       -1 0.30571235E-01 0.16218567E+04</pdfrwt>
<totfact> 0.33460114E+00</totfact>
</mgrwt>
</event>
<event>
12    1  0.1519630E-007  0.1429904E+04  0.7818608E-02  0.8932452E-01
         -2   -1    0    0    0  501 -0.00000000000E+00  0.00000000000E+00  0.11873456109E+04  0.11873456109E+04  0.00000000000E+00 0. -1.
          2   -1    0    0  501    0  0.00000000000E+00 -0.00000000000E+00 -0.43050358657E+03  0.43050358657E+03  0.00000000000E+00 0.  1.
         23    2    1    2    0    0 -0.17652628004E+03 -0.14695137685E+03 -0.16908108813E+03  0.29855563855E+03  0.88265623266E+02 0.  0.
        254    2    1    2    0    0  0.17652628004E+03  0.14695137685E+03  0.92592311246E+03  0.13192935589E+04  0.91128790715E+03 0.  0.
        -24    2    4    4    0    0 -0.32423248062E+03  0.12465103217E+03  0.14093635163E+03  0.38446709140E+03  0.85365729947E+02 0.  0.
         24    2    4    4    0    0  0.50075876066E+03  0.22300344673E+02  0.78498676083E+03  0.93482646751E+03  0.80247541591E+02 0.  0.
         13    1    3    3    0    0 -0.78632995825E+02 -0.14200755805E+02 -0.41558219544E+02  0.90066059698E+02  0.00000000000E+00 0. -1.
        -13    1    3    3    0    0 -0.97893284212E+02 -0.13275062104E+03 -0.12752286858E+03  0.20848957886E+03  0.00000000000E+00 0.  1.
          4    1    6    6  502    0  0.19565675656E+03 -0.22630105167E+02  0.26351345294E+03  0.32898788416E+03  0.00000000000E+00 0. -1.
          3    1    5    5  503    0 -0.18240188460E+03  0.10993257167E+03  0.10484850280E+03  0.23737907735E+03  0.00000000000E+00 0. -1.
         -4    1    5    5    0  503 -0.14183059602E+03  0.14718460499E+02  0.36087848826E+02  0.14708801406E+03  0.00000000000E+00 0.  1.
         -3    1    6    6    0  502  0.30510200410E+03  0.44930449839E+02  0.52147330789E+03  0.60583858335E+03  0.00000000000E+00 0.  1.
<mgrwt>
<rscale>  0 0.14299043E+04</rscale>
<asrwt>0</asrwt>
<pdfrwt beam="1">  1        2 0.66231321E-01 0.14299043E+04</pdfrwt>
<pdfrwt beam="2">  1       -2 0.18266855E+00 0.14299043E+04</pdfrwt>
<totfact> 0.12335444E+01</totfact>
</mgrwt>
</event>
<event>
12    1  0.1519630E-007  0.1562796E+04  0.7818608E-02  0.8843735E-01
          2   -1    0    0  501    0  0.00000000000E+00  0.00000000000E+00  0.16159378713E+04  0.16159378713E+04  0.00000000000E+00 0. -1.
         -2   -1    0    0    0  501 -0.00000000000E+00 -0.00000000000E+00 -0.37785049704E+03  0.37785049704E+03  0.00000000000E+00 0.  1.
         23    2    1    2    0    0  0.91006263760E+02  0.36333060642E+03  0.89680251028E+03  0.97602433341E+03  0.89874842763E+02 0.  0.
        254    2    1    2    0    0 -0.91006263760E+02 -0.36333060642E+03  0.34128486398E+03  0.10177640349E+04  0.88265338768E+03 0.  0.
        -24    2    4    4    0    0  0.20654228769E+02  0.21538186101E+03 -0.12371942725E+03  0.26262150896E+03  0.82750329722E+02 0.  0.
         24    2    4    4    0    0 -0.11166049253E+03 -0.57871246744E+03  0.46500429122E+03  0.75514252596E+03  0.81455865930E+02 0.  0.
         13    1    3    3    0    0  0.20287083111E+02  0.46268269749E+02  0.60350449028E+02  0.78705115619E+02  0.00000000000E+00 0.  1.
        -13    1    3    3    0    0  0.70719180648E+02  0.31706233667E+03  0.83645206125E+03  0.89731921779E+03  0.00000000000E+00 0. -1.
          2    1    6    6  502    0 -0.50327524219E+02 -0.10335194295E+03  0.75487795079E+02  0.13752414701E+03  0.00000000000E+00 0. -1.
          3    1    5    5  503    0  0.45538661931E+02  0.81491585091E+02 -0.33114176722E+02  0.99051485961E+02  0.00000000000E+00 0. -1.
         -4    1    5    5    0  503 -0.24884433162E+02  0.13389027592E+03 -0.90605250526E+02  0.16357002300E+03  0.00000000000E+00 0.  1.
         -1    1    6    6    0  502 -0.61332968310E+02 -0.47536052448E+03  0.38951649615E+03  0.61761837894E+03  0.00000000000E+00 0.  1.
<mgrwt>
<rscale>  0 0.15627961E+04</rscale>
<asrwt>0</asrwt>
<pdfrwt beam="1">  1        2 0.24860582E+00 0.15627961E+04</pdfrwt>
<pdfrwt beam="2">  1       -2 0.58130847E-01 0.15627961E+04</pdfrwt>
<totfact> 0.29085776E+01</totfact>
</mgrwt>
</event>
<event>
12    1  0.1519630E-007  0.1431474E+04  0.7818608E-02  0.8931346E-01
          2   -1    0    0  501    0  0.00000000000E+00  0.00000000000E+00  0.11700934616E+04  0.11700934616E+04  0.00000000000E+00 0. -1.
         -2   -1    0    0    0  501 -0.00000000000E+00 -0.00000000000E+00 -0.43781056402E+03  0.43781056402E+03  0.00000000000E+00 0.  1.
         23    2    1    2    0    0 -0.27166483168E+03 -0.11248220791E+03  0.56115697510E+03  0.64162287335E+03  0.10163037455E+03 0.  0.
        254    2    1    2    0    0  0.27166483168E+03  0.11248220791E+03  0.17112592252E+03  0.96628115232E+03  0.90441204996E+03 0.  0.
        -24    2    4    4    0    0  0.33690459316E+03 -0.26598698635E+03 -0.14861823093E+03  0.46143886903E+03  0.81145976420E+02 0.  0.
         24    2    4    4    0    0 -0.65239761486E+02  0.37846919425E+03  0.31974415345E+03  0.50484228329E+03  0.71653679980E+02 0.  0.
         13    1    3    3    0    0 -0.23771550282E+03 -0.11522445408E+03  0.54098349455E+03  0.60203693946E+03  0.00000000000E+00 0. -1.
        -13    1    3    3    0    0 -0.33949328862E+02  0.27422461724E+01  0.20173480552E+02  0.39585933889E+02  0.00000000000E+00 0.  1.
          2    1    6    6  502    0 -0.36465276262E+02  0.16843065340E+03  0.18897687102E+03  0.25575546750E+03  0.00000000000E+00 0. -1.
          3    1    5    5  503    0  0.63944907875E+02 -0.21622057099E+02 -0.43464559551E+02  0.80284696756E+02  0.00000000000E+00 0. -1.
         -4    1    5    5    0  503  0.27295968529E+03 -0.24436492925E+03 -0.10515367138E+03  0.38115417228E+03  0.00000000000E+00 0.  1.
         -1    1    6    6    0  502 -0.28774485224E+02  0.21003854086E+03  0.13076728242E+03  0.24908681578E+03  0.00000000000E+00 0.  1.
<mgrwt>
<rscale>  0 0.14314738E+04</rscale>
<asrwt>0</asrwt>
<pdfrwt beam="1">  1        2 0.18001438E+00 0.14314738E+04</pdfrwt>
<pdfrwt beam="2">  1       -2 0.67355472E-01 0.14314738E+04</pdfrwt>
<totfact> 0.38757723E+01</totfact>
</mgrwt>
</event>
<event>
12    1  0.1519630E-007  0.4243628E+04  0.7818608E-02  0.7957125E-01
          2   -1    0    0  501    0  0.00000000000E+00  0.00000000000E+00  0.19899825243E+04  0.19899825243E+04  0.00000000000E+00 0. -1.
         -2   -1    0    0    0  501 -0.00000000000E+00 -0.00000000000E+00 -0.22623791605E+04  0.22623791605E+04  0.00000000000E+00 0.  1.
         23    2    1    2    0    0  0.97397441018E+03  0.12276390807E+04  0.11610257080E+04  0.19522707881E+04  0.87502407244E+02 0.  0.
        254    2    1    2    0    0 -0.97397441018E+03 -0.12276390807E+04 -0.14334223442E+04  0.23000908967E+04  0.88317305898E+03 0.  0.
        -24    2    4    4    0    0  0.58575321991E+02 -0.55246420967E+03 -0.48730719274E+03  0.74333539598E+03  0.80196256217E+02 0.  0.
         24    2    4    4    0    0 -0.10325497322E+04 -0.67517487103E+03 -0.94611515148E+03  0.15567555007E+04  0.79584881314E+02 0.  0.
         13    1    3    3    0    0  0.37153119469E+03  0.51335671432E+03  0.50987034972E+03  0.81335005889E+03  0.00000000000E+00 0. -1.
        -13    1    3    3    0    0  0.60244321549E+03  0.71428236637E+03  0.65115535827E+03  0.11389207292E+04  0.00000000000E+00 0.  1.
          2    1    6    6  502    0 -0.39546862185E+03 -0.30203824374E+03 -0.36312584722E+03  0.61602184415E+03  0.00000000000E+00 0. -1.
          1    1    5    5  503    0 -0.10508460830E+02 -0.12454049517E+03 -0.14180496907E+03  0.18902225250E+03  0.00000000000E+00 0. -1.
         -2    1    5    5    0  503  0.69083782821E+02 -0.42792371449E+03 -0.34550222367E+03  0.55431314348E+03  0.00000000000E+00 0.  1.
         -1    1    6    6    0  502 -0.63708111031E+03 -0.37313662729E+03 -0.58298930426E+03  0.94073365658E+03  0.00000000000E+00 0.  1.
<mgrwt>
<rscale>  0 0.42436282E+04</rscale>
<asrwt>0</asrwt>
<pdfrwt beam="1">  1        2 0.30615116E+00 0.42436282E+04</pdfrwt>
<pdfrwt beam="2">  1       -2 0.34805833E+00 0.42436282E+04</pdfrwt>
<totfact> 0.83763897E-02</totfact>
</mgrwt>
</event>
<event>
12    1  0.1519630E-007  0.2259054E+04  0.7818608E-02  0.8494243E-01
         -2   -1    0    0    0  501 -0.00000000000E+00  0.00000000000E+00  0.11360958142E+04  0.11360958142E+04  0.00000000000E+00 0.  1.
          2   -1    0    0  501    0  0.00000000000E+00 -0.00000000000E+00 -0.11229956921E+04  0.11229956921E+04  0.00000000000E+00 0. -1.
         23    2    1    2    0    0 -0.39391357299E+03  0.56142012940E+03 -0.64758377924E+03  0.94720210535E+03  0.86409562948E+02 0.  0.
        254    2    1    2    0    0  0.39391357299E+03 -0.56142012940E+03  0.66068390135E+03  0.13118894010E+04  0.90232484073E+03 0.  0.
        -24    2    4    4    0    0  0.18945269102E+03  0.91533792091E+02  0.57543425346E+03  0.61792144599E+03  0.80197108007E+02 0.  0.
         24    2    4    4    0    0  0.20446088197E+03 -0.65295392149E+03  0.85249647893E+02  0.69396795498E+03  0.78555357745E+02 0.  0.
         11    1    3    3    0    0 -0.15948695612E+02  0.36835737735E+02 -0.15576677093E+02  0.43056536501E+02  0.00000000000E+00 0.  1.
        -11    1    3    3    0    0 -0.37796487738E+03  0.52458439167E+03 -0.63200710215E+03  0.90414556885E+03  0.00000000000E+00 0. -1.
          4    1    6    6  502    0  0.27681068972E+02 -0.55070387742E+02  0.28541454878E+02  0.67923514574E+02  0.00000000000E+00 0. -1.
          1    1    5    5  503    0  0.20595136900E+01 -0.93371470554E+01  0.52101661143E+02  0.52971756678E+02  0.00000000000E+00 0. -1.
         -2    1    5    5    0  503  0.18739317733E+03  0.10087093915E+03  0.52333259232E+03  0.56494968931E+03  0.00000000000E+00 0.  1.
         -3    1    6    6    0  502  0.17677981300E+03 -0.59788353375E+03  0.56708193014E+02  0.62604444041E+03  0.00000000000E+00 0.  1.
<mgrwt>
<rscale>  0 0.22590535E+04</rscale>
<asrwt>0</asrwt>
<pdfrwt beam="1">  1        2 0.17276857E+00 0.22590535E+04</pdfrwt>
<pdfrwt beam="2">  1       -2 0.17478397E+00 0.22590535E+04</pdfrwt>
<totfact> 0.37818968E+00</totfact>
</mgrwt>
</event>
<event>
12    1  0.1519630E-007  0.1201340E+04  0.7818608E-02  0.9111684E-01
         -1   -1    0    0    0  501 -0.00000000000E+00  0.00000000000E+00  0.13806792731E+04  0.13806792731E+04  0.00000000000E+00 0.  1.
          1   -1    0    0  501    0  0.00000000000E+00 -0.00000000000E+00 -0.26132395237E+03  0.26132395237E+03  0.00000000000E+00 0. -1.
         23    2    1    2    0    0  0.22834649727E+03  0.41812733875E+02  0.11802215408E+03  0.27519508981E+03  0.88953252158E+02 0.  0.
        254    2    1    2    0    0 -0.22834649727E+03 -0.41812733875E+02  0.10013331667E+04  0.13668081357E+04  0.90089174797E+03 0.  0.
        -24    2    4    4    0    0  0.14305241322E+03 -0.32946696765E+03  0.16452529356E+03  0.40363014637E+03  0.82681600975E+02 0.  0.
         24    2    4    4    0    0 -0.37139891049E+03  0.28765423378E+03  0.83680787313E+03  0.96317798933E+03  0.82354803525E+02 0.  0.
         13    1    3    3    0    0  0.71489399769E+02 -0.15045621927E+02  0.41064552921E+01  0.73170813810E+02  0.00000000000E+00 0. -1.
        -13    1    3    3    0    0  0.15685709751E+03  0.56858355802E+02  0.11391569879E+03  0.20202427600E+03  0.00000000000E+00 0.  1.
          2    1    6    6  502    0 -0.96788062723E+02  0.12382619159E+03  0.27644036636E+03  0.31799391655E+03  0.00000000000E+00 0. -1.
          1    1    5    5  503    0  0.13704218606E+03 -0.33339095861E+03  0.16501813925E+03  0.39643546553E+03  0.00000000000E+00 0. -1.
         -2    1    5    5    0  503  0.60102271608E+01  0.39239909637E+01 -0.49284569189E+00  0.71946808465E+01  0.00000000000E+00 0.  1.
         -1    1    6    6    0  502 -0.27461084777E+03  0.16382804218E+03  0.56036750677E+03  0.64518407278E+03  0.00000000000E+00 0.  1.
<mgrwt>
<rscale>  0 0.12013402E+04</rscale>
<asrwt>0</asrwt>
<pdfrwt beam="1">  1        1 0.40203686E-01 0.12013402E+04</pdfrwt>
<pdfrwt beam="2">  1       -1 0.21241219E+00 0.12013402E+04</pdfrwt>
<totfact> 0.12869435E+01</totfact>
</mgrwt>
</event>
<event>
12    1  0.1519630E-007  0.2128188E+04  0.7818608E-02  0.8548927E-01
          1   -1    0    0  501    0  0.00000000000E+00  0.00000000000E+00  0.30521737426E+04  0.30521737426E+04  0.00000000000E+00 0. -1.
         -1   -1    0    0    0  501 -0.00000000000E+00 -0.00000000000E+00 -0.37098006447E+03  0.37098006447E+03  0.00000000000E+00 0.  1.
         23    2    1    2    0    0 -0.16187448707E+03 -0.11683708612E+03  0.24681221591E+04  0.24777442421E+04  0.87950457897E+02 0.  0.
        254    2    1    2    0    0  0.16187448707E+03  0.11683708612E+03  0.21307151908E+03  0.94540956497E+03  0.89919159195E+03 0.  0.
        -24    2    4    4    0    0 -0.10436064415E+03  0.33153439747E+03 -0.19503780390E+03  0.40617700751E+03  0.78318680559E+02 0.  0.
         24    2    4    4    0    0  0.26623513122E+03 -0.21469731135E+03  0.40810932298E+03  0.53923255746E+03  0.85102590577E+02 0.  0.
         13    1    3    3    0    0 -0.10759446464E+02  0.13427642132E+02  0.13170061466E+03  0.13281987488E+03  0.00000000000E+00 0.  1.
        -13    1    3    3    0    0 -0.15111504060E+03 -0.13026472825E+03  0.23364215444E+04  0.23449243672E+04  0.00000000000E+00 0. -1.
          4    1    6    6  502    0  0.10909447830E+03 -0.12026969086E+03  0.13977500830E+03  0.21425091990E+03  0.00000000000E+00 0. -1.
          3    1    5    5  503    0 -0.64013344781E+02  0.22402749653E+03 -0.87579681721E+02  0.24891008048E+03  0.00000000000E+00 0. -1.
         -4    1    5    5    0  503 -0.40347299370E+02  0.10750690094E+03 -0.10745812218E+03  0.15726692703E+03  0.00000000000E+00 0.  1.
         -1    1    6    6    0  502  0.15714065292E+03 -0.94427620495E+02  0.26833431468E+03  0.32498163756E+03  0.00000000000E+00 0.  1.
<mgrwt>
<rscale>  0 0.21281876E+04</rscale>
<asrwt>0</asrwt>
<pdfrwt beam="1">  1        1 0.46956517E+00 0.21281876E+04</pdfrwt>
<pdfrwt beam="2">  1       -1 0.57073858E-01 0.21281876E+04</pdfrwt>
<totfact> 0.15631183E+00</totfact>
</mgrwt>
</event>
<event>
12    1  0.1519630E-007  0.2959808E+04  0.7818608E-02  0.8255302E-01
         -1   -1    0    0    0  501 -0.00000000000E+00  0.00000000000E+00  0.21170612330E+04  0.21170612330E+04  0.00000000000E+00 0.  1.
          1   -1    0    0  501    0  0.00000000000E+00 -0.00000000000E+00 -0.10345076562E+04  0.10345076562E+04  0.00000000000E+00 0. -1.
         23    2    1    2    0    0 -0.74751957054E+03  0.72336904544E+03 -0.41303891333E+03  0.11235541434E+04  0.98612803754E+02 0.  0.
        254    2    1    2    0    0  0.74751957054E+03 -0.72336904544E+03  0.14955924902E+04  0.20280147458E+04  0.89106600659E+03 0.  0.
        -24    2    4    4    0    0  0.12609262976E+03 -0.32268471557E+03  0.11583559722E+04  0.12115045001E+04  0.77005315901E+02 0.  0.
         24    2    4    4    0    0  0.62142694078E+03 -0.40068432988E+03  0.33723651802E+03  0.81651024562E+03  0.79000868188E+02 0.  0.
         13    1    3    3    0    0 -0.28722977053E+03  0.29457340041E+03 -0.11344349731E+03  0.42678314914E+03  0.00000000000E+00 0. -1.
        -13    1    3    3    0    0 -0.46028980001E+03  0.42879564503E+03 -0.29959541602E+03  0.69677099430E+03  0.00000000000E+00 0.  1.
          4    1    6    6  502    0  0.18168201647E+03 -0.86239232560E+02  0.65887317662E+02  0.21162868182E+03  0.00000000000E+00 0. -1.
          3    1    5    5  503    0  0.18495412716E+02 -0.50133822680E+02  0.10059183304E+03  0.11390433417E+03  0.00000000000E+00 0. -1.
         -4    1    5    5    0  503  0.10759721704E+03 -0.27255089289E+03  0.10577641391E+04  0.10976001660E+04  0.00000000000E+00 0.  1.
         -3    1    6    6    0  502  0.43974492431E+03 -0.31444509732E+03  0.27134920036E+03  0.60488156380E+03  0.00000000000E+00 0.  1.
<mgrwt>
<rscale>  0 0.29598081E+04</rscale>
<asrwt>0</asrwt>
<pdfrwt beam="1">  1        1 0.15915502E+00 0.29598081E+04</pdfrwt>
<pdfrwt beam="2">  1       -1 0.32570173E+00 0.29598081E+04</pdfrwt>
<totfact> 0.27281164E-01</totfact>
</mgrwt>
</event>
<event>
12    1  0.1519630E-007  0.1794483E+04  0.7818608E-02  0.8709239E-01
          2   -1    0    0  501    0  0.00000000000E+00  0.00000000000E+00  0.38206590770E+03  0.38206590770E+03  0.00000000000E+00 0. -1.
         -2   -1    0    0    0  501 -0.00000000000E+00 -0.00000000000E+00 -0.21070778114E+04  0.21070778114E+04  0.00000000000E+00 0.  1.
         23    2    1    2    0    0  0.27668807162E+03  0.10223959912E+03 -0.14781547719E+04  0.15101660072E+04  0.93008682492E+02 0.  0.
        254    2    1    2    0    0 -0.27668807162E+03 -0.10223959912E+03 -0.24685713182E+03  0.97897771191E+03  0.90024979438E+03 0.  0.
        -24    2    4    4    0    0  0.42170882003E+02  0.36400263306E+03 -0.13012595563E+03  0.39667605203E+03  0.78376181060E+02 0.  0.
         24    2    4    4    0    0 -0.31885895362E+03 -0.46624223219E+03 -0.11673117619E+03  0.58230165988E+03  0.79976272905E+02 0.  0.
         13    1    3    3    0    0  0.21520128884E+03  0.11850602630E+03 -0.11799615844E+04  0.12052653706E+04  0.00000000000E+00 0.  1.
        -13    1    3    3    0    0  0.61486782778E+02 -0.16266427180E+02 -0.29819318750E+03  0.30490063657E+03  0.00000000000E+00 0. -1.
          4    1    6    6  502    0 -0.12516841672E+03 -0.11962773501E+03 -0.43839019147E+02  0.17860511507E+03  0.00000000000E+00 0. -1.
          1    1    5    5  503    0  0.17565719885E+01  0.18468695879E+02 -0.28929673912E+02  0.34367198101E+02  0.00000000000E+00 0. -1.
         -4    1    5    5    0  503  0.40414310015E+02  0.34553393718E+03 -0.10119628171E+03  0.36230885393E+03  0.00000000000E+00 0.  1.
         -3    1    6    6    0  502 -0.19369053690E+03 -0.34661449717E+03 -0.72892157043E+02  0.40369654481E+03  0.00000000000E+00 0.  1.
<mgrwt>
<rscale>  0 0.17944833E+04</rscale>
<asrwt>0</asrwt>
<pdfrwt beam="1">  1        2 0.58779371E-01 0.17944833E+04</pdfrwt>
<pdfrwt beam="2">  1       -2 0.32416581E+00 0.17944833E+04</pdfrwt>
<totfact> 0.17895873E+00</totfact>
</mgrwt>
</event>
<event>
12    1  0.1519630E-007  0.1193451E+04  0.7818608E-02  0.9118608E-01
         -1   -1    0    0    0  501 -0.00000000000E+00  0.00000000000E+00  0.25174056759E+04  0.25174056759E+04  0.00000000000E+00 0.  1.
          1   -1    0    0  501    0  0.00000000000E+00 -0.00000000000E+00 -0.14144776952E+03  0.14144776952E+03  0.00000000000E+00 0. -1.
         23    2    1    2    0    0  0.58568110953E+02  0.22278628167E+03  0.70826878057E+03  0.75017246995E+03  0.89722451094E+02 0.  0.
        254    2    1    2    0    0 -0.58568110953E+02 -0.22278628167E+03  0.16676891258E+04  0.19086809755E+04  0.89933981055E+03 0.  0.
        -24    2    4    4    0    0  0.18596005437E+03 -0.57372980431E+02  0.15755072234E+04  0.15895180289E+04  0.80447203966E+02 0.  0.
         24    2    4    4    0    0 -0.24452816532E+03 -0.16541330124E+03  0.92181902441E+02  0.31916294656E+03  0.78815604160E+02 0.  0.
         11    1    3    3    0    0 -0.13009108779E+02  0.16667590932E+01  0.21962926499E+02  0.25580952631E+02  0.00000000000E+00 0. -1.
        -11    1    3    3    0    0  0.71577219732E+02  0.22111952257E+03  0.68630585407E+03  0.72459151732E+03  0.00000000000E+00 0.  1.
          2    1    6    6  502    0 -0.22907127029E+03 -0.12238311276E+03  0.75098646789E+02  0.27035362012E+03  0.00000000000E+00 0. -1.
          1    1    5    5  503    0  0.17152913526E+03 -0.26533712724E+02  0.12028149917E+04  0.12152737085E+04  0.00000000000E+00 0. -1.
         -2    1    5    5    0  503  0.14430919108E+02 -0.30839267707E+02  0.37269223164E+03  0.37424432044E+03  0.00000000000E+00 0.  1.
         -1    1    6    6    0  502 -0.15456895028E+02 -0.43030188472E+02  0.17083255652E+02  0.48809326440E+02  0.00000000000E+00 0.  1.
<mgrwt>
<rscale>  0 0.11934512E+04</rscale>
<asrwt>0</asrwt>
<pdfrwt beam="1">  1        1 0.21761197E-01 0.11934512E+04</pdfrwt>
<pdfrwt beam="2">  1       -1 0.38729315E+00 0.11934512E+04</pdfrwt>
<totfact> 0.20585186E+00</totfact>
</mgrwt>
</event>
<event>
12    1  0.1519630E-007  0.2304782E+04  0.7818608E-02  0.8476038E-01
         -2   -1    0    0    0  501 -0.00000000000E+00  0.00000000000E+00  0.21907397571E+04  0.21907397571E+04  0.00000000000E+00 0.  1.
          2   -1    0    0  501    0  0.00000000000E+00 -0.00000000000E+00 -0.60619033205E+03  0.60619033205E+03  0.00000000000E+00 0. -1.
         23    2    1    2    0    0  0.20970060687E+03 -0.29648270602E+03 -0.43584765329E+03  0.57456193925E+03  0.91004976077E+02 0.  0.
        254    2    1    2    0    0 -0.20970060687E+03  0.29648270602E+03  0.20203970784E+04  0.22223681499E+04  0.85149251318E+03 0.  0.
        -24    2    4    4    0    0 -0.20651036346E+03 -0.26102862883E+03  0.55196661762E+03  0.64970742905E+03  0.81670809461E+02 0.  0.
         24    2    4    4    0    0 -0.31902434141E+01  0.55751133485E+03  0.14684304607E+04  0.15726607209E+04  0.78387873761E+02 0.  0.
         11    1    3    3    0    0  0.28308685250E+02 -0.39152974473E+02 -0.18399194330E+02  0.51699781650E+02  0.00000000000E+00 0.  1.
        -11    1    3    3    0    0  0.18139192162E+03 -0.25732973154E+03 -0.41744845896E+03  0.52286215760E+03  0.00000000000E+00 0. -1.
          4    1    6    6  502    0  0.91444916163E+01  0.49697472121E+03  0.12371135335E+04  0.13332356844E+04  0.00000000000E+00 0. -1.
          3    1    5    5  503    0 -0.19769675714E+03 -0.22408286470E+03  0.52136365580E+03  0.60093027850E+03  0.00000000000E+00 0. -1.
         -2    1    5    5    0  503 -0.88136063154E+01 -0.36945764131E+02  0.30602961820E+02  0.48777150549E+02  0.00000000000E+00 0.  1.
         -3    1    6    6    0  502 -0.12334735030E+02  0.60536613636E+02  0.23131692721E+03  0.23942503648E+03  0.00000000000E+00 0.  1.
<mgrwt>
<rscale>  0 0.23047822E+04</rscale>
<asrwt>0</asrwt>
<pdfrwt beam="1">  1        2 0.93260052E-01 0.23047822E+04</pdfrwt>
<pdfrwt beam="2">  1       -2 0.33703688E+00 0.23047822E+04</pdfrwt>
<totfact> 0.83373026E-01</totfact>
</mgrwt>
</event>
<event>
12    1  0.1519630E-007  0.3133785E+04  0.7818608E-02  0.8206526E-01
         -1   -1    0    0    0  501 -0.00000000000E+00  0.00000000000E+00  0.16390270339E+04  0.16390270339E+04  0.00000000000E+00 0.  1.
          1   -1    0    0  501    0  0.00000000000E+00 -0.00000000000E+00 -0.14979330949E+04  0.14979330949E+04  0.00000000000E+00 0. -1.
         23    2    1    2    0    0  0.75233872389E+03  0.49131377268E+03  0.11856606280E+04  0.14903645945E+04  0.89402018970E+02 0.  0.
        254    2    1    2    0    0 -0.75233872389E+03 -0.49131377268E+03 -0.10445666890E+04  0.16465955344E+04  0.90152898315E+03 0.  0.
        -24    2    4    4    0    0 -0.10139257665E+03  0.36168434932E+02  0.13947235986E+03  0.19381138167E+03  0.80757056730E+02 0.  0.
         24    2    4    4    0    0 -0.65094614724E+03 -0.52748220761E+03 -0.11840390488E+04  0.14527841527E+04  0.81639201822E+02 0.  0.
         13    1    3    3    0    0  0.31774696867E+03  0.20994633809E+03  0.43055870070E+03  0.57482292554E+03  0.00000000000E+00 0.  1.
        -13    1    3    3    0    0  0.43459175522E+03  0.28136743459E+03  0.75510192730E+03  0.91554166894E+03  0.00000000000E+00 0. -1.
          4    1    6    6  502    0 -0.19282734788E+03 -0.17648472506E+03 -0.31144927003E+03  0.40660778653E+03  0.00000000000E+00 0. -1.
          1    1    5    5  503    0 -0.10429023488E+02  0.34656539347E+02  0.13950023195E+02  0.38787155059E+02  0.00000000000E+00 0. -1.
         -2    1    5    5    0  503 -0.90963553164E+02  0.15118955850E+01  0.12552233667E+03  0.15502422661E+03  0.00000000000E+00 0.  1.
         -3    1    6    6    0  502 -0.45811879936E+03 -0.35099748255E+03 -0.87258977882E+03  0.10461763662E+04  0.00000000000E+00 0.  1.
<mgrwt>
<rscale>  0 0.31337855E+04</rscale>
<asrwt>0</asrwt>
<pdfrwt beam="1">  1        1 0.23045124E+00 0.31337855E+04</pdfrwt>
<pdfrwt beam="2">  1       -1 0.25215801E+00 0.31337855E+04</pdfrwt>
<totfact> 0.37271097E-01</totfact>
</mgrwt>
</event>
<event>
12    1  0.1519630E-007  0.1560878E+04  0.7818608E-02  0.8844949E-01
         -2   -1    0    0    0  501 -0.00000000000E+00  0.00000000000E+00  0.30425071387E+03  0.30425071387E+03  0.00000000000E+00 0.  1.
          2   -1    0    0  501    0  0.00000000000E+00 -0.00000000000E+00 -0.20019177010E+04  0.20019177010E+04  0.00000000000E+00 0. -1.
         23    2    1    2    0    0 -0.36891267152E+03  0.35817154270E+03 -0.47044166241E+03  0.70274795952E+03  0.90310152668E+02 0.  0.
        254    2    1    2    0    0  0.36891267152E+03 -0.35817154270E+03 -0.12272253247E+04  0.16034204553E+04  0.89470204298E+03 0.  0.
        -24    2    4    4    0    0  0.27132559110E+03  0.12623030496E+03 -0.36813263615E+02  0.31202448154E+03  0.80326797698E+02 0.  0.
         24    2    4    4    0    0  0.97587080423E+02 -0.48440184766E+03 -0.11904120611E+04  0.12913959738E+04  0.80338643297E+02 0.  0.
         11    1    3    3    0    0 -0.13007861010E+03  0.10240689583E+03 -0.20514155303E+03  0.26361083798E+03  0.00000000000E+00 0.  1.
        -11    1    3    3    0    0 -0.23883406142E+03  0.25576464687E+03 -0.26530010938E+03  0.43913712154E+03  0.00000000000E+00 0. -1.
          2    1    6    6  502    0  0.64864287343E+02 -0.22509400191E+03 -0.47235795593E+03  0.52725394640E+03  0.00000000000E+00 0. -1.
          1    1    5    5  503    0  0.59598593893E+01 -0.46578450088E+00  0.12502850569E+02  0.13858504663E+02  0.00000000000E+00 0. -1.
         -2    1    5    5    0  503  0.26536573171E+03  0.12669608946E+03 -0.49316114184E+02  0.29816597688E+03  0.00000000000E+00 0.  1.
         -1    1    6    6    0  502  0.32722793079E+02 -0.25930784575E+03 -0.71805410515E+03  0.76414202736E+03  0.00000000000E+00 0.  1.
<mgrwt>
<rscale>  0 0.15608778E+04</rscale>
<asrwt>0</asrwt>
<pdfrwt beam="1">  1        2 0.30798735E+00 0.15608778E+04</pdfrwt>
<pdfrwt beam="2">  1       -2 0.46807800E-01 0.15608778E+04</pdfrwt>
<totfact> 0.27742269E+01</totfact>
</mgrwt>
</event>
<event>
12    1  0.1519630E-007  0.4492963E+04  0.7818608E-02  0.7911870E-01
          1   -1    0    0  501    0  0.00000000000E+00  0.00000000000E+00  0.26378335007E+04  0.26378335007E+04  0.00000000000E+00 0. -1.
         -1   -1    0    0    0  501 -0.00000000000E+00 -0.00000000000E+00 -0.19131910577E+04  0.19131910577E+04  0.00000000000E+00 0.  1.
         23    2    1    2    0    0 -0.16099041391E+04 -0.95682220200E+03  0.14269373220E+04  0.23561823029E+04  0.90248880290E+02 0.  0.
        254    2    1    2    0    0  0.16099041391E+04  0.95682220200E+03 -0.70229487895E+03  0.21948422555E+04  0.90377783020E+03 0.  0.
        -24    2    4    4    0    0  0.95718378832E+03  0.37209011363E+03  0.57627799931E+02  0.10321991699E+04  0.86384638668E+02 0.  0.
         24    2    4    4    0    0  0.65272035074E+03  0.58473208837E+03 -0.75992267889E+03  0.11626430856E+04  0.79378807730E+02 0.  0.
         11    1    3    3    0    0 -0.89776251749E+03 -0.54803359299E+03  0.85522051389E+03  0.13556254956E+04  0.00000000000E+00 0. -1.
        -11    1    3    3    0    0 -0.71214162157E+03 -0.40878860900E+03  0.57171680811E+03  0.10005568073E+04  0.00000000000E+00 0.  1.
          4    1    6    6  502    0  0.44064589311E+03  0.43524499628E+03 -0.50873782993E+03  0.80151181494E+03  0.00000000000E+00 0. -1.
          1    1    5    5  503    0  0.32933555465E+03  0.10171830559E+03 -0.13281997885E+02  0.34494192659E+03  0.00000000000E+00 0. -1.
         -4    1    5    5    0  503  0.62784823367E+03  0.27037180803E+03  0.70909797816E+02  0.68725724334E+03  0.00000000000E+00 0.  1.
         -3    1    6    6    0  502  0.21207445764E+03  0.14948709209E+03 -0.25118484896E+03  0.36113127064E+03  0.00000000000E+00 0.  1.
<mgrwt>
<rscale>  0 0.44929631E+04</rscale>
<asrwt>0</asrwt>
<pdfrwt beam="1">  1        1 0.40582054E+00 0.44929631E+04</pdfrwt>
<pdfrwt beam="2">  1       -1 0.29433708E+00 0.44929631E+04</pdfrwt>
<totfact> 0.29331352E-02</totfact>
</mgrwt>
</event>
<event>
12    1  0.1519630E-007  0.1575288E+04  0.7818608E-02  0.8835875E-01
         -2   -1    0    0    0  501 -0.00000000000E+00  0.00000000000E+00  0.17008293373E+03  0.17008293373E+03  0.00000000000E+00 0.  1.
          2   -1    0    0  501    0  0.00000000000E+00 -0.00000000000E+00 -0.36475339877E+04  0.36475339877E+04  0.00000000000E+00 0. -1.
         23    2    1    2    0    0 -0.25457409381E+03  0.37871968558E+03 -0.17951476389E+04  0.18545075500E+04  0.91687721176E+02 0.  0.
        254    2    1    2    0    0  0.25457409381E+03 -0.37871968558E+03 -0.16823034151E+04  0.19631093714E+04  0.90300445971E+03 0.  0.
        -24    2    4    4    0    0  0.10483556094E+03 -0.15728886797E+03 -0.16707408190E+04  0.16833437372E+04  0.80876266292E+02 0.  0.
         24    2    4    4    0    0  0.14973853287E+03 -0.22143081761E+03 -0.11562596077E+02  0.27976563421E+03  0.81742774896E+02 0.  0.
         11    1    3    3    0    0 -0.16253169011E+03  0.30577678477E+03 -0.12679188762E+04  0.13143569793E+04  0.00000000000E+00 0. -1.
        -11    1    3    3    0    0 -0.92042403700E+02  0.72942900813E+02 -0.52722876268E+03  0.54015057073E+03  0.00000000000E+00 0.  1.
          4    1    6    6  502    0  0.11254436413E+03 -0.21331989871E+03 -0.57522830468E+01  0.24125650632E+03  0.00000000000E+00 0. -1.
          1    1    5    5  503    0  0.11282792155E+03 -0.16021158478E+03 -0.16290657458E+04  0.16408086714E+04  0.00000000000E+00 0. -1.
         -4    1    5    5    0  503 -0.79923606091E+01  0.29227168052E+01 -0.41675073199E+02  0.42535065861E+02  0.00000000000E+00 0.  1.
         -3    1    6    6    0  502  0.37194168738E+02 -0.81109188985E+01 -0.58103130305E+01  0.38509127892E+02  0.00000000000E+00 0.  1.
<mgrwt>
<rscale>  0 0.15752883E+04</rscale>
<asrwt>0</asrwt>
<pdfrwt beam="1">  1        2 0.56115905E+00 0.15752883E+04</pdfrwt>
<pdfrwt beam="2">  1       -2 0.26166606E-01 0.15752883E+04</pdfrwt>
<totfact> 0.82094920E+00</totfact>
</mgrwt>
</event>
<event>
12    1  0.1519630E-007  0.1796601E+04  0.7818608E-02  0.8708109E-01
         -1   -1    0    0    0  501 -0.00000000000E+00  0.00000000000E+00  0.73925275466E+03  0.73925275466E+03  0.00000000000E+00 0.  1.
          1   -1    0    0  501    0  0.00000000000E+00 -0.00000000000E+00 -0.10915668921E+04  0.10915668921E+04  0.00000000000E+00 0. -1.
         23    2    1    2    0    0  0.11121861507E+03 -0.25536725904E+03 -0.73709662786E+03  0.79318301296E+03  0.90806585287E+02 0.  0.
        254    2    1    2    0    0 -0.11121861507E+03  0.25536725904E+03  0.38478249038E+03  0.10376366338E+04  0.92252382173E+03 0.  0.
        -24    2    4    4    0    0  0.40049253201E+03  0.92144611839E+02  0.19843523896E+03  0.46353350497E+03  0.81251882957E+02 0.  0.
         24    2    4    4    0    0 -0.51171114708E+03  0.16322264720E+03  0.18634725141E+03  0.57410312887E+03  0.79869730600E+02 0.  0.
         13    1    3    3    0    0  0.26383415219E+02 -0.28460036737E+02 -0.42487956125E+02  0.57543763392E+02  0.00000000000E+00 0.  1.
        -13    1    3    3    0    0  0.84835199847E+02 -0.22690722230E+03 -0.69460867173E+03  0.73563924957E+03  0.00000000000E+00 0. -1.
          4    1    6    6  502    0 -0.37687183427E+03  0.15628140528E+03  0.13849373304E+03  0.43085585895E+03  0.00000000000E+00 0. -1.
          1    1    5    5  503    0  0.23261186001E+03  0.93137603770E+02  0.12945423701E+03  0.28203065460E+03  0.00000000000E+00 0. -1.
         -2    1    5    5    0  503  0.16788067200E+03 -0.99299193113E+00  0.68981001957E+02  0.18150285037E+03  0.00000000000E+00 0.  1.
         -3    1    6    6    0  502 -0.13483931281E+03  0.69412419171E+01  0.47853518378E+02  0.14324726992E+03  0.00000000000E+00 0.  1.
<mgrwt>
<rscale>  0 0.17966010E+04</rscale>
<asrwt>0</asrwt>
<pdfrwt beam="1">  1        1 0.16793337E+00 0.17966010E+04</pdfrwt>
<pdfrwt beam="2">  1       -1 0.11373119E+00 0.17966010E+04</pdfrwt>
<totfact> 0.85617844E+00</totfact>
</mgrwt>
</event>
<event>
12    1  0.1519630E-007  0.1785720E+04  0.7818608E-02  0.8713930E-01
          1   -1    0    0  501    0  0.00000000000E+00  0.00000000000E+00  0.24746663548E+04  0.24746663548E+04  0.00000000000E+00 0. -1.
         -1   -1    0    0    0  501 -0.00000000000E+00 -0.00000000000E+00 -0.32214415145E+03  0.32214415145E+03  0.00000000000E+00 0.  1.
         23    2    1    2    0    0 -0.32350085347E+02 -0.54050893810E+03  0.14436925220E+04  0.15446349573E+04  0.91938094757E+02 0.  0.
        254    2    1    2    0    0  0.32350085347E+02  0.54050893810E+03  0.70882968140E+03  0.12521755489E+04  0.87881035946E+03 0.  0.
        -24    2    4    4    0    0  0.28794396807E+03 -0.90258770931E+02  0.38002094415E+03  0.49210089694E+03  0.81786308749E+02 0.  0.
         24    2    4    4    0    0 -0.25559388272E+03  0.63076770903E+03  0.32880873726E+03  0.76007465199E+03  0.80013469171E+02 0.  0.
         11    1    3    3    0    0 -0.53632037206E+02 -0.35315307383E+03  0.10245008592E+04  0.10849864052E+04  0.00000000000E+00 0. -1.
        -11    1    3    3    0    0  0.21281951859E+02 -0.18735586428E+03  0.41919166281E+03  0.45964855218E+03  0.00000000000E+00 0.  1.
          2    1    6    6  502    0 -0.18239555236E+02  0.31044452866E+02  0.38667249703E+02  0.52835552695E+02  0.00000000000E+00 0. -1.
          1    1    5    5  503    0  0.18628387665E+02  0.11964537725E+02  0.13515035520E+02  0.25938835268E+02  0.00000000000E+00 0. -1.
         -4    1    5    5    0  503  0.26931558040E+03 -0.10222330866E+03  0.36650590863E+03  0.46616206167E+03  0.00000000000E+00 0.  1.
         -1    1    6    6    0  502 -0.23735432749E+03  0.59972325617E+03  0.29014148755E+03  0.70723909929E+03  0.00000000000E+00 0.  1.
<mgrwt>
<rscale>  0 0.17857204E+04</rscale>
<asrwt>0</asrwt>
<pdfrwt beam="1">  1        1 0.38071789E+00 0.17857204E+04</pdfrwt>
<pdfrwt beam="2">  1       -1 0.49560640E-01 0.17857204E+04</pdfrwt>
<totfact> 0.54461065E+00</totfact>
</mgrwt>
</event>
<event>
12    1  0.1519630E-007  0.1807049E+04  0.7818608E-02  0.8702560E-01
         -1   -1    0    0    0  501 -0.00000000000E+00  0.00000000000E+00  0.11857616767E+04  0.11857616767E+04  0.00000000000E+00 0.  1.
          1   -1    0    0  501    0  0.00000000000E+00 -0.00000000000E+00 -0.68846576388E+03  0.68846576388E+03  0.00000000000E+00 0. -1.
         23    2    1    2    0    0  0.53810954864E+03  0.14083328816E+03  0.58859486493E+03  0.81493389345E+03  0.90980406029E+02 0.  0.
        254    2    1    2    0    0 -0.53810954864E+03 -0.14083328816E+03 -0.91298952162E+02  0.10592935471E+04  0.89686755924E+03 0.  0.
        -24    2    4    4    0    0  0.65309799767E+01 -0.39160085224E+01  0.33896828607E+03  0.34714467249E+03  0.74511313611E+02 0.  0.
         24    2    4    4    0    0 -0.54464052862E+03 -0.13691727964E+03 -0.43026723823E+03  0.71214887459E+03  0.81525924738E+02 0.  0.
         11    1    3    3    0    0  0.44874543540E+02  0.12401179068E+01  0.86163112730E+02  0.97156289275E+02  0.00000000000E+00 0. -1.
        -11    1    3    3    0    0  0.49323500510E+03  0.13959317026E+03  0.50243175220E+03  0.71777760418E+03  0.00000000000E+00 0.  1.
          4    1    6    6  502    0 -0.18478682060E+03 -0.80903384302E+02 -0.12839155854E+03  0.23911486562E+03  0.00000000000E+00 0. -1.
          3    1    5    5  503    0  0.29937645769E+02  0.22918688360E+02  0.20965782531E+03  0.21302096757E+03  0.00000000000E+00 0. -1.
         -4    1    5    5    0  503 -0.23406665792E+02 -0.26834696882E+02  0.12931046076E+03  0.13412370492E+03  0.00000000000E+00 0.  1.
         -3    1    6    6    0  502 -0.35985370802E+03 -0.56013895340E+02 -0.30187567970E+03  0.47303400897E+03  0.00000000000E+00 0.  1.
<mgrwt>
<rscale>  0 0.18070488E+04</rscale>
<asrwt>0</asrwt>
<pdfrwt beam="1">  1        1 0.10591781E+00 0.18070488E+04</pdfrwt>
<pdfrwt beam="2">  1       -1 0.18242487E+00 0.18070488E+04</pdfrwt>
<totfact> 0.52677683E+00</totfact>
</mgrwt>
</event>
<event>
12    1  0.1519630E-007  0.2833421E+04  0.7818608E-02  0.8292967E-01
          2   -1    0    0  501    0  0.00000000000E+00  0.00000000000E+00  0.20122391862E+04  0.20122391862E+04  0.00000000000E+00 0.  1.
         -2   -1    0    0    0  501 -0.00000000000E+00 -0.00000000000E+00 -0.99743041034E+03  0.99743041034E+03  0.00000000000E+00 0. -1.
         23    2    1    2    0    0 -0.10792194112E+03 -0.11267995259E+04  0.10215770853E+04  0.15272169135E+04  0.86298568174E+02 0.  0.
        254    2    1    2    0    0  0.10792194112E+03  0.11267995259E+04 -0.67683094195E+01  0.14824526830E+04  0.95723342533E+03 0.  0.
        -24    2    4    4    0    0 -0.31716423951E+03  0.10527802870E+03 -0.12877398142E+03  0.36642718032E+03  0.77521107000E+02 0.  0.
         24    2    4    4    0    0  0.42508618063E+03  0.10215214972E+04  0.12200567200E+03  0.11160255027E+04  0.80144298568E+02 0.  0.
         13    1    3    3    0    0 -0.40564303205E+02 -0.63039692139E+03  0.62067705857E+03  0.88559909227E+03  0.00000000000E+00 0.  1.
        -13    1    3    3    0    0 -0.67357637910E+02 -0.49640260447E+03  0.40090002672E+03  0.64161782124E+03  0.00000000000E+00 0. -1.
          2    1    6    6  502    0  0.28733524008E+02  0.13835179689E+03  0.16134363583E+02  0.14222219515E+03  0.00000000000E+00 0. -1.
          3    1    5    5  503    0 -0.71061698754E+02  0.55305180021E+02 -0.17398061336E+02  0.91712161163E+02  0.00000000000E+00 0. -1.
         -4    1    5    5    0  503 -0.24610254076E+03  0.49972848677E+02 -0.11137592009E+03  0.27471501915E+03  0.00000000000E+00 0.  1.
         -1    1    6    6    0  502  0.39635265662E+03  0.88316970027E+03  0.10587130842E+03  0.97380330757E+03  0.00000000000E+00 0.  1.
<mgrwt>
<rscale>  0 0.28334209E+04</rscale>
<asrwt>0</asrwt>
<pdfrwt beam="1">  1        2 0.30957526E+00 0.28334209E+04</pdfrwt>
<pdfrwt beam="2">  1       -2 0.15345083E+00 0.28334209E+04</pdfrwt>
<totfact> 0.16096898E+00</totfact>
</mgrwt>
</event>
<event>
12    1  0.1519630E-007  0.1208465E+04  0.7818608E-02  0.9105479E-01
         -2   -1    0    0    0  501 -0.00000000000E+00  0.00000000000E+00  0.27988022739E+03  0.27988022739E+03  0.00000000000E+00 0.  1.
          2   -1    0    0  501    0  0.00000000000E+00 -0.00000000000E+00 -0.13044757309E+04  0.13044757309E+04  0.00000000000E+00 0. -1.
         23    2    1    2    0    0  0.26822070409E+01 -0.11679850088E+03 -0.47849165533E+03  0.50058357619E+03  0.89334027582E+02 0.  0.
        254    2    1    2    0    0 -0.26822070409E+01  0.11679850088E+03 -0.54610384822E+03  0.10837723821E+04  0.92880788067E+03 0.  0.
        -24    2    4    4    0    0 -0.25458053575E+03 -0.31834803313E+03 -0.32327967307E+03  0.52802044054E+03  0.90217067223E+02 0.  0.
         24    2    4    4    0    0  0.25189832871E+03  0.43514653402E+03 -0.22282417515E+03  0.55575194160E+03  0.80027079669E+02 0.  0.
         13    1    3    3    0    0 -0.18055119365E+02 -0.40939742460E+02 -0.60443985714E+02  0.75203226373E+02  0.00000000000E+00 0.  1.
        -13    1    3    3    0    0  0.20737326406E+02 -0.75858758424E+02 -0.41804766962E+03  0.42538034981E+03  0.00000000000E+00 0. -1.
          2    1    6    6  502    0  0.16024122471E+03  0.33831165456E+03 -0.14554175961E+03  0.40163967621E+03  0.00000000000E+00 0. -1.
          1    1    5    5  503    0 -0.68736876828E+02 -0.15329023022E+03 -0.14781522489E+03  0.22376772249E+03  0.00000000000E+00 0. -1.
         -2    1    5    5    0  503 -0.18584365893E+03 -0.16505780291E+03 -0.17546444818E+03  0.30425271805E+03  0.00000000000E+00 0.  1.
         -1    1    6    6    0  502  0.91657104003E+02  0.96834879454E+02 -0.77282415533E+02  0.15411226539E+03  0.00000000000E+00 0.  1.
<mgrwt>
<rscale>  0 0.12084651E+04</rscale>
<asrwt>0</asrwt>
<pdfrwt beam="1">  1        2 0.20068858E+00 0.12084651E+04</pdfrwt>
<pdfrwt beam="2">  1       -2 0.43058496E-01 0.12084651E+04</pdfrwt>
<totfact> 0.82828746E+01</totfact>
</mgrwt>
</event>
<event>
12    1  0.1519630E-007  0.1373816E+04  0.7818608E-02  0.8972993E-01
         -2   -1    0    0    0  501 -0.00000000000E+00  0.00000000000E+00  0.41339156898E+03  0.41339156898E+03  0.00000000000E+00 0.  1.
          2   -1    0    0  501    0  0.00000000000E+00 -0.00000000000E+00 -0.11413940995E+04  0.11413940995E+04  0.00000000000E+00 0. -1.
         23    2    1    2    0    0 -0.22000443763E+03  0.13772177286E+03 -0.52067344732E+03  0.58876775247E+03  0.90428913023E+02 0.  0.
        254    2    1    2    0    0  0.22000443763E+03 -0.13772177286E+03 -0.20732908323E+03  0.96601791604E+03  0.90710309561E+03 0.  0.
        -24    2    4    4    0    0  0.51590331343E+03  0.15578283491E+02 -0.31166857165E+03  0.60815212857E+03  0.79453138427E+02 0.  0.
         24    2    4    4    0    0 -0.29589887581E+03 -0.15330005635E+03  0.10433948842E+03  0.35786578747E+03  0.78256891162E+02 0.  0.
         11    1    3    3    0    0 -0.22590750468E+02  0.40297444605E+02 -0.44388535485E+02  0.64066903553E+02  0.00000000000E+00 0.  1.
        -11    1    3    3    0    0 -0.19741368716E+03  0.97424328259E+02 -0.47628491184E+03  0.52470084892E+03  0.00000000000E+00 0. -1.
          2    1    6    6  502    0 -0.42448528677E+02  0.15882290890E+01 -0.15986289075E+01  0.42508301223E+02  0.00000000000E+00 0. -1.
          3    1    5    5  503    0  0.10814993844E+03  0.34259049309E+02 -0.56047862125E+02  0.12653637616E+03  0.00000000000E+00 0. -1.
         -4    1    5    5    0  503  0.40775337500E+03 -0.18680765818E+02 -0.25562070953E+03  0.48161575241E+03  0.00000000000E+00 0.  1.
         -1    1    6    6    0  502 -0.25345034713E+03 -0.15488828544E+03  0.10593811733E+03  0.31535748625E+03  0.00000000000E+00 0.  1.
<mgrwt>
<rscale>  0 0.13738161E+04</rscale>
<asrwt>0</asrwt>
<pdfrwt beam="1">  1        2 0.17559909E+00 0.13738161E+04</pdfrwt>
<pdfrwt beam="2">  1       -2 0.63598703E-01 0.13738161E+04</pdfrwt>
<totfact> 0.45844638E+01</totfact>
</mgrwt>
</event>
<event>
12    1  0.1519630E-007  0.2562570E+04  0.7818608E-02  0.8381028E-01
         -2   -1    0    0    0  501 -0.00000000000E+00  0.00000000000E+00  0.50981449518E+03  0.50981449518E+03  0.00000000000E+00 0.  1.
          2   -1    0    0  501    0  0.00000000000E+00 -0.00000000000E+00 -0.32201743494E+04  0.32201743494E+04  0.00000000000E+00 0. -1.
         23    2    1    2    0    0 -0.50596780055E+03  0.27923727764E+03  0.20892789413E+03  0.62104826032E+03  0.89851011631E+02 0.  0.
        254    2    1    2    0    0  0.50596780055E+03 -0.27923727764E+03 -0.29192877483E+04  0.31089405843E+04  0.89960754019E+03 0.  0.
        -24    2    4    4    0    0 -0.64685749767E+02  0.54323357663E+02 -0.11944079701E+01  0.11582422999E+03  0.79237315910E+02 0.  0.
         24    2    4    4    0    0  0.57065355032E+03 -0.33356063530E+03 -0.29180933404E+04  0.29931163543E+04  0.81046869706E+02 0.  0.
         13    1    3    3    0    0 -0.52771493443E+02  0.34421809476E+02 -0.52008315781E+01  0.63219776470E+02  0.00000000000E+00 0. -1.
        -13    1    3    3    0    0 -0.45319630711E+03  0.24481546816E+03  0.21412872570E+03  0.55782848385E+03  0.00000000000E+00 0.  1.
          2    1    6    6  502    0  0.40500070768E+03 -0.26103265270E+03 -0.19831046421E+04  0.20408007352E+04  0.00000000000E+00 0. -1.
          1    1    5    5  503    0 -0.52614800909E+02  0.70704523333E+02 -0.17371804828E+02  0.89828873406E+02  0.00000000000E+00 0. -1.
         -2    1    5    5    0  503 -0.12070948858E+02 -0.16381165670E+02  0.16177396858E+02  0.25995356588E+02  0.00000000000E+00 0.  1.
         -1    1    6    6    0  502  0.16565284263E+03 -0.72527982595E+02 -0.93498869825E+03  0.95231561911E+03  0.00000000000E+00 0.  1.
<mgrwt>
<rscale>  0 0.25625702E+04</rscale>
<asrwt>0</asrwt>
<pdfrwt beam="1">  1        2 0.49541145E+00 0.25625702E+04</pdfrwt>
<pdfrwt beam="2">  1       -2 0.78432997E-01 0.25625702E+04</pdfrwt>
<totfact> 0.16134610E+00</totfact>
</mgrwt>
</event>
<event>
12    1  0.1519630E-007  0.2155586E+04  0.7818608E-02  0.8537145E-01
          1   -1    0    0  501    0  0.00000000000E+00  0.00000000000E+00  0.54068747920E+03  0.54068747920E+03  0.00000000000E+00 0. -1.
         -1   -1    0    0    0  501 -0.00000000000E+00 -0.00000000000E+00 -0.21484457701E+04  0.21484457701E+04  0.00000000000E+00 0.  1.
         23    2    1    2    0    0  0.60631987663E+03  0.23680655991E+03 -0.14271271184E+04  0.15712888063E+04  0.92496274962E+02 0.  0.
        254    2    1    2    0    0 -0.60631987663E+03 -0.23680655991E+03 -0.18063117247E+03  0.11178444430E+04  0.89064439524E+03 0.  0.
        -24    2    4    4    0    0 -0.14841307260E+03 -0.42730080086E+03  0.18643933279E+03  0.49569908892E+03  0.79658944320E+02 0.  0.
         24    2    4    4    0    0 -0.45790680403E+03  0.19049424095E+03 -0.36707050526E+03  0.62214535413E+03  0.79733235324E+02 0.  0.
         13    1    3    3    0    0  0.38399545886E+03  0.10156507504E+03 -0.87009279148E+03  0.95646716759E+03  0.00000000000E+00 0.  1.
        -13    1    3    3    0    0  0.22232441778E+03  0.13524148487E+03 -0.55703432696E+03  0.61482163867E+03  0.00000000000E+00 0. -1.
          4    1    6    6  502    0 -0.14945370319E+03  0.78408160159E+02 -0.82935164862E+02  0.18804917055E+03  0.00000000000E+00 0. -1.
          3    1    5    5  503    0 -0.35423418547E+02 -0.95991235489E+02  0.79834351654E+02  0.12977927252E+03  0.00000000000E+00 0. -1.
         -4    1    5    5    0  503 -0.11298965405E+03 -0.33130956537E+03  0.10660498114E+03  0.36591981640E+03  0.00000000000E+00 0.  1.
         -3    1    6    6    0  502 -0.30845310085E+03  0.11208608079E+03 -0.28413534040E+03  0.43409618357E+03  0.00000000000E+00 0.  1.
<mgrwt>
<rscale>  0 0.21555860E+04</rscale>
<asrwt>0</asrwt>
<pdfrwt beam="1">  1        1 0.83182690E-01 0.21555860E+04</pdfrwt>
<pdfrwt beam="2">  1       -1 0.33053011E+00 0.21555860E+04</pdfrwt>
<totfact> 0.76016474E-01</totfact>
</mgrwt>
</event>
<event>
12    1  0.1519630E-007  0.2667354E+04  0.7818608E-02  0.8345676E-01
          1   -1    0    0  501    0  0.00000000000E+00  0.00000000000E+00  0.13678372825E+04  0.13678372825E+04  0.00000000000E+00 0. -1.
         -1   -1    0    0    0  501 -0.00000000000E+00 -0.00000000000E+00 -0.13003700651E+04  0.13003700651E+04  0.00000000000E+00 0.  1.
         23    2    1    2    0    0  0.29390545327E+03 -0.32723155230E+03  0.11241687933E+04  0.12107708462E+04  0.93539626805E+02 0.  0.
        254    2    1    2    0    0 -0.29390545327E+03  0.32723155230E+03 -0.10567015760E+04  0.14574365014E+04  0.90224277822E+03 0.  0.
        -24    2    4    4    0    0  0.11896929829E+03  0.20454776245E+03  0.59912514703E+02  0.25796033445E+03  0.83429872783E+02 0.  0.
         24    2    4    4    0    0 -0.41287475156E+03  0.12268378985E+03 -0.11166140907E+04  0.11994761670E+04  0.79994843467E+02 0.  0.
         11    1    3    3    0    0  0.22247317239E+03 -0.20783707810E+03  0.67354557538E+03  0.73915776772E+03  0.00000000000E+00 0.  1.
        -11    1    3    3    0    0  0.71432280886E+02 -0.11939447421E+03  0.45062321795E+03  0.47161307847E+03  0.00000000000E+00 0. -1.
          4    1    6    6  502    0 -0.19133834525E+03  0.96913357119E+02 -0.57800286275E+03  0.61651429058E+03  0.00000000000E+00 0. -1.
          3    1    5    5  503    0  0.47668292936E+02  0.14413326744E+03  0.63216287488E+02  0.16444745038E+03  0.00000000000E+00 0. -1.
         -4    1    5    5    0  503  0.71301005350E+02  0.60414495011E+02 -0.33037727847E+01  0.93512884064E+02  0.00000000000E+00 0.  1.
         -3    1    6    6    0  502 -0.22153640631E+03  0.25770432733E+02 -0.53861122791E+03  0.58296187642E+03  0.00000000000E+00 0.  1.
<mgrwt>
<rscale>  0 0.26673542E+04</rscale>
<asrwt>0</asrwt>
<pdfrwt beam="1">  1        1 0.21043651E+00 0.26673542E+04</pdfrwt>
<pdfrwt beam="2">  1       -1 0.20005693E+00 0.26673542E+04</pdfrwt>
<totfact> 0.10658183E+00</totfact>
</mgrwt>
</event>
<event>
12    1  0.1519630E-007  0.1141023E+04  0.7818608E-02  0.9166106E-01
          2   -1    0    0  501    0  0.00000000000E+00  0.00000000000E+00  0.21211558382E+04  0.21211558382E+04  0.00000000000E+00 0. -1.
         -2   -1    0    0    0  501 -0.00000000000E+00 -0.00000000000E+00 -0.15344610617E+03  0.15344610617E+03  0.00000000000E+00 0.  1.
         23    2    1    2    0    0 -0.74188113372E+02  0.10086913528E+03  0.83156172534E+02  0.17551948651E+03  0.90629368838E+02 0.  0.
        254    2    1    2    0    0  0.74188113372E+02 -0.10086913528E+03  0.18845535595E+04  0.20990824578E+04  0.91592935736E+03 0.  0.
        -24    2    4    4    0    0 -0.32953528971E+03  0.17548429688E+03  0.51494102260E+03  0.64239217760E+03  0.90084446274E+02 0.  0.
         24    2    4    4    0    0  0.40372340308E+03 -0.27635343216E+03  0.13696125368E+04  0.14566902802E+04  0.82123478691E+02 0.  0.
         13    1    3    3    0    0 -0.75568008050E+02  0.91695311392E+02  0.31347828171E+02  0.12288710389E+03  0.00000000000E+00 0.  1.
        -13    1    3    3    0    0  0.13798946778E+01  0.91738238832E+01  0.51808344363E+02  0.52632382614E+02  0.00000000000E+00 0. -1.
          2    1    6    6  502    0  0.25582381296E+03 -0.20617304468E+03  0.82548092421E+03  0.88846603979E+03  0.00000000000E+00 0. -1.
          3    1    5    5  503    0 -0.27056569982E+03  0.16252944579E+03  0.47389965809E+03  0.56938783320E+03  0.00000000000E+00 0. -1.
         -4    1    5    5    0  503 -0.58969589889E+02  0.12954851095E+02  0.41041364518E+02  0.73004344392E+02  0.00000000000E+00 0.  1.
         -1    1    6    6    0  502  0.14789959012E+03 -0.70180387484E+02  0.54413161264E+03  0.56822424043E+03  0.00000000000E+00 0.  1.
<mgrwt>
<rscale>  0 0.11410225E+04</rscale>
<asrwt>0</asrwt>
<pdfrwt beam="1">  1        2 0.32633165E+00 0.11410225E+04</pdfrwt>
<pdfrwt beam="2">  1       -2 0.23607095E-01 0.11410225E+04</pdfrwt>
<totfact> 0.90378903E+01</totfact>
</mgrwt>
</event>
<event>
12    1  0.1519630E-007  0.1349707E+04  0.7818608E-02  0.8991050E-01
          2   -1    0    0  501    0  0.00000000000E+00  0.00000000000E+00  0.20133340445E+04  0.20133340445E+04  0.00000000000E+00 0. -1.
         -2   -1    0    0    0  501 -0.00000000000E+00 -0.00000000000E+00 -0.22620565673E+03  0.22620565673E+03  0.00000000000E+00 0.  1.
         23    2    1    2    0    0  0.10878262847E+03  0.26271943374E+02 -0.78426401206E+02  0.16295706593E+03  0.88771784172E+02 0.  0.
        254    2    1    2    0    0 -0.10878262847E+03 -0.26271943374E+02  0.18655547889E+04  0.20765826353E+04  0.90519439641E+03 0.  0.
        -24    2    4    4    0    0  0.11998359536E+03 -0.23472867985E+03  0.16865889219E+04  0.17089840135E+04  0.80935472097E+02 0.  0.
         24    2    4    4    0    0 -0.22876622383E+03  0.20845673648E+03  0.17896586703E+03  0.36759862175E+03  0.85508882600E+02 0.  0.
         11    1    3    3    0    0  0.99254171202E+02  0.40111278241E+02 -0.92158691289E+02  0.14125696274E+03  0.00000000000E+00 0.  1.
        -11    1    3    3    0    0  0.95284572727E+01 -0.13839334867E+02  0.13732290084E+02  0.21700103191E+02  0.00000000000E+00 0. -1.
          2    1    6    6  502    0 -0.68939192274E+02  0.15730082059E+02  0.38597342953E+02  0.80559311044E+02  0.00000000000E+00 0. -1.
          1    1    5    5  503    0  0.53800072392E+02 -0.32267597794E+02  0.39289772633E+03  0.39787469009E+03  0.00000000000E+00 0. -1.
         -2    1    5    5    0  503  0.66183522965E+02 -0.20246108206E+03  0.12936911956E+04  0.13111093234E+04  0.00000000000E+00 0.  1.
         -1    1    6    6    0  502 -0.15982703156E+03  0.19272665442E+03  0.14036852407E+03  0.28703931071E+03  0.00000000000E+00 0.  1.
<mgrwt>
<rscale>  0 0.13497074E+04</rscale>
<asrwt>0</asrwt>
<pdfrwt beam="1">  1        2 0.30974369E+00 0.13497074E+04</pdfrwt>
<pdfrwt beam="2">  1       -2 0.34800872E-01 0.13497074E+04</pdfrwt>
<totfact> 0.49728274E+01</totfact>
</mgrwt>
</event>
<event>
12    1  0.1519630E-007  0.1480168E+04  0.7818608E-02  0.8897749E-01
         -1   -1    0    0    0  501 -0.00000000000E+00  0.00000000000E+00  0.39309340930E+03  0.39309340930E+03  0.00000000000E+00 0.  1.
          1   -1    0    0  501    0  0.00000000000E+00 -0.00000000000E+00 -0.13933692045E+04  0.13933692045E+04  0.00000000000E+00 0. -1.
         23    2    1    2    0    0 -0.28708861517E+02  0.52746684484E+02 -0.86239050057E+03  0.86877780008E+03  0.86319632707E+02 0.  0.
        254    2    1    2    0    0  0.28708861517E+02 -0.52746684484E+02 -0.13788529467E+03  0.91768481376E+03  0.90527711308E+03 0.  0.
        -24    2    4    4    0    0  0.30628142778E+03 -0.23942516623E+03 -0.33646282348E+03  0.52040422424E+03  0.80502185083E+02 0.  0.
         24    2    4    4    0    0 -0.27757256626E+03  0.18667848175E+03  0.19857752881E+03  0.39728058952E+03  0.80643950642E+02 0.  0.
         13    1    3    3    0    0  0.11799154834E+02  0.68506940610E+00 -0.51754334187E+03  0.51767827856E+03  0.00000000000E+00 0. -1.
        -13    1    3    3    0    0 -0.40508016351E+02  0.52061615077E+02 -0.34484715870E+03  0.35109952153E+03  0.00000000000E+00 0.  1.
          4    1    6    6  502    0 -0.22912127935E+03  0.18675846500E+03  0.16831192039E+03  0.34015318232E+03  0.00000000000E+00 0. -1.
          1    1    5    5  503    0  0.29460764912E+03 -0.20407309346E+03 -0.31663924040E+03  0.47822578659E+03  0.00000000000E+00 0. -1.
         -2    1    5    5    0  503  0.11673778658E+02 -0.35352072769E+02 -0.19823583072E+02  0.42178437655E+02  0.00000000000E+00 0.  1.
         -3    1    6    6    0  502 -0.48451286905E+02 -0.79983246611E-01  0.30265608416E+02  0.57127407196E+02  0.00000000000E+00 0.  1.
<mgrwt>
<rscale>  0 0.14801679E+04</rscale>
<asrwt>0</asrwt>
<pdfrwt beam="1">  1        1 0.21436450E+00 0.14801679E+04</pdfrwt>
<pdfrwt beam="2">  1       -1 0.60475908E-01 0.14801679E+04</pdfrwt>
<totfact> 0.20861466E+01</totfact>
</mgrwt>
</event>
<event>
12    1  0.1519630E-007  0.1651218E+04  0.7818608E-02  0.8789686E-01
         -2   -1    0    0    0  501 -0.00000000000E+00  0.00000000000E+00  0.19965230145E+03  0.19965230145E+03  0.00000000000E+00 0. -1.
          2   -1    0    0  501    0  0.00000000000E+00 -0.00000000000E+00 -0.34140875888E+04  0.34140875888E+04  0.00000000000E+00 0.  1.
         23    2    1    2    0    0 -0.51785000187E+03 -0.23260504172E+03 -0.13369105782E+04  0.14553325116E+04  0.91592004369E+02 0.  0.
        254    2    1    2    0    0  0.51785000187E+03  0.23260504172E+03 -0.18775247091E+04  0.21584073787E+04  0.90074949293E+03 0.  0.
        -24    2    4    4    0    0  0.68167922776E+03  0.40147986584E+03 -0.12283072822E+04  0.14633088118E+04  0.81616463129E+02 0.  0.
         24    2    4    4    0    0 -0.16382922589E+03 -0.16887482412E+03 -0.64921742693E+03  0.69509856684E+03  0.79498608191E+02 0.  0.
         13    1    3    3    0    0 -0.26122732091E+03 -0.67337607068E+02 -0.61968472973E+03  0.67585740417E+03  0.00000000000E+00 0. -1.
        -13    1    3    3    0    0 -0.25662268095E+03 -0.16526743465E+03 -0.71722584847E+03  0.77947510740E+03  0.00000000000E+00 0.  1.
          2    1    6    6  502    0 -0.64190359312E+02 -0.12281420030E+03 -0.36431564230E+03  0.38978149937E+03  0.00000000000E+00 0. -1.
          1    1    5    5  503    0  0.29060020830E+03  0.20767389485E+03 -0.50584956228E+03  0.61924204260E+03  0.00000000000E+00 0. -1.
         -4    1    5    5    0  503  0.39107901946E+03  0.19380597099E+03 -0.72245771990E+03  0.84406676922E+03  0.00000000000E+00 0.  1.
         -1    1    6    6    0  502 -0.99638866579E+02 -0.46060623814E+02 -0.28490178463E+03  0.30531706747E+03  0.00000000000E+00 0.  1.
<mgrwt>
<rscale>  0 0.16512183E+04</rscale>
<asrwt>0</asrwt>
<pdfrwt beam="1">  1        2 0.52524423E+00 0.16512183E+04</pdfrwt>
<pdfrwt beam="2">  1       -2 0.30715740E-01 0.16512183E+04</pdfrwt>
<totfact> 0.88246663E+00</totfact>
</mgrwt>
</event>
<event>
12    1  0.1519630E-007  0.2313658E+04  0.7818608E-02  0.8472555E-01
          2   -1    0    0  501    0  0.00000000000E+00  0.00000000000E+00  0.29491848169E+04  0.29491848169E+04  0.00000000000E+00 0. -1.
         -2   -1    0    0    0  501 -0.00000000000E+00 -0.00000000000E+00 -0.45377060985E+03  0.45377060985E+03  0.00000000000E+00 0.  1.
         23    2    1    2    0    0 -0.68854982680E+03 -0.68201107139E+03  0.12049047002E+04  0.15489515738E+04  0.90640364954E+02 0.  0.
        254    2    1    2    0    0  0.68854982680E+03  0.68201107139E+03  0.12905095068E+04  0.18540038530E+04  0.91251056659E+03 0.  0.
        -24    2    4    4    0    0  0.70639582213E+03  0.21707130283E+03  0.11357700499E+04  0.13574429461E+04  0.81010725401E+02 0.  0.
         24    2    4    4    0    0 -0.17845995334E+02  0.46493976856E+03  0.15473945689E+03  0.49656090684E+03  0.78364320611E+02 0.  0.
         11    1    3    3    0    0 -0.55195180988E+03 -0.52930069417E+03  0.10032196488E+04  0.12614514216E+04  0.00000000000E+00 0.  1.
        -11    1    3    3    0    0 -0.13659801692E+03 -0.15271037722E+03  0.20168505145E+03  0.28750015220E+03  0.00000000000E+00 0. -1.
          4    1    6    6  502    0 -0.36019539982E+02  0.12523438246E+03  0.59752342782E+02  0.14335759582E+03  0.00000000000E+00 0. -1.
          1    1    5    5  503    0  0.25813707832E+03  0.10876743859E+03  0.37996425107E+03  0.47205713531E+03  0.00000000000E+00 0. -1.
         -2    1    5    5    0  503  0.44825874381E+03  0.10830386425E+03  0.75580579885E+03  0.88538581081E+03  0.00000000000E+00 0.  1.
         -3    1    6    6    0  502  0.18173544648E+02  0.33970538610E+03  0.94987114105E+02  0.35320331102E+03  0.00000000000E+00 0.  1.
<mgrwt>
<rscale>  0 0.23136580E+04</rscale>
<asrwt>0</asrwt>
<pdfrwt beam="1">  1        2 0.45372073E+00 0.23136580E+04</pdfrwt>
<pdfrwt beam="2">  1       -2 0.69810865E-01 0.23136580E+04</pdfrwt>
<totfact> 0.31740040E+00</totfact>
</mgrwt>
</event>
<event>
12    1  0.1519630E-007  0.1604654E+04  0.7818608E-02  0.8817694E-01
          1   -1    0    0  501    0  0.00000000000E+00  0.00000000000E+00  0.11753146202E+04  0.11753146202E+04  0.00000000000E+00 0. -1.
         -1   -1    0    0    0  501 -0.00000000000E+00 -0.00000000000E+00 -0.54770716467E+03  0.54770716467E+03  0.00000000000E+00 0.  1.
         23    2    1    2    0    0  0.20795375893E+03  0.50421068192E+03  0.36336509265E+03  0.66190321970E+03  0.92782024526E+02 0.  0.
        254    2    1    2    0    0 -0.20795375893E+03 -0.50421068192E+03  0.26424236288E+03  0.10611185652E+04  0.87101975028E+03 0.  0.
        -24    2    4    4    0    0 -0.32524902258E+03 -0.67684820185E+03  0.59820067526E+02  0.75840795836E+03  0.87714170966E+02 0.  0.
         24    2    4    4    0    0  0.11729526365E+03  0.17263751993E+03  0.20442229536E+03  0.30271060680E+03  0.79267549916E+02 0.  0.
         13    1    3    3    0    0  0.21356147647E+01  0.64053323938E+02  0.20775749215E+02  0.67372256259E+02  0.00000000000E+00 0.  1.
        -13    1    3    3    0    0  0.20581814417E+03  0.44015735798E+03  0.34258934343E+03  0.59453096344E+03  0.00000000000E+00 0. -1.
          4    1    6    6  502    0 -0.48228376905E+01  0.44998949022E+02  0.55890728083E+02  0.71916191933E+02  0.00000000000E+00 0. -1.
          3    1    5    5  503    0 -0.19082032057E+03 -0.45593296142E+03  0.61313874350E+01  0.49429227585E+03  0.00000000000E+00 0. -1.
         -4    1    5    5    0  503 -0.13442870202E+03 -0.22091524043E+03  0.53688680091E+02  0.26411568252E+03  0.00000000000E+00 0.  1.
         -3    1    6    6    0  502  0.12211810134E+03  0.12763857091E+03  0.14853156727E+03  0.23079441487E+03  0.00000000000E+00 0.  1.
<mgrwt>
<rscale>  0 0.16046535E+04</rscale>
<asrwt>0</asrwt>
<pdfrwt beam="1">  1        1 0.18081763E+00 0.16046535E+04</pdfrwt>
<pdfrwt beam="2">  1       -1 0.84262641E-01 0.16046535E+04</pdfrwt>
<totfact> 0.14911491E+01</totfact>
</mgrwt>
</event>
<event>
12    1  0.1519630E-007  0.1115510E+04  0.7818608E-02  0.9190206E-01
         -3   -1    0    0    0  501 -0.00000000000E+00  0.00000000000E+00  0.53364258349E+03  0.53364258349E+03  0.00000000000E+00 0.  1.
          3   -1    0    0  501    0  0.00000000000E+00 -0.00000000000E+00 -0.58295647242E+03  0.58295647242E+03  0.00000000000E+00 0. -1.
         23    2    1    2    0    0  0.85940697962E+02  0.13780533265E+03 -0.73381805288E+02  0.20065922161E+03  0.92212366823E+02 0.  0.
        254    2    1    2    0    0 -0.85940697962E+02 -0.13780533265E+03  0.24067916355E+02  0.91593983430E+03  0.90110510052E+03 0.  0.
        -24    2    4    4    0    0 -0.37266760218E+03  0.21330006137E+03 -0.81017544180E+02  0.44360166204E+03  0.76423387793E+02 0.  0.
         24    2    4    4    0    0  0.28672690422E+03 -0.35110539403E+03  0.10508546053E+03  0.47233817226E+03  0.81074531404E+02 0.  0.
         13    1    3    3    0    0  0.65284607151E+02  0.60072316235E+02  0.43248088166E+01  0.88822672106E+02  0.00000000000E+00 0. -1.
        -13    1    3    3    0    0  0.20656090812E+02  0.77733016418E+02 -0.77706614104E+02  0.11183654950E+03  0.00000000000E+00 0.  1.
          2    1    6    6  502    0  0.14646902802E+03 -0.24133695290E+03  0.59903582815E+02  0.28859164963E+03  0.00000000000E+00 0. -1.
          1    1    5    5  503    0 -0.23149875141E+03  0.96980366707E+02 -0.24667942819E+02  0.25220105240E+03  0.00000000000E+00 0. -1.
         -2    1    5    5    0  503 -0.14116885078E+03  0.11631969467E+03 -0.56349601361E+02  0.19140060964E+03  0.00000000000E+00 0.  1.
         -1    1    6    6    0  502  0.14025787620E+03 -0.10976844112E+03  0.45181877719E+02  0.18374652263E+03  0.00000000000E+00 0.  1.
<mgrwt>
<rscale>  0 0.11155096E+04</rscale>
<asrwt>0</asrwt>
<pdfrwt beam="1">  1        3 0.89685611E-01 0.11155096E+04</pdfrwt>
<pdfrwt beam="2">  1       -3 0.82098859E-01 0.11155096E+04</pdfrwt>
<totfact> 0.40134489E+00</totfact>
</mgrwt>
</event>
<event>
12    1  0.1519630E-007  0.2332269E+04  0.7818608E-02  0.8465306E-01
         -2   -1    0    0    0  501 -0.00000000000E+00  0.00000000000E+00  0.97557519709E+03  0.97557519709E+03  0.00000000000E+00 0.  1.
          2   -1    0    0  501    0  0.00000000000E+00 -0.00000000000E+00 -0.13939152724E+04  0.13939152724E+04  0.00000000000E+00 0. -1.
         23    2    1    2    0    0 -0.96076915337E+03 -0.73207823527E+02 -0.37889046331E+03  0.10392819231E+04  0.90067647136E+02 0.  0.
        254    2    1    2    0    0  0.96076915337E+03  0.73207823527E+02 -0.39449611965E+02  0.13302085463E+04  0.91622145433E+03 0.  0.
        -24    2    4    4    0    0  0.10396979768E+04  0.13350873779E+03 -0.25256327404E+03  0.10810791070E+04  0.78405116072E+02 0.  0.
         24    2    4    4    0    0 -0.78928823417E+02 -0.60300914258E+02  0.21311366208E+03  0.24912943932E+03  0.82353416122E+02 0.  0.
         13    1    3    3    0    0 -0.93083565963E+03 -0.86806261551E+02 -0.36644947227E+03  0.10041292586E+04  0.00000000000E+00 0. -1.
        -13    1    3    3    0    0 -0.29933493735E+02  0.13598438024E+02 -0.12440991040E+02  0.35152664507E+02  0.00000000000E+00 0.  1.
          2    1    6    6  502    0 -0.62603866430E+02 -0.39470279171E+02  0.20978376880E+03  0.22245533638E+03  0.00000000000E+00 0. -1.
          1    1    5    5  503    0  0.75375571354E+03  0.74517256960E+02 -0.21021129699E+03  0.78605934042E+03  0.00000000000E+00 0. -1.
         -2    1    5    5    0  503  0.28594226324E+03  0.58991480825E+02 -0.42351977052E+02  0.29501976659E+03  0.00000000000E+00 0.  1.
         -1    1    6    6    0  502 -0.16324956987E+02 -0.20830635086E+02  0.33298932754E+01  0.26674102946E+02  0.00000000000E+00 0.  1.
<mgrwt>
<rscale>  0 0.23322686E+04</rscale>
<asrwt>0</asrwt>
<pdfrwt beam="1">  1        2 0.21444850E+00 0.23322686E+04</pdfrwt>
<pdfrwt beam="2">  1       -2 0.15008849E+00 0.23322686E+04</pdfrwt>
<totfact> 0.39464896E+00</totfact>
</mgrwt>
</event>
<event>
12    1  0.3182924E-007  0.1618356E+04  0.7818608E-02  0.8809350E-01
         -2   -1    0    0    0  501 -0.00000000000E+00  0.00000000000E+00  0.70256058217E+03  0.70256058217E+03  0.00000000000E+00 0.  1.
          2   -1    0    0  501    0  0.00000000000E+00 -0.00000000000E+00 -0.93197478008E+03  0.93197478008E+03  0.00000000000E+00 0. -1.
         23    2    1    2    0    0  0.13762534019E+03 -0.26058208114E+03 -0.57032418362E+03  0.64846899985E+03  0.91643952734E+02 0.  0.
        254    2    1    2    0    0 -0.13762534019E+03  0.26058208114E+03  0.34090998571E+03  0.98606636240E+03  0.87707667705E+03 0.  0.
        -24    2    4    4    0    0  0.12318625989E+03 -0.28107259575E+03  0.14670834594E+03  0.34921540721E+03  0.79065815339E+02 0.  0.
         24    2    4    4    0    0 -0.26081160008E+03  0.54165467690E+03  0.19420163977E+03  0.63685095519E+03  0.80326723418E+02 0.  0.
         11    1    3    3    0    0  0.14719261456E+03 -0.26026531359E+03 -0.55430127570E+03  0.62980441685E+03  0.00000000000E+00 0. -1.
        -11    1    3    3    0    0 -0.95672743712E+01 -0.31676755851E+00 -0.16022907916E+02  0.18664583003E+02  0.00000000000E+00 0.  1.
          4    1    6    6  502    0 -0.16896867005E+03  0.35787306006E+03  0.16721736249E+03  0.42963377997E+03  0.00000000000E+00 0. -1.
          3    1    5    5  503    0  0.61918800692E+02 -0.14262665057E+03  0.30715096916E+02  0.15849200772E+03  0.00000000000E+00 0. -1.
         -4    1    5    5    0  503  0.61267459198E+02 -0.13844594518E+03  0.11599324903E+03  0.19072339949E+03  0.00000000000E+00 0.  1.
         -3    1    6    6    0  502 -0.91842930030E+02  0.18378161684E+03  0.26984277273E+02  0.20721717522E+03  0.00000000000E+00 0.  1.
<mgrwt>
<rscale>  0 0.16183556E+04</rscale>
<asrwt>0</asrwt>
<pdfrwt beam="1">  1        2 0.14338073E+00 0.16183556E+04</pdfrwt>
<pdfrwt beam="2">  1       -2 0.10808624E+00 0.16183556E+04</pdfrwt>
<totfact> 0.18321943E+01</totfact>
</mgrwt>
</event>
<event>
12    1  0.1519630E-007  0.1297798E+04  0.7818608E-02  0.9031313E-01
         -2   -1    0    0    0  501 -0.00000000000E+00  0.00000000000E+00  0.28675969904E+03  0.28675969904E+03  0.00000000000E+00 0.  1.
          2   -1    0    0  501    0  0.00000000000E+00 -0.00000000000E+00 -0.14683715289E+04  0.14683715289E+04  0.00000000000E+00 0. -1.
         23    2    1    2    0    0  0.11145160962E+03 -0.26236663219E+03 -0.53953197634E+03  0.61714487757E+03  0.92278575156E+02 0.  0.
        254    2    1    2    0    0 -0.11145160962E+03  0.26236663219E+03 -0.64207985351E+03  0.11379863504E+04  0.89525900406E+03 0.  0.
        -24    2    4    4    0    0 -0.43882995043E+03  0.19956607934E+03 -0.62706528891E+03  0.79494346515E+03  0.79535468888E+02 0.  0.
         24    2    4    4    0    0  0.32737834081E+03  0.62800552853E+02 -0.15014564608E+02  0.34304288522E+03  0.79576984604E+02 0.  0.
         13    1    3    3    0    0  0.62331009062E+02 -0.15650737436E+03 -0.40739527730E+03  0.44085215763E+03  0.00000000000E+00 0. -1.
        -13    1    3    3    0    0  0.49120600562E+02 -0.10585925783E+03 -0.13213669904E+03  0.17629271994E+03  0.00000000000E+00 0.  1.
          4    1    6    6  502    0  0.70953043216E+02  0.10817476374E+02 -0.36500136451E+02  0.80520879886E+02  0.00000000000E+00 0. -1.
          1    1    5    5  503    0 -0.17457371430E+03  0.89550774513E+02 -0.31826708569E+03  0.37388402049E+03  0.00000000000E+00 0. -1.
         -2    1    5    5    0  503 -0.26425623613E+03  0.11001530483E+03 -0.30879820322E+03  0.42105944466E+03  0.00000000000E+00 0.  1.
         -3    1    6    6    0  502  0.25642529759E+03  0.51983076479E+02  0.21485571843E+02  0.26252200533E+03  0.00000000000E+00 0.  1.
<mgrwt>
<rscale>  0 0.12977978E+04</rscale>
<asrwt>0</asrwt>
<pdfrwt beam="1">  1        2 0.22590331E+00 0.12977978E+04</pdfrwt>
<pdfrwt beam="2">  1       -2 0.44116877E-01 0.12977978E+04</pdfrwt>
<totfact> 0.63162394E+01</totfact>
</mgrwt>
</event>
<event>
12    1  0.1519630E-007  0.1590926E+04  0.7818608E-02  0.8826142E-01
          2   -1    0    0  501    0  0.00000000000E+00  0.00000000000E+00  0.28110284253E+04  0.28110284253E+04  0.00000000000E+00 0. -1.
         -2   -1    0    0    0  501 -0.00000000000E+00 -0.00000000000E+00 -0.22509950313E+03  0.22509950313E+03  0.00000000000E+00 0.  1.
         23    2    1    2    0    0 -0.30522660977E+03  0.39830398252E+03  0.12490020783E+04  0.13493962029E+04  0.95155530706E+02 0.  0.
        254    2    1    2    0    0  0.30522660977E+03 -0.39830398252E+03  0.13369268439E+04  0.16867317255E+04  0.89770885158E+03 0.  0.
        -24    2    4    4    0    0  0.59474663469E+03 -0.28303316268E+03  0.11044916141E+04  0.12884041022E+04  0.79070059290E+02 0.  0.
         24    2    4    4    0    0 -0.28952002492E+03 -0.11527081983E+03  0.23243522979E+03  0.39832762334E+03  0.86772995396E+02 0.  0.
         13    1    3    3    0    0 -0.20902558261E+03  0.31318093580E+03  0.10127635130E+04  0.10804924461E+04  0.00000000000E+00 0. -1.
        -13    1    3    3    0    0 -0.96201027163E+02  0.85123046717E+02  0.23623856525E+03  0.26890375680E+03  0.00000000000E+00 0.  1.
          4    1    6    6  502    0 -0.19944455645E+03 -0.84221398427E+02  0.10897210417E+03  0.24237634897E+03  0.00000000000E+00 0. -1.
          3    1    5    5  503    0  0.52375967770E+03 -0.25311036540E+03  0.10187959979E+04  0.11731727675E+04  0.00000000000E+00 0. -1.
         -4    1    5    5    0  503  0.70986956993E+02 -0.29922797284E+02  0.85695616198E+02  0.11523133470E+03  0.00000000000E+00 0.  1.
         -3    1    6    6    0  502 -0.90075468473E+02 -0.31049421407E+02  0.12346312562E+03  0.15595127437E+03  0.00000000000E+00 0.  1.
<mgrwt>
<rscale>  0 0.15909256E+04</rscale>
<asrwt>0</asrwt>
<pdfrwt beam="1">  1        2 0.43246589E+00 0.15909256E+04</pdfrwt>
<pdfrwt beam="2">  1       -2 0.34630695E-01 0.15909256E+04</pdfrwt>
<totfact> 0.17157943E+01</totfact>
</mgrwt>
</event>
<event>
12    1  0.1519630E-007  0.2295978E+04  0.7818608E-02  0.8479509E-01
          1   -1    0    0  501    0  0.00000000000E+00  0.00000000000E+00  0.29113586188E+04  0.29113586188E+04  0.00000000000E+00 0. -1.
         -1   -1    0    0    0  501 -0.00000000000E+00 -0.00000000000E+00 -0.45266780759E+03  0.45266780759E+03  0.00000000000E+00 0.  1.
         23    2    1    2    0    0  0.27227513149E+03  0.23409795459E+03  0.23606272530E+04  0.23895331090E+04  0.91497822970E+02 0.  0.
        254    2    1    2    0    0 -0.27227513149E+03 -0.23409795459E+03  0.98063558176E+02  0.97449331740E+03  0.90060266746E+03 0.  0.
        -24    2    4    4    0    0  0.62495754018E+01 -0.41462206993E+03  0.35147913880E+03  0.54934878296E+03  0.79347225934E+02 0.  0.
         24    2    4    4    0    0 -0.27852470690E+03  0.18052411533E+03 -0.25341558063E+03  0.42514453444E+03  0.79771236004E+02 0.  0.
         11    1    3    3    0    0  0.26009609983E+03  0.20516944262E+03  0.22592316003E+04  0.22833904408E+04  0.00000000000E+00 0. -1.
        -11    1    3    3    0    0  0.12179031666E+02  0.28928511971E+02  0.10139565273E+03  0.10614266818E+03  0.00000000000E+00 0.  1.
          2    1    6    6  502    0 -0.20402325300E+03  0.16286720094E+03 -0.22083868830E+03  0.34193703976E+03  0.00000000000E+00 0. -1.
          3    1    5    5  503    0  0.19583468702E+00 -0.41401095677E+03  0.33764979222E+03  0.53424010788E+03  0.00000000000E+00 0. -1.
         -4    1    5    5    0  503  0.60537407148E+01 -0.61111315705E+00  0.13829346580E+02  0.15108675083E+02  0.00000000000E+00 0.  1.
         -1    1    6    6    0  502 -0.74501453895E+02  0.17656914397E+02 -0.32576892324E+02  0.83207494686E+02  0.00000000000E+00 0.  1.
<mgrwt>
<rscale>  0 0.22959776E+04</rscale>
<asrwt>0</asrwt>
<pdfrwt beam="1">  1        1 0.44790131E+00 0.22959776E+04</pdfrwt>
<pdfrwt beam="2">  1       -1 0.69641203E-01 0.22959776E+04</pdfrwt>
<totfact> 0.13076005E+00</totfact>
</mgrwt>
</event>
<event>
12    1  0.1519630E-007  0.2829817E+04  0.7818608E-02  0.8294071E-01
          2   -1    0    0  501    0  0.00000000000E+00  0.00000000000E+00  0.17748274639E+04  0.17748274639E+04  0.00000000000E+00 0. -1.
         -2   -1    0    0    0  501 -0.00000000000E+00 -0.00000000000E+00 -0.11279780537E+04  0.11279780537E+04  0.00000000000E+00 0.  1.
         23    2    1    2    0    0  0.39997880395E+03  0.45341259152E+03  0.14219120972E+04  0.15478437267E+04  0.91761475066E+02 0.  0.
        254    2    1    2    0    0 -0.39997880395E+03 -0.45341259152E+03 -0.77506268712E+03  0.13549617909E+04  0.93254129345E+03 0.  0.
        -24    2    4    4    0    0 -0.61041436448E+03 -0.29587659007E+03 -0.19109892122E+03  0.70931045823E+03  0.80336016481E+02 0.  0.
         24    2    4    4    0    0  0.21043556053E+03 -0.15753600145E+03 -0.58396376590E+03  0.64565133264E+03  0.82165969633E+02 0.  0.
         11    1    3    3    0    0  0.13836591610E+02  0.42313603548E+02  0.15048984557E+03  0.15693656659E+03  0.00000000000E+00 0.  1.
        -11    1    3    3    0    0  0.38614221234E+03  0.41109898797E+03  0.12714222517E+04  0.13909071601E+04  0.00000000000E+00 0. -1.
          4    1    6    6  502    0  0.11000810727E+03 -0.13073268358E+03 -0.34192657739E+03  0.38223893385E+03  0.00000000000E+00 0. -1.
          1    1    5    5  503    0 -0.51980187554E+03 -0.25374612637E+03 -0.13230034604E+03  0.59336706011E+03  0.00000000000E+00 0. -1.
         -2    1    5    5    0  503 -0.90612488942E+02 -0.42130463701E+02 -0.58798575182E+02  0.11594339812E+03  0.00000000000E+00 0.  1.
         -3    1    6    6    0  502  0.10042745327E+03 -0.26803317876E+02 -0.24203718850E+03  0.26341239879E+03  0.00000000000E+00 0.  1.
<mgrwt>
<rscale>  0 0.28298173E+04</rscale>
<asrwt>0</asrwt>
<pdfrwt beam="1">  1        2 0.27305038E+00 0.28298173E+04</pdfrwt>
<pdfrwt beam="2">  1       -2 0.17353508E+00 0.28298173E+04</pdfrwt>
<totfact> 0.15565483E+00</totfact>
</mgrwt>
</event>
<event>
12    1  0.1519630E-007  0.1208615E+04  0.7818608E-02  0.9105349E-01
         -2   -1    0    0    0  501 -0.00000000000E+00  0.00000000000E+00  0.12170290624E+03  0.12170290624E+03  0.00000000000E+00 0.  1.
          2   -1    0    0  501    0  0.00000000000E+00 -0.00000000000E+00 -0.30006492039E+04  0.30006492039E+04  0.00000000000E+00 0. -1.
         23    2    1    2    0    0  0.66530916842E+02  0.17241388311E+03 -0.11263928884E+04  0.11450880992E+04  0.91175139119E+02 0.  0.
        254    2    1    2    0    0 -0.66530916842E+02 -0.17241388311E+03 -0.17525534092E+04  0.19772640109E+04  0.89664742596E+03 0.  0.
        -24    2    4    4    0    0  0.13756154222E+03 -0.24340466576E+03 -0.98494762484E+02  0.30698755220E+03  0.79819357049E+02 0.  0.
         24    2    4    4    0    0 -0.20409245907E+03  0.70990782649E+02 -0.16540586468E+04  0.16702764587E+04  0.84970691512E+02 0.  0.
         11    1    3    3    0    0  0.30155778444E+02  0.97731983430E+01 -0.90887833239E+02  0.96257387303E+02  0.00000000000E+00 0.  1.
        -11    1    3    3    0    0  0.36375138398E+02  0.16264068476E+03 -0.10355050552E+04  0.10488307119E+04  0.00000000000E+00 0. -1.
          4    1    6    6  502    0 -0.16891959489E+03  0.78255602248E+02 -0.11530402711E+04  0.11679724464E+04  0.00000000000E+00 0. -1.
          1    1    5    5  503    0  0.84236238994E+02 -0.14923808694E+03 -0.10066435600E+03  0.19874874370E+03  0.00000000000E+00 0. -1.
         -2    1    5    5    0  503  0.53325303231E+02 -0.94166578812E+02  0.21695935132E+01  0.10823880850E+03  0.00000000000E+00 0.  1.
         -3    1    6    6    0  502 -0.35172864180E+02 -0.72648195994E+01 -0.50101837566E+03  0.50230401226E+03  0.00000000000E+00 0.  1.
<mgrwt>
<rscale>  0 0.12086153E+04</rscale>
<asrwt>0</asrwt>
<pdfrwt beam="1">  1        2 0.46163837E+00 0.12086153E+04</pdfrwt>
<pdfrwt beam="2">  1       -2 0.18723523E-01 0.12086153E+04</pdfrwt>
<totfact> 0.41748785E+01</totfact>
</mgrwt>
</event>
<event>
12    1  0.1519630E-007  0.1552934E+04  0.7818608E-02  0.8849996E-01
         -1   -1    0    0    0  501 -0.00000000000E+00  0.00000000000E+00  0.51234721528E+03  0.51234721528E+03  0.00000000000E+00 0.  1.
          1   -1    0    0  501    0  0.00000000000E+00 -0.00000000000E+00 -0.11767432994E+04  0.11767432994E+04  0.00000000000E+00 0. -1.
         23    2    1    2    0    0 -0.39290161796E+03 -0.18852659283E+03 -0.53589678557E+03  0.69648872907E+03  0.89427218097E+02 0.  0.
        254    2    1    2    0    0  0.39290161796E+03  0.18852659283E+03 -0.12849929855E+03  0.99260178560E+03  0.88251474631E+03 0.  0.
        -24    2    4    4    0    0 -0.82625730073E+02  0.35272283961E+03 -0.27525865512E+03  0.46232075936E+03  0.82053302528E+02 0.  0.
         24    2    4    4    0    0  0.47552734804E+03 -0.16419624678E+03  0.14675935658E+03  0.53028102625E+03  0.81073990099E+02 0.  0.
         13    1    3    3    0    0 -0.17462053396E+03 -0.42154907028E+02 -0.25376579951E+03  0.31091228356E+03  0.00000000000E+00 0.  1.
        -13    1    3    3    0    0 -0.21828108400E+03 -0.14637168581E+03 -0.28213098606E+03  0.38557644552E+03  0.00000000000E+00 0. -1.
          2    1    6    6  502    0  0.42706254867E+03 -0.16999505238E+03  0.12209143133E+03  0.47559126980E+03  0.00000000000E+00 0. -1.
          1    1    5    5  503    0 -0.99010166783E+02  0.30112834624E+03 -0.24177831267E+03  0.39867034817E+03  0.00000000000E+00 0. -1.
         -2    1    5    5    0  503  0.16384436711E+02  0.51594493377E+02 -0.33480342457E+02  0.63650411186E+02  0.00000000000E+00 0.  1.
         -1    1    6    6    0  502  0.48464799370E+02  0.57988055998E+01  0.24667925250E+02  0.54689756449E+02  0.00000000000E+00 0.  1.
<mgrwt>
<rscale>  0 0.15529342E+04</rscale>
<asrwt>0</asrwt>
<pdfrwt beam="1">  1        1 0.18103743E+00 0.15529342E+04</pdfrwt>
<pdfrwt beam="2">  1       -1 0.78822649E-01 0.15529342E+04</pdfrwt>
<totfact> 0.17236775E+01</totfact>
</mgrwt>
</event>
<event>
12    1  0.1519630E-007  0.4233593E+04  0.7818608E-02  0.7959013E-01
         -2   -1    0    0    0  501 -0.00000000000E+00  0.00000000000E+00  0.28689103227E+04  0.28689103227E+04  0.00000000000E+00 0.  1.
          2   -1    0    0  501    0  0.00000000000E+00 -0.00000000000E+00 -0.15618569520E+04  0.15618569520E+04  0.00000000000E+00 0. -1.
         23    2    1    2    0    0 -0.73783710508E+03 -0.20964046357E+03 -0.13327475084E+04  0.15405192875E+04  0.92903372288E+02 0.  0.
        254    2    1    2    0    0  0.73783710508E+03  0.20964046357E+03  0.26398008790E+04  0.28902479872E+04  0.89254245224E+03 0.  0.
        -24    2    4    4    0    0 -0.19368115289E+03  0.11249922332E+03  0.52021983007E+03  0.57153174417E+03  0.76494436120E+02 0.  0.
         24    2    4    4    0    0  0.93151825797E+03  0.97141240252E+02  0.21195810489E+04  0.23187162430E+04  0.81599676299E+02 0.  0.
         13    1    3    3    0    0 -0.37051229549E+03 -0.12814688814E+03 -0.76146138752E+03  0.85646040816E+03  0.00000000000E+00 0. -1.
        -13    1    3    3    0    0 -0.36732480959E+03 -0.81493575436E+02 -0.57128612085E+03  0.68405887937E+03  0.00000000000E+00 0.  1.
          4    1    6    6  502    0  0.44078969413E+03  0.43524430814E+02  0.11031378700E+04  0.11887401275E+04  0.00000000000E+00 0. -1.
          1    1    5    5  503    0 -0.39229911751E+02  0.37001789760E+02  0.21050313161E+03  0.21730091312E+03  0.00000000000E+00 0. -1.
         -2    1    5    5    0  503 -0.15445124114E+03  0.75497433560E+02  0.30971669846E+03  0.35423083105E+03  0.00000000000E+00 0.  1.
         -3    1    6    6    0  502  0.49072856384E+03  0.53616809439E+02  0.10164431789E+04  0.11299761155E+04  0.00000000000E+00 0.  1.
<mgrwt>
<rscale>  0 0.42335931E+04</rscale>
<asrwt>0</asrwt>
<pdfrwt beam="1">  1        2 0.24028569E+00 0.42335931E+04</pdfrwt>
<pdfrwt beam="2">  1       -2 0.44137082E+00 0.42335931E+04</pdfrwt>
<totfact> 0.35915053E-02</totfact>
</mgrwt>
</event>
<event>
12    1  0.1519630E-007  0.2130943E+04  0.7818608E-02  0.8547734E-01
         -1   -1    0    0    0  501 -0.00000000000E+00  0.00000000000E+00  0.59006555192E+03  0.59006555192E+03  0.00000000000E+00 0.  1.
          1   -1    0    0  501    0  0.00000000000E+00 -0.00000000000E+00 -0.19239034705E+04  0.19239034705E+04  0.00000000000E+00 0. -1.
         23    2    1    2    0    0  0.71992696723E+03 -0.90925617137E+02  0.27055901993E+02  0.73470435469E+03  0.11178622887E+03 0.  0.
        254    2    1    2    0    0 -0.71992696723E+03  0.90925617137E+02 -0.13608938205E+04  0.17792646677E+04  0.88723641774E+03 0.  0.
        -24    2    4    4    0    0 -0.13192736437E+03 -0.15970692681E+03 -0.10327690814E+04  0.10564248892E+04  0.80687292398E+02 0.  0.
         24    2    4    4    0    0 -0.58799960286E+03  0.25063254394E+03 -0.32812473918E+03  0.72283977852E+03  0.79191514034E+02 0.  0.
         13    1    3    3    0    0  0.19276717001E+03  0.24946789187E+02  0.12156940830E+02  0.19475450016E+03  0.00000000000E+00 0. -1.
        -13    1    3    3    0    0  0.52715979723E+03 -0.11587240632E+03  0.14898961163E+02  0.53994985453E+03  0.00000000000E+00 0.  1.
          4    1    6    6  502    0 -0.43511145354E+03  0.16383986662E+03 -0.20452144477E+03  0.50793159015E+03  0.00000000000E+00 0. -1.
          3    1    5    5  503    0 -0.94891763290E+02 -0.77665192805E+02 -0.74128369924E+03  0.75135733953E+03  0.00000000000E+00 0. -1.
         -4    1    5    5    0  503 -0.37035601084E+02 -0.82041734001E+02 -0.29148538213E+03  0.30506754967E+03  0.00000000000E+00 0.  1.
         -3    1    6    6    0  502 -0.15288814932E+03  0.86792677321E+02 -0.12360329442E+03  0.21490818837E+03  0.00000000000E+00 0.  1.
<mgrwt>
<rscale>  0 0.21309427E+04</rscale>
<asrwt>0</asrwt>
<pdfrwt beam="1">  1        1 0.29598515E+00 0.21309427E+04</pdfrwt>
<pdfrwt beam="2">  1       -1 0.90779316E-01 0.21309427E+04</pdfrwt>
<totfact> 0.36478111E+00</totfact>
</mgrwt>
</event>
<event>
12    1  0.1519630E-007  0.2452743E+04  0.7818608E-02  0.8420017E-01
          1   -1    0    0  501    0  0.00000000000E+00  0.00000000000E+00  0.12844324758E+04  0.12844324758E+04  0.00000000000E+00 0. -1.
         -1   -1    0    0    0  501 -0.00000000000E+00 -0.00000000000E+00 -0.11709353223E+04  0.11709353223E+04  0.00000000000E+00 0.  1.
         23    2    1    2    0    0 -0.36141405248E+03 -0.13327557621E+03 -0.93983790528E+03  0.10200278179E+04  0.93696128263E+02 0.  0.
        254    2    1    2    0    0  0.36141405248E+03  0.13327557621E+03  0.10533350588E+04  0.14353399802E+04  0.89571402591E+03 0.  0.
        -24    2    4    4    0    0  0.49692969291E+03  0.33358384023E+03  0.37575723635E+03  0.71107608662E+03  0.78856845822E+02 0.  0.
         24    2    4    4    0    0 -0.13551564043E+03 -0.20030826402E+03  0.67757782245E+03  0.72426389361E+03  0.83418179546E+02 0.  0.
         11    1    3    3    0    0 -0.30877625117E+03 -0.14679545380E+03 -0.79957787995E+03  0.86960707486E+03  0.00000000000E+00 0.  1.
        -11    1    3    3    0    0 -0.52637801313E+02  0.13519877594E+02 -0.14026002533E+03  0.15042074299E+03  0.00000000000E+00 0. -1.
          2    1    6    6  502    0 -0.28430855297E+02 -0.10275536332E+03  0.22324628826E+03  0.24739822846E+03  0.00000000000E+00 0. -1.
          3    1    5    5  503    0  0.16357153027E+03  0.14536430521E+03  0.16505853925E+03  0.27409988713E+03  0.00000000000E+00 0. -1.
         -4    1    5    5    0  503  0.33335816264E+03  0.18821953502E+03  0.21069869711E+03  0.43697619949E+03  0.00000000000E+00 0.  1.
         -1    1    6    6    0  502 -0.10708478513E+03 -0.97552900707E+02  0.45433153419E+03  0.47686566515E+03  0.00000000000E+00 0.  1.
<mgrwt>
<rscale>  0 0.24527432E+04</rscale>
<asrwt>0</asrwt>
<pdfrwt beam="1">  1        1 0.19760500E+00 0.24527432E+04</pdfrwt>
<pdfrwt beam="2">  1       -1 0.18014390E+00 0.24527432E+04</pdfrwt>
<totfact> 0.17189725E+00</totfact>
</mgrwt>
</event>
<event>
12    1  0.1519630E-007  0.1565604E+04  0.7818608E-02  0.8841962E-01
         -1   -1    0    0    0  501 -0.00000000000E+00  0.00000000000E+00  0.41544454249E+03  0.41544454249E+03  0.00000000000E+00 0.  1.
          1   -1    0    0  501    0  0.00000000000E+00 -0.00000000000E+00 -0.14749953100E+04  0.14749953100E+04  0.00000000000E+00 0. -1.
         23    2    1    2    0    0 -0.42966887069E+03  0.21408841669E+03 -0.11638337774E+03  0.50243880723E+03  0.91926469485E+02 0.  0.
        254    2    1    2    0    0  0.42966887069E+03 -0.21408841669E+03 -0.94316738977E+03  0.13880010453E+04  0.89807181667E+03 0.  0.
        -24    2    4    4    0    0  0.49702543059E+03 -0.30547626672E+03 -0.10556158551E+04  0.12087323011E+04  0.79742798244E+02 0.  0.
         24    2    4    4    0    0 -0.67356559893E+02  0.91387850030E+02  0.11244846534E+03  0.17926874420E+03  0.81264875525E+02 0.  0.
         13    1    3    3    0    0 -0.11929600127E+03  0.15708082503E+02 -0.24467762879E+02  0.12278823720E+03  0.00000000000E+00 0. -1.
        -13    1    3    3    0    0 -0.31037286942E+03  0.19838033419E+03 -0.91915614860E+02  0.37965057003E+03  0.00000000000E+00 0.  1.
          2    1    6    6  502    0 -0.13662980136E+02  0.58729485721E+01 -0.11928389673E+02  0.19064496618E+02  0.00000000000E+00 0. -1.
          3    1    5    5  503    0  0.14039648658E+03 -0.90716370991E+02 -0.38026599680E+03  0.41538278940E+03  0.00000000000E+00 0. -1.
         -4    1    5    5    0  503  0.35662894401E+03 -0.21475989573E+03 -0.67534985831E+03  0.79334951165E+03  0.00000000000E+00 0.  1.
         -1    1    6    6    0  502 -0.53693579758E+02  0.85514901458E+02  0.12437685501E+03  0.16020424758E+03  0.00000000000E+00 0.  1.
<mgrwt>
<rscale>  0 0.15656037E+04</rscale>
<asrwt>0</asrwt>
<pdfrwt beam="1">  1        1 0.22692236E+00 0.15656037E+04</pdfrwt>
<pdfrwt beam="2">  1       -1 0.63914545E-01 0.15656037E+04</pdfrwt>
<totfact> 0.16263726E+01</totfact>
</mgrwt>
</event>
<event>
12    1  0.1519630E-007  0.1091181E+04  0.7818608E-02  0.9213830E-01
         -1   -1    0    0    0  501 -0.00000000000E+00  0.00000000000E+00  0.98736669837E+02  0.98736669837E+02  0.00000000000E+00 0.  1.
          1   -1    0    0  501    0  0.00000000000E+00 -0.00000000000E+00 -0.30147780293E+04  0.30147780293E+04  0.00000000000E+00 0. -1.
         23    2    1    2    0    0 -0.48663628654E+02  0.33496673146E+02 -0.54901862125E+02  0.11799469368E+03  0.86129886840E+02 0.  0.
        254    2    1    2    0    0  0.48663628654E+02 -0.33496673146E+02 -0.28611394973E+04  0.29955200054E+04  0.88517269726E+03 0.  0.
        -24    2    4    4    0    0 -0.13944893087E+03  0.80715778806E+02 -0.27111959463E+04  0.27171354379E+04  0.79249528695E+02 0.  0.
         24    2    4    4    0    0  0.18811255953E+03 -0.11421245195E+03 -0.14994355105E+03  0.27838456749E+03  0.81142342105E+02 0.  0.
         11    1    3    3    0    0 -0.11225766809E+02  0.47766136068E+02 -0.60108325545E+02  0.77592734165E+02  0.00000000000E+00 0. -1.
        -11    1    3    3    0    0 -0.37437861846E+02 -0.14269462922E+02  0.52064634199E+01  0.40401959519E+02  0.00000000000E+00 0.  1.
          2    1    6    6  502    0  0.83318062976E+02 -0.90489138245E+02 -0.10571741793E+03  0.16219234326E+03  0.00000000000E+00 0. -1.
          3    1    5    5  503    0 -0.15502893401E+00  0.89894512109E+01 -0.62492396118E+03  0.62498863311E+03  0.00000000000E+00 0. -1.
         -4    1    5    5    0  503 -0.13929390194E+03  0.71726327595E+02 -0.20862719851E+04  0.20921468048E+04  0.00000000000E+00 0.  1.
         -1    1    6    6    0  502  0.10479449655E+03 -0.23723313707E+02 -0.44226133118E+02  0.11619222423E+03  0.00000000000E+00 0.  1.
<mgrwt>
<rscale>  0 0.10911813E+04</rscale>
<asrwt>0</asrwt>
<pdfrwt beam="1">  1        1 0.46381200E+00 0.10911813E+04</pdfrwt>
<pdfrwt beam="2">  1       -1 0.15190257E-01 0.10911813E+04</pdfrwt>
<totfact> 0.19080415E+01</totfact>
</mgrwt>
</event>
<event>
12    1  0.1519630E-007  0.1744383E+04  0.7818608E-02  0.8736448E-01
          1   -1    0    0  501    0  0.00000000000E+00  0.00000000000E+00  0.69878037897E+03  0.69878037897E+03  0.00000000000E+00 0. -1.
         -1   -1    0    0    0  501 -0.00000000000E+00 -0.00000000000E+00 -0.10886365552E+04  0.10886365552E+04  0.00000000000E+00 0.  1.
         23    2    1    2    0    0  0.54793464903E+03  0.15685538026E+03  0.13914666731E+03  0.59681504487E+03  0.10950074357E+03 0.  0.
        254    2    1    2    0    0 -0.54793464903E+03 -0.15685538026E+03 -0.52900284356E+03  0.11906018893E+04  0.90158352938E+03 0.  0.
        -24    2    4    4    0    0 -0.69742160391E+03  0.26489016556E+02 -0.60724209464E+03  0.92872248281E+03  0.81755287186E+02 0.  0.
         24    2    4    4    0    0  0.14948695488E+03 -0.18334439681E+03  0.78239251081E+02  0.26187940651E+03  0.80609711712E+02 0.  0.
         11    1    3    3    0    0  0.34239953215E+03  0.71560633980E+02  0.36327057409E+02  0.35167885784E+03  0.00000000000E+00 0. -1.
        -11    1    3    3    0    0  0.20553511688E+03  0.85294746278E+02  0.10281960990E+03  0.24513618703E+03  0.00000000000E+00 0.  1.
          2    1    6    6  502    0 -0.76539734200E+01 -0.21736265087E+02 -0.67195893974E+00  0.23054285021E+02  0.00000000000E+00 0. -1.
          1    1    5    5  503    0 -0.86252857402E+02  0.29403824918E+02 -0.68590293623E+02  0.11405598936E+03  0.00000000000E+00 0. -1.
         -2    1    5    5    0  503 -0.61116874650E+03 -0.29148083624E+01 -0.53865180102E+03  0.81466649345E+03  0.00000000000E+00 0.  1.
         -1    1    6    6    0  502  0.15714092830E+03 -0.16160813173E+03  0.78911210020E+02  0.23882512149E+03  0.00000000000E+00 0.  1.
<mgrwt>
<rscale>  0 0.17443828E+04</rscale>
<asrwt>0</asrwt>
<pdfrwt beam="1">  1        1 0.10750467E+00 0.17443828E+04</pdfrwt>
<pdfrwt beam="2">  1       -1 0.16748255E+00 0.17443828E+04</pdfrwt>
<totfact> 0.66510693E+00</totfact>
</mgrwt>
</event>
<event>
12    1  0.1519630E-007  0.2154217E+04  0.7818608E-02  0.8537729E-01
          1   -1    0    0  501    0  0.00000000000E+00  0.00000000000E+00  0.33606869812E+04  0.33606869812E+04  0.00000000000E+00 0. -1.
         -1   -1    0    0    0  501 -0.00000000000E+00 -0.00000000000E+00 -0.34521581504E+03  0.34521581504E+03  0.00000000000E+00 0.  1.
         23    2    1    2    0    0 -0.72716877747E+03 -0.14188104024E+03  0.21043705820E+04  0.22325866223E+04  0.84633439258E+02 0.  0.
        254    2    1    2    0    0  0.72716877747E+03  0.14188104024E+03  0.91110058412E+03  0.14733161739E+04  0.88974806179E+03 0.  0.
        -24    2    4    4    0    0  0.67788631515E+02  0.28826419119E+03 -0.35165420011E+02  0.30799709422E+03  0.77032855348E+02 0.  0.
         24    2    4    4    0    0  0.65938014595E+03 -0.14638315095E+03  0.94626600414E+03  0.11653190797E+04  0.79617857168E+02 0.  0.
         13    1    3    3    0    0 -0.53244710912E+03 -0.12942534605E+03  0.16307720425E+04  0.17203686520E+04  0.00000000000E+00 0. -1.
        -13    1    3    3    0    0 -0.19472166835E+03 -0.12455694187E+02  0.47359853952E+03  0.51221797028E+03  0.00000000000E+00 0.  1.
          4    1    6    6  502    0  0.19253219390E+03 -0.41170931883E+02  0.34055587159E+03  0.39337258800E+03  0.00000000000E+00 0. -1.
          3    1    5    5  503    0 -0.32829809103E+01 -0.39504426409E+01 -0.16846534278E+01  0.54057393470E+01  0.00000000000E+00 0. -1.
         -4    1    5    5    0  503  0.71071612425E+02  0.29221463383E+03 -0.33480766583E+02  0.30259135488E+03  0.00000000000E+00 0.  1.
         -3    1    6    6    0  502  0.46684795205E+03 -0.10521221907E+03  0.60571013255E+03  0.77194649170E+03  0.00000000000E+00 0.  1.
<mgrwt>
<rscale>  0 0.21542166E+04</rscale>
<asrwt>0</asrwt>
<pdfrwt beam="1">  1        1 0.51702875E+00 0.21542166E+04</pdfrwt>
<pdfrwt beam="2">  1       -1 0.53110128E-01 0.21542166E+04</pdfrwt>
<totfact> 0.10526137E+00</totfact>
</mgrwt>
</event>
<event>
12    1  0.1519630E-007  0.1378153E+04  0.7818608E-02  0.8969786E-01
          1   -1    0    0  501    0  0.00000000000E+00  0.00000000000E+00  0.12752919673E+04  0.12752919673E+04  0.00000000000E+00 0. -1.
         -1   -1    0    0    0  501 -0.00000000000E+00 -0.00000000000E+00 -0.37232749471E+03  0.37232749471E+03  0.00000000000E+00 0.  1.
         23    2    1    2    0    0  0.20591363046E+03 -0.25133710589E+03  0.53501000032E+03  0.63507311479E+03  0.10729117708E+03 0.  0.
        254    2    1    2    0    0 -0.20591363046E+03  0.25133710589E+03  0.36795447225E+03  0.10125463472E+04  0.88560083985E+03 0.  0.
        -24    2    4    4    0    0  0.18184756536E+02  0.54659292947E+03  0.14057680377E+03  0.57056389800E+03  0.81772905187E+02 0.  0.
         24    2    4    4    0    0 -0.22409838700E+03 -0.29525582358E+03  0.22737766848E+03  0.44198244919E+03  0.79068279706E+02 0.  0.
         13    1    3    3    0    0  0.36234327408E+02 -0.10937577940E+03  0.24097585282E+03  0.26710550208E+03  0.00000000000E+00 0. -1.
        -13    1    3    3    0    0  0.16967930305E+03 -0.14196132650E+03  0.29403414750E+03  0.36796761271E+03  0.00000000000E+00 0.  1.
          2    1    6    6  502    0 -0.10361970073E+02 -0.40895081360E+02  0.49790194315E+02  0.65259800438E+02  0.00000000000E+00 0. -1.
          1    1    5    5  503    0  0.51219971254E+01  0.21098189824E+02  0.23563061508E+02  0.32040386016E+02  0.00000000000E+00 0. -1.
         -2    1    5    5    0  503  0.13062759411E+02  0.52549473965E+03  0.11701374227E+03  0.53852351199E+03  0.00000000000E+00 0.  1.
         -1    1    6    6    0  502 -0.21373641693E+03 -0.25436074222E+03  0.17758747416E+03  0.37672264875E+03  0.00000000000E+00 0.  1.
<mgrwt>
<rscale>  0 0.13781528E+04</rscale>
<asrwt>0</asrwt>
<pdfrwt beam="1">  1        1 0.19619876E+00 0.13781528E+04</pdfrwt>
<pdfrwt beam="2">  1       -1 0.57281154E-01 0.13781528E+04</pdfrwt>
<totfact> 0.28401062E+01</totfact>
</mgrwt>
</event>
<event>
12    1  0.1519630E-007  0.1530400E+04  0.7818608E-02  0.8864485E-01
          2   -1    0    0  501    0  0.00000000000E+00  0.00000000000E+00  0.10914517991E+04  0.10914517991E+04  0.00000000000E+00 0.  1.
         -2   -1    0    0    0  501 -0.00000000000E+00 -0.00000000000E+00 -0.53646996468E+03  0.53646996468E+03  0.00000000000E+00 0. -1.
         23    2    1    2    0    0  0.16461436556E+03 -0.46004004831E+03  0.25712574586E+03  0.55966767600E+03  0.91539734429E+02 0.  0.
        254    2    1    2    0    0 -0.16461436556E+03  0.46004004831E+03  0.29785608857E+03  0.10682540878E+04  0.90206086889E+03 0.  0.
        -24    2    4    4    0    0  0.23178063360E+03  0.17306094454E+03  0.45755449265E+03  0.54739591862E+03  0.81325428597E+02 0.  0.
         24    2    4    4    0    0 -0.39639499916E+03  0.28697910377E+03 -0.15969840408E+03  0.52085816917E+03  0.79395533624E+02 0.  0.
         13    1    3    3    0    0  0.17128418714E+03 -0.45774344362E+03  0.25782891288E+03  0.55257857474E+03  0.00000000000E+00 0.  1.
        -13    1    3    3    0    0 -0.66698215721E+01 -0.22966046882E+01 -0.70316702010E+00  0.70891012657E+01  0.00000000000E+00 0. -1.
          2    1    6    6  502    0 -0.15136801541E+03  0.73847687751E+02 -0.29527890768E+02  0.17099021436E+03  0.00000000000E+00 0. -1.
          3    1    5    5  503    0  0.71382855555E+02  0.91806667894E+02  0.13561888487E+03  0.17865177937E+03  0.00000000000E+00 0. -1.
         -4    1    5    5    0  503  0.16039777804E+03  0.81254276645E+02  0.32193560779E+03  0.36874413925E+03  0.00000000000E+00 0.  1.
         -1    1    6    6    0  502 -0.24502698376E+03  0.21313141602E+03 -0.13017051331E+03  0.34986795480E+03  0.00000000000E+00 0.  1.
<mgrwt>
<rscale>  0 0.15304001E+04</rscale>
<asrwt>0</asrwt>
<pdfrwt beam="1">  1        2 0.16791566E+00 0.15304001E+04</pdfrwt>
<pdfrwt beam="2">  1       -2 0.82533841E-01 0.15304001E+04</pdfrwt>
<totfact> 0.27393200E+01</totfact>
</mgrwt>
</event>
<event>
12    1  0.1519630E-007  0.1517926E+04  0.7818608E-02  0.8872619E-01
          2   -1    0    0  501    0  0.00000000000E+00  0.00000000000E+00  0.25398522723E+04  0.25398522723E+04  0.00000000000E+00 0. -1.
         -2   -1    0    0    0  501 -0.00000000000E+00 -0.00000000000E+00 -0.22679449404E+03  0.22679449404E+03  0.00000000000E+00 0.  1.
         23    2    1    2    0    0 -0.41728338564E+03 -0.26452305923E+03  0.83397175936E+03  0.97380208401E+03  0.93186536630E+02 0.  0.
        254    2    1    2    0    0  0.41728338564E+03  0.26452305923E+03  0.14790860189E+04  0.17928446824E+04  0.88458958331E+03 0.  0.
        -24    2    4    4    0    0 -0.15571239280E+03  0.21808984777E+03  0.10036663625E+04  0.10420978964E+04  0.82536825483E+02 0.  0.
         24    2    4    4    0    0  0.57299577844E+03  0.46433211456E+02  0.47541965643E+03  0.75074678594E+03  0.84360426936E+02 0.  0.
         11    1    3    3    0    0 -0.29408698519E+03 -0.17367687101E+03  0.48975459392E+03  0.59708489568E+03  0.00000000000E+00 0. -1.
        -11    1    3    3    0    0 -0.12319640045E+03 -0.90846188219E+02  0.34421716544E+03  0.37671718833E+03  0.00000000000E+00 0.  1.
          4    1    6    6  502    0  0.29767871921E+03  0.61846678060E+02  0.27380980223E+03  0.40915698608E+03  0.00000000000E+00 0. -1.
          3    1    5    5  503    0 -0.14145782910E+03  0.22399011950E+03  0.95275804368E+03  0.98890332229E+03  0.00000000000E+00 0. -1.
         -4    1    5    5    0  503 -0.14254563702E+02 -0.59002717237E+01  0.50908318824E+02  0.53194574143E+02  0.00000000000E+00 0.  1.
         -1    1    6    6    0  502  0.27531705923E+03 -0.15413466605E+02  0.20160985420E+03  0.34158979986E+03  0.00000000000E+00 0.  1.
<mgrwt>
<rscale>  0 0.15179256E+04</rscale>
<asrwt>0</asrwt>
<pdfrwt beam="1">  1        2 0.39074648E+00 0.15179256E+04</pdfrwt>
<pdfrwt beam="2">  1       -2 0.34891462E-01 0.15179256E+04</pdfrwt>
<totfact> 0.24612287E+01</totfact>
</mgrwt>
</event>
<event>
12    1  0.1519630E-007  0.2029350E+04  0.7818608E-02  0.8593020E-01
          1   -1    0    0  501    0  0.00000000000E+00  0.00000000000E+00  0.70307538061E+03  0.70307538061E+03  0.00000000000E+00 0. -1.
         -1   -1    0    0    0  501 -0.00000000000E+00 -0.00000000000E+00 -0.14643737498E+04  0.14643737498E+04  0.00000000000E+00 0.  1.
         23    2    1    2    0    0 -0.34321363279E+02  0.11332823488E+03  0.52800740134E+03  0.54896031288E+03  0.92435731434E+02 0.  0.
        254    2    1    2    0    0  0.34321363279E+02 -0.11332823488E+03 -0.12893057705E+04  0.16184888175E+04  0.97117219780E+03 0.  0.
        -24    2    4    4    0    0 -0.25322706660E+03 -0.45348316766E+03 -0.71308861791E+03  0.88601737589E+03  0.82222155080E+02 0.  0.
         24    2    4    4    0    0  0.28754842988E+03  0.34015493278E+03 -0.57621715262E+03  0.73247144165E+03  0.78094353417E+02 0.  0.
         13    1    3    3    0    0  0.22655668498E+02  0.76968712528E+02  0.23722772617E+03  0.25042854487E+03  0.00000000000E+00 0. -1.
        -13    1    3    3    0    0 -0.56977031776E+02  0.36359522352E+02  0.29077967517E+03  0.29853176801E+03  0.00000000000E+00 0.  1.
          4    1    6    6  502    0  0.82602751496E+00  0.23471597935E+02 -0.45275151204E+02  0.51004289502E+02  0.00000000000E+00 0. -1.
          3    1    5    5  503    0 -0.52403994392E+02 -0.17255054433E+03 -0.23312869294E+03  0.29473523110E+03  0.00000000000E+00 0. -1.
         -4    1    5    5    0  503 -0.20082307220E+03 -0.28093262333E+03 -0.47995992496E+03  0.59128214479E+03  0.00000000000E+00 0.  1.
         -3    1    6    6    0  502  0.28672240236E+03  0.31668333484E+03 -0.53094200142E+03  0.68146715215E+03  0.00000000000E+00 0.  1.
<mgrwt>
<rscale>  0 0.20293498E+04</rscale>
<asrwt>0</asrwt>
<pdfrwt beam="1">  1        1 0.10816544E+00 0.20293498E+04</pdfrwt>
<pdfrwt beam="2">  1       -1 0.22528827E+00 0.20293498E+04</pdfrwt>
<totfact> 0.25401221E+00</totfact>
</mgrwt>
</event>
<event>
12    1  0.1519630E-007  0.2052308E+04  0.7818608E-02  0.8582548E-01
          1   -1    0    0  501    0  0.00000000000E+00  0.00000000000E+00  0.17677803832E+04  0.17677803832E+04  0.00000000000E+00 0. -1.
         -1   -1    0    0    0  501 -0.00000000000E+00 -0.00000000000E+00 -0.59565789518E+03  0.59565789518E+03  0.00000000000E+00 0.  1.
         23    2    1    2    0    0 -0.52115716915E+03  0.14128255656E+03 -0.23743975192E+03  0.59719061151E+03  0.93238591505E+02 0.  0.
        254    2    1    2    0    0  0.52115716915E+03 -0.14128255656E+03  0.14095622400E+04  0.17662476669E+04  0.91716931736E+03 0.  0.
        -24    2    4    4    0    0  0.72687244212E+03 -0.12093768047E+03  0.69105491171E+03  0.10132975171E+04  0.79028459701E+02 0.  0.
         24    2    4    4    0    0 -0.20571527297E+03 -0.20344876084E+02  0.71850732825E+03  0.75295014981E+03  0.89154135259E+02 0.  0.
         11    1    3    3    0    0 -0.42537497861E+02 -0.91792002158E+01 -0.36166513662E+01  0.43666653273E+02  0.00000000000E+00 0. -1.
        -11    1    3    3    0    0 -0.47861967128E+03  0.15046175677E+03 -0.23382310055E+03  0.55352395824E+03  0.00000000000E+00 0.  1.
          4    1    6    6  502    0 -0.16209683501E+02  0.15851973665E+02  0.16991632166E+03  0.17142227182E+03  0.00000000000E+00 0. -1.
          3    1    5    5  503    0  0.39049575352E+02  0.11341092680E+02  0.38116650908E+02  0.55734807749E+02  0.00000000000E+00 0. -1.
         -4    1    5    5    0  503  0.68782286676E+03 -0.13227877315E+03  0.65293826080E+03  0.95756270933E+03  0.00000000000E+00 0.  1.
         -3    1    6    6    0  502 -0.18950558947E+03 -0.36196849749E+02  0.54859100659E+03  0.58152787799E+03  0.00000000000E+00 0.  1.
<mgrwt>
<rscale>  0 0.20523083E+04</rscale>
<asrwt>0</asrwt>
<pdfrwt beam="1">  1        1 0.27196621E+00 0.20523083E+04</pdfrwt>
<pdfrwt beam="2">  1       -1 0.91639677E-01 0.20523083E+04</pdfrwt>
<totfact> 0.45918501E+00</totfact>
</mgrwt>
</event>
<event>
12    1  0.1519630E-007  0.1096190E+04  0.7818608E-02  0.9208913E-01
          1   -1    0    0  501    0  0.00000000000E+00  0.00000000000E+00  0.23543185729E+04  0.23543185729E+04  0.00000000000E+00 0. -1.
         -1   -1    0    0    0  501 -0.00000000000E+00 -0.00000000000E+00 -0.12759884737E+03  0.12759884737E+03  0.00000000000E+00 0.  1.
         23    2    1    2    0    0 -0.53393386223E+02 -0.27504887694E+02  0.63778099459E+02  0.12590628154E+03  0.90428829597E+02 0.  0.
        254    2    1    2    0    0  0.53393386223E+02  0.27504887694E+02  0.21629416261E+04  0.23560111388E+04  0.93212908734E+03 0.  0.
        -24    2    4    4    0    0 -0.29692870334E+01 -0.97364380234E+02  0.21915505323E+04  0.21952911904E+04  0.83192761407E+02 0.  0.
         24    2    4    4    0    0  0.56362673257E+02  0.12486926793E+03 -0.28608906234E+02  0.16071994838E+03  0.79014854815E+02 0.  0.
         11    1    3    3    0    0 -0.65561331113E+02 -0.38761594947E+02  0.19488740772E+02  0.78616540226E+02  0.00000000000E+00 0.  1.
        -11    1    3    3    0    0  0.12167944890E+02  0.11256707253E+02  0.44289358688E+02  0.47289741319E+02  0.00000000000E+00 0. -1.
          4    1    6    6  502    0  0.43074728353E+02  0.35371788286E+02  0.18480874868E+02  0.58720851196E+02  0.00000000000E+00 0. -1.
          3    1    5    5  503    0 -0.19696361716E+02 -0.99198499576E+02  0.14376585404E+04  0.14412114237E+04  0.00000000000E+00 0. -1.
         -4    1    5    5    0  503  0.16727074683E+02  0.18341193421E+01  0.75389199198E+03  0.75407976673E+03  0.00000000000E+00 0.  1.
         -3    1    6    6    0  502  0.13287944904E+02  0.89497479642E+02 -0.47089781102E+02  0.10199909718E+03  0.00000000000E+00 0.  1.
<mgrwt>
<rscale>  0 0.10961904E+04</rscale>
<asrwt>0</asrwt>
<pdfrwt beam="1">  1        1 0.36220283E+00 0.10961904E+04</pdfrwt>
<pdfrwt beam="2">  1       -1 0.19630594E-01 0.10961904E+04</pdfrwt>
<totfact> 0.36178748E+01</totfact>
</mgrwt>
</event>
<event>
12    1  0.1519630E-007  0.1068530E+04  0.7818608E-02  0.9236420E-01
         -2   -1    0    0    0  501 -0.00000000000E+00  0.00000000000E+00  0.38077026887E+03  0.38077026887E+03  0.00000000000E+00 0. -1.
          2   -1    0    0  501    0  0.00000000000E+00 -0.00000000000E+00 -0.74963571291E+03  0.74963571291E+03  0.00000000000E+00 0.  1.
         23    2    1    2    0    0  0.87091628142E+02 -0.62763922844E+02 -0.13697578967E+03  0.19617047531E+03  0.90533014544E+02 0.  0.
        254    2    1    2    0    0 -0.87091628142E+02  0.62763922844E+02 -0.23188965437E+03  0.93423550647E+03  0.89860943020E+03 0.  0.
        -24    2    4    4    0    0  0.82587889292E+02  0.64934881799E+02  0.32263582819E+03  0.34885677182E+03  0.81054742499E+02 0.  0.
         24    2    4    4    0    0 -0.16967951743E+03 -0.21709589547E+01 -0.55452548256E+03  0.58537873465E+03  0.79836711332E+02 0.  0.
         13    1    3    3    0    0  0.22842581041E+02  0.23039345161E+02 -0.41055761714E+02  0.52327531032E+02  0.00000000000E+00 0. -1.
        -13    1    3    3    0    0  0.64249047101E+02 -0.85803268005E+02 -0.95920027957E+02  0.14384294427E+03  0.00000000000E+00 0.  1.
          4    1    6    6  502    0  0.52666093695E+01 -0.10937129331E+02 -0.43715853490E+02  0.45369966042E+02  0.00000000000E+00 0. -1.
          1    1    5    5  503    0  0.12860198234E+02  0.55601363503E+02  0.19425395620E+03  0.20246356665E+03  0.00000000000E+00 0. -1.
         -2    1    5    5    0  503  0.69727691059E+02  0.93335182964E+01  0.12838187199E+03  0.14639320517E+03  0.00000000000E+00 0.  1.
         -3    1    6    6    0  502 -0.17494612680E+03  0.87661703766E+01 -0.51080962907E+03  0.54000876861E+03  0.00000000000E+00 0.  1.
<mgrwt>
<rscale>  0 0.10685298E+04</rscale>
<asrwt>0</asrwt>
<pdfrwt beam="1">  1        2 0.11532857E+00 0.10685298E+04</pdfrwt>
<pdfrwt beam="2">  1       -2 0.58580042E-01 0.10685298E+04</pdfrwt>
<totfact> 0.10172094E+02</totfact>
</mgrwt>
</event>
<event>
12    1  0.1519630E-007  0.2263477E+04  0.7818608E-02  0.8492463E-01
         -2   -1    0    0    0  501 -0.00000000000E+00  0.00000000000E+00  0.13264266521E+04  0.13264266521E+04  0.00000000000E+00 0.  1.
          2   -1    0    0  501    0  0.00000000000E+00 -0.00000000000E+00 -0.96562557281E+03  0.96562557281E+03  0.00000000000E+00 0. -1.
         23    2    1    2    0    0 -0.57802376149E+03 -0.38162312157E+03  0.76107311359E+03  0.10330577783E+04  0.90710602271E+02 0.  0.
        254    2    1    2    0    0  0.57802376149E+03  0.38162312157E+03 -0.40027203430E+03  0.12589944466E+04  0.97216338098E+03 0.  0.
        -24    2    4    4    0    0  0.79045067671E+03  0.28144427947E+03 -0.69182272301E+02  0.84531289630E+03  0.75792816940E+02 0.  0.
         24    2    4    4    0    0 -0.21242691522E+03  0.10017884210E+03 -0.33108976200E+03  0.41368155028E+03  0.79693160466E+02 0.  0.
         13    1    3    3    0    0 -0.20661908069E+02 -0.26180110331E+02  0.15962355907E+02  0.36974442904E+02  0.00000000000E+00 0. -1.
        -13    1    3    3    0    0 -0.55736185342E+03 -0.35544301124E+03  0.74511075768E+03  0.99608333542E+03  0.00000000000E+00 0.  1.
          2    1    6    6  502    0 -0.91929547696E+02  0.69433927728E+01 -0.92506777822E+02  0.13060151755E+03  0.00000000000E+00 0. -1.
          1    1    5    5  503    0  0.39000570593E+03  0.12812940762E+03 -0.70479459098E+02  0.41652004742E+03  0.00000000000E+00 0. -1.
         -2    1    5    5    0  503  0.40044497078E+03  0.15331487185E+03  0.12971867968E+01  0.42879284888E+03  0.00000000000E+00 0.  1.
         -1    1    6    6    0  502 -0.12049736752E+03  0.93235449324E+02 -0.23858298418E+03  0.28308003273E+03  0.00000000000E+00 0.  1.
<mgrwt>
<rscale>  0 0.22634765E+04</rscale>
<asrwt>0</asrwt>
<pdfrwt beam="1">  1        2 0.14855778E+00 0.22634765E+04</pdfrwt>
<pdfrwt beam="2">  1       -2 0.20406564E+00 0.22634765E+04</pdfrwt>
<totfact> 0.30154927E+00</totfact>
</mgrwt>
</event>
<event>
12    1  0.1519630E-007  0.2859083E+04  0.7818608E-02  0.8285157E-01
         -1   -1    0    0    0  501 -0.00000000000E+00  0.00000000000E+00  0.20256507102E+04  0.20256507102E+04  0.00000000000E+00 0. -1.
          1   -1    0    0  501    0  0.00000000000E+00 -0.00000000000E+00 -0.10088553042E+04  0.10088553042E+04  0.00000000000E+00 0.  1.
         23    2    1    2    0    0  0.50857262146E+02  0.51955546900E+02 -0.90564825112E+03  0.91291821498E+03  0.89079024022E+02 0.  0.
        254    2    1    2    0    0 -0.50857262146E+02 -0.51955546900E+02  0.19224436572E+04  0.21215877994E+04  0.89446036006E+03 0.  0.
        -24    2    4    4    0    0  0.50876263882E+02  0.30531232146E+03  0.24786011261E+03  0.40446376400E+03  0.79701274146E+02 0.  0.
         24    2    4    4    0    0 -0.10173352603E+03 -0.35726786836E+03  0.16745835445E+04  0.17171240354E+04  0.79340186982E+02 0.  0.
         11    1    3    3    0    0 -0.11477645298E+02  0.35971242535E+02 -0.15564982882E+03  0.16016409036E+03  0.00000000000E+00 0. -1.
        -11    1    3    3    0    0  0.62334907444E+02  0.15984304365E+02 -0.74999842230E+03  0.75275412462E+03  0.00000000000E+00 0.  1.
          4    1    6    6  502    0 -0.47382772525E+02 -0.75594886253E+02  0.30298915040E+03  0.31585145119E+03  0.00000000000E+00 0. -1.
          3    1    5    5  503    0  0.31396638023E+02  0.30603784481E+02  0.27491122560E+02  0.51750384765E+02  0.00000000000E+00 0. -1.
         -4    1    5    5    0  503  0.19479625859E+02  0.27470853698E+03  0.22036899005E+03  0.35271337923E+03  0.00000000000E+00 0.  1.
         -3    1    6    6    0  502 -0.54350753502E+02 -0.28167298211E+03  0.13715943941E+04  0.14012725842E+04  0.00000000000E+00 0.  1.
<mgrwt>
<rscale>  0 0.28590827E+04</rscale>
<asrwt>0</asrwt>
<pdfrwt beam="1">  1        1 0.15520851E+00 0.28590827E+04</pdfrwt>
<pdfrwt beam="2">  1       -1 0.31163857E+00 0.28590827E+04</pdfrwt>
<totfact> 0.35588556E-01</totfact>
</mgrwt>
</event>
<event>
12    1  0.1519630E-007  0.1724610E+04  0.7818608E-02  0.8747451E-01
          2   -1    0    0  501    0  0.00000000000E+00  0.00000000000E+00  0.15220435695E+04  0.15220435695E+04  0.00000000000E+00 0. -1.
         -2   -1    0    0    0  501 -0.00000000000E+00 -0.00000000000E+00 -0.48853419577E+03  0.48853419577E+03  0.00000000000E+00 0.  1.
         23    2    1    2    0    0 -0.25263870098E+03 -0.50651513224E+03  0.68395641909E+03  0.89247120213E+03  0.91239087033E+02 0.  0.
        254    2    1    2    0    0  0.25263870098E+03  0.50651513224E+03  0.34955295463E+03  0.11181065631E+04  0.89866074021E+03 0.  0.
        -24    2    4    4    0    0  0.31770548416E+03 -0.17368566582E+03  0.16840444419E+03  0.40714046345E+03  0.79371373815E+02 0.  0.
         24    2    4    4    0    0 -0.65066783183E+02  0.68020079806E+03  0.18114851044E+03  0.71096609967E+03  0.75836667198E+02 0.  0.
         11    1    3    3    0    0 -0.25063769509E+03 -0.47870161773E+03  0.67155735225E+03  0.86195346184E+03  0.00000000000E+00 0. -1.
        -11    1    3    3    0    0 -0.20010058844E+01 -0.27813514510E+02  0.12399066837E+02  0.30517740290E+02  0.00000000000E+00 0.  1.
          4    1    6    6  502    0 -0.58082894053E+02  0.60907571572E+03  0.18557243962E+03  0.63936216686E+03  0.00000000000E+00 0. -1.
          1    1    5    5  503    0  0.22288202178E+03 -0.83360095861E+02  0.12736361693E+03  0.26990144892E+03  0.00000000000E+00 0. -1.
         -2    1    5    5    0  503  0.94823462385E+02 -0.90325569960E+02  0.41040827255E+02  0.13723901453E+03  0.00000000000E+00 0.  1.
         -3    1    6    6    0  502 -0.69838891294E+01  0.71125082339E+02 -0.44239291769E+01  0.71603932814E+02  0.00000000000E+00 0.  1.
<mgrwt>
<rscale>  0 0.17246105E+04</rscale>
<asrwt>0</asrwt>
<pdfrwt beam="1">  1        2 0.23416055E+00 0.17246105E+04</pdfrwt>
<pdfrwt beam="2">  1       -2 0.75159107E-01 0.17246105E+04</pdfrwt>
<totfact> 0.18617923E+01</totfact>
</mgrwt>
</event>
<event>
12    1  0.1519630E-007  0.1593408E+04  0.7818608E-02  0.8824608E-01
          2   -1    0    0  501    0  0.00000000000E+00  0.00000000000E+00  0.12883421479E+04  0.12883421479E+04  0.00000000000E+00 0. -1.
         -2   -1    0    0    0  501 -0.00000000000E+00 -0.00000000000E+00 -0.49267750080E+03  0.49267750080E+03  0.00000000000E+00 0.  1.
         23    2    1    2    0    0  0.83181030942E+02  0.16449376729E+03 -0.29392441254E+03  0.35843871517E+03  0.90052589397E+02 0.  0.
        254    2    1    2    0    0 -0.83181030942E+02 -0.16449376729E+03  0.10895890597E+04  0.14225809336E+04  0.89585429072E+03 0.  0.
        -24    2    4    4    0    0  0.64264361094E+02  0.32663867168E+03  0.67676594195E+03  0.75853493708E+03  0.80872619817E+02 0.  0.
         24    2    4    4    0    0 -0.14744539204E+03 -0.49113243898E+03  0.41282311771E+03  0.66404599648E+03  0.87080093470E+02 0.  0.
         13    1    3    3    0    0  0.92595370219E+02  0.10349663991E+03 -0.16618848084E+03  0.21657347073E+03  0.00000000000E+00 0.  1.
        -13    1    3    3    0    0 -0.94143392763E+01  0.60997127380E+02 -0.12773593170E+03  0.14186524444E+03  0.00000000000E+00 0. -1.
          4    1    6    6  502    0  0.44128008298E+01  0.13140755805E+01  0.55296310688E+01  0.71955837534E+01  0.00000000000E+00 0. -1.
          1    1    5    5  503    0 -0.15996856831E+02  0.42746137060E+02  0.12094743638E+03  0.12927263449E+03  0.00000000000E+00 0. -1.
         -2    1    5    5    0  503  0.80261217924E+02  0.28389253462E+03  0.55581850557E+03  0.62926230258E+03  0.00000000000E+00 0.  1.
         -3    1    6    6    0  502 -0.15185819287E+03 -0.49244651456E+03  0.40729348664E+03  0.65685041273E+03  0.00000000000E+00 0.  1.
<mgrwt>
<rscale>  0 0.15934079E+04</rscale>
<asrwt>0</asrwt>
<pdfrwt beam="1">  1        2 0.19820648E+00 0.15934079E+04</pdfrwt>
<pdfrwt beam="2">  1       -2 0.75796539E-01 0.15934079E+04</pdfrwt>
<totfact> 0.25131458E+01</totfact>
</mgrwt>
</event>
<event>
12    1  0.1519630E-007  0.1826324E+04  0.7818608E-02  0.8692424E-01
          2   -1    0    0  501    0  0.00000000000E+00  0.00000000000E+00  0.38396679973E+04  0.38396679973E+04  0.00000000000E+00 0. -1.
         -2   -1    0    0    0  501 -0.00000000000E+00 -0.00000000000E+00 -0.21717116906E+03  0.21717116906E+03  0.00000000000E+00 0.  1.
         23    2    1    2    0    0 -0.11825237584E+03 -0.31066464982E+03  0.35493871194E+02  0.34742461226E+03  0.94593325711E+02 0.  0.
        254    2    1    2    0    0  0.11825237584E+03  0.31066464982E+03  0.35870029570E+04  0.37094145541E+04  0.88468636887E+03 0.  0.
        -24    2    4    4    0    0  0.19758028178E+03  0.48124699544E+03  0.11594968089E+04  0.12733328853E+04  0.79417558111E+02 0.  0.
         24    2    4    4    0    0 -0.79327905937E+02 -0.17058234562E+03  0.24275061481E+04  0.24360816688E+04  0.79476691771E+02 0.  0.
         11    1    3    3    0    0  0.36661555881E+01 -0.11303155314E+03  0.48131795980E+01  0.11319337172E+03  0.00000000000E+00 0. -1.
        -11    1    3    3    0    0 -0.12191853143E+03 -0.19763309668E+03  0.30680691596E+02  0.23423124054E+03  0.00000000000E+00 0.  1.
          2    1    6    6  502    0  0.87799432554E+01 -0.69727776604E+02  0.81701489023E+03  0.82003193907E+03  0.00000000000E+00 0. -1.
          3    1    5    5  503    0  0.36662323818E+02  0.41386419926E+02  0.87808814965E+02  0.10376584085E+03  0.00000000000E+00 0. -1.
         -4    1    5    5    0  503  0.16091795796E+03  0.43986057551E+03  0.10716879939E+04  0.11695670444E+04  0.00000000000E+00 0.  1.
         -1    1    6    6    0  502 -0.88107849192E+02 -0.10085456901E+03  0.16104912579E+04  0.16160497297E+04  0.00000000000E+00 0.  1.
<mgrwt>
<rscale>  0 0.18263244E+04</rscale>
<asrwt>0</asrwt>
<pdfrwt beam="1">  1        2 0.59071810E+00 0.18263244E+04</pdfrwt>
<pdfrwt beam="2">  1       -2 0.33410952E-01 0.18263244E+04</pdfrwt>
<totfact> 0.36544366E+00</totfact>
</mgrwt>
</event>
<event>
12    1  0.1519630E-007  0.3720731E+04  0.7818608E-02  0.8063383E-01
         -2   -1    0    0    0  501 -0.00000000000E+00  0.00000000000E+00  0.11084680810E+04  0.11084680810E+04  0.00000000000E+00 0. -1.
          2   -1    0    0  501    0  0.00000000000E+00 -0.00000000000E+00 -0.31222912664E+04  0.31222912664E+04  0.00000000000E+00 0.  1.
         23    2    1    2    0    0  0.64420942117E+03 -0.15727086670E+04 -0.14664957135E+04  0.22464190845E+04  0.85852758570E+02 0.  0.
        254    2    1    2    0    0 -0.64420942117E+03  0.15727086670E+04 -0.54732747186E+03  0.19843402628E+04  0.86580632230E+03 0.  0.
        -24    2    4    4    0    0  0.11561942820E+03  0.82621218520E+03 -0.27286712973E+03  0.88146603658E+03  0.80817547718E+02 0.  0.
         24    2    4    4    0    0 -0.75982884937E+03  0.74649648177E+03 -0.27446034213E+03  0.11028742262E+04  0.80038752293E+02 0.  0.
         13    1    3    3    0    0  0.97351789521E+02 -0.20700768963E+03 -0.16295233841E+03  0.28086120964E+03  0.00000000000E+00 0. -1.
        -13    1    3    3    0    0  0.54685763165E+03 -0.13657009773E+04 -0.13035433751E+04  0.19655578749E+04  0.00000000000E+00 0.  1.
          4    1    6    6  502    0 -0.12043517749E+02  0.40439859507E+01  0.32835980599E+01  0.13121819933E+02  0.00000000000E+00 0. -1.
          3    1    5    5  503    0 -0.20145043935E+01  0.63578872584E+01  0.44555097543E+01  0.80207559190E+01  0.00000000000E+00 0. -1.
         -4    1    5    5    0  503  0.11763393259E+03  0.81985429794E+03 -0.27732263949E+03  0.87344528066E+03  0.00000000000E+00 0.  1.
         -3    1    6    6    0  502 -0.74778533163E+03  0.74245249582E+03 -0.27774394019E+03  0.10897524063E+04  0.00000000000E+00 0.  1.
<mgrwt>
<rscale>  0 0.37207312E+04</rscale>
<asrwt>0</asrwt>
<pdfrwt beam="1">  1        2 0.48035250E+00 0.37207312E+04</pdfrwt>
<pdfrwt beam="2">  1       -2 0.17053355E+00 0.37207312E+04</pdfrwt>
<totfact> 0.24806244E-01</totfact>
</mgrwt>
</event>
<event>
12    1  0.1519630E-007  0.1227599E+04  0.7818608E-02  0.9089037E-01
         -2   -1    0    0    0  501 -0.00000000000E+00  0.00000000000E+00  0.27694802260E+04  0.27694802260E+04  0.00000000000E+00 0. -1.
          2   -1    0    0  501    0  0.00000000000E+00 -0.00000000000E+00 -0.13603619329E+03  0.13603619329E+03  0.00000000000E+00 0.  1.
         23    2    1    2    0    0  0.26754463634E+03  0.40942945674E+02  0.54602745145E+03  0.61611687020E+03  0.90540393018E+02 0.  0.
        254    2    1    2    0    0 -0.26754463634E+03 -0.40942945674E+02  0.20874165812E+04  0.22893995491E+04  0.90043647996E+03 0.  0.
        -24    2    4    4    0    0 -0.47334808274E+02 -0.32042362222E+03  0.17852117448E+04  0.18161403702E+04  0.80454886939E+02 0.  0.
         24    2    4    4    0    0 -0.22020982806E+03  0.27948067655E+03  0.30220483646E+03  0.47325917887E+03  0.77747477575E+02 0.  0.
         13    1    3    3    0    0  0.82827866125E+01 -0.14312862429E+02  0.13841117856E+02  0.21564765904E+02  0.00000000000E+00 0. -1.
        -13    1    3    3    0    0  0.25926184972E+03  0.55255808103E+02  0.53218633360E+03  0.59455210429E+03  0.00000000000E+00 0.  1.
          2    1    6    6  502    0 -0.13230980355E+01  0.36212174505E+01 -0.47425651155E+01  0.61119332547E+01  0.00000000000E+00 0. -1.
          1    1    5    5  503    0 -0.20781817833E+02 -0.10606101620E+03  0.40702758253E+03  0.42113213609E+03  0.00000000000E+00 0. -1.
         -2    1    5    5    0  503 -0.26552990441E+02 -0.21436260602E+03  0.13781841622E+04  0.13950082341E+04  0.00000000000E+00 0.  1.
         -1    1    6    6    0  502 -0.21888673003E+03  0.27585945910E+03  0.30694740157E+03  0.46714724562E+03  0.00000000000E+00 0.  1.
<mgrwt>
<rscale>  0 0.12275985E+04</rscale>
<asrwt>0</asrwt>
<pdfrwt beam="1">  1        2 0.20928647E-01 0.12275985E+04</pdfrwt>
<pdfrwt beam="2">  1       -2 0.42607384E+00 0.12275985E+04</pdfrwt>
<totfact> 0.13535161E+00</totfact>
</mgrwt>
</event>
<event>
12    1  0.1519630E-007  0.1688621E+04  0.7818608E-02  0.8767881E-01
         -2   -1    0    0    0  501 -0.00000000000E+00  0.00000000000E+00  0.25167553597E+03  0.25167553597E+03  0.00000000000E+00 0. -1.
          2   -1    0    0  501    0  0.00000000000E+00 -0.00000000000E+00 -0.28324587597E+04  0.28324587597E+04  0.00000000000E+00 0.  1.
         23    2    1    2    0    0 -0.30500553216E+03  0.47248875941E+02 -0.18799817930E+04  0.19073599907E+04  0.91813730915E+02 0.  0.
        254    2    1    2    0    0  0.30500553216E+03 -0.47248875941E+02 -0.70080143078E+03  0.11767743050E+04  0.89354031170E+03 0.  0.
        -24    2    4    4    0    0 -0.12613791400E+03  0.18737204340E+03 -0.63011174150E+03  0.67460888850E+03  0.83888555048E+02 0.  0.
         24    2    4    4    0    0  0.43114344617E+03 -0.23462091934E+03 -0.70689689275E+02  0.50216541652E+03  0.79002698758E+02 0.  0.
         11    1    3    3    0    0  0.26688746822E+01  0.42729681033E+01 -0.61475523991E+01  0.79481789726E+01  0.00000000000E+00 0. -1.
        -11    1    3    3    0    0 -0.30767440684E+03  0.42975907838E+02 -0.18738342406E+04  0.18994118117E+04  0.00000000000E+00 0.  1.
          2    1    6    6  502    0  0.34165304518E+03 -0.19705436865E+03 -0.86630625820E+02  0.40380947588E+03  0.00000000000E+00 0. -1.
          1    1    5    5  503    0 -0.37415349872E+01 -0.88898682128E+01 -0.25982391314E+02  0.27714860622E+02  0.00000000000E+00 0. -1.
         -2    1    5    5    0  503 -0.12239637902E+03  0.19626191161E+03 -0.60412935019E+03  0.64689402788E+03  0.00000000000E+00 0.  1.
         -1    1    6    6    0  502  0.89490400988E+02 -0.37566550690E+02  0.15940936545E+02  0.98355940632E+02  0.00000000000E+00 0.  1.
<mgrwt>
<rscale>  0 0.16886214E+04</rscale>
<asrwt>0</asrwt>
<pdfrwt beam="1">  1        2 0.43576288E+00 0.16886214E+04</pdfrwt>
<pdfrwt beam="2">  1       -2 0.38719314E-01 0.16886214E+04</pdfrwt>
<totfact> 0.13313550E+01</totfact>
</mgrwt>
</event>
<event>
12    1  0.1519630E-007  0.1730407E+04  0.7818608E-02  0.8744210E-01
         -2   -1    0    0    0  501 -0.00000000000E+00  0.00000000000E+00  0.36223735388E+03  0.36223735388E+03  0.00000000000E+00 0.  1.
          2   -1    0    0  501    0  0.00000000000E+00 -0.00000000000E+00 -0.20665380766E+04  0.20665380766E+04  0.00000000000E+00 0. -1.
         23    2    1    2    0    0 -0.23473018798E+03 -0.22303534745E+03 -0.13765291894E+04  0.14167413213E+04  0.86488928612E+02 0.  0.
        254    2    1    2    0    0  0.23473018798E+03  0.22303534745E+03 -0.32777153329E+03  0.10120341092E+04  0.90107482084E+03 0.  0.
        -24    2    4    4    0    0  0.30392935920E+03 -0.25605395024E+03  0.27580768685E+02  0.40627455689E+03  0.79759864335E+02 0.  0.
         24    2    4    4    0    0 -0.69199171229E+02  0.47908929769E+03 -0.35535230198E+03  0.60575955229E+03  0.79713839535E+02 0.  0.
         11    1    3    3    0    0 -0.99789102407E+02 -0.61967438860E+02 -0.35850204717E+03  0.37725527996E+03  0.00000000000E+00 0.  1.
        -11    1    3    3    0    0 -0.13494108557E+03 -0.16106790859E+03 -0.10180271422E+04  0.10394860413E+04  0.00000000000E+00 0. -1.
          2    1    6    6  502    0 -0.23099346267E+02  0.27956798130E+03 -0.24860812695E+03  0.37483041066E+03  0.00000000000E+00 0. -1.
          1    1    5    5  503    0  0.21607344174E+03 -0.20809992787E+03  0.48872440679E+02  0.30394379030E+03  0.00000000000E+00 0. -1.
         -2    1    5    5    0  503  0.87855917468E+02 -0.47954022366E+02 -0.21291671994E+02  0.10233076659E+03  0.00000000000E+00 0.  1.
         -1    1    6    6    0  502 -0.46099824962E+02  0.19952131639E+03 -0.10674417503E+03  0.23092914163E+03  0.00000000000E+00 0.  1.
<mgrwt>
<rscale>  0 0.17304072E+04</rscale>
<asrwt>0</asrwt>
<pdfrwt beam="1">  1        2 0.31792894E+00 0.17304072E+04</pdfrwt>
<pdfrwt beam="2">  1       -2 0.55728823E-01 0.17304072E+04</pdfrwt>
<totfact> 0.17617247E+01</totfact>
</mgrwt>
</event>
<event>
12    1  0.1519630E-007  0.1740052E+04  0.7818608E-02  0.8738845E-01
          2   -1    0    0  501    0  0.00000000000E+00  0.00000000000E+00  0.30054579147E+04  0.30054579147E+04  0.00000000000E+00 0. -1.
         -2   -1    0    0    0  501 -0.00000000000E+00 -0.00000000000E+00 -0.25185697794E+03  0.25185697794E+03  0.00000000000E+00 0.  1.
         23    2    1    2    0    0  0.28916913955E+03  0.49355046113E+03  0.15100913179E+04  0.16175244555E+04  0.93801529260E+02 0.  0.
        254    2    1    2    0    0 -0.28916913955E+03 -0.49355046113E+03  0.12435096189E+04  0.16397904372E+04  0.90298707440E+03 0.  0.
        -24    2    4    4    0    0  0.15823282695E+03  0.90582215921E+02  0.68239125072E+03  0.71088573749E+03  0.80361354743E+02 0.  0.
         24    2    4    4    0    0 -0.44740196650E+03 -0.58413267705E+03  0.56111836820E+03  0.92890469968E+03  0.81428581769E+02 0.  0.
         13    1    3    3    0    0  0.18244902120E+03  0.27720761537E+03  0.99167773671E+03  0.10457324901E+04  0.00000000000E+00 0. -1.
        -13    1    3    3    0    0  0.10672011835E+03  0.21634284576E+03  0.51841358116E+03  0.57179196540E+03  0.00000000000E+00 0.  1.
          4    1    6    6  502    0 -0.53416610787E+02 -0.34839433829E+02  0.38878273209E+02  0.74690297798E+02  0.00000000000E+00 0. -1.
          1    1    5    5  503    0  0.19812353685E+02 -0.90478068408E+01  0.15708474822E+03  0.15858754772E+03  0.00000000000E+00 0. -1.
         -2    1    5    5    0  503  0.13842047327E+03  0.99630022762E+02  0.52530650250E+03  0.55229818977E+03  0.00000000000E+00 0.  1.
         -3    1    6    6    0  502 -0.39398535572E+03 -0.54929324322E+03  0.52224009499E+03  0.85421440188E+03  0.00000000000E+00 0.  1.
<mgrwt>
<rscale>  0 0.17400524E+04</rscale>
<asrwt>0</asrwt>
<pdfrwt beam="1">  1        2 0.46237812E+00 0.17400524E+04</pdfrwt>
<pdfrwt beam="2">  1       -2 0.38747229E-01 0.17400524E+04</pdfrwt>
<totfact> 0.10359536E+01</totfact>
</mgrwt>
</event>
<event>
12    1  0.1519630E-007  0.1438017E+04  0.7818608E-02  0.8926751E-01
          2   -1    0    0  501    0  0.00000000000E+00  0.00000000000E+00  0.24613610601E+04  0.24613610601E+04  0.00000000000E+00 0.  1.
         -2   -1    0    0    0  501 -0.00000000000E+00 -0.00000000000E+00 -0.21003548191E+03  0.21003548191E+03  0.00000000000E+00 0. -1.
         23    2    1    2    0    0  0.17005997597E+02 -0.21393153728E+03  0.13691267100E+04  0.13890009153E+04  0.93593205335E+02 0.  0.
        254    2    1    2    0    0 -0.17005997597E+02  0.21393153728E+03  0.88219886829E+03  0.12823956268E+04  0.90565324149E+03 0.  0.
        -24    2    4    4    0    0  0.36607838135E+03 -0.39107685388E+01  0.70953306469E+03  0.80233676752E+03  0.79236628057E+02 0.  0.
         24    2    4    4    0    0 -0.38308437895E+03  0.21784230581E+03  0.17266580360E+03  0.48005885928E+03  0.80212948065E+02 0.  0.
         13    1    3    3    0    0 -0.23714147203E+02 -0.15123981179E+03  0.10580671782E+04  0.10690846529E+04  0.00000000000E+00 0.  1.
        -13    1    3    3    0    0  0.40720144800E+02 -0.62691725487E+02  0.31105953176E+03  0.31991626238E+03  0.00000000000E+00 0. -1.
          4    1    6    6  502    0 -0.29009513693E+03  0.12997762961E+03  0.10167095653E+03  0.33374594540E+03  0.00000000000E+00 0. -1.
          1    1    5    5  503    0  0.33418754393E+03 -0.17285376320E+02  0.59440580339E+03  0.68212781637E+03  0.00000000000E+00 0. -1.
         -2    1    5    5    0  503  0.31890837428E+02  0.13374607781E+02  0.11512726130E+03  0.12020895116E+03  0.00000000000E+00 0.  1.
         -1    1    6    6    0  502 -0.92989242019E+02  0.87864676201E+02  0.70994847073E+02  0.14631291387E+03  0.00000000000E+00 0.  1.
<mgrwt>
<rscale>  0 0.14380169E+04</rscale>
<asrwt>0</asrwt>
<pdfrwt beam="1">  1        2 0.37867091E+00 0.14380169E+04</pdfrwt>
<pdfrwt beam="2">  1       -2 0.32313153E-01 0.14380169E+04</pdfrwt>
<totfact> 0.31822679E+01</totfact>
</mgrwt>
</event>
<event>
12    1  0.1519630E-007  0.1692864E+04  0.7818608E-02  0.8765445E-01
          2   -1    0    0  501    0  0.00000000000E+00  0.00000000000E+00  0.13043264433E+04  0.13043264433E+04  0.00000000000E+00 0. -1.
         -2   -1    0    0    0  501 -0.00000000000E+00 -0.00000000000E+00 -0.54928514758E+03  0.54928514758E+03  0.00000000000E+00 0.  1.
         23    2    1    2    0    0  0.57028056564E+03 -0.23360639552E+03  0.30233060499E+03  0.69414270305E+03  0.10314274529E+03 0.  0.
        254    2    1    2    0    0 -0.57028056564E+03  0.23360639552E+03  0.45271069075E+03  0.11594688878E+04  0.87156712925E+03 0.  0.
        -24    2    4    4    0    0 -0.73911841059E+03  0.22922741493E+03  0.13314450975E+03  0.78927530293E+03  0.79917524474E+02 0.  0.
         24    2    4    4    0    0  0.16883784495E+03  0.43789805893E+01  0.31956618101E+03  0.37019358491E+03  0.79970950414E+02 0.  0.
         11    1    3    3    0    0  0.57462531766E+03 -0.23108111586E+03  0.29721339545E+03  0.68697055267E+03  0.00000000000E+00 0. -1.
        -11    1    3    3    0    0 -0.43447520237E+01 -0.25252796633E+01  0.51172095344E+01  0.71721503710E+01  0.00000000000E+00 0.  1.
          4    1    6    6  502    0  0.34750529360E+02  0.23362642309E+02  0.33264119510E+02  0.53478163705E+02  0.00000000000E+00 0. -1.
          3    1    5    5  503    0 -0.11820472345E+03  0.63035764027E+02  0.63090093410E+01  0.13411065503E+03  0.00000000000E+00 0. -1.
         -4    1    5    5    0  503 -0.62091368714E+03  0.16619165091E+03  0.12683550041E+03  0.65516464791E+03  0.00000000000E+00 0.  1.
         -3    1    6    6    0  502  0.13408731559E+03 -0.18983661720E+02  0.28630206150E+03  0.31671542121E+03  0.00000000000E+00 0.  1.
<mgrwt>
<rscale>  0 0.16928640E+04</rscale>
<asrwt>0</asrwt>
<pdfrwt beam="1">  1        2 0.20066561E+00 0.16928640E+04</pdfrwt>
<pdfrwt beam="2">  1       -2 0.84505408E-01 0.16928640E+04</pdfrwt>
<totfact> 0.19108589E+01</totfact>
</mgrwt>
</event>
<event>
12    1  0.1519630E-007  0.1640254E+04  0.7818608E-02  0.8796193E-01
          2   -1    0    0  501    0  0.00000000000E+00  0.00000000000E+00  0.15944518585E+04  0.15944518585E+04  0.00000000000E+00 0. -1.
         -2   -1    0    0    0  501 -0.00000000000E+00 -0.00000000000E+00 -0.42184275296E+03  0.42184275296E+03  0.00000000000E+00 0.  1.
         23    2    1    2    0    0  0.17415443762E+03  0.41548875282E+03  0.38765424623E+02  0.46111330223E+03  0.90344050659E+02 0.  0.
        254    2    1    2    0    0 -0.17415443762E+03 -0.41548875282E+03  0.11338436810E+04  0.15551813093E+04  0.96437894005E+03 0.  0.
        -24    2    4    4    0    0  0.14685987596E+03 -0.59186240160E+03  0.96492905358E+03  0.11442728462E+04  0.80020887341E+02 0.  0.
         24    2    4    4    0    0 -0.32101431358E+03  0.17637364879E+03  0.16891462737E+03  0.41090846311E+03  0.78458652824E+02 0.  0.
         13    1    3    3    0    0 -0.62399871556E+01  0.72279966723E+01 -0.78293134924E+01  0.12348260013E+02  0.00000000000E+00 0. -1.
        -13    1    3    3    0    0  0.18039442478E+03  0.40826075614E+03  0.46594738115E+02  0.44876504222E+03  0.00000000000E+00 0.  1.
          2    1    6    6  502    0 -0.45006649702E+02 -0.11771465693E+01  0.32378004528E+02  0.55455562108E+02  0.00000000000E+00 0. -1.
          1    1    5    5  503    0  0.75432137077E+02 -0.16315155098E+03  0.30709107929E+03  0.35582772077E+03  0.00000000000E+00 0. -1.
         -2    1    5    5    0  503  0.71427738886E+02 -0.42871085062E+03  0.65783797430E+03  0.78844512539E+03  0.00000000000E+00 0.  1.
         -1    1    6    6    0  502 -0.27600766388E+03  0.17755079536E+03  0.13653662284E+03  0.35545290100E+03  0.00000000000E+00 0.  1.
<mgrwt>
<rscale>  0 0.16402536E+04</rscale>
<asrwt>0</asrwt>
<pdfrwt beam="1">  1        2 0.24530028E+00 0.16402536E+04</pdfrwt>
<pdfrwt beam="2">  1       -2 0.64898886E-01 0.16402536E+04</pdfrwt>
<totfact> 0.23517626E+01</totfact>
</mgrwt>
</event>
<event>
12    1  0.1519630E-007  0.1542961E+04  0.7818608E-02  0.8856377E-01
          1   -1    0    0  501    0  0.00000000000E+00  0.00000000000E+00  0.58734944957E+03  0.58734944957E+03  0.00000000000E+00 0. -1.
         -1   -1    0    0    0  501 -0.00000000000E+00 -0.00000000000E+00 -0.10133351227E+04  0.10133351227E+04  0.00000000000E+00 0.  1.
         23    2    1    2    0    0  0.21332176277E+03  0.39814123547E+03  0.95264621175E+02  0.47047984644E+03  0.90847784790E+02 0.  0.
        254    2    1    2    0    0 -0.21332176277E+03 -0.39814123547E+03 -0.52125029435E+03  0.11302047259E+04  0.89534252394E+03 0.  0.
        -24    2    4    4    0    0  0.28248888609E+03 -0.39468075685E+03 -0.18379667656E+03  0.52506351671E+03  0.79609092946E+02 0.  0.
         24    2    4    4    0    0 -0.49581064886E+03 -0.34604786231E+01 -0.33745361778E+03  0.60514120916E+03  0.80503195159E+02 0.  0.
         11    1    3    3    0    0  0.54908083032E+02  0.19465167925E+03  0.53849220461E+02  0.20929384215E+03  0.00000000000E+00 0. -1.
        -11    1    3    3    0    0  0.15841367974E+03  0.20348955622E+03  0.41415400713E+02  0.26118600429E+03  0.00000000000E+00 0.  1.
          2    1    6    6  502    0 -0.24366263574E+03 -0.24567167752E+02 -0.12611986519E+03  0.27546550816E+03  0.00000000000E+00 0. -1.
          1    1    5    5  503    0  0.10143270577E+03 -0.82601381446E+02 -0.41772057186E+02  0.13731892359E+03  0.00000000000E+00 0. -1.
         -2    1    5    5    0  503  0.18105618032E+03 -0.31207937540E+03 -0.14202461938E+03  0.38774459312E+03  0.00000000000E+00 0.  1.
         -1    1    6    6    0  502 -0.25214801312E+03  0.21106689129E+02 -0.21133375260E+03  0.32967570100E+03  0.00000000000E+00 0.  1.
<mgrwt>
<rscale>  0 0.15429606E+04</rscale>
<asrwt>0</asrwt>
<pdfrwt beam="1">  1        1 0.90361455E-01 0.15429606E+04</pdfrwt>
<pdfrwt beam="2">  1       -1 0.15589771E+00 0.15429606E+04</pdfrwt>
<totfact> 0.10694121E+01</totfact>
</mgrwt>
</event>
<event>
12    1  0.1701681E-007  0.1804935E+04  0.7818608E-02  0.8703680E-01
         -2   -1    0    0    0  501 -0.00000000000E+00  0.00000000000E+00  0.29403995097E+03  0.29403995097E+03  0.00000000000E+00 0.  1.
          2   -1    0    0  501    0  0.00000000000E+00 -0.00000000000E+00 -0.27698531529E+04  0.27698531529E+04  0.00000000000E+00 0. -1.
         23    2    1    2    0    0  0.85731385446E+02 -0.37524662532E+03 -0.18930795668E+04  0.19340058409E+04  0.92024161954E+02 0.  0.
        254    2    1    2    0    0 -0.85731385446E+02  0.37524662532E+03 -0.58273363517E+03  0.11298872630E+04  0.88820427671E+03 0.  0.
        -24    2    4    4    0    0 -0.16633570938E+03 -0.24707821984E+03 -0.32138094105E+03  0.44563093470E+03  0.81154209719E+02 0.  0.
         24    2    4    4    0    0  0.80604323931E+02  0.62232484516E+03 -0.26135269412E+03  0.68425632826E+03  0.78206279140E+02 0.  0.
         13    1    3    3    0    0  0.95834463618E+02 -0.36733475336E+03 -0.18632879306E+04  0.19015680314E+04  0.00000000000E+00 0. -1.
        -13    1    3    3    0    0 -0.10103078172E+02 -0.79118719561E+01 -0.29791636156E+02  0.32437809594E+02  0.00000000000E+00 0.  1.
          4    1    6    6  502    0  0.67021595162E+02  0.51950272517E+03 -0.18519465334E+03  0.55558260889E+03  0.00000000000E+00 0. -1.
          1    1    5    5  503    0 -0.15011451018E+03 -0.24604733649E+03 -0.28292655852E+03  0.40388252683E+03  0.00000000000E+00 0. -1.
         -2    1    5    5    0  503 -0.16221199194E+02 -0.10308833505E+01 -0.38454382530E+02  0.41748407868E+02  0.00000000000E+00 0.  1.
         -3    1    6    6    0  502  0.13582728769E+02  0.10282211999E+03 -0.76158040782E+02  0.12867371937E+03  0.00000000000E+00 0.  1.
<mgrwt>
<rscale>  0 0.18049349E+04</rscale>
<asrwt>0</asrwt>
<pdfrwt beam="1">  1        2 0.42613126E+00 0.18049349E+04</pdfrwt>
<pdfrwt beam="2">  1       -2 0.45236915E-01 0.18049349E+04</pdfrwt>
<totfact> 0.10571203E+01</totfact>
</mgrwt>
</event>
<event>
12    1  0.1519630E-007  0.2030004E+04  0.7818608E-02  0.8592720E-01
         -2   -1    0    0    0  501 -0.00000000000E+00  0.00000000000E+00  0.10745576271E+04  0.10745576271E+04  0.00000000000E+00 0.  1.
          2   -1    0    0  501    0  0.00000000000E+00 -0.00000000000E+00 -0.95874680213E+03  0.95874680213E+03  0.00000000000E+00 0. -1.
         23    2    1    2    0    0  0.70956661496E+03 -0.25061780278E+03 -0.25818375941E+03  0.80075236826E+03  0.90837423546E+02 0.  0.
        254    2    1    2    0    0 -0.70956661496E+03  0.25061780278E+03  0.37399458442E+03  0.12325520610E+04  0.90167542375E+03 0.  0.
        -24    2    4    4    0    0 -0.52306451334E+03  0.36745105452E+03 -0.14787656630E+03  0.66088006330E+03  0.79235198159E+02 0.  0.
         24    2    4    4    0    0 -0.18650210162E+03 -0.11683325174E+03  0.52187115072E+03  0.57167199771E+03  0.77629455717E+02 0.  0.
         13    1    3    3    0    0  0.50068292236E+03 -0.14405107637E+03 -0.20778894207E+03  0.56090136904E+03  0.00000000000E+00 0. -1.
        -13    1    3    3    0    0  0.20888369259E+03 -0.10656672641E+03 -0.50394817344E+02  0.23985099922E+03  0.00000000000E+00 0.  1.
          4    1    6    6  502    0 -0.12280023875E+03 -0.55846138338E+02  0.39304692687E+03  0.41555333776E+03  0.00000000000E+00 0. -1.
          1    1    5    5  503    0 -0.20418250904E+03  0.17956180768E+03 -0.36362768214E+02  0.27432679542E+03  0.00000000000E+00 0. -1.
         -2    1    5    5    0  503 -0.31888200430E+03  0.18788924684E+03 -0.11151379808E+03  0.38655326788E+03  0.00000000000E+00 0.  1.
         -3    1    6    6    0  502 -0.63701862865E+02 -0.60987113401E+02  0.12882422385E+03  0.15611865995E+03  0.00000000000E+00 0.  1.
<mgrwt>
<rscale>  0 0.20300036E+04</rscale>
<asrwt>0</asrwt>
<pdfrwt beam="1">  1        2 0.14749951E+00 0.20300036E+04</pdfrwt>
<pdfrwt beam="2">  1       -2 0.16531656E+00 0.20300036E+04</pdfrwt>
<totfact> 0.57173440E+00</totfact>
</mgrwt>
</event>
<event>
12    1  0.1519630E-007  0.2222541E+04  0.7818608E-02  0.8509104E-01
          1   -1    0    0  501    0  0.00000000000E+00  0.00000000000E+00  0.16943272785E+04  0.16943272785E+04  0.00000000000E+00 0. -1.
         -1   -1    0    0    0  501 -0.00000000000E+00 -0.00000000000E+00 -0.72885717971E+03  0.72885717971E+03  0.00000000000E+00 0.  1.
         23    2    1    2    0    0 -0.80604572463E+03 -0.44863415212E+03  0.61892264816E+03  0.11179672983E+04  0.12571126883E+03 0.  0.
        254    2    1    2    0    0  0.80604572463E+03  0.44863415212E+03  0.34654745061E+03  0.13052171599E+04  0.85587054292E+03 0.  0.
        -24    2    4    4    0    0  0.91618073192E+01 -0.20608515222E+03  0.69571529346E+02  0.23436803981E+03  0.86793730826E+02 0.  0.
         24    2    4    4    0    0  0.79688391731E+03  0.65471930434E+03  0.27697592127E+03  0.10708491200E+04  0.79503659074E+02 0.  0.
         11    1    3    3    0    0 -0.15632223220E+03 -0.14584347289E+03  0.15624096292E+03  0.26479840891E+03  0.00000000000E+00 0. -1.
        -11    1    3    3    0    0 -0.64972349243E+03 -0.30279067923E+03  0.46268168525E+03  0.85316888943E+03  0.00000000000E+00 0.  1.
          4    1    6    6  502    0  0.41824836767E+03  0.34322519390E+03  0.18636378813E+03  0.57224705532E+03  0.00000000000E+00 0. -1.
          1    1    5    5  503    0  0.23037111714E+02 -0.16217866984E+03  0.17316082922E+02  0.16471938621E+03  0.00000000000E+00 0. -1.
         -2    1    5    5    0  503 -0.13875304394E+02 -0.43906482384E+02  0.52255446424E+02  0.69648653600E+02  0.00000000000E+00 0.  1.
         -3    1    6    6    0  502  0.37863554963E+03  0.31149411044E+03  0.90612133139E+02  0.49860206473E+03  0.00000000000E+00 0.  1.
<mgrwt>
<rscale>  0 0.22225414E+04</rscale>
<asrwt>0</asrwt>
<pdfrwt beam="1">  1        1 0.26066573E+00 0.22225414E+04</pdfrwt>
<pdfrwt beam="2">  1       -1 0.11213187E+00 0.22225414E+04</pdfrwt>
<totfact> 0.31902344E+00</totfact>
</mgrwt>
</event>
<event>
12    1  0.1519630E-007  0.2152273E+04  0.7818608E-02  0.8538560E-01
          2   -1    0    0  501    0  0.00000000000E+00  0.00000000000E+00  0.29344301132E+04  0.29344301132E+04  0.00000000000E+00 0. -1.
         -2   -1    0    0    0  501 -0.00000000000E+00 -0.00000000000E+00 -0.39464906917E+03  0.39464906917E+03  0.00000000000E+00 0.  1.
         23    2    1    2    0    0 -0.10083988066E+03  0.42504215425E+03 -0.14195457689E+03  0.46769966559E+03  0.88104261359E+02 0.  0.
        254    2    1    2    0    0  0.10083988066E+03 -0.42504215425E+03  0.26817356209E+04  0.28613795167E+04  0.89719411728E+03 0.  0.
        -24    2    4    4    0    0  0.10764824846E+03 -0.15605763961E+03  0.45243068294E+02  0.21009136407E+03  0.78417560238E+02 0.  0.
         24    2    4    4    0    0 -0.68083677936E+01 -0.26898451465E+03  0.26364925526E+04  0.26512881527E+04  0.76399382372E+02 0.  0.
         11    1    3    3    0    0 -0.16356320963E+01  0.19243209295E+03 -0.70083694001E+02  0.20480358848E+03  0.00000000000E+00 0. -1.
        -11    1    3    3    0    0 -0.99204248566E+02  0.23261006130E+03 -0.71870882885E+02  0.26289607711E+03  0.00000000000E+00 0.  1.
          4    1    6    6  502    0 -0.17531929649E+02 -0.25511099266E+03  0.25633540086E+04  0.25760770098E+04  0.00000000000E+00 0. -1.
          1    1    5    5  503    0  0.80036717524E+02 -0.53119979353E+02  0.50679093956E+01  0.96194033412E+02  0.00000000000E+00 0. -1.
         -2    1    5    5    0  503  0.27611530932E+02 -0.10293766025E+03  0.40175158898E+02  0.11389733066E+03  0.00000000000E+00 0.  1.
         -3    1    6    6    0  502  0.10723561856E+02 -0.13873521989E+02  0.73138544003E+02  0.75211142859E+02  0.00000000000E+00 0.  1.
<mgrwt>
<rscale>  0 0.21522733E+04</rscale>
<asrwt>0</asrwt>
<pdfrwt beam="1">  1        2 0.45145077E+00 0.21522733E+04</pdfrwt>
<pdfrwt beam="2">  1       -2 0.60715243E-01 0.21522733E+04</pdfrwt>
<totfact> 0.44392703E+00</totfact>
</mgrwt>
</event>
<event>
12    1  0.1519630E-007  0.1672496E+04  0.7818608E-02  0.8777208E-01
          1   -1    0    0  501    0  0.00000000000E+00  0.00000000000E+00  0.31414979156E+04  0.31414979156E+04  0.00000000000E+00 0. -1.
         -1   -1    0    0    0  501 -0.00000000000E+00 -0.00000000000E+00 -0.22260426334E+03  0.22260426334E+03  0.00000000000E+00 0.  1.
         23    2    1    2    0    0  0.25158173847E+03 -0.50982141322E+03  0.13878277215E+04  0.15027200034E+04  0.94288808631E+02 0.  0.
        254    2    1    2    0    0 -0.25158173847E+03  0.50982141322E+03  0.15310659308E+04  0.18613821756E+04  0.89295547186E+03 0.  0.
        -24    2    4    4    0    0  0.52624956934E+02  0.39609727937E+03  0.14657332813E+04  0.15213212911E+04  0.79887282548E+02 0.  0.
         24    2    4    4    0    0 -0.30420669541E+03  0.11372413385E+03  0.65332649427E+02  0.34006088448E+03  0.76799465663E+02 0.  0.
         13    1    3    3    0    0  0.22706137713E+03 -0.44765309951E+03  0.12902814703E+04  0.13844769551E+04  0.00000000000E+00 0. -1.
        -13    1    3    3    0    0  0.24520361344E+02 -0.62168313705E+02  0.97546251211E+02  0.11824304831E+03  0.00000000000E+00 0.  1.
          4    1    6    6  502    0 -0.24332021452E+03  0.11807281526E+03  0.68304557408E+02  0.27894700045E+03  0.00000000000E+00 0. -1.
          1    1    5    5  503    0  0.64323647150E+02  0.33352773805E+03  0.13039592989E+04  0.13474747258E+04  0.00000000000E+00 0. -1.
         -2    1    5    5    0  503 -0.11698690216E+02  0.62569541316E+02  0.16177398247E+03  0.17384656528E+03  0.00000000000E+00 0.  1.
         -3    1    6    6    0  502 -0.60886480883E+02 -0.43486814130E+01 -0.29719079817E+01  0.61113884032E+02  0.00000000000E+00 0.  1.
<mgrwt>
<rscale>  0 0.16724961E+04</rscale>
<asrwt>0</asrwt>
<pdfrwt beam="1">  1        1 0.48330734E+00 0.16724961E+04</pdfrwt>
<pdfrwt beam="2">  1       -1 0.34246812E-01 0.16724961E+04</pdfrwt>
<totfact> 0.36369221E+00</totfact>
</mgrwt>
</event>
<event>
12    1  0.1519630E-007  0.1919649E+04  0.7818608E-02  0.8645137E-01
          2   -1    0    0  501    0  0.00000000000E+00  0.00000000000E+00  0.17099096009E+04  0.17099096009E+04  0.00000000000E+00 0.  1.
         -2   -1    0    0    0  501 -0.00000000000E+00 -0.00000000000E+00 -0.53877883645E+03  0.53877883645E+03  0.00000000000E+00 0. -1.
         23    2    1    2    0    0  0.59418065837E+03  0.47275608604E+03  0.46055103872E+03  0.89267910097E+03  0.90662816900E+02 0.  0.
        254    2    1    2    0    0 -0.59418065837E+03 -0.47275608604E+03  0.71057972577E+03  0.13560093364E+04  0.87022342081E+03 0.  0.
        -24    2    4    4    0    0 -0.67439431880E+03 -0.29617025968E+02  0.53877073261E+03  0.86758532332E+03  0.82131148023E+02 0.  0.
         24    2    4    4    0    0  0.80213660426E+02 -0.44313906007E+03  0.17180899316E+03  0.48842401311E+03  0.78950798390E+02 0.  0.
         13    1    3    3    0    0  0.53300865293E+03  0.41777043170E+03  0.44094300137E+03  0.80812195129E+03  0.00000000000E+00 0. -1.
        -13    1    3    3    0    0  0.61172005444E+02  0.54985654340E+02  0.19608037353E+02  0.84557149680E+02  0.00000000000E+00 0.  1.
          4    1    6    6  502    0  0.47248330356E+02 -0.14105493393E+03  0.24639704663E+02  0.15078466153E+03  0.00000000000E+00 0. -1.
          3    1    5    5  503    0 -0.11931976112E+03 -0.66129297792E+01  0.13807525430E+03  0.18260808330E+03  0.00000000000E+00 0. -1.
         -4    1    5    5    0  503 -0.55507455767E+03 -0.23004096188E+02  0.40069547831E+03  0.68497724003E+03  0.00000000000E+00 0.  1.
         -3    1    6    6    0  502  0.32965330070E+02 -0.30208412614E+03  0.14716928850E+03  0.33763935157E+03  0.00000000000E+00 0.  1.
<mgrwt>
<rscale>  0 0.19196490E+04</rscale>
<asrwt>0</asrwt>
<pdfrwt beam="1">  1        2 0.26306301E+00 0.19196490E+04</pdfrwt>
<pdfrwt beam="2">  1       -2 0.82889053E-01 0.19196490E+04</pdfrwt>
<totfact> 0.11551278E+01</totfact>
</mgrwt>
</event>
<event>
12    1  0.1519630E-007  0.1729150E+04  0.7818608E-02  0.8744912E-01
         -1   -1    0    0    0  501 -0.00000000000E+00  0.00000000000E+00  0.35633430853E+04  0.35633430853E+04  0.00000000000E+00 0.  1.
          1   -1    0    0  501    0  0.00000000000E+00 -0.00000000000E+00 -0.20977197158E+03  0.20977197158E+03  0.00000000000E+00 0. -1.
         23    2    1    2    0    0  0.58194445208E+03 -0.18658099285E+03  0.96655786377E+03  0.11474147648E+04  0.94099555019E+02 0.  0.
        254    2    1    2    0    0 -0.58194445208E+03  0.18658099285E+03  0.23870132499E+04  0.26257002921E+04  0.90719234798E+03 0.  0.
        -24    2    4    4    0    0 -0.66355908793E+03  0.31898729033E+03  0.23245969561E+04  0.24397100275E+04  0.79815132490E+02 0.  0.
         24    2    4    4    0    0  0.81614635844E+02 -0.13240629748E+03  0.62416293797E+02  0.18599026455E+03  0.80648672508E+02 0.  0.
         13    1    3    3    0    0  0.46657104795E+03 -0.11401983456E+03  0.71576119195E+03  0.86197630441E+03  0.00000000000E+00 0. -1.
        -13    1    3    3    0    0  0.11537340413E+03 -0.72561158283E+02  0.25079667182E+03  0.28543846039E+03  0.00000000000E+00 0.  1.
          4    1    6    6  502    0  0.23213233825E+02 -0.10506314764E+03  0.21810675951E+02  0.10978535787E+03  0.00000000000E+00 0. -1.
          1    1    5    5  503    0 -0.55428885326E+03  0.28347973209E+03  0.18746356552E+04  0.19753115529E+04  0.00000000000E+00 0. -1.
         -2    1    5    5    0  503 -0.10927023466E+03  0.35507558239E+02  0.44996130093E+03  0.46439847460E+03  0.00000000000E+00 0.  1.
         -3    1    6    6    0  502  0.58401402020E+02 -0.27343149843E+02  0.40605617845E+02  0.76204906678E+02  0.00000000000E+00 0.  1.
<mgrwt>
<rscale>  0 0.17291495E+04</rscale>
<asrwt>0</asrwt>
<pdfrwt beam="1">  1        1 0.32272614E-01 0.17291495E+04</pdfrwt>
<pdfrwt beam="2">  1       -1 0.54820658E+00 0.17291495E+04</pdfrwt>
<totfact> 0.10051460E-01</totfact>
</mgrwt>
</event>
<event>
12    1  0.1519630E-007  0.1006431E+04  0.7818608E-02  0.9301519E-01
          1   -1    0    0  501    0  0.00000000000E+00  0.00000000000E+00  0.27235545592E+04  0.27235545592E+04  0.00000000000E+00 0. -1.
         -1   -1    0    0    0  501 -0.00000000000E+00 -0.00000000000E+00 -0.92976295695E+02  0.92976295695E+02  0.00000000000E+00 0.  1.
         23    2    1    2    0    0 -0.31610776478E+00  0.34514275359E+02  0.42928070537E+03  0.44009650506E+03  0.90618290817E+02 0.  0.
        254    2    1    2    0    0  0.31610776478E+00 -0.34514275359E+02  0.22012975582E+04  0.23764343499E+04  0.89472786060E+03 0.  0.
        -24    2    4    4    0    0  0.20139897699E+03  0.13046389583E+03  0.12510166470E+03  0.28247001138E+03  0.80972246925E+02 0.  0.
         24    2    4    4    0    0 -0.20108286923E+03 -0.16497817119E+03  0.20761958935E+04  0.20939643385E+04  0.80281663971E+02 0.  0.
         13    1    3    3    0    0 -0.32179847467E+02  0.45853622180E+01  0.60015495840E+02  0.68252676655E+02  0.00000000000E+00 0.  1.
        -13    1    3    3    0    0  0.31863739702E+02  0.29928913141E+02  0.36926520953E+03  0.37184382840E+03  0.00000000000E+00 0. -1.
          2    1    6    6  502    0 -0.18104518251E+03 -0.16969701007E+03  0.19863995844E+04  0.20018385904E+04  0.00000000000E+00 0. -1.
          3    1    5    5  503    0  0.43881416766E+02  0.62231402644E+02  0.12479918793E+02  0.77162650198E+02  0.00000000000E+00 0. -1.
         -4    1    5    5    0  503  0.15751756022E+03  0.68232493182E+02  0.11262174591E+03  0.20530736118E+03  0.00000000000E+00 0.  1.
         -3    1    6    6    0  502 -0.20037686719E+02  0.47188388846E+01  0.89796309095E+02  0.92125748065E+02  0.00000000000E+00 0.  1.
<mgrwt>
<rscale>  0 0.10064313E+04</rscale>
<asrwt>0</asrwt>
<pdfrwt beam="1">  1        1 0.41900833E+00 0.10064313E+04</pdfrwt>
<pdfrwt beam="2">  1       -1 0.14304048E-01 0.10064313E+04</pdfrwt>
<totfact> 0.34213321E+01</totfact>
</mgrwt>
</event>
<event>
12    1  0.1519630E-007  0.1657539E+04  0.7818608E-02  0.8785959E-01
          2   -1    0    0  501    0  0.00000000000E+00  0.00000000000E+00  0.76802574243E+03  0.76802574243E+03  0.00000000000E+00 0. -1.
         -2   -1    0    0    0  501 -0.00000000000E+00 -0.00000000000E+00 -0.89431721619E+03  0.89431721619E+03  0.00000000000E+00 0.  1.
         23    2    1    2    0    0 -0.33428443806E+03  0.32048739932E+03  0.30533344138E+03  0.56215157932E+03  0.91255843959E+02 0.  0.
        254    2    1    2    0    0  0.33428443806E+03 -0.32048739932E+03 -0.43162491513E+03  0.11001913793E+04  0.89981261665E+03 0.  0.
        -24    2    4    4    0    0 -0.25241797644E+03 -0.47398478543E+02 -0.35226511559E+03  0.44359972197E+03  0.82027745719E+02 0.  0.
         24    2    4    4    0    0  0.58670241450E+03 -0.27308892078E+03 -0.79359799534E+02  0.65659165734E+03  0.77571546801E+02 0.  0.
         11    1    3    3    0    0 -0.35838609836E+02  0.10181351976E+02  0.47312490552E+02  0.60220740989E+02  0.00000000000E+00 0.  1.
        -11    1    3    3    0    0 -0.29844582822E+03  0.31030604734E+03  0.25802095082E+03  0.50193083833E+03  0.00000000000E+00 0. -1.
          4    1    6    6  502    0  0.13785774500E+03 -0.45161936644E+02 -0.45580120706E+02  0.15205888919E+03  0.00000000000E+00 0. -1.
          1    1    5    5  503    0 -0.12200700392E+01  0.11526960921E+02 -0.14736427347E+02  0.18748911700E+02  0.00000000000E+00 0. -1.
         -2    1    5    5    0  503 -0.25119790640E+03 -0.58925439464E+02 -0.33752868825E+03  0.42485081027E+03  0.00000000000E+00 0.  1.
         -3    1    6    6    0  502  0.44884466950E+03 -0.22792698413E+03 -0.33779678828E+02  0.50453276815E+03  0.00000000000E+00 0.  1.
<mgrwt>
<rscale>  0 0.16575387E+04</rscale>
<asrwt>0</asrwt>
<pdfrwt beam="1">  1        2 0.11815781E+00 0.16575387E+04</pdfrwt>
<pdfrwt beam="2">  1       -2 0.13758726E+00 0.16575387E+04</pdfrwt>
<totfact> 0.13036742E+01</totfact>
</mgrwt>
</event>
<event>
12    1  0.1519630E-007  0.1689138E+04  0.7818608E-02  0.8767584E-01
          1   -1    0    0  501    0  0.00000000000E+00  0.00000000000E+00  0.25410645143E+04  0.25410645143E+04  0.00000000000E+00 0. -1.
         -1   -1    0    0    0  501 -0.00000000000E+00 -0.00000000000E+00 -0.28070770721E+03  0.28070770721E+03  0.00000000000E+00 0.  1.
         23    2    1    2    0    0 -0.15004091250E+03  0.52511413584E+03  0.38939046311E+03  0.67697510836E+03  0.91723680064E+02 0.  0.
        254    2    1    2    0    0  0.15004091250E+03 -0.52511413584E+03  0.18709663439E+04  0.21447971131E+04  0.89519967896E+03 0.  0.
        -24    2    4    4    0    0 -0.10247765506E+03 -0.25605640811E+03  0.58203300823E+02  0.29316176489E+03  0.80558315804E+02 0.  0.
         24    2    4    4    0    0  0.25251856756E+03 -0.26905772773E+03  0.18127630431E+04  0.18516353482E+04  0.79283822496E+02 0.  0.
         13    1    3    3    0    0 -0.34932511692E+02  0.24867339277E+03  0.14152066761E+03  0.28824787250E+03  0.00000000000E+00 0.  1.
        -13    1    3    3    0    0 -0.11510840081E+03  0.27644074308E+03  0.24786979551E+03  0.38872723585E+03  0.00000000000E+00 0. -1.
          2    1    6    6  502    0 -0.31610893651E+01 -0.76476759103E+01  0.96357639596E+02  0.96712326729E+02  0.00000000000E+00 0. -1.
          1    1    5    5  503    0 -0.10296579227E+02 -0.20829719346E+02 -0.17870512105E+02  0.29312999756E+02  0.00000000000E+00 0. -1.
         -2    1    5    5    0  503 -0.92181075834E+02 -0.23522668877E+03  0.76073812928E+02  0.26384876514E+03  0.00000000000E+00 0.  1.
         -1    1    6    6    0  502  0.25567965693E+03 -0.26141005182E+03  0.17164054035E+04  0.17549230215E+04  0.00000000000E+00 0.  1.
<mgrwt>
<rscale>  0 0.16891375E+04</rscale>
<asrwt>0</asrwt>
<pdfrwt beam="1">  1        1 0.39093299E+00 0.16891375E+04</pdfrwt>
<pdfrwt beam="2">  1       -1 0.43185803E-01 0.16891375E+04</pdfrwt>
<totfact> 0.64000544E+00</totfact>
</mgrwt>
</event>
<event>
12    1  0.1519630E-007  0.1718549E+04  0.7818608E-02  0.8750855E-01
          2   -1    0    0  501    0  0.00000000000E+00  0.00000000000E+00  0.27573364525E+04  0.27573364525E+04  0.00000000000E+00 0. -1.
         -2   -1    0    0    0  501 -0.00000000000E+00 -0.00000000000E+00 -0.26777758645E+03  0.26777758645E+03  0.00000000000E+00 0.  1.
         23    2    1    2    0    0 -0.22309595358E+03  0.36654723912E+03  0.12590013457E+03  0.45665223180E+03  0.92475585502E+02 0.  0.
        254    2    1    2    0    0  0.22309595358E+03 -0.36654723912E+03  0.23636587315E+04  0.25684618071E+04  0.90883704418E+03 0.  0.
        -24    2    4    4    0    0  0.27284809543E+03 -0.37017889850E+03  0.24173041031E+04  0.24618556083E+04  0.76781568204E+02 0.  0.
         24    2    4    4    0    0 -0.49752141853E+02  0.36316593742E+01 -0.53645371620E+02  0.10660619884E+03  0.77450572413E+02 0.  0.
         11    1    3    3    0    0 -0.98595897397E+02  0.12771627790E+03  0.90522727351E+02  0.18500530477E+03  0.00000000000E+00 0. -1.
        -11    1    3    3    0    0 -0.12450005618E+03  0.23883096122E+03  0.35377407220E+02  0.27164692704E+03  0.00000000000E+00 0.  1.
          4    1    6    6  502    0  0.17338938621E+02 -0.14091025910E+01 -0.31125790582E+02  0.35657246136E+02  0.00000000000E+00 0. -1.
          1    1    5    5  503    0  0.71894942452E+02 -0.14459852104E+03  0.97091402864E+03  0.98425183060E+03  0.00000000000E+00 0. -1.
         -2    1    5    5    0  503  0.20095315298E+03 -0.22558037746E+03  0.14463900745E+04  0.14776037777E+04  0.00000000000E+00 0.  1.
         -3    1    6    6    0  502 -0.67091080474E+02  0.50407619652E+01 -0.22519581038E+02  0.70948952709E+02  0.00000000000E+00 0.  1.
<mgrwt>
<rscale>  0 0.17185493E+04</rscale>
<asrwt>0</asrwt>
<pdfrwt beam="1">  1        2 0.42420559E+00 0.17185493E+04</pdfrwt>
<pdfrwt beam="2">  1       -2 0.41196554E-01 0.17185493E+04</pdfrwt>
<totfact> 0.13050468E+01</totfact>
</mgrwt>
</event>
<event>
12    1  0.1519630E-007  0.1380986E+04  0.7818608E-02  0.8967698E-01
          1   -1    0    0  501    0  0.00000000000E+00  0.00000000000E+00  0.14314549365E+04  0.14314549365E+04  0.00000000000E+00 0. -1.
         -1   -1    0    0    0  501 -0.00000000000E+00 -0.00000000000E+00 -0.33307434731E+03  0.33307434731E+03  0.00000000000E+00 0.  1.
         23    2    1    2    0    0 -0.15680022269E+03  0.25333030579E+03  0.74675271833E+03  0.80901844566E+03  0.90048150549E+02 0.  0.
        254    2    1    2    0    0  0.15680022269E+03 -0.25333030579E+03  0.35162787091E+03  0.95551083819E+03  0.83701627740E+03 0.  0.
        -24    2    4    4    0    0  0.28518085097E+03 -0.49255272215E+03  0.34968400894E+03  0.67287394483E+03  0.80895844571E+02 0.  0.
         24    2    4    4    0    0 -0.12838062828E+03  0.23922241635E+03  0.19438619679E+01  0.28263689336E+03  0.78554978750E+02 0.  0.
         11    1    3    3    0    0 -0.12792857615E+03  0.15784025627E+03  0.58169242294E+03  0.61615366752E+03  0.00000000000E+00 0. -1.
        -11    1    3    3    0    0 -0.28871646545E+02  0.95490049526E+02  0.16506029538E+03  0.19286477813E+03  0.00000000000E+00 0.  1.
          4    1    6    6  502    0 -0.11938027709E+03  0.16722149352E+03 -0.21005163208E+02  0.20653303691E+03  0.00000000000E+00 0. -1.
          3    1    5    5  503    0  0.17223630879E+03 -0.24252552758E+03  0.21645931836E+03  0.36788396825E+03  0.00000000000E+00 0. -1.
         -4    1    5    5    0  503  0.11294454218E+03 -0.25002719457E+03  0.13322469058E+03  0.30498997658E+03  0.00000000000E+00 0.  1.
         -3    1    6    6    0  502 -0.90003511874E+01  0.72000922838E+02  0.22949025176E+02  0.76103856456E+02  0.00000000000E+00 0.  1.
<mgrwt>
<rscale>  0 0.13809865E+04</rscale>
<asrwt>0</asrwt>
<pdfrwt beam="1">  1        1 0.22022383E+00 0.13809865E+04</pdfrwt>
<pdfrwt beam="2">  1       -1 0.51242208E-01 0.13809865E+04</pdfrwt>
<totfact> 0.27306783E+01</totfact>
</mgrwt>
</event>
<event>
12    1  0.1519630E-007  0.1863706E+04  0.7818608E-02  0.8673136E-01
         -2   -1    0    0    0  501 -0.00000000000E+00  0.00000000000E+00  0.32712775148E+03  0.32712775148E+03  0.00000000000E+00 0.  1.
          2   -1    0    0  501    0  0.00000000000E+00 -0.00000000000E+00 -0.26544663916E+04  0.26544663916E+04  0.00000000000E+00 0. -1.
         23    2    1    2    0    0  0.48115065792E+03  0.52050880705E+03 -0.10314298170E+04  0.12548071687E+04  0.90874580758E+02 0.  0.
        254    2    1    2    0    0 -0.48115065792E+03 -0.52050880705E+03 -0.12959088231E+04  0.17267869744E+04  0.89441500612E+03 0.  0.
        -24    2    4    4    0    0  0.18049788855E+03 -0.36771769221E+03 -0.28138776363E+03  0.50343452039E+03  0.80445347067E+02 0.  0.
         24    2    4    4    0    0 -0.66164854647E+03 -0.15279111484E+03 -0.10145210595E+04  0.12233524540E+04  0.78830975385E+02 0.  0.
         11    1    3    3    0    0  0.42988703360E+03  0.44036582402E+03 -0.84309501473E+03  0.10438075131E+04  0.00000000000E+00 0. -1.
        -11    1    3    3    0    0  0.51263624317E+02  0.80142983034E+02 -0.18833480226E+03  0.21099965557E+03  0.00000000000E+00 0.  1.
          4    1    6    6  502    0 -0.27910805301E+00 -0.39130543627E+01 -0.15819019694E+02  0.16298198668E+02  0.00000000000E+00 0. -1.
          1    1    5    5  503    0  0.31781804295E+02 -0.84624147215E+02 -0.25629885602E+02  0.93958610100E+02  0.00000000000E+00 0. -1.
         -4    1    5    5    0  503  0.14871608426E+03 -0.28309354500E+03 -0.25575787803E+03  0.40947591029E+03  0.00000000000E+00 0.  1.
         -3    1    6    6    0  502 -0.66136943842E+03 -0.14887806047E+03 -0.99870203980E+03  0.12070542553E+04  0.00000000000E+00 0.  1.
<mgrwt>
<rscale>  0 0.18637056E+04</rscale>
<asrwt>0</asrwt>
<pdfrwt beam="1">  1        2 0.40837944E+00 0.18637056E+04</pdfrwt>
<pdfrwt beam="2">  1       -2 0.50327347E-01 0.18637056E+04</pdfrwt>
<totfact> 0.99276339E+00</totfact>
</mgrwt>
</event>
<event>
12    1  0.1519630E-007  0.1711724E+04  0.7818608E-02  0.8754706E-01
         -2   -1    0    0    0  501 -0.00000000000E+00  0.00000000000E+00  0.14051129730E+04  0.14051129730E+04  0.00000000000E+00 0.  1.
          2   -1    0    0  501    0  0.00000000000E+00 -0.00000000000E+00 -0.52131018595E+03  0.52131018595E+03  0.00000000000E+00 0. -1.
         23    2    1    2    0    0  0.35800068984E+03  0.33688493062E+03 -0.92681868245E+02  0.50711223044E+03  0.83168113770E+02 0.  0.
        254    2    1    2    0    0 -0.35800068984E+03 -0.33688493062E+03  0.97648465531E+03  0.14193109285E+04  0.90513274131E+03 0.  0.
        -24    2    4    4    0    0 -0.52832394093E+03  0.93203035914E+02  0.38989231894E+03  0.66803351173E+03  0.80248115001E+02 0.  0.
         24    2    4    4    0    0  0.17032325109E+03 -0.43008796654E+03  0.58659233637E+03  0.75127741681E+03  0.79633655543E+02 0.  0.
         13    1    3    3    0    0  0.24438851931E+03  0.24824201309E+03 -0.10121148949E+03  0.36275833696E+03  0.00000000000E+00 0. -1.
        -13    1    3    3    0    0  0.11361217053E+03  0.88642917536E+02  0.85296212416E+01  0.14435389347E+03  0.00000000000E+00 0.  1.
          2    1    6    6  502    0  0.16555269870E+03 -0.38850622282E+03  0.49563239862E+03  0.65114994877E+03  0.00000000000E+00 0. -1.
          1    1    5    5  503    0 -0.51091073076E+03  0.10477276052E+03  0.37458692852E+03  0.64212340961E+03  0.00000000000E+00 0. -1.
         -2    1    5    5    0  503 -0.17413210171E+02 -0.11569724605E+02  0.15305390420E+02  0.25910102118E+02  0.00000000000E+00 0.  1.
         -1    1    6    6    0  502  0.47705523865E+01 -0.41581743716E+02  0.90959937751E+02  0.10012746804E+03  0.00000000000E+00 0.  1.
<mgrwt>
<rscale>  0 0.17117239E+04</rscale>
<asrwt>0</asrwt>
<pdfrwt beam="1">  1        2 0.80201567E-01 0.17117239E+04</pdfrwt>
<pdfrwt beam="2">  1       -2 0.21617123E+00 0.17117239E+04</pdfrwt>
<totfact> 0.58237629E+00</totfact>
</mgrwt>
</event>
<event>
12    1  0.1519630E-007  0.1558567E+04  0.7818608E-02  0.8846414E-01
          2   -1    0    0  501    0  0.00000000000E+00  0.00000000000E+00  0.20140355951E+04  0.20140355951E+04  0.00000000000E+00 0. -1.
         -2   -1    0    0    0  501 -0.00000000000E+00 -0.00000000000E+00 -0.30152536774E+03  0.30152536774E+03  0.00000000000E+00 0.  1.
         23    2    1    2    0    0 -0.14378580730E+03  0.19679107961E+03 -0.97571024469E+02  0.27817232735E+03  0.91970927445E+02 0.  0.
        254    2    1    2    0    0  0.14378580730E+03 -0.19679107961E+03  0.18100812519E+04  0.20373886355E+04  0.90286057972E+03 0.  0.
        -24    2    4    4    0    0  0.44002759493E+03  0.12205191725E+03  0.67349078266E+03  0.81769715480E+03  0.80733189169E+02 0.  0.
         24    2    4    4    0    0 -0.29624178763E+03 -0.31884299686E+03  0.11365904692E+04  0.12196914807E+04  0.79933472848E+02 0.  0.
         13    1    3    3    0    0 -0.18942158694E+02 -0.53649642362E+01  0.34543846784E+01  0.19988021182E+02  0.00000000000E+00 0. -1.
        -13    1    3    3    0    0 -0.12484364860E+03  0.20215604384E+03 -0.10102540915E+03  0.25818430617E+03  0.00000000000E+00 0.  1.
          4    1    6    6  502    0 -0.20379760931E+03 -0.26571097756E+03  0.89605594154E+03  0.95658352459E+03  0.00000000000E+00 0. -1.
          3    1    5    5  503    0  0.19732926684E+03  0.85146086375E+02  0.26598159017E+03  0.34195745625E+03  0.00000000000E+00 0. -1.
         -4    1    5    5    0  503  0.24269832809E+03  0.36905830875E+02  0.40750919249E+03  0.47573969854E+03  0.00000000000E+00 0.  1.
         -3    1    6    6    0  502 -0.92444178327E+02 -0.53132019301E+02  0.24053452768E+03  0.26310795615E+03  0.00000000000E+00 0.  1.
<mgrwt>
<rscale>  0 0.15585671E+04</rscale>
<asrwt>0</asrwt>
<pdfrwt beam="1">  1        2 0.30985162E+00 0.15585671E+04</pdfrwt>
<pdfrwt beam="2">  1       -2 0.46388519E-01 0.15585671E+04</pdfrwt>
<totfact> 0.27820340E+01</totfact>
</mgrwt>
</event>
<event>
12    1  0.1519630E-007  0.2808586E+04  0.7818608E-02  0.8300608E-01
         -1   -1    0    0    0  501 -0.00000000000E+00  0.00000000000E+00  0.17924790651E+04  0.17924790651E+04  0.00000000000E+00 0.  1.
          1   -1    0    0  501    0  0.00000000000E+00 -0.00000000000E+00 -0.11001737918E+04  0.11001737918E+04  0.00000000000E+00 0. -1.
         23    2    1    2    0    0  0.88548325432E+03  0.77942142731E+03  0.73085231933E+03  0.13907249756E+04  0.91610534109E+02 0.  0.
        254    2    1    2    0    0 -0.88548325432E+03 -0.77942142731E+03 -0.38547046060E+02  0.15019278813E+04  0.92882890283E+03 0.  0.
        -24    2    4    4    0    0 -0.59427929959E+03 -0.95763684619E+03 -0.13685113328E+03  0.11379524461E+04  0.77274328347E+02 0.  0.
         24    2    4    4    0    0 -0.29120395473E+03  0.17821541888E+03  0.98304087219E+02  0.36397543516E+03  0.79081888321E+02 0.  0.
         11    1    3    3    0    0  0.19244959189E+03  0.20298917570E+03  0.20864838890E+03  0.34896360994E+03  0.00000000000E+00 0. -1.
        -11    1    3    3    0    0  0.69303366243E+03  0.57643225161E+03  0.52220393043E+03  0.10417613656E+04  0.00000000000E+00 0.  1.
          2    1    6    6  502    0 -0.19831530897E+03  0.12231923095E+03  0.10455117041E+03  0.25538579300E+03  0.00000000000E+00 0. -1.
          1    1    5    5  503    0 -0.46978071386E+03 -0.71812319091E+03 -0.77990018720E+02  0.86167121308E+03  0.00000000000E+00 0. -1.
         -2    1    5    5    0  503 -0.12449858574E+03 -0.23951365528E+03 -0.58861114560E+02  0.27628123303E+03  0.00000000000E+00 0.  1.
         -1    1    6    6    0  502 -0.92888645762E+02  0.55896187921E+02 -0.62470831938E+01  0.10858964216E+03  0.00000000000E+00 0.  1.
<mgrwt>
<rscale>  0 0.28085858E+04</rscale>
<asrwt>0</asrwt>
<pdfrwt beam="1">  1        1 0.16925751E+00 0.28085858E+04</pdfrwt>
<pdfrwt beam="2">  1       -1 0.27576601E+00 0.28085858E+04</pdfrwt>
<totfact> 0.51978806E-01</totfact>
</mgrwt>
</event>
<event>
12    1  0.1519630E-007  0.1643044E+04  0.7818608E-02  0.8794532E-01
         -2   -1    0    0    0  501 -0.00000000000E+00  0.00000000000E+00  0.39753019475E+03  0.39753019475E+03  0.00000000000E+00 0.  1.
          2   -1    0    0  501    0  0.00000000000E+00 -0.00000000000E+00 -0.16977285745E+04  0.16977285745E+04  0.00000000000E+00 0. -1.
         23    2    1    2    0    0 -0.41040612567E+03 -0.21926454677E+03 -0.32105818178E+02  0.47519038417E+03  0.90911980456E+02 0.  0.
        254    2    1    2    0    0  0.41040612567E+03  0.21926454677E+03 -0.12680925616E+04  0.16200683851E+04  0.89445664968E+03 0.  0.
        -24    2    4    4    0    0  0.94680541642E+02 -0.32842658258E+03 -0.29958246102E+03  0.46070309376E+03  0.75294518657E+02 0.  0.
         24    2    4    4    0    0  0.31572558402E+03  0.54769112934E+03 -0.96851010056E+03  0.11593652913E+04  0.80422921319E+02 0.  0.
         13    1    3    3    0    0 -0.22682572190E+02 -0.40654076253E+02  0.43189111346E+01  0.46753673551E+02  0.00000000000E+00 0. -1.
        -13    1    3    3    0    0 -0.38772355348E+03 -0.17861047051E+03 -0.36424729313E+02  0.42843671062E+03  0.00000000000E+00 0.  1.
          2    1    6    6  502    0  0.27593586434E+03  0.49306335956E+03 -0.90325178144E+03  0.10654181613E+04  0.00000000000E+00 0. -1.
          3    1    5    5  503    0  0.91157192330E+02 -0.33158707246E+03 -0.28933586444E+03  0.44941613543E+03  0.00000000000E+00 0. -1.
         -2    1    5    5    0  503  0.35233493122E+01  0.31604898860E+01 -0.10246596588E+02  0.11286958330E+02  0.00000000000E+00 0.  1.
         -1    1    6    6    0  502  0.39789719683E+02  0.54627769779E+02 -0.65258319112E+02  0.93947130008E+02  0.00000000000E+00 0.  1.
<mgrwt>
<rscale>  0 0.16430440E+04</rscale>
<asrwt>0</asrwt>
<pdfrwt beam="1">  1        2 0.26118902E+00 0.16430440E+04</pdfrwt>
<pdfrwt beam="2">  1       -2 0.61158490E-01 0.16430440E+04</pdfrwt>
<totfact> 0.23376078E+01</totfact>
</mgrwt>
</event>
<event>
12    1  0.1519630E-007  0.1117093E+04  0.7818608E-02  0.9188690E-01
         -1   -1    0    0    0  501 -0.00000000000E+00  0.00000000000E+00  0.30483808082E+03  0.30483808082E+03  0.00000000000E+00 0.  1.
          1   -1    0    0  501    0  0.00000000000E+00 -0.00000000000E+00 -0.10234091090E+04  0.10234091090E+04  0.00000000000E+00 0. -1.
         23    2    1    2    0    0  0.14797919746E+03  0.22503000244E+02 -0.62150462947E+02  0.20407353356E+03  0.12401249597E+03 0.  0.
        254    2    1    2    0    0 -0.14797919746E+03 -0.22503000244E+02 -0.65642056522E+03  0.11241736562E+04  0.90026341870E+03 0.  0.
        -24    2    4    4    0    0 -0.10277534835E+02  0.17996747726E+03 -0.80356936807E+03  0.82744262449E+03  0.80272329767E+02 0.  0.
         24    2    4    4    0    0 -0.13770166263E+03 -0.20247047750E+03  0.14714880285E+03  0.29673103175E+03  0.80252681431E+02 0.  0.
         11    1    3    3    0    0  0.66350376821E+02 -0.25863098669E+02 -0.80452833675E+02  0.10744268623E+03  0.00000000000E+00 0. -1.
        -11    1    3    3    0    0  0.81628820640E+02  0.48366098913E+02  0.18302370728E+02  0.96630847339E+02  0.00000000000E+00 0.  1.
          2    1    6    6  502    0  0.10674995191E+02 -0.10871132628E+02  0.10756652716E+02  0.18650539525E+02  0.00000000000E+00 0. -1.
          3    1    5    5  503    0 -0.12804963336E+02  0.62828994668E+01 -0.18358744608E+02  0.23248342206E+02  0.00000000000E+00 0. -1.
         -4    1    5    5    0  503  0.25274285010E+01  0.17368457779E+03 -0.78521062346E+03  0.80419428228E+03  0.00000000000E+00 0.  1.
         -1    1    6    6    0  502 -0.14837665782E+03 -0.19159934487E+03  0.13639215013E+03  0.27808049223E+03  0.00000000000E+00 0.  1.
<mgrwt>
<rscale>  0 0.11170928E+04</rscale>
<asrwt>0</asrwt>
<pdfrwt beam="1">  1        1 0.15744756E+00 0.11170928E+04</pdfrwt>
<pdfrwt beam="2">  1       -1 0.46898166E-01 0.11170928E+04</pdfrwt>
<totfact> 0.65417126E+01</totfact>
</mgrwt>
</event>
<event>
12    1  0.1519630E-007  0.1378485E+04  0.7818608E-02  0.8969541E-01
          1   -1    0    0  501    0  0.00000000000E+00  0.00000000000E+00  0.19969035822E+04  0.19969035822E+04  0.00000000000E+00 0. -1.
         -1   -1    0    0    0  501 -0.00000000000E+00 -0.00000000000E+00 -0.23789579450E+03  0.23789579450E+03  0.00000000000E+00 0.  1.
         23    2    1    2    0    0 -0.30922576351E+03  0.11619434020E+03  0.94295215757E+03  0.10032169491E+04  0.90353627164E+02 0.  0.
        254    2    1    2    0    0  0.30922576351E+03 -0.11619434020E+03  0.81605563015E+03  0.12315824276E+04  0.86123561646E+03 0.  0.
        -24    2    4    4    0    0  0.77348272263E+02 -0.84782045401E+02  0.94336003162E+03  0.95358541020E+03  0.78906494273E+02 0.  0.
         24    2    4    4    0    0  0.23187749124E+03 -0.31412294797E+02 -0.12730440148E+03  0.27799701744E+03  0.79511180718E+02 0.  0.
         13    1    3    3    0    0 -0.64005389702E+02  0.38932723978E+02  0.33243327876E+03  0.34077020371E+03  0.00000000000E+00 0. -1.
        -13    1    3    3    0    0 -0.24522037380E+03  0.77261616220E+02  0.61051887881E+03  0.66244674537E+03  0.00000000000E+00 0.  1.
          4    1    6    6  502    0  0.11531981852E+03 -0.54506520326E+02 -0.55011433521E+02  0.13890960773E+03  0.00000000000E+00 0. -1.
          3    1    5    5  503    0  0.11770151202E+02 -0.46899482285E+01  0.15732288644E+02  0.20199925240E+02  0.00000000000E+00 0. -1.
         -4    1    5    5    0  503  0.65578121061E+02 -0.80092097173E+02  0.92762774298E+03  0.93338548496E+03  0.00000000000E+00 0.  1.
         -3    1    6    6    0  502  0.11655767273E+03  0.23094225529E+02 -0.72292967958E+02  0.13908740971E+03  0.00000000000E+00 0.  1.
<mgrwt>
<rscale>  0 0.13784846E+04</rscale>
<asrwt>0</asrwt>
<pdfrwt beam="1">  1        1 0.30721592E+00 0.13784846E+04</pdfrwt>
<pdfrwt beam="2">  1       -1 0.36599354E-01 0.13784846E+04</pdfrwt>
<totfact> 0.20960325E+01</totfact>
</mgrwt>
</event>
<event>
12    1  0.1519630E-007  0.2567183E+04  0.7818608E-02  0.8379435E-01
          2   -1    0    0  501    0  0.00000000000E+00  0.00000000000E+00  0.12500248344E+04  0.12500248344E+04  0.00000000000E+00 0.  1.
         -2   -1    0    0    0  501 -0.00000000000E+00 -0.00000000000E+00 -0.13180597429E+04  0.13180597429E+04  0.00000000000E+00 0. -1.
         23    2    1    2    0    0  0.87948460981E+03 -0.40473311049E+03 -0.60080655563E+03  0.11429294039E+04  0.89537899745E+02 0.  0.
        254    2    1    2    0    0 -0.87948460981E+03  0.40473311049E+03  0.53277164717E+03  0.14251551734E+04  0.89995531588E+03 0.  0.
        -24    2    4    4    0    0 -0.55614214060E+03 -0.33305001379E+01  0.67621554938E+03  0.87927640278E+03  0.80958943126E+02 0.  0.
         24    2    4    4    0    0 -0.32334246920E+03  0.40806361062E+03 -0.14344390222E+03  0.54587877060E+03  0.79631754991E+02 0.  0.
         13    1    3    3    0    0  0.24098429555E+03 -0.88973448838E+02 -0.20029047795E+03  0.32573913007E+03  0.00000000000E+00 0. -1.
        -13    1    3    3    0    0  0.63850031426E+03 -0.31575966165E+03 -0.40051607768E+03  0.81719027387E+03  0.00000000000E+00 0.  1.
          4    1    6    6  502    0 -0.32585032955E+03  0.40928909294E+03 -0.14472326737E+03  0.54280827461E+03  0.00000000000E+00 0. -1.
          3    1    5    5  503    0 -0.27657317534E+03 -0.41974192477E+02  0.33095369428E+03  0.43334155341E+03  0.00000000000E+00 0. -1.
         -4    1    5    5    0  503 -0.27956896527E+03  0.38643692339E+02  0.34526185510E+03  0.44593484937E+03  0.00000000000E+00 0.  1.
         -3    1    6    6    0  502  0.25078603472E+01 -0.12254823140E+01  0.12793651559E+01  0.30704959901E+01  0.00000000000E+00 0.  1.
<mgrwt>
<rscale>  0 0.25671832E+04</rscale>
<asrwt>0</asrwt>
<pdfrwt beam="1">  1        2 0.19231151E+00 0.25671832E+04</pdfrwt>
<pdfrwt beam="2">  1       -2 0.20277842E+00 0.25671832E+04</pdfrwt>
<totfact> 0.20008315E+00</totfact>
</mgrwt>
</event>
<event>
12    1  0.1519630E-007  0.1297236E+04  0.7818608E-02  0.9031760E-01
         -1   -1    0    0    0  501 -0.00000000000E+00  0.00000000000E+00  0.48498783279E+03  0.48498783279E+03  0.00000000000E+00 0.  1.
          1   -1    0    0  501    0  0.00000000000E+00 -0.00000000000E+00 -0.86745584251E+03  0.86745584251E+03  0.00000000000E+00 0. -1.
         23    2    1    2    0    0 -0.29578588869E+03  0.83346559553E+02 -0.24110648512E+03  0.40109407058E+03  0.91149192798E+02 0.  0.
        254    2    1    2    0    0  0.29578588869E+03 -0.83346559553E+02 -0.14136152460E+03  0.95134960471E+03  0.88918336063E+03 0.  0.
        -24    2    4    4    0    0 -0.99862170477E+02  0.31364459484E+02  0.30931532532E+03  0.33596134026E+03  0.78980182729E+02 0.  0.
         24    2    4    4    0    0  0.39564805917E+03 -0.11471101904E+03 -0.45067684992E+03  0.61538826445E+03  0.76792501950E+02 0.  0.
         11    1    3    3    0    0 -0.14013665342E+03  0.40494883925E+00 -0.75595806023E+02  0.15922679267E+03  0.00000000000E+00 0.  1.
        -11    1    3    3    0    0 -0.15564923527E+03  0.82941610714E+02 -0.16551067910E+03  0.24186727791E+03  0.00000000000E+00 0. -1.
          4    1    6    6  502    0  0.10502854547E+03 -0.15292326174E+02 -0.74159721848E+02  0.12947785505E+03  0.00000000000E+00 0. -1.
          1    1    5    5  503    0 -0.28742629787E+02 -0.25305357368E+01  0.17607387650E+02  0.33801811757E+02  0.00000000000E+00 0. -1.
         -2    1    5    5    0  503 -0.71119540690E+02  0.33894995221E+02  0.29170793767E+03  0.30215952851E+03  0.00000000000E+00 0.  1.
         -3    1    6    6    0  502  0.29061951370E+03 -0.99418692863E+02 -0.37651712807E+03  0.48591040940E+03  0.00000000000E+00 0.  1.
<mgrwt>
<rscale>  0 0.12972363E+04</rscale>
<asrwt>0</asrwt>
<pdfrwt beam="1">  1        1 0.13345474E+00 0.12972363E+04</pdfrwt>
<pdfrwt beam="2">  1       -1 0.74613513E-01 0.12972363E+04</pdfrwt>
<totfact> 0.34400913E+01</totfact>
</mgrwt>
</event>
<event>
12    1  0.1519630E-007  0.2267225E+04  0.7818608E-02  0.8490957E-01
         -1   -1    0    0    0  501 -0.00000000000E+00  0.00000000000E+00  0.61446778543E+03  0.61446778543E+03  0.00000000000E+00 0.  1.
          1   -1    0    0  501    0  0.00000000000E+00 -0.00000000000E+00 -0.20913656806E+04  0.20913656806E+04  0.00000000000E+00 0. -1.
         23    2    1    2    0    0  0.83148063536E+03 -0.24726324931E+03 -0.15641679566E+03  0.88613364713E+03  0.90925602351E+02 0.  0.
        254    2    1    2    0    0 -0.83148063536E+03  0.24726324931E+03 -0.13204810995E+04  0.18196998189E+04  0.90284989634E+03 0.  0.
        -24    2    4    4    0    0  0.15199848387E+01 -0.16803934639E+03 -0.63348995367E+03  0.66022160475E+03  0.79646178183E+02 0.  0.
         24    2    4    4    0    0 -0.83300062020E+03  0.41530259570E+03 -0.68699114586E+03  0.11594782142E+04  0.77888480458E+02 0.  0.
         13    1    3    3    0    0  0.68625673912E+03 -0.20126295315E+03 -0.16357919702E+03  0.73363018067E+03  0.00000000000E+00 0. -1.
        -13    1    3    3    0    0  0.14522389624E+03 -0.46000296160E+02  0.71624013598E+01  0.15250346645E+03  0.00000000000E+00 0.  1.
          4    1    6    6  502    0 -0.22504451845E+03  0.11956810172E+03 -0.23146955874E+03  0.34426693547E+03  0.00000000000E+00 0. -1.
          1    1    5    5  503    0  0.22356034083E+02 -0.69801050612E+02 -0.15702070596E+03  0.17328439349E+03  0.00000000000E+00 0. -1.
         -2    1    5    5    0  503 -0.20836049245E+02 -0.98238295777E+02 -0.47646924771E+03  0.48693721127E+03  0.00000000000E+00 0.  1.
         -3    1    6    6    0  502 -0.60795610175E+03  0.29573449397E+03 -0.45552158712E+03  0.81521127870E+03  0.00000000000E+00 0.  1.
<mgrwt>
<rscale>  0 0.22672246E+04</rscale>
<asrwt>0</asrwt>
<pdfrwt beam="1">  1        1 0.32174856E+00 0.22672246E+04</pdfrwt>
<pdfrwt beam="2">  1       -1 0.94533506E-01 0.22672246E+04</pdfrwt>
<totfact> 0.25345393E+00</totfact>
</mgrwt>
</event>
<event>
12    1  0.1519630E-007  0.1448903E+04  0.7818608E-02  0.8919161E-01
         -1   -1    0    0    0  501 -0.00000000000E+00  0.00000000000E+00  0.41043950895E+03  0.41043950895E+03  0.00000000000E+00 0.  1.
          1   -1    0    0  501    0  0.00000000000E+00 -0.00000000000E+00 -0.12787023072E+04  0.12787023072E+04  0.00000000000E+00 0. -1.
         23    2    1    2    0    0 -0.11217436003E+02  0.15227918641E+03  0.20866919201E+03  0.27435154287E+03  0.91712354107E+02 0.  0.
        254    2    1    2    0    0  0.11217436003E+02 -0.15227918641E+03 -0.10769319903E+04  0.14147902733E+04  0.90472881253E+03 0.  0.
        -24    2    4    4    0    0 -0.68052529052E+02  0.35580607026E+03 -0.61836740862E+03  0.72100932730E+03  0.79038545424E+02 0.  0.
         24    2    4    4    0    0  0.79269965054E+02 -0.50808525667E+03 -0.45856458167E+03  0.69378094599E+03  0.81339843005E+02 0.  0.
         11    1    3    3    0    0 -0.11251703327E+01  0.13490030936E+03  0.11118785366E+03  0.17482018841E+03  0.00000000000E+00 0.  1.
        -11    1    3    3    0    0 -0.10092265670E+02  0.17378877049E+02  0.97481338353E+02  0.99531354461E+02  0.00000000000E+00 0. -1.
          4    1    6    6  502    0  0.74311259600E+02 -0.40611048301E+03 -0.32366033847E+03  0.52459880138E+03  0.00000000000E+00 0. -1.
          3    1    5    5  503    0 -0.13825323204E+02  0.83061638013E+02 -0.21659953798E+03  0.23239134046E+03  0.00000000000E+00 0. -1.
         -4    1    5    5    0  503 -0.54227205848E+02  0.27274443225E+03 -0.40176787064E+03  0.48861798683E+03  0.00000000000E+00 0.  1.
         -3    1    6    6    0  502  0.49587054547E+01 -0.10197477367E+03 -0.13490424320E+03  0.16918214462E+03  0.00000000000E+00 0.  1.
<mgrwt>
<rscale>  0 0.14489030E+04</rscale>
<asrwt>0</asrwt>
<pdfrwt beam="1">  1        1 0.19672343E+00 0.14489030E+04</pdfrwt>
<pdfrwt beam="2">  1       -1 0.63144540E-01 0.14489030E+04</pdfrwt>
<totfact> 0.23149289E+01</totfact>
</mgrwt>
</event>
<event>
12    1  0.1519630E-007  0.2658264E+04  0.7818608E-02  0.8348675E-01
          2   -1    0    0  501    0  0.00000000000E+00  0.00000000000E+00  0.26678665273E+04  0.26678665273E+04  0.00000000000E+00 0. -1.
         -2   -1    0    0    0  501 -0.00000000000E+00 -0.00000000000E+00 -0.66217417300E+03  0.66217417300E+03  0.00000000000E+00 0.  1.
         23    2    1    2    0    0 -0.10855782909E+04 -0.23443662139E+03  0.13770295695E+04  0.17713815905E+04  0.90230530608E+02 0.  0.
        254    2    1    2    0    0  0.10855782909E+04  0.23443662139E+03  0.62866278477E+03  0.15586591098E+04  0.89485226061E+03 0.  0.
        -24    2    4    4    0    0  0.10760191698E+04  0.21233361136E+03  0.19492320685E+03  0.11169583533E+04  0.81841860608E+02 0.  0.
         24    2    4    4    0    0  0.95591211420E+01  0.22103010037E+02  0.43373957791E+03  0.44170075648E+03  0.79935079735E+02 0.  0.
         13    1    3    3    0    0 -0.89987505687E+03 -0.17191441822E+03  0.11748082472E+04  0.14898000211E+04  0.00000000000E+00 0. -1.
        -13    1    3    3    0    0 -0.18570323407E+03 -0.62522203176E+02  0.20222132235E+03  0.28158156944E+03  0.00000000000E+00 0.  1.
          2    1    6    6  502    0  0.30327706084E+02  0.24612284653E+02  0.40067416595E+03  0.40257337415E+03  0.00000000000E+00 0. -1.
          3    1    5    5  503    0  0.51317774301E+03  0.12678970671E+03  0.61027860296E+02  0.53211974722E+03  0.00000000000E+00 0. -1.
         -4    1    5    5    0  503  0.56284142679E+03  0.85543904651E+02  0.13389534656E+03  0.58483860608E+03  0.00000000000E+00 0.  1.
         -1    1    6    6    0  502 -0.20768584942E+02 -0.25092746159E+01  0.33065411966E+02  0.39127382331E+02  0.00000000000E+00 0.  1.
<mgrwt>
<rscale>  0 0.26582643E+04</rscale>
<asrwt>0</asrwt>
<pdfrwt beam="1">  1        2 0.41044100E+00 0.26582643E+04</pdfrwt>
<pdfrwt beam="2">  1       -2 0.10187295E+00 0.26582643E+04</pdfrwt>
<totfact> 0.19300412E+00</totfact>
</mgrwt>
</event>
<event>
12    1  0.1626593E-007  0.2991518E+04  0.7818608E-02  0.8246157E-01
          1   -1    0    0  501    0  0.00000000000E+00  0.00000000000E+00  0.18303268752E+04  0.18303268752E+04  0.00000000000E+00 0. -1.
         -1   -1    0    0    0  501 -0.00000000000E+00 -0.00000000000E+00 -0.12223471500E+04  0.12223471500E+04  0.00000000000E+00 0.  1.
         23    2    1    2    0    0  0.18953535083E+03  0.10700732053E+04 -0.53661107722E+03  0.12156662475E+04  0.94406902836E+02 0.  0.
        254    2    1    2    0    0 -0.18953535083E+03 -0.10700732053E+04  0.11445908024E+04  0.18370077777E+04  0.93996231656E+03 0.  0.
        -24    2    4    4    0    0  0.21975844409E+03  0.48389831624E+02  0.13568801747E+03  0.27434070480E+03  0.78843101619E+02 0.  0.
         24    2    4    4    0    0 -0.40929379492E+03 -0.11184630369E+04  0.10089027849E+04  0.15626670729E+04  0.74582677833E+02 0.  0.
         13    1    3    3    0    0  0.85217205048E+01  0.76682543084E+02 -0.66447675036E+02  0.10182399350E+03  0.00000000000E+00 0. -1.
        -13    1    3    3    0    0  0.18101363033E+03  0.99339066220E+03 -0.47016340218E+03  0.11138422540E+04  0.00000000000E+00 0.  1.
          4    1    6    6  502    0 -0.12373429459E+01 -0.43107508758E+02  0.38689200746E+02  0.57936539276E+02  0.00000000000E+00 0. -1.
          1    1    5    5  503    0  0.65468882113E+02  0.56142890100E+01  0.19728422847E+01  0.65738777544E+02  0.00000000000E+00 0. -1.
         -2    1    5    5    0  503  0.15428956198E+03  0.42775542614E+02  0.13371517519E+03  0.20860192726E+03  0.00000000000E+00 0.  1.
         -3    1    6    6    0  502 -0.40805645198E+03 -0.10753555281E+04  0.97021358416E+03  0.15047305336E+04  0.00000000000E+00 0.  1.
<mgrwt>
<rscale>  0 0.29915179E+04</rscale>
<asrwt>0</asrwt>
<pdfrwt beam="1">  1        1 0.28158875E+00 0.29915179E+04</pdfrwt>
<pdfrwt beam="2">  1       -1 0.18805341E+00 0.29915179E+04</pdfrwt>
<totfact> 0.60344718E-01</totfact>
</mgrwt>
</event>
<event>
12    1  0.1519630E-007  0.3799608E+04  0.7818608E-02  0.8046239E-01
          2   -1    0    0  501    0  0.00000000000E+00  0.00000000000E+00  0.38440168603E+04  0.38440168603E+04  0.00000000000E+00 0. -1.
         -2   -1    0    0    0  501 -0.00000000000E+00 -0.00000000000E+00 -0.93892785746E+03  0.93892785746E+03  0.00000000000E+00 0.  1.
         23    2    1    2    0    0  0.19019676478E+03 -0.66760961301E+03  0.34496540716E+04  0.35200343192E+04  0.93010698339E+02 0.  0.
        254    2    1    2    0    0 -0.19019676478E+03  0.66760961301E+03 -0.54456506878E+03  0.12629103985E+04  0.90361172849E+03 0.  0.
        -24    2    4    4    0    0 -0.60934550038E+02  0.20468709791E+03  0.24432631825E+03  0.33579781446E+03  0.86342312708E+02 0.  0.
         24    2    4    4    0    0 -0.12926221474E+03  0.46292251510E+03 -0.78889138704E+03  0.92711258408E+03  0.78626635833E+02 0.  0.
         11    1    3    3    0    0  0.18715968314E+03 -0.52912209871E+03  0.28234756390E+04  0.28787173579E+04  0.00000000000E+00 0. -1.
        -11    1    3    3    0    0  0.30370816425E+01 -0.13848751431E+03  0.62617843257E+03  0.64131696134E+03  0.00000000000E+00 0.  1.
          4    1    6    6  502    0  0.57879143614E+01  0.47942906595E+02 -0.10895004850E+03  0.11917271212E+03  0.00000000000E+00 0. -1.
          3    1    5    5  503    0 -0.16584511213E+02 -0.30688116145E+01  0.27404900439E+02  0.32179064389E+02  0.00000000000E+00 0. -1.
         -4    1    5    5    0  503 -0.44350038826E+02  0.20775590952E+03  0.21692141781E+03  0.30361875007E+03  0.00000000000E+00 0.  1.
         -3    1    6    6    0  502 -0.13505012911E+03  0.41497960851E+03 -0.67994133854E+03  0.80793987196E+03  0.00000000000E+00 0.  1.
<mgrwt>
<rscale>  0 0.37996076E+04</rscale>
<asrwt>0</asrwt>
<pdfrwt beam="1">  1        2 0.59138720E+00 0.37996076E+04</pdfrwt>
<pdfrwt beam="2">  1       -2 0.14445044E+00 0.37996076E+04</pdfrwt>
<totfact> 0.12025793E-01</totfact>
</mgrwt>
</event>
<event>
12    1  0.1519630E-007  0.1458765E+04  0.7818608E-02  0.8912346E-01
          1   -1    0    0  501    0  0.00000000000E+00  0.00000000000E+00  0.57400561925E+03  0.57400561925E+03  0.00000000000E+00 0. -1.
         -1   -1    0    0    0  501 -0.00000000000E+00 -0.00000000000E+00 -0.92681857936E+03  0.92681857936E+03  0.00000000000E+00 0.  1.
         23    2    1    2    0    0  0.14265785218E+03  0.24610412014E+03  0.24163639979E+03  0.38417270159E+03  0.91005572409E+02 0.  0.
        254    2    1    2    0    0 -0.14265785218E+03 -0.24610412014E+03 -0.59444935990E+03  0.11166514970E+04  0.90145550282E+03 0.  0.
        -24    2    4    4    0    0 -0.81023309951E+01 -0.18501190509E+02 -0.77970487066E+03  0.78421590549E+03  0.81528886137E+02 0.  0.
         24    2    4    4    0    0 -0.13455552119E+03 -0.22760292963E+03  0.18525551076E+03  0.33243559153E+03  0.79281374792E+02 0.  0.
         11    1    3    3    0    0  0.12275476152E+03  0.13029027982E+03  0.16799831084E+03  0.24549484910E+03  0.00000000000E+00 0.  1.
        -11    1    3    3    0    0  0.19903090662E+02  0.11581384032E+03  0.73638088949E+02  0.13867785249E+03  0.00000000000E+00 0. -1.
          2    1    6    6  502    0 -0.11298324168E+02 -0.22661627528E+02 -0.62216097224E+01  0.26075082335E+02  0.00000000000E+00 0. -1.
          3    1    5    5  503    0 -0.30101731262E+02  0.43912324396E+01 -0.12166021207E+03  0.12540575883E+03  0.00000000000E+00 0. -1.
         -4    1    5    5    0  503  0.21999400267E+02 -0.22892422949E+02 -0.65804465860E+03  0.65881014667E+03  0.00000000000E+00 0.  1.
         -1    1    6    6    0  502 -0.12325719702E+03 -0.20494130210E+03  0.19147712048E+03  0.30636050919E+03  0.00000000000E+00 0.  1.
<mgrwt>
<rscale>  0 0.14587653E+04</rscale>
<asrwt>0</asrwt>
<pdfrwt beam="1">  1        1 0.88308557E-01 0.14587653E+04</pdfrwt>
<pdfrwt beam="2">  1       -1 0.14258747E+00 0.14587653E+04</pdfrwt>
<totfact> 0.14153908E+01</totfact>
</mgrwt>
</event>
<event>
12    1  0.1519630E-007  0.1231441E+04  0.7818608E-02  0.9085773E-01
         -1   -1    0    0    0  501 -0.00000000000E+00  0.00000000000E+00  0.12687466922E+03  0.12687466922E+03  0.00000000000E+00 0.  1.
          1   -1    0    0  501    0  0.00000000000E+00 -0.00000000000E+00 -0.29880821313E+04  0.29880821313E+04  0.00000000000E+00 0. -1.
         23    2    1    2    0    0 -0.17383092149E+03  0.22312566465E+02 -0.14033585689E+03  0.24321170491E+03  0.93502624487E+02 0.  0.
        254    2    1    2    0    0  0.17383092149E+03 -0.22312566465E+02 -0.27208716052E+04  0.28717450956E+04  0.90169981830E+03 0.  0.
        -24    2    4    4    0    0  0.12077009377E+03 -0.20941691214E+02 -0.27623463187E+04  0.27661934576E+04  0.79025884218E+02 0.  0.
         24    2    4    4    0    0  0.53060827725E+02 -0.13708752504E+01  0.41474713479E+02  0.10555163805E+03  0.81262941732E+02 0.  0.
         13    1    3    3    0    0 -0.12212138406E+02  0.24373973609E+02 -0.52740337143E+02  0.59369774093E+02  0.00000000000E+00 0. -1.
        -13    1    3    3    0    0 -0.16161878309E+03 -0.20614071446E+01 -0.87595519747E+02  0.18384193081E+03  0.00000000000E+00 0.  1.
          4    1    6    6  502    0  0.64155088825E+02 -0.12426084232E+02  0.46240927501E+01  0.65510802355E+02  0.00000000000E+00 0. -1.
          1    1    5    5  503    0 -0.58771170420E+01  0.10179671146E+02 -0.10642561507E+03  0.10707276849E+03  0.00000000000E+00 0. -1.
         -2    1    5    5    0  503  0.12664721081E+03 -0.31121362360E+02 -0.26559207036E+04  0.26591206891E+04  0.00000000000E+00 0.  1.
         -3    1    6    6    0  502 -0.11094261100E+02  0.11055208981E+02  0.36850620729E+02  0.40040835694E+02  0.00000000000E+00 0.  1.
<mgrwt>
<rscale>  0 0.12314413E+04</rscale>
<asrwt>0</asrwt>
<pdfrwt beam="1">  1        1 0.45970498E+00 0.12314413E+04</pdfrwt>
<pdfrwt beam="2">  1       -1 0.19519178E-01 0.12314413E+04</pdfrwt>
<totfact> 0.12983805E+01</totfact>
</mgrwt>
</event>
<event>
12    1  0.2302554E-007  0.1816567E+04  0.7818608E-02  0.8697538E-01
          1   -1    0    0  501    0  0.00000000000E+00  0.00000000000E+00  0.95903890890E+03  0.95903890890E+03  0.00000000000E+00 0. -1.
         -1   -1    0    0    0  501 -0.00000000000E+00 -0.00000000000E+00 -0.86021448220E+03  0.86021448220E+03  0.00000000000E+00 0.  1.
         23    2    1    2    0    0  0.16809143868E+03  0.33790362758E+03  0.60705358411E+03  0.72036553413E+03  0.89324439485E+02 0.  0.
        254    2    1    2    0    0 -0.16809143868E+03 -0.33790362758E+03 -0.50822915742E+03  0.10988878570E+04  0.89823385176E+03 0.  0.
        -24    2    4    4    0    0 -0.48679960877E+03 -0.63142329149E+02 -0.44088209280E+03  0.66503459509E+03  0.83265719812E+02 0.  0.
         24    2    4    4    0    0  0.31870817009E+03 -0.27476129843E+03 -0.67347064617E+02  0.43385326187E+03  0.81390152506E+02 0.  0.
         13    1    3    3    0    0  0.61506704209E+02  0.10531754730E+03  0.12509946905E+03  0.17471330112E+03  0.00000000000E+00 0.  1.
        -13    1    3    3    0    0  0.10658473447E+03  0.23258608028E+03  0.48195411506E+03  0.54565223301E+03  0.00000000000E+00 0. -1.
          4    1    6    6  502    0  0.26429335069E+03 -0.23779060972E+03 -0.85401488932E+02  0.36563474070E+03  0.00000000000E+00 0. -1.
          3    1    5    5  503    0 -0.48087093823E+03 -0.65716497995E+02 -0.44405890724E+03  0.65783267663E+03  0.00000000000E+00 0. -1.
         -4    1    5    5    0  503 -0.59286705361E+01  0.25741688460E+01  0.31768144408E+01  0.72019184642E+01  0.00000000000E+00 0.  1.
         -3    1    6    6    0  502  0.54414819397E+02 -0.36970688706E+02  0.18054424316E+02  0.68218521171E+02  0.00000000000E+00 0.  1.
<mgrwt>
<rscale>  0 0.18165673E+04</rscale>
<asrwt>0</asrwt>
<pdfrwt beam="1">  1        1 0.14754445E+00 0.18165673E+04</pdfrwt>
<pdfrwt beam="2">  1       -1 0.13234069E+00 0.18165673E+04</pdfrwt>
<totfact> 0.74460743E+00</totfact>
</mgrwt>
</event>
<event>
12    1  0.1519630E-007  0.1286747E+04  0.7818608E-02  0.9040142E-01
         -2   -1    0    0    0  501 -0.00000000000E+00  0.00000000000E+00  0.57756314899E+03  0.57756314899E+03  0.00000000000E+00 0.  1.
          2   -1    0    0  501    0  0.00000000000E+00 -0.00000000000E+00 -0.71668205757E+03  0.71668205757E+03  0.00000000000E+00 0. -1.
         23    2    1    2    0    0 -0.17309317984E+03  0.24676813451E+03  0.63661516170E+02  0.32132456093E+03  0.91328657609E+02 0.  0.
        254    2    1    2    0    0  0.17309317984E+03 -0.24676813451E+03 -0.20278042475E+03  0.97292064563E+03  0.90255133977E+03 0.  0.
        -24    2    4    4    0    0  0.28949022777E+03 -0.46927386321E+03  0.10555844292E+03  0.56703418429E+03  0.79766099406E+02 0.  0.
         24    2    4    4    0    0 -0.11639704792E+03  0.22250572871E+03 -0.30833886767E+03  0.40588646134E+03  0.81325826833E+02 0.  0.
         11    1    3    3    0    0 -0.10958687497E+03  0.10765725926E+03  0.68785420626E+02  0.16831756512E+03  0.00000000000E+00 0. -1.
        -11    1    3    3    0    0 -0.63506304870E+02  0.13911087524E+03 -0.51239044559E+01  0.15300699581E+03  0.00000000000E+00 0.  1.
          2    1    6    6  502    0 -0.46542045569E+01  0.80036169585E+02 -0.69006023536E+02  0.10577939944E+03  0.00000000000E+00 0. -1.
          3    1    5    5  503    0  0.45611813995E+02 -0.13975836865E+03  0.33894225198E+02  0.15086967119E+03  0.00000000000E+00 0. -1.
         -4    1    5    5    0  503  0.24387841377E+03 -0.32951549456E+03  0.71664217725E+02  0.41616451310E+03  0.00000000000E+00 0.  1.
         -3    1    6    6    0  502 -0.11174284337E+03  0.14246955912E+03 -0.23933284413E+03  0.30010706190E+03  0.00000000000E+00 0.  1.
<mgrwt>
<rscale>  0 0.12867465E+04</rscale>
<asrwt>0</asrwt>
<pdfrwt beam="1">  1        2 0.11025878E+00 0.12867465E+04</pdfrwt>
<pdfrwt beam="2">  1       -2 0.88855869E-01 0.12867465E+04</pdfrwt>
<totfact> 0.42476880E+01</totfact>
</mgrwt>
</event>
<event>
12    1  0.1519630E-007  0.2064351E+04  0.7818608E-02  0.8577112E-01
         -2   -1    0    0    0  501 -0.00000000000E+00  0.00000000000E+00  0.21703847165E+04  0.21703847165E+04  0.00000000000E+00 0.  1.
          2   -1    0    0  501    0  0.00000000000E+00 -0.00000000000E+00 -0.49087449466E+03  0.49087449466E+03  0.00000000000E+00 0. -1.
         23    2    1    2    0    0 -0.51567043096E+03 -0.45783532019E+02 -0.15963892511E+03  0.54902250174E+03  0.89044909102E+02 0.  0.
        254    2    1    2    0    0  0.51567043096E+03  0.45783532019E+02  0.18391491470E+04  0.21122367095E+04  0.90058992150E+03 0.  0.
        -24    2    4    4    0    0  0.42709131945E+03  0.84176195706E+02  0.19117528160E+04  0.19622611475E+04  0.78596147937E+02 0.  0.
         24    2    4    4    0    0  0.88579111517E+02 -0.38392663687E+02 -0.72603668961E+02  0.14997556199E+03  0.88888249081E+02 0.  0.
         13    1    3    3    0    0 -0.41229172945E+02 -0.29020011419E+02 -0.11555400530E+02  0.51725555056E+02  0.00000000000E+00 0.  1.
        -13    1    3    3    0    0 -0.47444125802E+03 -0.16763520600E+02 -0.14808352458E+03  0.49729694669E+03  0.00000000000E+00 0. -1.
          4    1    6    6  502    0  0.57967898699E+02 -0.29435493749E+02 -0.91994684053E+02  0.11264877925E+03  0.00000000000E+00 0. -1.
          3    1    5    5  503    0  0.35992285704E+03  0.56917230136E+02  0.14633934520E+04  0.15080797158E+04  0.00000000000E+00 0. -1.
         -4    1    5    5    0  503  0.67168462408E+02  0.27258965570E+02  0.44835936401E+03  0.45418143163E+03  0.00000000000E+00 0.  1.
         -3    1    6    6    0  502  0.30611212819E+02 -0.89571699381E+01  0.19391015091E+02  0.37326782741E+02  0.00000000000E+00 0.  1.
<mgrwt>
<rscale>  0 0.20643512E+04</rscale>
<asrwt>0</asrwt>
<pdfrwt beam="1">  1        2 0.75519154E-01 0.20643512E+04</pdfrwt>
<pdfrwt beam="2">  1       -2 0.33390533E+00 0.20643512E+04</pdfrwt>
<totfact> 0.11432608E+00</totfact>
</mgrwt>
</event>
<event>
12    1  0.1519630E-007  0.1738961E+04  0.7818608E-02  0.8739450E-01
          2   -1    0    0  501    0  0.00000000000E+00  0.00000000000E+00  0.11920811054E+04  0.11920811054E+04  0.00000000000E+00 0. -1.
         -2   -1    0    0    0  501 -0.00000000000E+00 -0.00000000000E+00 -0.63418199864E+03  0.63418199864E+03  0.00000000000E+00 0.  1.
         23    2    1    2    0    0  0.43251692868E+03  0.43997949924E+03  0.75619366447E+02  0.62828714764E+03  0.91507365608E+02 0.  0.
        254    2    1    2    0    0 -0.43251692868E+03 -0.43997949924E+03  0.48227974027E+03  0.11979759564E+04  0.90658689092E+03 0.  0.
        -24    2    4    4    0    0 -0.28401504496E+03 -0.70972041355E+03  0.26401225389E+03  0.81267947780E+03  0.79861456649E+02 0.  0.
         24    2    4    4    0    0 -0.14850188372E+03  0.26974091432E+03  0.21826748638E+03  0.38529647855E+03  0.77457797849E+02 0.  0.
         13    1    3    3    0    0  0.34737530879E+03  0.30123313995E+03  0.72462140237E+02  0.46546940987E+03  0.00000000000E+00 0. -1.
        -13    1    3    3    0    0  0.85141619895E+02  0.13874635929E+03  0.31572262104E+01  0.16281773777E+03  0.00000000000E+00 0.  1.
          2    1    6    6  502    0 -0.15047118696E+03  0.26209523616E+03  0.19243167931E+03  0.35828123329E+03  0.00000000000E+00 0. -1.
          1    1    5    5  503    0 -0.22731346967E+03 -0.53438986069E+03  0.16611826607E+03  0.60401921743E+03  0.00000000000E+00 0. -1.
         -2    1    5    5    0  503 -0.56701575286E+02 -0.17533055287E+03  0.97893987815E+02  0.20866026037E+03  0.00000000000E+00 0.  1.
         -1    1    6    6    0  502  0.19693032403E+01  0.76456781553E+01  0.25835807067E+02  0.27015245261E+02  0.00000000000E+00 0.  1.
<mgrwt>
<rscale>  0 0.17389610E+04</rscale>
<asrwt>0</asrwt>
<pdfrwt beam="1">  1        2 0.18339709E+00 0.17389610E+04</pdfrwt>
<pdfrwt beam="2">  1       -2 0.97566462E-01 0.17389610E+04</pdfrwt>
<totfact> 0.15906554E+01</totfact>
</mgrwt>
</event>
<event>
12    1  0.1519630E-007  0.2003307E+04  0.7818608E-02  0.8605076E-01
         -1   -1    0    0    0  501 -0.00000000000E+00  0.00000000000E+00  0.15185059266E+04  0.15185059266E+04  0.00000000000E+00 0.  1.
          1   -1    0    0  501    0  0.00000000000E+00 -0.00000000000E+00 -0.66072140817E+03  0.66072140817E+03  0.00000000000E+00 0. -1.
         23    2    1    2    0    0 -0.89756438463E+02 -0.71701010016E+03  0.70988432660E+03  0.10176189462E+04  0.97225822716E+02 0.  0.
        254    2    1    2    0    0  0.89756438463E+02  0.71701010016E+03  0.14790019182E+03  0.11616083885E+04  0.89738502306E+03 0.  0.
        -24    2    4    4    0    0  0.95965589086E+02  0.60724736979E+03  0.49233115103E+03  0.79170758875E+03  0.80325471662E+02 0.  0.
         24    2    4    4    0    0 -0.62091506227E+01  0.10976273037E+03 -0.34443095921E+03  0.36990079979E+03  0.78150531010E+02 0.  0.
         11    1    3    3    0    0 -0.10801194685E+03 -0.54478346207E+03  0.55751092005E+03  0.78693965917E+03  0.00000000000E+00 0.  1.
        -11    1    3    3    0    0  0.18255508383E+02 -0.17222663809E+03  0.15237340655E+03  0.23067928706E+03  0.00000000000E+00 0. -1.
          2    1    6    6  502    0  0.16690957872E+02  0.53598137757E+02 -0.74744060643E+02  0.93477393241E+02  0.00000000000E+00 0. -1.
          1    1    5    5  503    0 -0.12674058305E+02  0.32089102401E+02  0.31894968779E+02  0.46985436896E+02  0.00000000000E+00 0. -1.
         -2    1    5    5    0  503  0.10863964739E+03  0.57515826739E+03  0.46043618225E+03  0.74472215185E+03  0.00000000000E+00 0.  1.
         -1    1    6    6    0  502 -0.22900108494E+02  0.56164592611E+02 -0.26968689857E+03  0.27642340655E+03  0.00000000000E+00 0.  1.
<mgrwt>
<rscale>  0 0.20033066E+04</rscale>
<asrwt>0</asrwt>
<pdfrwt beam="1">  1        1 0.10164945E+00 0.20033066E+04</pdfrwt>
<pdfrwt beam="2">  1       -1 0.23361630E+00 0.20033066E+04</pdfrwt>
<totfact> 0.24620108E+00</totfact>
</mgrwt>
</event>
<event>
12    1  0.1519630E-007  0.2101853E+04  0.7818608E-02  0.8560428E-01
         -1   -1    0    0    0  501 -0.00000000000E+00  0.00000000000E+00  0.79260884827E+03  0.79260884827E+03  0.00000000000E+00 0.  1.
          1   -1    0    0  501    0  0.00000000000E+00 -0.00000000000E+00 -0.13934314845E+04  0.13934314845E+04  0.00000000000E+00 0. -1.
         23    2    1    2    0    0  0.62933551371E+03 -0.37140068465E+03  0.21713577718E+03  0.76791132844E+03  0.92402409320E+02 0.  0.
        254    2    1    2    0    0 -0.62933551371E+03  0.37140068465E+03 -0.81795841341E+03  0.14181290043E+04  0.89890614053E+03 0.  0.
        -24    2    4    4    0    0 -0.21589738021E+03 -0.31884420493E+02 -0.80182076309E+03  0.83476697521E+03  0.79316276588E+02 0.  0.
         24    2    4    4    0    0 -0.41343813350E+03  0.40328510515E+03 -0.16137650318E+02  0.58336202912E+03  0.80503832188E+02 0.  0.
         13    1    3    3    0    0  0.27078796688E+02  0.26184450798E+01  0.13063586247E+02  0.30179045219E+02  0.00000000000E+00 0. -1.
        -13    1    3    3    0    0  0.60225671702E+03 -0.37401912973E+03  0.20407219093E+03  0.73773228322E+03  0.00000000000E+00 0.  1.
          4    1    6    6  502    0 -0.30547717755E+03  0.29489276499E+03  0.23772883959E+02  0.42525662706E+03  0.00000000000E+00 0. -1.
          3    1    5    5  503    0 -0.86683286355E+02  0.26171685080E+02 -0.31232703290E+03  0.32518782990E+03  0.00000000000E+00 0. -1.
         -4    1    5    5    0  503 -0.12921409385E+03 -0.58056105572E+02 -0.48949373018E+03  0.50957914531E+03  0.00000000000E+00 0.  1.
         -3    1    6    6    0  502 -0.10796095595E+03  0.10839234016E+03 -0.39910534277E+02  0.15810540206E+03  0.00000000000E+00 0.  1.
<mgrwt>
<rscale>  0 0.21018526E+04</rscale>
<asrwt>0</asrwt>
<pdfrwt beam="1">  1        1 0.21437408E+00 0.21018526E+04</pdfrwt>
<pdfrwt beam="2">  1       -1 0.12193982E+00 0.21018526E+04</pdfrwt>
<totfact> 0.42494164E+00</totfact>
</mgrwt>
</event>
<event>
12    1  0.1519630E-007  0.2093932E+04  0.7818608E-02  0.8563921E-01
         -2   -1    0    0    0  501 -0.00000000000E+00  0.00000000000E+00  0.45097680841E+03  0.45097680841E+03  0.00000000000E+00 0.  1.
          2   -1    0    0  501    0  0.00000000000E+00 -0.00000000000E+00 -0.24305862561E+04  0.24305862561E+04  0.00000000000E+00 0. -1.
         23    2    1    2    0    0  0.11734696238E+03 -0.49705838727E+03 -0.17453742409E+04  0.18208494130E+04  0.91235925224E+02 0.  0.
        254    2    1    2    0    0 -0.11734696238E+03  0.49705838727E+03 -0.23423520670E+03  0.10607136514E+04  0.89967214492E+03 0.  0.
        -24    2    4    4    0    0 -0.34621044762E+03 -0.96541889809E+02 -0.19899648681E+03  0.41835078886E+03  0.78966893373E+02 0.  0.
         24    2    4    4    0    0  0.22886348524E+03  0.59360027708E+03 -0.35238719894E+02  0.64236286257E+03  0.81538310027E+02 0.  0.
         13    1    3    3    0    0  0.11410851332E+03 -0.41128075098E+03 -0.15448029440E+04  0.16026817354E+04  0.00000000000E+00 0. -1.
        -13    1    3    3    0    0  0.32384490635E+01 -0.85777636286E+02 -0.20057129691E+03  0.21816767768E+03  0.00000000000E+00 0.  1.
          4    1    6    6  502    0  0.61230580365E+02  0.10331876457E+03  0.18184548959E+02  0.12146863342E+03  0.00000000000E+00 0. -1.
          3    1    5    5  503    0 -0.12051009854E+03 -0.72950806760E+02 -0.82795036766E+02  0.16339988424E+03  0.00000000000E+00 0. -1.
         -2    1    5    5    0  503 -0.22570034908E+03 -0.23591083050E+02 -0.11620145004E+03  0.25495090462E+03  0.00000000000E+00 0.  1.
         -1    1    6    6    0  502  0.16763290488E+03  0.49028151251E+03 -0.53423268853E+02  0.52089422915E+03  0.00000000000E+00 0.  1.
<mgrwt>
<rscale>  0 0.20939322E+04</rscale>
<asrwt>0</asrwt>
<pdfrwt beam="1">  1        2 0.37393635E+00 0.20939322E+04</pdfrwt>
<pdfrwt beam="2">  1       -2 0.69381047E-01 0.20939322E+04</pdfrwt>
<totfact> 0.66730969E+00</totfact>
</mgrwt>
</event>
<event>
12    1  0.1519630E-007  0.1586746E+04  0.7818608E-02  0.8828732E-01
          2   -1    0    0  501    0  0.00000000000E+00  0.00000000000E+00  0.99143850877E+03  0.99143850877E+03  0.00000000000E+00 0. -1.
         -2   -1    0    0    0  501 -0.00000000000E+00 -0.00000000000E+00 -0.63487604673E+03  0.63487604673E+03  0.00000000000E+00 0.  1.
         23    2    1    2    0    0  0.33891094818E+02  0.42080487191E+03 -0.18730494668E+03  0.47573353023E+03  0.11407849142E+03 0.  0.
        254    2    1    2    0    0 -0.33891094818E+02 -0.42080487191E+03  0.54386740872E+03  0.11505810253E+04  0.92185659998E+03 0.  0.
        -24    2    4    4    0    0 -0.26158610535E+03 -0.26748168273E+03 -0.14184873424E+03  0.40773261407E+03  0.78428821635E+02 0.  0.
         24    2    4    4    0    0  0.22769501053E+03 -0.15332318918E+03  0.68571614296E+03  0.74284841120E+03  0.79146163170E+02 0.  0.
         11    1    3    3    0    0  0.20688402599E+02  0.18933137165E+03 -0.23602333382E+02  0.19191521157E+03  0.00000000000E+00 0. -1.
        -11    1    3    3    0    0  0.13202692220E+02  0.23147350026E+03 -0.16370261330E+03  0.28381831866E+03  0.00000000000E+00 0.  1.
          2    1    6    6  502    0  0.19755884190E+03 -0.11990471455E+03  0.63110074096E+03  0.67208242190E+03  0.00000000000E+00 0. -1.
          1    1    5    5  503    0 -0.58639957395E+02 -0.11256313468E+03 -0.44957452259E+02  0.13464871483E+03  0.00000000000E+00 0. -1.
         -2    1    5    5    0  503 -0.20294614795E+03 -0.15491854805E+03 -0.96891281985E+02  0.27308389924E+03  0.00000000000E+00 0.  1.
         -3    1    6    6    0  502  0.30136168625E+02 -0.33418474628E+02  0.54615402000E+02  0.70765989299E+02  0.00000000000E+00 0.  1.
<mgrwt>
<rscale>  0 0.15867458E+04</rscale>
<asrwt>0</asrwt>
<pdfrwt beam="1">  1        2 0.15252900E+00 0.15867458E+04</pdfrwt>
<pdfrwt beam="2">  1       -2 0.97673239E-01 0.15867458E+04</pdfrwt>
<totfact> 0.21388108E+01</totfact>
</mgrwt>
</event>
<event>
12    1  0.1519630E-007  0.1531748E+04  0.7818608E-02  0.8863611E-01
          1   -1    0    0  501    0  0.00000000000E+00  0.00000000000E+00  0.63542301243E+03  0.63542301243E+03  0.00000000000E+00 0.  1.
         -1   -1    0    0    0  501 -0.00000000000E+00 -0.00000000000E+00 -0.92310571034E+03  0.92310571034E+03  0.00000000000E+00 0. -1.
         23    2    1    2    0    0  0.12139947456E+03 -0.20463272903E+03  0.34744125031E+03  0.43008063873E+03  0.87415943510E+02 0.  0.
        254    2    1    2    0    0 -0.12139947456E+03  0.20463272903E+03 -0.63512394822E+03  0.11284480840E+04  0.90188705642E+03 0.  0.
        -24    2    4    4    0    0 -0.14664708724E+02 -0.34619081285E+03 -0.32868570940E+03  0.48454895636E+03  0.81794027644E+02 0.  0.
         24    2    4    4    0    0 -0.10673476583E+03  0.55082354188E+03 -0.30643823882E+03  0.64389912768E+03  0.76829733090E+02 0.  0.
         13    1    3    3    0    0  0.51180430811E+02 -0.11434820654E+03  0.11079692634E+03  0.16724505291E+03  0.00000000000E+00 0. -1.
        -13    1    3    3    0    0  0.70219043747E+02 -0.90284522493E+02  0.23664432397E+03  0.26283558582E+03  0.00000000000E+00 0.  1.
          4    1    6    6  502    0 -0.96278476159E+02  0.34321051031E+03 -0.21917146250E+03  0.41844847871E+03  0.00000000000E+00 0. -1.
          3    1    5    5  503    0  0.27299735696E+02 -0.18626688764E+03 -0.20304699240E+03  0.27689115212E+03  0.00000000000E+00 0. -1.
         -4    1    5    5    0  503 -0.41964444420E+02 -0.15992392521E+03 -0.12563871700E+03  0.20765780423E+03  0.00000000000E+00 0.  1.
         -3    1    6    6    0  502 -0.10456289675E+02  0.20761303158E+03 -0.87266776320E+02  0.22545064897E+03  0.00000000000E+00 0.  1.
<mgrwt>
<rscale>  0 0.15317475E+04</rscale>
<asrwt>0</asrwt>
<pdfrwt beam="1">  1        1 0.97757387E-01 0.15317475E+04</pdfrwt>
<pdfrwt beam="2">  1       -1 0.14201626E+00 0.15317475E+04</pdfrwt>
<totfact> 0.12269944E+01</totfact>
</mgrwt>
</event>
<event>
12    1  0.1519630E-007  0.1964926E+04  0.7818608E-02  0.8623197E-01
         -2   -1    0    0    0  501 -0.00000000000E+00  0.00000000000E+00  0.43000165073E+03  0.43000165073E+03  0.00000000000E+00 0.  1.
          2   -1    0    0  501    0  0.00000000000E+00 -0.00000000000E+00 -0.22447201063E+04  0.22447201063E+04  0.00000000000E+00 0. -1.
         23    2    1    2    0    0 -0.41438109957E+03  0.54624806820E+03 -0.21077210363E+03  0.72319432460E+03  0.92122221980E+02 0.  0.
        254    2    1    2    0    0  0.41438109957E+03 -0.54624806820E+03 -0.16039463520E+04  0.19515274324E+04  0.87505243954E+03 0.  0.
        -24    2    4    4    0    0  0.29723185137E+03 -0.26005625845E+03 -0.15800959980E+04  0.16306927126E+04  0.80494279416E+02 0.  0.
         24    2    4    4    0    0  0.11714924820E+03 -0.28619180975E+03 -0.23850353972E+02  0.32083471986E+03  0.82075451636E+02 0.  0.
         13    1    3    3    0    0 -0.16580082158E+03  0.20396137395E+03 -0.12711869886E+03  0.29197485868E+03  0.00000000000E+00 0. -1.
        -13    1    3    3    0    0 -0.24858027799E+03  0.34228669424E+03 -0.83653404764E+02  0.43121946592E+03  0.00000000000E+00 0.  1.
          2    1    6    6  502    0  0.67958413186E+02 -0.24942758720E+03 -0.18010080118E+02  0.25914634893E+03  0.00000000000E+00 0. -1.
          3    1    5    5  503    0  0.29746508558E+03 -0.24780023858E+03 -0.15584207528E+04  0.16057912934E+04  0.00000000000E+00 0. -1.
         -4    1    5    5    0  503 -0.23323420435E+00 -0.12256019872E+02 -0.21675245213E+02  0.24901419163E+02  0.00000000000E+00 0.  1.
         -1    1    6    6    0  502  0.49190835010E+02 -0.36764222547E+02 -0.58402738541E+01  0.61688370923E+02  0.00000000000E+00 0.  1.
<mgrwt>
<rscale>  0 0.19649258E+04</rscale>
<asrwt>0</asrwt>
<pdfrwt beam="1">  1        2 0.34534156E+00 0.19649258E+04</pdfrwt>
<pdfrwt beam="2">  1       -2 0.66154100E-01 0.19649258E+04</pdfrwt>
<totfact> 0.95428330E+00</totfact>
</mgrwt>
</event>
<event>
12    1  0.1791411E-007  0.1933186E+04  0.7818608E-02  0.8638512E-01
         -2   -1    0    0    0  501 -0.00000000000E+00  0.00000000000E+00  0.85312657605E+03  0.85312657605E+03  0.00000000000E+00 0.  1.
          2   -1    0    0  501    0  0.00000000000E+00 -0.00000000000E+00 -0.10951505994E+04  0.10951505994E+04  0.00000000000E+00 0. -1.
         23    2    1    2    0    0  0.26287865489E+03  0.36286701577E+03 -0.70906253589E+03  0.84374912738E+03  0.91461750609E+02 0.  0.
        254    2    1    2    0    0 -0.26287865489E+03 -0.36286701577E+03  0.46703851256E+03  0.11045280480E+04  0.89503049019E+03 0.  0.
        -24    2    4    4    0    0 -0.24413562629E+03  0.98057099886E+02  0.56220924108E+03  0.62669809708E+03  0.86335828327E+02 0.  0.
         24    2    4    4    0    0 -0.18743028599E+02 -0.46092411566E+03 -0.95170728523E+02  0.47782995097E+03  0.80384407432E+02 0.  0.
         11    1    3    3    0    0  0.23552141124E+03  0.27902035579E+03 -0.52309287966E+03  0.63792543048E+03  0.00000000000E+00 0. -1.
        -11    1    3    3    0    0  0.27357243656E+02  0.83846659978E+02 -0.18596965623E+03  0.20582369691E+03  0.00000000000E+00 0.  1.
          2    1    6    6  502    0  0.77914905685E+01 -0.82333433124E+02  0.11762291095E+02  0.83533544322E+02  0.00000000000E+00 0. -1.
          3    1    5    5  503    0 -0.23432847116E+02  0.81985447902E+01  0.13006906664E+02  0.28026667330E+02  0.00000000000E+00 0. -1.
         -4    1    5    5    0  503 -0.22070277918E+03  0.89858555096E+02  0.54920233442E+03  0.59867142975E+03  0.00000000000E+00 0.  1.
         -1    1    6    6    0  502 -0.26534519168E+02 -0.37859068253E+03 -0.10693301962E+03  0.39429640664E+03  0.00000000000E+00 0.  1.
<mgrwt>
<rscale>  0 0.19331861E+04</rscale>
<asrwt>0</asrwt>
<pdfrwt beam="1">  1        2 0.16848471E+00 0.19331861E+04</pdfrwt>
<pdfrwt beam="2">  1       -2 0.13125024E+00 0.19331861E+04</pdfrwt>
<totfact> 0.86863754E+00</totfact>
</mgrwt>
</event>
<event>
12    1  0.1519630E-007  0.1192791E+04  0.7818608E-02  0.9119190E-01
          1   -1    0    0  501    0  0.00000000000E+00  0.00000000000E+00  0.40726051512E+04  0.40726051512E+04  0.00000000000E+00 0. -1.
         -1   -1    0    0    0  501 -0.00000000000E+00 -0.00000000000E+00 -0.87336652289E+02  0.87336652289E+02  0.00000000000E+00 0.  1.
         23    2    1    2    0    0  0.29925567462E+01  0.44061688840E+02  0.67460986430E+02  0.14027255531E+03  0.11478247804E+03 0.  0.
        254    2    1    2    0    0 -0.29925567462E+01 -0.44061688840E+02  0.39178075125E+04  0.40196692482E+04  0.89809507963E+03 0.  0.
        -24    2    4    4    0    0  0.24446549435E+03 -0.26273275040E+03  0.76626707816E+03  0.84982268927E+03  0.79003114268E+02 0.  0.
         24    2    4    4    0    0 -0.24745805110E+03  0.21867106156E+03  0.31515404343E+04  0.31698465589E+04  0.81655236360E+02 0.  0.
         13    1    3    3    0    0 -0.45884056006E+02  0.23320686184E+02  0.70269041004E+02  0.87103037394E+02  0.00000000000E+00 0. -1.
        -13    1    3    3    0    0  0.48876612752E+02  0.20741002656E+02 -0.28080545740E+01  0.53169517919E+02  0.00000000000E+00 0.  1.
          2    1    6    6  502    0 -0.20537399051E+03  0.15205932339E+03  0.21304829194E+04  0.21457534769E+04  0.00000000000E+00 0. -1.
          1    1    5    5  503    0  0.14615671931E+03 -0.15342399810E+03  0.53894103584E+03  0.57910115688E+03  0.00000000000E+00 0. -1.
         -2    1    5    5    0  503  0.98308775048E+02 -0.10930875230E+03  0.22732604232E+03  0.27072153238E+03  0.00000000000E+00 0.  1.
         -1    1    6    6    0  502 -0.42084060587E+02  0.66611738174E+02  0.10210575149E+04  0.10240930820E+04  0.00000000000E+00 0.  1.
<mgrwt>
<rscale>  0 0.11927912E+04</rscale>
<asrwt>0</asrwt>
<pdfrwt beam="1">  1        1 0.62655449E+00 0.11927912E+04</pdfrwt>
<pdfrwt beam="2">  1       -1 0.13436411E-01 0.11927912E+04</pdfrwt>
<totfact> 0.33431475E+00</totfact>
</mgrwt>
</event>
<event>
12    1  0.1519630E-007  0.1464059E+04  0.7818608E-02  0.8908712E-01
         -1   -1    0    0    0  501 -0.00000000000E+00  0.00000000000E+00  0.79944246166E+03  0.79944246166E+03  0.00000000000E+00 0.  1.
          1   -1    0    0  501    0  0.00000000000E+00 -0.00000000000E+00 -0.67030082749E+03  0.67030082749E+03  0.00000000000E+00 0. -1.
         23    2    1    2    0    0  0.65988670185E+02 -0.13950151664E+03  0.45246913170E+03  0.48672301696E+03  0.91410077993E+02 0.  0.
        254    2    1    2    0    0 -0.65988670185E+02  0.13950151664E+03 -0.32332749752E+03  0.98302027219E+03  0.91540865582E+03 0.  0.
        -24    2    4    4    0    0 -0.22903493322E+03  0.28962379679E+03 -0.54245359212E+03  0.66109681825E+03  0.80337781860E+02 0.  0.
         24    2    4    4    0    0  0.16304626303E+03 -0.15012228014E+03  0.21912609460E+03  0.32192345394E+03  0.80608200435E+02 0.  0.
         11    1    3    3    0    0  0.20221546901E+02 -0.78466714918E+02  0.34832972676E+03  0.35763044453E+03  0.00000000000E+00 0.  1.
        -11    1    3    3    0    0  0.45767123284E+02 -0.61034801725E+02  0.10413940493E+03  0.12909257242E+03  0.00000000000E+00 0. -1.
          4    1    6    6  502    0  0.49819568108E+02 -0.35490200013E+01  0.56880995030E+02  0.75696978176E+02  0.00000000000E+00 0. -1.
          3    1    5    5  503    0 -0.59792917925E+01  0.31298909070E+02 -0.81776078556E+02  0.87765030982E+02  0.00000000000E+00 0. -1.
         -4    1    5    5    0  503 -0.22305564143E+03  0.25832488772E+03 -0.46067751357E+03  0.57333178727E+03  0.00000000000E+00 0.  1.
         -3    1    6    6    0  502  0.11322669493E+03 -0.14657326014E+03  0.16224509957E+03  0.24622647577E+03  0.00000000000E+00 0.  1.
<mgrwt>
<rscale>  0 0.14640587E+04</rscale>
<asrwt>0</asrwt>
<pdfrwt beam="1">  1        1 0.10312320E+00 0.14640587E+04</pdfrwt>
<pdfrwt beam="2">  1       -1 0.12299115E+00 0.14640587E+04</pdfrwt>
<totfact> 0.16447346E+01</totfact>
</mgrwt>
</event>
<event>
12    1  0.1519630E-007  0.1310120E+04  0.7818608E-02  0.9021578E-01
          1   -1    0    0  501    0  0.00000000000E+00  0.00000000000E+00  0.18875994562E+04  0.18875994562E+04  0.00000000000E+00 0. -1.
         -1   -1    0    0    0  501 -0.00000000000E+00 -0.00000000000E+00 -0.22732762728E+03  0.22732762728E+03  0.00000000000E+00 0.  1.
         23    2    1    2    0    0  0.26645433024E+03 -0.13155611394E+03  0.22151047526E+03  0.38253049927E+03  0.94645501786E+02 0.  0.
        254    2    1    2    0    0 -0.26645433024E+03  0.13155611394E+03  0.14387613537E+04  0.17323965842E+04  0.91807340173E+03 0.  0.
        -24    2    4    4    0    0 -0.55728984993E+03  0.25707959515E+03  0.10879662743E+04  0.12515769450E+04  0.78181457048E+02 0.  0.
         24    2    4    4    0    0  0.29083551969E+03 -0.12552348121E+03  0.35079507941E+03  0.48081963923E+03  0.88254710208E+02 0.  0.
         13    1    3    3    0    0  0.22223518184E+03 -0.12491258176E+03  0.22164668350E+03  0.33781486266E+03  0.00000000000E+00 0.  1.
        -13    1    3    3    0    0  0.44219148397E+02 -0.66435321776E+01 -0.13620824151E+00  0.44715636610E+02  0.00000000000E+00 0. -1.
          2    1    6    6  502    0  0.29202769785E+03 -0.11958025006E+03  0.31995456078E+03  0.44938906693E+03  0.00000000000E+00 0. -1.
          1    1    5    5  503    0 -0.16559405244E+03  0.80338005354E+02  0.40190250031E+03  0.44204208517E+03  0.00000000000E+00 0. -1.
         -2    1    5    5    0  503 -0.39169579749E+03  0.17674158979E+03  0.68606377399E+03  0.80953485985E+03  0.00000000000E+00 0.  1.
         -1    1    6    6    0  502 -0.11921781517E+01 -0.59432311542E+01  0.30840518631E+02  0.31430572294E+02  0.00000000000E+00 0.  1.
<mgrwt>
<rscale>  0 0.13101199E+04</rscale>
<asrwt>0</asrwt>
<pdfrwt beam="1">  1        1 0.29039991E+00 0.13101199E+04</pdfrwt>
<pdfrwt beam="2">  1       -1 0.34973482E-01 0.13101199E+04</pdfrwt>
<totfact> 0.27120755E+01</totfact>
</mgrwt>
</event>
<event>
12    1  0.1519630E-007  0.1108101E+04  0.7818608E-02  0.9197332E-01
          1   -1    0    0  501    0  0.00000000000E+00  0.00000000000E+00  0.12355600747E+04  0.12355600747E+04  0.00000000000E+00 0. -1.
         -1   -1    0    0    0  501 -0.00000000000E+00 -0.00000000000E+00 -0.24844766856E+03  0.24844766856E+03  0.00000000000E+00 0.  1.
         23    2    1    2    0    0 -0.10504911751E+03 -0.12117771484E+03  0.95391913186E+02  0.20801439459E+03  0.91929405469E+02 0.  0.
        254    2    1    2    0    0  0.10504911751E+03  0.12117771484E+03  0.89172049293E+03  0.12759933486E+04  0.89848440866E+03 0.  0.
        -24    2    4    4    0    0 -0.19072434307E+03 -0.23713771648E+03  0.60675634660E+02  0.32057044988E+03  0.80459984349E+02 0.  0.
         24    2    4    4    0    0  0.29577346058E+03  0.35831543132E+03  0.83104485827E+03  0.95542289876E+03  0.79532827828E+02 0.  0.
         13    1    3    3    0    0 -0.10071801389E+03 -0.10823172005E+03  0.11274939083E+03  0.18593183880E+03  0.00000000000E+00 0. -1.
        -13    1    3    3    0    0 -0.43311036167E+01 -0.12945994790E+02 -0.17357477646E+02  0.22082555783E+02  0.00000000000E+00 0.  1.
          2    1    6    6  502    0  0.15397669621E+02  0.23713303672E+02  0.10034529282E+03  0.10425251456E+03  0.00000000000E+00 0. -1.
          3    1    5    5  503    0 -0.98530001891E+01 -0.20413451056E+02  0.28566434348E+02  0.36466858490E+02  0.00000000000E+00 0. -1.
         -4    1    5    5    0  503 -0.18087134288E+03 -0.21672426542E+03  0.32109200311E+02  0.28410359139E+03  0.00000000000E+00 0.  1.
         -1    1    6    6    0  502  0.28037579096E+03  0.33460212765E+03  0.73069956545E+03  0.85117038420E+03  0.00000000000E+00 0.  1.
<mgrwt>
<rscale>  0 0.11081011E+04</rscale>
<asrwt>0</asrwt>
<pdfrwt beam="1">  1        1 0.19008616E+00 0.11081011E+04</pdfrwt>
<pdfrwt beam="2">  1       -1 0.38222719E-01 0.11081011E+04</pdfrwt>
<totfact> 0.66304241E+01</totfact>
</mgrwt>
</event>
<event>
12    1  0.1519630E-007  0.1366495E+04  0.7818608E-02  0.8978434E-01
          4   -1    0    0  501    0  0.00000000000E+00  0.00000000000E+00  0.31933465297E+03  0.31933465297E+03  0.00000000000E+00 0. -1.
         -4   -1    0    0    0  501 -0.00000000000E+00 -0.00000000000E+00 -0.14618750940E+04  0.14618750940E+04  0.00000000000E+00 0.  1.
         23    2    1    2    0    0 -0.31521474990E+03 -0.16043274712E+03 -0.42715181537E+03  0.56269809849E+03  0.95244274195E+02 0.  0.
        254    2    1    2    0    0  0.31521474990E+03  0.16043274712E+03 -0.71538862569E+03  0.12185116485E+04  0.92080983210E+03 0.  0.
        -24    2    4    4    0    0  0.51119963712E+02 -0.27499912983E+03 -0.63283753120E+03  0.69649253770E+03  0.79879547358E+02 0.  0.
         24    2    4    4    0    0  0.26409478619E+03  0.43543187696E+03 -0.82551094493E+02  0.52201911081E+03  0.79638516339E+02 0.  0.
         11    1    3    3    0    0 -0.17246007077E+02 -0.15276851412E+02 -0.13167646136E+01  0.23076845933E+02  0.00000000000E+00 0. -1.
        -11    1    3    3    0    0 -0.29796874282E+03 -0.14515589571E+03 -0.42583505076E+03  0.53962125256E+03  0.00000000000E+00 0.  1.
          4    1    6    6  502    0  0.87424833408E+01 -0.77566051611E+00 -0.64007459320E+01  0.10862882338E+02  0.00000000000E+00 0. -1.
          1    1    5    5  503    0  0.23871264024E+02 -0.49555778551E+02 -0.20345588072E+03  0.21076030897E+03  0.00000000000E+00 0. -1.
         -2    1    5    5    0  503  0.27248699688E+02 -0.22544335128E+03 -0.42938165047E+03  0.48573222874E+03  0.00000000000E+00 0.  1.
         -3    1    6    6    0  502  0.25535230285E+03  0.43620753747E+03 -0.76150348561E+02  0.51115622847E+03  0.00000000000E+00 0.  1.
<mgrwt>
<rscale>  0 0.13664953E+04</rscale>
<asrwt>0</asrwt>
<pdfrwt beam="1">  1        4 0.49128409E-01 0.13664953E+04</pdfrwt>
<pdfrwt beam="2">  1       -4 0.22490386E+00 0.13664953E+04</pdfrwt>
<totfact> 0.70983043E-01</totfact>
</mgrwt>
</event>
<event>
12    1  0.1519630E-007  0.1595105E+04  0.7818608E-02  0.8823561E-01
          2   -1    0    0  501    0  0.00000000000E+00  0.00000000000E+00  0.55112456319E+03  0.55112456319E+03  0.00000000000E+00 0.  1.
         -2   -1    0    0    0  501 -0.00000000000E+00 -0.00000000000E+00 -0.11541670848E+04  0.11541670848E+04  0.00000000000E+00 0. -1.
         23    2    1    2    0    0 -0.10154128394E+03  0.14894942307E+03  0.34823170571E+03  0.40267468152E+03  0.91569729128E+02 0.  0.
        254    2    1    2    0    0  0.10154128394E+03 -0.14894942307E+03 -0.95127422737E+03  0.13026169665E+04  0.87143085946E+03 0.  0.
        -24    2    4    4    0    0  0.10556553576E+03 -0.47863016523E+03 -0.77427893460E+03  0.91963621752E+03  0.77407923404E+02 0.  0.
         24    2    4    4    0    0 -0.40242518139E+01  0.32968074216E+03 -0.17699529277E+03  0.38298074900E+03  0.81494380707E+02 0.  0.
         13    1    3    3    0    0  0.48410613877E+00 -0.55372391110E+01  0.59023719295E+02  0.59284861601E+02  0.00000000000E+00 0. -1.
        -13    1    3    3    0    0 -0.10202539008E+03  0.15448666218E+03  0.28920798642E+03  0.34338981991E+03  0.00000000000E+00 0.  1.
          4    1    6    6  502    0  0.31750827807E+02  0.63827071025E+02 -0.40768704040E+02  0.82122453027E+02  0.00000000000E+00 0. -1.
          1    1    5    5  503    0  0.62747113540E+02 -0.41114935533E+03 -0.66230838753E+03  0.78206994114E+03  0.00000000000E+00 0. -1.
         -2    1    5    5    0  503  0.42818422215E+02 -0.67480809896E+02 -0.11197054707E+03  0.13756627637E+03  0.00000000000E+00 0.  1.
         -3    1    6    6    0  502 -0.35775079621E+02  0.26585367114E+03 -0.13622658873E+03  0.30085829597E+03  0.00000000000E+00 0.  1.
<mgrwt>
<rscale>  0 0.15951048E+04</rscale>
<asrwt>0</asrwt>
<pdfrwt beam="1">  1        2 0.84788395E-01 0.15951048E+04</pdfrwt>
<pdfrwt beam="2">  1       -2 0.17756417E+00 0.15951048E+04</pdfrwt>
<totfact> 0.99221325E+00</totfact>
</mgrwt>
</event>
<event>
12    1  0.1519630E-007  0.1519319E+04  0.7818608E-02  0.8871707E-01
          2   -1    0    0  501    0  0.00000000000E+00  0.00000000000E+00  0.24218098665E+04  0.24218098665E+04  0.00000000000E+00 0. -1.
         -2   -1    0    0    0  501 -0.00000000000E+00 -0.00000000000E+00 -0.23828566699E+03  0.23828566699E+03  0.00000000000E+00 0.  1.
         23    2    1    2    0    0  0.11637074973E+03 -0.45994671351E+03  0.91906104639E+03  0.10382145612E+04  0.90128449478E+02 0.  0.
        254    2    1    2    0    0 -0.11637074973E+03  0.45994671351E+03  0.12644631531E+04  0.16218809723E+04  0.89807443571E+03 0.  0.
        -24    2    4    4    0    0 -0.10291139070E+03  0.67667058499E+03  0.58423249110E+03  0.90337693985E+03  0.79299791121E+02 0.  0.
         24    2    4    4    0    0 -0.13459359028E+02 -0.21672387148E+03  0.68023066204E+03  0.71850403247E+03  0.79899313405E+02 0.  0.
         13    1    3    3    0    0  0.17518654518E+02 -0.93326363382E+02  0.27038854647E+03  0.28657752777E+03  0.00000000000E+00 0.  1.
        -13    1    3    3    0    0  0.98852095208E+02 -0.36662035013E+03  0.64867249992E+03  0.75163703342E+03  0.00000000000E+00 0. -1.
          2    1    6    6  502    0  0.26120269354E+02 -0.12183877274E+03  0.30573565113E+03  0.33015336343E+03  0.00000000000E+00 0. -1.
          1    1    5    5  503    0 -0.77987609796E+02  0.25652572207E+03  0.22338168483E+03  0.34897978521E+03  0.00000000000E+00 0. -1.
         -2    1    5    5    0  503 -0.24923780902E+02  0.42014486292E+03  0.36085080627E+03  0.55439715464E+03  0.00000000000E+00 0.  1.
         -1    1    6    6    0  502 -0.39579628383E+02 -0.94885098738E+02  0.37449501091E+03  0.38835066904E+03  0.00000000000E+00 0.  1.
<mgrwt>
<rscale>  0 0.15193190E+04</rscale>
<asrwt>0</asrwt>
<pdfrwt beam="1">  1        2 0.37258612E+00 0.15193190E+04</pdfrwt>
<pdfrwt beam="2">  1       -2 0.36659335E-01 0.15193190E+04</pdfrwt>
<totfact> 0.26171080E+01</totfact>
</mgrwt>
</event>
<event>
12    1  0.1519630E-007  0.2155570E+04  0.7818608E-02  0.8537152E-01
          2   -1    0    0  501    0  0.00000000000E+00  0.00000000000E+00  0.21057487146E+04  0.21057487146E+04  0.00000000000E+00 0. -1.
         -2   -1    0    0    0  501 -0.00000000000E+00 -0.00000000000E+00 -0.55164253536E+03  0.55164253536E+03  0.00000000000E+00 0.  1.
         23    2    1    2    0    0  0.62711961040E+03 -0.60742358304E+03  0.45563771701E+03  0.98899529101E+03  0.90904023544E+02 0.  0.
        254    2    1    2    0    0 -0.62711961040E+03  0.60742358304E+03  0.10984684622E+04  0.16683959589E+04  0.90259054855E+03 0.  0.
        -24    2    4    4    0    0 -0.25829316771E+03 -0.11037962073E+03 -0.13299354899E+02  0.29230829565E+03  0.79801288867E+02 0.  0.
         24    2    4    4    0    0 -0.36882644268E+03  0.71780320377E+03  0.11117678171E+04  0.13760876633E+04  0.79468193123E+02 0.  0.
         13    1    3    3    0    0  0.28634182007E+02 -0.78164907595E+01  0.76125844651E+01  0.30642541495E+02  0.00000000000E+00 0.  1.
        -13    1    3    3    0    0  0.59848542839E+03 -0.59960709228E+03  0.44802513255E+03  0.95835274951E+03  0.00000000000E+00 0. -1.
          4    1    6    6  502    0 -0.34983518624E+03  0.62599904466E+03  0.98816923591E+03  0.12209577799E+04  0.00000000000E+00 0. -1.
          3    1    5    5  503    0 -0.86300223894E+02 -0.37957197300E+02 -0.42506084802E+02  0.10341781624E+03  0.00000000000E+00 0. -1.
         -4    1    5    5    0  503 -0.17199294382E+03 -0.72422423431E+02  0.29206729903E+02  0.18889047941E+03  0.00000000000E+00 0.  1.
         -3    1    6    6    0  502 -0.18991256446E+02  0.91804159107E+02  0.12359858119E+03  0.15512988340E+03  0.00000000000E+00 0.  1.
<mgrwt>
<rscale>  0 0.21555700E+04</rscale>
<asrwt>0</asrwt>
<pdfrwt beam="1">  1        2 0.32396134E+00 0.21555700E+04</pdfrwt>
<pdfrwt beam="2">  1       -2 0.84868083E-01 0.21555700E+04</pdfrwt>
<totfact> 0.64691817E+00</totfact>
</mgrwt>
</event>
<event>
12    1  0.1611306E-007  0.1659748E+04  0.7818608E-02  0.8784660E-01
          2   -1    0    0  501    0  0.00000000000E+00  0.00000000000E+00  0.12737719251E+04  0.12737719251E+04  0.00000000000E+00 0.  1.
         -2   -1    0    0    0  501 -0.00000000000E+00 -0.00000000000E+00 -0.54067069244E+03  0.54067069244E+03  0.00000000000E+00 0. -1.
         23    2    1    2    0    0  0.38308834885E+03  0.43006670710E+03  0.16784606255E+03  0.60651998242E+03  0.89331588950E+02 0.  0.
        254    2    1    2    0    0 -0.38308834885E+03 -0.43006670710E+03  0.56525517015E+03  0.12079226352E+04  0.89880455583E+03 0.  0.
        -24    2    4    4    0    0 -0.66232495335E+03 -0.38992138935E+03  0.38001884404E+03  0.86104818499E+03  0.79225130783E+02 0.  0.
         24    2    4    4    0    0  0.27923660449E+03 -0.40145317749E+02  0.18523632611E+03  0.34687445018E+03  0.80153975873E+02 0.  0.
         13    1    3    3    0    0  0.22299144689E+03  0.25749353449E+03  0.14434620936E+03  0.36995125875E+03  0.00000000000E+00 0.  1.
        -13    1    3    3    0    0  0.16009690197E+03  0.17257317260E+03  0.23499853184E+02  0.23656872368E+03  0.00000000000E+00 0. -1.
          2    1    6    6  502    0 -0.46510967112E+01  0.36849567111E+01  0.25997656820E+01  0.64784556942E+01  0.00000000000E+00 0. -1.
          1    1    5    5  503    0 -0.97205757492E+02 -0.26973270908E+02  0.55183984620E+02  0.11498603738E+03  0.00000000000E+00 0. -1.
         -2    1    5    5    0  503 -0.56511919585E+03 -0.36294811844E+03  0.32483485942E+03  0.74606214761E+03  0.00000000000E+00 0.  1.
         -1    1    6    6    0  502  0.28388770120E+03 -0.43830274461E+02  0.18263656043E+03  0.34039599448E+03  0.00000000000E+00 0.  1.
<mgrwt>
<rscale>  0 0.16597484E+04</rscale>
<asrwt>0</asrwt>
<pdfrwt beam="1">  1        2 0.19596491E+00 0.16597484E+04</pdfrwt>
<pdfrwt beam="2">  1       -2 0.83180107E-01 0.16597484E+04</pdfrwt>
<totfact> 0.20693590E+01</totfact>
</mgrwt>
</event>
<event>
12    1  0.1519630E-007  0.2680631E+04  0.7818608E-02  0.8341317E-01
          2   -1    0    0  501    0  0.00000000000E+00  0.00000000000E+00  0.28088673869E+04  0.28088673869E+04  0.00000000000E+00 0. -1.
         -2   -1    0    0    0  501 -0.00000000000E+00 -0.00000000000E+00 -0.63956222454E+03  0.63956222454E+03  0.00000000000E+00 0.  1.
         23    2    1    2    0    0  0.42906821391E+03 -0.11525239047E+03 -0.45562763587E+03  0.64368868566E+03  0.96726086408E+02 0.  0.
        254    2    1    2    0    0 -0.42906821391E+03  0.11525239047E+03  0.26249327983E+04  0.28047409258E+04  0.88256264359E+03 0.  0.
        -24    2    4    4    0    0 -0.92108106997E+02  0.43978789402E+03  0.81984888392E+03  0.93844790750E+03  0.81455432728E+02 0.  0.
         24    2    4    4    0    0 -0.33696010691E+03 -0.32453550355E+03  0.18050839143E+04  0.18662930183E+04  0.76526372535E+02 0.  0.
         13    1    3    3    0    0  0.20542816204E+03 -0.80432998461E+02 -0.28411360267E+03  0.35970923845E+03  0.00000000000E+00 0.  1.
        -13    1    3    3    0    0  0.22364005187E+03 -0.34819392007E+02 -0.17151403319E+03  0.28397944721E+03  0.00000000000E+00 0. -1.
          2    1    6    6  502    0 -0.55983498164E+02 -0.86945380907E+02  0.31955923845E+03  0.33587461679E+03  0.00000000000E+00 0. -1.
          3    1    5    5  503    0 -0.71635671627E+02  0.25263040703E+03  0.54927460227E+03  0.60881555557E+03  0.00000000000E+00 0. -1.
         -4    1    5    5    0  503 -0.20472435370E+02  0.18715748699E+03  0.27057428165E+03  0.32963235193E+03  0.00000000000E+00 0.  1.
         -1    1    6    6    0  502 -0.28097660874E+03 -0.23759012265E+03  0.14855246759E+04  0.15304184015E+04  0.00000000000E+00 0.  1.
<mgrwt>
<rscale>  0 0.26806309E+04</rscale>
<asrwt>0</asrwt>
<pdfrwt beam="1">  1        2 0.43213344E+00 0.26806309E+04</pdfrwt>
<pdfrwt beam="2">  1       -2 0.98394190E-01 0.26806309E+04</pdfrwt>
<totfact> 0.17218810E+00</totfact>
</mgrwt>
</event>
<event>
12    1  0.2742136E-007  0.3310635E+04  0.7818608E-02  0.8160195E-01
          2   -1    0    0  501    0  0.00000000000E+00  0.00000000000E+00  0.30905925851E+04  0.30905925851E+04  0.00000000000E+00 0. -1.
         -2   -1    0    0    0  501 -0.00000000000E+00 -0.00000000000E+00 -0.88658595322E+03  0.88658595322E+03  0.00000000000E+00 0.  1.
         23    2    1    2    0    0 -0.65087980197E+03  0.26210153295E+03  0.26582373870E+04  0.27508443335E+04  0.92611075449E+02 0.  0.
        254    2    1    2    0    0  0.65087980197E+03 -0.26210153295E+03 -0.45423075509E+03  0.12263342049E+04  0.89734512478E+03 0.  0.
        -24    2    4    4    0    0  0.33415853219E+03 -0.56849276971E+03 -0.39785631956E+03  0.77470344237E+03  0.83844014438E+02 0.  0.
         24    2    4    4    0    0  0.31672126978E+03  0.30639123676E+03 -0.56374435526E+02  0.45163076250E+03  0.81266942574E+02 0.  0.
         13    1    3    3    0    0 -0.58197898396E+03  0.21593136329E+03  0.22375256147E+04  0.23220350488E+04  0.00000000000E+00 0. -1.
        -13    1    3    3    0    0 -0.68900818012E+02  0.46170169659E+02  0.42071177229E+03  0.42880928469E+03  0.00000000000E+00 0.  1.
          4    1    6    6  502    0  0.45435995582E+02  0.12680733320E+02 -0.15810631040E+02  0.49751449687E+02  0.00000000000E+00 0. -1.
          1    1    5    5  503    0  0.19498457181E+02 -0.75593391924E+01 -0.68166158872E+01  0.21995447111E+02  0.00000000000E+00 0. -1.
         -2    1    5    5    0  503  0.31466007501E+03 -0.56093343051E+03 -0.39103970368E+03  0.75270799526E+03  0.00000000000E+00 0.  1.
         -1    1    6    6    0  502  0.27128527420E+03  0.29371050344E+03 -0.40563804485E+02  0.40187931281E+03  0.00000000000E+00 0.  1.
<mgrwt>
<rscale>  0 0.33106350E+04</rscale>
<asrwt>0</asrwt>
<pdfrwt beam="1">  1        2 0.47547578E+00 0.33106350E+04</pdfrwt>
<pdfrwt beam="2">  1       -2 0.13639784E+00 0.33106350E+04</pdfrwt>
<totfact> 0.48883426E-01</totfact>
</mgrwt>
</event>
<event>
12    1  0.1519630E-007  0.1989338E+04  0.7818608E-02  0.8611622E-01
         -1   -1    0    0    0  501 -0.00000000000E+00  0.00000000000E+00  0.14666210099E+04  0.14666210099E+04  0.00000000000E+00 0.  1.
          1   -1    0    0  501    0  0.00000000000E+00 -0.00000000000E+00 -0.67458875960E+03  0.67458875960E+03  0.00000000000E+00 0. -1.
         23    2    1    2    0    0 -0.73449016765E+03  0.27345984561E+03  0.25387786658E+03  0.82890261285E+03  0.91484845277E+02 0.  0.
        254    2    1    2    0    0  0.73449016765E+03 -0.27345984561E+03  0.53815438371E+03  0.13123071566E+04  0.90459042617E+03 0.  0.
        -24    2    4    4    0    0  0.62385073931E+03 -0.42902230517E+03  0.71163897633E+03  0.10421801257E+04  0.80371004908E+02 0.  0.
         24    2    4    4    0    0  0.11063942834E+03  0.15556245957E+03 -0.17348459262E+03  0.27012703097E+03  0.80193185846E+02 0.  0.
         13    1    3    3    0    0 -0.64882337891E+03  0.26000514959E+03  0.24914579563E+03  0.74205665708E+03  0.00000000000E+00 0. -1.
        -13    1    3    3    0    0 -0.85666788740E+02  0.13454696014E+02  0.47320709429E+01  0.86845955768E+02  0.00000000000E+00 0.  1.
          2    1    6    6  502    0  0.19895362048E+02  0.62718857950E+02 -0.19312527741E+02  0.68574443500E+02  0.00000000000E+00 0. -1.
          3    1    5    5  503    0  0.10022257315E+03 -0.10234462832E+03  0.11406874159E+03  0.18311380320E+03  0.00000000000E+00 0. -1.
         -4    1    5    5    0  503  0.52362816616E+03 -0.32667767686E+03  0.59757023473E+03  0.85906632246E+03  0.00000000000E+00 0.  1.
         -1    1    6    6    0  502  0.90744066292E+02  0.92843601618E+02 -0.15417206488E+03  0.20155258747E+03  0.00000000000E+00 0.  1.
<mgrwt>
<rscale>  0 0.19893376E+04</rscale>
<asrwt>0</asrwt>
<pdfrwt beam="1">  1        1 0.10378289E+00 0.19893376E+04</pdfrwt>
<pdfrwt beam="2">  1       -1 0.22563400E+00 0.19893376E+04</pdfrwt>
<totfact> 0.26993201E+00</totfact>
</mgrwt>
</event>
<event>
12    1  0.1544029E-007  0.2092756E+04  0.7818608E-02  0.8564441E-01
         -2   -1    0    0    0  501 -0.00000000000E+00  0.00000000000E+00  0.44680983185E+03  0.44680983185E+03  0.00000000000E+00 0.  1.
          2   -1    0    0  501    0  0.00000000000E+00 -0.00000000000E+00 -0.24504993016E+04  0.24504993016E+04  0.00000000000E+00 0. -1.
         23    2    1    2    0    0  0.22908804385E+03 -0.77953741508E+03 -0.11701881386E+04  0.14277158470E+04  0.94193135462E+02 0.  0.
        254    2    1    2    0    0 -0.22908804385E+03  0.77953741508E+03 -0.83350133112E+03  0.14695932864E+04  0.89711763170E+03 0.  0.
        -24    2    4    4    0    0  0.11323018160E+03  0.84046375774E+03 -0.55819714471E+03  0.10185628768E+04  0.81767227532E+02 0.  0.
         24    2    4    4    0    0 -0.34231822546E+03 -0.60926342661E+02 -0.27530418641E+03  0.45103040961E+03  0.82111196767E+02 0.  0.
         13    1    3    3    0    0  0.10519188667E+03 -0.35096817619E+03 -0.44670015852E+03  0.57774131351E+03  0.00000000000E+00 0.  1.
        -13    1    3    3    0    0  0.12389615718E+03 -0.42856923889E+03 -0.72348798011E+03  0.84997453353E+03  0.00000000000E+00 0. -1.
          2    1    6    6  502    0 -0.34285527151E+03 -0.65430682993E+02 -0.27757429543E+03  0.44595784662E+03  0.00000000000E+00 0. -1.
          1    1    5    5  503    0  0.11932612084E+03  0.63730020061E+03 -0.41223762076E+03  0.76832943766E+03  0.00000000000E+00 0. -1.
         -2    1    5    5    0  503 -0.60959392424E+01  0.20316355713E+03 -0.14595952395E+03  0.25023343912E+03  0.00000000000E+00 0.  1.
         -1    1    6    6    0  502  0.53704605420E+00  0.45043403323E+01  0.22701090281E+01  0.50725629905E+01  0.00000000000E+00 0.  1.
<mgrwt>
<rscale>  0 0.20927563E+04</rscale>
<asrwt>0</asrwt>
<pdfrwt beam="1">  1        2 0.37699989E+00 0.20927563E+04</pdfrwt>
<pdfrwt beam="2">  1       -2 0.68739975E-01 0.20927563E+04</pdfrwt>
<totfact> 0.66328907E+00</totfact>
</mgrwt>
</event>
<event>
12    1  0.1519630E-007  0.2854796E+04  0.7818608E-02  0.8286455E-01
          2   -1    0    0  501    0  0.00000000000E+00  0.00000000000E+00  0.26747413655E+04  0.26747413655E+04  0.00000000000E+00 0. -1.
         -2   -1    0    0    0  501 -0.00000000000E+00 -0.00000000000E+00 -0.76174297495E+03  0.76174297495E+03  0.00000000000E+00 0.  1.
         23    2    1    2    0    0 -0.27829147691E+02 -0.25097302922E+03 -0.65215897472E+03  0.70541068386E+03  0.92363313863E+02 0.  0.
        254    2    1    2    0    0  0.27829147691E+02  0.25097302922E+03  0.25651573652E+04  0.27310736566E+04  0.90275638256E+03 0.  0.
        -24    2    4    4    0    0  0.34234825987E+03 -0.16067396713E+03  0.78117852065E+03  0.87150926151E+03  0.79183691584E+02 0.  0.
         24    2    4    4    0    0 -0.31451911218E+03  0.41164699635E+03  0.17839788446E+04  0.18595643950E+04  0.83807516854E+02 0.  0.
         13    1    3    3    0    0 -0.32357311874E+02 -0.23398423412E+02 -0.12459843372E+03  0.13084055768E+03  0.00000000000E+00 0. -1.
        -13    1    3    3    0    0  0.45281641824E+01 -0.22757460581E+03 -0.52756054100E+03  0.57457012618E+03  0.00000000000E+00 0.  1.
          2    1    6    6  502    0 -0.16721480646E+03  0.16664575930E+03  0.90388385236E+03  0.93420427057E+03  0.00000000000E+00 0. -1.
          1    1    5    5  503    0  0.18668694454E+02  0.24676445354E+01  0.15578945950E+02  0.24439987297E+02  0.00000000000E+00 0. -1.
         -2    1    5    5    0  503  0.32367956542E+03 -0.16314161166E+03  0.76559957470E+03  0.84706927421E+03  0.00000000000E+00 0.  1.
         -3    1    6    6    0  502 -0.14730430572E+03  0.24500123705E+03  0.88009499222E+03  0.92536012448E+03  0.00000000000E+00 0.  1.
<mgrwt>
<rscale>  0 0.28547963E+04</rscale>
<asrwt>0</asrwt>
<pdfrwt beam="1">  1        2 0.41149867E+00 0.28547963E+04</pdfrwt>
<pdfrwt beam="2">  1       -2 0.11719123E+00 0.28547963E+04</pdfrwt>
<totfact> 0.13403197E+00</totfact>
</mgrwt>
</event>
<event>
12    1  0.1519630E-007  0.2098834E+04  0.7818608E-02  0.8561757E-01
         -2   -1    0    0    0  501 -0.00000000000E+00  0.00000000000E+00  0.79082078767E+03  0.79082078767E+03  0.00000000000E+00 0.  1.
          2   -1    0    0  501    0  0.00000000000E+00 -0.00000000000E+00 -0.13925731959E+04  0.13925731959E+04  0.00000000000E+00 0. -1.
         23    2    1    2    0    0  0.16868440555E+03  0.19579556854E+03  0.60258402417E+03  0.66199142698E+03  0.91295179877E+02 0.  0.
        254    2    1    2    0    0 -0.16868440555E+03 -0.19579556854E+03 -0.12043364324E+04  0.15214025566E+04  0.89300009152E+03 0.  0.
        -24    2    4    4    0    0 -0.41704988424E+03  0.26765443585E+02 -0.21913319800E+03  0.47830153156E+03  0.78140909338E+02 0.  0.
         24    2    4    4    0    0  0.24836547870E+03 -0.22256101213E+03 -0.98520323436E+03  0.10431010250E+04  0.78838570647E+02 0.  0.
         13    1    3    3    0    0  0.34679988941E+02  0.10588244856E+03  0.27827918424E+03  0.29975506489E+03  0.00000000000E+00 0.  1.
        -13    1    3    3    0    0  0.13400441660E+03  0.89913119979E+02  0.32430483994E+03  0.36223636209E+03  0.00000000000E+00 0. -1.
          4    1    6    6  502    0  0.22225984725E+03 -0.17832120611E+03 -0.74891521420E+03  0.80129388511E+03  0.00000000000E+00 0. -1.
          1    1    5    5  503    0 -0.19770657378E+03 -0.23834595060E+02 -0.11848486557E+03  0.23172104050E+03  0.00000000000E+00 0. -1.
         -2    1    5    5    0  503 -0.21934331046E+03  0.50600038645E+02 -0.10064833243E+03  0.24658049107E+03  0.00000000000E+00 0.  1.
         -3    1    6    6    0  502  0.26105631448E+02 -0.44239806023E+02 -0.23628802016E+03  0.24180713989E+03  0.00000000000E+00 0.  1.
<mgrwt>
<rscale>  0 0.20988338E+04</rscale>
<asrwt>0</asrwt>
<pdfrwt beam="1">  1        2 0.21424203E+00 0.20988338E+04</pdfrwt>
<pdfrwt beam="2">  1       -2 0.12166474E+00 0.20988338E+04</pdfrwt>
<totfact> 0.69114422E+00</totfact>
</mgrwt>
</event>
<event>
12    1  0.1519630E-007  0.1459351E+04  0.7818608E-02  0.8911943E-01
          2   -1    0    0  501    0  0.00000000000E+00  0.00000000000E+00  0.37184180420E+04  0.37184180420E+04  0.00000000000E+00 0. -1.
         -2   -1    0    0    0  501 -0.00000000000E+00 -0.00000000000E+00 -0.14318633670E+03  0.14318633670E+03  0.00000000000E+00 0.  1.
         23    2    1    2    0    0 -0.40684016670E+03  0.15458344386E+03  0.11254493626E+04  0.12099600259E+04  0.89174178150E+02 0.  0.
        254    2    1    2    0    0  0.40684016670E+03 -0.15458344386E+03  0.24497823427E+04  0.26516443528E+04  0.91671657832E+03 0.  0.
        -24    2    4    4    0    0 -0.90533888369E+02  0.30768133340E+03  0.75367611079E+03  0.82292296443E+03  0.79437632982E+02 0.  0.
         24    2    4    4    0    0  0.49737405507E+03 -0.46226477726E+03  0.16961062319E+04  0.18287213884E+04  0.79849180047E+02 0.  0.
         11    1    3    3    0    0 -0.82137169499E+02  0.61847211256E+02  0.20111247803E+03  0.22587124866E+03  0.00000000000E+00 0. -1.
        -11    1    3    3    0    0 -0.32470299720E+03  0.92736232607E+02  0.92433688460E+03  0.98408877722E+03  0.00000000000E+00 0.  1.
          4    1    6    6  502    0  0.65301979666E+02 -0.59125417367E+02  0.15630152433E+03  0.17941663812E+03  0.00000000000E+00 0. -1.
          3    1    5    5  503    0 -0.33897816487E+02  0.25334912692E+02  0.10436917964E+03  0.11262257954E+03  0.00000000000E+00 0. -1.
         -4    1    5    5    0  503 -0.56636071882E+02  0.28234642071E+03  0.64930693116E+03  0.71030038489E+03  0.00000000000E+00 0.  1.
         -3    1    6    6    0  502  0.43207207540E+03 -0.40313935990E+03  0.15398047076E+04  0.16493047503E+04  0.00000000000E+00 0.  1.
<mgrwt>
<rscale>  0 0.14593514E+04</rscale>
<asrwt>0</asrwt>
<pdfrwt beam="1">  1        2 0.57206424E+00 0.14593514E+04</pdfrwt>
<pdfrwt beam="2">  1       -2 0.22028670E-01 0.14593514E+04</pdfrwt>
<totfact> 0.10068197E+01</totfact>
</mgrwt>
</event>
<event>
12    1  0.1519630E-007  0.2121713E+04  0.7818608E-02  0.8551739E-01
          1   -1    0    0  501    0  0.00000000000E+00  0.00000000000E+00  0.27574860501E+04  0.27574860501E+04  0.00000000000E+00 0. -1.
         -1   -1    0    0    0  501 -0.00000000000E+00 -0.00000000000E+00 -0.40813132947E+03  0.40813132947E+03  0.00000000000E+00 0.  1.
         23    2    1    2    0    0 -0.48157178823E+03 -0.72468903539E+03  0.96402988851E+03  0.13018673564E+04  0.91757301437E+02 0.  0.
        254    2    1    2    0    0  0.48157178823E+03  0.72468903539E+03  0.13853248321E+04  0.18637500232E+04  0.89294662402E+03 0.  0.
        -24    2    4    4    0    0  0.70103771637E+03  0.45228067724E+03  0.70737716845E+03  0.10965981961E+04  0.78316374704E+02 0.  0.
         24    2    4    4    0    0 -0.21946592814E+03  0.27240835816E+03  0.67794766368E+03  0.76715182710E+03  0.80853471952E+02 0.  0.
         11    1    3    3    0    0 -0.38973858801E+03 -0.62403134228E+03  0.77234806902E+03  0.10666924687E+04  0.00000000000E+00 0.  1.
        -11    1    3    3    0    0 -0.91833200216E+02 -0.10065769311E+03  0.19168181949E+03  0.23517488762E+03  0.00000000000E+00 0. -1.
          4    1    6    6  502    0 -0.53168901335E+01 -0.50010137645E+01  0.66101670010E+01  0.98475259403E+01  0.00000000000E+00 0. -1.
          3    1    5    5  503    0  0.20991740473E+03  0.16627973811E+03  0.26081496601E+03  0.37381641833E+03  0.00000000000E+00 0. -1.
         -4    1    5    5    0  503  0.49112031163E+03  0.28600093913E+03  0.44656220244E+03  0.72278177781E+03  0.00000000000E+00 0.  1.
         -3    1    6    6    0  502 -0.21414903801E+03  0.27740937192E+03  0.67133749667E+03  0.75730430116E+03  0.00000000000E+00 0.  1.
<mgrwt>
<rscale>  0 0.21217129E+04</rscale>
<asrwt>0</asrwt>
<pdfrwt beam="1">  1        1 0.42422861E+00 0.21217129E+04</pdfrwt>
<pdfrwt beam="2">  1       -1 0.62789437E-01 0.21217129E+04</pdfrwt>
<totfact> 0.21115397E+00</totfact>
</mgrwt>
</event>
<event>
12    1  0.1519630E-007  0.1718536E+04  0.7818608E-02  0.8750862E-01
         -2   -1    0    0    0  501 -0.00000000000E+00  0.00000000000E+00  0.36222747481E+03  0.36222747481E+03  0.00000000000E+00 0.  1.
          2   -1    0    0  501    0  0.00000000000E+00 -0.00000000000E+00 -0.20383373436E+04  0.20383373436E+04  0.00000000000E+00 0. -1.
         23    2    1    2    0    0 -0.43025024457E+03  0.34374559399E+03 -0.10620235507E+04  0.11997866874E+04  0.91201790703E+02 0.  0.
        254    2    1    2    0    0  0.43025024457E+03 -0.34374559399E+03 -0.61408631805E+03  0.12007781310E+04  0.87263383358E+03 0.  0.
        -24    2    4    4    0    0  0.36783064740E+03  0.23499916976E+03 -0.25554629395E+03  0.51249204306E+03  0.82584447052E+02 0.  0.
         24    2    4    4    0    0  0.62419597167E+02 -0.57874476374E+03 -0.35854002409E+03  0.68828608792E+03  0.79656024746E+02 0.  0.
         13    1    3    3    0    0 -0.18515878534E+03  0.15127205402E+03 -0.55995138537E+03  0.60886169537E+03  0.00000000000E+00 0. -1.
        -13    1    3    3    0    0 -0.24509145923E+03  0.19247353997E+03 -0.50207216535E+03  0.59092499202E+03  0.00000000000E+00 0.  1.
          2    1    6    6  502    0  0.66614989606E+02 -0.31611768029E+03 -0.22445639451E+03  0.39338100827E+03  0.00000000000E+00 0. -1.
          1    1    5    5  503    0  0.33614813662E+03  0.23635470644E+03 -0.22514064087E+03  0.46855888124E+03  0.00000000000E+00 0. -1.
         -2    1    5    5    0  503  0.31682510783E+02 -0.13555366836E+01 -0.30405653079E+02  0.43933161829E+02  0.00000000000E+00 0.  1.
         -1    1    6    6    0  502 -0.41953924399E+01 -0.26262708346E+03 -0.13408362958E+03  0.29490507965E+03  0.00000000000E+00 0.  1.
<mgrwt>
<rscale>  0 0.17185363E+04</rscale>
<asrwt>0</asrwt>
<pdfrwt beam="1">  1        2 0.31359036E+00 0.17185363E+04</pdfrwt>
<pdfrwt beam="2">  1       -2 0.55727304E-01 0.17185363E+04</pdfrwt>
<totfact> 0.18284677E+01</totfact>
</mgrwt>
</event>
<event>
12    1  0.1519630E-007  0.1874114E+04  0.7818608E-02  0.8667850E-01
          1   -1    0    0  501    0  0.00000000000E+00  0.00000000000E+00  0.11029724510E+04  0.11029724510E+04  0.00000000000E+00 0. -1.
         -1   -1    0    0    0  501 -0.00000000000E+00 -0.00000000000E+00 -0.79609962459E+03  0.79609962459E+03  0.00000000000E+00 0.  1.
         23    2    1    2    0    0  0.15273362414E+03  0.24472835545E+02  0.82977235952E+03  0.84919556219E+03  0.93190421092E+02 0.  0.
        254    2    1    2    0    0 -0.15273362414E+03 -0.24472835545E+02 -0.52289953307E+03  0.10498765135E+04  0.89715678239E+03 0.  0.
        -24    2    4    4    0    0 -0.44961900041E+03  0.19187332261E+03 -0.14284932761E+03  0.51537311610E+03  0.78936056058E+02 0.  0.
         24    2    4    4    0    0  0.29688537626E+03 -0.21634615815E+03 -0.38005020546E+03  0.53450339735E+03  0.79430071926E+02 0.  0.
         11    1    3    3    0    0  0.14100691154E+03  0.15919443254E+02  0.51798717846E+03  0.53707270907E+03  0.00000000000E+00 0. -1.
        -11    1    3    3    0    0  0.11726712603E+02  0.85533922915E+01  0.31178518106E+03  0.31212285312E+03  0.00000000000E+00 0.  1.
          2    1    6    6  502    0  0.49146118839E+02 -0.92332112552E+01 -0.75997775911E+02  0.90973925553E+02  0.00000000000E+00 0. -1.
          3    1    5    5  503    0 -0.93593296484E+02  0.67682362362E+02 -0.56349397666E+02  0.12851405347E+03  0.00000000000E+00 0. -1.
         -4    1    5    5    0  503 -0.35602570392E+03  0.12419096024E+03 -0.86499929944E+02  0.38685906263E+03  0.00000000000E+00 0.  1.
         -1    1    6    6    0  502  0.24773925742E+03 -0.20711294690E+03 -0.30405242955E+03  0.44352947180E+03  0.00000000000E+00 0.  1.
<mgrwt>
<rscale>  0 0.18741141E+04</rscale>
<asrwt>0</asrwt>
<pdfrwt beam="1">  1        1 0.16968807E+00 0.18741141E+04</pdfrwt>
<pdfrwt beam="2">  1       -1 0.12247687E+00 0.18741141E+04</pdfrwt>
<totfact> 0.69635985E+00</totfact>
</mgrwt>
</event>
<event>
12    1  0.1519630E-007  0.1547801E+04  0.7818608E-02  0.8853273E-01
          1   -1    0    0  501    0  0.00000000000E+00  0.00000000000E+00  0.16507046485E+04  0.16507046485E+04  0.00000000000E+00 0. -1.
         -1   -1    0    0    0  501 -0.00000000000E+00 -0.00000000000E+00 -0.36282824667E+03  0.36282824667E+03  0.00000000000E+00 0.  1.
         23    2    1    2    0    0  0.24217412724E+03 -0.23984017775E+03  0.91809742537E+03  0.98387027339E+03  0.94478641064E+02 0.  0.
        254    2    1    2    0    0 -0.24217412724E+03  0.23984017775E+03  0.36977897650E+03  0.10296626218E+04  0.89849708100E+03 0.  0.
        -24    2    4    4    0    0 -0.19444240364E+03  0.66199382584E+02 -0.27682112723E+03  0.35353810801E+03  0.78543304934E+02 0.  0.
         24    2    4    4    0    0 -0.47731723606E+02  0.17364079516E+03  0.64660010373E+03  0.67612451382E+03  0.81383173111E+02 0.  0.
         13    1    3    3    0    0  0.21178996958E+03 -0.22643062958E+03  0.88157461702E+03  0.93450501690E+03  0.00000000000E+00 0. -1.
        -13    1    3    3    0    0  0.30384157662E+02 -0.13409548161E+02  0.36522808351E+02  0.49365256492E+02  0.00000000000E+00 0.  1.
          4    1    6    6  502    0 -0.29427591259E+02  0.17657111783E+03  0.58033955310E+03  0.60731980017E+03  0.00000000000E+00 0. -1.
          1    1    5    5  503    0 -0.19780726007E+03  0.66666177703E+02 -0.24641761659E+03  0.32294540274E+03  0.00000000000E+00 0. -1.
         -2    1    5    5    0  503  0.33648564358E+01 -0.46679511915E+00 -0.30403510638E+02  0.30592705268E+02  0.00000000000E+00 0.  1.
         -3    1    6    6    0  502 -0.18304132347E+02 -0.29303226670E+01  0.66260550623E+02  0.68804713653E+02  0.00000000000E+00 0.  1.
<mgrwt>
<rscale>  0 0.15478014E+04</rscale>
<asrwt>0</asrwt>
<pdfrwt beam="1">  1        1 0.25395456E+00 0.15478014E+04</pdfrwt>
<pdfrwt beam="2">  1       -1 0.55819731E-01 0.15478014E+04</pdfrwt>
<totfact> 0.16111827E+01</totfact>
</mgrwt>
</event>
<event>
12    1  0.1519630E-007  0.2590460E+04  0.7818608E-02  0.8371449E-01
          1   -1    0    0  501    0  0.00000000000E+00  0.00000000000E+00  0.14647839233E+04  0.14647839233E+04  0.00000000000E+00 0. -1.
         -1   -1    0    0    0  501 -0.00000000000E+00 -0.00000000000E+00 -0.11453023721E+04  0.11453023721E+04  0.00000000000E+00 0.  1.
         23    2    1    2    0    0 -0.76423365118E+03  0.25698881857E+03 -0.66852814909E+03  0.10515906018E+04  0.93896652218E+02 0.  0.
        254    2    1    2    0    0  0.76423365118E+03 -0.25698881857E+03  0.98800970028E+03  0.15584956935E+04  0.89590698868E+03 0.  0.
        -24    2    4    4    0    0  0.75928421337E+03 -0.14982224962E+03  0.11254303997E+04  0.13681909313E+04  0.79960094425E+02 0.  0.
         24    2    4    4    0    0  0.49494378105E+01 -0.10716656895E+03 -0.13742069942E+03  0.19030476223E+03  0.76303888908E+02 0.  0.
         11    1    3    3    0    0 -0.68177157517E+03  0.19770936746E+03 -0.57494223312E+03  0.91348784673E+03  0.00000000000E+00 0.  1.
        -11    1    3    3    0    0 -0.82462076011E+02  0.59279451108E+02 -0.93585915965E+02  0.13810275512E+03  0.00000000000E+00 0. -1.
          2    1    6    6  502    0 -0.10341585350E+01 -0.39938219594E+02 -0.11074385990E+03  0.11772991707E+03  0.00000000000E+00 0. -1.
          3    1    5    5  503    0  0.53974965755E+03 -0.14256754922E+03  0.81878376003E+03  0.99099043618E+03  0.00000000000E+00 0. -1.
         -4    1    5    5    0  503  0.21953455582E+03 -0.72547003947E+01  0.30664663967E+03  0.37720049510E+03  0.00000000000E+00 0.  1.
         -1    1    6    6    0  502  0.59835963456E+01 -0.67228349361E+02 -0.26676839520E+02  0.72574845158E+02  0.00000000000E+00 0.  1.
<mgrwt>
<rscale>  0 0.25904598E+04</rscale>
<asrwt>0</asrwt>
<pdfrwt beam="1">  1        1 0.22535137E+00 0.25904598E+04</pdfrwt>
<pdfrwt beam="2">  1       -1 0.17620036E+00 0.25904598E+04</pdfrwt>
<totfact> 0.13525507E+00</totfact>
</mgrwt>
</event>
<event>
12    1  0.1519630E-007  0.1421423E+04  0.7818608E-02  0.8938456E-01
         -2   -1    0    0    0  501 -0.00000000000E+00  0.00000000000E+00  0.47010224964E+03  0.47010224964E+03  0.00000000000E+00 0.  1.
          2   -1    0    0  501    0  0.00000000000E+00 -0.00000000000E+00 -0.10744695236E+04  0.10744695236E+04  0.00000000000E+00 0. -1.
         23    2    1    2    0    0 -0.32940045576E+03 -0.18410587798E+03  0.12707210164E+02  0.38862602893E+03  0.92027618745E+02 0.  0.
        254    2    1    2    0    0  0.32940045576E+03  0.18410587798E+03 -0.61707448409E+03  0.11559457443E+04  0.90168176771E+03 0.  0.
        -24    2    4    4    0    0 -0.12626889758E+02 -0.26312168496E+03 -0.50645557741E+03  0.57636682084E+03  0.79429219000E+02 0.  0.
         24    2    4    4    0    0  0.34202734552E+03  0.44722756294E+03 -0.11061890668E+03  0.57957892343E+03  0.81731192538E+02 0.  0.
         11    1    3    3    0    0 -0.32580142575E+03 -0.18147708330E+03  0.26749839558E+02  0.37389310598E+03  0.00000000000E+00 0.  1.
        -11    1    3    3    0    0 -0.35990300163E+01 -0.26287946785E+01 -0.14042629394E+02  0.14732922956E+02  0.00000000000E+00 0. -1.
          2    1    6    6  502    0  0.25540230158E+03  0.34774528600E+03 -0.11848719528E+03  0.44743305090E+03  0.00000000000E+00 0. -1.
          3    1    5    5  503    0 -0.23979281798E+02 -0.25578060836E+03 -0.44860526256E+03  0.51695783887E+03  0.00000000000E+00 0. -1.
         -4    1    5    5    0  503  0.11352392040E+02 -0.73410766024E+01 -0.57850314850E+02  0.59408981972E+02  0.00000000000E+00 0.  1.
         -1    1    6    6    0  502  0.86625043941E+02  0.99482276938E+02  0.78682886013E+01  0.13214587254E+03  0.00000000000E+00 0.  1.
<mgrwt>
<rscale>  0 0.14214226E+04</rscale>
<asrwt>0</asrwt>
<pdfrwt beam="1">  1        2 0.16530300E+00 0.14214226E+04</pdfrwt>
<pdfrwt beam="2">  1       -2 0.72323423E-01 0.14214226E+04</pdfrwt>
<totfact> 0.38004545E+01</totfact>
</mgrwt>
</event>
<event>
12    1  0.1519630E-007  0.1134055E+04  0.7818608E-02  0.9172621E-01
         -1   -1    0    0    0  501 -0.00000000000E+00  0.00000000000E+00  0.59598982089E+03  0.59598982089E+03  0.00000000000E+00 0.  1.
          1   -1    0    0  501    0  0.00000000000E+00 -0.00000000000E+00 -0.53947267112E+03  0.53947267112E+03  0.00000000000E+00 0. -1.
         23    2    1    2    0    0 -0.47116770848E+02 -0.14855642804E+03 -0.34898800518E+02  0.18365070848E+03  0.90667822509E+02 0.  0.
        254    2    1    2    0    0  0.47116770848E+02  0.14855642804E+03  0.91415950284E+02  0.95181178353E+03  0.93450510586E+03 0.  0.
        -24    2    4    4    0    0 -0.10449572228E+03 -0.19159062206E+03  0.39915118275E+03  0.46195868000E+03  0.80360642760E+02 0.  0.
         24    2    4    4    0    0  0.15161249313E+03  0.34014705010E+03 -0.30773523247E+03  0.48985310352E+03  0.81047677101E+02 0.  0.
         13    1    3    3    0    0  0.18963368274E+01 -0.11823720929E+03 -0.42201336701E+02  0.12555710483E+03  0.00000000000E+00 0. -1.
        -13    1    3    3    0    0 -0.49013107676E+02 -0.30319218750E+02  0.73025361830E+01  0.58093603644E+02  0.00000000000E+00 0.  1.
          4    1    6    6  502    0  0.11678934585E+02  0.10780363006E+03 -0.10776594373E+03  0.15287746333E+03  0.00000000000E+00 0. -1.
          3    1    5    5  503    0 -0.78516270279E+02 -0.18576119989E+03  0.37602129024E+03  0.42668962818E+03  0.00000000000E+00 0. -1.
         -4    1    5    5    0  503 -0.25979452000E+02 -0.58294221710E+01  0.23129892511E+02  0.35269051825E+02  0.00000000000E+00 0.  1.
         -3    1    6    6    0  502  0.13993355854E+03  0.23234342004E+03 -0.19996928874E+03  0.33697564019E+03  0.00000000000E+00 0.  1.
<mgrwt>
<rscale>  0 0.11340551E+04</rscale>
<asrwt>0</asrwt>
<pdfrwt beam="1">  1        1 0.82995795E-01 0.11340551E+04</pdfrwt>
<pdfrwt beam="2">  1       -1 0.91690742E-01 0.11340551E+04</pdfrwt>
<totfact> 0.45967874E+01</totfact>
</mgrwt>
</event>
<event>
12    1  0.1519630E-007  0.1161990E+04  0.7818608E-02  0.9146793E-01
          1   -1    0    0  501    0  0.00000000000E+00  0.00000000000E+00  0.53983043960E+03  0.53983043960E+03  0.00000000000E+00 0. -1.
         -1   -1    0    0    0  501 -0.00000000000E+00 -0.00000000000E+00 -0.62529827527E+03  0.62529827527E+03  0.00000000000E+00 0.  1.
         23    2    1    2    0    0  0.18668794883E+03 -0.33451104389E+02 -0.11132277485E+03  0.23785867159E+03  0.90623511448E+02 0.  0.
        254    2    1    2    0    0 -0.18668794883E+03  0.33451104389E+02  0.25854939187E+02  0.92727004328E+03  0.90729812557E+03 0.  0.
        -24    2    4    4    0    0  0.23251248376E+03  0.26204169181E+03 -0.17958252572E+03  0.40161739266E+03  0.79490522660E+02 0.  0.
         24    2    4    4    0    0 -0.41920043259E+03 -0.22859058742E+03  0.20543746490E+03  0.52565265062E+03  0.78252781239E+02 0.  0.
         13    1    3    3    0    0  0.75600423789E+02  0.65026318965E+01 -0.41686455381E+00  0.75880709503E+02  0.00000000000E+00 0. -1.
        -13    1    3    3    0    0  0.11108752504E+03 -0.39953736285E+02 -0.11090591030E+03  0.16197796209E+03  0.00000000000E+00 0.  1.
          2    1    6    6  502    0 -0.26319534259E+02 -0.37319576835E+02  0.89225785473E+01  0.46530432049E+02  0.00000000000E+00 0. -1.
          1    1    5    5  503    0  0.34854203322E+02  0.65238029142E+02 -0.86212930082E+01  0.74465714451E+02  0.00000000000E+00 0. -1.
         -2    1    5    5    0  503  0.19765828044E+03  0.19680366267E+03 -0.17096123271E+03  0.32715167821E+03  0.00000000000E+00 0.  1.
         -1    1    6    6    0  502 -0.39288089833E+03 -0.19127101059E+03  0.19651488636E+03  0.47912221857E+03  0.00000000000E+00 0.  1.
<mgrwt>
<rscale>  0 0.11619897E+04</rscale>
<asrwt>0</asrwt>
<pdfrwt beam="1">  1        1 0.83050837E-01 0.11619897E+04</pdfrwt>
<pdfrwt beam="2">  1       -1 0.96199735E-01 0.11619897E+04</pdfrwt>
<totfact> 0.41162076E+01</totfact>
</mgrwt>
</event>
<event>
12    1  0.1519630E-007  0.1453105E+04  0.7818608E-02  0.8916251E-01
         -2   -1    0    0    0  501 -0.00000000000E+00  0.00000000000E+00  0.43033718656E+03  0.43033718656E+03  0.00000000000E+00 0.  1.
          2   -1    0    0  501    0  0.00000000000E+00 -0.00000000000E+00 -0.12266619425E+04  0.12266619425E+04  0.00000000000E+00 0. -1.
         23    2    1    2    0    0 -0.22588148673E+03  0.25821574640E+03 -0.56560007758E+03  0.66780483283E+03  0.91444131867E+02 0.  0.
        254    2    1    2    0    0  0.22588148673E+03 -0.25821574640E+03 -0.23072467837E+03  0.98919429623E+03  0.89865102278E+03 0.  0.
        -24    2    4    4    0    0  0.26641030181E+03 -0.56483283448E+03 -0.79612122080E+02  0.63480839981E+03  0.81443444644E+02 0.  0.
         24    2    4    4    0    0 -0.40528815075E+02  0.30661708808E+03 -0.15111255629E+03  0.35438589642E+03  0.84248058494E+02 0.  0.
         13    1    3    3    0    0 -0.34832134991E+02  0.11527668879E+02 -0.27748127278E+02  0.46001340690E+02  0.00000000000E+00 0.  1.
        -13    1    3    3    0    0 -0.19104935174E+03  0.24668807753E+03 -0.53785195030E+03  0.62180349214E+03  0.00000000000E+00 0. -1.
          4    1    6    6  502    0 -0.10357693014E+02  0.48616644868E+02 -0.62656309142E+02  0.79979203786E+02  0.00000000000E+00 0. -1.
          3    1    5    5  503    0  0.73643287704E+02 -0.11245686778E+03 -0.45403872789E+02  0.14188513875E+03  0.00000000000E+00 0. -1.
         -4    1    5    5    0  503  0.19276701410E+03 -0.45237596671E+03 -0.34208249292E+02  0.49292326106E+03  0.00000000000E+00 0.  1.
         -3    1    6    6    0  502 -0.30171122062E+02  0.25800044321E+03 -0.88456247143E+02  0.27440669263E+03  0.00000000000E+00 0.  1.
<mgrwt>
<rscale>  0 0.14531046E+04</rscale>
<asrwt>0</asrwt>
<pdfrwt beam="1">  1        2 0.18871722E+00 0.14531046E+04</pdfrwt>
<pdfrwt beam="2">  1       -2 0.66205721E-01 0.14531046E+04</pdfrwt>
<totfact> 0.37149945E+01</totfact>
</mgrwt>
</event>
<event>
12    1  0.1519630E-007  0.2490718E+04  0.7818608E-02  0.8406300E-01
         -2   -1    0    0    0  501 -0.00000000000E+00  0.00000000000E+00  0.96433126568E+03  0.96433126568E+03  0.00000000000E+00 0.  1.
          2   -1    0    0  501    0  0.00000000000E+00 -0.00000000000E+00 -0.16082848850E+04  0.16082848850E+04  0.00000000000E+00 0. -1.
         23    2    1    2    0    0 -0.34791496542E+03  0.60345377556E+03 -0.11410731615E+04  0.13400038296E+04  0.91438619664E+02 0.  0.
        254    2    1    2    0    0  0.34791496542E+03 -0.60345377556E+03  0.49711954214E+03  0.12326123211E+04  0.88713246614E+03 0.  0.
        -24    2    4    4    0    0  0.33603280260E+03 -0.43302693902E+03  0.74090851425E+03  0.92432507397E+03  0.70718042630E+02 0.  0.
         24    2    4    4    0    0  0.11882162823E+02 -0.17042683654E+03 -0.24378897210E+03  0.30828724710E+03  0.80134083879E+02 0.  0.
         13    1    3    3    0    0 -0.96984768486E+02  0.22220097021E+03 -0.46286305701E+03  0.52251461800E+03  0.00000000000E+00 0. -1.
        -13    1    3    3    0    0 -0.25093019694E+03  0.38125280535E+03 -0.67821010449E+03  0.81748921165E+03  0.00000000000E+00 0.  1.
          2    1    6    6  502    0  0.14197516332E+01 -0.17723089680E+02  0.28569006312E+01  0.18007928357E+02  0.00000000000E+00 0. -1.
          1    1    5    5  503    0  0.11415861678E+03 -0.17736699033E+03  0.33388332855E+03  0.39492950780E+03  0.00000000000E+00 0. -1.
         -2    1    5    5    0  503  0.22187418582E+03 -0.25565994869E+03  0.40702518569E+03  0.52939556618E+03  0.00000000000E+00 0.  1.
         -1    1    6    6    0  502  0.10462411190E+02 -0.15270374686E+03 -0.24664587274E+03  0.29027931875E+03  0.00000000000E+00 0.  1.
<mgrwt>
<rscale>  0 0.24907183E+04</rscale>
<asrwt>0</asrwt>
<pdfrwt beam="1">  1        2 0.24742844E+00 0.24907183E+04</pdfrwt>
<pdfrwt beam="2">  1       -2 0.14835866E+00 0.24907183E+04</pdfrwt>
<totfact> 0.30384342E+00</totfact>
</mgrwt>
</event>
<event>
12    1  0.1519630E-007  0.2532635E+04  0.7818608E-02  0.8391450E-01
         -2   -1    0    0    0  501 -0.00000000000E+00  0.00000000000E+00  0.53767397289E+03  0.53767397289E+03  0.00000000000E+00 0.  1.
          2   -1    0    0  501    0  0.00000000000E+00 -0.00000000000E+00 -0.29824031716E+04  0.29824031716E+04  0.00000000000E+00 0. -1.
         23    2    1    2    0    0  0.10144285511E+04  0.26881712642E+02 -0.16744734551E+04  0.19602997865E+04  0.95530044347E+02 0.  0.
        254    2    1    2    0    0 -0.10144285511E+04 -0.26881712642E+02 -0.77025574362E+03  0.15597773580E+04  0.89990198590E+03 0.  0.
        -24    2    4    4    0    0 -0.45381784507E+03  0.30342188439E+02  0.14355397251E+03  0.48343711129E+03  0.78945630926E+02 0.  0.
         24    2    4    4    0    0 -0.56061070601E+03 -0.57223901081E+02 -0.91380971613E+03  0.10763402467E+04  0.76819208958E+02 0.  0.
         11    1    3    3    0    0  0.38504096457E+03  0.47306094129E+02 -0.58534868603E+03  0.70223037187E+03  0.00000000000E+00 0.  1.
        -11    1    3    3    0    0  0.62938758652E+03 -0.20424381487E+02 -0.10891247691E+04  0.12580694147E+04  0.00000000000E+00 0. -1.
          4    1    6    6  502    0 -0.21650530048E+03 -0.51979210292E+02 -0.40294242816E+03  0.46036831326E+03  0.00000000000E+00 0. -1.
          1    1    5    5  503    0 -0.28454435755E+03  0.40134106289E+02  0.56590963304E+02  0.29288013765E+03  0.00000000000E+00 0. -1.
         -2    1    5    5    0  503 -0.16927348752E+03 -0.97919178496E+01  0.86963009202E+02  0.19055697364E+03  0.00000000000E+00 0.  1.
         -3    1    6    6    0  502 -0.34410540553E+03 -0.52446907882E+01 -0.51086728797E+03  0.61597193346E+03  0.00000000000E+00 0.  1.
<mgrwt>
<rscale>  0 0.25326354E+04</rscale>
<asrwt>0</asrwt>
<pdfrwt beam="1">  1        2 0.45883126E+00 0.25326354E+04</pdfrwt>
<pdfrwt beam="2">  1       -2 0.82719071E-01 0.25326354E+04</pdfrwt>
<totfact> 0.20362353E+00</totfact>
</mgrwt>
</event>
<event>
12    1  0.1703822E-007  0.2085815E+04  0.7818608E-02  0.8567518E-01
          2   -1    0    0  501    0  0.00000000000E+00  0.00000000000E+00  0.25114012419E+04  0.25114012419E+04  0.00000000000E+00 0. -1.
         -2   -1    0    0    0  501 -0.00000000000E+00 -0.00000000000E+00 -0.43308733327E+03  0.43308733327E+03  0.00000000000E+00 0.  1.
         23    2    1    2    0    0  0.66127119431E+03 -0.45543771030E+03  0.59087573657E+03  0.10010816787E+04  0.91253991166E+02 0.  0.
        254    2    1    2    0    0 -0.66127119431E+03  0.45543771030E+03  0.14874381720E+04  0.19434068965E+04  0.95898641767E+03 0.  0.
        -24    2    4    4    0    0 -0.72225900022E+02  0.29194466610E+03 -0.23703068938E+02  0.31141142926E+03  0.77246191449E+02 0.  0.
         24    2    4    4    0    0 -0.58904529429E+03  0.16349304419E+03  0.15111412410E+04  0.16319954672E+04  0.78466684959E+02 0.  0.
         11    1    3    3    0    0  0.58301146632E+03 -0.41228485501E+03  0.48839609273E+03  0.86510803656E+03  0.00000000000E+00 0.  1.
        -11    1    3    3    0    0  0.78259727991E+02 -0.43152855281E+02  0.10247964384E+03  0.13597364210E+03  0.00000000000E+00 0. -1.
          2    1    6    6  502    0  0.13131854392E+01 -0.72324971478E+00  0.18417406796E+00  0.15104523280E+01  0.00000000000E+00 0. -1.
          1    1    5    5  503    0 -0.38333227026E+02  0.92591702460E+02  0.25274302449E+02  0.10335110073E+03  0.00000000000E+00 0. -1.
         -2    1    5    5    0  503 -0.33892672996E+02  0.19935296364E+03 -0.48977371387E+02  0.20806032852E+03  0.00000000000E+00 0.  1.
         -3    1    6    6    0  502 -0.59035847973E+03  0.16421629391E+03  0.15109570669E+04  0.16304850149E+04  0.00000000000E+00 0.  1.
<mgrwt>
<rscale>  0 0.20858150E+04</rscale>
<asrwt>0</asrwt>
<pdfrwt beam="1">  1        2 0.38636941E+00 0.20858150E+04</pdfrwt>
<pdfrwt beam="2">  1       -2 0.66628822E-01 0.20858150E+04</pdfrwt>
<totfact> 0.65488287E+00</totfact>
</mgrwt>
</event>
<event>
12    1  0.1519630E-007  0.1849793E+04  0.7818608E-02  0.8680259E-01
          2   -1    0    0  501    0  0.00000000000E+00  0.00000000000E+00  0.21463925570E+04  0.21463925570E+04  0.00000000000E+00 0.  1.
         -2   -1    0    0    0  501 -0.00000000000E+00 -0.00000000000E+00 -0.39854460905E+03  0.39854460905E+03  0.00000000000E+00 0. -1.
         23    2    1    2    0    0 -0.31075967098E+03 -0.46885366373E+03  0.12614269406E+04  0.13842182215E+04  0.92015364809E+02 0.  0.
        254    2    1    2    0    0  0.31075967098E+03  0.46885366373E+03  0.48642100741E+03  0.11607189445E+04  0.89121699974E+03 0.  0.
        -24    2    4    4    0    0 -0.23432741512E+03 -0.33865253268E+02 -0.32181075143E+02  0.25229980159E+03  0.81014661833E+02 0.  0.
         24    2    4    4    0    0  0.54508708609E+03  0.50271891700E+03  0.51860208255E+03  0.90841914293E+03  0.80193380560E+02 0.  0.
         13    1    3    3    0    0 -0.88033965006E+02 -0.67460045035E+02  0.24203051486E+03  0.26623224221E+03  0.00000000000E+00 0. -1.
        -13    1    3    3    0    0 -0.22272570597E+03 -0.40139361870E+03  0.10193964257E+04  0.11179859793E+04  0.00000000000E+00 0.  1.
          4    1    6    6  502    0  0.49162087025E+03  0.41679222553E+03  0.44266606939E+03  0.78189519011E+03  0.00000000000E+00 0. -1.
          3    1    5    5  503    0 -0.19932422525E+03 -0.44467105533E+02 -0.51946420612E+02  0.21072707671E+03  0.00000000000E+00 0. -1.
         -4    1    5    5    0  503 -0.35003189867E+02  0.10601852265E+02  0.19765345469E+02  0.41572724879E+02  0.00000000000E+00 0.  1.
         -3    1    6    6    0  502  0.53466215848E+02  0.85926691467E+02  0.75936013162E+02  0.12652395282E+03  0.00000000000E+00 0.  1.
<mgrwt>
<rscale>  0 0.18497926E+04</rscale>
<asrwt>0</asrwt>
<pdfrwt beam="1">  1        2 0.33021423E+00 0.18497926E+04</pdfrwt>
<pdfrwt beam="2">  1       -2 0.61314557E-01 0.18497926E+04</pdfrwt>
<totfact> 0.12874671E+01</totfact>
</mgrwt>
</event>
<event>
12    1  0.1519630E-007  0.1460137E+04  0.7818608E-02  0.8911403E-01
         -1   -1    0    0    0  501 -0.00000000000E+00  0.00000000000E+00  0.22653587159E+03  0.22653587159E+03  0.00000000000E+00 0.  1.
          1   -1    0    0  501    0  0.00000000000E+00 -0.00000000000E+00 -0.23528287859E+04  0.23528287859E+04  0.00000000000E+00 0. -1.
         23    2    1    2    0    0  0.15637643574E+03  0.38954843382E+03 -0.34397376378E+03  0.55015149547E+03  0.90261541341E+02 0.  0.
        254    2    1    2    0    0 -0.15637643574E+03 -0.38954843382E+03 -0.17823191505E+04  0.20292131620E+04  0.87455298904E+03 0.  0.
        -24    2    4    4    0    0 -0.23413072989E+03  0.51744838004E+02 -0.14335725768E+04  0.14556859703E+04  0.79978648019E+02 0.  0.
         24    2    4    4    0    0  0.77754294151E+02 -0.44129327183E+03 -0.34874657368E+03  0.57352719171E+03  0.80769950871E+02 0.  0.
         11    1    3    3    0    0  0.51974682321E+02  0.15250054906E+03 -0.78393537166E+02  0.17917402640E+03  0.00000000000E+00 0. -1.
        -11    1    3    3    0    0  0.10440175342E+03  0.23704788476E+03 -0.26558022662E+03  0.37097746907E+03  0.00000000000E+00 0.  1.
          4    1    6    6  502    0  0.26599433431E+02 -0.26639341825E+03 -0.16360922028E+03  0.31375302406E+03  0.00000000000E+00 0. -1.
          1    1    5    5  503    0 -0.19699319469E+03  0.24065343920E+02 -0.98957768388E+03  0.10092816515E+04  0.00000000000E+00 0. -1.
         -2    1    5    5    0  503 -0.37137535198E+02  0.27679494084E+02 -0.44399489293E+03  0.44640431882E+03  0.00000000000E+00 0.  1.
         -3    1    6    6    0  502  0.51154860720E+02 -0.17489985357E+03 -0.18513735340E+03  0.25977416765E+03  0.00000000000E+00 0.  1.
<mgrwt>
<rscale>  0 0.14601371E+04</rscale>
<asrwt>0</asrwt>
<pdfrwt beam="1">  1        1 0.36197366E+00 0.14601371E+04</pdfrwt>
<pdfrwt beam="2">  1       -1 0.34851673E-01 0.14601371E+04</pdfrwt>
<totfact> 0.13019266E+01</totfact>
</mgrwt>
</event>
<event>
12    1  0.1519630E-007  0.1179614E+04  0.7818608E-02  0.9130890E-01
         -1   -1    0    0    0  501 -0.00000000000E+00  0.00000000000E+00  0.19240171134E+03  0.19240171134E+03  0.00000000000E+00 0.  1.
          1   -1    0    0  501    0  0.00000000000E+00 -0.00000000000E+00 -0.18080526921E+04  0.18080526921E+04  0.00000000000E+00 0. -1.
         23    2    1    2    0    0 -0.10530800423E+03  0.33788331463E+02  0.30696340596E+01  0.14434780891E+03  0.92711596826E+02 0.  0.
        254    2    1    2    0    0  0.10530800423E+03 -0.33788331463E+02 -0.16187206148E+04  0.18561065945E+04  0.90146760027E+03 0.  0.
        -24    2    4    4    0    0 -0.91414163147E+02  0.21789125682E+03 -0.52214974274E+02  0.25534369170E+03  0.81491400320E+02 0.  0.
         24    2    4    4    0    0  0.19672216737E+03 -0.25167958829E+03 -0.15665056405E+04  0.16007629028E+04  0.80372401663E+02 0.  0.
         11    1    3    3    0    0 -0.11472015863E+03  0.20011030992E+02 -0.17609849640E+02  0.11777632598E+03  0.00000000000E+00 0.  1.
        -11    1    3    3    0    0  0.94121544043E+01  0.13777300471E+02  0.20679483699E+02  0.26571482925E+02  0.00000000000E+00 0. -1.
          2    1    6    6  502    0  0.16134423382E+03 -0.14537599311E+03 -0.10583861092E+04  0.10804384746E+04  0.00000000000E+00 0. -1.
          3    1    5    5  503    0 -0.68697653780E+02  0.21363769891E+03 -0.36412163323E+02  0.22734616704E+03  0.00000000000E+00 0. -1.
         -4    1    5    5    0  503 -0.22716509367E+02  0.42535579116E+01 -0.15802810951E+02  0.27997524652E+02  0.00000000000E+00 0.  1.
         -1    1    6    6    0  502  0.35377933550E+02 -0.10630359518E+03 -0.50811953131E+03  0.52032442824E+03  0.00000000000E+00 0.  1.
<mgrwt>
<rscale>  0 0.11796142E+04</rscale>
<asrwt>0</asrwt>
<pdfrwt beam="1">  1        1 0.27816197E+00 0.11796142E+04</pdfrwt>
<pdfrwt beam="2">  1       -1 0.29600262E-01 0.11796142E+04</pdfrwt>
<totfact> 0.41693440E+01</totfact>
</mgrwt>
</event>
<event>
12    1  0.1519630E-007  0.1747426E+04  0.7818608E-02  0.8734769E-01
         -2   -1    0    0    0  501 -0.00000000000E+00  0.00000000000E+00  0.90295620380E+03  0.90295620380E+03  0.00000000000E+00 0. -1.
          2   -1    0    0  501    0  0.00000000000E+00 -0.00000000000E+00 -0.84541669088E+03  0.84541669088E+03  0.00000000000E+00 0.  1.
         23    2    1    2    0    0 -0.47668218804E+03  0.41093111297E+02  0.44082125883E+03  0.65706813905E+03  0.92198725154E+02 0.  0.
        254    2    1    2    0    0  0.47668218804E+03 -0.41093111297E+02 -0.38328174592E+03  0.10913047556E+04  0.90284363027E+03 0.  0.
        -24    2    4    4    0    0 -0.26568301375E+02 -0.30023771781E+03 -0.41428316148E+03  0.51870956797E+03  0.81120380828E+02 0.  0.
         24    2    4    4    0    0  0.50325048942E+03  0.25914460651E+03  0.31001415565E+02  0.57259518766E+03  0.80543025650E+02 0.  0.
         13    1    3    3    0    0 -0.21105428170E+03  0.64144697491E+02  0.20376626603E+03  0.30029842360E+03  0.00000000000E+00 0. -1.
        -13    1    3    3    0    0 -0.26562790634E+03 -0.23051586193E+02  0.23705499280E+03  0.35676971545E+03  0.00000000000E+00 0.  1.
          2    1    6    6  502    0  0.47952717416E+03  0.22583893203E+03  0.36668043335E+02  0.53131354149E+03  0.00000000000E+00 0. -1.
          3    1    5    5  503    0  0.19571775781E+02 -0.20772527938E+03 -0.27046574743E+03  0.34159122740E+03  0.00000000000E+00 0. -1.
         -4    1    5    5    0  503 -0.46140077156E+02 -0.92512438423E+02 -0.14381741405E+03  0.17711834057E+03  0.00000000000E+00 0.  1.
         -1    1    6    6    0  502  0.23723315261E+02  0.33305674483E+02 -0.56666277700E+01  0.41281646165E+02  0.00000000000E+00 0.  1.
<mgrwt>
<rscale>  0 0.17474258E+04</rscale>
<asrwt>0</asrwt>
<pdfrwt beam="1">  1        2 0.13006411E+00 0.17474258E+04</pdfrwt>
<pdfrwt beam="2">  1       -2 0.13891634E+00 0.17474258E+04</pdfrwt>
<totfact> 0.11106269E+01</totfact>
</mgrwt>
</event>
<event>
12    1  0.1519630E-007  0.2576738E+04  0.7818608E-02  0.8376146E-01
         -2   -1    0    0    0  501 -0.00000000000E+00  0.00000000000E+00  0.49875184877E+03  0.49875184877E+03  0.00000000000E+00 0.  1.
          2   -1    0    0  501    0  0.00000000000E+00 -0.00000000000E+00 -0.33280974109E+04  0.33280974109E+04  0.00000000000E+00 0. -1.
         23    2    1    2    0    0 -0.75532631254E+03  0.43732815500E+03 -0.20045274556E+03  0.90010712122E+03  0.90762177708E+02 0.  0.
        254    2    1    2    0    0  0.75532631254E+03 -0.43732815500E+03 -0.26288928165E+04  0.29267421384E+04  0.94497002617E+03 0.  0.
        -24    2    4    4    0    0  0.86960969427E+03 -0.59403555585E+03 -0.23632465791E+04  0.25885776068E+04  0.81855792878E+02 0.  0.
         24    2    4    4    0    0 -0.11428338173E+03  0.15670740085E+03 -0.26564623746E+03  0.33816453164E+03  0.78545694718E+02 0.  0.
         13    1    3    3    0    0 -0.46709414700E+03  0.22985353037E+03 -0.90959553160E+02  0.52847254223E+03  0.00000000000E+00 0.  1.
        -13    1    3    3    0    0 -0.28823216554E+03  0.20747462463E+03 -0.10949319241E+03  0.37163457899E+03  0.00000000000E+00 0. -1.
          4    1    6    6  502    0 -0.95847175304E+02  0.16017262459E+03 -0.25667557349E+03  0.31737091975E+03  0.00000000000E+00 0. -1.
          1    1    5    5  503    0  0.71380641457E+03 -0.52361859170E+03 -0.19695482788E+04  0.21593555634E+04  0.00000000000E+00 0. -1.
         -2    1    5    5    0  503  0.15580327970E+03 -0.70416964154E+02 -0.39369830032E+03  0.42922204333E+03  0.00000000000E+00 0.  1.
         -3    1    6    6    0  502 -0.18436206426E+02 -0.34652237400E+01 -0.89706639779E+01  0.20793611884E+02  0.00000000000E+00 0.  1.
<mgrwt>
<rscale>  0 0.25767380E+04</rscale>
<asrwt>0</asrwt>
<pdfrwt beam="1">  1        2 0.51201500E+00 0.25767380E+04</pdfrwt>
<pdfrwt beam="2">  1       -2 0.76731051E-01 0.25767380E+04</pdfrwt>
<totfact> 0.14353813E+00</totfact>
</mgrwt>
</event>
<event>
12    1  0.1519630E-007  0.4144210E+04  0.7818608E-02  0.7976070E-01
         -1   -1    0    0    0  501 -0.00000000000E+00  0.00000000000E+00  0.13005051620E+04  0.13005051620E+04  0.00000000000E+00 0.  1.
          1   -1    0    0  501    0  0.00000000000E+00 -0.00000000000E+00 -0.33015008587E+04  0.33015008587E+04  0.00000000000E+00 0. -1.
         23    2    1    2    0    0  0.81391605963E+03 -0.17413149739E+04 -0.14431823083E+04  0.24068839887E+04  0.12521249869E+03 0.  0.
        254    2    1    2    0    0 -0.81391605963E+03  0.17413149739E+04 -0.55781338836E+03  0.21951220320E+04  0.90153633794E+03 0.  0.
        -24    2    4    4    0    0 -0.33542936784E+03  0.66629392215E+03  0.22080434637E+03  0.78192842061E+03  0.78721306401E+02 0.  0.
         24    2    4    4    0    0 -0.47848669179E+03  0.10750210517E+04 -0.77861773473E+03  0.14131936114E+04  0.79062193684E+02 0.  0.
         13    1    3    3    0    0  0.20081398627E+02 -0.14348496291E+02 -0.10984546778E+02  0.27014851185E+02  0.00000000000E+00 0. -1.
        -13    1    3    3    0    0  0.79383466101E+03 -0.17269664776E+04 -0.14321977615E+04  0.23798691375E+04  0.00000000000E+00 0.  1.
          4    1    6    6  502    0 -0.30327546259E+03  0.58552669537E+03 -0.42976641457E+03  0.78709382433E+03  0.00000000000E+00 0. -1.
          3    1    5    5  503    0 -0.26391465398E+03  0.45428013658E+03  0.17300544997E+03  0.55312952623E+03  0.00000000000E+00 0. -1.
         -4    1    5    5    0  503 -0.71514713863E+02  0.21201378557E+03  0.47798896403E+02  0.22879889438E+03  0.00000000000E+00 0.  1.
         -3    1    6    6    0  502 -0.17521122920E+03  0.48949435637E+03 -0.34885132016E+03  0.62609978704E+03  0.00000000000E+00 0.  1.
<mgrwt>
<rscale>  0 0.41442099E+04</rscale>
<asrwt>0</asrwt>
<pdfrwt beam="1">  1        1 0.50792321E+00 0.41442099E+04</pdfrwt>
<pdfrwt beam="2">  1       -1 0.20007772E+00 0.41442099E+04</pdfrwt>
<totfact> 0.41371819E-02</totfact>
</mgrwt>
</event>
<event>
12    1  0.1519630E-007  0.2381570E+04  0.7818608E-02  0.8446436E-01
         -2   -1    0    0    0  501 -0.00000000000E+00  0.00000000000E+00  0.59187808276E+03  0.59187808276E+03  0.00000000000E+00 0.  1.
          2   -1    0    0  501    0  0.00000000000E+00 -0.00000000000E+00 -0.23957116470E+04  0.23957116470E+04  0.00000000000E+00 0. -1.
         23    2    1    2    0    0  0.37929767272E+02  0.37339865432E+03  0.41418978549E+03  0.56618733350E+03  0.90275666233E+02 0.  0.
        254    2    1    2    0    0 -0.37929767272E+02 -0.37339865432E+03 -0.22180233497E+04  0.24214023962E+04  0.89593345867E+03 0.  0.
        -24    2    4    4    0    0  0.11142929647E+03  0.98424111015E+02 -0.16698614355E+04  0.16782469288E+04  0.77277076246E+02 0.  0.
         24    2    4    4    0    0 -0.14935906374E+03 -0.47182276533E+03 -0.54816191422E+03  0.74315546745E+03  0.82907857259E+02 0.  0.
         11    1    3    3    0    0  0.63780570857E+02  0.32453831036E+03  0.35528376940E+03  0.48540666756E+03  0.00000000000E+00 0.  1.
        -11    1    3    3    0    0 -0.25850803585E+02  0.48860343959E+02  0.58906016091E+02  0.80780665939E+02  0.00000000000E+00 0. -1.
          4    1    6    6  502    0 -0.11040753099E+02 -0.88985636216E+01 -0.37813965904E+02  0.40385377068E+02  0.00000000000E+00 0. -1.
          1    1    5    5  503    0  0.40486565696E+02  0.42778640023E+02 -0.31984259388E+03  0.32522063111E+03  0.00000000000E+00 0. -1.
         -2    1    5    5    0  503  0.70942730769E+02  0.55645470993E+02 -0.13500188416E+04  0.13530262977E+04  0.00000000000E+00 0.  1.
         -3    1    6    6    0  502 -0.13831831064E+03 -0.46292420171E+03 -0.51034794831E+03  0.70277009038E+03  0.00000000000E+00 0.  1.
<mgrwt>
<rscale>  0 0.23815703E+04</rscale>
<asrwt>0</asrwt>
<pdfrwt beam="1">  1        2 0.36857101E+00 0.23815703E+04</pdfrwt>
<pdfrwt beam="2">  1       -2 0.91058169E-01 0.23815703E+04</pdfrwt>
<totfact> 0.37031790E+00</totfact>
</mgrwt>
</event>
<event>
12    1  0.1519630E-007  0.2048325E+04  0.7818608E-02  0.8584354E-01
          2   -1    0    0  501    0  0.00000000000E+00  0.00000000000E+00  0.21144797167E+04  0.21144797167E+04  0.00000000000E+00 0. -1.
         -2   -1    0    0    0  501 -0.00000000000E+00 -0.00000000000E+00 -0.49606020567E+03  0.49606020567E+03  0.00000000000E+00 0.  1.
         23    2    1    2    0    0 -0.22970674005E+03  0.64602674221E+03  0.78933520945E+02  0.69612328418E+03  0.90782090580E+02 0.  0.
        254    2    1    2    0    0  0.22970674005E+03 -0.64602674221E+03  0.15394859900E+04  0.19144166382E+04  0.90821705161E+03 0.  0.
        -24    2    4    4    0    0  0.55848998435E+03 -0.49196384924E+03  0.86108631856E+03  0.11409411361E+04  0.79608646223E+02 0.  0.
         24    2    4    4    0    0 -0.32878324429E+03 -0.15406289297E+03  0.67839967148E+03  0.77347550201E+03  0.78768275547E+02 0.  0.
         13    1    3    3    0    0 -0.16303326263E+03  0.42594268243E+03  0.94017134053E+02  0.46566751544E+03  0.00000000000E+00 0.  1.
        -13    1    3    3    0    0 -0.66673477421E+02  0.22008405977E+03 -0.15083613108E+02  0.23045576873E+03  0.00000000000E+00 0. -1.
          2    1    6    6  502    0 -0.19337454162E+03 -0.12409880841E+03  0.37348607617E+03  0.43850436336E+03  0.00000000000E+00 0. -1.
          1    1    5    5  503    0  0.55925822288E+03 -0.49408960089E+03  0.85831366560E+03  0.11373639005E+04  0.00000000000E+00 0. -1.
         -2    1    5    5    0  503 -0.76823853534E+00  0.21257516479E+01  0.27726529648E+01  0.35772356616E+01  0.00000000000E+00 0.  1.
         -1    1    6    6    0  502 -0.13540870267E+03 -0.29964084552E+02  0.30491359531E+03  0.33497113865E+03  0.00000000000E+00 0.  1.
<mgrwt>
<rscale>  0 0.20483254E+04</rscale>
<asrwt>0</asrwt>
<pdfrwt beam="1">  1        2 0.32530457E+00 0.20483254E+04</pdfrwt>
<pdfrwt beam="2">  1       -2 0.76316956E-01 0.20483254E+04</pdfrwt>
<totfact> 0.81983859E+00</totfact>
</mgrwt>
</event>
<event>
12    1  0.1519630E-007  0.1399610E+04  0.7818608E-02  0.8954101E-01
         -1   -1    0    0    0  501 -0.00000000000E+00  0.00000000000E+00  0.46877040958E+03  0.46877040958E+03  0.00000000000E+00 0.  1.
          1   -1    0    0  501    0  0.00000000000E+00 -0.00000000000E+00 -0.10447057699E+04  0.10447057699E+04  0.00000000000E+00 0. -1.
         23    2    1    2    0    0  0.30269448183E+03  0.12662871926E+03 -0.44089755243E+03  0.55700396466E+03  0.90575841319E+02 0.  0.
        254    2    1    2    0    0 -0.30269448183E+03 -0.12662871926E+03 -0.13503780787E+03  0.95647221481E+03  0.88822581942E+03 0.  0.
        -24    2    4    4    0    0  0.11292758921E+02 -0.13481700648E+03 -0.46687360963E+03  0.49262619893E+03  0.80040320224E+02 0.  0.
         24    2    4    4    0    0 -0.31398724075E+03  0.81882872277E+01  0.33183580176E+03  0.46384601588E+03  0.79894253347E+02 0.  0.
         13    1    3    3    0    0  0.21633666623E+03  0.71943316974E+02 -0.23663370056E+03  0.32859230401E+03  0.00000000000E+00 0. -1.
        -13    1    3    3    0    0  0.86357815598E+02  0.54685402282E+02 -0.20426385187E+03  0.22841166065E+03  0.00000000000E+00 0.  1.
          4    1    6    6  502    0 -0.13565757079E+03  0.43154581301E+02  0.14792356472E+03  0.20529655477E+03  0.00000000000E+00 0. -1.
          3    1    5    5  503    0 -0.36460857970E+01 -0.12192566552E+03 -0.28936601573E+03  0.31402524248E+03  0.00000000000E+00 0. -1.
         -4    1    5    5    0  503  0.14938844718E+02 -0.12891340967E+02 -0.17750759390E+03  0.17860095646E+03  0.00000000000E+00 0.  1.
         -3    1    6    6    0  502 -0.17832966996E+03 -0.34966294073E+02  0.18391223704E+03  0.25854946111E+03  0.00000000000E+00 0.  1.
<mgrwt>
<rscale>  0 0.13996102E+04</rscale>
<asrwt>0</asrwt>
<pdfrwt beam="1">  1        1 0.16072396E+00 0.13996102E+04</pdfrwt>
<pdfrwt beam="2">  1       -1 0.72118525E-01 0.13996102E+04</pdfrwt>
<totfact> 0.26430003E+01</totfact>
</mgrwt>
</event>
<event>
12    1  0.1519630E-007  0.1567162E+04  0.7818608E-02  0.8840979E-01
         -1   -1    0    0    0  501 -0.00000000000E+00  0.00000000000E+00  0.22418992320E+03  0.22418992320E+03  0.00000000000E+00 0.  1.
          1   -1    0    0  501    0  0.00000000000E+00 -0.00000000000E+00 -0.27387468925E+04  0.27387468925E+04  0.00000000000E+00 0. -1.
         23    2    1    2    0    0 -0.24994879467E+03 -0.99134525122E+01 -0.17090071951E+04  0.17294966014E+04  0.88770630927E+02 0.  0.
        254    2    1    2    0    0  0.24994879467E+03  0.99134525122E+01 -0.80554977424E+03  0.12334402143E+04  0.89993980189E+03 0.  0.
        -24    2    4    4    0    0  0.45500095612E+02 -0.29004230166E+03  0.42190027047E+02  0.30800826590E+03  0.83031909697E+02 0.  0.
         24    2    4    4    0    0  0.20444869906E+03  0.29995575417E+03 -0.84773980129E+03  0.92543194842E+03  0.77387308170E+02 0.  0.
         13    1    3    3    0    0 -0.15122279348E+03 -0.75172993788E+01 -0.12975528003E+04  0.13063568091E+04  0.00000000000E+00 0. -1.
        -13    1    3    3    0    0 -0.98726001190E+02 -0.23961531334E+01 -0.41145439476E+03  0.42313979230E+03  0.00000000000E+00 0.  1.
          2    1    6    6  502    0  0.11811480850E+02 -0.27290657675E+01 -0.22134041824E+02  0.25236376271E+02  0.00000000000E+00 0. -1.
          1    1    5    5  503    0  0.45598041698E+00 -0.34788930996E+02 -0.21762886542E+02  0.41037798048E+02  0.00000000000E+00 0. -1.
         -2    1    5    5    0  503  0.45044115195E+02 -0.25525337066E+03  0.63952913589E+02  0.26697046785E+03  0.00000000000E+00 0.  1.
         -1    1    6    6    0  502  0.19263721821E+03  0.30268481994E+03 -0.82560575947E+03  0.90019557215E+03  0.00000000000E+00 0.  1.
<mgrwt>
<rscale>  0 0.15671623E+04</rscale>
<asrwt>0</asrwt>
<pdfrwt beam="1">  1        1 0.42134570E+00 0.15671623E+04</pdfrwt>
<pdfrwt beam="2">  1       -1 0.34490756E-01 0.15671623E+04</pdfrwt>
<totfact> 0.70865285E+00</totfact>
</mgrwt>
</event>
<event>
12    1  0.1858193E-007  0.1571957E+04  0.7818608E-02  0.8837963E-01
          2   -1    0    0  501    0  0.00000000000E+00  0.00000000000E+00  0.98559554934E+03  0.98559554934E+03  0.00000000000E+00 0. -1.
         -2   -1    0    0    0  501 -0.00000000000E+00 -0.00000000000E+00 -0.62679117713E+03  0.62679117713E+03  0.00000000000E+00 0.  1.
         23    2    1    2    0    0 -0.27589565801E+03 -0.10070201176E+03  0.54767812668E+03  0.62819482390E+03  0.91750188259E+02 0.  0.
        254    2    1    2    0    0  0.27589565801E+03  0.10070201176E+03 -0.18887375447E+03  0.98419190257E+03  0.92016362494E+03 0.  0.
        -24    2    4    4    0    0  0.30842605911E+03  0.38506020033E+03  0.16098934803E+03  0.52503690253E+03  0.79675510864E+02 0.  0.
         24    2    4    4    0    0 -0.32530401093E+02 -0.28435818857E+03 -0.34986310250E+03  0.45915500003E+03  0.80630745791E+02 0.  0.
         13    1    3    3    0    0 -0.49556538777E+02 -0.43987597120E+02  0.68949681778E+02  0.95628540997E+02  0.00000000000E+00 0.  1.
        -13    1    3    3    0    0 -0.22633911924E+03 -0.56714414640E+02  0.47872844490E+03  0.53256628290E+03  0.00000000000E+00 0. -1.
          2    1    6    6  502    0 -0.34258160337E+02 -0.20253465329E+03 -0.29911954086E+03  0.36285865989E+03  0.00000000000E+00 0. -1.
          3    1    5    5  503    0  0.24882582112E+03  0.30242023139E+03  0.16024606442E+03  0.42314428600E+03  0.00000000000E+00 0. -1.
         -2    1    5    5    0  503  0.59600237984E+02  0.82639968935E+02  0.74328360661E+00  0.10189261653E+03  0.00000000000E+00 0.  1.
         -1    1    6    6    0  502  0.17277592442E+01 -0.81823535281E+02 -0.50743561636E+02  0.96296340145E+02  0.00000000000E+00 0.  1.
<mgrwt>
<rscale>  0 0.15719575E+04</rscale>
<asrwt>0</asrwt>
<pdfrwt beam="1">  1        2 0.15163008E+00 0.15719575E+04</pdfrwt>
<pdfrwt beam="2">  1       -2 0.96429412E-01 0.15719575E+04</pdfrwt>
<totfact> 0.22260293E+01</totfact>
</mgrwt>
</event>
<event>
12    1  0.1519630E-007  0.1754286E+04  0.7818608E-02  0.8730995E-01
          2   -1    0    0  501    0  0.00000000000E+00  0.00000000000E+00  0.65006706487E+03  0.65006706487E+03  0.00000000000E+00 0.  1.
         -2   -1    0    0    0  501 -0.00000000000E+00 -0.00000000000E+00 -0.11835391151E+04  0.11835391151E+04  0.00000000000E+00 0. -1.
         23    2    1    2    0    0 -0.20541787561E+03 -0.35886491224E+03  0.31623928416E+03  0.52842094468E+03  0.90779298740E+02 0.  0.
        254    2    1    2    0    0  0.20541787561E+03  0.35886491224E+03 -0.84971133440E+03  0.13051852353E+04  0.90028807489E+03 0.  0.
        -24    2    4    4    0    0 -0.20402384014E+03 -0.19703426392E+03 -0.23709512132E+03  0.37823378785E+03  0.79990456992E+02 0.  0.
         24    2    4    4    0    0  0.40944171574E+03  0.55589917616E+03 -0.61261621308E+03  0.92695144746E+03  0.85287447908E+02 0.  0.
         13    1    3    3    0    0 -0.23925614638E+02 -0.32198460986E+02  0.70659255256E+02  0.81252115535E+02  0.00000000000E+00 0. -1.
        -13    1    3    3    0    0 -0.18149226097E+03 -0.32666645125E+03  0.24558002890E+03  0.44716882915E+03  0.00000000000E+00 0.  1.
          4    1    6    6  502    0  0.35973691525E+03  0.43700055743E+03 -0.48165423237E+03  0.74321661375E+03  0.00000000000E+00 0. -1.
          1    1    5    5  503    0 -0.19406315566E+03 -0.15447715264E+03 -0.18068499840E+03  0.30687255941E+03  0.00000000000E+00 0. -1.
         -2    1    5    5    0  503 -0.99606844821E+01 -0.42557111282E+02 -0.56410122925E+02  0.71361228440E+02  0.00000000000E+00 0.  1.
         -3    1    6    6    0  502  0.49704800492E+02  0.11889861873E+03 -0.13096198070E+03  0.18373483371E+03  0.00000000000E+00 0.  1.
<mgrwt>
<rscale>  0 0.17542860E+04</rscale>
<asrwt>0</asrwt>
<pdfrwt beam="1">  1        2 0.10001032E+00 0.17542860E+04</pdfrwt>
<pdfrwt beam="2">  1       -2 0.18208294E+00 0.17542860E+04</pdfrwt>
<totfact> 0.74666086E+00</totfact>
</mgrwt>
</event>
<event>
12    1  0.1519630E-007  0.1365942E+04  0.7818608E-02  0.8978847E-01
          2   -1    0    0  501    0  0.00000000000E+00  0.00000000000E+00  0.15645186292E+04  0.15645186292E+04  0.00000000000E+00 0. -1.
         -2   -1    0    0    0  501 -0.00000000000E+00 -0.00000000000E+00 -0.29814256445E+03  0.29814256445E+03  0.00000000000E+00 0.  1.
         23    2    1    2    0    0  0.27712156674E+03  0.24411508575E+02  0.82300547500E+03  0.87436565137E+03  0.98919138205E+02 0.  0.
        254    2    1    2    0    0 -0.27712156674E+03 -0.24411508575E+02  0.44337058972E+03  0.98829554226E+03  0.83830681408E+03 0.  0.
        -24    2    4    4    0    0 -0.28631802935E+03 -0.28059708366E+03 -0.64707506008E+02  0.41381766313E+03  0.79657138387E+02 0.  0.
         24    2    4    4    0    0  0.91964626099E+01  0.25618557509E+03  0.50807809573E+03  0.57447787913E+03  0.78522980370E+02 0.  0.
         11    1    3    3    0    0  0.22239766851E+03  0.58150392053E+02  0.61027804278E+03  0.65213609052E+03  0.00000000000E+00 0. -1.
        -11    1    3    3    0    0  0.54723898226E+02 -0.33738883478E+02  0.21272743222E+03  0.22222956085E+03  0.00000000000E+00 0.  1.
          4    1    6    6  502    0  0.99121565594E+01  0.16441409200E+03  0.40064786136E+03  0.43318466421E+03  0.00000000000E+00 0. -1.
          3    1    5    5  503    0 -0.16417707411E+03 -0.19336030231E+03 -0.71582565272E+02  0.26356475831E+03  0.00000000000E+00 0. -1.
         -4    1    5    5    0  503 -0.12214095524E+03 -0.87236781359E+02  0.68750592635E+01  0.15025290482E+03  0.00000000000E+00 0.  1.
         -3    1    6    6    0  502 -0.71569394953E+00  0.91771483091E+02  0.10743023437E+03  0.14129321492E+03  0.00000000000E+00 0.  1.
<mgrwt>
<rscale>  0 0.13659423E+04</rscale>
<asrwt>0</asrwt>
<pdfrwt beam="1">  1        2 0.24069517E+00 0.13659423E+04</pdfrwt>
<pdfrwt beam="2">  1       -2 0.45868088E-01 0.13659423E+04</pdfrwt>
<totfact> 0.51325259E+01</totfact>
</mgrwt>
</event>
<event>
12    1  0.1519630E-007  0.2778550E+04  0.7818608E-02  0.8309959E-01
          2   -1    0    0  501    0  0.00000000000E+00  0.00000000000E+00  0.22563429421E+04  0.22563429421E+04  0.00000000000E+00 0. -1.
         -2   -1    0    0    0  501 -0.00000000000E+00 -0.00000000000E+00 -0.85540430474E+03  0.85540430474E+03  0.00000000000E+00 0.  1.
         23    2    1    2    0    0 -0.11023723304E+04  0.13900065102E+03  0.99406942020E+01  0.11145385233E+04  0.86898599639E+02 0.  0.
        254    2    1    2    0    0  0.11023723304E+04 -0.13900065102E+03  0.13909979431E+04  0.19972087236E+04  0.90521901873E+03 0.  0.
        -24    2    4    4    0    0  0.10560216466E+04 -0.40796836241E+02  0.14910541126E+04  0.18294775480E+04  0.83064024336E+02 0.  0.
         24    2    4    4    0    0  0.46350683834E+02 -0.98203814780E+02 -0.10005616948E+03  0.16773117554E+03  0.79562145947E+02 0.  0.
         13    1    3    3    0    0 -0.36737350146E+03  0.86807224127E+02 -0.54127922708E+01  0.37752891552E+03  0.00000000000E+00 0. -1.
        -13    1    3    3    0    0 -0.73499882893E+03  0.52193426894E+02  0.15353486473E+02  0.73700960773E+03  0.00000000000E+00 0.  1.
          2    1    6    6  502    0 -0.13848067888E+02 -0.41319910451E+02 -0.87340409268E+01  0.44445331080E+02  0.00000000000E+00 0. -1.
          1    1    5    5  503    0  0.10054275271E+04 -0.52223770041E+02  0.13956700932E+04  0.17209029152E+04  0.00000000000E+00 0. -1.
         -2    1    5    5    0  503  0.50594119486E+02  0.11426933800E+02  0.95384019394E+02  0.10857463285E+03  0.00000000000E+00 0.  1.
         -1    1    6    6    0  502  0.60198751722E+02 -0.56883904329E+02 -0.91322128552E+02  0.12328584446E+03  0.00000000000E+00 0.  1.
<mgrwt>
<rscale>  0 0.27785503E+04</rscale>
<asrwt>0</asrwt>
<pdfrwt beam="1">  1        2 0.34712968E+00 0.27785503E+04</pdfrwt>
<pdfrwt beam="2">  1       -2 0.13160066E+00 0.27785503E+04</pdfrwt>
<totfact> 0.17611752E+00</totfact>
</mgrwt>
</event>
<event>
12    1  0.1519630E-007  0.1600645E+04  0.7818608E-02  0.8820152E-01
          1   -1    0    0  501    0  0.00000000000E+00  0.00000000000E+00  0.59784948861E+03  0.59784948861E+03  0.00000000000E+00 0. -1.
         -1   -1    0    0    0  501 -0.00000000000E+00 -0.00000000000E+00 -0.10713670749E+04  0.10713670749E+04  0.00000000000E+00 0.  1.
         23    2    1    2    0    0  0.13232034127E+03  0.46822533477E+03 -0.44070540100E+03  0.66298582809E+03  0.92657007003E+02 0.  0.
        254    2    1    2    0    0 -0.13232034127E+03 -0.46822533477E+03 -0.32812185301E+02  0.10062307354E+04  0.88015908595E+03 0.  0.
        -24    2    4    4    0    0  0.10641106275E+03 -0.15669247965E+03  0.37932339932E+03  0.43135338199E+03  0.79395537828E+02 0.  0.
         24    2    4    4    0    0 -0.23873140401E+03 -0.31153285512E+03 -0.41213558462E+03  0.57487735344E+03  0.81134630720E+02 0.  0.
         13    1    3    3    0    0  0.34854994982E+02  0.18957541039E+03 -0.11978479123E+03  0.22694074801E+03  0.00000000000E+00 0. -1.
        -13    1    3    3    0    0  0.97465346286E+02  0.27864992438E+03 -0.32092060978E+03  0.43604508008E+03  0.00000000000E+00 0.  1.
          2    1    6    6  502    0 -0.14662101596E+03 -0.20590235521E+03 -0.20846425007E+03  0.32764438918E+03  0.00000000000E+00 0. -1.
          1    1    5    5  503    0  0.94902323475E+02 -0.14964127028E+03  0.28166974734E+03  0.33277140403E+03  0.00000000000E+00 0. -1.
         -2    1    5    5    0  503  0.11508739271E+02 -0.70512093656E+01  0.97653651982E+02  0.98581977960E+02  0.00000000000E+00 0.  1.
         -1    1    6    6    0  502 -0.92110388050E+02 -0.10563049991E+03 -0.20367133455E+03  0.24723296426E+03  0.00000000000E+00 0.  1.
<mgrwt>
<rscale>  0 0.16006452E+04</rscale>
<asrwt>0</asrwt>
<pdfrwt beam="1">  1        1 0.91976845E-01 0.16006452E+04</pdfrwt>
<pdfrwt beam="2">  1       -1 0.16482570E+00 0.16006452E+04</pdfrwt>
<totfact> 0.88783029E+00</totfact>
</mgrwt>
</event>
<event>
12    1  0.1519630E-007  0.2213997E+04  0.7818608E-02  0.8512625E-01
         -1   -1    0    0    0  501 -0.00000000000E+00  0.00000000000E+00  0.11987498602E+04  0.11987498602E+04  0.00000000000E+00 0.  1.
          1   -1    0    0  501    0  0.00000000000E+00 -0.00000000000E+00 -0.10222694598E+04  0.10222694598E+04  0.00000000000E+00 0. -1.
         23    2    1    2    0    0  0.82572464003E+03  0.40501182259E+03  0.12523046285E+03  0.93197671951E+03  0.83917693440E+02 0.  0.
        254    2    1    2    0    0 -0.82572464003E+03 -0.40501182259E+03  0.51249937509E+02  0.12890426005E+04  0.90174747700E+03 0.  0.
        -24    2    4    4    0    0 -0.46692172668E+03 -0.35470211218E+03 -0.39278873569E+03  0.71031563266E+03  0.80223561842E+02 0.  0.
         24    2    4    4    0    0 -0.35880291335E+03 -0.50309710414E+02  0.44403867320E+03  0.57872696787E+03  0.80523055387E+02 0.  0.
         11    1    3    3    0    0  0.53574384910E+03  0.24638042558E+03  0.11794917633E+03  0.60136244824E+03  0.00000000000E+00 0.  1.
        -11    1    3    3    0    0  0.28998079094E+03  0.15863139701E+03  0.72812865166E+01  0.33061427127E+03  0.00000000000E+00 0. -1.
          4    1    6    6  502    0 -0.23547616606E+03 -0.68828393803E+02  0.31514755314E+03  0.39937996047E+03  0.00000000000E+00 0. -1.
          1    1    5    5  503    0 -0.13686799881E+03 -0.84059631681E+02 -0.70176363971E+02  0.17528146746E+03  0.00000000000E+00 0. -1.
         -2    1    5    5    0  503 -0.33005372788E+03 -0.27064248050E+03 -0.32261237172E+03  0.53503416519E+03  0.00000000000E+00 0.  1.
         -3    1    6    6    0  502 -0.12332674729E+03  0.18518683390E+02  0.12889112007E+03  0.17934700740E+03  0.00000000000E+00 0.  1.
<mgrwt>
<rscale>  0 0.22139967E+04</rscale>
<asrwt>0</asrwt>
<pdfrwt beam="1">  1        1 0.15727222E+00 0.22139967E+04</pdfrwt>
<pdfrwt beam="2">  1       -1 0.18442306E+00 0.22139967E+04</pdfrwt>
<totfact> 0.25615856E+00</totfact>
</mgrwt>
</event>
<event>
12    1  0.1519630E-007  0.3565418E+04  0.7818608E-02  0.8098459E-01
          1   -1    0    0  501    0  0.00000000000E+00  0.00000000000E+00  0.10515939662E+04  0.10515939662E+04  0.00000000000E+00 0. -1.
         -1   -1    0    0    0  501 -0.00000000000E+00 -0.00000000000E+00 -0.30221280742E+04  0.30221280742E+04  0.00000000000E+00 0.  1.
         23    2    1    2    0    0  0.14700888274E+04 -0.62194311967E+03 -0.14871691673E+04  0.21836586009E+04  0.93372096713E+02 0.  0.
        254    2    1    2    0    0 -0.14700888274E+04  0.62194311967E+03 -0.48336494074E+03  0.18900634395E+04  0.88922648124E+03 0.  0.
        -24    2    4    4    0    0 -0.77027981506E+03  0.13072520141E+03  0.17921332813E+03  0.80556655247E+03  0.79999885704E+02 0.  0.
         24    2    4    4    0    0 -0.69980901236E+03  0.49121791826E+03 -0.66257826887E+03  0.10844968871E+04  0.78075852141E+02 0.  0.
         13    1    3    3    0    0  0.12799203090E+04 -0.55111320989E+03 -0.12555997486E+04  0.18757538474E+04  0.00000000000E+00 0.  1.
        -13    1    3    3    0    0  0.19016851842E+03 -0.70829909774E+02 -0.23156941868E+03  0.30790475343E+03  0.00000000000E+00 0. -1.
          2    1    6    6  502    0 -0.24053414928E+03  0.13133290011E+03 -0.23673711885E+03  0.36214564896E+03  0.00000000000E+00 0. -1.
          3    1    5    5  503    0 -0.37274667756E+03  0.90867659747E+02  0.57749192773E+02  0.38798451836E+03  0.00000000000E+00 0. -1.
         -4    1    5    5    0  503 -0.39753313750E+03  0.39857541664E+02  0.12146413536E+03  0.41758203411E+03  0.00000000000E+00 0.  1.
         -1    1    6    6    0  502 -0.45927486308E+03  0.35988501815E+03 -0.42584115002E+03  0.72235123810E+03  0.00000000000E+00 0.  1.
<mgrwt>
<rscale>  0 0.35654182E+04</rscale>
<asrwt>0</asrwt>
<pdfrwt beam="1">  1        1 0.16178369E+00 0.35654182E+04</pdfrwt>
<pdfrwt beam="2">  1       -1 0.46494278E+00 0.35654182E+04</pdfrwt>
<totfact> 0.28587793E-02</totfact>
</mgrwt>
</event>
<event>
12    1  0.1519630E-007  0.2032880E+04  0.7818608E-02  0.8591401E-01
         -2   -1    0    0    0  501 -0.00000000000E+00  0.00000000000E+00  0.12470097898E+04  0.12470097898E+04  0.00000000000E+00 0.  1.
          2   -1    0    0  501    0  0.00000000000E+00 -0.00000000000E+00 -0.82850183476E+03  0.82850183476E+03  0.00000000000E+00 0. -1.
         23    2    1    2    0    0 -0.14576474191E+03  0.18814301821E+03 -0.62461976959E+03  0.67460194770E+03  0.91064680224E+02 0.  0.
        254    2    1    2    0    0  0.14576474191E+03 -0.18814301821E+03  0.10431277246E+04  0.14009096768E+04  0.90431593900E+03 0.  0.
        -24    2    4    4    0    0 -0.33221957383E+03  0.10429671225E+03  0.29958810558E+03  0.46653967022E+03  0.81600131491E+02 0.  0.
         24    2    4    4    0    0  0.47798431575E+03 -0.29243973046E+03  0.74353961904E+03  0.93437000662E+03  0.78779071770E+02 0.  0.
         13    1    3    3    0    0  0.14126729379E+01  0.54951174381E+02 -0.16612866994E+03  0.17498674860E+03  0.00000000000E+00 0.  1.
        -13    1    3    3    0    0 -0.14717741485E+03  0.13319184383E+03 -0.45849109965E+03  0.49961519910E+03  0.00000000000E+00 0. -1.
          4    1    6    6  502    0  0.28720530286E+03 -0.13087691892E+03  0.40132454200E+03  0.51056541393E+03  0.00000000000E+00 0. -1.
          1    1    5    5  503    0 -0.30669121370E+03  0.94489793603E+02  0.23922418082E+03  0.40026994684E+03  0.00000000000E+00 0. -1.
         -2    1    5    5    0  503 -0.25528360138E+02  0.98069186440E+01  0.60363924756E+02  0.66269723378E+02  0.00000000000E+00 0.  1.
         -3    1    6    6    0  502  0.19077901289E+03 -0.16156281155E+03  0.34221507704E+03  0.42380459269E+03  0.00000000000E+00 0.  1.
<mgrwt>
<rscale>  0 0.20328796E+04</rscale>
<asrwt>0</asrwt>
<pdfrwt beam="1">  1        2 0.12746182E+00 0.20328796E+04</pdfrwt>
<pdfrwt beam="2">  1       -2 0.19184766E+00 0.20328796E+04</pdfrwt>
<totfact> 0.45852126E+00</totfact>
</mgrwt>
</event>
<event>
12    1  0.1519630E-007  0.2640193E+04  0.7818608E-02  0.8354675E-01
         -1   -1    0    0    0  501 -0.00000000000E+00  0.00000000000E+00  0.14483403968E+04  0.14483403968E+04  0.00000000000E+00 0.  1.
          1   -1    0    0  501    0  0.00000000000E+00 -0.00000000000E+00 -0.12032079823E+04  0.12032079823E+04  0.00000000000E+00 0. -1.
         23    2    1    2    0    0  0.48632493395E+03  0.58437565703E+03  0.99747580246E+03  0.12575492927E+04  0.92007592588E+02 0.  0.
        254    2    1    2    0    0 -0.48632493395E+03 -0.58437565703E+03 -0.75234338795E+03  0.13939990864E+04  0.89398323783E+03 0.  0.
        -24    2    4    4    0    0  0.23651029541E+03 -0.29300725855E+02 -0.10138517584E+03  0.27119455170E+03  0.80447987078E+02 0.  0.
         24    2    4    4    0    0 -0.72283522936E+03 -0.55507493117E+03 -0.65095821211E+03  0.11228045347E+04  0.79652251371E+02 0.  0.
         11    1    3    3    0    0  0.27832001573E+03  0.33839800088E+03  0.49919202089E+03  0.66420472136E+03  0.00000000000E+00 0.  1.
        -11    1    3    3    0    0  0.20800491822E+03  0.24597765615E+03  0.49828378158E+03  0.59334457131E+03  0.00000000000E+00 0. -1.
          4    1    6    6  502    0 -0.34653216594E+02 -0.88728271461E+01 -0.32843509028E+02  0.48562007446E+02  0.00000000000E+00 0. -1.
          1    1    5    5  503    0  0.37400039500E+02  0.13000059306E+02 -0.45073737495E+02  0.59995052366E+02  0.00000000000E+00 0. -1.
         -2    1    5    5    0  503  0.19911025591E+03 -0.42300785161E+02 -0.56311438345E+02  0.21119949934E+03  0.00000000000E+00 0.  1.
         -3    1    6    6    0  502 -0.68818201276E+03 -0.54620210403E+03 -0.61811470308E+03  0.10742425272E+04  0.00000000000E+00 0.  1.
<mgrwt>
<rscale>  0 0.26401930E+04</rscale>
<asrwt>0</asrwt>
<pdfrwt beam="1">  1        1 0.18510892E+00 0.26401930E+04</pdfrwt>
<pdfrwt beam="2">  1       -1 0.22282160E+00 0.26401930E+04</pdfrwt>
<totfact> 0.98286601E-01</totfact>
</mgrwt>
</event>
<event>
12    1  0.1519630E-007  0.1470207E+04  0.7818608E-02  0.8904510E-01
         -2   -1    0    0    0  501 -0.00000000000E+00  0.00000000000E+00  0.38819401874E+03  0.38819401874E+03  0.00000000000E+00 0.  1.
          2   -1    0    0  501    0  0.00000000000E+00 -0.00000000000E+00 -0.13920285363E+04  0.13920285363E+04  0.00000000000E+00 0. -1.
         23    2    1    2    0    0  0.25098477634E+02 -0.34661469775E+03 -0.64439749211E+03  0.74076439691E+03  0.11274786749E+03 0.  0.
        254    2    1    2    0    0 -0.25098477634E+02  0.34661469775E+03 -0.35943702550E+03  0.10394581582E+04  0.91132135112E+03 0.  0.
        -24    2    4    4    0    0 -0.19234516803E+03 -0.99960603004E+02 -0.48819478468E+03  0.53964631496E+03  0.76780281582E+02 0.  0.
         24    2    4    4    0    0  0.16724669040E+03  0.44657530075E+03  0.12875775919E+03  0.49981184321E+03  0.76369911412E+02 0.  0.
         13    1    3    3    0    0 -0.75283525421E+01 -0.11498809280E+03 -0.11900624423E+03  0.16565453131E+03  0.00000000000E+00 0.  1.
        -13    1    3    3    0    0  0.32626830176E+02 -0.23162660495E+03 -0.52539124788E+03  0.57510986561E+03  0.00000000000E+00 0. -1.
          2    1    6    6  502    0  0.84651520473E+02  0.27320171593E+03  0.11155262083E+03  0.30700007284E+03  0.00000000000E+00 0. -1.
          1    1    5    5  503    0 -0.14879423191E+03 -0.10999277242E+03 -0.38318469701E+03  0.42552161573E+03  0.00000000000E+00 0. -1.
         -2    1    5    5    0  503 -0.43550936125E+02  0.10032169415E+02 -0.10501008767E+03  0.11412469923E+03  0.00000000000E+00 0.  1.
         -1    1    6    6    0  502  0.82595169923E+02  0.17337358482E+03  0.17205138355E+02  0.19281177037E+03  0.00000000000E+00 0.  1.
<mgrwt>
<rscale>  0 0.14702070E+04</rscale>
<asrwt>0</asrwt>
<pdfrwt beam="1">  1        2 0.21415824E+00 0.14702070E+04</pdfrwt>
<pdfrwt beam="2">  1       -2 0.59722157E-01 0.14702070E+04</pdfrwt>
<totfact> 0.37033460E+01</totfact>
</mgrwt>
</event>
<event>
12    1  0.1519630E-007  0.2467206E+04  0.7818608E-02  0.8414763E-01
          2   -1    0    0  501    0  0.00000000000E+00  0.00000000000E+00  0.21448326868E+04  0.21448326868E+04  0.00000000000E+00 0. -1.
         -2   -1    0    0    0  501 -0.00000000000E+00 -0.00000000000E+00 -0.70950793181E+03  0.70950793181E+03  0.00000000000E+00 0.  1.
         23    2    1    2    0    0 -0.52080781303E+03  0.18070718493E+03  0.16810364560E+04  0.17714827616E+04  0.91497232210E+02 0.  0.
        254    2    1    2    0    0  0.52080781303E+03 -0.18070718493E+03 -0.24571170108E+03  0.10828578569E+04  0.89906119564E+03 0.  0.
        -24    2    4    4    0    0  0.24390192394E+03 -0.40466439942E+03 -0.45579470083E+03  0.66209779329E+03  0.85925862859E+02 0.  0.
         24    2    4    4    0    0  0.27690588908E+03  0.22395721449E+03  0.21008299975E+03  0.42076006365E+03  0.77913150684E+02 0.  0.
         11    1    3    3    0    0 -0.40544866519E+03  0.10582468395E+03  0.11937060370E+04  0.12651172225E+04  0.00000000000E+00 0. -1.
        -11    1    3    3    0    0 -0.11535914784E+03  0.74882500984E+02  0.48733041903E+03  0.50636553917E+03  0.00000000000E+00 0.  1.
          4    1    6    6  502    0  0.26247358783E+03  0.18132288613E+03  0.19138807140E+03  0.37202119189E+03  0.00000000000E+00 0. -1.
          3    1    5    5  503    0  0.88801247493E+02 -0.19505398247E+03 -0.25428295191E+03  0.33255305932E+03  0.00000000000E+00 0. -1.
         -4    1    5    5    0  503  0.15510067645E+03 -0.20961041695E+03 -0.20151174892E+03  0.32954473396E+03  0.00000000000E+00 0.  1.
         -3    1    6    6    0  502  0.14432301250E+02  0.42634328363E+02  0.18694928354E+02  0.48738871761E+02  0.00000000000E+00 0.  1.
<mgrwt>
<rscale>  0 0.24672055E+04</rscale>
<asrwt>0</asrwt>
<pdfrwt beam="1">  1        2 0.32997426E+00 0.24672055E+04</pdfrwt>
<pdfrwt beam="2">  1       -2 0.10915507E+00 0.24672055E+04</pdfrwt>
<totfact> 0.33196310E+00</totfact>
</mgrwt>
</event>
<event>
12    1  0.1519630E-007  0.1394295E+04  0.7818608E-02  0.8957959E-01
         -2   -1    0    0    0  501 -0.00000000000E+00  0.00000000000E+00  0.58702842141E+03  0.58702842141E+03  0.00000000000E+00 0.  1.
          2   -1    0    0  501    0  0.00000000000E+00 -0.00000000000E+00 -0.82792339900E+03  0.82792339900E+03  0.00000000000E+00 0. -1.
         23    2    1    2    0    0  0.17663835256E+03 -0.27422481871E+03 -0.32560086897E+03  0.47161984370E+03  0.10004495142E+03 0.  0.
        254    2    1    2    0    0 -0.17663835256E+03  0.27422481871E+03  0.84705891386E+02  0.94333197671E+03  0.88107875440E+03 0.  0.
        -24    2    4    4    0    0 -0.12954400231E+02  0.14790047875E+03 -0.38640527821E+03  0.42297568015E+03  0.86931115652E+02 0.  0.
         24    2    4    4    0    0 -0.16368395233E+03  0.12632433997E+03  0.47111116960E+03  0.52035629656E+03  0.77940144509E+02 0.  0.
         13    1    3    3    0    0  0.35304509423E+02 -0.85163168777E+02 -0.15510686136E+03  0.18043644905E+03  0.00000000000E+00 0.  1.
        -13    1    3    3    0    0  0.14133384314E+03 -0.18906164994E+03 -0.17049400760E+03  0.29118339465E+03  0.00000000000E+00 0. -1.
          2    1    6    6  502    0 -0.16397145551E+03  0.99371123942E+02  0.43422432785E+03  0.47467043872E+03  0.00000000000E+00 0. -1.
          1    1    5    5  503    0 -0.22112547075E+02  0.11652941939E+03 -0.36529878958E+03  0.38407196720E+03  0.00000000000E+00 0. -1.
         -2    1    5    5    0  503  0.91581468441E+01  0.31371059355E+02 -0.21106488633E+02  0.38903712948E+02  0.00000000000E+00 0.  1.
         -1    1    6    6    0  502  0.28750317995E+00  0.26953216026E+02  0.36886841749E+02  0.45685857838E+02  0.00000000000E+00 0.  1.
<mgrwt>
<rscale>  0 0.13942949E+04</rscale>
<asrwt>0</asrwt>
<pdfrwt beam="1">  1        2 0.12737283E+00 0.13942949E+04</pdfrwt>
<pdfrwt beam="2">  1       -2 0.90312066E-01 0.13942949E+04</pdfrwt>
<totfact> 0.33591125E+01</totfact>
</mgrwt>
</event>
<event>
12    1  0.1519630E-007  0.2393828E+04  0.7818608E-02  0.8441818E-01
          1   -1    0    0  501    0  0.00000000000E+00  0.00000000000E+00  0.21934685737E+04  0.21934685737E+04  0.00000000000E+00 0. -1.
         -1   -1    0    0    0  501 -0.00000000000E+00 -0.00000000000E+00 -0.65312233494E+03  0.65312233494E+03  0.00000000000E+00 0.  1.
         23    2    1    2    0    0 -0.22506815665E+03 -0.50866746518E+03 -0.36003194131E+03  0.66903073119E+03  0.92632905827E+02 0.  0.
        254    2    1    2    0    0  0.22506815665E+03  0.50866746518E+03  0.19003781801E+04  0.21775601775E+04  0.90605343876E+03 0.  0.
        -24    2    4    4    0    0  0.31279546444E+03  0.51831710943E+03  0.19538684470E+04  0.20472224593E+04  0.83810864681E+02 0.  0.
         24    2    4    4    0    0 -0.87727307786E+02 -0.96496442470E+01 -0.53490266915E+02  0.13033771820E+03  0.79608516918E+02 0.  0.
         13    1    3    3    0    0 -0.11551471583E+03 -0.15498565047E+03 -0.13454813491E+03  0.23551518429E+03  0.00000000000E+00 0.  1.
        -13    1    3    3    0    0 -0.10955344082E+03 -0.35368181471E+03 -0.22548380641E+03  0.43351554690E+03  0.00000000000E+00 0. -1.
          4    1    6    6  502    0 -0.31624327735E+01  0.18220471581E+02  0.99593895416E+01  0.21004190194E+02  0.00000000000E+00 0. -1.
          3    1    5    5  503    0  0.67884799313E+02  0.16750629843E+03  0.49769233636E+03  0.52949444535E+03  0.00000000000E+00 0. -1.
         -4    1    5    5    0  503  0.24491066512E+03  0.35081081100E+03  0.14561761107E+04  0.15177280139E+04  0.00000000000E+00 0.  1.
         -3    1    6    6    0  502 -0.84564875013E+02 -0.27870115828E+02 -0.63449656457E+02  0.10933352801E+03  0.00000000000E+00 0.  1.
<mgrwt>
<rscale>  0 0.23938282E+04</rscale>
<asrwt>0</asrwt>
<pdfrwt beam="1">  1        1 0.33745670E+00 0.23938282E+04</pdfrwt>
<pdfrwt beam="2">  1       -1 0.10048036E+00 0.23938282E+04</pdfrwt>
<totfact> 0.18598798E+00</totfact>
</mgrwt>
</event>
<event>
12    1  0.1519630E-007  0.1143119E+04  0.7818608E-02  0.9164155E-01
         -3   -1    0    0    0  501 -0.00000000000E+00  0.00000000000E+00  0.34834842020E+03  0.34834842020E+03  0.00000000000E+00 0.  1.
          3   -1    0    0  501    0  0.00000000000E+00 -0.00000000000E+00 -0.93779724622E+03  0.93779724622E+03  0.00000000000E+00 0. -1.
         23    2    1    2    0    0 -0.79750147704E+02 -0.78294259287E+02 -0.31341157754E+03  0.34484629240E+03  0.90565287800E+02 0.  0.
        254    2    1    2    0    0  0.79750147704E+02  0.78294259287E+02 -0.27603724848E+03  0.94129937402E+03  0.89294897496E+03 0.  0.
        -24    2    4    4    0    0  0.84273024460E+02  0.25354940180E+02 -0.59539499460E+03  0.60722951361E+03  0.80546054927E+02 0.  0.
         24    2    4    4    0    0 -0.45228767560E+01  0.52939319107E+02  0.31935774611E+03  0.33406986041E+03  0.82403117102E+02 0.  0.
         13    1    3    3    0    0 -0.95047041471E+02 -0.68197075161E+02 -0.30038476935E+03  0.32235972268E+03  0.00000000000E+00 0. -1.
        -13    1    3    3    0    0  0.15296893766E+02 -0.10097184126E+02 -0.13026808190E+02  0.22486569720E+02  0.00000000000E+00 0.  1.
          4    1    6    6  502    0 -0.17533496950E+02  0.28502679499E+02  0.29589248560E+03  0.29777875896E+03  0.00000000000E+00 0. -1.
          1    1    5    5  503    0  0.79594033175E+02  0.57649205285E+00 -0.28784304095E+03  0.29864554020E+03  0.00000000000E+00 0. -1.
         -2    1    5    5    0  503  0.46789912853E+01  0.24778448127E+02 -0.30755195364E+03  0.30858397340E+03  0.00000000000E+00 0.  1.
         -3    1    6    6    0  502  0.13010620194E+02  0.24436639608E+02  0.23465260512E+02  0.36291101444E+02  0.00000000000E+00 0.  1.
<mgrwt>
<rscale>  0 0.11431189E+04</rscale>
<asrwt>0</asrwt>
<pdfrwt beam="1">  1        3 0.14427650E+00 0.11431189E+04</pdfrwt>
<pdfrwt beam="2">  1       -3 0.53592066E-01 0.11431189E+04</pdfrwt>
<totfact> 0.31932561E+00</totfact>
</mgrwt>
</event>
<event>
12    1  0.1678308E-007  0.3114227E+04  0.7818608E-02  0.8211844E-01
         -1   -1    0    0    0  501 -0.00000000000E+00  0.00000000000E+00  0.14206577806E+04  0.14206577806E+04  0.00000000000E+00 0.  1.
          1   -1    0    0  501    0  0.00000000000E+00 -0.00000000000E+00 -0.17066760298E+04  0.17066760298E+04  0.00000000000E+00 0. -1.
         23    2    1    2    0    0  0.68732357324E+03 -0.13719252214E+03 -0.13781565676E+04  0.15488250979E+04  0.91149200903E+02 0.  0.
        254    2    1    2    0    0 -0.68732357324E+03  0.13719252214E+03  0.10921383184E+04  0.15785087124E+04  0.89871473017E+03 0.  0.
        -24    2    4    4    0    0  0.65389692650E+01 -0.24517384003E+03  0.57206167663E+03  0.62767446658E+03  0.81041373179E+02 0.  0.
         24    2    4    4    0    0 -0.69386254250E+03  0.38236636217E+03  0.52007664174E+03  0.95083424583E+03  0.77180223829E+02 0.  0.
         13    1    3    3    0    0  0.33295315807E+03 -0.11180246762E+03 -0.70700669836E+03  0.78944035162E+03  0.00000000000E+00 0. -1.
        -13    1    3    3    0    0  0.35437041517E+03 -0.25390054523E+02 -0.67114986921E+03  0.75938474633E+03  0.00000000000E+00 0.  1.
          2    1    6    6  502    0 -0.61186481935E+03  0.35929304832E+03  0.48024411329E+03  0.85679896130E+03  0.00000000000E+00 0. -1.
          3    1    5    5  503    0  0.21686991203E+02 -0.23893372725E+03  0.55119224885E+03  0.60114270086E+03  0.00000000000E+00 0. -1.
         -4    1    5    5    0  503 -0.15148021938E+02 -0.62401127838E+01  0.20869427786E+02  0.26531765721E+02  0.00000000000E+00 0.  1.
         -1    1    6    6    0  502 -0.81997723151E+02  0.23073313844E+02  0.39832528450E+02  0.94035284529E+02  0.00000000000E+00 0.  1.
<mgrwt>
<rscale>  0 0.31142271E+04</rscale>
<asrwt>0</asrwt>
<pdfrwt beam="1">  1        1 0.26256554E+00 0.31142271E+04</pdfrwt>
<pdfrwt beam="2">  1       -1 0.21856274E+00 0.31142271E+04</pdfrwt>
<totfact> 0.44728396E-01</totfact>
</mgrwt>
</event>
<event>
12    1  0.1519630E-007  0.1906624E+04  0.7818608E-02  0.8651566E-01
         -3   -1    0    0    0  501 -0.00000000000E+00  0.00000000000E+00  0.14411749668E+04  0.14411749668E+04  0.00000000000E+00 0.  1.
          3   -1    0    0  501    0  0.00000000000E+00 -0.00000000000E+00 -0.63059942222E+03  0.63059942222E+03  0.00000000000E+00 0. -1.
         23    2    1    2    0    0 -0.33862356205E+03  0.11672403878E+02  0.10276818319E+04  0.10857950150E+04  0.89547224125E+02 0.  0.
        254    2    1    2    0    0  0.33862356205E+03 -0.11672403878E+02 -0.21710628729E+03  0.98597937398E+03  0.90012111638E+03 0.  0.
        -24    2    4    4    0    0  0.21410849007E+02 -0.33221868230E+03 -0.36972035517E+03  0.50331679116E+03  0.76203503292E+02 0.  0.
         24    2    4    4    0    0  0.31721271304E+03  0.32054627842E+03  0.15261406788E+03  0.48266258282E+03  0.79361786890E+02 0.  0.
         13    1    3    3    0    0 -0.49583558399E+02 -0.72304910428E+00  0.73073415288E+02  0.88310679340E+02  0.00000000000E+00 0. -1.
        -13    1    3    3    0    0 -0.28904000365E+03  0.12395452982E+02  0.95460841656E+03  0.99748433569E+03  0.00000000000E+00 0.  1.
          2    1    6    6  502    0  0.29436916305E+03  0.28415479094E+03  0.11358551550E+03  0.42461608389E+03  0.00000000000E+00 0. -1.
          3    1    5    5  503    0  0.36583748932E+02 -0.23395885468E+03 -0.29847140311E+03  0.38099907460E+03  0.00000000000E+00 0. -1.
         -2    1    5    5    0  503 -0.15172899925E+02 -0.98259827618E+02 -0.71248952058E+02  0.12231771656E+03  0.00000000000E+00 0.  1.
         -1    1    6    6    0  502  0.22843549990E+02  0.36391487483E+02  0.39028552378E+02  0.58046498931E+02  0.00000000000E+00 0.  1.
<mgrwt>
<rscale>  0 0.19066243E+04</rscale>
<asrwt>0</asrwt>
<pdfrwt beam="1">  1        3 0.97015296E-01 0.19066243E+04</pdfrwt>
<pdfrwt beam="2">  1       -3 0.22171922E+00 0.19066243E+04</pdfrwt>
<totfact> 0.24694419E-01</totfact>
</mgrwt>
</event>
<event>
12    1  0.1519630E-007  0.2039380E+04  0.7818608E-02  0.8588428E-01
          1   -1    0    0  501    0  0.00000000000E+00  0.00000000000E+00  0.16892339554E+04  0.16892339554E+04  0.00000000000E+00 0. -1.
         -1   -1    0    0    0  501 -0.00000000000E+00 -0.00000000000E+00 -0.61552599581E+03  0.61552599581E+03  0.00000000000E+00 0.  1.
         23    2    1    2    0    0 -0.92092213240E+02 -0.76392671080E+03  0.17209170680E+03  0.79387305142E+03  0.92487139708E+02 0.  0.
        254    2    1    2    0    0  0.92092213240E+02  0.76392671080E+03  0.90161625276E+03  0.15108868998E+04  0.93691107444E+03 0.  0.
        -24    2    4    4    0    0  0.46563622121E+03  0.42498181134E+03  0.25183948329E+03  0.68354526744E+03  0.79902295471E+02 0.  0.
         24    2    4    4    0    0 -0.37354400797E+03  0.33894489946E+03  0.64977676947E+03  0.82734163232E+03  0.88687968039E+02 0.  0.
         13    1    3    3    0    0 -0.46006684077E+02 -0.11962964752E+03  0.42708208900E+02  0.13509943987E+03  0.00000000000E+00 0. -1.
        -13    1    3    3    0    0 -0.46085529163E+02 -0.64429706328E+03  0.12938349790E+03  0.65877361155E+03  0.00000000000E+00 0.  1.
          4    1    6    6  502    0 -0.23372582731E+03  0.15899215778E+03  0.39175974434E+03  0.48309622838E+03  0.00000000000E+00 0. -1.
          3    1    5    5  503    0  0.27016517121E+03  0.29259959279E+03  0.13829958549E+03  0.42158097299E+03  0.00000000000E+00 0. -1.
         -4    1    5    5    0  503  0.19547105000E+03  0.13238221855E+03  0.11353989780E+03  0.26196429445E+03  0.00000000000E+00 0.  1.
         -3    1    6    6    0  502 -0.13981818065E+03  0.17995274168E+03  0.25801702512E+03  0.34424540394E+03  0.00000000000E+00 0.  1.
<mgrwt>
<rscale>  0 0.20393797E+04</rscale>
<asrwt>0</asrwt>
<pdfrwt beam="1">  1        1 0.25988214E+00 0.20393797E+04</pdfrwt>
<pdfrwt beam="2">  1       -1 0.94696308E-01 0.20393797E+04</pdfrwt>
<totfact> 0.48327408E+00</totfact>
</mgrwt>
</event>
<event>
12    1  0.1519630E-007  0.1056854E+04  0.7818608E-02  0.9248296E-01
          2   -1    0    0  501    0  0.00000000000E+00  0.00000000000E+00  0.14474659820E+04  0.14474659820E+04  0.00000000000E+00 0. -1.
         -2   -1    0    0    0  501 -0.00000000000E+00 -0.00000000000E+00 -0.19291315595E+03  0.19291315595E+03  0.00000000000E+00 0.  1.
         23    2    1    2    0    0 -0.37266232626E+02 -0.23653713751E+02 -0.19253795908E+02  0.10232716717E+03  0.90287707995E+02 0.  0.
        254    2    1    2    0    0  0.37266232626E+02  0.23653713751E+02  0.12738066220E+04  0.15380519708E+04  0.86085555375E+03 0.  0.
        -24    2    4    4    0    0 -0.63019790314E+02 -0.22663486188E+03  0.15653585821E+02  0.24898250876E+03  0.80077464543E+02 0.  0.
         24    2    4    4    0    0  0.10028602294E+03  0.25028857563E+03  0.12581530362E+04  0.12890694621E+04  0.77777619493E+02 0.  0.
         11    1    3    3    0    0 -0.67237064938E+02 -0.12667981989E+02 -0.15794982187E+02  0.70219528134E+02  0.00000000000E+00 0.  1.
        -11    1    3    3    0    0  0.29970832312E+02 -0.10985731761E+02 -0.34588137208E+01  0.32107639031E+02  0.00000000000E+00 0. -1.
          4    1    6    6  502    0  0.45870853615E+02  0.20271482110E+03  0.96632261735E+03  0.98842138519E+03  0.00000000000E+00 0. -1.
          3    1    5    5  503    0 -0.81700935543E+02 -0.18737442342E+03  0.62974112100E+01  0.20450886242E+03  0.00000000000E+00 0. -1.
         -4    1    5    5    0  503  0.18681145230E+02 -0.39260438460E+02  0.93561746112E+01  0.44473646337E+02  0.00000000000E+00 0.  1.
         -3    1    6    6    0  502  0.54415169324E+02  0.47573754526E+02  0.29183041883E+03  0.30064807687E+03  0.00000000000E+00 0.  1.
<mgrwt>
<rscale>  0 0.10568543E+04</rscale>
<asrwt>0</asrwt>
<pdfrwt beam="1">  1        2 0.22268707E+00 0.10568543E+04</pdfrwt>
<pdfrwt beam="2">  1       -2 0.29678948E-01 0.10568543E+04</pdfrwt>
<totfact> 0.14143713E+02</totfact>
</mgrwt>
</event>
<event>
12    1  0.1519630E-007  0.2896793E+04  0.7818608E-02  0.8273832E-01
          2   -1    0    0  501    0  0.00000000000E+00  0.00000000000E+00  0.50956329507E+04  0.50956329507E+04  0.00000000000E+00 0. -1.
         -2   -1    0    0    0  501 -0.00000000000E+00 -0.00000000000E+00 -0.41169601137E+03  0.41169601137E+03  0.00000000000E+00 0.  1.
         23    2    1    2    0    0  0.81781540231E+03  0.95476115190E+03  0.27633893501E+04  0.30372418825E+04  0.90148005227E+02 0.  0.
        254    2    1    2    0    0 -0.81781540231E+03 -0.95476115190E+03  0.19205475892E+04  0.24700870796E+04  0.91237944353E+03 0.  0.
        -24    2    4    4    0    0 -0.51104120793E+03 -0.10909412228E+04  0.15282844596E+04  0.19476728437E+04  0.80375672523E+02 0.  0.
         24    2    4    4    0    0 -0.30677419439E+03  0.13618007091E+03  0.39226312961E+03  0.52241423592E+03  0.79942810739E+02 0.  0.
         11    1    3    3    0    0  0.31004237705E+03  0.35237025852E+03  0.11374246311E+04  0.12304575840E+04  0.00000000000E+00 0.  1.
        -11    1    3    3    0    0  0.50777302526E+03  0.60239089339E+03  0.16259647191E+04  0.18067842985E+04  0.00000000000E+00 0. -1.
          4    1    6    6  502    0 -0.10233533483E+03  0.62633509965E+02  0.19501070269E+03  0.22896430178E+03  0.00000000000E+00 0. -1.
          3    1    5    5  503    0 -0.11434413431E+03 -0.24161876202E+03  0.28708713772E+03  0.39226678658E+03  0.00000000000E+00 0. -1.
         -4    1    5    5    0  503 -0.39669707361E+03 -0.84932246079E+03  0.12411973219E+04  0.15554060571E+04  0.00000000000E+00 0.  1.
         -3    1    6    6    0  502 -0.20443885955E+03  0.73546560944E+02  0.19725242691E+03  0.29344993414E+03  0.00000000000E+00 0.  1.
<mgrwt>
<rscale>  0 0.28967925E+04</rscale>
<asrwt>0</asrwt>
<pdfrwt beam="1">  1        2 0.78394348E+00 0.28967925E+04</pdfrwt>
<pdfrwt beam="2">  1       -2 0.63337852E-01 0.28967925E+04</pdfrwt>
<totfact> 0.51414254E-02</totfact>
</mgrwt>
</event>
<event>
12    1  0.1519630E-007  0.1476544E+04  0.7818608E-02  0.8900202E-01
         -1   -1    0    0    0  501 -0.00000000000E+00  0.00000000000E+00  0.80349205993E+03  0.80349205993E+03  0.00000000000E+00 0.  1.
          1   -1    0    0  501    0  0.00000000000E+00 -0.00000000000E+00 -0.67834601487E+03  0.67834601487E+03  0.00000000000E+00 0. -1.
         23    2    1    2    0    0 -0.39882192377E+03 -0.14424536987E+03 -0.13619993137E+03  0.45470043953E+03  0.91303969206E+02 0.  0.
        254    2    1    2    0    0  0.39882192377E+03  0.14424536987E+03  0.26134597643E+03  0.10271376353E+04  0.89824514961E+03 0.  0.
        -24    2    4    4    0    0  0.20480652191E+03  0.51927780418E+03  0.16359936256E+03  0.58642104851E+03  0.74362257788E+02 0.  0.
         24    2    4    4    0    0  0.19401540186E+03 -0.37503243431E+03  0.97746613874E+02  0.44071658676E+03  0.79908737826E+02 0.  0.
         13    1    3    3    0    0 -0.26785702717E+03 -0.12458417988E+03 -0.12818732618E+03  0.32202576833E+03  0.00000000000E+00 0. -1.
        -13    1    3    3    0    0 -0.13096489660E+03 -0.19661189991E+02 -0.80126051924E+01  0.13267467119E+03  0.00000000000E+00 0.  1.
          2    1    6    6  502    0  0.12481950518E+03 -0.29306041330E+03  0.46778558317E+02  0.32195115815E+03  0.00000000000E+00 0. -1.
          1    1    5    5  503    0  0.15681689126E+03  0.46309365941E+03  0.14877624417E+03  0.51105933667E+03  0.00000000000E+00 0. -1.
         -2    1    5    5    0  503  0.47989630649E+02  0.56184144770E+02  0.14823118385E+02  0.75361711843E+02  0.00000000000E+00 0.  1.
         -1    1    6    6    0  502  0.69195896679E+02 -0.81972021005E+02  0.50968055557E+02  0.11876542861E+03  0.00000000000E+00 0.  1.
<mgrwt>
<rscale>  0 0.14765441E+04</rscale>
<asrwt>0</asrwt>
<pdfrwt beam="1">  1        1 0.10436093E+00 0.14765441E+04</pdfrwt>
<pdfrwt beam="2">  1       -1 0.12361416E+00 0.14765441E+04</pdfrwt>
<totfact> 0.15937709E+01</totfact>
</mgrwt>
</event>
<event>
12    1  0.1519630E-007  0.2588957E+04  0.7818608E-02  0.8371962E-01
         -1   -1    0    0    0  501 -0.00000000000E+00  0.00000000000E+00  0.12468232007E+04  0.12468232007E+04  0.00000000000E+00 0.  1.
          1   -1    0    0  501    0  0.00000000000E+00 -0.00000000000E+00 -0.13439554904E+04  0.13439554904E+04  0.00000000000E+00 0. -1.
         23    2    1    2    0    0  0.85096818299E+02  0.97048709318E+03 -0.64451700014E+03  0.11725486069E+04  0.10188918307E+03 0.  0.
        254    2    1    2    0    0 -0.85096818299E+02 -0.97048709318E+03  0.54738471036E+03  0.14182300842E+04  0.87330400436E+03 0.  0.
        -24    2    4    4    0    0 -0.33151685666E+03 -0.46084010919E+03 -0.69142994693E+02  0.57741979167E+03  0.79723457062E+02 0.  0.
         24    2    4    4    0    0  0.24642003836E+03 -0.50964698399E+03  0.61652770506E+03  0.84081029252E+03  0.79954070001E+02 0.  0.
         13    1    3    3    0    0 -0.13749912033E+01  0.18584993220E+03 -0.81438653873E+02  0.20291461811E+03  0.00000000000E+00 0.  1.
        -13    1    3    3    0    0  0.86471809502E+02  0.78463716098E+03 -0.56307834627E+03  0.96963398882E+03  0.00000000000E+00 0. -1.
          2    1    6    6  502    0  0.32879000894E+02 -0.28893309548E+02  0.30711008053E+02  0.53469786347E+02  0.00000000000E+00 0. -1.
          3    1    5    5  503    0 -0.35454300929E+02 -0.85772771669E+02  0.89541471164E+01  0.93242439718E+02  0.00000000000E+00 0. -1.
         -4    1    5    5    0  503 -0.29606255573E+03 -0.37506733752E+03 -0.78097141810E+02  0.48417735195E+03  0.00000000000E+00 0.  1.
         -1    1    6    6    0  502  0.21354103746E+03 -0.48075367444E+03  0.58581669700E+03  0.78734050617E+03  0.00000000000E+00 0.  1.
<mgrwt>
<rscale>  0 0.25889572E+04</rscale>
<asrwt>0</asrwt>
<pdfrwt beam="1">  1        1 0.20676238E+00 0.25889572E+04</pdfrwt>
<pdfrwt beam="2">  1       -1 0.19181895E+00 0.25889572E+04</pdfrwt>
<totfact> 0.12731419E+00</totfact>
</mgrwt>
</event>
<event>
12    1  0.1519630E-007  0.1111955E+04  0.7818608E-02  0.9193617E-01
          1   -1    0    0  501    0  0.00000000000E+00  0.00000000000E+00  0.57679377274E+03  0.57679377274E+03  0.00000000000E+00 0. -1.
         -1   -1    0    0    0  501 -0.00000000000E+00 -0.00000000000E+00 -0.53591260326E+03  0.53591260326E+03  0.00000000000E+00 0.  1.
         23    2    1    2    0    0  0.81633515092E+02  0.82616251647E+02  0.13575029369E+03  0.20078081764E+03  0.91625971600E+02 0.  0.
        254    2    1    2    0    0 -0.81633515092E+02 -0.82616251647E+02 -0.94869124210E+02  0.91192555836E+03  0.89951019863E+03 0.  0.
        -24    2    4    4    0    0 -0.76656356902E+02 -0.38778123278E+03 -0.32829407874E+03  0.52000973229E+03  0.79891413736E+02 0.  0.
         24    2    4    4    0    0 -0.49771581898E+01  0.30516498113E+03  0.23342495453E+03  0.39191582608E+03  0.77203416489E+02 0.  0.
         11    1    3    3    0    0  0.47547034832E+02  0.60767068471E+02  0.14022000022E+03  0.16004688561E+03  0.00000000000E+00 0. -1.
        -11    1    3    3    0    0  0.34086480260E+02  0.21849183176E+02 -0.44697065288E+01  0.40733932028E+02  0.00000000000E+00 0.  1.
          2    1    6    6  502    0  0.22744026276E+02  0.28564825815E+02  0.32943936449E+02  0.49178683937E+02  0.00000000000E+00 0. -1.
          1    1    5    5  503    0 -0.76519328341E+02 -0.19269911292E+03 -0.15216122766E+03  0.25717930502E+03  0.00000000000E+00 0. -1.
         -2    1    5    5    0  503 -0.13702856047E+00 -0.19508211986E+03 -0.17613285108E+03  0.26283042727E+03  0.00000000000E+00 0.  1.
         -1    1    6    6    0  502 -0.27721184466E+02  0.27660015532E+03  0.20048101809E+03  0.34273714214E+03  0.00000000000E+00 0.  1.
<mgrwt>
<rscale>  0 0.11119551E+04</rscale>
<asrwt>0</asrwt>
<pdfrwt beam="1">  1        1 0.88737503E-01 0.11119551E+04</pdfrwt>
<pdfrwt beam="2">  1       -1 0.82448093E-01 0.11119551E+04</pdfrwt>
<totfact> 0.52813518E+01</totfact>
</mgrwt>
</event>
<event>
12    1  0.1519630E-007  0.1125091E+04  0.7818608E-02  0.9181076E-01
         -1   -1    0    0    0  501 -0.00000000000E+00  0.00000000000E+00  0.21961692647E+03  0.21961692647E+03  0.00000000000E+00 0.  1.
          1   -1    0    0  501    0  0.00000000000E+00 -0.00000000000E+00 -0.14409512599E+04  0.14409512599E+04  0.00000000000E+00 0. -1.
         23    2    1    2    0    0  0.38387106349E+02  0.68848672656E+02 -0.13134538215E+02  0.12038334523E+03  0.90032905392E+02 0.  0.
        254    2    1    2    0    0 -0.38387106349E+02 -0.68848672656E+02 -0.12081997952E+04  0.15401848412E+04  0.95195004600E+03 0.  0.
        -24    2    4    4    0    0 -0.23443647169E+03  0.65752456969E+02  0.46480059385E+02  0.26051820947E+03  0.80159195892E+02 0.  0.
         24    2    4    4    0    0  0.19604936534E+03 -0.13460112963E+03 -0.12546798546E+04  0.12796666317E+04  0.82294185329E+02 0.  0.
         11    1    3    3    0    0  0.41128254951E+02 -0.61450322950E+00 -0.27392218808E+02  0.49419071428E+02  0.00000000000E+00 0. -1.
        -11    1    3    3    0    0 -0.27411486024E+01  0.69463175886E+02  0.14257680594E+02  0.70964273798E+02  0.00000000000E+00 0.  1.
          2    1    6    6  502    0  0.17549018311E+02  0.10442380384E+02 -0.14229869199E+03  0.14375649236E+03  0.00000000000E+00 0. -1.
          1    1    5    5  503    0 -0.86951078874E+02 -0.15091854547E+01 -0.12838254270E+02  0.87906703560E+02  0.00000000000E+00 0. -1.
         -4    1    5    5    0  503 -0.14748539282E+03  0.67261642424E+02  0.59318313655E+02  0.17261150591E+03  0.00000000000E+00 0.  1.
         -1    1    6    6    0  502  0.17850034703E+03 -0.14504351001E+03 -0.11123811626E+04  0.11359101393E+04  0.00000000000E+00 0.  1.
<mgrwt>
<rscale>  0 0.11250907E+04</rscale>
<asrwt>0</asrwt>
<pdfrwt beam="1">  1        1 0.22168482E+00 0.11250907E+04</pdfrwt>
<pdfrwt beam="2">  1       -1 0.33787218E-01 0.11250907E+04</pdfrwt>
<totfact> 0.59110762E+01</totfact>
</mgrwt>
</event>
<event>
12    1  0.1519630E-007  0.1587531E+04  0.7818608E-02  0.8828245E-01
          2   -1    0    0  501    0  0.00000000000E+00  0.00000000000E+00  0.21575859190E+04  0.21575859190E+04  0.00000000000E+00 0. -1.
         -2   -1    0    0    0  501 -0.00000000000E+00 -0.00000000000E+00 -0.29202234438E+03  0.29202234438E+03  0.00000000000E+00 0.  1.
         23    2    1    2    0    0  0.85093795735E+02 -0.31398555949E+03 -0.12670684851E+02  0.33778591699E+03  0.90060500915E+02 0.  0.
        254    2    1    2    0    0 -0.85093795735E+02  0.31398555949E+03  0.18782342595E+04  0.21118223464E+04  0.90895643657E+03 0.  0.
        -24    2    4    4    0    0  0.34079596125E+03  0.38809286345E+03  0.11038530350E+04  0.12211343832E+04  0.76939592888E+02 0.  0.
         24    2    4    4    0    0 -0.42588975699E+03 -0.74107303960E+02  0.77438122445E+03  0.89068796322E+03  0.82369833291E+02 0.  0.
         11    1    3    3    0    0  0.42870390978E+02 -0.36001355601E+02 -0.81887788420E+01  0.56577593857E+02  0.00000000000E+00 0. -1.
        -11    1    3    3    0    0  0.42223404757E+02 -0.27798420389E+03 -0.44819060090E+01  0.28120832314E+03  0.00000000000E+00 0.  1.
          4    1    6    6  502    0 -0.80113406332E+02  0.15195287532E+02  0.17319746285E+03  0.19143253583E+03  0.00000000000E+00 0. -1.
          1    1    5    5  503    0  0.11922989768E+03  0.12933339697E+03  0.29488086554E+03  0.34336222992E+03  0.00000000000E+00 0. -1.
         -2    1    5    5    0  503  0.22156606357E+03  0.25875946648E+03  0.80897216947E+03  0.87777215324E+03  0.00000000000E+00 0.  1.
         -3    1    6    6    0  502 -0.34577635065E+03 -0.89302591492E+02  0.60118376159E+03  0.69925542738E+03  0.00000000000E+00 0.  1.
<mgrwt>
<rscale>  0 0.15875305E+04</rscale>
<asrwt>0</asrwt>
<pdfrwt beam="1">  1        2 0.33193629E+00 0.15875305E+04</pdfrwt>
<pdfrwt beam="2">  1       -2 0.44926516E-01 0.15875305E+04</pdfrwt>
<totfact> 0.24618512E+01</totfact>
</mgrwt>
</event>
<event>
12    1  0.1519630E-007  0.2537168E+04  0.7818608E-02  0.8389863E-01
         -2   -1    0    0    0  501 -0.00000000000E+00  0.00000000000E+00  0.58152603555E+03  0.58152603555E+03  0.00000000000E+00 0.  1.
          2   -1    0    0  501    0  0.00000000000E+00 -0.00000000000E+00 -0.27673830104E+04  0.27673830104E+04  0.00000000000E+00 0. -1.
         23    2    1    2    0    0 -0.63741573160E+03  0.85464400931E+02  0.23057776977E+03  0.68905652944E+03  0.89609230251E+02 0.  0.
        254    2    1    2    0    0  0.63741573160E+03 -0.85464400931E+02 -0.24164347446E+04  0.26598525165E+04  0.90667279428E+03 0.  0.
        -24    2    4    4    0    0  0.13167003941E+02 -0.39800869549E+03 -0.83068614865E+03  0.92542019083E+03  0.88197280968E+02 0.  0.
         24    2    4    4    0    0  0.62424872765E+03  0.31254429456E+03 -0.15857485960E+04  0.17344323257E+04  0.79287279517E+02 0.  0.
         11    1    3    3    0    0 -0.63991347737E+03  0.82651986746E+02  0.22738642035E+03  0.68412366835E+03  0.00000000000E+00 0.  1.
        -11    1    3    3    0    0  0.24977457745E+01  0.28124141855E+01  0.31913494149E+01  0.49328610961E+01  0.00000000000E+00 0. -1.
          4    1    6    6  502    0  0.32382421699E+03  0.16672120460E+03 -0.72958051873E+03  0.81544209904E+03  0.00000000000E+00 0. -1.
          3    1    5    5  503    0  0.10324732377E+01 -0.21774824062E+03 -0.55088060169E+03  0.59235529846E+03  0.00000000000E+00 0. -1.
         -4    1    5    5    0  503  0.12134530703E+02 -0.18026045487E+03 -0.27980554696E+03  0.33306489238E+03  0.00000000000E+00 0.  1.
         -3    1    6    6    0  502  0.30042451066E+03  0.14582308995E+03 -0.85616807724E+03  0.91899022663E+03  0.00000000000E+00 0.  1.
<mgrwt>
<rscale>  0 0.25371679E+04</rscale>
<asrwt>0</asrwt>
<pdfrwt beam="1">  1        2 0.42575123E+00 0.25371679E+04</pdfrwt>
<pdfrwt beam="2">  1       -2 0.89465544E-01 0.25371679E+04</pdfrwt>
<totfact> 0.23049203E+00</totfact>
</mgrwt>
</event>
<event>
12    1  0.1519630E-007  0.1493053E+04  0.7818608E-02  0.8889086E-01
          2   -1    0    0  501    0  0.00000000000E+00  0.00000000000E+00  0.23508281894E+04  0.23508281894E+04  0.00000000000E+00 0. -1.
         -2   -1    0    0    0  501 -0.00000000000E+00 -0.00000000000E+00 -0.23706626607E+03  0.23706626607E+03  0.00000000000E+00 0.  1.
         23    2    1    2    0    0 -0.35552800981E+03 -0.20126165864E+03  0.29528832192E+03  0.51243716180E+03  0.92142448069E+02 0.  0.
        254    2    1    2    0    0  0.35552800981E+03  0.20126165864E+03  0.18184736014E+04  0.20754572936E+04  0.91311024405E+03 0.  0.
        -24    2    4    4    0    0  0.12986565721E+03 -0.35790617479E+03  0.77928907287E+03  0.87111004477E+03  0.81113082338E+02 0.  0.
         24    2    4    4    0    0  0.22566235260E+03  0.55916783343E+03  0.10391845285E+04  0.12043472489E+04  0.83400528967E+02 0.  0.
         11    1    3    3    0    0 -0.17424806992E+03 -0.46269003128E+02  0.12898466854E+03  0.22167601413E+03  0.00000000000E+00 0. -1.
        -11    1    3    3    0    0 -0.18127993989E+03 -0.15499265551E+03  0.16630365337E+03  0.29076114767E+03  0.00000000000E+00 0.  1.
          4    1    6    6  502    0 -0.30470512629E+01  0.42130289437E+02  0.92584226608E+02  0.10176485064E+03  0.00000000000E+00 0. -1.
          3    1    5    5  503    0 -0.63606401160E+01 -0.28949043776E+02  0.33768130309E+02  0.44930963742E+02  0.00000000000E+00 0. -1.
         -4    1    5    5    0  503  0.13622629733E+03 -0.32895713101E+03  0.74552094256E+03  0.82617908103E+03  0.00000000000E+00 0.  1.
         -3    1    6    6    0  502  0.22870940386E+03  0.51703754399E+03  0.94660030192E+03  0.11025823982E+04  0.00000000000E+00 0.  1.
<mgrwt>
<rscale>  0 0.14930533E+04</rscale>
<asrwt>0</asrwt>
<pdfrwt beam="1">  1        2 0.36166586E+00 0.14930533E+04</pdfrwt>
<pdfrwt beam="2">  1       -2 0.36471735E-01 0.14930533E+04</pdfrwt>
<totfact> 0.29074590E+01</totfact>
</mgrwt>
</event>
<event>
12    1  0.1519630E-007  0.1749446E+04  0.7818608E-02  0.8733655E-01
          1   -1    0    0  501    0  0.00000000000E+00  0.00000000000E+00  0.19115763158E+04  0.19115763158E+04  0.00000000000E+00 0. -1.
         -1   -1    0    0    0  501 -0.00000000000E+00 -0.00000000000E+00 -0.40026663552E+03  0.40026663552E+03  0.00000000000E+00 0.  1.
         23    2    1    2    0    0 -0.39447643257E+03 -0.26574147429E+03 -0.54469996375E+01  0.48476048304E+03  0.93449821286E+02 0.  0.
        254    2    1    2    0    0  0.39447643257E+03  0.26574147429E+03  0.15167566799E+04  0.18270824683E+04  0.90080482506E+03 0.  0.
        -24    2    4    4    0    0  0.52725937146E+03  0.13701606780E+03  0.15294307040E+04  0.16255088994E+04  0.79655858506E+02 0.  0.
         24    2    4    4    0    0 -0.13278293889E+03  0.12872540649E+03 -0.12674024097E+02  0.20157356896E+03  0.79181649893E+02 0.  0.
         13    1    3    3    0    0 -0.24033103872E+03 -0.17922596400E+03  0.39442700840E+02  0.30238498804E+03  0.00000000000E+00 0.  1.
        -13    1    3    3    0    0 -0.15414539385E+03 -0.86515510299E+02 -0.44889700478E+02  0.18237549500E+03  0.00000000000E+00 0. -1.
          2    1    6    6  502    0 -0.12242653896E+03  0.73456410891E+02  0.42966601207E+01  0.14283754069E+03  0.00000000000E+00 0. -1.
          3    1    5    5  503    0  0.32922197963E+03  0.73532590594E+02  0.83368024093E+03  0.89934248086E+03  0.00000000000E+00 0. -1.
         -2    1    5    5    0  503  0.19803739183E+03  0.63483477209E+02  0.69575046311E+03  0.72616641850E+03  0.00000000000E+00 0.  1.
         -1    1    6    6    0  502 -0.10356399934E+02  0.55268995601E+02 -0.16970684218E+02  0.58736028271E+02  0.00000000000E+00 0.  1.
<mgrwt>
<rscale>  0 0.17494459E+04</rscale>
<asrwt>0</asrwt>
<pdfrwt beam="1">  1        1 0.29408866E+00 0.17494459E+04</pdfrwt>
<pdfrwt beam="2">  1       -1 0.61579483E-01 0.17494459E+04</pdfrwt>
<totfact> 0.86736124E+00</totfact>
</mgrwt>
</event>
<event>
12    1  0.1519630E-007  0.2926030E+04  0.7818608E-02  0.8265175E-01
          2   -1    0    0  501    0  0.00000000000E+00  0.00000000000E+00  0.23635467225E+04  0.23635467225E+04  0.00000000000E+00 0. -1.
         -2   -1    0    0    0  501 -0.00000000000E+00 -0.00000000000E+00 -0.90559363990E+03  0.90559363990E+03  0.00000000000E+00 0.  1.
         23    2    1    2    0    0  0.72765230120E+03 -0.40108602078E+03 -0.48546628711E+03  0.96604388173E+03  0.84943498829E+02 0.  0.
        254    2    1    2    0    0 -0.72765230120E+03  0.40108602078E+03  0.19434193697E+04  0.23030964807E+04  0.91489162486E+03 0.  0.
        -24    2    4    4    0    0 -0.77430836111E+03  0.38583467628E+03  0.88246180137E+03  0.12383901281E+04  0.80308423964E+02 0.  0.
         24    2    4    4    0    0  0.46656059910E+02  0.15251344500E+02  0.10609575683E+04  0.10647063526E+04  0.74560472092E+02 0.  0.
         11    1    3    3    0    0  0.12460191233E+03 -0.54558222049E+02 -0.47314771237E+02  0.14401709525E+03  0.00000000000E+00 0. -1.
        -11    1    3    3    0    0  0.60305038888E+03 -0.34652779873E+03 -0.43815151587E+03  0.82202678647E+03  0.00000000000E+00 0.  1.
          2    1    6    6  502    0 -0.16104985694E+02 -0.12737473595E+02  0.23598180952E+03  0.23687344347E+03  0.00000000000E+00 0. -1.
          1    1    5    5  503    0 -0.14985571520E+03  0.10456930623E+03  0.21342536481E+03  0.28096594372E+03  0.00000000000E+00 0. -1.
         -2    1    5    5    0  503 -0.62445264591E+03  0.28126537005E+03  0.66903643656E+03  0.95742418437E+03  0.00000000000E+00 0.  1.
         -1    1    6    6    0  502  0.62761045604E+02  0.27988818095E+02  0.82497575880E+03  0.82783290911E+03  0.00000000000E+00 0.  1.
<mgrwt>
<rscale>  0 0.29260300E+04</rscale>
<asrwt>0</asrwt>
<pdfrwt beam="1">  1        2 0.36362257E+00 0.29260300E+04</pdfrwt>
<pdfrwt beam="2">  1       -2 0.13932210E+00 0.29260300E+04</pdfrwt>
<totfact> 0.13064259E+00</totfact>
</mgrwt>
</event>
<event>
12    1  0.1519630E-007  0.1136406E+04  0.7818608E-02  0.9170417E-01
         -2   -1    0    0    0  501 -0.00000000000E+00  0.00000000000E+00  0.19607697663E+03  0.19607697663E+03  0.00000000000E+00 0.  1.
          2   -1    0    0  501    0  0.00000000000E+00 -0.00000000000E+00 -0.16465695605E+04  0.16465695605E+04  0.00000000000E+00 0. -1.
         23    2    1    2    0    0  0.96752475284E+02 -0.93578045680E+02 -0.49167761504E+03  0.51869695164E+03  0.95821492375E+02 0.  0.
        254    2    1    2    0    0 -0.96752475284E+02  0.93578045680E+02 -0.95881496879E+03  0.13239495854E+04  0.90299416848E+03 0.  0.
        -24    2    4    4    0    0 -0.17445303350E+03 -0.37079528926E+03 -0.57789376623E+03  0.71288374839E+03  0.79492302992E+02 0.  0.
         24    2    4    4    0    0  0.77700558213E+02  0.46437333494E+03 -0.38092120256E+03  0.61106583705E+03  0.81366600676E+02 0.  0.
         13    1    3    3    0    0  0.31606253881E+02  0.17696822459E+02 -0.10213195119E+03  0.10836543851E+03  0.00000000000E+00 0. -1.
        -13    1    3    3    0    0  0.65146221402E+02 -0.11127486814E+03 -0.38954566385E+03  0.41033151313E+03  0.00000000000E+00 0.  1.
          2    1    6    6  502    0 -0.12424623940E+02  0.71117868610E+02 -0.79939640096E+02  0.10771475560E+03  0.00000000000E+00 0. -1.
          3    1    5    5  503    0 -0.45472774469E+02 -0.37205709943E+02 -0.65221646684E+02  0.87783263020E+02  0.00000000000E+00 0. -1.
         -4    1    5    5    0  503 -0.12898025903E+03 -0.33358957932E+03 -0.51267211954E+03  0.62510048537E+03  0.00000000000E+00 0.  1.
         -1    1    6    6    0  502  0.90125182152E+02  0.39325546633E+03 -0.30098156246E+03  0.50335108145E+03  0.00000000000E+00 0.  1.
<mgrwt>
<rscale>  0 0.11364055E+04</rscale>
<asrwt>0</asrwt>
<pdfrwt beam="1">  1        2 0.25331839E+00 0.11364055E+04</pdfrwt>
<pdfrwt beam="2">  1       -2 0.30165689E-01 0.11364055E+04</pdfrwt>
<totfact> 0.10557616E+02</totfact>
</mgrwt>
</event>
<event>
12    1  0.1519630E-007  0.1910077E+04  0.7818608E-02  0.8649857E-01
          1   -1    0    0  501    0  0.00000000000E+00  0.00000000000E+00  0.15162903751E+04  0.15162903751E+04  0.00000000000E+00 0. -1.
         -1   -1    0    0    0  501 -0.00000000000E+00 -0.00000000000E+00 -0.60153277323E+03  0.60153277323E+03  0.00000000000E+00 0.  1.
         23    2    1    2    0    0  0.50028604408E+03 -0.49185038114E+03  0.92469086962E+02  0.71323557617E+03  0.89171361684E+02 0.  0.
        254    2    1    2    0    0 -0.50028604408E+03  0.49185038114E+03  0.82228851490E+03  0.14045875721E+04  0.89694198406E+03 0.  0.
        -24    2    4    4    0    0  0.83136134789E+02  0.51682071892E+03  0.26051784082E+03  0.59023766292E+03  0.80595787295E+02 0.  0.
         24    2    4    4    0    0 -0.58342217887E+03 -0.24970337775E+02  0.56177067407E+03  0.81434990923E+03  0.81083462252E+02 0.  0.
         13    1    3    3    0    0  0.63414289977E+02 -0.72304360829E+02 -0.17158544783E+02  0.97691905639E+02  0.00000000000E+00 0. -1.
        -13    1    3    3    0    0  0.43687175410E+03 -0.41954602031E+03  0.10962763174E+03  0.61554367053E+03  0.00000000000E+00 0.  1.
          2    1    6    6  502    0 -0.13574967902E+03 -0.40229866894E+02  0.13903691060E+03  0.19843810131E+03  0.00000000000E+00 0. -1.
          3    1    5    5  503    0  0.50792039428E+02  0.12256117256E+03  0.84245889152E+02  0.15715738013E+03  0.00000000000E+00 0. -1.
         -4    1    5    5    0  503  0.32344095361E+02  0.39425954636E+03  0.17627195167E+03  0.43308028279E+03  0.00000000000E+00 0.  1.
         -1    1    6    6    0  502 -0.44767249985E+03  0.15259529118E+02  0.42273376348E+03  0.61591180792E+03  0.00000000000E+00 0.  1.
<mgrwt>
<rscale>  0 0.19100768E+04</rscale>
<asrwt>0</asrwt>
<pdfrwt beam="1">  1        1 0.23327544E+00 0.19100768E+04</pdfrwt>
<pdfrwt beam="2">  1       -1 0.92543504E-01 0.19100768E+04</pdfrwt>
<totfact> 0.67650748E+00</totfact>
</mgrwt>
</event>
<event>
12    1  0.1519630E-007  0.1557467E+04  0.7818608E-02  0.8847112E-01
         -1   -1    0    0    0  501 -0.00000000000E+00  0.00000000000E+00  0.10049315872E+04  0.10049315872E+04  0.00000000000E+00 0.  1.
          1   -1    0    0  501    0  0.00000000000E+00 -0.00000000000E+00 -0.60345000473E+03  0.60345000473E+03  0.00000000000E+00 0. -1.
         23    2    1    2    0    0  0.95871712468E+02  0.49326012659E+03  0.18283881896E+03  0.54180948958E+03  0.87353028270E+02 0.  0.
        254    2    1    2    0    0 -0.95871712468E+02 -0.49326012659E+03  0.21864276348E+03  0.10665721023E+04  0.91502702347E+03 0.  0.
        -24    2    4    4    0    0 -0.21514892223E+03  0.13211589609E+03 -0.17130431252E+03  0.31560110854E+03  0.80716934344E+02 0.  0.
         24    2    4    4    0    0  0.11927720976E+03 -0.62537602268E+03  0.38994707600E+03  0.75097099377E+03  0.81095554084E+02 0.  0.
         13    1    3    3    0    0 -0.13497516455E+02  0.32972194768E+02  0.23124796586E+02  0.42474754802E+02  0.00000000000E+00 0.  1.
        -13    1    3    3    0    0  0.10936922892E+03  0.46028793182E+03  0.15971402237E+03  0.49933473478E+03  0.00000000000E+00 0. -1.
          4    1    6    6  502    0  0.11731019895E+03 -0.50876679315E+03  0.34592095711E+03  0.62631193599E+03  0.00000000000E+00 0. -1.
          1    1    5    5  503    0 -0.17665834710E+03  0.13722756191E+03 -0.16043551507E+03  0.27528009344E+03  0.00000000000E+00 0. -1.
         -2    1    5    5    0  503 -0.38490575125E+02 -0.51116658196E+01 -0.10868797453E+02  0.40321015104E+02  0.00000000000E+00 0.  1.
         -3    1    6    6    0  502  0.19670108062E+01 -0.11660922953E+03  0.44026118890E+02  0.12465905779E+03  0.00000000000E+00 0.  1.
<mgrwt>
<rscale>  0 0.15574671E+04</rscale>
<asrwt>0</asrwt>
<pdfrwt beam="1">  1        1 0.92838463E-01 0.15574671E+04</pdfrwt>
<pdfrwt beam="2">  1       -1 0.15460486E+00 0.15574671E+04</pdfrwt>
<totfact> 0.10510157E+01</totfact>
</mgrwt>
</event>
<event>
12    1  0.1519630E-007  0.1575500E+04  0.7818608E-02  0.8835742E-01
          2   -1    0    0  501    0  0.00000000000E+00  0.00000000000E+00  0.93654311628E+03  0.93654311628E+03  0.00000000000E+00 0. -1.
         -2   -1    0    0    0  501 -0.00000000000E+00 -0.00000000000E+00 -0.66259610336E+03  0.66259610336E+03  0.00000000000E+00 0.  1.
         23    2    1    2    0    0 -0.35908838173E+03 -0.37598764518E+03  0.23821691352E+02  0.52864108883E+03  0.92643146560E+02 0.  0.
        254    2    1    2    0    0  0.35908838173E+03  0.37598764518E+03  0.25012532156E+03  0.10704981308E+04  0.90171636137E+03 0.  0.
        -24    2    4    4    0    0  0.25562073887E+02  0.49541187069E+03 -0.15557145464E+03  0.52595471996E+03  0.79621283021E+02 0.  0.
         24    2    4    4    0    0  0.33352630784E+03 -0.11942422551E+03  0.40569677620E+03  0.54454341085E+03  0.80222867168E+02 0.  0.
         11    1    3    3    0    0  0.27169303416E+01  0.18417696333E+01  0.39562218097E+01  0.51405755388E+01  0.00000000000E+00 0. -1.
        -11    1    3    3    0    0 -0.36180531207E+03 -0.37782941481E+03  0.19865469542E+02  0.52350051329E+03  0.00000000000E+00 0.  1.
          4    1    6    6  502    0  0.38583431514E+02  0.86146903983E+01  0.65000726700E+02  0.76078831152E+02  0.00000000000E+00 0. -1.
          3    1    5    5  503    0 -0.26970404360E+02  0.10378852007E+03 -0.36362904326E+02  0.11323303591E+03  0.00000000000E+00 0. -1.
         -4    1    5    5    0  503  0.52532478248E+02  0.39162335061E+03 -0.11920855031E+03  0.41272168405E+03  0.00000000000E+00 0.  1.
         -3    1    6    6    0  502  0.29494287632E+03 -0.12803891590E+03  0.34069604950E+03  0.46846457969E+03  0.00000000000E+00 0.  1.
<mgrwt>
<rscale>  0 0.15754997E+04</rscale>
<asrwt>0</asrwt>
<pdfrwt beam="1">  1        2 0.14408356E+00 0.15754997E+04</pdfrwt>
<pdfrwt beam="2">  1       -2 0.10193786E+00 0.15754997E+04</pdfrwt>
<totfact> 0.21012566E+01</totfact>
</mgrwt>
</event>
<event>
12    1  0.1519630E-007  0.2166950E+04  0.7818608E-02  0.8532312E-01
         -1   -1    0    0    0  501 -0.00000000000E+00  0.00000000000E+00  0.87307274102E+03  0.87307274102E+03  0.00000000000E+00 0.  1.
          1   -1    0    0  501    0  0.00000000000E+00 -0.00000000000E+00 -0.13445816998E+04  0.13445816998E+04  0.00000000000E+00 0. -1.
         23    2    1    2    0    0 -0.21959650692E+03  0.50790651661E+03 -0.90439804931E+03  0.10639970880E+04  0.89231811574E+02 0.  0.
        254    2    1    2    0    0  0.21959650692E+03 -0.50790651661E+03  0.43288909053E+03  0.11536573528E+04  0.91506320412E+03 0.  0.
        -24    2    4    4    0    0  0.48410353719E+03 -0.60199033140E+03  0.33531525740E+03  0.84583365526E+03  0.79054770233E+02 0.  0.
         24    2    4    4    0    0 -0.26450703027E+03  0.94083814790E+02  0.97573833130E+02  0.30782369756E+03  0.80118927839E+02 0.  0.
         11    1    3    3    0    0 -0.38519187430E+02  0.57078564795E+02 -0.68259074859E+02  0.96958711110E+02  0.00000000000E+00 0.  1.
        -11    1    3    3    0    0 -0.18107731949E+03  0.45082795182E+03 -0.83613897445E+03  0.96703837689E+03  0.00000000000E+00 0. -1.
          4    1    6    6  502    0 -0.52950770144E+02  0.41470306067E+02  0.52233346896E+02  0.85158046432E+02  0.00000000000E+00 0. -1.
          1    1    5    5  503    0  0.18062245413E+03 -0.26882087289E+03  0.11046426026E+03  0.34218633146E+03  0.00000000000E+00 0. -1.
         -2    1    5    5    0  503  0.30348108306E+03 -0.33316945851E+03  0.22485099714E+03  0.50364732380E+03  0.00000000000E+00 0.  1.
         -3    1    6    6    0  502 -0.21155626013E+03  0.52613508723E+02  0.45340486233E+02  0.22266565113E+03  0.00000000000E+00 0.  1.
<mgrwt>
<rscale>  0 0.21669496E+04</rscale>
<asrwt>0</asrwt>
<pdfrwt beam="1">  1        1 0.20685872E+00 0.21669496E+04</pdfrwt>
<pdfrwt beam="2">  1       -1 0.13431888E+00 0.21669496E+04</pdfrwt>
<totfact> 0.35875989E+00</totfact>
</mgrwt>
</event>
<event>
12    1  0.1519630E-007  0.2413080E+04  0.7818608E-02  0.8434623E-01
         -1   -1    0    0    0  501 -0.00000000000E+00  0.00000000000E+00  0.14065301710E+04  0.14065301710E+04  0.00000000000E+00 0.  1.
          1   -1    0    0  501    0  0.00000000000E+00 -0.00000000000E+00 -0.10349854732E+04  0.10349854732E+04  0.00000000000E+00 0. -1.
         23    2    1    2    0    0 -0.93235995967E+03 -0.28548429682E+03 -0.19403892995E+03  0.99846374108E+03  0.92099716545E+02 0.  0.
        254    2    1    2    0    0  0.93235995967E+03  0.28548429682E+03  0.56558362771E+03  0.14430519031E+04  0.90095370409E+03 0.  0.
        -24    2    4    4    0    0  0.86553259950E+03  0.50791944503E+03  0.63288965838E+03  0.11892661483E+04  0.81705620251E+02 0.  0.
         24    2    4    4    0    0  0.66827360175E+02 -0.22243514821E+03 -0.67306030671E+02  0.25378575478E+03  0.77031268561E+02 0.  0.
         13    1    3    3    0    0 -0.90280113720E+03 -0.26510529963E+03 -0.17251892376E+03  0.95660519143E+03  0.00000000000E+00 0.  1.
        -13    1    3    3    0    0 -0.29558822475E+02 -0.20378997188E+02 -0.21520006188E+02  0.41858549650E+02  0.00000000000E+00 0. -1.
          4    1    6    6  502    0  0.56401657725E+02 -0.11841278921E+03 -0.71065760496E+02  0.14917465588E+03  0.00000000000E+00 0. -1.
          3    1    5    5  503    0  0.73009161620E+02  0.69916994942E+02  0.55180942285E+02  0.11516796540E+03  0.00000000000E+00 0. -1.
         -4    1    5    5    0  503  0.79252343788E+03  0.43800245009E+03  0.57770871609E+03  0.10740981829E+04  0.00000000000E+00 0.  1.
         -3    1    6    6    0  502  0.10425702449E+02 -0.10402235901E+03  0.37597298258E+01  0.10461109890E+03  0.00000000000E+00 0.  1.
<mgrwt>
<rscale>  0 0.24130796E+04</rscale>
<asrwt>0</asrwt>
<pdfrwt beam="1">  1        1 0.15922854E+00 0.24130796E+04</pdfrwt>
<pdfrwt beam="2">  1       -1 0.21638926E+00 0.24130796E+04</pdfrwt>
<totfact> 0.14804451E+00</totfact>
</mgrwt>
</event>
<event>
12    1  0.1519630E-007  0.1863133E+04  0.7818608E-02  0.8673428E-01
         -2   -1    0    0    0  501 -0.00000000000E+00  0.00000000000E+00  0.59290942955E+03  0.59290942955E+03  0.00000000000E+00 0.  1.
          2   -1    0    0  501    0  0.00000000000E+00 -0.00000000000E+00 -0.14636577786E+04  0.14636577786E+04  0.00000000000E+00 0. -1.
         23    2    1    2    0    0 -0.41218907302E+03 -0.18213781233E+03  0.27335913832E+03  0.53475976844E+03  0.90381285891E+02 0.  0.
        254    2    1    2    0    0  0.41218907302E+03  0.18213781233E+03 -0.11441074874E+04  0.15218074397E+04  0.89657232074E+03 0.  0.
        -24    2    4    4    0    0  0.28010741653E+03  0.25017399365E+03 -0.12602597917E+04  0.13171231193E+04  0.74238647389E+02 0.  0.
         24    2    4    4    0    0  0.13208165650E+03 -0.68036181314E+02  0.11615230430E+03  0.20468432049E+03  0.79560211846E+02 0.  0.
         11    1    3    3    0    0 -0.37083153871E+03 -0.13668517816E+03  0.21454531077E+03  0.44969829709E+03  0.00000000000E+00 0.  1.
        -11    1    3    3    0    0 -0.41357534310E+02 -0.45452634171E+02  0.58813827545E+02  0.85061471347E+02  0.00000000000E+00 0. -1.
          2    1    6    6  502    0  0.11497134426E+03 -0.55656895246E+02  0.12769577457E+03  0.18061647443E+03  0.00000000000E+00 0. -1.
          1    1    5    5  503    0  0.50199580845E+02  0.77988740019E+02 -0.38139619259E+03  0.39251152494E+03  0.00000000000E+00 0. -1.
         -2    1    5    5    0  503  0.22990783568E+03  0.17218525363E+03 -0.87886359912E+03  0.92461159431E+03  0.00000000000E+00 0.  1.
         -1    1    6    6    0  502  0.17110312233E+02 -0.12379286067E+02 -0.11543470271E+02  0.24067846064E+02  0.00000000000E+00 0.  1.
<mgrwt>
<rscale>  0 0.18631334E+04</rscale>
<asrwt>0</asrwt>
<pdfrwt beam="1">  1        2 0.22517812E+00 0.18631334E+04</pdfrwt>
<pdfrwt beam="2">  1       -2 0.91216836E-01 0.18631334E+04</pdfrwt>
<totfact> 0.12809484E+01</totfact>
</mgrwt>
</event>
<event>
12    1  0.1519630E-007  0.1447202E+04  0.7818608E-02  0.8920343E-01
          2   -1    0    0  501    0  0.00000000000E+00  0.00000000000E+00  0.15000067586E+04  0.15000067586E+04  0.00000000000E+00 0. -1.
         -2   -1    0    0    0  501 -0.00000000000E+00 -0.00000000000E+00 -0.34906398421E+03  0.34906398421E+03  0.00000000000E+00 0.  1.
         23    2    1    2    0    0 -0.18695000050E+03  0.10304646468E+03 -0.13498247786E+03  0.26812109474E+03  0.89998753043E+02 0.  0.
        254    2    1    2    0    0  0.18695000050E+03 -0.10304646468E+03  0.12859252522E+04  0.15809496481E+04  0.89455528548E+03 0.  0.
        -24    2    4    4    0    0  0.26832476655E+03 -0.40430976653E+03  0.38578197584E+03  0.62486513621E+03  0.78512023989E+02 0.  0.
         24    2    4    4    0    0 -0.81374766057E+02  0.30126330185E+03  0.90014327640E+03  0.95608451185E+03  0.80363213934E+02 0.  0.
         11    1    3    3    0    0  0.34295069379E+01 -0.34814894136E+01  0.64776382301E+01  0.81143134900E+01  0.00000000000E+00 0. -1.
        -11    1    3    3    0    0 -0.19037950743E+03  0.10652795409E+03 -0.14146011609E+03  0.26000678125E+03  0.00000000000E+00 0.  1.
          2    1    6    6  502    0  0.14592241263E+02  0.28929044903E+02  0.11707739475E+03  0.12147814415E+03  0.00000000000E+00 0. -1.
          1    1    5    5  503    0  0.43465646914E+02 -0.12636658567E+03  0.11652053555E+03  0.17729865098E+03  0.00000000000E+00 0. -1.
         -2    1    5    5    0  503  0.22485911964E+03 -0.27794318086E+03  0.26926144029E+03  0.44756648523E+03  0.00000000000E+00 0.  1.
         -1    1    6    6    0  502 -0.95967007319E+02  0.27233425695E+03  0.78306588165E+03  0.83460636770E+03  0.00000000000E+00 0.  1.
<mgrwt>
<rscale>  0 0.14472019E+04</rscale>
<asrwt>0</asrwt>
<pdfrwt beam="1">  1        2 0.23077027E+00 0.14472019E+04</pdfrwt>
<pdfrwt beam="2">  1       -2 0.53702152E-01 0.14472019E+04</pdfrwt>
<totfact> 0.40218456E+01</totfact>
</mgrwt>
</event>
<event>
12    1  0.1519630E-007  0.1365610E+04  0.7818608E-02  0.8979095E-01
          1   -1    0    0  501    0  0.00000000000E+00  0.00000000000E+00  0.24775722351E+04  0.24775722351E+04  0.00000000000E+00 0. -1.
         -1   -1    0    0    0  501 -0.00000000000E+00 -0.00000000000E+00 -0.18817710306E+03  0.18817710306E+03  0.00000000000E+00 0.  1.
         23    2    1    2    0    0 -0.34216810711E+03 -0.16906355544E+03  0.61265270295E+03  0.72762631253E+03  0.91843437224E+02 0.  0.
        254    2    1    2    0    0  0.34216810711E+03  0.16906355544E+03  0.16767424291E+04  0.19381230256E+04  0.89397661582E+03 0.  0.
        -24    2    4    4    0    0  0.53141113814E+03 -0.14713951145E+03  0.12498266884E+04  0.13685851629E+04  0.83131001899E+02 0.  0.
         24    2    4    4    0    0 -0.18924303103E+03  0.31620306688E+03  0.42691574070E+03  0.56953786274E+03  0.79492283504E+02 0.  0.
         11    1    3    3    0    0 -0.23732159304E+03 -0.10920028981E+03  0.49134970118E+03  0.55648070107E+03  0.00000000000E+00 0.  1.
        -11    1    3    3    0    0 -0.10484651407E+03 -0.59863265627E+02  0.12130300177E+03  0.17114561146E+03  0.00000000000E+00 0. -1.
          2    1    6    6  502    0 -0.48897876957E+02  0.11197673266E+03  0.19513489890E+03  0.23023340287E+03  0.00000000000E+00 0. -1.
          1    1    5    5  503    0  0.37144593930E+03 -0.81843286448E+02  0.77511163760E+03  0.86340515408E+03  0.00000000000E+00 0. -1.
         -2    1    5    5    0  503  0.15996519884E+03 -0.65296224997E+02  0.47471505080E+03  0.50518000880E+03  0.00000000000E+00 0.  1.
         -1    1    6    6    0  502 -0.14034515407E+03  0.20422633422E+03  0.23178084179E+03  0.33930445986E+03  0.00000000000E+00 0.  1.
<mgrwt>
<rscale>  0 0.13656096E+04</rscale>
<asrwt>0</asrwt>
<pdfrwt beam="1">  1        1 0.38116494E+00 0.13656096E+04</pdfrwt>
<pdfrwt beam="2">  1       -1 0.28950325E-01 0.13656096E+04</pdfrwt>
<totfact> 0.14966040E+01</totfact>
</mgrwt>
</event>
<event>
12    1  0.1519630E-007  0.2513940E+04  0.7818608E-02  0.8398036E-01
         -2   -1    0    0    0  501 -0.00000000000E+00  0.00000000000E+00  0.94119954269E+03  0.94119954269E+03  0.00000000000E+00 0.  1.
          2   -1    0    0  501    0  0.00000000000E+00 -0.00000000000E+00 -0.16786806829E+04  0.16786806829E+04  0.00000000000E+00 0. -1.
         23    2    1    2    0    0 -0.24149003046E+02 -0.61060886870E+03  0.62352105875E+03  0.87783538297E+03  0.91597401706E+02 0.  0.
        254    2    1    2    0    0  0.24149003046E+02  0.61060886870E+03 -0.13610021989E+04  0.17420448426E+04  0.89942586311E+03 0.  0.
        -24    2    4    4    0    0 -0.42103062657E+03  0.20947922730E+03 -0.69055340761E+03  0.83934236811E+03  0.80518736707E+02 0.  0.
         24    2    4    4    0    0  0.44517962962E+03  0.40112964140E+03 -0.67044879132E+03  0.90270247449E+03  0.79248241774E+02 0.  0.
         11    1    3    3    0    0 -0.21886068326E+02 -0.48999363808E+03  0.54830879489E+03  0.73567336495E+03  0.00000000000E+00 0.  1.
        -11    1    3    3    0    0 -0.22629347195E+01 -0.12061523062E+03  0.75212263865E+02  0.14216201802E+03  0.00000000000E+00 0. -1.
          4    1    6    6  502    0  0.33330551169E+03  0.27326702919E+03 -0.52326565093E+03  0.67791915064E+03  0.00000000000E+00 0. -1.
          3    1    5    5  503    0 -0.30519737611E+03  0.14943055320E+03 -0.43108169210E+03  0.54891379459E+03  0.00000000000E+00 0. -1.
         -2    1    5    5    0  503 -0.11583325046E+03  0.60048674098E+02 -0.25947171551E+03  0.29042857353E+03  0.00000000000E+00 0.  1.
         -3    1    6    6    0  502  0.11187411792E+03  0.12786261221E+03 -0.14718314040E+03  0.22478332384E+03  0.00000000000E+00 0.  1.
<mgrwt>
<rscale>  0 0.25139399E+04</rscale>
<asrwt>0</asrwt>
<pdfrwt beam="1">  1        2 0.25825857E+00 0.25139399E+04</pdfrwt>
<pdfrwt beam="2">  1       -2 0.14479993E+00 0.25139399E+04</pdfrwt>
<totfact> 0.29532808E+00</totfact>
</mgrwt>
</event>
<event>
12    1  0.1519630E-007  0.1264012E+04  0.7818608E-02  0.9058601E-01
         -1   -1    0    0    0  501 -0.00000000000E+00  0.00000000000E+00  0.14391472968E+03  0.14391472968E+03  0.00000000000E+00 0.  1.
          1   -1    0    0  501    0  0.00000000000E+00 -0.00000000000E+00 -0.27754742287E+04  0.27754742287E+04  0.00000000000E+00 0. -1.
         23    2    1    2    0    0  0.50764491449E+02 -0.29688697097E+02  0.37774454479E+01  0.13269467691E+03  0.11889136158E+03 0.  0.
        254    2    1    2    0    0 -0.50764491449E+02  0.29688697097E+02 -0.26353369445E+04  0.27866942815E+04  0.90399433359E+03 0.  0.
        -24    2    4    4    0    0  0.46399173496E+02 -0.18026059018E+03 -0.80799034154E+02  0.22042981723E+03  0.86104916991E+02 0.  0.
         24    2    4    4    0    0 -0.97163664945E+02  0.20994928728E+03 -0.25545379104E+04  0.25662644643E+04  0.80807698678E+02 0.  0.
         13    1    3    3    0    0  0.86155937955E+01  0.45561399840E+02  0.17373580140E+00  0.46369168592E+02  0.00000000000E+00 0. -1.
        -13    1    3    3    0    0  0.42148897654E+02 -0.75250096936E+02  0.36037096465E+01  0.86325508314E+02  0.00000000000E+00 0.  1.
          2    1    6    6  502    0 -0.84046591174E+02  0.86481609536E+02 -0.11959387422E+04  0.12020034831E+04  0.00000000000E+00 0. -1.
          1    1    5    5  503    0  0.27282566739E+02 -0.10601576823E+03 -0.91941721042E+02  0.14295790160E+03  0.00000000000E+00 0. -1.
         -2    1    5    5    0  503  0.19116606757E+02 -0.74244821951E+02  0.11142686888E+02  0.77471915631E+02  0.00000000000E+00 0.  1.
         -1    1    6    6    0  502 -0.13117073771E+02  0.12346767774E+03 -0.13585991682E+04  0.13642609812E+04  0.00000000000E+00 0.  1.
<mgrwt>
<rscale>  0 0.12640121E+04</rscale>
<asrwt>0</asrwt>
<pdfrwt beam="1">  1        1 0.42699603E+00 0.12640121E+04</pdfrwt>
<pdfrwt beam="2">  1       -1 0.22140728E-01 0.12640121E+04</pdfrwt>
<totfact> 0.14849368E+01</totfact>
</mgrwt>
</event>
<event>
12    1  0.1519630E-007  0.1971176E+04  0.7818608E-02  0.8620217E-01
         -1   -1    0    0    0  501 -0.00000000000E+00  0.00000000000E+00  0.52768373152E+03  0.52768373152E+03  0.00000000000E+00 0.  1.
          1   -1    0    0  501    0  0.00000000000E+00 -0.00000000000E+00 -0.18408448685E+04  0.18408448685E+04  0.00000000000E+00 0. -1.
         23    2    1    2    0    0 -0.49277929421E+03  0.43096621270E+03 -0.24985111167E+02  0.66167372877E+03  0.92868499963E+02 0.  0.
        254    2    1    2    0    0  0.49277929421E+03 -0.43096621270E+03 -0.12881760258E+04  0.17068548713E+04  0.90851129258E+03 0.  0.
        -24    2    4    4    0    0  0.73159016967E+03 -0.39503637329E+03 -0.80072835965E+03  0.11570111079E+04  0.78935956282E+02 0.  0.
         24    2    4    4    0    0 -0.23881087546E+03 -0.35929839406E+02 -0.48744766617E+03  0.54984376339E+03  0.80008432614E+02 0.  0.
         13    1    3    3    0    0 -0.25611684299E+03  0.19742880805E+03  0.29612467310E+02  0.32473199678E+03  0.00000000000E+00 0.  1.
        -13    1    3    3    0    0 -0.23666245121E+03  0.23353740465E+03 -0.54597578478E+02  0.33694173199E+03  0.00000000000E+00 0. -1.
          4    1    6    6  502    0 -0.24020983997E+03 -0.42523177550E+02 -0.48458010954E+03  0.54251900465E+03  0.00000000000E+00 0. -1.
          1    1    5    5  503    0  0.72222636383E+03 -0.39530287393E+03 -0.77945249042E+03  0.11337642910E+04  0.00000000000E+00 0. -1.
         -4    1    5    5    0  503  0.93638058373E+01  0.26650063615E+00 -0.21275869229E+02  0.23246816853E+02  0.00000000000E+00 0.  1.
         -3    1    6    6    0  502  0.13989645033E+01  0.65933381442E+01 -0.28675566230E+01  0.73247587367E+01  0.00000000000E+00 0.  1.
<mgrwt>
<rscale>  0 0.19711762E+04</rscale>
<asrwt>0</asrwt>
<pdfrwt beam="1">  1        1 0.28320691E+00 0.19711762E+04</pdfrwt>
<pdfrwt beam="2">  1       -1 0.81182112E-01 0.19711762E+04</pdfrwt>
<totfact> 0.53722293E+00</totfact>
</mgrwt>
</event>
<event>
12    1  0.1519630E-007  0.1767857E+04  0.7818608E-02  0.8723582E-01
          1   -1    0    0  501    0  0.00000000000E+00  0.00000000000E+00  0.57675652877E+03  0.57675652877E+03  0.00000000000E+00 0. -1.
         -1   -1    0    0    0  501 -0.00000000000E+00 -0.00000000000E+00 -0.13546964043E+04  0.13546964043E+04  0.00000000000E+00 0.  1.
         23    2    1    2    0    0 -0.11559329920E+03  0.21698042075E+03 -0.94874186467E+03  0.98435299728E+03  0.91637239469E+02 0.  0.
        254    2    1    2    0    0  0.11559329920E+03 -0.21698042075E+03  0.17080198914E+03  0.94709993580E+03  0.89854474296E+03 0.  0.
        -24    2    4    4    0    0 -0.53800010408E+02 -0.46797659800E+03  0.34402860588E+03  0.58936102040E+03  0.84227034341E+02 0.  0.
         24    2    4    4    0    0  0.16939330961E+03  0.25099617724E+03 -0.17322661675E+03  0.35773891540E+03  0.79224342909E+02 0.  0.
         13    1    3    3    0    0  0.13537987894E+02  0.60666429343E+01 -0.44813795677E+02  0.47205482263E+02  0.00000000000E+00 0. -1.
        -13    1    3    3    0    0 -0.12913128710E+03  0.21091377782E+03 -0.90392806899E+03  0.93714751501E+03  0.00000000000E+00 0.  1.
          4    1    6    6  502    0  0.69052398724E+02  0.12489013763E+03 -0.38829309066E+02  0.14789690832E+03  0.00000000000E+00 0. -1.
          1    1    5    5  503    0  0.49333862181E+01 -0.49640284035E+02  0.69518687081E+02  0.85564852317E+02  0.00000000000E+00 0. -1.
         -2    1    5    5    0  503 -0.58733396626E+02 -0.41833631396E+03  0.27450991880E+03  0.50379616809E+03  0.00000000000E+00 0.  1.
         -3    1    6    6    0  502  0.10034091089E+03  0.12610603961E+03 -0.13439730768E+03  0.20984200708E+03  0.00000000000E+00 0.  1.
<mgrwt>
<rscale>  0 0.17678575E+04</rscale>
<asrwt>0</asrwt>
<pdfrwt beam="1">  1        1 0.88731774E-01 0.17678575E+04</pdfrwt>
<pdfrwt beam="2">  1       -1 0.20841483E+00 0.17678575E+04</pdfrwt>
<totfact> 0.45199620E+00</totfact>
</mgrwt>
</event>
<event>
12    1  0.1519630E-007  0.1547659E+04  0.7818608E-02  0.8853365E-01
         -2   -1    0    0    0  501 -0.00000000000E+00  0.00000000000E+00  0.30666646108E+03  0.30666646108E+03  0.00000000000E+00 0.  1.
          2   -1    0    0  501    0  0.00000000000E+00 -0.00000000000E+00 -0.19526490075E+04  0.19526490075E+04  0.00000000000E+00 0. -1.
         23    2    1    2    0    0  0.33708867912E+03  0.97771854696E+02 -0.42797415957E+01  0.36284065307E+03  0.91907073584E+02 0.  0.
        254    2    1    2    0    0 -0.33708867912E+03 -0.97771854696E+02 -0.16417028048E+04  0.18964748155E+04  0.88217941109E+03 0.  0.
        -24    2    4    4    0    0 -0.21066155173E+03  0.66145204890E+02  0.53073056782E+01  0.23479188796E+03  0.79659184356E+02 0.  0.
         24    2    4    4    0    0 -0.12642712738E+03 -0.16391705959E+03 -0.16470101105E+04  0.16616829275E+04  0.75466725485E+02 0.  0.
         11    1    3    3    0    0  0.11338362830E+03  0.42233298541E+01  0.31461242648E+02  0.11774333726E+03  0.00000000000E+00 0. -1.
        -11    1    3    3    0    0  0.22370505082E+03  0.93548524842E+02 -0.35740984244E+02  0.24509731581E+03  0.00000000000E+00 0.  1.
          2    1    6    6  502    0 -0.30028255668E+02 -0.78729093998E+01 -0.13153793719E+03  0.13515142530E+03  0.00000000000E+00 0. -1.
          3    1    5    5  503    0 -0.28320996186E+02 -0.18257395040E+02  0.32683456072E+01  0.33854000969E+02  0.00000000000E+00 0. -1.
         -4    1    5    5    0  503 -0.18234055555E+03  0.84402599930E+02  0.20389600710E+01  0.20093788699E+03  0.00000000000E+00 0.  1.
         -1    1    6    6    0  502 -0.96398871716E+02 -0.15604415019E+03 -0.15154721733E+04  0.15265315022E+04  0.00000000000E+00 0.  1.
<mgrwt>
<rscale>  0 0.15476588E+04</rscale>
<asrwt>0</asrwt>
<pdfrwt beam="1">  1        2 0.30040754E+00 0.15476588E+04</pdfrwt>
<pdfrwt beam="2">  1       -2 0.47179456E-01 0.15476588E+04</pdfrwt>
<totfact> 0.29107391E+01</totfact>
</mgrwt>
</event>
<event>
12    1  0.1519630E-007  0.2138319E+04  0.7818608E-02  0.8544549E-01
          2   -1    0    0  501    0  0.00000000000E+00  0.00000000000E+00  0.26348039135E+04  0.26348039135E+04  0.00000000000E+00 0.  1.
         -2   -1    0    0    0  501 -0.00000000000E+00 -0.00000000000E+00 -0.43384695724E+03  0.43384695724E+03  0.00000000000E+00 0. -1.
         23    2    1    2    0    0  0.79492879409E+03  0.22910844404E+03  0.49729702918E+03  0.96969486029E+03  0.92743301921E+02 0.  0.
        254    2    1    2    0    0 -0.79492879409E+03 -0.22910844404E+03  0.17036599271E+04  0.20989560105E+04  0.90485176678E+03 0.  0.
        -24    2    4    4    0    0 -0.32705155738E+03 -0.43561814158E+03  0.13866395021E+04  0.14919666265E+04  0.80432700568E+02 0.  0.
         24    2    4    4    0    0 -0.46787723670E+03  0.20650969755E+03  0.31702042495E+03  0.60698938392E+03  0.79867381038E+02 0.  0.
         13    1    3    3    0    0  0.32360944066E+03  0.47223662018E+02  0.20669179363E+03  0.38687807110E+03  0.00000000000E+00 0.  1.
        -13    1    3    3    0    0  0.47131935342E+03  0.18188478202E+03  0.29060523555E+03  0.58281678920E+03  0.00000000000E+00 0. -1.
          4    1    6    6  502    0 -0.14997093563E+03  0.45844462877E+02  0.60730065068E+02  0.16816996496E+03  0.00000000000E+00 0. -1.
          3    1    5    5  503    0 -0.10086532170E+03 -0.79663156244E+02  0.34726498811E+03  0.37028773076E+03  0.00000000000E+00 0. -1.
         -4    1    5    5    0  503 -0.22618623568E+03 -0.35595498534E+03  0.10393745140E+04  0.11216788958E+04  0.00000000000E+00 0.  1.
         -3    1    6    6    0  502 -0.31790630107E+03  0.16066523467E+03  0.25629035988E+03  0.43881941896E+03  0.00000000000E+00 0.  1.
<mgrwt>
<rscale>  0 0.21383186E+04</rscale>
<asrwt>0</asrwt>
<pdfrwt beam="1">  1        2 0.40535444E+00 0.21383186E+04</pdfrwt>
<pdfrwt beam="2">  1       -2 0.66745687E-01 0.21383186E+04</pdfrwt>
<totfact> 0.55009608E+00</totfact>
</mgrwt>
</event>
<event>
12    1  0.1519630E-007  0.2091878E+04  0.7818608E-02  0.8564830E-01
         -2   -1    0    0    0  501 -0.00000000000E+00  0.00000000000E+00  0.51981900559E+03  0.51981900559E+03  0.00000000000E+00 0.  1.
          2   -1    0    0  501    0  0.00000000000E+00 -0.00000000000E+00 -0.21045558038E+04  0.21045558038E+04  0.00000000000E+00 0. -1.
         23    2    1    2    0    0 -0.30227109471E+03  0.62619853971E+03 -0.28521976291E+02  0.70172680159E+03  0.90080936401E+02 0.  0.
        254    2    1    2    0    0  0.30227109471E+03 -0.62619853971E+03 -0.15562148219E+04  0.19226480078E+04  0.88953828704E+03 0.  0.
        -24    2    4    4    0    0  0.38768368009E+02 -0.74513235570E+03 -0.74280796904E+03  0.10556788248E+04  0.77258581056E+02 0.  0.
         24    2    4    4    0    0  0.26350272670E+03  0.11893381599E+03 -0.81340685285E+03  0.86696918300E+03  0.80161814129E+02 0.  0.
         13    1    3    3    0    0 -0.75274538604E+02  0.14183757809E+03 -0.44323425669E+02  0.16657947288E+03  0.00000000000E+00 0. -1.
        -13    1    3    3    0    0 -0.22699655611E+03  0.48436096162E+03  0.15801449378E+02  0.53514732871E+03  0.00000000000E+00 0.  1.
          4    1    6    6  502    0  0.84185547602E+02  0.40274946542E+02 -0.16411175913E+03  0.18879074985E+03  0.00000000000E+00 0. -1.
          3    1    5    5  503    0  0.20791562526E+01 -0.98378657109E+02 -0.13758052539E+03  0.16914811271E+03  0.00000000000E+00 0. -1.
         -4    1    5    5    0  503  0.36689211756E+02 -0.64675369859E+03 -0.60522744365E+03  0.88653071207E+03  0.00000000000E+00 0.  1.
         -3    1    6    6    0  502  0.17931717910E+03  0.78658869449E+02 -0.64929509371E+03  0.67817843315E+03  0.00000000000E+00 0.  1.
<mgrwt>
<rscale>  0 0.20918777E+04</rscale>
<asrwt>0</asrwt>
<pdfrwt beam="1">  1        2 0.32377782E+00 0.20918777E+04</pdfrwt>
<pdfrwt beam="2">  1       -2 0.79972155E-01 0.20918777E+04</pdfrwt>
<totfact> 0.74513300E+00</totfact>
</mgrwt>
</event>
<event>
12    1  0.1519630E-007  0.1536261E+04  0.7818608E-02  0.8860692E-01
          2   -1    0    0  501    0  0.00000000000E+00  0.00000000000E+00  0.82341626321E+03  0.82341626321E+03  0.00000000000E+00 0. -1.
         -2   -1    0    0    0  501 -0.00000000000E+00 -0.00000000000E+00 -0.71655662890E+03  0.71655662890E+03  0.00000000000E+00 0.  1.
         23    2    1    2    0    0  0.29295627182E+03  0.18574540415E+03  0.39724986036E+03  0.53518810749E+03  0.91072094982E+02 0.  0.
        254    2    1    2    0    0 -0.29295627182E+03 -0.18574540415E+03 -0.29039022605E+03  0.10047847846E+04  0.89718518025E+03 0.  0.
        -24    2    4    4    0    0 -0.18530400784E+03  0.23714940223E+03 -0.43897370554E+03  0.53789840212E+03  0.77841907372E+02 0.  0.
         24    2    4    4    0    0 -0.10765226399E+03 -0.42289480637E+03  0.14858347950E+03  0.46688638251E+03  0.74005517302E+02 0.  0.
         13    1    3    3    0    0  0.29297663245E+03  0.18539300165E+03  0.36676185502E+03  0.50469805876E+03  0.00000000000E+00 0. -1.
        -13    1    3    3    0    0 -0.20360622499E-01  0.35240249474E+00  0.30488005337E+02  0.30490048729E+02  0.00000000000E+00 0.  1.
          2    1    6    6  502    0 -0.12006695871E+02 -0.43590079527E+01  0.65433742790E+00  0.12790224921E+02  0.00000000000E+00 0. -1.
          3    1    5    5  503    0 -0.11484266060E+03  0.90024178979E+02 -0.17843332572E+03  0.23050301782E+03  0.00000000000E+00 0. -1.
         -4    1    5    5    0  503 -0.70461347235E+02  0.14712522325E+03 -0.26054037982E+03  0.30739538430E+03  0.00000000000E+00 0.  1.
         -1    1    6    6    0  502 -0.95645568115E+02 -0.41853579842E+03  0.14792914207E+03  0.45409615759E+03  0.00000000000E+00 0.  1.
<mgrwt>
<rscale>  0 0.15362609E+04</rscale>
<asrwt>0</asrwt>
<pdfrwt beam="1">  1        2 0.12667942E+00 0.15362609E+04</pdfrwt>
<pdfrwt beam="2">  1       -2 0.11023948E+00 0.15362609E+04</pdfrwt>
<totfact> 0.20871263E+01</totfact>
</mgrwt>
</event>
<event>
12    1  0.1519630E-007  0.2466313E+04  0.7818608E-02  0.8415086E-01
          1   -1    0    0  501    0  0.00000000000E+00  0.00000000000E+00  0.10201450281E+04  0.10201450281E+04  0.00000000000E+00 0. -1.
         -1   -1    0    0    0  501 -0.00000000000E+00 -0.00000000000E+00 -0.14906458363E+04  0.14906458363E+04  0.00000000000E+00 0.  1.
         23    2    1    2    0    0 -0.46539254558E+03 -0.94492322052E+03 -0.39690525293E+03  0.11291546900E+04  0.89366772097E+02 0.  0.
        254    2    1    2    0    0  0.46539254558E+03  0.94492322052E+03 -0.73595555245E+02  0.13816361745E+04  0.89108478760E+03 0.  0.
        -24    2    4    4    0    0  0.62322222723E+03  0.89288095475E+03 -0.25726266287E+03  0.11213935705E+04  0.75479257296E+02 0.  0.
         24    2    4    4    0    0 -0.15782968165E+03  0.52042265765E+02  0.18366710762E+03  0.26024260401E+03  0.79837338917E+02 0.  0.
         13    1    3    3    0    0 -0.31316147073E+03 -0.65399256153E+03 -0.22927856650E+03  0.76048999884E+03  0.00000000000E+00 0. -1.
        -13    1    3    3    0    0 -0.15223107484E+03 -0.29093065899E+03 -0.16762668644E+03  0.36866469114E+03  0.00000000000E+00 0.  1.
          2    1    6    6  502    0  0.50115816192E+01  0.43944412276E+01 -0.35741715422E+01  0.75631849271E+01  0.00000000000E+00 0. -1.
          1    1    5    5  503    0  0.25360470922E+02  0.68180321078E+02 -0.21478063172E+02  0.75848644453E+02  0.00000000000E+00 0. -1.
         -2    1    5    5    0  503  0.59786175630E+03  0.82470063367E+03 -0.23578459970E+03  0.10455449260E+04  0.00000000000E+00 0.  1.
         -1    1    6    6    0  502 -0.16284126327E+03  0.47647824538E+02  0.18724127917E+03  0.25267941909E+03  0.00000000000E+00 0.  1.
<mgrwt>
<rscale>  0 0.24663130E+04</rscale>
<asrwt>0</asrwt>
<pdfrwt beam="1">  1        1 0.15694539E+00 0.24663130E+04</pdfrwt>
<pdfrwt beam="2">  1       -1 0.22933013E+00 0.24663130E+04</pdfrwt>
<totfact> 0.12399464E+00</totfact>
</mgrwt>
</event>
<event>
12    1  0.1519630E-007  0.2317197E+04  0.7818608E-02  0.8471171E-01
         -2   -1    0    0    0  501 -0.00000000000E+00  0.00000000000E+00  0.57108206862E+03  0.57108206862E+03  0.00000000000E+00 0.  1.
          2   -1    0    0  501    0  0.00000000000E+00 -0.00000000000E+00 -0.23505395883E+04  0.23505395883E+04  0.00000000000E+00 0. -1.
         23    2    1    2    0    0  0.53458719793E+03 -0.32351642564E+03  0.16498156669E+03  0.65280649293E+03  0.92146893674E+02 0.  0.
        254    2    1    2    0    0 -0.53458719793E+03  0.32351642564E+03 -0.19444390863E+04  0.22688151640E+04  0.98804480562E+03 0.  0.
        -24    2    4    4    0    0 -0.26257448535E+03 -0.34052462893E+03 -0.59505095846E+03  0.73841476158E+03  0.79172809033E+02 0.  0.
         24    2    4    4    0    0 -0.27201271258E+03  0.66404105457E+03 -0.13493881279E+04  0.15304004024E+04  0.79596695928E+02 0.  0.
         11    1    3    3    0    0  0.14670814729E+02  0.56188685743E+01 -0.89666609497E-01  0.15710268265E+02  0.00000000000E+00 0. -1.
        -11    1    3    3    0    0  0.51991638320E+03 -0.32913529421E+03  0.16507123330E+03  0.63709622466E+03  0.00000000000E+00 0.  1.
          2    1    6    6  502    0  0.41803012020E+01  0.18121728427E+02 -0.24122254384E+02  0.30459072801E+02  0.00000000000E+00 0. -1.
          1    1    5    5  503    0 -0.60215432277E+02 -0.70386216705E+02 -0.78773230227E+02  0.12159498175E+03  0.00000000000E+00 0. -1.
         -2    1    5    5    0  503 -0.20235905307E+03 -0.27013841223E+03 -0.51627772824E+03  0.61681977983E+03  0.00000000000E+00 0.  1.
         -1    1    6    6    0  502 -0.27619301378E+03  0.64591932614E+03 -0.13252658735E+04  0.14999413296E+04  0.00000000000E+00 0.  1.
<mgrwt>
<rscale>  0 0.23171975E+04</rscale>
<asrwt>0</asrwt>
<pdfrwt beam="1">  1        2 0.36162147E+00 0.23171975E+04</pdfrwt>
<pdfrwt beam="2">  1       -2 0.87858780E-01 0.23171975E+04</pdfrwt>
<totfact> 0.42906588E+00</totfact>
</mgrwt>
</event>
<event>
12    1  0.1519630E-007  0.2388484E+04  0.7818608E-02  0.8443828E-01
          1   -1    0    0  501    0  0.00000000000E+00  0.00000000000E+00  0.87762905160E+03  0.87762905160E+03  0.00000000000E+00 0. -1.
         -1   -1    0    0    0  501 -0.00000000000E+00 -0.00000000000E+00 -0.16250758948E+04  0.16250758948E+04  0.00000000000E+00 0.  1.
         23    2    1    2    0    0 -0.68284103371E+03  0.40274084399E+03  0.35336620026E+03  0.87276233675E+03  0.91511530575E+02 0.  0.
        254    2    1    2    0    0  0.68284103371E+03 -0.40274084399E+03 -0.11008130435E+04  0.16299426097E+04  0.90357705224E+03 0.  0.
        -24    2    4    4    0    0 -0.17321685858E+03 -0.23515536147E+03 -0.15191327108E+03  0.33865170473E+03  0.79405359156E+02 0.  0.
         24    2    4    4    0    0  0.85605789230E+03 -0.16758548252E+03 -0.94889977239E+03  0.12912909049E+04  0.78111549494E+02 0.  0.
         11    1    3    3    0    0 -0.62168936125E+03  0.34249848543E+03  0.29334950277E+03  0.76802135725E+03  0.00000000000E+00 0. -1.
        -11    1    3    3    0    0 -0.61151672462E+02  0.60242358556E+02  0.60016697497E+02  0.10474097951E+03  0.00000000000E+00 0.  1.
          2    1    6    6  502    0  0.79896810016E+03 -0.14077295907E+03 -0.85980312390E+03  0.11821287844E+04  0.00000000000E+00 0. -1.
          1    1    5    5  503    0 -0.20598948830E+02 -0.84833237127E+02 -0.30829717243E+02  0.92582213624E+02  0.00000000000E+00 0. -1.
         -2    1    5    5    0  503 -0.15261790975E+03 -0.15032212434E+03 -0.12108355384E+03  0.24606949111E+03  0.00000000000E+00 0.  1.
         -1    1    6    6    0  502  0.57089792132E+02 -0.26812523444E+02 -0.89096648488E+02  0.10916212049E+03  0.00000000000E+00 0.  1.
<mgrwt>
<rscale>  0 0.23884839E+04</rscale>
<asrwt>0</asrwt>
<pdfrwt beam="1">  1        1 0.13501985E+00 0.23884839E+04</pdfrwt>
<pdfrwt beam="2">  1       -1 0.25001168E+00 0.23884839E+04</pdfrwt>
<totfact> 0.11872135E+00</totfact>
</mgrwt>
</event>
<event>
12    1  0.1519630E-007  0.2164300E+04  0.7818608E-02  0.8533436E-01
         -2   -1    0    0    0  501 -0.00000000000E+00  0.00000000000E+00  0.51611530511E+03  0.51611530511E+03  0.00000000000E+00 0.  1.
          2   -1    0    0  501    0  0.00000000000E+00 -0.00000000000E+00 -0.22689669904E+04  0.22689669904E+04  0.00000000000E+00 0. -1.
         23    2    1    2    0    0 -0.88483756855E+03 -0.94449729892E+02 -0.58837725093E+03  0.10711270876E+04  0.96266163664E+02 0.  0.
        254    2    1    2    0    0  0.88483756855E+03  0.94449729892E+02 -0.11644744344E+04  0.17139552079E+04  0.88869762696E+03 0.  0.
        -24    2    4    4    0    0  0.70731808141E+03  0.12945757102E+03 -0.23218122582E+03  0.76081260842E+03  0.88710611170E+02 0.  0.
         24    2    4    4    0    0  0.17751948714E+03 -0.35007841124E+02 -0.93229320855E+03  0.95314259946E+03  0.81064609774E+02 0.  0.
         11    1    3    3    0    0 -0.97263562259E+02 -0.28654180044E+02 -0.98117009967E+02  0.14109645716E+03  0.00000000000E+00 0.  1.
        -11    1    3    3    0    0 -0.78757400629E+03 -0.65795549848E+02 -0.49026024096E+03  0.93003063048E+03  0.00000000000E+00 0. -1.
          4    1    6    6  502    0  0.70523720258E+02 -0.17913093307E+02 -0.19896226140E+03  0.21185007786E+03  0.00000000000E+00 0. -1.
          1    1    5    5  503    0  0.12632379680E+03  0.50984512194E+02 -0.21909981216E+02  0.13797524922E+03  0.00000000000E+00 0. -1.
         -2    1    5    5    0  503  0.58099428461E+03  0.78473058821E+02 -0.21027124460E+03  0.62283735920E+03  0.00000000000E+00 0.  1.
         -3    1    6    6    0  502  0.10699576688E+03 -0.17094747816E+02 -0.73333094715E+03  0.74129252160E+03  0.00000000000E+00 0.  1.
<mgrwt>
<rscale>  0 0.21643000E+04</rscale>
<asrwt>0</asrwt>
<pdfrwt beam="1">  1        2 0.34907184E+00 0.21643000E+04</pdfrwt>
<pdfrwt beam="2">  1       -2 0.79402355E-01 0.21643000E+04</pdfrwt>
<totfact> 0.60837603E+00</totfact>
</mgrwt>
</event>
<event>
12    1  0.1519630E-007  0.2880852E+04  0.7818608E-02  0.8278598E-01
         -1   -1    0    0    0  501 -0.00000000000E+00  0.00000000000E+00  0.12000882181E+04  0.12000882181E+04  0.00000000000E+00 0.  1.
          1   -1    0    0  501    0  0.00000000000E+00 -0.00000000000E+00 -0.17288949088E+04  0.17288949088E+04  0.00000000000E+00 0. -1.
         23    2    1    2    0    0 -0.12812596181E+03  0.69015586183E+03  0.85864753808E+03  0.11138727303E+04  0.10346733287E+03 0.  0.
        254    2    1    2    0    0  0.12812596181E+03 -0.69015586183E+03 -0.13874542288E+04  0.18151103965E+04  0.93641077470E+03 0.  0.
        -24    2    4    4    0    0  0.11546302916E+03 -0.78694921655E+03 -0.14638605078E+04  0.16677539311E+04  0.76777651543E+02 0.  0.
         24    2    4    4    0    0  0.12662932643E+02  0.96793354711E+02  0.76406279067E+02  0.14735646544E+03  0.79666210189E+02 0.  0.
         13    1    3    3    0    0  0.80604858745E+01  0.70438769256E+02  0.12673251946E+03  0.14521612560E+03  0.00000000000E+00 0. -1.
        -13    1    3    3    0    0 -0.13618644768E+03  0.61971709258E+03  0.73191501862E+03  0.96865660471E+03  0.00000000000E+00 0.  1.
          2    1    6    6  502    0 -0.84361462231E+01 -0.68944034970E+01  0.29809676355E+02  0.31738276057E+02  0.00000000000E+00 0. -1.
          3    1    5    5  503    0  0.70160206130E+02 -0.34635394124E+03 -0.71907919441E+03  0.80122306193E+03  0.00000000000E+00 0. -1.
         -4    1    5    5    0  503  0.45302823034E+02 -0.44059527531E+03 -0.74478131342E+03  0.86653086917E+03  0.00000000000E+00 0.  1.
         -1    1    6    6    0  502  0.21099078866E+02  0.10368775821E+03  0.46596602712E+02  0.11561818938E+03  0.00000000000E+00 0.  1.
<mgrwt>
<rscale>  0 0.28808515E+04</rscale>
<asrwt>0</asrwt>
<pdfrwt beam="1">  1        1 0.26598383E+00 0.28808515E+04</pdfrwt>
<pdfrwt beam="2">  1       -1 0.18462896E+00 0.28808515E+04</pdfrwt>
<totfact> 0.75514824E-01</totfact>
</mgrwt>
</event>
<event>
12    1  0.1519630E-007  0.1592339E+04  0.7818608E-02  0.8825268E-01
          3   -1    0    0  501    0  0.00000000000E+00  0.00000000000E+00  0.44375490643E+03  0.44375490643E+03  0.00000000000E+00 0. -1.
         -3   -1    0    0    0  501 -0.00000000000E+00 -0.00000000000E+00 -0.14284591941E+04  0.14284591941E+04  0.00000000000E+00 0.  1.
         23    2    1    2    0    0 -0.33208326339E+03  0.42279519314E+03 -0.41419399321E+03  0.68414059072E+03  0.86351691874E+02 0.  0.
        254    2    1    2    0    0  0.33208326339E+03 -0.42279519314E+03 -0.57051029446E+03  0.11880735098E+04  0.89274946062E+03 0.  0.
        -24    2    4    4    0    0  0.33161123445E+03 -0.43398278754E+03 -0.78398224094E+03  0.95893559687E+03  0.81377233690E+02 0.  0.
         24    2    4    4    0    0  0.47202894688E+00  0.11187594392E+02  0.21347194648E+03  0.22913791293E+03  0.82513793563E+02 0.  0.
         13    1    3    3    0    0 -0.31106125880E+03  0.41508065961E+03 -0.41041435084E+03  0.66143102443E+03  0.00000000000E+00 0.  1.
        -13    1    3    3    0    0 -0.21022004587E+02  0.77145335381E+01 -0.37796423743E+01  0.22709566290E+02  0.00000000000E+00 0. -1.
          4    1    6    6  502    0 -0.24190095560E+02 -0.19285077133E+02  0.36363942981E+02  0.47743180376E+02  0.00000000000E+00 0. -1.
          3    1    5    5  503    0  0.79377120915E+02 -0.63061952998E+02 -0.11279529252E+03  0.15165854824E+03  0.00000000000E+00 0. -1.
         -4    1    5    5    0  503  0.25223411353E+03 -0.37092083454E+03 -0.67118694842E+03  0.80727704863E+03  0.00000000000E+00 0.  1.
         -3    1    6    6    0  502  0.24662124507E+02  0.30472671526E+02  0.17710800350E+03  0.18139473255E+03  0.00000000000E+00 0.  1.
<mgrwt>
<rscale>  0 0.15923389E+04</rscale>
<asrwt>0</asrwt>
<pdfrwt beam="1">  1        3 0.68269985E-01 0.15923389E+04</pdfrwt>
<pdfrwt beam="2">  1       -3 0.21976296E+00 0.15923389E+04</pdfrwt>
<totfact> 0.57207861E-01</totfact>
</mgrwt>
</event>
<event>
12    1  0.1519630E-007  0.1642962E+04  0.7818608E-02  0.8794581E-01
         -3   -1    0    0    0  501 -0.00000000000E+00  0.00000000000E+00  0.47457421744E+03  0.47457421744E+03  0.00000000000E+00 0.  1.
          3   -1    0    0  501    0  0.00000000000E+00 -0.00000000000E+00 -0.14219714587E+04  0.14219714587E+04  0.00000000000E+00 0. -1.
         23    2    1    2    0    0 -0.85696150469E+02 -0.53339667418E+03 -0.50947555006E+03  0.74798759288E+03  0.89801229223E+02 0.  0.
        254    2    1    2    0    0  0.85696150469E+02  0.53339667418E+03 -0.43792169116E+03  0.11485580832E+04  0.91408665930E+03 0.  0.
        -24    2    4    4    0    0  0.33784724226E+03 -0.89011645356E+02 -0.27834157167E+03  0.45380825217E+03  0.80025415348E+02 0.  0.
         24    2    4    4    0    0 -0.25215109179E+03  0.62240831953E+03 -0.15958011950E+03  0.69474983106E+03  0.78988758051E+02 0.  0.
         11    1    3    3    0    0 -0.45061850734E+02 -0.30488657109E+03 -0.35016181477E+03  0.46647581732E+03  0.00000000000E+00 0.  1.
        -11    1    3    3    0    0 -0.40634299736E+02 -0.22851010309E+03 -0.15931373529E+03  0.28151177556E+03  0.00000000000E+00 0. -1.
          4    1    6    6  502    0 -0.18219345996E+03  0.34898250103E+03 -0.83406759966E+02  0.40241760708E+03  0.00000000000E+00 0. -1.
          1    1    5    5  503    0  0.17688300491E+03 -0.11236655675E+02 -0.11228315908E+03  0.20981269664E+03  0.00000000000E+00 0. -1.
         -2    1    5    5    0  503  0.16096423735E+03 -0.77774989680E+02 -0.16605841259E+03  0.24399555553E+03  0.00000000000E+00 0.  1.
         -3    1    6    6    0  502 -0.69957631839E+02  0.27342581850E+03 -0.76173359530E+02  0.29233222398E+03  0.00000000000E+00 0.  1.
<mgrwt>
<rscale>  0 0.16429619E+04</rscale>
<asrwt>0</asrwt>
<pdfrwt beam="1">  1        3 0.21876484E+00 0.16429619E+04</pdfrwt>
<pdfrwt beam="2">  1       -3 0.73011418E-01 0.16429619E+04</pdfrwt>
<totfact> 0.50270220E-01</totfact>
</mgrwt>
</event>
<event>
12    1  0.1519630E-007  0.1986132E+04  0.7818608E-02  0.8613132E-01
          3   -1    0    0  501    0  0.00000000000E+00  0.00000000000E+00  0.16000575932E+04  0.16000575932E+04  0.00000000000E+00 0. -1.
         -3   -1    0    0    0  501 -0.00000000000E+00 -0.00000000000E+00 -0.61634051857E+03  0.61634051857E+03  0.00000000000E+00 0.  1.
         23    2    1    2    0    0 -0.20046060249E+03  0.35083824653E+03  0.11438043018E+04  0.12164245097E+04  0.90157521140E+02 0.  0.
        254    2    1    2    0    0  0.20046060249E+03 -0.35083824653E+03 -0.16008722724E+03  0.99997360201E+03  0.90058167648E+03 0.  0.
        -24    2    4    4    0    0  0.26866863381E+03 -0.36904882362E+03 -0.47599165247E+03  0.66417825543E+03  0.78643707697E+02 0.  0.
         24    2    4    4    0    0 -0.68208031316E+02  0.18210577094E+02  0.31590442523E+03  0.33579534658E+03  0.89324958704E+02 0.  0.
         11    1    3    3    0    0 -0.19385577536E+03  0.29671647426E+03  0.10464353177E+04  0.11048292184E+04  0.00000000000E+00 0. -1.
        -11    1    3    3    0    0 -0.66048271292E+01  0.54121772262E+02  0.97368984196E+02  0.11159529138E+03  0.00000000000E+00 0.  1.
          4    1    6    6  502    0 -0.23891399557E+02 -0.33413923821E+02  0.75524871664E+02  0.85972644009E+02  0.00000000000E+00 0. -1.
          1    1    5    5  503    0  0.24058712443E+02 -0.34286623822E+02 -0.15810568849E+02  0.44770172044E+02  0.00000000000E+00 0. -1.
         -4    1    5    5    0  503  0.24460992137E+03 -0.33476219980E+03 -0.46018108362E+03  0.61940808339E+03  0.00000000000E+00 0.  1.
         -3    1    6    6    0  502 -0.44316631759E+02  0.51624500915E+02  0.24037955357E+03  0.24982270257E+03  0.00000000000E+00 0.  1.
<mgrwt>
<rscale>  0 0.19861322E+04</rscale>
<asrwt>0</asrwt>
<pdfrwt beam="1">  1        3 0.24616271E+00 0.19861322E+04</pdfrwt>
<pdfrwt beam="2">  1       -3 0.94821619E-01 0.19861322E+04</pdfrwt>
<totfact> 0.18691264E-01</totfact>
</mgrwt>
</event>
<event>
12    1  0.1519630E-007  0.1725135E+04  0.7818608E-02  0.8747157E-01
          2   -1    0    0  501    0  0.00000000000E+00  0.00000000000E+00  0.22466385105E+04  0.22466385105E+04  0.00000000000E+00 0. -1.
         -2   -1    0    0    0  501 -0.00000000000E+00 -0.00000000000E+00 -0.33117154263E+03  0.33117154263E+03  0.00000000000E+00 0.  1.
         23    2    1    2    0    0  0.82509362264E+02  0.23025166238E+03 -0.15475212518E+03  0.30699105668E+03  0.10233115726E+03 0.  0.
        254    2    1    2    0    0 -0.82509362264E+02 -0.23025166238E+03  0.20702190931E+04  0.22708189965E+04  0.90054883183E+03 0.  0.
        -24    2    4    4    0    0  0.37433858474E+03 -0.16589153265E+03  0.13397908955E+04  0.14031804338E+04  0.78906968579E+02 0.  0.
         24    2    4    4    0    0 -0.45684794701E+03 -0.64360129726E+02  0.73042819760E+03  0.86763856262E+03  0.80118977305E+02 0.  0.
         11    1    3    3    0    0  0.31632311963E+02  0.68401329847E+02  0.28647144848E+01  0.75415858240E+02  0.00000000000E+00 0. -1.
        -11    1    3    3    0    0  0.50877050301E+02  0.16185033253E+03 -0.15761683967E+03  0.23157519844E+03  0.00000000000E+00 0.  1.
          4    1    6    6  502    0 -0.44292240516E+03 -0.56803748805E+02  0.72379531655E+03  0.85046257010E+03  0.00000000000E+00 0. -1.
          1    1    5    5  503    0  0.23398328464E+03 -0.96194041682E+02  0.69476699410E+03  0.73939343197E+03  0.00000000000E+00 0. -1.
         -2    1    5    5    0  503  0.14035530011E+03 -0.69697490969E+02  0.64502390138E+03  0.66378700188E+03  0.00000000000E+00 0.  1.
         -3    1    6    6    0  502 -0.13925541847E+02 -0.75563809209E+01  0.66328810439E+01  0.17175992527E+02  0.00000000000E+00 0.  1.
<mgrwt>
<rscale>  0 0.17251351E+04</rscale>
<asrwt>0</asrwt>
<pdfrwt beam="1">  1        2 0.34563668E+00 0.17251351E+04</pdfrwt>
<pdfrwt beam="2">  1       -2 0.50949470E-01 0.17251351E+04</pdfrwt>
<totfact> 0.16817215E+01</totfact>
</mgrwt>
</event>
<event>
12    1  0.1519630E-007  0.1382188E+04  0.7818608E-02  0.8966813E-01
          4   -1    0    0  501    0  0.00000000000E+00  0.00000000000E+00  0.13496806109E+04  0.13496806109E+04  0.00000000000E+00 0. -1.
         -4   -1    0    0    0  501 -0.00000000000E+00 -0.00000000000E+00 -0.35386983945E+03  0.35386983945E+03  0.00000000000E+00 0.  1.
         23    2    1    2    0    0  0.44078488060E+02  0.27747642681E+03 -0.46629831786E+02  0.29839511065E+03  0.89046169501E+02 0.  0.
        254    2    1    2    0    0 -0.44078488060E+02 -0.27747642681E+03  0.10424406032E+04  0.14051553397E+04  0.89935701302E+03 0.  0.
        -24    2    4    4    0    0  0.16009047254E+03 -0.32885995209E+03  0.40413541583E+02  0.37826353121E+03  0.87591193701E+02 0.  0.
         24    2    4    4    0    0 -0.20416896060E+03  0.51383525286E+02  0.10020270616E+04  0.10268918085E+04  0.78251663948E+02 0.  0.
         13    1    3    3    0    0 -0.10141223654E+02  0.10858213023E+02  0.13137069640E+02  0.19832493691E+02  0.00000000000E+00 0. -1.
        -13    1    3    3    0    0  0.54219711715E+02  0.26661821378E+03 -0.59766901427E+02  0.27856261696E+03  0.00000000000E+00 0.  1.
          2    1    6    6  502    0 -0.20647413611E+03  0.37725430925E+02  0.91466560254E+03  0.93843909845E+03  0.00000000000E+00 0. -1.
          3    1    5    5  503    0  0.80510410772E+02 -0.12405259962E+03 -0.22778269419E+02  0.14963229355E+03  0.00000000000E+00 0. -1.
         -4    1    5    5    0  503  0.79580061770E+02 -0.20480735247E+03  0.63191811002E+02  0.22863123766E+03  0.00000000000E+00 0.  1.
         -1    1    6    6    0  502  0.23051755058E+01  0.13658094361E+02  0.87361459086E+02  0.88452710017E+02  0.00000000000E+00 0.  1.
<mgrwt>
<rscale>  0 0.13821885E+04</rscale>
<asrwt>0</asrwt>
<pdfrwt beam="1">  1        4 0.20764317E+00 0.13821885E+04</pdfrwt>
<pdfrwt beam="2">  1       -4 0.54441515E-01 0.13821885E+04</pdfrwt>
<totfact> 0.73729539E-01</totfact>
</mgrwt>
</event>
<event>
12    1  0.1519630E-007  0.1533662E+04  0.7818608E-02  0.8862372E-01
         -1   -1    0    0    0  501 -0.00000000000E+00  0.00000000000E+00  0.58708828563E+03  0.58708828563E+03  0.00000000000E+00 0.  1.
          1   -1    0    0  501    0  0.00000000000E+00 -0.00000000000E+00 -0.10016038169E+04  0.10016038169E+04  0.00000000000E+00 0. -1.
         23    2    1    2    0    0 -0.72244915062E+02 -0.26778699578E+03  0.28888129622E+03  0.41117154291E+03  0.93168833461E+02 0.  0.
        254    2    1    2    0    0  0.72244915062E+02  0.26778699578E+03 -0.70339682746E+03  0.11775205596E+04  0.90269505845E+03 0.  0.
        -24    2    4    4    0    0 -0.17636486589E+03 -0.27372844623E+03 -0.31298921736E+03  0.46022536996E+03  0.88392945276E+02 0.  0.
         24    2    4    4    0    0  0.24860978095E+03  0.54151544201E+03 -0.39040761010E+03  0.71729518965E+03  0.83955285372E+02 0.  0.
         13    1    3    3    0    0  0.22078478775E+02 -0.37070680940E+02  0.48035005470E+02  0.64568230276E+02  0.00000000000E+00 0. -1.
        -13    1    3    3    0    0 -0.94323393837E+02 -0.23071631484E+03  0.24084629075E+03  0.34660331263E+03  0.00000000000E+00 0.  1.
          2    1    6    6  502    0  0.80476269796E+02  0.27191785311E+03 -0.17048949014E+03  0.33088127038E+03  0.00000000000E+00 0. -1.
          3    1    5    5  503    0 -0.75703465568E+02 -0.19600417766E+03 -0.20083502817E+03  0.29066021554E+03  0.00000000000E+00 0. -1.
         -4    1    5    5    0  503 -0.10066140032E+03 -0.77724268572E+02 -0.11215418918E+03  0.16956515441E+03  0.00000000000E+00 0.  1.
         -1    1    6    6    0  502  0.16813351116E+03  0.26959758890E+03 -0.21991811996E+03  0.38641391927E+03  0.00000000000E+00 0.  1.
<mgrwt>
<rscale>  0 0.15336621E+04</rscale>
<asrwt>0</asrwt>
<pdfrwt beam="1">  1        1 0.15409289E+00 0.15336621E+04</pdfrwt>
<pdfrwt beam="2">  1       -1 0.90321275E-01 0.15336621E+04</pdfrwt>
<totfact> 0.17447907E+01</totfact>
</mgrwt>
</event>
<event>
12    1  0.1519630E-007  0.2853165E+04  0.7818608E-02  0.8286950E-01
          2   -1    0    0  501    0  0.00000000000E+00  0.00000000000E+00  0.30232708882E+04  0.30232708882E+04  0.00000000000E+00 0. -1.
         -2   -1    0    0    0  501 -0.00000000000E+00 -0.00000000000E+00 -0.67315757841E+03  0.67315757841E+03  0.00000000000E+00 0.  1.
         23    2    1    2    0    0 -0.10094859536E+04 -0.75004880394E+03  0.14006303910E+04  0.18848161897E+04  0.95558766251E+02 0.  0.
        254    2    1    2    0    0  0.10094859536E+04  0.75004880394E+03  0.94948291880E+03  0.18116122769E+04  0.89374835945E+03 0.  0.
        -24    2    4    4    0    0  0.11046623641E+03  0.56655774636E+03  0.17516841171E+03  0.60838284164E+03  0.79090076440E+02 0.  0.
         24    2    4    4    0    0  0.89901971721E+03  0.18349105757E+03  0.77431450708E+03  0.12032294353E+04  0.79326527339E+02 0.  0.
         13    1    3    3    0    0 -0.74237185312E+03 -0.54613994314E+03  0.10874317887E+04  0.14254447379E+04  0.00000000000E+00 0. -1.
        -13    1    3    3    0    0 -0.26711410050E+03 -0.20390886080E+03  0.31319860230E+03  0.45937145174E+03  0.00000000000E+00 0.  1.
          4    1    6    6  502    0  0.89726949324E+03  0.18688394324E+03  0.77355825633E+03  0.11993375370E+04  0.00000000000E+00 0. -1.
          1    1    5    5  503    0  0.65262075347E+02  0.37674845299E+03  0.15367168017E+03  0.41208436102E+03  0.00000000000E+00 0. -1.
         -2    1    5    5    0  503  0.45204161061E+02  0.18980929337E+03  0.21496731541E+02  0.19629848062E+03  0.00000000000E+00 0.  1.
         -3    1    6    6    0  502  0.17502239715E+01 -0.33928856636E+01  0.75625074988E+00  0.38918982866E+01  0.00000000000E+00 0.  1.
<mgrwt>
<rscale>  0 0.28531651E+04</rscale>
<asrwt>0</asrwt>
<pdfrwt beam="1">  1        2 0.46511859E+00 0.28531651E+04</pdfrwt>
<pdfrwt beam="2">  1       -2 0.10356271E+00 0.28531651E+04</pdfrwt>
<totfact> 0.11076566E+00</totfact>
</mgrwt>
</event>
<event>
12    1  0.1519630E-007  0.2522608E+04  0.7818608E-02  0.8394975E-01
         -1   -1    0    0    0  501 -0.00000000000E+00  0.00000000000E+00  0.23077544787E+04  0.23077544787E+04  0.00000000000E+00 0.  1.
          1   -1    0    0  501    0  0.00000000000E+00 -0.00000000000E+00 -0.68936629440E+03  0.68936629440E+03  0.00000000000E+00 0. -1.
         23    2    1    2    0    0 -0.55084092868E+03  0.80839933976E+02  0.18330270678E+04  0.19179467390E+04  0.92577744658E+02 0.  0.
        254    2    1    2    0    0  0.55084092868E+03 -0.80839933976E+02 -0.21463888350E+03  0.10791740341E+04  0.89921405787E+03 0.  0.
        -24    2    4    4    0    0  0.12636443561E+03 -0.43559975212E+03  0.45333688442E+02  0.46274428509E+03  0.79762243220E+02 0.  0.
         24    2    4    4    0    0  0.42447649307E+03  0.35475981814E+03 -0.25997257194E+03  0.61642974898E+03  0.79781423487E+02 0.  0.
         13    1    3    3    0    0 -0.11773367913E+02 -0.11651705828E+02  0.38291463039E+02  0.41720625384E+02  0.00000000000E+00 0. -1.
        -13    1    3    3    0    0 -0.53906756076E+03  0.92491639804E+02  0.17947356047E+04  0.18762261136E+04  0.00000000000E+00 0.  1.
          4    1    6    6  502    0  0.23277246469E+03  0.14717951862E+03 -0.11019088331E+03  0.29662579420E+03  0.00000000000E+00 0. -1.
          1    1    5    5  503    0 -0.69212898826E+01 -0.81963665809E+02  0.12808044391E+01  0.82265346450E+02  0.00000000000E+00 0. -1.
         -2    1    5    5    0  503  0.13328572549E+03 -0.35363608631E+03  0.44052884003E+02  0.38047893864E+03  0.00000000000E+00 0.  1.
         -3    1    6    6    0  502  0.19170402838E+03  0.20758029953E+03 -0.14978168863E+03  0.31980395479E+03  0.00000000000E+00 0.  1.
<mgrwt>
<rscale>  0 0.25226083E+04</rscale>
<asrwt>0</asrwt>
<pdfrwt beam="1">  1        1 0.10605635E+00 0.25226083E+04</pdfrwt>
<pdfrwt beam="2">  1       -1 0.35503915E+00 0.25226083E+04</pdfrwt>
<totfact> 0.35576049E-01</totfact>
</mgrwt>
</event>
<event>
12    1  0.1519630E-007  0.1586416E+04  0.7818608E-02  0.8828937E-01
         -2   -1    0    0    0  501 -0.00000000000E+00  0.00000000000E+00  0.19626696340E+03  0.19626696340E+03  0.00000000000E+00 0.  1.
          2   -1    0    0  501    0  0.00000000000E+00 -0.00000000000E+00 -0.32057321565E+04  0.32057321565E+04  0.00000000000E+00 0. -1.
         23    2    1    2    0    0 -0.45024571186E+03 -0.11022620356E+03 -0.47688400345E+03  0.67123372488E+03  0.90913935534E+02 0.  0.
        254    2    1    2    0    0  0.45024571186E+03  0.11022620356E+03 -0.25325811897E+04  0.27307653950E+04  0.91007754807E+03 0.  0.
        -24    2    4    4    0    0 -0.12502926663E+03 -0.27645478292E+03 -0.62117763063E+03  0.69596113840E+03  0.80253927415E+02 0.  0.
         24    2    4    4    0    0  0.57527497849E+03  0.38668098648E+03 -0.19114035590E+04  0.20348042566E+04  0.80630708406E+02 0.  0.
         13    1    3    3    0    0 -0.12621799016E+03 -0.33743099438E+02 -0.79997477738E+02  0.15319652165E+03  0.00000000000E+00 0.  1.
        -13    1    3    3    0    0 -0.32402772170E+03 -0.76483104125E+02 -0.39688652571E+03  0.51803720323E+03  0.00000000000E+00 0. -1.
          2    1    6    6  502    0  0.15866132640E+02  0.28867336703E+01 -0.21850889669E+02  0.27157481024E+02  0.00000000000E+00 0. -1.
          1    1    5    5  503    0 -0.12124333894E+02 -0.67470676388E+02 -0.82681066211E+02  0.10740321389E+03  0.00000000000E+00 0. -1.
         -2    1    5    5    0  503 -0.11290493273E+03 -0.20898410653E+03 -0.53849656442E+03  0.58855792451E+03  0.00000000000E+00 0.  1.
         -1    1    6    6    0  502  0.55940884585E+03  0.38379425281E+03 -0.18895526694E+04  0.20076467756E+04  0.00000000000E+00 0.  1.
<mgrwt>
<rscale>  0 0.15864165E+04</rscale>
<asrwt>0</asrwt>
<pdfrwt beam="1">  1        2 0.49318959E+00 0.15864165E+04</pdfrwt>
<pdfrwt beam="2">  1       -2 0.30194916E-01 0.15864165E+04</pdfrwt>
<totfact> 0.12607657E+01</totfact>
</mgrwt>
</event>
<event>
12    1  0.1519630E-007  0.1461413E+04  0.7818608E-02  0.8910526E-01
          1   -1    0    0  501    0  0.00000000000E+00  0.00000000000E+00  0.14624636284E+04  0.14624636284E+04  0.00000000000E+00 0. -1.
         -1   -1    0    0    0  501 -0.00000000000E+00 -0.00000000000E+00 -0.36509066185E+03  0.36509066185E+03  0.00000000000E+00 0.  1.
         23    2    1    2    0    0  0.45637508074E+03  0.10736298284E+03  0.17080732816E+03  0.50760295196E+03  0.93169678974E+02 0.  0.
        254    2    1    2    0    0 -0.45637508074E+03 -0.10736298284E+03  0.92656563835E+03  0.13199513382E+04  0.81482674768E+03 0.  0.
        -24    2    4    4    0    0 -0.10824769269E+03 -0.22229868381E+03  0.90779024049E+03  0.94425398007E+03  0.79988688954E+02 0.  0.
         24    2    4    4    0    0 -0.34812738806E+03  0.11493570097E+03  0.18775397861E+02  0.37569735817E+03  0.79956836452E+02 0.  0.
         11    1    3    3    0    0  0.43395170410E+03  0.90153594134E+02  0.17926600988E+03  0.47809837306E+03  0.00000000000E+00 0. -1.
        -11    1    3    3    0    0  0.22423376643E+02  0.17209388706E+02 -0.84586817176E+01  0.29504578901E+02  0.00000000000E+00 0.  1.
          2    1    6    6  502    0 -0.16024430732E+03  0.43919370474E+02  0.47468536320E+02  0.17280165240E+03  0.00000000000E+00 0. -1.
          1    1    5    5  503    0 -0.22917361012E+02 -0.75588323707E+02  0.17394806170E+03  0.19104116909E+03  0.00000000000E+00 0. -1.
         -2    1    5    5    0  503 -0.85330331676E+02 -0.14671036010E+03  0.73384217878E+03  0.75321281098E+03  0.00000000000E+00 0.  1.
         -1    1    6    6    0  502 -0.18788308074E+03  0.71016330497E+02 -0.28693138459E+02  0.20289570577E+03  0.00000000000E+00 0.  1.
<mgrwt>
<rscale>  0 0.14614128E+04</rscale>
<asrwt>0</asrwt>
<pdfrwt beam="1">  1        1 0.22499440E+00 0.14614128E+04</pdfrwt>
<pdfrwt beam="2">  1       -1 0.56167795E-01 0.14614128E+04</pdfrwt>
<totfact> 0.21617547E+01</totfact>
</mgrwt>
</event>
<event>
12    1  0.1519630E-007  0.1497755E+04  0.7818608E-02  0.8885947E-01
          1   -1    0    0  501    0  0.00000000000E+00  0.00000000000E+00  0.12779881115E+04  0.12779881115E+04  0.00000000000E+00 0. -1.
         -1   -1    0    0    0  501 -0.00000000000E+00 -0.00000000000E+00 -0.43882864070E+03  0.43882864070E+03  0.00000000000E+00 0.  1.
         23    2    1    2    0    0 -0.39116710098E+03  0.79484218628E+02  0.54721449108E+03  0.68344845847E+03  0.91261460872E+02 0.  0.
        254    2    1    2    0    0  0.39116710098E+03 -0.79484218628E+02  0.29194497974E+03  0.10333682937E+04  0.90735258716E+03 0.  0.
        -24    2    4    4    0    0  0.52730294904E+02 -0.13511191487E+03  0.56421371624E+03  0.58811707463E+03  0.80677520658E+02 0.  0.
         24    2    4    4    0    0  0.33843680608E+03  0.55627696244E+02 -0.27226873650E+03  0.44525121912E+03  0.80526212835E+02 0.  0.
         11    1    3    3    0    0 -0.82395768756E+02  0.36665374568E+02  0.73369696988E+02  0.11626059021E+03  0.00000000000E+00 0.  1.
        -11    1    3    3    0    0 -0.30877133223E+03  0.42818844060E+02  0.47384479409E+03  0.56718786826E+03  0.00000000000E+00 0. -1.
          4    1    6    6  502    0  0.11258364179E+03 -0.66487698759E+01 -0.53967175105E+02  0.12502695121E+03  0.00000000000E+00 0. -1.
          1    1    5    5  503    0 -0.10885887793E+02 -0.53751551730E+02  0.28911097629E+03  0.29426669617E+03  0.00000000000E+00 0. -1.
         -2    1    5    5    0  503  0.63616182697E+02 -0.81360363141E+02  0.27510273995E+03  0.29385037846E+03  0.00000000000E+00 0.  1.
         -3    1    6    6    0  502  0.22585316429E+03  0.62276466119E+02 -0.21830156139E+03  0.32022426791E+03  0.00000000000E+00 0.  1.
<mgrwt>
<rscale>  0 0.14977554E+04</rscale>
<asrwt>0</asrwt>
<pdfrwt beam="1">  1        1 0.19661355E+00 0.14977554E+04</pdfrwt>
<pdfrwt beam="2">  1       -1 0.67512099E-01 0.14977554E+04</pdfrwt>
<totfact> 0.20166368E+01</totfact>
</mgrwt>
</event>
<event>
12    1  0.1519630E-007  0.1271882E+04  0.7818608E-02  0.9052165E-01
         -1   -1    0    0    0  501 -0.00000000000E+00  0.00000000000E+00  0.34473495175E+03  0.34473495175E+03  0.00000000000E+00 0.  1.
          1   -1    0    0  501    0  0.00000000000E+00 -0.00000000000E+00 -0.11731360069E+04  0.11731360069E+04  0.00000000000E+00 0. -1.
         23    2    1    2    0    0 -0.29654916763E+03  0.56280993861E+02 -0.11914145038E+03  0.33497681124E+03  0.83101262181E+02 0.  0.
        254    2    1    2    0    0  0.29654916763E+03 -0.56280993861E+02 -0.70925960476E+03  0.11828941474E+04  0.89726273628E+03 0.  0.
        -24    2    4    4    0    0  0.29865208404E+03 -0.25325824560E+03 -0.84284236281E+03  0.93199390239E+03  0.69975562039E+02 0.  0.
         24    2    4    4    0    0 -0.21029164026E+01  0.19697725174E+03  0.13358275805E+03  0.25090024501E+03  0.79385891312E+02 0.  0.
         11    1    3    3    0    0 -0.24681071340E+03  0.39798278736E+02 -0.12952386297E+03  0.28155969583E+03  0.00000000000E+00 0.  1.
        -11    1    3    3    0    0 -0.49738454238E+02  0.16482715125E+02  0.10382412586E+02  0.53417115412E+02  0.00000000000E+00 0. -1.
          4    1    6    6  502    0 -0.70741471536E+01  0.90190312138E+02  0.15798475285E+02  0.91836418608E+02  0.00000000000E+00 0. -1.
          3    1    5    5  503    0  0.39602384813E+01 -0.37697734975E+01 -0.64735139041E+00  0.55057919389E+01  0.00000000000E+00 0. -1.
         -4    1    5    5    0  503  0.29469184556E+03 -0.24948847211E+03 -0.84219501141E+03  0.92648811045E+03  0.00000000000E+00 0.  1.
         -3    1    6    6    0  502  0.49712307510E+01  0.10678693960E+03  0.11778428276E+03  0.15906382640E+03  0.00000000000E+00 0.  1.
<mgrwt>
<rscale>  0 0.12718820E+04</rscale>
<asrwt>0</asrwt>
<pdfrwt beam="1">  1        1 0.18048246E+00 0.12718820E+04</pdfrwt>
<pdfrwt beam="2">  1       -1 0.53036146E-01 0.12718820E+04</pdfrwt>
<totfact> 0.39461749E+01</totfact>
</mgrwt>
</event>
<event>
12    1  0.1519630E-007  0.1932713E+04  0.7818608E-02  0.8638742E-01
         -1   -1    0    0    0  501 -0.00000000000E+00  0.00000000000E+00  0.46324211514E+03  0.46324211514E+03  0.00000000000E+00 0.  1.
          1   -1    0    0  501    0  0.00000000000E+00 -0.00000000000E+00 -0.20158901761E+04  0.20158901761E+04  0.00000000000E+00 0. -1.
         23    2    1    2    0    0  0.21897715075E+03 -0.57977680224E+03 -0.11478426419E+04  0.13077064951E+04  0.91985943450E+02 0.  0.
        254    2    1    2    0    0 -0.21897715075E+03  0.57977680224E+03 -0.40480541907E+03  0.11714257961E+04  0.90789803150E+03 0.  0.
        -24    2    4    4    0    0 -0.60244347694E+02 -0.34209373079E+02 -0.51255378347E+03  0.52341419788E+03  0.80320476575E+02 0.  0.
         24    2    4    4    0    0 -0.15873280306E+03  0.61398617532E+03  0.10774836440E+03  0.64801159826E+03  0.78321103208E+02 0.  0.
         13    1    3    3    0    0  0.38105669525E+01 -0.49965728875E+02 -0.14328022188E+03  0.15179037013E+03  0.00000000000E+00 0.  1.
        -13    1    3    3    0    0  0.21516658380E+03 -0.52981107336E+03 -0.10045624200E+04  0.11559161249E+04  0.00000000000E+00 0. -1.
          4    1    6    6  502    0 -0.34539264581E+02  0.15862629826E+03 -0.61929120286E+01  0.16246111983E+03  0.00000000000E+00 0. -1.
          1    1    5    5  503    0  0.45742023075E+01  0.18840940829E+02 -0.56543989224E+02  0.59775639649E+02  0.00000000000E+00 0. -1.
         -2    1    5    5    0  503 -0.64818550002E+02 -0.53050313908E+02 -0.45600979425E+03  0.46363855823E+03  0.00000000000E+00 0.  1.
         -3    1    6    6    0  502 -0.12419353848E+03  0.45535987706E+03  0.11394127643E+03  0.48555047843E+03  0.00000000000E+00 0.  1.
<mgrwt>
<rscale>  0 0.19327134E+04</rscale>
<asrwt>0</asrwt>
<pdfrwt beam="1">  1        1 0.31013695E+00 0.19327134E+04</pdfrwt>
<pdfrwt beam="2">  1       -1 0.71268018E-01 0.19327134E+04</pdfrwt>
<totfact> 0.53923731E+00</totfact>
</mgrwt>
</event>
<event>
12    1  0.1519630E-007  0.2250924E+04  0.7818608E-02  0.8497526E-01
         -2   -1    0    0    0  501 -0.00000000000E+00  0.00000000000E+00  0.58568506868E+03  0.58568506868E+03  0.00000000000E+00 0.  1.
          2   -1    0    0  501    0  0.00000000000E+00 -0.00000000000E+00 -0.21627062280E+04  0.21627062280E+04  0.00000000000E+00 0. -1.
         23    2    1    2    0    0  0.15642914811E+03  0.28016759232E+03 -0.17426337523E+04  0.17744058321E+04  0.93700074539E+02 0.  0.
        254    2    1    2    0    0 -0.15642914811E+03 -0.28016759232E+03  0.16561259298E+03  0.97398546464E+03  0.90457514680E+03 0.  0.
        -24    2    4    4    0    0  0.13150453276E+03 -0.31734704756E+03 -0.26886121997E+03  0.44375476252E+03  0.81420776985E+02 0.  0.
         24    2    4    4    0    0 -0.28793368087E+03  0.37179455247E+02  0.43447381294E+03  0.53023070211E+03  0.89938795044E+02 0.  0.
         13    1    3    3    0    0  0.15003793571E+03  0.28755467005E+03 -0.17003892285E+04  0.17310466773E+04  0.00000000000E+00 0. -1.
        -13    1    3    3    0    0  0.63912123996E+01 -0.73870777287E+01 -0.42244523818E+02  0.43359154811E+02  0.00000000000E+00 0.  1.
          4    1    6    6  502    0  0.42240884927E+01  0.82736708495E+01  0.22580417821E+02  0.24416630027E+02  0.00000000000E+00 0. -1.
          1    1    5    5  503    0 -0.57626701430E+00 -0.19307439354E+02  0.26551439395E+01  0.19497668768E+02  0.00000000000E+00 0. -1.
         -2    1    5    5    0  503  0.13208079978E+03 -0.29803960821E+03 -0.27151636391E+03  0.42425709376E+03  0.00000000000E+00 0.  1.
         -3    1    6    6    0  502 -0.29215776937E+03  0.28905784397E+02  0.41189339512E+03  0.50581407209E+03  0.00000000000E+00 0.  1.
<mgrwt>
<rscale>  0 0.22509240E+04</rscale>
<asrwt>0</asrwt>
<pdfrwt beam="1">  1        2 0.33272403E+00 0.22509240E+04</pdfrwt>
<pdfrwt beam="2">  1       -2 0.90105397E-01 0.22509240E+04</pdfrwt>
<totfact> 0.51983343E+00</totfact>
</mgrwt>
</event>
<event>
12    1  0.1519630E-007  0.1689439E+04  0.7818608E-02  0.8767411E-01
         -1   -1    0    0    0  501 -0.00000000000E+00  0.00000000000E+00  0.81659064217E+03  0.81659064217E+03  0.00000000000E+00 0.  1.
          1   -1    0    0  501    0  0.00000000000E+00 -0.00000000000E+00 -0.87381682184E+03  0.87381682184E+03  0.00000000000E+00 0. -1.
         23    2    1    2    0    0  0.28645941166E+03  0.20139246105E+03  0.45678830847E+03  0.58266419278E+03  0.90686740439E+02 0.  0.
        254    2    1    2    0    0 -0.28645941166E+03 -0.20139246105E+03 -0.51401448814E+03  0.11077432712E+04  0.91666042952E+03 0.  0.
        -24    2    4    4    0    0 -0.32800217465E+02 -0.76002600692E+02  0.25750952039E+03  0.28198910656E+03  0.79714826396E+02 0.  0.
         24    2    4    4    0    0 -0.25365919420E+03 -0.12538986036E+03 -0.77152400853E+03  0.82575416468E+03  0.80963206793E+02 0.  0.
         11    1    3    3    0    0  0.75999972927E+02  0.10582605522E+03  0.17599200410E+03  0.21897108338E+03  0.00000000000E+00 0. -1.
        -11    1    3    3    0    0  0.21045943874E+03  0.95566405828E+02  0.28079630437E+03  0.36369310940E+03  0.00000000000E+00 0.  1.
          2    1    6    6  502    0 -0.25106061031E+03 -0.11187629278E+03 -0.75866422217E+03  0.80691953560E+03  0.00000000000E+00 0. -1.
          3    1    5    5  503    0 -0.19661654252E+01 -0.59032434508E+02  0.22958568639E+03  0.23706176732E+03  0.00000000000E+00 0. -1.
         -4    1    5    5    0  503 -0.30834052040E+02 -0.16970166184E+02  0.27923834001E+02  0.44927339236E+02  0.00000000000E+00 0.  1.
         -1    1    6    6    0  502 -0.25985838864E+01 -0.13513567583E+02 -0.12859786363E+02  0.18834629074E+02  0.00000000000E+00 0.  1.
<mgrwt>
<rscale>  0 0.16894385E+04</rscale>
<asrwt>0</asrwt>
<pdfrwt beam="1">  1        1 0.13443336E+00 0.16894385E+04</pdfrwt>
<pdfrwt beam="2">  1       -1 0.12562933E+00 0.16894385E+04</pdfrwt>
<totfact> 0.10070283E+01</totfact>
</mgrwt>
</event>
<event>
12    1  0.1519630E-007  0.1662993E+04  0.7818608E-02  0.8782757E-01
         -2   -1    0    0    0  501 -0.00000000000E+00  0.00000000000E+00  0.33927921534E+03  0.33927921534E+03  0.00000000000E+00 0.  1.
          2   -1    0    0  501    0  0.00000000000E+00 -0.00000000000E+00 -0.20378090058E+04  0.20378090058E+04  0.00000000000E+00 0. -1.
         23    2    1    2    0    0  0.19315250803E+03 -0.75391463403E+02  0.17685096936E+03  0.28710529920E+03  0.90340596388E+02 0.  0.
        254    2    1    2    0    0 -0.19315250803E+03  0.75391463403E+02 -0.18753807598E+04  0.20899829219E+04  0.89887922190E+03 0.  0.
        -24    2    4    4    0    0  0.16571488557E+03  0.35476132708E+03 -0.12521864824E+04  0.13144131948E+04  0.79962725814E+02 0.  0.
         24    2    4    4    0    0 -0.35886739359E+03 -0.27936986368E+03 -0.62319427740E+03  0.77556972709E+03  0.79397526917E+02 0.  0.
         13    1    3    3    0    0  0.54419719004E+00  0.10362911463E+02 -0.20718232144E+01  0.10581991117E+02  0.00000000000E+00 0. -1.
        -13    1    3    3    0    0  0.19260831084E+03 -0.85754374866E+02  0.17892279258E+03  0.27652330809E+03  0.00000000000E+00 0.  1.
          4    1    6    6  502    0 -0.16208076070E+03 -0.77286674324E+02 -0.24707735688E+03  0.30543513763E+03  0.00000000000E+00 0. -1.
          3    1    5    5  503    0  0.85724933937E+02  0.10400046942E+03 -0.48224064160E+03  0.50072037941E+03  0.00000000000E+00 0. -1.
         -4    1    5    5    0  503  0.79989951631E+02  0.25076085766E+03 -0.76994584081E+03  0.81369281543E+03  0.00000000000E+00 0.  1.
         -1    1    6    6    0  502 -0.19678663289E+03 -0.20208318936E+03 -0.37611692052E+03  0.47013458946E+03  0.00000000000E+00 0.  1.
<mgrwt>
<rscale>  0 0.16629928E+04</rscale>
<asrwt>0</asrwt>
<pdfrwt beam="1">  1        2 0.31350908E+00 0.16629928E+04</pdfrwt>
<pdfrwt beam="2">  1       -2 0.52196801E-01 0.16629928E+04</pdfrwt>
<totfact> 0.21049286E+01</totfact>
</mgrwt>
</event>
<event>
12    1  0.1519630E-007  0.1437290E+04  0.7818608E-02  0.8927260E-01
          2   -1    0    0  501    0  0.00000000000E+00  0.00000000000E+00  0.12278930792E+04  0.12278930792E+04  0.00000000000E+00 0. -1.
         -2   -1    0    0    0  501 -0.00000000000E+00 -0.00000000000E+00 -0.42059873678E+03  0.42059873678E+03  0.00000000000E+00 0.  1.
         23    2    1    2    0    0 -0.16275877968E+03 -0.53019603014E+02  0.70198826826E+03  0.72835983690E+03  0.91755242730E+02 0.  0.
        254    2    1    2    0    0  0.16275877968E+03  0.53019603014E+02  0.10530607419E+03  0.92013197912E+03  0.89791535853E+03 0.  0.
        -24    2    4    4    0    0  0.38780034414E+03  0.35162246104E+03  0.94966275478E+02  0.53762952460E+03  0.77456118039E+02 0.  0.
         24    2    4    4    0    0 -0.22504156446E+03 -0.29860285803E+03  0.10339798716E+02  0.38250245452E+03  0.79961513992E+02 0.  0.
         13    1    3    3    0    0 -0.11250554764E+03 -0.68677904146E+02  0.59102928800E+03  0.60554914915E+03  0.00000000000E+00 0. -1.
        -13    1    3    3    0    0 -0.50253232033E+02  0.15658301132E+02  0.11095898026E+03  0.12281068775E+03  0.00000000000E+00 0.  1.
          2    1    6    6  502    0 -0.22703872846E+03 -0.28015476754E+03  0.20801277458E+02  0.36120073524E+03  0.00000000000E+00 0. -1.
          1    1    5    5  503    0  0.33573242964E+03  0.31042920633E+03  0.10831320911E+03  0.46990882916E+03  0.00000000000E+00 0. -1.
         -2    1    5    5    0  503  0.52067914492E+02  0.41193254718E+02 -0.13346933629E+02  0.67720695442E+02  0.00000000000E+00 0.  1.
         -1    1    6    6    0  502  0.19971640000E+01 -0.18448090494E+02 -0.10461478742E+02  0.21301719283E+02  0.00000000000E+00 0.  1.
<mgrwt>
<rscale>  0 0.14372895E+04</rscale>
<asrwt>0</asrwt>
<pdfrwt beam="1">  1        2 0.18890663E+00 0.14372895E+04</pdfrwt>
<pdfrwt beam="2">  1       -2 0.64707499E-01 0.14372895E+04</pdfrwt>
<totfact> 0.39007902E+01</totfact>
</mgrwt>
</event>
<event>
12    1  0.1519630E-007  0.1770898E+04  0.7818608E-02  0.8721930E-01
          1   -1    0    0  501    0  0.00000000000E+00  0.00000000000E+00  0.84117838613E+03  0.84117838613E+03  0.00000000000E+00 0. -1.
         -1   -1    0    0    0  501 -0.00000000000E+00 -0.00000000000E+00 -0.93204967830E+03  0.93204967830E+03  0.00000000000E+00 0.  1.
         23    2    1    2    0    0  0.57421518109E+03  0.23344290814E+03  0.17393762698E+03  0.64978227143E+03  0.88000208162E+02 0.  0.
        254    2    1    2    0    0 -0.57421518109E+03 -0.23344290814E+03 -0.26480891914E+03  0.11234457930E+04  0.89877028244E+03 0.  0.
        -24    2    4    4    0    0 -0.33050769259E+03  0.29194484625E+03 -0.29739509505E+03  0.53776012505E+03  0.79214780344E+02 0.  0.
         24    2    4    4    0    0 -0.24370748850E+03 -0.52538775439E+03  0.32586175904E+02  0.58568566794E+03  0.80871567066E+02 0.  0.
         13    1    3    3    0    0  0.47071928271E+02  0.11709865443E+02 -0.90441776983E+01  0.49342522534E+02  0.00000000000E+00 0.  1.
        -13    1    3    3    0    0  0.52714325282E+03  0.22173304269E+03  0.18298180467E+03  0.60043974890E+03  0.00000000000E+00 0. -1.
          4    1    6    6  502    0 -0.12744097120E+03 -0.18706169331E+03 -0.11657989059E+01  0.22635069546E+03  0.00000000000E+00 0. -1.
          3    1    5    5  503    0 -0.17272785461E+03  0.10363249457E+03 -0.15133556740E+03  0.25194654125E+03  0.00000000000E+00 0. -1.
         -4    1    5    5    0  503 -0.15777983798E+03  0.18831235168E+03 -0.14605952764E+03  0.28581358380E+03  0.00000000000E+00 0.  1.
         -3    1    6    6    0  502 -0.11626651729E+03 -0.33832606108E+03  0.33751974810E+02  0.35933497249E+03  0.00000000000E+00 0.  1.
<mgrwt>
<rscale>  0 0.17708981E+04</rscale>
<asrwt>0</asrwt>
<pdfrwt beam="1">  1        1 0.12941206E+00 0.17708981E+04</pdfrwt>
<pdfrwt beam="2">  1       -1 0.14339226E+00 0.17708981E+04</pdfrwt>
<totfact> 0.75862733E+00</totfact>
</mgrwt>
</event>
<event>
12    1  0.1519630E-007  0.3298540E+04  0.7818608E-02  0.8163267E-01
         -1   -1    0    0    0  501 -0.00000000000E+00  0.00000000000E+00  0.11358685113E+04  0.11358685113E+04  0.00000000000E+00 0.  1.
          1   -1    0    0  501    0  0.00000000000E+00 -0.00000000000E+00 -0.23947245004E+04  0.23947245004E+04  0.00000000000E+00 0. -1.
         23    2    1    2    0    0 -0.37978609896E+02  0.40584161935E+03  0.98987062960E+03  0.10743708153E+04  0.90988958371E+02 0.  0.
        254    2    1    2    0    0  0.37978609896E+02 -0.40584161935E+03 -0.22487266187E+04  0.24562221965E+04  0.90005904145E+03 0.  0.
        -24    2    4    4    0    0  0.45344571405E+03 -0.27278432478E+03 -0.10554038121E+04  0.11832600759E+04  0.78758473327E+02 0.  0.
         24    2    4    4    0    0 -0.41546710416E+03 -0.13305729457E+03 -0.11933228066E+04  0.12729621206E+04  0.78077407199E+02 0.  0.
         13    1    3    3    0    0 -0.37251838046E+02  0.23117617780E+03  0.67265142130E+03  0.71224297764E+03  0.00000000000E+00 0.  1.
        -13    1    3    3    0    0 -0.72677184961E+00  0.17466544156E+03  0.31721920830E+03  0.36212783763E+03  0.00000000000E+00 0. -1.
          4    1    6    6  502    0 -0.31750818305E+02  0.76285580654E+01 -0.61860301168E+02  0.69950026603E+02  0.00000000000E+00 0. -1.
          3    1    5    5  503    0  0.91564918483E+02 -0.79961349600E+02 -0.30096553996E+03  0.32458929121E+03  0.00000000000E+00 0. -1.
         -4    1    5    5    0  503  0.36188079557E+03 -0.19282297518E+03 -0.75443827216E+03  0.85867078468E+03  0.00000000000E+00 0.  1.
         -3    1    6    6    0  502 -0.38371628585E+03 -0.14068585264E+03 -0.11314625054E+04  0.12030120940E+04  0.00000000000E+00 0.  1.
<mgrwt>
<rscale>  0 0.32985404E+04</rscale>
<asrwt>0</asrwt>
<pdfrwt beam="1">  1        1 0.36841915E+00 0.32985404E+04</pdfrwt>
<pdfrwt beam="2">  1       -1 0.17474900E+00 0.32985404E+04</pdfrwt>
<totfact> 0.30187850E-01</totfact>
</mgrwt>
</event>
<event>
12    1  0.1519630E-007  0.2075257E+04  0.7818608E-02  0.8572222E-01
         -2   -1    0    0    0  501 -0.00000000000E+00  0.00000000000E+00  0.58334645650E+03  0.58334645650E+03  0.00000000000E+00 0.  1.
          2   -1    0    0  501    0  0.00000000000E+00 -0.00000000000E+00 -0.18456835650E+04  0.18456835650E+04  0.00000000000E+00 0. -1.
         23    2    1    2    0    0  0.49440862174E+03 -0.85379257802E+02 -0.13029231076E+04  0.13992377391E+04  0.92347839057E+02 0.  0.
        254    2    1    2    0    0 -0.49440862174E+03  0.85379257802E+02  0.40585999019E+02  0.10297922824E+04  0.89838489454E+03 0.  0.
        -24    2    4    4    0    0 -0.17366566421E+02 -0.35791151346E+03  0.66986494483E+02  0.37322144749E+03  0.80030052636E+02 0.  0.
         24    2    4    4    0    0 -0.47704205532E+03  0.44329077126E+03 -0.26400495465E+02  0.65657083495E+03  0.79450894988E+02 0.  0.
         11    1    3    3    0    0  0.43493595723E+03 -0.91857258803E+02 -0.12062302027E+04  0.12855342643E+04  0.00000000000E+00 0. -1.
        -11    1    3    3    0    0  0.59472664517E+02  0.64780010008E+01 -0.96692904870E+02  0.11370347477E+03  0.00000000000E+00 0.  1.
          2    1    6    6  502    0 -0.58590182745E+02  0.23171924416E+02 -0.54385563458E+01  0.63240220511E+02  0.00000000000E+00 0. -1.
          3    1    5    5  503    0 -0.10197322601E+02 -0.12678979942E+03  0.63019465737E+02  0.14195454092E+03  0.00000000000E+00 0. -1.
         -4    1    5    5    0  503 -0.71692438201E+01 -0.23112171404E+03  0.39670287466E+01  0.23126690657E+03  0.00000000000E+00 0.  1.
         -1    1    6    6    0  502 -0.41845187258E+03  0.42011884685E+03 -0.20961939119E+02  0.59333061444E+03  0.00000000000E+00 0.  1.
<mgrwt>
<rscale>  0 0.20752571E+04</rscale>
<asrwt>0</asrwt>
<pdfrwt beam="1">  1        2 0.28395131E+00 0.20752571E+04</pdfrwt>
<pdfrwt beam="2">  1       -2 0.89745611E-01 0.20752571E+04</pdfrwt>
<totfact> 0.79946222E+00</totfact>
</mgrwt>
</event>
<event>
12    1  0.1519630E-007  0.2236290E+04  0.7818608E-02  0.8503473E-01
         -4   -1    0    0    0  501 -0.00000000000E+00  0.00000000000E+00  0.17425596797E+04  0.17425596797E+04  0.00000000000E+00 0. -1.
          4   -1    0    0  501    0  0.00000000000E+00 -0.00000000000E+00 -0.71747817375E+03  0.71747817375E+03  0.00000000000E+00 0.  1.
         23    2    1    2    0    0  0.41806569467E+03 -0.74699974385E+03  0.78548386343E+03  0.11647790541E+04  0.83293474276E+02 0.  0.
        254    2    1    2    0    0 -0.41806569467E+03  0.74699974385E+03  0.23959764256E+03  0.12952587994E+04  0.94207260051E+03 0.  0.
        -24    2    4    4    0    0 -0.94217853594E+02  0.89766977024E+03  0.17713468812E+03  0.92339638164E+03  0.81216744250E+02 0.  0.
         24    2    4    4    0    0 -0.32384784108E+03 -0.15067002639E+03  0.62462954443E+02  0.37186241772E+03  0.82469121568E+02 0.  0.
         13    1    3    3    0    0  0.35876597421E+03 -0.57348768262E+03  0.62923736360E+03  0.92387272181E+03  0.00000000000E+00 0. -1.
        -13    1    3    3    0    0  0.59299720463E+02 -0.17351206123E+03  0.15624649983E+03  0.24090633232E+03  0.00000000000E+00 0.  1.
          2    1    6    6  502    0 -0.16434478899E+03 -0.55233393957E+02 -0.67768052193E+01  0.17351041053E+03  0.00000000000E+00 0. -1.
          1    1    5    5  503    0 -0.90649528735E+02  0.89620426075E+03  0.17212721097E+03  0.91707534630E+03  0.00000000000E+00 0. -1.
         -2    1    5    5    0  503 -0.35683248588E+01  0.14655094972E+01  0.50074771435E+01  0.63210353367E+01  0.00000000000E+00 0.  1.
         -1    1    6    6    0  502 -0.15950305209E+03 -0.95436632433E+02  0.69239759662E+02  0.19835200719E+03  0.00000000000E+00 0.  1.
<mgrwt>
<rscale>  0 0.22362903E+04</rscale>
<asrwt>0</asrwt>
<pdfrwt beam="1">  1        4 0.11038126E+00 0.22362903E+04</pdfrwt>
<pdfrwt beam="2">  1       -4 0.26808610E+00 0.22362903E+04</pdfrwt>
<totfact> 0.57767473E-02</totfact>
</mgrwt>
</event>
<event>
12    1  0.1519630E-007  0.1148170E+04  0.7818608E-02  0.9159473E-01
          2   -1    0    0  501    0  0.00000000000E+00  0.00000000000E+00  0.33400867853E+03  0.33400867853E+03  0.00000000000E+00 0. -1.
         -2   -1    0    0    0  501 -0.00000000000E+00 -0.00000000000E+00 -0.98672180816E+03  0.98672180816E+03  0.00000000000E+00 0.  1.
         23    2    1    2    0    0  0.62067668092E+02 -0.18893732827E+03 -0.84709415312E+02  0.23560669465E+03  0.93728971435E+02 0.  0.
        254    2    1    2    0    0 -0.62067668092E+02  0.18893732827E+03 -0.56800371432E+03  0.10851237920E+04  0.90294834577E+03 0.  0.
        -24    2    4    4    0    0 -0.15083639117E+03  0.52391476339E+03 -0.23897561768E+03  0.60065226880E+03  0.80221605346E+02 0.  0.
         24    2    4    4    0    0  0.88768723078E+02 -0.33497743512E+03 -0.32902809663E+03  0.48447152324E+03  0.79770923377E+02 0.  0.
         11    1    3    3    0    0  0.76364068642E+02 -0.13314217584E+03 -0.89728766218E+02  0.17779078001E+03  0.00000000000E+00 0.  1.
        -11    1    3    3    0    0 -0.14296400550E+02 -0.55795152424E+02  0.50193509066E+01  0.57815914645E+02  0.00000000000E+00 0. -1.
          2    1    6    6  502    0  0.22289562139E+02 -0.22301448984E+03 -0.22749551307E+03  0.31935324599E+03  0.00000000000E+00 0. -1.
          1    1    5    5  503    0 -0.36704825589E+02  0.46170340215E+02 -0.15308217804E+02  0.60936738257E+02  0.00000000000E+00 0. -1.
         -2    1    5    5    0  503 -0.11413156558E+03  0.47774442317E+03 -0.22366739988E+03  0.53971553054E+03  0.00000000000E+00 0.  1.
         -1    1    6    6    0  502  0.66479160939E+02 -0.11196294528E+03 -0.10153258356E+03  0.16511827724E+03  0.00000000000E+00 0.  1.
<mgrwt>
<rscale>  0 0.11481701E+04</rscale>
<asrwt>0</asrwt>
<pdfrwt beam="1">  1        2 0.51385951E-01 0.11481701E+04</pdfrwt>
<pdfrwt beam="2">  1       -2 0.15180335E+00 0.11481701E+04</pdfrwt>
<totfact> 0.27949676E+01</totfact>
</mgrwt>
</event>
<event>
12    1  0.1519630E-007  0.1579343E+04  0.7818608E-02  0.8833340E-01
         -1   -1    0    0    0  501 -0.00000000000E+00  0.00000000000E+00  0.65746174799E+03  0.65746174799E+03  0.00000000000E+00 0.  1.
          1   -1    0    0  501    0  0.00000000000E+00 -0.00000000000E+00 -0.94846789601E+03  0.94846789601E+03  0.00000000000E+00 0. -1.
         23    2    1    2    0    0 -0.39221079849E+03 -0.11724562645E+03  0.26841439616E+03  0.49793471399E+03  0.91196732151E+02 0.  0.
        254    2    1    2    0    0  0.39221079849E+03  0.11724562645E+03 -0.55942054418E+03  0.11079949300E+04  0.86436425905E+03 0.  0.
        -24    2    4    4    0    0  0.18303041615E+03 -0.31049528805E+03 -0.33929796568E-01  0.36927575009E+03  0.80356215149E+02 0.  0.
         24    2    4    4    0    0  0.20918038234E+03  0.42774091451E+03 -0.55938661438E+03  0.73871917993E+03  0.77935358751E+02 0.  0.
         13    1    3    3    0    0 -0.39463434189E+03 -0.11224488084E+03  0.27110019327E+03  0.49176263772E+03  0.00000000000E+00 0.  1.
        -13    1    3    3    0    0  0.24235434012E+01 -0.50007456166E+01 -0.26857971037E+01  0.61720762651E+01  0.00000000000E+00 0. -1.
          4    1    6    6  502    0  0.20416581186E+03  0.39069562074E+03 -0.53840793274E+03  0.69585188714E+03  0.00000000000E+00 0. -1.
          3    1    5    5  503    0  0.16694471596E+03 -0.31082646991E+03  0.33329880590E+01  0.35283812350E+03  0.00000000000E+00 0. -1.
         -4    1    5    5    0  503  0.16085700187E+02  0.33118186156E+00 -0.33669178555E+01  0.16437626586E+02  0.00000000000E+00 0.  1.
         -3    1    6    6    0  502  0.50145704790E+01  0.37045293768E+02 -0.20978681636E+02  0.42867292784E+02  0.00000000000E+00 0.  1.
<mgrwt>
<rscale>  0 0.15793434E+04</rscale>
<asrwt>0</asrwt>
<pdfrwt beam="1">  1        1 0.14591814E+00 0.15793434E+04</pdfrwt>
<pdfrwt beam="2">  1       -1 0.10114796E+00 0.15793434E+04</pdfrwt>
<totfact> 0.14836594E+01</totfact>
</mgrwt>
</event>
<event>
12    1  0.1519630E-007  0.1451805E+04  0.7818608E-02  0.8917150E-01
          2   -1    0    0  501    0  0.00000000000E+00  0.00000000000E+00  0.31050007289E+04  0.31050007289E+04  0.00000000000E+00 0. -1.
         -2   -1    0    0    0  501 -0.00000000000E+00 -0.00000000000E+00 -0.16970498099E+03  0.16970498099E+03  0.00000000000E+00 0.  1.
         23    2    1    2    0    0 -0.13404599421E+03  0.30449666273E+03  0.17057514306E+04  0.17402687739E+04  0.90889582873E+02 0.  0.
        254    2    1    2    0    0  0.13404599421E+03 -0.30449666273E+03  0.12295443173E+04  0.15344369360E+04  0.85558806448E+03 0.  0.
        -24    2    4    4    0    0 -0.20334629966E+03  0.18576635459E+03  0.59675786753E+03  0.66205447007E+03  0.79607240884E+02 0.  0.
         24    2    4    4    0    0  0.33739229386E+03 -0.49026301732E+03  0.63278644977E+03  0.87238246590E+03  0.80256399661E+02 0.  0.
         11    1    3    3    0    0 -0.73320583721E+02  0.23689147967E+03  0.13788600080E+04  0.14009812285E+04  0.00000000000E+00 0. -1.
        -11    1    3    3    0    0 -0.60725410485E+02  0.67605183064E+02  0.32689142264E+03  0.33928754538E+03  0.00000000000E+00 0.  1.
          2    1    6    6  502    0  0.15233034203E+03 -0.15408578834E+03  0.22052384759E+03  0.30915648243E+03  0.00000000000E+00 0. -1.
          1    1    5    5  503    0  0.42638035279E+01 -0.13296025744E+00  0.32000302030E+02  0.32283386269E+02  0.00000000000E+00 0. -1.
         -2    1    5    5    0  503 -0.20761010319E+03  0.18589931484E+03  0.56475756550E+03  0.62977108380E+03  0.00000000000E+00 0.  1.
         -1    1    6    6    0  502  0.18506195183E+03 -0.33617722897E+03  0.41226260218E+03  0.56322598347E+03  0.00000000000E+00 0.  1.
<mgrwt>
<rscale>  0 0.14518045E+04</rscale>
<asrwt>0</asrwt>
<pdfrwt beam="1">  1        2 0.47769238E+00 0.14518045E+04</pdfrwt>
<pdfrwt beam="2">  1       -2 0.26108461E-01 0.14518045E+04</pdfrwt>
<totfact> 0.19384458E+01</totfact>
</mgrwt>
</event>
<event>
12    1  0.1519630E-007  0.1577015E+04  0.7818608E-02  0.8834794E-01
         -1   -1    0    0    0  501 -0.00000000000E+00  0.00000000000E+00  0.32849619261E+03  0.32849619261E+03  0.00000000000E+00 0.  1.
          1   -1    0    0  501    0  0.00000000000E+00 -0.00000000000E+00 -0.18926980365E+04  0.18926980365E+04  0.00000000000E+00 0. -1.
         23    2    1    2    0    0  0.49212720924E+02 -0.38092118844E+03 -0.73898939642E+03  0.83776119720E+03  0.90640232788E+02 0.  0.
        254    2    1    2    0    0 -0.49212720924E+02  0.38092118844E+03 -0.82521244751E+03  0.13834330319E+04  0.10418198149E+04 0.  0.
        -24    2    4    4    0    0  0.30150520132E+03 -0.20975570121E+03 -0.11766568092E+03  0.39391666934E+03  0.80139187071E+02 0.  0.
         24    2    4    4    0    0 -0.35071792225E+03  0.59067688965E+03 -0.70754676659E+03  0.98951636261E+03  0.81350820596E+02 0.  0.
         13    1    3    3    0    0  0.16635667140E+02 -0.15076898622E+03 -0.38987236541E+03  0.41834016534E+03  0.00000000000E+00 0. -1.
        -13    1    3    3    0    0  0.32577053784E+02 -0.23015220222E+03 -0.34911703101E+03  0.41942103185E+03  0.00000000000E+00 0.  1.
          2    1    6    6  502    0 -0.92731965935E+01  0.51836397098E+02 -0.39583200006E+02  0.65877416175E+02  0.00000000000E+00 0. -1.
          3    1    5    5  503    0  0.51907191240E+02 -0.77108679072E+02 -0.22109577782E+02  0.95545477760E+02  0.00000000000E+00 0. -1.
         -4    1    5    5    0  503  0.24959801008E+03 -0.13264702214E+03 -0.95556103139E+02  0.29837119158E+03  0.00000000000E+00 0.  1.
         -1    1    6    6    0  502 -0.34144472565E+03  0.53884049255E+03 -0.66796356658E+03  0.92363894643E+03  0.00000000000E+00 0.  1.
<mgrwt>
<rscale>  0 0.15770150E+04</rscale>
<asrwt>0</asrwt>
<pdfrwt beam="1">  1        1 0.29118431E+00 0.15770150E+04</pdfrwt>
<pdfrwt beam="2">  1       -1 0.50537876E-01 0.15770150E+04</pdfrwt>
<totfact> 0.13326991E+01</totfact>
</mgrwt>
</event>
<event>
12    1  0.1519630E-007  0.2020984E+04  0.7818608E-02  0.8596872E-01
          2   -1    0    0  501    0  0.00000000000E+00  0.00000000000E+00  0.90463368000E+03  0.90463368000E+03  0.00000000000E+00 0. -1.
         -2   -1    0    0    0  501 -0.00000000000E+00 -0.00000000000E+00 -0.11287373941E+04  0.11287373941E+04  0.00000000000E+00 0.  1.
         23    2    1    2    0    0 -0.75792074166E+03 -0.25152053221E+03 -0.44865006660E+01  0.80311369565E+03  0.85235266719E+02 0.  0.
        254    2    1    2    0    0  0.75792074166E+03  0.25152053221E+03 -0.21961721340E+03  0.12302573784E+04  0.90972252250E+03 0.  0.
        -24    2    4    4    0    0  0.61824197272E+03  0.55715910672E+03 -0.27595859596E+03  0.88049758866E+03  0.80457752463E+02 0.  0.
         24    2    4    4    0    0  0.13967876894E+03 -0.30563857450E+03  0.56341382556E+02  0.34975978974E+03  0.78945946172E+02 0.  0.
         11    1    3    3    0    0 -0.62053054305E+03 -0.21046496198E+03  0.28889542586E+02  0.65588738420E+03  0.00000000000E+00 0. -1.
        -11    1    3    3    0    0 -0.13739019861E+03 -0.41055570234E+02 -0.33376043252E+02  0.14722631145E+03  0.00000000000E+00 0.  1.
          2    1    6    6  502    0  0.59539153166E+02 -0.20430204906E+03  0.11896152199E+02  0.21313318946E+03  0.00000000000E+00 0. -1.
          3    1    5    5  503    0  0.25043116238E+03  0.17897646053E+03 -0.83461924001E+02  0.31892668949E+03  0.00000000000E+00 0. -1.
         -4    1    5    5    0  503  0.36781081034E+03  0.37818264619E+03 -0.19249667196E+03  0.56157089917E+03  0.00000000000E+00 0.  1.
         -1    1    6    6    0  502  0.80139615773E+02 -0.10133652544E+03  0.44445230357E+02  0.13662660029E+03  0.00000000000E+00 0.  1.
<mgrwt>
<rscale>  0 0.20209838E+04</rscale>
<asrwt>0</asrwt>
<pdfrwt beam="1">  1        2 0.13917441E+00 0.20209838E+04</pdfrwt>
<pdfrwt beam="2">  1       -2 0.17365191E+00 0.20209838E+04</pdfrwt>
<totfact> 0.54202684E+00</totfact>
</mgrwt>
</event>
<event>
12    1  0.1519630E-007  0.1281760E+04  0.7818608E-02  0.9044156E-01
         -1   -1    0    0    0  501 -0.00000000000E+00  0.00000000000E+00  0.54577757521E+03  0.54577757521E+03  0.00000000000E+00 0.  1.
          1   -1    0    0  501    0  0.00000000000E+00 -0.00000000000E+00 -0.75255373833E+03  0.75255373833E+03  0.00000000000E+00 0. -1.
         23    2    1    2    0    0 -0.31280809677E+02 -0.77112354377E+02 -0.36007393064E+03  0.38105782457E+03  0.92881784474E+02 0.  0.
        254    2    1    2    0    0  0.31280809677E+02  0.77112354377E+02  0.15329776752E+03  0.91727348896E+03  0.90053630897E+03 0.  0.
        -24    2    4    4    0    0 -0.34719383917E+03 -0.20498522521E+03 -0.15136999011E+02  0.41082275462E+03  0.77354395267E+02 0.  0.
         24    2    4    4    0    0  0.37847464884E+03  0.28209757959E+03  0.16843476653E+03  0.50645073434E+03  0.72800903229E+02 0.  0.
         13    1    3    3    0    0 -0.46294408929E+01 -0.64277503403E+02 -0.33815548119E+03  0.34424142491E+03  0.00000000000E+00 0. -1.
        -13    1    3    3    0    0 -0.26651368784E+02 -0.12834850974E+02 -0.21918449457E+02  0.36816399663E+02  0.00000000000E+00 0.  1.
          2    1    6    6  502    0  0.77400228054E+02  0.24265929184E+02  0.32885350069E+02  0.87527577775E+02  0.00000000000E+00 0. -1.
          1    1    5    5  503    0 -0.18525521711E+03 -0.65205864007E+02 -0.42841780973E+00  0.19639624159E+03  0.00000000000E+00 0. -1.
         -2    1    5    5    0  503 -0.16193862205E+03 -0.13977936120E+03 -0.14708581201E+02  0.21442651303E+03  0.00000000000E+00 0.  1.
         -1    1    6    6    0  502  0.30107442079E+03  0.25783165040E+03  0.13554941647E+03  0.41892315657E+03  0.00000000000E+00 0.  1.
<mgrwt>
<rscale>  0 0.12817597E+04</rscale>
<asrwt>0</asrwt>
<pdfrwt beam="1">  1        1 0.11577750E+00 0.12817597E+04</pdfrwt>
<pdfrwt beam="2">  1       -1 0.83965781E-01 0.12817597E+04</pdfrwt>
<totfact> 0.33714299E+01</totfact>
</mgrwt>
</event>
<event>
12    1  0.1519630E-007  0.2843637E+04  0.7818608E-02  0.8289848E-01
          2   -1    0    0  501    0  0.00000000000E+00  0.00000000000E+00  0.26864213926E+04  0.26864213926E+04  0.00000000000E+00 0. -1.
         -2   -1    0    0    0  501 -0.00000000000E+00 -0.00000000000E+00 -0.75251305171E+03  0.75251305171E+03  0.00000000000E+00 0.  1.
         23    2    1    2    0    0  0.10221279580E+03  0.33552244795E+02 -0.67275796842E+03  0.68594286624E+03  0.79631167948E+02 0.  0.
        254    2    1    2    0    0 -0.10221279580E+03 -0.33552244795E+02  0.26066663093E+04  0.27529915781E+04  0.87902228192E+03 0.  0.
        -24    2    4    4    0    0 -0.32874431888E+03  0.23450838673E+03  0.20469718925E+04  0.20879430905E+04  0.79658080025E+02 0.  0.
         24    2    4    4    0    0  0.22653152309E+03 -0.26806063153E+03  0.55969441675E+03  0.66504848755E+03  0.76541606479E+02 0.  0.
         13    1    3    3    0    0  0.79566198055E+02  0.47895435717E+02 -0.35126875752E+03  0.36333798679E+03  0.00000000000E+00 0.  1.
        -13    1    3    3    0    0  0.22646597741E+02 -0.14343190922E+02 -0.32148921091E+03  0.32260487945E+03  0.00000000000E+00 0. -1.
          4    1    6    6  502    0  0.19894555383E+03 -0.24132392891E+03  0.53394583504E+03  0.61880103976E+03  0.00000000000E+00 0. -1.
          3    1    5    5  503    0 -0.31479975343E+03  0.19646585838E+03  0.18429779694E+04  0.18799642321E+04  0.00000000000E+00 0. -1.
         -4    1    5    5    0  503 -0.13944565455E+02  0.38042528347E+02  0.20399392311E+03  0.20797885838E+03  0.00000000000E+00 0.  1.
         -3    1    6    6    0  502  0.27585969259E+02 -0.26736702612E+02  0.25748581707E+02  0.46247447783E+02  0.00000000000E+00 0.  1.
<mgrwt>
<rscale>  0 0.28436365E+04</rscale>
<asrwt>0</asrwt>
<pdfrwt beam="1">  1        2 0.41329559E+00 0.28436365E+04</pdfrwt>
<pdfrwt beam="2">  1       -2 0.11577124E+00 0.28436365E+04</pdfrwt>
<totfact> 0.13602856E+00</totfact>
</mgrwt>
</event>
<event>
12    1  0.1519630E-007  0.2109712E+04  0.7818608E-02  0.8556977E-01
         -1   -1    0    0    0  501 -0.00000000000E+00  0.00000000000E+00  0.10185708498E+04  0.10185708498E+04  0.00000000000E+00 0.  1.
          1   -1    0    0  501    0  0.00000000000E+00 -0.00000000000E+00 -0.10924340175E+04  0.10924340175E+04  0.00000000000E+00 0. -1.
         23    2    1    2    0    0 -0.65819113006E+03  0.54256414604E+03 -0.74086498777E+02  0.86184107969E+03  0.98436888829E+02 0.  0.
        254    2    1    2    0    0  0.65819113006E+03 -0.54256414604E+03  0.22333109963E+00  0.12491637877E+04  0.91258901060E+03 0.  0.
        -24    2    4    4    0    0  0.40713531451E+03  0.19275845063E+03  0.78086105662E+02  0.46448582382E+03  0.82064950046E+02 0.  0.
         24    2    4    4    0    0  0.25105581555E+03 -0.73532259666E+03 -0.77862774562E+02  0.78467796384E+03  0.76997088151E+02 0.  0.
         11    1    3    3    0    0 -0.30982191622E+03  0.28423526187E+03  0.75815748655E+01  0.42051965964E+03  0.00000000000E+00 0.  1.
        -11    1    3    3    0    0 -0.34836921384E+03  0.25832888416E+03 -0.81668073643E+02  0.44132142005E+03  0.00000000000E+00 0. -1.
          4    1    6    6  502    0  0.47641742072E+02 -0.23398606598E+03 -0.42057713708E+02  0.24246250420E+03  0.00000000000E+00 0. -1.
          3    1    5    5  503    0  0.96598931317E+01 -0.42277645890E+01  0.12008626905E+02  0.15981071581E+02  0.00000000000E+00 0. -1.
         -4    1    5    5    0  503  0.39747542138E+03  0.19698621522E+03  0.66077478757E+02  0.44850475224E+03  0.00000000000E+00 0.  1.
         -3    1    6    6    0  502  0.20341407348E+03 -0.50133653068E+03 -0.35805060854E+02  0.54221545964E+03  0.00000000000E+00 0.  1.
<mgrwt>
<rscale>  0 0.21097123E+04</rscale>
<asrwt>0</asrwt>
<pdfrwt beam="1">  1        1 0.16806677E+00 0.21097123E+04</pdfrwt>
<pdfrwt beam="2">  1       -1 0.15670321E+00 0.21097123E+04</pdfrwt>
<totfact> 0.36556608E+00</totfact>
</mgrwt>
</event>
<event>
12    1  0.1519630E-007  0.1090419E+04  0.7818608E-02  0.9214581E-01
          1   -1    0    0  501    0  0.00000000000E+00  0.00000000000E+00  0.16237286206E+04  0.16237286206E+04  0.00000000000E+00 0. -1.
         -1   -1    0    0    0  501 -0.00000000000E+00 -0.00000000000E+00 -0.18306838030E+03  0.18306838030E+03  0.00000000000E+00 0.  1.
         23    2    1    2    0    0 -0.14208833477E+03 -0.16914452869E+02  0.88551230305E+02  0.19089055114E+03  0.90125959276E+02 0.  0.
        254    2    1    2    0    0  0.14208833477E+03  0.16914452869E+02  0.13521090099E+04  0.16159064497E+04  0.87320082791E+03 0.  0.
        -24    2    4    4    0    0 -0.29476684922E+03  0.15109558745E+03  0.92276504574E+03  0.98376818013E+03  0.81161139916E+02 0.  0.
         24    2    4    4    0    0  0.43685518399E+03 -0.13418113458E+03  0.42934396420E+03  0.63213826959E+03  0.80096963935E+02 0.  0.
         11    1    3    3    0    0 -0.38343339604E+02  0.11690086498E+02  0.71446412418E+02  0.81923498837E+02  0.00000000000E+00 0. -1.
        -11    1    3    3    0    0 -0.10374499516E+03 -0.28604539368E+02  0.17104817887E+02  0.10896705231E+03  0.00000000000E+00 0.  1.
          2    1    6    6  502    0  0.26377794999E+03 -0.11287081580E+03  0.29927185699E+03  0.41458686948E+03  0.00000000000E+00 0. -1.
          3    1    5    5  503    0 -0.28003240772E+03  0.11640622188E+03  0.82736957981E+03  0.88119746905E+03  0.00000000000E+00 0. -1.
         -4    1    5    5    0  503 -0.14734441504E+02  0.34689365560E+02  0.95395465934E+02  0.10257071107E+03  0.00000000000E+00 0.  1.
         -1    1    6    6    0  502  0.17307723400E+03 -0.21310318774E+02  0.13007210721E+03  0.21755140011E+03  0.00000000000E+00 0.  1.
<mgrwt>
<rscale>  0 0.10904189E+04</rscale>
<asrwt>0</asrwt>
<pdfrwt beam="1">  1        1 0.24980439E+00 0.10904189E+04</pdfrwt>
<pdfrwt beam="2">  1       -1 0.28164367E-01 0.10904189E+04</pdfrwt>
<totfact> 0.61092810E+01</totfact>
</mgrwt>
</event>
<event>
12    1  0.1519630E-007  0.1118633E+04  0.7818608E-02  0.9187219E-01
          2   -1    0    0  501    0  0.00000000000E+00  0.00000000000E+00  0.15867045270E+04  0.15867045270E+04  0.00000000000E+00 0. -1.
         -2   -1    0    0    0  501 -0.00000000000E+00 -0.00000000000E+00 -0.19716017330E+03  0.19716017330E+03  0.00000000000E+00 0.  1.
         23    2    1    2    0    0  0.60292075863E+02  0.15976553741E+02  0.51253210700E+03  0.52447296321E+03  0.92153913370E+02 0.  0.
        254    2    1    2    0    0 -0.60292075863E+02 -0.15976553741E+02  0.87701224669E+03  0.12593917371E+04  0.90167992210E+03 0.  0.
        -24    2    4    4    0    0  0.27373661057E+03  0.18949953131E+03  0.56615090380E+02  0.34671918004E+03  0.78530993983E+02 0.  0.
         24    2    4    4    0    0 -0.33402868643E+03 -0.20547608505E+03  0.82039715631E+03  0.91267255705E+03  0.78256740461E+02 0.  0.
         13    1    3    3    0    0  0.23879002984E+02  0.46599339698E+02  0.15094035890E+03  0.15976450541E+03  0.00000000000E+00 0.  1.
        -13    1    3    3    0    0  0.36413072879E+02 -0.30622785957E+02  0.36159174810E+03  0.36470845780E+03  0.00000000000E+00 0. -1.
          2    1    6    6  502    0 -0.72797787266E+02 -0.12644627786E+02  0.12494024087E+03  0.14515325774E+03  0.00000000000E+00 0. -1.
          1    1    5    5  503    0  0.60542478215E+02  0.63048831010E+01  0.68019897201E+01  0.61248757404E+02  0.00000000000E+00 0. -1.
         -2    1    5    5    0  503  0.21319413235E+03  0.18319464821E+03  0.49813100660E+02  0.28547042263E+03  0.00000000000E+00 0.  1.
         -3    1    6    6    0  502 -0.26123089916E+03 -0.19283145726E+03  0.69545691544E+03  0.76751929932E+03  0.00000000000E+00 0.  1.
<mgrwt>
<rscale>  0 0.11186330E+04</rscale>
<asrwt>0</asrwt>
<pdfrwt beam="1">  1        2 0.24410838E+00 0.11186330E+04</pdfrwt>
<pdfrwt beam="2">  1       -2 0.30332335E-01 0.11186330E+04</pdfrwt>
<totfact> 0.11296715E+02</totfact>
</mgrwt>
</event>
<event>
12    1  0.1519630E-007  0.2190636E+04  0.7818608E-02  0.8522336E-01
          2   -1    0    0  501    0  0.00000000000E+00  0.00000000000E+00  0.30262871657E+04  0.30262871657E+04  0.00000000000E+00 0. -1.
         -2   -1    0    0    0  501 -0.00000000000E+00 -0.00000000000E+00 -0.39643350865E+03  0.39643350865E+03  0.00000000000E+00 0.  1.
         23    2    1    2    0    0 -0.72217817396E+03 -0.24047168324E+03  0.32702555142E+03  0.83352719940E+03  0.91945285196E+02 0.  0.
        254    2    1    2    0    0  0.72217817396E+03  0.24047168324E+03  0.23028281056E+04  0.25891934749E+04  0.90638712549E+03 0.  0.
        -24    2    4    4    0    0  0.57064068696E+03  0.36194908995E+03  0.71453998921E+03  0.98712657880E+03  0.84932614763E+02 0.  0.
         24    2    4    4    0    0  0.15153748700E+03 -0.12147740671E+03  0.15882881164E+04  0.16020668961E+04  0.78986256378E+02 0.  0.
         11    1    3    3    0    0 -0.67105410627E+03 -0.24590672783E+03  0.31307330786E+03  0.78025548920E+03  0.00000000000E+00 0.  1.
        -11    1    3    3    0    0 -0.51124067692E+02  0.54350445903E+01  0.13952243559E+02  0.53271710198E+02  0.00000000000E+00 0. -1.
          4    1    6    6  502    0  0.58200647695E+02 -0.36219057316E+01  0.37660850439E+03  0.38109631219E+03  0.00000000000E+00 0. -1.
          1    1    5    5  503    0 -0.12026701772E+01 -0.18078256815E+01 -0.16334021804E+00  0.21774593628E+01  0.00000000000E+00 0. -1.
         -2    1    5    5    0  503  0.57184335714E+03  0.36375691564E+03  0.71470332943E+03  0.98494911943E+03  0.00000000000E+00 0.  1.
         -3    1    6    6    0  502  0.93336839307E+02 -0.11785550098E+03  0.12116796120E+04  0.12209705839E+04  0.00000000000E+00 0.  1.
<mgrwt>
<rscale>  0 0.21906361E+04</rscale>
<asrwt>0</asrwt>
<pdfrwt beam="1">  1        2 0.46558263E+00 0.21906361E+04</pdfrwt>
<pdfrwt beam="2">  1       -2 0.60989773E-01 0.21906361E+04</pdfrwt>
<totfact> 0.38408000E+00</totfact>
</mgrwt>
</event>
<event>
12    1  0.1519630E-007  0.1383634E+04  0.7818608E-02  0.8965751E-01
          2   -1    0    0  501    0  0.00000000000E+00  0.00000000000E+00  0.16286797513E+04  0.16286797513E+04  0.00000000000E+00 0. -1.
         -2   -1    0    0    0  501 -0.00000000000E+00 -0.00000000000E+00 -0.29386422647E+03  0.29386422647E+03  0.00000000000E+00 0.  1.
         23    2    1    2    0    0  0.37705989608E+03 -0.65158044514E+02  0.27896432473E+03  0.48290520935E+03  0.94639372044E+02 0.  0.
        254    2    1    2    0    0 -0.37705989608E+03  0.65158044514E+02  0.10558512001E+04  0.14396387685E+04  0.90073208605E+03 0.  0.
        -24    2    4    4    0    0  0.12512148483E+03  0.27719117789E+03  0.89333851340E+02  0.32714761869E+03  0.80961054541E+02 0.  0.
         24    2    4    4    0    0 -0.50218138091E+03 -0.21203313337E+03  0.96651734878E+03  0.11124911498E+04  0.79602662183E+02 0.  0.
         13    1    3    3    0    0  0.35251017774E+03 -0.76732408041E+02  0.23281023606E+03  0.42936219427E+03  0.00000000000E+00 0.  1.
        -13    1    3    3    0    0  0.24549718337E+02  0.11574363527E+02  0.46154088678E+02  0.53543015074E+02  0.00000000000E+00 0. -1.
          4    1    6    6  502    0 -0.49856019293E+03 -0.19822440149E+03  0.93804276793E+03  0.10806384288E+04  0.00000000000E+00 0. -1.
          3    1    5    5  503    0  0.64570856354E+02  0.19656687108E+03  0.27124484489E+02  0.20867119579E+03  0.00000000000E+00 0. -1.
         -4    1    5    5    0  503  0.60550628476E+02  0.80624306811E+02  0.62209366850E+02  0.11847642289E+03  0.00000000000E+00 0.  1.
         -3    1    6    6    0  502 -0.36211879841E+01 -0.13808731883E+02  0.28474580852E+02  0.31852720972E+02  0.00000000000E+00 0.  1.
<mgrwt>
<rscale>  0 0.13836339E+04</rscale>
<asrwt>0</asrwt>
<pdfrwt beam="1">  1        2 0.25056611E+00 0.13836339E+04</pdfrwt>
<pdfrwt beam="2">  1       -2 0.45209882E-01 0.13836339E+04</pdfrwt>
<totfact> 0.48581264E+01</totfact>
</mgrwt>
</event>
<event>
12    1  0.1519630E-007  0.1467440E+04  0.7818608E-02  0.8906399E-01
         -4   -1    0    0    0  501 -0.00000000000E+00  0.00000000000E+00  0.63234566069E+03  0.63234566069E+03  0.00000000000E+00 0.  1.
          4   -1    0    0  501    0  0.00000000000E+00 -0.00000000000E+00 -0.85134586833E+03  0.85134586833E+03  0.00000000000E+00 0. -1.
         23    2    1    2    0    0 -0.29990970712E+03  0.26872764487E+03 -0.26249776147E+03  0.48886360183E+03  0.89006555244E+02 0.  0.
        254    2    1    2    0    0  0.29990970712E+03 -0.26872764487E+03  0.43497553830E+02  0.99482792719E+03  0.90864194707E+03 0.  0.
        -24    2    4    4    0    0 -0.38557511392E+02 -0.12488666442E+03 -0.39102799635E+03  0.41998939109E+03  0.80030207229E+02 0.  0.
         24    2    4    4    0    0  0.33846721851E+03 -0.14384098046E+03  0.43452555018E+03  0.57483853610E+03  0.79853635852E+02 0.  0.
         11    1    3    3    0    0 -0.25000868832E+03  0.18966944383E+03 -0.23291701369E+03  0.39080580526E+03  0.00000000000E+00 0. -1.
        -11    1    3    3    0    0 -0.49901018796E+02  0.79058201042E+02 -0.29580747777E+02  0.98057796569E+02  0.00000000000E+00 0.  1.
          2    1    6    6  502    0  0.46495235078E+02 -0.23719571554E+02  0.11169820257E+03  0.12329198440E+03  0.00000000000E+00 0. -1.
          1    1    5    5  503    0 -0.19223799318E+01  0.39773779031E+01  0.19308130675E+01  0.48211117688E+01  0.00000000000E+00 0. -1.
         -2    1    5    5    0  503 -0.36635131461E+02 -0.12886404232E+03 -0.39295880942E+03  0.41516827932E+03  0.00000000000E+00 0.  1.
         -1    1    6    6    0  502  0.29197198343E+03 -0.12012140890E+03  0.32282734761E+03  0.45154655170E+03  0.00000000000E+00 0.  1.
<mgrwt>
<rscale>  0 0.14674398E+04</rscale>
<asrwt>0</asrwt>
<pdfrwt beam="1">  1        4 0.13097629E+00 0.14674398E+04</pdfrwt>
<pdfrwt beam="2">  1       -4 0.97283949E-01 0.14674398E+04</pdfrwt>
<totfact> 0.72435670E-01</totfact>
</mgrwt>
</event>
<event>
12    1  0.1519630E-007  0.1767295E+04  0.7818608E-02  0.8723888E-01
          2   -1    0    0  501    0  0.00000000000E+00  0.00000000000E+00  0.36247083613E+04  0.36247083613E+04  0.00000000000E+00 0. -1.
         -2   -1    0    0    0  501 -0.00000000000E+00 -0.00000000000E+00 -0.21541947772E+03  0.21541947772E+03  0.00000000000E+00 0.  1.
         23    2    1    2    0    0 -0.25056651599E+03 -0.30248195956E+03  0.14219651411E+03  0.42776984495E+03  0.92131844809E+02 0.  0.
        254    2    1    2    0    0  0.25056651599E+03  0.30248195956E+03  0.32670923694E+04  0.34123579940E+04  0.90333582580E+03 0.  0.
        -24    2    4    4    0    0  0.29608149885E+03 -0.11699157556E+03  0.41966276487E+03  0.53275591622E+03  0.79754293518E+02 0.  0.
         24    2    4    4    0    0 -0.45514982857E+02  0.41947353513E+03  0.28474296046E+04  0.28796020778E+04  0.78886711268E+02 0.  0.
         13    1    3    3    0    0 -0.11077159942E+03 -0.18389421915E+03  0.41632443037E+02  0.21867942607E+03  0.00000000000E+00 0.  1.
        -13    1    3    3    0    0 -0.13979491657E+03 -0.11858774041E+03  0.10056407108E+03  0.20909041888E+03  0.00000000000E+00 0. -1.
          2    1    6    6  502    0 -0.58197280693E+02  0.40271043767E+03  0.26499347642E+04  0.26809917707E+04  0.00000000000E+00 0. -1.
          3    1    5    5  503    0  0.27521713775E+03 -0.91244057084E+02  0.34231998806E+03  0.44861222128E+03  0.00000000000E+00 0. -1.
         -4    1    5    5    0  503  0.20864361102E+02 -0.25747518479E+02  0.77342776813E+02  0.84143694934E+02  0.00000000000E+00 0.  1.
         -1    1    6    6    0  502  0.12682297836E+02  0.16763097455E+02  0.19749484034E+03  0.19861030707E+03  0.00000000000E+00 0.  1.
<mgrwt>
<rscale>  0 0.17672949E+04</rscale>
<asrwt>0</asrwt>
<pdfrwt beam="1">  1        2 0.55764740E+00 0.17672949E+04</pdfrwt>
<pdfrwt beam="2">  1       -2 0.33141461E-01 0.17672949E+04</pdfrwt>
<totfact> 0.53866263E+00</totfact>
</mgrwt>
</event>
<event>
12    1  0.1519630E-007  0.1258700E+04  0.7818608E-02  0.9062974E-01
         -2   -1    0    0    0  501 -0.00000000000E+00  0.00000000000E+00  0.39561979193E+03  0.39561979193E+03  0.00000000000E+00 0.  1.
          2   -1    0    0  501    0  0.00000000000E+00 -0.00000000000E+00 -0.10011662315E+04  0.10011662315E+04  0.00000000000E+00 0. -1.
         23    2    1    2    0    0 -0.26478338129E+03  0.12502631607E+03 -0.17452512633E+03  0.35245226194E+03  0.89564270285E+02 0.  0.
        254    2    1    2    0    0  0.26478338129E+03 -0.12502631607E+03 -0.43102131323E+03  0.10443337615E+04  0.90504796236E+03 0.  0.
        -24    2    4    4    0    0 -0.12566964057E+03  0.31255986619E+03 -0.24412952366E+03  0.42370096718E+03  0.80229400801E+02 0.  0.
         24    2    4    4    0    0  0.39045302186E+03 -0.43758618226E+03 -0.18689178958E+03  0.62063279430E+03  0.79506573061E+02 0.  0.
         13    1    3    3    0    0  0.64399767124E+01 -0.16968602773E+01 -0.56765983501E+01  0.87507944602E+01  0.00000000000E+00 0.  1.
        -13    1    3    3    0    0 -0.27122335800E+03  0.12672317635E+03 -0.16884852798E+03  0.34370146748E+03  0.00000000000E+00 0. -1.
          2    1    6    6  502    0 -0.37464122260E+01 -0.71232906010E+01 -0.38155410676E+01  0.89070324571E+01  0.00000000000E+00 0. -1.
          3    1    5    5  503    0 -0.13491792314E+02  0.84584202828E+02 -0.27948553264E+02  0.90097932593E+02  0.00000000000E+00 0. -1.
         -4    1    5    5    0  503 -0.11217784826E+03  0.22797566336E+03 -0.21618097039E+03  0.33360303459E+03  0.00000000000E+00 0.  1.
         -1    1    6    6    0  502  0.39419943408E+03 -0.43046289166E+03 -0.18307624851E+03  0.61172576184E+03  0.00000000000E+00 0.  1.
<mgrwt>
<rscale>  0 0.12586996E+04</rscale>
<asrwt>0</asrwt>
<pdfrwt beam="1">  1        2 0.15402557E+00 0.12586996E+04</pdfrwt>
<pdfrwt beam="2">  1       -2 0.60864584E-01 0.12586996E+04</pdfrwt>
<totfact> 0.62107911E+01</totfact>
</mgrwt>
</event>
<event>
12    1  0.1519630E-007  0.1748022E+04  0.7818608E-02  0.8734440E-01
          2   -1    0    0  501    0  0.00000000000E+00  0.00000000000E+00  0.22957910766E+04  0.22957910766E+04  0.00000000000E+00 0. -1.
         -2   -1    0    0    0  501 -0.00000000000E+00 -0.00000000000E+00 -0.33273737240E+03  0.33273737240E+03  0.00000000000E+00 0.  1.
         23    2    1    2    0    0  0.55893094835E+03  0.26750884593E+03  0.90405192833E+03  0.10999044356E+04  0.92277248335E+02 0.  0.
        254    2    1    2    0    0 -0.55893094835E+03 -0.26750884593E+03  0.10590017759E+04  0.15286240135E+04  0.91172464349E+03 0.  0.
        -24    2    4    4    0    0 -0.12343893647E+03 -0.19326194039E+03 -0.11655117709E+03  0.27035461433E+03  0.83187090147E+02 0.  0.
         24    2    4    4    0    0 -0.43549201188E+03 -0.74246905534E+02  0.11755529530E+04  0.12582693992E+04  0.78429842204E+02 0.  0.
         11    1    3    3    0    0  0.15995229621E+03  0.86772989361E+02  0.34133819103E+03  0.38681526521E+03  0.00000000000E+00 0. -1.
        -11    1    3    3    0    0  0.39897865214E+03  0.18073585657E+03  0.56271373730E+03  0.71308917034E+03  0.00000000000E+00 0.  1.
          4    1    6    6  502    0 -0.34618026337E+03 -0.86163489799E+02  0.98140078343E+03  0.10442281453E+04  0.00000000000E+00 0. -1.
          1    1    5    5  503    0 -0.66857150934E+02 -0.14396444405E+03 -0.11370656884E+03  0.19525579013E+03  0.00000000000E+00 0. -1.
         -2    1    5    5    0  503 -0.56581785533E+02 -0.49297496343E+02 -0.28446082470E+01  0.75098824197E+02  0.00000000000E+00 0.  1.
         -1    1    6    6    0  502 -0.89311748512E+02  0.11916584265E+02  0.19415216958E+03  0.21404125386E+03  0.00000000000E+00 0.  1.
<mgrwt>
<rscale>  0 0.17480223E+04</rscale>
<asrwt>0</asrwt>
<pdfrwt beam="1">  1        2 0.35319862E+00 0.17480223E+04</pdfrwt>
<pdfrwt beam="2">  1       -2 0.51190366E-01 0.17480223E+04</pdfrwt>
<totfact> 0.15594430E+01</totfact>
</mgrwt>
</event>
<event>
12    1  0.1519630E-007  0.1269255E+04  0.7818608E-02  0.9054308E-01
         -1   -1    0    0    0  501 -0.00000000000E+00  0.00000000000E+00  0.73145754785E+03  0.73145754785E+03  0.00000000000E+00 0.  1.
          1   -1    0    0  501    0  0.00000000000E+00 -0.00000000000E+00 -0.55061550089E+03  0.55061550089E+03  0.00000000000E+00 0. -1.
         23    2    1    2    0    0 -0.25763877045E+03 -0.11360143249E+03  0.17602930706E+03  0.34404157928E+03  0.89973717432E+02 0.  0.
        254    2    1    2    0    0  0.25763877045E+03  0.11360143249E+03  0.48127398966E+01  0.93803146945E+03  0.89476078016E+03 0.  0.
        -24    2    4    4    0    0  0.21278651061E+03 -0.27353962315E+03 -0.27689036938E+03  0.45020072714E+03  0.76879083792E+02 0.  0.
         24    2    4    4    0    0  0.44852259839E+02  0.38714105564E+03  0.28170310928E+03  0.48783074232E+03  0.82050406450E+02 0.  0.
         11    1    3    3    0    0 -0.26120311181E+03 -0.11997941632E+03  0.16702076584E+03  0.33244256975E+03  0.00000000000E+00 0.  1.
        -11    1    3    3    0    0  0.35643413629E+01  0.63779838354E+01  0.90085412180E+01  0.11599009528E+02  0.00000000000E+00 0. -1.
          2    1    6    6  502    0  0.47294363180E+02  0.16600203322E+03  0.16022335830E+03  0.23550999208E+03  0.00000000000E+00 0. -1.
          1    1    5    5  503    0  0.22688965696E+02 -0.34100620248E+02 -0.53686798919E+01  0.41309371690E+02  0.00000000000E+00 0. -1.
         -2    1    5    5    0  503  0.19009754492E+03 -0.23943900290E+03 -0.27152168949E+03  0.40889135545E+03  0.00000000000E+00 0.  1.
         -1    1    6    6    0  502 -0.24421033413E+01  0.22113902242E+03  0.12147975097E+03  0.25232075024E+03  0.00000000000E+00 0.  1.
<mgrwt>
<rscale>  0 0.12692547E+04</rscale>
<asrwt>0</asrwt>
<pdfrwt beam="1">  1        1 0.84710077E-01 0.12692547E+04</pdfrwt>
<pdfrwt beam="2">  1       -1 0.11253193E+00 0.12692547E+04</pdfrwt>
<totfact> 0.27587574E+01</totfact>
</mgrwt>
</event>
<event>
12    1  0.1519630E-007  0.1327278E+04  0.7818608E-02  0.9008209E-01
          1   -1    0    0  501    0  0.00000000000E+00  0.00000000000E+00  0.15661807499E+04  0.15661807499E+04  0.00000000000E+00 0. -1.
         -1   -1    0    0    0  501 -0.00000000000E+00 -0.00000000000E+00 -0.28120441568E+03  0.28120441568E+03  0.00000000000E+00 0.  1.
         23    2    1    2    0    0  0.95540483254E+02 -0.29504989879E+03  0.11238346475E+03  0.34036024958E+03  0.83860775262E+02 0.  0.
        254    2    1    2    0    0 -0.95540483254E+02  0.29504989879E+03  0.11725928694E+04  0.15070249160E+04  0.89440909721E+03 0.  0.
        -24    2    4    4    0    0  0.39794750734E+02  0.45273109345E+03  0.18930894733E+03  0.49897150184E+03  0.81151814151E+02 0.  0.
         24    2    4    4    0    0 -0.13533523399E+03 -0.15768119467E+03  0.98328392211E+03  0.10080534141E+04  0.78392790195E+02 0.  0.
         13    1    3    3    0    0  0.60166946263E+02 -0.20209527019E+03  0.11633423628E+03  0.24082403159E+03  0.00000000000E+00 0.  1.
        -13    1    3    3    0    0  0.35373536991E+02 -0.92954628594E+02 -0.39507715333E+01  0.99536217991E+02  0.00000000000E+00 0. -1.
          2    1    6    6  502    0 -0.11575565583E+03 -0.15208883186E+03  0.75326069596E+03  0.77713065872E+03  0.00000000000E+00 0. -1.
          3    1    5    5  503    0  0.51561691708E+02  0.41032268776E+03  0.18964423289E+03  0.45495961492E+03  0.00000000000E+00 0. -1.
         -4    1    5    5    0  503 -0.11766940975E+02  0.42408405695E+02 -0.33528555657E+00  0.44011886916E+02  0.00000000000E+00 0.  1.
         -1    1    6    6    0  502 -0.19579578156E+02 -0.55923628113E+01  0.23002322615E+03  0.23092275542E+03  0.00000000000E+00 0.  1.
<mgrwt>
<rscale>  0 0.13272783E+04</rscale>
<asrwt>0</asrwt>
<pdfrwt beam="1">  1        1 0.24095088E+00 0.13272783E+04</pdfrwt>
<pdfrwt beam="2">  1       -1 0.43262219E-01 0.13272783E+04</pdfrwt>
<totfact> 0.30422960E+01</totfact>
</mgrwt>
</event>
<event>
12    1  0.1519630E-007  0.1552305E+04  0.7818608E-02  0.8850397E-01
         -1   -1    0    0    0  501 -0.00000000000E+00  0.00000000000E+00  0.53052657121E+03  0.53052657121E+03  0.00000000000E+00 0.  1.
          1   -1    0    0  501    0  0.00000000000E+00 -0.00000000000E+00 -0.11354998090E+04  0.11354998090E+04  0.00000000000E+00 0. -1.
         23    2    1    2    0    0 -0.29680107687E+03  0.37231714461E+03 -0.32385468369E+02  0.48576638030E+03  0.90604758524E+02 0.  0.
        254    2    1    2    0    0  0.29680107687E+03 -0.37231714461E+03 -0.57258776945E+03  0.11802599999E+04  0.91566695820E+03 0.  0.
        -24    2    4    4    0    0  0.35703590513E+03 -0.12602785783E+03 -0.76149657179E+03  0.85415182361E+03  0.79628201163E+02 0.  0.
         24    2    4    4    0    0 -0.60234828267E+02 -0.24628928678E+03  0.18890880234E+03  0.32610817633E+03  0.79833324817E+02 0.  0.
         13    1    3    3    0    0 -0.20514926646E+03  0.27554272095E+03 -0.62386979699E+02  0.34914488086E+03  0.00000000000E+00 0.  1.
        -13    1    3    3    0    0 -0.91651810410E+02  0.96774423655E+02  0.30001511330E+02  0.13662149943E+03  0.00000000000E+00 0. -1.
          2    1    6    6  502    0 -0.64517322377E+02 -0.11603779699E+03  0.11862199677E+03  0.17804053846E+03  0.00000000000E+00 0. -1.
          1    1    5    5  503    0  0.33165713459E+03 -0.12566249697E+03 -0.65699742962E+03  0.74661445244E+03  0.00000000000E+00 0. -1.
         -2    1    5    5    0  503  0.25378770546E+02 -0.36536085706E+00 -0.10449914217E+03  0.10753737116E+03  0.00000000000E+00 0.  1.
         -1    1    6    6    0  502  0.42824941101E+01 -0.13025148979E+03  0.70286805567E+02  0.14806763787E+03  0.00000000000E+00 0.  1.
<mgrwt>
<rscale>  0 0.15523052E+04</rscale>
<asrwt>0</asrwt>
<pdfrwt beam="1">  1        1 0.17469228E+00 0.15523052E+04</pdfrwt>
<pdfrwt beam="2">  1       -1 0.81619474E-01 0.15523052E+04</pdfrwt>
<totfact> 0.17168763E+01</totfact>
</mgrwt>
</event>
<event>
12    1  0.1519630E-007  0.1513308E+04  0.7818608E-02  0.8875651E-01
         -2   -1    0    0    0  501 -0.00000000000E+00  0.00000000000E+00  0.28599415490E+03  0.28599415490E+03  0.00000000000E+00 0. -1.
          2   -1    0    0  501    0  0.00000000000E+00 -0.00000000000E+00 -0.20018763520E+04  0.20018763520E+04  0.00000000000E+00 0.  1.
         23    2    1    2    0    0  0.30328669579E+03 -0.36827223453E+03 -0.70918248985E+03  0.85965609875E+03  0.91986660121E+02 0.  0.
        254    2    1    2    0    0 -0.30328669579E+03  0.36827223453E+03 -0.10066997072E+04  0.14282144081E+04  0.89372525782E+03 0.  0.
        -24    2    4    4    0    0 -0.46947935678E+03  0.17471093198E+02 -0.17670792039E+03  0.50831923765E+03  0.80291049879E+02 0.  0.
         24    2    4    4    0    0  0.16619266100E+03  0.35080114133E+03 -0.82999178683E+03  0.91989517046E+03  0.81482004829E+02 0.  0.
         11    1    3    3    0    0  0.22774745795E+03 -0.28442759449E+03 -0.46583712565E+03  0.59141541132E+03  0.00000000000E+00 0.  1.
        -11    1    3    3    0    0  0.75539237834E+02 -0.83844640040E+02 -0.24334536420E+03  0.26824068743E+03  0.00000000000E+00 0. -1.
          4    1    6    6  502    0  0.11249616072E+03  0.28890029918E+03 -0.59331411513E+03  0.66943290049E+03  0.00000000000E+00 0. -1.
          1    1    5    5  503    0 -0.37380645873E+03  0.44859952111E+02 -0.12916075327E+03  0.39802786846E+03  0.00000000000E+00 0. -1.
         -2    1    5    5    0  503 -0.95672898056E+02 -0.27388858913E+02 -0.47547167118E+02  0.11029136918E+03  0.00000000000E+00 0.  1.
         -3    1    6    6    0  502  0.53696500280E+02  0.61900842153E+02 -0.23667767170E+03  0.25046226998E+03  0.00000000000E+00 0.  1.
<mgrwt>
<rscale>  0 0.15133076E+04</rscale>
<asrwt>0</asrwt>
<pdfrwt beam="1">  1        2 0.30798098E+00 0.15133076E+04</pdfrwt>
<pdfrwt beam="2">  1       -2 0.43999101E-01 0.15133076E+04</pdfrwt>
<totfact> 0.31525559E+01</totfact>
</mgrwt>
</event>
<event>
12    1  0.1519630E-007  0.2439316E+04  0.7818608E-02  0.8424929E-01
         -2   -1    0    0    0  501 -0.00000000000E+00  0.00000000000E+00  0.57030621415E+03  0.57030621415E+03  0.00000000000E+00 0.  1.
          2   -1    0    0  501    0  0.00000000000E+00 -0.00000000000E+00 -0.26083628186E+04  0.26083628186E+04  0.00000000000E+00 0. -1.
         23    2    1    2    0    0 -0.70610834883E+03 -0.30098355108E+03 -0.17918617831E+04  0.19515097973E+04  0.91878947277E+02 0.  0.
        254    2    1    2    0    0  0.70610834883E+03  0.30098355108E+03 -0.24619482139E+03  0.12271592355E+04  0.92527174432E+03 0.  0.
        -24    2    4    4    0    0  0.15806250750E+03  0.54802822176E+03 -0.81292187273E+01  0.57594258153E+03  0.79530402391E+02 0.  0.
         24    2    4    4    0    0  0.54804584133E+03 -0.24704467068E+03 -0.23806560266E+03  0.65121665394E+03  0.77605320022E+02 0.  0.
         13    1    3    3    0    0 -0.41787877242E+03 -0.20635164898E+03 -0.99109929099E+03  0.10952084167E+04  0.00000000000E+00 0. -1.
        -13    1    3    3    0    0 -0.28822957641E+03 -0.94631902106E+02 -0.80076249211E+03  0.85630138058E+03  0.00000000000E+00 0.  1.
          2    1    6    6  502    0  0.46515631699E+03 -0.17759438305E+03 -0.20002685312E+03  0.53658261815E+03  0.00000000000E+00 0. -1.
          3    1    5    5  503    0  0.14028903462E+03  0.50289654126E+03  0.14763616246E+02  0.52230633617E+03  0.00000000000E+00 0. -1.
         -4    1    5    5    0  503  0.17773472879E+02  0.45131680503E+02 -0.22892834973E+02  0.53636245360E+02  0.00000000000E+00 0.  1.
         -1    1    6    6    0  502  0.82889524338E+02 -0.69450287629E+02 -0.38038749535E+02  0.11463403580E+03  0.00000000000E+00 0.  1.
<mgrwt>
<rscale>  0 0.24393159E+04</rscale>
<asrwt>0</asrwt>
<pdfrwt beam="1">  1        2 0.40128658E+00 0.24393159E+04</pdfrwt>
<pdfrwt beam="2">  1       -2 0.87739418E-01 0.24393159E+04</pdfrwt>
<totfact> 0.30219413E+00</totfact>
</mgrwt>
</event>
<event>
12    1  0.1519630E-007  0.2442983E+04  0.7818608E-02  0.8423584E-01
         -2   -1    0    0    0  501 -0.00000000000E+00  0.00000000000E+00  0.18027572619E+04  0.18027572619E+04  0.00000000000E+00 0.  1.
          2   -1    0    0  501    0  0.00000000000E+00 -0.00000000000E+00 -0.82764404380E+03  0.82764404380E+03  0.00000000000E+00 0. -1.
         23    2    1    2    0    0  0.79136606361E+03  0.60557500100E+03  0.79160656459E+03  0.12762654806E+04  0.96079630129E+02 0.  0.
        254    2    1    2    0    0 -0.79136606361E+03 -0.60557500100E+03  0.18350665347E+03  0.13541358251E+04  0.89834726717E+03 0.  0.
        -24    2    4    4    0    0 -0.26293979315E+03  0.71647101076E+02  0.37529813942E+03  0.47065261873E+03  0.79965943720E+02 0.  0.
         24    2    4    4    0    0 -0.52842627047E+03 -0.67722210208E+03 -0.19179148595E+03  0.88348320635E+03  0.76775666464E+02 0.  0.
         13    1    3    3    0    0  0.12939064693E+02  0.28611332502E+02  0.34189832317E+02  0.46421680027E+02  0.00000000000E+00 0. -1.
        -13    1    3    3    0    0  0.77842699892E+03  0.57696366850E+03  0.75741673228E+03  0.12298438005E+04  0.00000000000E+00 0.  1.
          2    1    6    6  502    0 -0.24663822766E+03 -0.37839296518E+03 -0.10156736095E+03  0.46295526809E+03  0.00000000000E+00 0. -1.
          3    1    5    5  503    0 -0.25828205554E+03  0.75395631613E+02  0.33385843211E+03  0.42878383151E+03  0.00000000000E+00 0. -1.
         -4    1    5    5    0  503 -0.46577376061E+01 -0.37485305368E+01  0.41439707312E+02  0.41868787216E+02  0.00000000000E+00 0.  1.
         -1    1    6    6    0  502 -0.28178804280E+03 -0.29882913690E+03 -0.90224124998E+02  0.42052793826E+03  0.00000000000E+00 0.  1.
<mgrwt>
<rscale>  0 0.24429829E+04</rscale>
<asrwt>0</asrwt>
<pdfrwt beam="1">  1        2 0.12732985E+00 0.24429829E+04</pdfrwt>
<pdfrwt beam="2">  1       -2 0.27734727E+00 0.24429829E+04</pdfrwt>
<totfact> 0.12890763E+00</totfact>
</mgrwt>
</event>
<event>
12    1  0.1519630E-007  0.1772362E+04  0.7818608E-02  0.8721137E-01
          1   -1    0    0  501    0  0.00000000000E+00  0.00000000000E+00  0.12548330640E+04  0.12548330640E+04  0.00000000000E+00 0. -1.
         -1   -1    0    0    0  501 -0.00000000000E+00 -0.00000000000E+00 -0.62583359835E+03  0.62583359835E+03  0.00000000000E+00 0.  1.
         23    2    1    2    0    0 -0.27232340005E+03 -0.54020867991E+03  0.32447134261E+02  0.61336361750E+03  0.95794878192E+02 0.  0.
        254    2    1    2    0    0  0.27232340005E+03  0.54020867991E+03  0.59655233135E+03  0.12673030448E+04  0.94031743113E+03 0.  0.
        -24    2    4    4    0    0  0.24537855222E+02 -0.23340170278E+03  0.32237111656E+03  0.40640011864E+03  0.78482217317E+02 0.  0.
         24    2    4    4    0    0  0.24778554483E+03  0.77361038270E+03  0.27418121479E+03  0.86090292617E+03  0.78152474757E+02 0.  0.
         11    1    3    3    0    0 -0.99197882206E+02 -0.16682715427E+03 -0.32222997173E+02  0.19674816589E+03  0.00000000000E+00 0.  1.
        -11    1    3    3    0    0 -0.17312551784E+03 -0.37338152564E+03  0.64670131434E+02  0.41661545161E+03  0.00000000000E+00 0. -1.
          2    1    6    6  502    0 -0.47771814225E+00  0.35168341466E+01  0.86089783780E+01  0.93118658576E+01  0.00000000000E+00 0. -1.
          1    1    5    5  503    0 -0.49827211717E+01  0.46236588663E+01  0.43415373405E+01  0.80656480252E+01  0.00000000000E+00 0. -1.
         -2    1    5    5    0  503  0.29520576394E+02 -0.23802536165E+03  0.31802957922E+03  0.39833447061E+03  0.00000000000E+00 0.  1.
         -1    1    6    6    0  502  0.24826326297E+03  0.77009354855E+03  0.26557223642E+03  0.85159106032E+03  0.00000000000E+00 0.  1.
<mgrwt>
<rscale>  0 0.17723619E+04</rscale>
<asrwt>0</asrwt>
<pdfrwt beam="1">  1        1 0.19305124E+00 0.17723619E+04</pdfrwt>
<pdfrwt beam="2">  1       -1 0.96282093E-01 0.17723619E+04</pdfrwt>
<totfact> 0.95792555E+00</totfact>
</mgrwt>
</event>
<event>
12    1  0.1519630E-007  0.1897794E+04  0.7818608E-02  0.8655955E-01
          2   -1    0    0  501    0  0.00000000000E+00  0.00000000000E+00  0.65697132809E+03  0.65697132809E+03  0.00000000000E+00 0. -1.
         -2   -1    0    0    0  501 -0.00000000000E+00 -0.00000000000E+00 -0.13705398582E+04  0.13705398582E+04  0.00000000000E+00 0.  1.
         23    2    1    2    0    0 -0.64801743752E+02  0.46240553617E+03  0.32509814908E+03  0.57685415483E+03  0.95151266573E+02 0.  0.
        254    2    1    2    0    0  0.64801743752E+02 -0.46240553617E+03 -0.10386666792E+04  0.14506570315E+04  0.89864298060E+03 0.  0.
        -24    2    4    4    0    0 -0.20532465404E+03 -0.51286335581E+03 -0.10206826075E+04  0.11631900325E+04  0.77659714449E+02 0.  0.
         24    2    4    4    0    0  0.27012639779E+03  0.50457819637E+02 -0.17984071736E+02  0.28746699896E+03  0.82459604088E+02 0.  0.
         11    1    3    3    0    0 -0.22892750121E+02  0.22357129226E+03  0.21327150856E+03  0.30982726978E+03  0.00000000000E+00 0.  1.
        -11    1    3    3    0    0 -0.41908993631E+02  0.23883424391E+03  0.11182664052E+03  0.26702688505E+03  0.00000000000E+00 0. -1.
          2    1    6    6  502    0  0.27535679391E+03  0.47477175737E+02 -0.13120396885E+02  0.27972770864E+03  0.00000000000E+00 0. -1.
          3    1    5    5  503    0 -0.16304449650E+03 -0.43859671019E+03 -0.80379922312E+03  0.93007729416E+03  0.00000000000E+00 0. -1.
         -4    1    5    5    0  503 -0.42280157546E+02 -0.74266645624E+02 -0.21688338433E+03  0.23311273833E+03  0.00000000000E+00 0.  1.
         -1    1    6    6    0  502 -0.52303961136E+01  0.29806439002E+01 -0.48636748513E+01  0.77392903179E+01  0.00000000000E+00 0.  1.
<mgrwt>
<rscale>  0 0.18977939E+04</rscale>
<asrwt>0</asrwt>
<pdfrwt beam="1">  1        2 0.10107251E+00 0.18977939E+04</pdfrwt>
<pdfrwt beam="2">  1       -2 0.21085228E+00 0.18977939E+04</pdfrwt>
<totfact> 0.46964475E+00</totfact>
</mgrwt>
</event>
<event>
12    1  0.1519630E-007  0.1381016E+04  0.7818608E-02  0.8967676E-01
         -1   -1    0    0    0  501 -0.00000000000E+00  0.00000000000E+00  0.32003541635E+04  0.32003541635E+04  0.00000000000E+00 0.  1.
          1   -1    0    0  501    0  0.00000000000E+00 -0.00000000000E+00 -0.14898388872E+03  0.14898388872E+03  0.00000000000E+00 0. -1.
         23    2    1    2    0    0 -0.16978469632E+03 -0.34797138081E+03  0.87775593355E+03  0.96384601703E+03  0.92912543198E+02 0.  0.
        254    2    1    2    0    0  0.16978469632E+03  0.34797138081E+03  0.21736143413E+04  0.23854920352E+04  0.90336151157E+03 0.  0.
        -24    2    4    4    0    0 -0.12388434548E+03  0.58008287973E+03  0.12894711984E+04  0.14219031443E+04  0.85024124624E+02 0.  0.
         24    2    4    4    0    0  0.29366904180E+03 -0.23211149891E+03  0.88414314286E+03  0.96358889095E+03  0.81714133763E+02 0.  0.
         13    1    3    3    0    0 -0.10443078380E+03 -0.14602046462E+03  0.48908365527E+03  0.52099000619E+03  0.00000000000E+00 0.  1.
        -13    1    3    3    0    0 -0.65353912513E+02 -0.20195091620E+03  0.38867227828E+03  0.44285601084E+03  0.00000000000E+00 0. -1.
          2    1    6    6  502    0  0.53074172252E+02 -0.61519824183E+02  0.12415843278E+03  0.14838083757E+03  0.00000000000E+00 0. -1.
          1    1    5    5  503    0 -0.87837191359E+02  0.43054972559E+03  0.10371187156E+04  0.11263674661E+04  0.00000000000E+00 0. -1.
         -2    1    5    5    0  503 -0.36047154121E+02  0.14953315414E+03  0.25235248276E+03  0.29553567816E+03  0.00000000000E+00 0.  1.
         -1    1    6    6    0  502  0.24059486954E+03 -0.17059167473E+03  0.75998471008E+03  0.81520805338E+03  0.00000000000E+00 0.  1.
<mgrwt>
<rscale>  0 0.13810159E+04</rscale>
<asrwt>0</asrwt>
<pdfrwt beam="1">  1        1 0.22920601E-01 0.13810159E+04</pdfrwt>
<pdfrwt beam="2">  1       -1 0.49236213E+00 0.13810159E+04</pdfrwt>
<totfact> 0.35911074E-01</totfact>
</mgrwt>
</event>
<event>
12    1  0.1519630E-007  0.2679843E+04  0.7818608E-02  0.8341575E-01
          2   -1    0    0  501    0  0.00000000000E+00  0.00000000000E+00  0.16180861435E+04  0.16180861435E+04  0.00000000000E+00 0. -1.
         -2   -1    0    0    0  501 -0.00000000000E+00 -0.00000000000E+00 -0.11095760818E+04  0.11095760818E+04  0.00000000000E+00 0.  1.
         23    2    1    2    0    0  0.89060487679E+03 -0.46392836516E+03  0.87629685551E+03  0.13358182148E+04  0.90041931883E+02 0.  0.
        254    2    1    2    0    0 -0.89060487679E+03  0.46392836516E+03 -0.36778679379E+03  0.13918440105E+04  0.89081762973E+03 0.  0.
        -24    2    4    4    0    0 -0.19327383744E+03 -0.21160810366E+03  0.97309799680E+02  0.31260339969E+03  0.78223542578E+02 0.  0.
         24    2    4    4    0    0 -0.69733103935E+03  0.67553646882E+03 -0.46509659347E+03  0.10792406108E+04  0.76324017827E+02 0.  0.
         13    1    3    3    0    0  0.64018187358E+03 -0.37338128979E+03  0.62054584906E+03  0.96660414318E+03  0.00000000000E+00 0.  1.
        -13    1    3    3    0    0  0.25042300320E+03 -0.90547075368E+02  0.25575100645E+03  0.36921407163E+03  0.00000000000E+00 0. -1.
          2    1    6    6  502    0 -0.38032645920E+03  0.41726096124E+03 -0.28495673057E+03  0.63242016385E+03  0.00000000000E+00 0. -1.
          3    1    5    5  503    0 -0.14154486846E+03 -0.98064445622E+02  0.52346521452E+02  0.17997706407E+03  0.00000000000E+00 0. -1.
         -4    1    5    5    0  503 -0.51728968976E+02 -0.11354365804E+03  0.44963278228E+02  0.13262633562E+03  0.00000000000E+00 0.  1.
         -1    1    6    6    0  502 -0.31700458015E+03  0.25827550758E+03 -0.18013986290E+03  0.44682044700E+03  0.00000000000E+00 0.  1.
<mgrwt>
<rscale>  0 0.26798430E+04</rscale>
<asrwt>0</asrwt>
<pdfrwt beam="1">  1        2 0.24893633E+00 0.26798430E+04</pdfrwt>
<pdfrwt beam="2">  1       -2 0.17070401E+00 0.26798430E+04</pdfrwt>
<totfact> 0.20174725E+00</totfact>
</mgrwt>
</event>
<event>
12    1  0.1519630E-007  0.1696763E+04  0.7818608E-02  0.8763213E-01
          2   -1    0    0  501    0  0.00000000000E+00  0.00000000000E+00  0.84024814771E+03  0.84024814771E+03  0.00000000000E+00 0.  1.
         -2   -1    0    0    0  501 -0.00000000000E+00 -0.00000000000E+00 -0.85659334571E+03  0.85659334571E+03  0.00000000000E+00 0. -1.
         23    2    1    2    0    0 -0.25691266535E+03 -0.18749515237E+03  0.48328831244E+03  0.58581240492E+03  0.91924050383E+02 0.  0.
        254    2    1    2    0    0  0.25691266535E+03  0.18749515237E+03 -0.49963351044E+03  0.11110290885E+04  0.93999651114E+03 0.  0.
        -24    2    4    4    0    0 -0.29704395011E+03 -0.53849697993E+02 -0.37612640463E+03  0.48886283580E+03  0.79880546385E+02 0.  0.
         24    2    4    4    0    0  0.55395661546E+03  0.24134485036E+03 -0.12350710581E+03  0.62216625270E+03  0.81985195019E+02 0.  0.
         11    1    3    3    0    0 -0.61189848818E+02 -0.32369067620E+02  0.18049098487E+03  0.19331050089E+03  0.00000000000E+00 0.  1.
        -11    1    3    3    0    0 -0.19572281653E+03 -0.15512608475E+03  0.30279732757E+03  0.39250190403E+03  0.00000000000E+00 0. -1.
          4    1    6    6  502    0  0.41644103317E+03  0.16144234763E+03 -0.12244304769E+03  0.46311884613E+03  0.00000000000E+00 0. -1.
          1    1    5    5  503    0 -0.30150911487E+02 -0.30698729186E+02 -0.68986338885E+02  0.81305623359E+02  0.00000000000E+00 0. -1.
         -2    1    5    5    0  503 -0.26689303863E+03 -0.23150968806E+02 -0.30714006575E+03  0.40755721244E+03  0.00000000000E+00 0.  1.
         -3    1    6    6    0  502  0.13751558229E+03  0.79902502727E+02 -0.10640581176E+01  0.15904740657E+03  0.00000000000E+00 0.  1.
<mgrwt>
<rscale>  0 0.16967628E+04</rscale>
<asrwt>0</asrwt>
<pdfrwt beam="1">  1        2 0.12926895E+00 0.16967628E+04</pdfrwt>
<pdfrwt beam="2">  1       -2 0.13178359E+00 0.16967628E+04</pdfrwt>
<totfact> 0.12872563E+01</totfact>
</mgrwt>
</event>
<event>
12    1  0.1519630E-007  0.2227921E+04  0.7818608E-02  0.8506896E-01
          2   -1    0    0  501    0  0.00000000000E+00  0.00000000000E+00  0.78356667908E+03  0.78356667908E+03  0.00000000000E+00 0. -1.
         -2   -1    0    0    0  501 -0.00000000000E+00 -0.00000000000E+00 -0.15836654204E+04  0.15836654204E+04  0.00000000000E+00 0.  1.
         23    2    1    2    0    0 -0.36986013290E+03  0.47445076837E+03 -0.10942943377E+04  0.12519608710E+04  0.89587250854E+02 0.  0.
        254    2    1    2    0    0  0.36986013290E+03 -0.47445076837E+03  0.29419559640E+03  0.11152712284E+04  0.89184012834E+03 0.  0.
        -24    2    4    4    0    0  0.64905547007E+03 -0.36448903992E+03  0.29606345801E+03  0.80475693795E+03  0.76517282806E+02 0.  0.
         24    2    4    4    0    0 -0.27919533716E+03 -0.10996172845E+03 -0.18678616081E+01  0.31051429049E+03  0.79837445310E+02 0.  0.
         11    1    3    3    0    0 -0.35183593133E+03  0.47312371573E+03 -0.10698352803E+04  0.12215490575E+04  0.00000000000E+00 0.  1.
        -11    1    3    3    0    0 -0.18024201572E+02  0.13270526357E+01 -0.24459057417E+02  0.30411813506E+02  0.00000000000E+00 0. -1.
          2    1    6    6  502    0 -0.27109034236E+03 -0.87658742012E+02 -0.10911369083E+02  0.28511942541E+03  0.00000000000E+00 0. -1.
          1    1    5    5  503    0  0.57644426578E+03 -0.33946112062E+03  0.28504342632E+03  0.72716683014E+03  0.00000000000E+00 0. -1.
         -2    1    5    5    0  503  0.72611204282E+02 -0.25027919307E+02  0.11020031686E+02  0.77590107813E+02  0.00000000000E+00 0.  1.
         -1    1    6    6    0  502 -0.81049948005E+01 -0.22302986436E+02  0.90435074750E+01  0.25394865074E+02  0.00000000000E+00 0.  1.
<mgrwt>
<rscale>  0 0.22279205E+04</rscale>
<asrwt>0</asrwt>
<pdfrwt beam="1">  1        2 0.12054872E+00 0.22279205E+04</pdfrwt>
<pdfrwt beam="2">  1       -2 0.24364083E+00 0.22279205E+04</pdfrwt>
<totfact> 0.22705255E+00</totfact>
</mgrwt>
</event>
<event>
12    1  0.1519630E-007  0.1119562E+04  0.7818608E-02  0.9186333E-01
          2   -1    0    0  501    0  0.00000000000E+00  0.00000000000E+00  0.24370004085E+03  0.24370004085E+03  0.00000000000E+00 0. -1.
         -2   -1    0    0    0  501 -0.00000000000E+00 -0.00000000000E+00 -0.12858209914E+04  0.12858209914E+04  0.00000000000E+00 0.  1.
         23    2    1    2    0    0  0.75165253244E+02 -0.14721674174E+03 -0.11627155563E+03  0.22112198744E+03  0.89740037518E+02 0.  0.
        254    2    1    2    0    0 -0.75165253244E+02  0.14721674174E+03 -0.92584939490E+03  0.13083990448E+04  0.90960891269E+03 0.  0.
        -24    2    4    4    0    0 -0.95111848122E+02 -0.18482295772E+03  0.87732886391E+02  0.23869456280E+03  0.77924614871E+02 0.  0.
         24    2    4    4    0    0  0.19946594877E+02  0.33203969946E+03 -0.10135822813E+04  0.10697044820E+04  0.79185915389E+02 0.  0.
         11    1    3    3    0    0  0.16954416559E+02 -0.37336180081E+02  0.11745690662E+02  0.42654470258E+02  0.00000000000E+00 0. -1.
        -11    1    3    3    0    0  0.58210836685E+02 -0.10988056166E+03 -0.12801724630E+03  0.17846751718E+03  0.00000000000E+00 0.  1.
          2    1    6    6  502    0  0.98455116023E+01  0.13576586811E+02 -0.11686875952E+03  0.11806593395E+03  0.00000000000E+00 0. -1.
          1    1    5    5  503    0 -0.12505179208E+02 -0.77716649353E+01  0.32474602412E+02  0.35656389114E+02  0.00000000000E+00 0. -1.
         -2    1    5    5    0  503 -0.82606668914E+02 -0.17705129278E+03  0.55258283979E+02  0.20303817368E+03  0.00000000000E+00 0.  1.
         -1    1    6    6    0  502  0.10101083275E+02  0.31846311265E+03 -0.89671352177E+03  0.95163854805E+03  0.00000000000E+00 0.  1.
<mgrwt>
<rscale>  0 0.11195618E+04</rscale>
<asrwt>0</asrwt>
<pdfrwt beam="1">  1        2 0.37492314E-01 0.11195618E+04</pdfrwt>
<pdfrwt beam="2">  1       -2 0.19781862E+00 0.11195618E+04</pdfrwt>
<totfact> 0.18877209E+01</totfact>
</mgrwt>
</event>
<event>
12    1  0.1519630E-007  0.1365772E+04  0.7818608E-02  0.8978974E-01
         -2   -1    0    0    0  501 -0.00000000000E+00  0.00000000000E+00  0.29230566974E+03  0.29230566974E+03  0.00000000000E+00 0. -1.
          2   -1    0    0  501    0  0.00000000000E+00 -0.00000000000E+00 -0.15953610069E+04  0.15953610069E+04  0.00000000000E+00 0.  1.
         23    2    1    2    0    0  0.26221728237E+03 -0.25581728415E+03 -0.25401414865E+03  0.45533251261E+03  0.92758413493E+02 0.  0.
        254    2    1    2    0    0 -0.26221728237E+03  0.25581728415E+03 -0.10490411886E+04  0.14323341641E+04  0.90382152898E+03 0.  0.
        -24    2    4    4    0    0 -0.45628533262E+03 -0.17530740473E+03 -0.54809751998E+03  0.73873020107E+03  0.79890097264E+02 0.  0.
         24    2    4    4    0    0  0.19406805025E+03  0.43112468888E+03 -0.50094366858E+03  0.69360396301E+03  0.81308012648E+02 0.  0.
         13    1    3    3    0    0  0.16125616870E+03 -0.17667814460E+03 -0.11253141203E+03  0.26435210878E+03  0.00000000000E+00 0.  1.
        -13    1    3    3    0    0  0.10096111367E+03 -0.79139139554E+02 -0.14148273662E+03  0.19098040383E+03  0.00000000000E+00 0. -1.
          4    1    6    6  502    0  0.16150703572E+03  0.37620445635E+03 -0.46785084399E+03  0.62169021851E+03  0.00000000000E+00 0. -1.
          3    1    5    5  503    0 -0.29432590565E+03 -0.10361690233E+03 -0.29198643914E+03  0.42734094331E+03  0.00000000000E+00 0. -1.
         -4    1    5    5    0  503 -0.16195942698E+03 -0.71690502399E+02 -0.25611108084E+03  0.31138925776E+03  0.00000000000E+00 0.  1.
         -3    1    6    6    0  502  0.32561014538E+02  0.54920232532E+02 -0.33092824582E+02  0.71913744499E+02  0.00000000000E+00 0.  1.
<mgrwt>
<rscale>  0 0.13657717E+04</rscale>
<asrwt>0</asrwt>
<pdfrwt beam="1">  1        2 0.24544016E+00 0.13657717E+04</pdfrwt>
<pdfrwt beam="2">  1       -2 0.44970103E-01 0.13657717E+04</pdfrwt>
<totfact> 0.51318325E+01</totfact>
</mgrwt>
</event>
<event>
12    1  0.1519630E-007  0.1546834E+04  0.7818608E-02  0.8853893E-01
         -2   -1    0    0    0  501 -0.00000000000E+00  0.00000000000E+00  0.37024557975E+03  0.37024557975E+03  0.00000000000E+00 0. -1.
          2   -1    0    0  501    0  0.00000000000E+00 -0.00000000000E+00 -0.16156131838E+04  0.16156131838E+04  0.00000000000E+00 0.  1.
         23    2    1    2    0    0 -0.16314349930E+03 -0.46818031962E+03 -0.50958691570E+03  0.71668409089E+03  0.90269864543E+02 0.  0.
        254    2    1    2    0    0  0.16314349930E+03  0.46818031962E+03 -0.73578068833E+03  0.12691746726E+04  0.90753650907E+03 0.  0.
        -24    2    4    4    0    0 -0.35185887503E+03  0.22066175087E+03 -0.15429254669E+03  0.44999122032E+03  0.78674215415E+02 0.  0.
         24    2    4    4    0    0  0.51500237433E+03  0.24751856875E+03 -0.58148814164E+03  0.81918345232E+03  0.80250746041E+02 0.  0.
         11    1    3    3    0    0 -0.17337476311E+03 -0.45672979440E+03 -0.49585512066E+03  0.69608420055E+03  0.00000000000E+00 0.  1.
        -11    1    3    3    0    0  0.10231263811E+02 -0.11450525223E+02 -0.13731795036E+02  0.20599890339E+02  0.00000000000E+00 0. -1.
          2    1    6    6  502    0  0.27281566161E+03  0.10690480844E+03 -0.24944719446E+03  0.38481284557E+03  0.00000000000E+00 0. -1.
          3    1    5    5  503    0 -0.35027435770E+03  0.20469295717E+03 -0.15399230864E+03  0.43394119820E+03  0.00000000000E+00 0. -1.
         -4    1    5    5    0  503 -0.15845173315E+01  0.15968793695E+02 -0.30023805290E+00  0.16050022123E+02  0.00000000000E+00 0.  1.
         -1    1    6    6    0  502  0.24218671272E+03  0.14061376031E+03 -0.33204094718E+03  0.43437060675E+03  0.00000000000E+00 0.  1.
<mgrwt>
<rscale>  0 0.15468337E+04</rscale>
<asrwt>0</asrwt>
<pdfrwt beam="1">  1        2 0.24855587E+00 0.15468337E+04</pdfrwt>
<pdfrwt beam="2">  1       -2 0.56960860E-01 0.15468337E+04</pdfrwt>
<totfact> 0.30403394E+01</totfact>
</mgrwt>
</event>
<event>
12    1  0.1519630E-007  0.1554472E+04  0.7818608E-02  0.8849017E-01
         -1   -1    0    0    0  501 -0.00000000000E+00  0.00000000000E+00  0.35747773829E+03  0.35747773829E+03  0.00000000000E+00 0.  1.
          1   -1    0    0  501    0  0.00000000000E+00 -0.00000000000E+00 -0.16898830175E+04  0.16898830175E+04  0.00000000000E+00 0. -1.
         23    2    1    2    0    0 -0.17764697908E+02 -0.47640588557E+03 -0.64503530179E+03  0.80794673562E+03  0.97104246784E+02 0.  0.
        254    2    1    2    0    0  0.17764697908E+02  0.47640588557E+03 -0.68736997743E+03  0.12394140202E+04  0.91454440857E+03 0.  0.
        -24    2    4    4    0    0 -0.28472530852E+03 -0.19328836498E+02 -0.56973661167E+03  0.64219304003E+03  0.79812209322E+02 0.  0.
         24    2    4    4    0    0  0.30249000643E+03  0.49573472207E+03 -0.11763336576E+03  0.59722098015E+03  0.74713932688E+02 0.  0.
         11    1    3    3    0    0 -0.33840100492E+02 -0.80388169944E+02 -0.15321452651E+03  0.17630116676E+03  0.00000000000E+00 0.  1.
        -11    1    3    3    0    0  0.16075402584E+02 -0.39601771563E+03 -0.49182077528E+03  0.63164556886E+03  0.00000000000E+00 0. -1.
          4    1    6    6  502    0  0.22610590245E+03  0.30193413036E+03 -0.75941381118E+02  0.38477940637E+03  0.00000000000E+00 0. -1.
          1    1    5    5  503    0 -0.17971784763E+03  0.26565919895E+02 -0.34296150718E+03  0.38810674855E+03  0.00000000000E+00 0. -1.
         -2    1    5    5    0  503 -0.10500746089E+03 -0.45894756393E+02 -0.22677510448E+03  0.25408629148E+03  0.00000000000E+00 0.  1.
         -3    1    6    6    0  502  0.76384103979E+02  0.19380059171E+03 -0.41691984647E+02  0.21244157379E+03  0.00000000000E+00 0.  1.
<mgrwt>
<rscale>  0 0.15544717E+04</rscale>
<asrwt>0</asrwt>
<pdfrwt beam="1">  1        1 0.25998200E+00 0.15544717E+04</pdfrwt>
<pdfrwt beam="2">  1       -1 0.54996576E-01 0.15544717E+04</pdfrwt>
<totfact> 0.15584235E+01</totfact>
</mgrwt>
</event>
<event>
12    1  0.1519630E-007  0.1387341E+04  0.7818608E-02  0.8963033E-01
         -1   -1    0    0    0  501 -0.00000000000E+00  0.00000000000E+00  0.45990943840E+03  0.45990943840E+03  0.00000000000E+00 0.  1.
          1   -1    0    0  501    0  0.00000000000E+00 -0.00000000000E+00 -0.10462463636E+04  0.10462463636E+04  0.00000000000E+00 0. -1.
         23    2    1    2    0    0  0.60578059950E+01 -0.29959064166E+03  0.10040698720E+03  0.32934364742E+03  0.92706124048E+02 0.  0.
        254    2    1    2    0    0 -0.60578059950E+01  0.29959064166E+03 -0.68674391243E+03  0.11768121546E+04  0.90745710443E+03 0.  0.
        -24    2    4    4    0    0  0.41419384373E+03 -0.14172516228E+02 -0.25746676635E+03  0.49444276481E+03  0.80169267822E+02 0.  0.
         24    2    4    4    0    0 -0.42025164972E+03  0.31376315788E+03 -0.42927714609E+03  0.68236938979E+03  0.79311711819E+02 0.  0.
         13    1    3    3    0    0 -0.27260033519E+02 -0.22451150957E+03  0.99800217756E+02  0.24720155910E+03  0.00000000000E+00 0.  1.
        -13    1    3    3    0    0  0.33317839514E+02 -0.75079132090E+02  0.60676944708E+00  0.82142088325E+02  0.00000000000E+00 0. -1.
          2    1    6    6  502    0 -0.20924635476E+03  0.10986928132E+03 -0.20855039362E+03  0.31519607015E+03  0.00000000000E+00 0. -1.
          1    1    5    5  503    0  0.14564623417E+03  0.25107488066E+02 -0.63543320450E+02  0.16087561984E+03  0.00000000000E+00 0. -1.
         -2    1    5    5    0  503  0.26854760956E+03 -0.39280004294E+02 -0.19392344590E+03  0.33356714497E+03  0.00000000000E+00 0.  1.
         -1    1    6    6    0  502 -0.21100529497E+03  0.20389387656E+03 -0.22072675246E+03  0.36717331964E+03  0.00000000000E+00 0.  1.
<mgrwt>
<rscale>  0 0.13873407E+04</rscale>
<asrwt>0</asrwt>
<pdfrwt beam="1">  1        1 0.16096098E+00 0.13873407E+04</pdfrwt>
<pdfrwt beam="2">  1       -1 0.70755300E-01 0.13873407E+04</pdfrwt>
<totfact> 0.27444949E+01</totfact>
</mgrwt>
</event>
<event>
12    1  0.1519630E-007  0.1558816E+04  0.7818608E-02  0.8846256E-01
         -1   -1    0    0    0  501 -0.00000000000E+00  0.00000000000E+00  0.68395684113E+03  0.68395684113E+03  0.00000000000E+00 0.  1.
          1   -1    0    0  501    0  0.00000000000E+00 -0.00000000000E+00 -0.88817967391E+03  0.88817967391E+03  0.00000000000E+00 0. -1.
         23    2    1    2    0    0 -0.33067292328E+03 -0.30035740720E+03 -0.33782157396E+03  0.56753511559E+03  0.91725336438E+02 0.  0.
        254    2    1    2    0    0  0.33067292328E+03  0.30035740720E+03  0.13359874118E+03  0.10046013995E+04  0.88984054408E+03 0.  0.
        -24    2    4    4    0    0  0.37008561355E+03  0.58517844629E+03  0.86621470566E+02  0.70241156721E+03  0.80508106640E+02 0.  0.
         24    2    4    4    0    0 -0.39412690266E+02 -0.28482103909E+03  0.46977270612E+02  0.30218983224E+03  0.80221233445E+02 0.  0.
         11    1    3    3    0    0 -0.15949147199E+03 -0.12344135993E+03 -0.99465021076E+02  0.22487460816E+03  0.00000000000E+00 0.  1.
        -11    1    3    3    0    0 -0.17118145129E+03 -0.17691604727E+03 -0.23835655288E+03  0.34266050742E+03  0.00000000000E+00 0. -1.
          2    1    6    6  502    0 -0.36041918418E+02 -0.55860797500E+02  0.28910332997E+02  0.72493144052E+02  0.00000000000E+00 0. -1.
          3    1    5    5  503    0  0.78004846324E+02  0.71407728728E+02  0.57226388801E+01  0.10590830170E+03  0.00000000000E+00 0. -1.
         -4    1    5    5    0  503  0.29208076722E+03  0.51377071756E+03  0.80898831686E+02  0.59650326551E+03  0.00000000000E+00 0.  1.
         -1    1    6    6    0  502 -0.33707718483E+01 -0.22896024159E+03  0.18066937615E+02  0.22969668819E+03  0.00000000000E+00 0.  1.
<mgrwt>
<rscale>  0 0.15588157E+04</rscale>
<asrwt>0</asrwt>
<pdfrwt beam="1">  1        1 0.13664302E+00 0.15588157E+04</pdfrwt>
<pdfrwt beam="2">  1       -1 0.10522413E+00 0.15588157E+04</pdfrwt>
<totfact> 0.15182131E+01</totfact>
</mgrwt>
</event>
<event>
12    1  0.1519630E-007  0.2265299E+04  0.7818608E-02  0.8491730E-01
         -1   -1    0    0    0  501 -0.00000000000E+00  0.00000000000E+00  0.14691701562E+04  0.14691701562E+04  0.00000000000E+00 0.  1.
          1   -1    0    0  501    0  0.00000000000E+00 -0.00000000000E+00 -0.87321053030E+03  0.87321053030E+03  0.00000000000E+00 0. -1.
         23    2    1    2    0    0  0.79536796425E+03  0.44055573071E+03  0.54920926756E+03  0.10656049529E+04  0.84755800255E+02 0.  0.
        254    2    1    2    0    0 -0.79536796425E+03 -0.44055573071E+03  0.46750358355E+02  0.12767757336E+04  0.89513749084E+03 0.  0.
        -24    2    4    4    0    0 -0.53274873222E+03 -0.64173085450E+02  0.41483953232E+03  0.68294259833E+03  0.79870886143E+02 0.  0.
         24    2    4    4    0    0 -0.26261923203E+03 -0.37638264526E+03 -0.36808917397E+03  0.59383313528E+03  0.80718002180E+02 0.  0.
         11    1    3    3    0    0  0.18329831479E+03  0.89054758229E+02  0.84936436784E+02  0.22077866849E+03  0.00000000000E+00 0. -1.
        -11    1    3    3    0    0  0.61206964946E+03  0.35150097248E+03  0.46427283078E+03  0.84482628442E+03  0.00000000000E+00 0.  1.
          4    1    6    6  502    0 -0.22227879492E+03 -0.31841606350E+03 -0.27000085687E+03  0.47296629359E+03  0.00000000000E+00 0. -1.
          1    1    5    5  503    0 -0.80377192100E+02  0.18898104093E+02  0.64378707760E+02  0.10470076103E+03  0.00000000000E+00 0. -1.
         -2    1    5    5    0  503 -0.45237154012E+03 -0.83071189543E+02  0.35046082456E+03  0.57824183730E+03  0.00000000000E+00 0.  1.
         -3    1    6    6    0  502 -0.40340437113E+02 -0.57966581757E+02 -0.98088317100E+02  0.12086684168E+03  0.00000000000E+00 0.  1.
<mgrwt>
<rscale>  0 0.22652990E+04</rscale>
<asrwt>0</asrwt>
<pdfrwt beam="1">  1        1 0.13434008E+00 0.22652990E+04</pdfrwt>
<pdfrwt beam="2">  1       -1 0.22602618E+00 0.22652990E+04</pdfrwt>
<totfact> 0.17412960E+00</totfact>
</mgrwt>
</event>
<event>
12    1  0.1519630E-007  0.1613392E+04  0.7818608E-02  0.8812363E-01
          1   -1    0    0  501    0  0.00000000000E+00  0.00000000000E+00  0.30292022797E+03  0.30292022797E+03  0.00000000000E+00 0. -1.
         -1   -1    0    0    0  501 -0.00000000000E+00 -0.00000000000E+00 -0.21482828807E+04  0.21482828807E+04  0.00000000000E+00 0.  1.
         23    2    1    2    0    0  0.37628580115E+03 -0.31018494815E+03 -0.10313511139E+04  0.11445199124E+04  0.91842275720E+02 0.  0.
        254    2    1    2    0    0 -0.37628580115E+03  0.31018494815E+03 -0.81401153882E+03  0.13066831962E+04  0.89833205652E+03 0.  0.
        -24    2    4    4    0    0 -0.52400928240E+02 -0.23373968005E+03  0.23745861610E+02  0.25364498577E+03  0.79948843348E+02 0.  0.
         24    2    4    4    0    0 -0.32388487291E+03  0.54392462821E+03 -0.83775740043E+03  0.10530382105E+04  0.79351109823E+02 0.  0.
         13    1    3    3    0    0  0.73360038938E+02 -0.30426307415E+02 -0.11603660815E+03  0.14061276587E+03  0.00000000000E+00 0. -1.
        -13    1    3    3    0    0  0.30292576221E+03 -0.27975864074E+03 -0.91531450572E+03  0.10039071465E+04  0.00000000000E+00 0.  1.
          4    1    6    6  502    0 -0.61058422971E+01  0.55929765662E+01 -0.69473535297E+00  0.83093534188E+01  0.00000000000E+00 0. -1.
          1    1    5    5  503    0 -0.17707094800E+02 -0.93233791361E+01  0.17329358816E+02  0.26472122728E+02  0.00000000000E+00 0. -1.
         -2    1    5    5    0  503 -0.34693833440E+02 -0.22441630092E+03  0.64165027940E+01  0.22717286305E+03  0.00000000000E+00 0.  1.
         -3    1    6    6    0  502 -0.31777903061E+03  0.53833165164E+03 -0.83706266508E+03  0.10447288570E+04  0.00000000000E+00 0.  1.
<mgrwt>
<rscale>  0 0.16133919E+04</rscale>
<asrwt>0</asrwt>
<pdfrwt beam="1">  1        1 0.46603112E-01 0.16133919E+04</pdfrwt>
<pdfrwt beam="2">  1       -1 0.33050506E+00 0.16133919E+04</pdfrwt>
<totfact> 0.17389265E+00</totfact>
</mgrwt>
</event>
<event>
12    1  0.1519630E-007  0.2371058E+04  0.7818608E-02  0.8450419E-01
         -1   -1    0    0    0  501 -0.00000000000E+00  0.00000000000E+00  0.85743466424E+03  0.85743466424E+03  0.00000000000E+00 0.  1.
          1   -1    0    0  501    0  0.00000000000E+00 -0.00000000000E+00 -0.16391672307E+04  0.16391672307E+04  0.00000000000E+00 0. -1.
         23    2    1    2    0    0 -0.21529433734E+03  0.98395685145E+03 -0.22885083433E+03  0.10371113792E+04  0.93298292434E+02 0.  0.
        254    2    1    2    0    0  0.21529433734E+03 -0.98395685145E+03 -0.55288173216E+03  0.14594905157E+04  0.89995089785E+03 0.  0.
        -24    2    4    4    0    0  0.28948667873E+03 -0.10606286331E+04 -0.25266488942E+03  0.11309304006E+04  0.80177242484E+02 0.  0.
         24    2    4    4    0    0 -0.74192341397E+02  0.76671781618E+02 -0.30021684273E+03  0.32856011513E+03  0.80240457197E+02 0.  0.
         13    1    3    3    0    0 -0.18274796094E+03  0.77952689955E+03 -0.14457881478E+03  0.81361049528E+03  0.00000000000E+00 0. -1.
        -13    1    3    3    0    0 -0.32546376391E+02  0.20442995190E+03 -0.84272019555E+02  0.22350088396E+03  0.00000000000E+00 0.  1.
          4    1    6    6  502    0  0.64518749006E+01 -0.57938514610E+01 -0.21209340457E+01  0.89271364788E+01  0.00000000000E+00 0. -1.
          1    1    5    5  503    0  0.16834018386E+02 -0.49106387219E+02  0.47981669527E+01  0.52132943969E+02  0.00000000000E+00 0. -1.
         -2    1    5    5    0  503  0.27265266035E+03 -0.10115222458E+04 -0.25746305637E+03  0.10787974566E+04  0.00000000000E+00 0.  1.
         -3    1    6    6    0  502 -0.80644216297E+02  0.82465633079E+02 -0.29809590869E+03  0.31963297865E+03  0.00000000000E+00 0.  1.
<mgrwt>
<rscale>  0 0.23710578E+04</rscale>
<asrwt>0</asrwt>
<pdfrwt beam="1">  1        1 0.25217957E+00 0.23710578E+04</pdfrwt>
<pdfrwt beam="2">  1       -1 0.13191303E+00 0.23710578E+04</pdfrwt>
<totfact> 0.23027210E+00</totfact>
</mgrwt>
</event>
<event>
12    1  0.1519630E-007  0.2633892E+04  0.7818608E-02  0.8356779E-01
         -1   -1    0    0    0  501 -0.00000000000E+00  0.00000000000E+00  0.96653463922E+03  0.96653463922E+03  0.00000000000E+00 0.  1.
          1   -1    0    0  501    0  0.00000000000E+00 -0.00000000000E+00 -0.17943973436E+04  0.17943973436E+04  0.00000000000E+00 0. -1.
         23    2    1    2    0    0 -0.64481400299E+03  0.71655653680E+03 -0.10278898874E+04  0.14118884905E+04  0.87367729012E+02 0.  0.
        254    2    1    2    0    0  0.64481400299E+03 -0.71655653680E+03  0.20002718300E+03  0.13490434923E+04  0.92231724554E+03 0.  0.
        -24    2    4    4    0    0 -0.18817106831E+02 -0.45630155594E+03 -0.22450728960E+03  0.51554486652E+03  0.82569927019E+02 0.  0.
         24    2    4    4    0    0  0.66363110982E+03 -0.26025498086E+03  0.42453447260E+03  0.83349862583E+03  0.79696523428E+02 0.  0.
         11    1    3    3    0    0 -0.58498946041E+03  0.68075697509E+03 -0.94006776551E+03  0.12997577204E+04  0.00000000000E+00 0. -1.
        -11    1    3    3    0    0 -0.59824542574E+02  0.35799561715E+02 -0.87822121871E+02  0.11213077010E+03  0.00000000000E+00 0.  1.
          4    1    6    6  502    0  0.49433193431E+03 -0.17280433878E+03  0.34449911966E+03  0.62682138144E+03  0.00000000000E+00 0. -1.
          3    1    5    5  503    0 -0.51602377657E+02 -0.28530014643E+03 -0.13665340674E+03  0.32052009688E+03  0.00000000000E+00 0. -1.
         -4    1    5    5    0  503  0.32785270827E+02 -0.17100140951E+03 -0.87853882868E+02  0.19502476964E+03  0.00000000000E+00 0.  1.
         -3    1    6    6    0  502  0.16929917550E+03 -0.87450642083E+02  0.80035352943E+02  0.20667724439E+03  0.00000000000E+00 0.  1.
<mgrwt>
<rscale>  0 0.26338923E+04</rscale>
<asrwt>0</asrwt>
<pdfrwt beam="1">  1        1 0.27606113E+00 0.26338923E+04</pdfrwt>
<pdfrwt beam="2">  1       -1 0.14869764E+00 0.26338923E+04</pdfrwt>
<totfact> 0.12891317E+00</totfact>
</mgrwt>
</event>
<event>
12    1  0.1519630E-007  0.1803334E+04  0.7818608E-02  0.8704528E-01
          1   -1    0    0  501    0  0.00000000000E+00  0.00000000000E+00  0.30905104921E+04  0.30905104921E+04  0.00000000000E+00 0. -1.
         -1   -1    0    0    0  501 -0.00000000000E+00 -0.00000000000E+00 -0.26306448319E+03  0.26306448319E+03  0.00000000000E+00 0.  1.
         23    2    1    2    0    0  0.25677039236E+03 -0.40885599193E+03  0.19433213786E+03  0.52813469302E+03  0.89816577711E+02 0.  0.
        254    2    1    2    0    0 -0.25677039236E+03  0.40885599193E+03  0.26331138711E+04  0.28254402823E+04  0.90373108517E+03 0.  0.
        -24    2    4    4    0    0  0.27851596906E+03  0.33304101794E+03  0.15617258614E+04  0.16230206530E+04  0.81981152427E+02 0.  0.
         24    2    4    4    0    0 -0.53528636142E+03  0.75814973988E+02  0.10713880097E+04  0.12024196293E+04  0.75241601377E+02 0.  0.
         13    1    3    3    0    0  0.13329003046E+03 -0.24219964999E+03  0.65986903553E+02  0.28422029153E+03  0.00000000000E+00 0. -1.
        -13    1    3    3    0    0  0.12348036190E+03 -0.16665634194E+03  0.12834523431E+03  0.24391440149E+03  0.00000000000E+00 0.  1.
          4    1    6    6  502    0 -0.29081106292E+03  0.28798860458E+02  0.65587376685E+03  0.71803262233E+03  0.00000000000E+00 0. -1.
          1    1    5    5  503    0  0.26204470299E+02  0.11253384865E+02  0.57184581850E+02  0.63901403239E+02  0.00000000000E+00 0. -1.
         -2    1    5    5    0  503  0.25231149876E+03  0.32178763308E+03  0.15045412795E+04  0.15591192498E+04  0.00000000000E+00 0.  1.
         -3    1    6    6    0  502 -0.24447529850E+03  0.47016113529E+02  0.41551424282E+03  0.48438700694E+03  0.00000000000E+00 0.  1.
<mgrwt>
<rscale>  0 0.18033342E+04</rscale>
<asrwt>0</asrwt>
<pdfrwt beam="1">  1        1 0.47546313E+00 0.18033342E+04</pdfrwt>
<pdfrwt beam="2">  1       -1 0.40471461E-01 0.18033342E+04</pdfrwt>
<totfact> 0.28947234E+00</totfact>
</mgrwt>
</event>
<event>
12    1  0.1519630E-007  0.3190813E+04  0.7818608E-02  0.8191248E-01
         -1   -1    0    0    0  501 -0.00000000000E+00  0.00000000000E+00  0.31814848533E+04  0.31814848533E+04  0.00000000000E+00 0.  1.
          1   -1    0    0  501    0  0.00000000000E+00 -0.00000000000E+00 -0.80004189296E+03  0.80004189296E+03  0.00000000000E+00 0. -1.
         23    2    1    2    0    0 -0.12920100836E+04 -0.44451464761E+03  0.43179526847E+03  0.14356972736E+04  0.88860449521E+02 0.  0.
        254    2    1    2    0    0  0.12920100836E+04  0.44451464761E+03  0.19496476919E+04  0.25458294726E+04  0.90179723505E+03 0.  0.
        -24    2    4    4    0    0  0.13537841831E+04  0.29319635014E+03  0.14184052919E+04  0.19841720861E+04  0.79809653458E+02 0.  0.
         24    2    4    4    0    0 -0.61774099493E+02  0.15131829746E+03  0.53124239992E+03  0.56165738653E+03  0.80791496193E+02 0.  0.
         13    1    3    3    0    0 -0.12499323590E+04 -0.41621446695E+03  0.42642956505E+03  0.13847048633E+04  0.00000000000E+00 0.  1.
        -13    1    3    3    0    0 -0.42077724665E+02 -0.28300180659E+02  0.53657034218E+01  0.50992410332E+02  0.00000000000E+00 0. -1.
          2    1    6    6  502    0 -0.22925095083E+02  0.26434225050E+02  0.39269123109E+02  0.52596504335E+02  0.00000000000E+00 0. -1.
          1    1    5    5  503    0  0.89700583382E+02  0.30236825241E+02  0.73769946833E+02  0.12001027171E+03  0.00000000000E+00 0. -1.
         -2    1    5    5    0  503  0.12640835998E+04  0.26295952490E+03  0.13446353451E+04  0.18641618144E+04  0.00000000000E+00 0.  1.
         -3    1    6    6    0  502 -0.38849004410E+02  0.12488407241E+03  0.49197327681E+03  0.50906088219E+03  0.00000000000E+00 0.  1.
<mgrwt>
<rscale>  0 0.31908125E+04</rscale>
<asrwt>0</asrwt>
<pdfrwt beam="1">  1        1 0.12308337E+00 0.31908125E+04</pdfrwt>
<pdfrwt beam="2">  1       -1 0.48945920E+00 0.31908125E+04</pdfrwt>
<totfact> 0.32272669E-02</totfact>
</mgrwt>
</event>
<event>
12    1  0.1519630E-007  0.2741623E+04  0.7818608E-02  0.8321625E-01
          2   -1    0    0  501    0  0.00000000000E+00  0.00000000000E+00  0.11628713997E+04  0.11628713997E+04  0.00000000000E+00 0. -1.
         -2   -1    0    0    0  501 -0.00000000000E+00 -0.00000000000E+00 -0.16159347329E+04  0.16159347329E+04  0.00000000000E+00 0.  1.
         23    2    1    2    0    0  0.24756447317E+03  0.12778412120E+03  0.99647675503E+03  0.10386727835E+04  0.90875066806E+02 0.  0.
        254    2    1    2    0    0 -0.24756447317E+03 -0.12778412120E+03 -0.14495400882E+04  0.17401333491E+04  0.92156424383E+03 0.  0.
        -24    2    4    4    0    0 -0.33041101009E+03 -0.47311637617E+03 -0.10419997928E+04  0.11936104483E+04  0.77018135306E+02 0.  0.
         24    2    4    4    0    0  0.82846536918E+02  0.34533225497E+03 -0.40754029537E+03  0.54652290079E+03  0.80500147451E+02 0.  0.
         11    1    3    3    0    0  0.14350637242E+03  0.10648883169E+03  0.73576188688E+03  0.75715223329E+03  0.00000000000E+00 0. -1.
        -11    1    3    3    0    0  0.10405810075E+03  0.21295289506E+02  0.26071486815E+03  0.28152055016E+03  0.00000000000E+00 0.  1.
          4    1    6    6  502    0  0.41593537839E+02  0.17708600783E+03 -0.26888318881E+03  0.32463463430E+03  0.00000000000E+00 0. -1.
          1    1    5    5  503    0 -0.62538553009E+02 -0.47912429469E+02 -0.16453433028E+03  0.18242318205E+03  0.00000000000E+00 0. -1.
         -2    1    5    5    0  503 -0.26787245708E+03 -0.42520394670E+03 -0.87746546254E+03  0.10111872663E+04  0.00000000000E+00 0.  1.
         -3    1    6    6    0  502  0.41252999079E+02  0.16824624714E+03 -0.13865710655E+03  0.22188826649E+03  0.00000000000E+00 0.  1.
<mgrwt>
<rscale>  0 0.27416231E+04</rscale>
<asrwt>0</asrwt>
<pdfrwt beam="1">  1        2 0.17890329E+00 0.27416231E+04</pdfrwt>
<pdfrwt beam="2">  1       -2 0.24860534E+00 0.27416231E+04</pdfrwt>
<totfact> 0.11427205E+00</totfact>
</mgrwt>
</event>
<event>
12    1  0.1519630E-007  0.1336993E+04  0.7818608E-02  0.9000733E-01
          2   -1    0    0  501    0  0.00000000000E+00  0.00000000000E+00  0.21465058915E+04  0.21465058915E+04  0.00000000000E+00 0. -1.
         -2   -1    0    0    0  501 -0.00000000000E+00 -0.00000000000E+00 -0.20819289281E+03  0.20819289281E+03  0.00000000000E+00 0.  1.
         23    2    1    2    0    0 -0.33962562283E+03 -0.39608170256E+02  0.73591618058E+03  0.81639112578E+03  0.89484493515E+02 0.  0.
        254    2    1    2    0    0  0.33962562283E+03  0.39608170256E+02  0.12023968181E+04  0.15383076585E+04  0.89650319200E+03 0.  0.
        -24    2    4    4    0    0 -0.36928888414E+02  0.19742101000E+03  0.10844746711E+04  0.11057108852E+04  0.78564949700E+02 0.  0.
         24    2    4    4    0    0  0.37655451124E+03 -0.15781283974E+03  0.11792214696E+03  0.43259677332E+03  0.80846417487E+02 0.  0.
         11    1    3    3    0    0 -0.34075829316E+03 -0.32503063098E+02  0.73226661333E+03  0.80832360876E+03  0.00000000000E+00 0. -1.
        -11    1    3    3    0    0  0.11326703354E+01 -0.71051071585E+01  0.36495672457E+01  0.80675170222E+01  0.00000000000E+00 0.  1.
          2    1    6    6  502    0  0.12973735967E+03 -0.59715404127E+02  0.20788308902E+01  0.14283568715E+03  0.00000000000E+00 0. -1.
          3    1    5    5  503    0 -0.28427704747E+02  0.18444855236E+02  0.11809759426E+03  0.12286329334E+03  0.00000000000E+00 0. -1.
         -4    1    5    5    0  503 -0.85011836671E+01  0.17897615476E+03  0.96637707688E+03  0.98284759186E+03  0.00000000000E+00 0.  1.
         -3    1    6    6    0  502  0.24681715157E+03 -0.98097435612E+02  0.11584331607E+03  0.28976108617E+03  0.00000000000E+00 0.  1.
<mgrwt>
<rscale>  0 0.13369926E+04</rscale>
<asrwt>0</asrwt>
<pdfrwt beam="1">  1        2 0.33023166E+00 0.13369926E+04</pdfrwt>
<pdfrwt beam="2">  1       -2 0.32029677E-01 0.13369926E+04</pdfrwt>
<totfact> 0.49137276E+01</totfact>
</mgrwt>
</event>
<event>
12    1  0.1519630E-007  0.1493275E+04  0.7818608E-02  0.8888937E-01
         -1   -1    0    0    0  501 -0.00000000000E+00  0.00000000000E+00  0.76117621826E+03  0.76117621826E+03  0.00000000000E+00 0.  1.
          1   -1    0    0  501    0  0.00000000000E+00 -0.00000000000E+00 -0.73237645590E+03  0.73237645590E+03  0.00000000000E+00 0. -1.
         23    2    1    2    0    0 -0.13823706873E+03  0.19125798477E+03  0.41339851474E+03  0.48478975495E+03  0.91835018419E+02 0.  0.
        254    2    1    2    0    0  0.13823706873E+03 -0.19125798477E+03 -0.38459875239E+03  0.10087629192E+04  0.90221800188E+03 0.  0.
        -24    2    4    4    0    0  0.22208703167E+03 -0.51675544694E+03 -0.14288842715E+03  0.58702340717E+03  0.88433796571E+02 0.  0.
         24    2    4    4    0    0 -0.83849962945E+02  0.32549746217E+03 -0.24171032523E+03  0.42173951203E+03  0.80379851429E+02 0.  0.
         13    1    3    3    0    0 -0.12321813355E+03  0.19891012089E+03  0.39934505259E+03  0.46284383507E+03  0.00000000000E+00 0.  1.
        -13    1    3    3    0    0 -0.15018935179E+02 -0.76521361276E+01  0.14053462152E+02  0.21945919887E+02  0.00000000000E+00 0. -1.
          4    1    6    6  502    0 -0.37953078100E+02  0.18232605443E+03 -0.18067746573E+03  0.25947557281E+03  0.00000000000E+00 0. -1.
          3    1    5    5  503    0  0.35367805094E+02 -0.33781717446E+02 -0.28919091850E+02  0.56819010412E+02  0.00000000000E+00 0. -1.
         -4    1    5    5    0  503  0.18671922658E+03 -0.48297372949E+03 -0.11396933530E+03  0.53020439676E+03  0.00000000000E+00 0.  1.
         -3    1    6    6    0  502 -0.45896884845E+02  0.14317140774E+03 -0.61032859510E+02  0.16226393922E+03  0.00000000000E+00 0.  1.
<mgrwt>
<rscale>  0 0.14932750E+04</rscale>
<asrwt>0</asrwt>
<pdfrwt beam="1">  1        1 0.11267330E+00 0.14932750E+04</pdfrwt>
<pdfrwt beam="2">  1       -1 0.11710403E+00 0.14932750E+04</pdfrwt>
<totfact> 0.16168555E+01</totfact>
</mgrwt>
</event>
<event>
12    1  0.1519630E-007  0.1546084E+04  0.7818608E-02  0.8854373E-01
          2   -1    0    0  501    0  0.00000000000E+00  0.00000000000E+00  0.15815780015E+04  0.15815780015E+04  0.00000000000E+00 0. -1.
         -2   -1    0    0    0  501 -0.00000000000E+00 -0.00000000000E+00 -0.37784657243E+03  0.37784657243E+03  0.00000000000E+00 0.  1.
         23    2    1    2    0    0  0.19051110274E+03 -0.33145106626E+03  0.81271121725E+03  0.90288486628E+03  0.92451444141E+02 0.  0.
        254    2    1    2    0    0 -0.19051110274E+03  0.33145106626E+03  0.39102021180E+03  0.10565397076E+04  0.90400501002E+03 0.  0.
        -24    2    4    4    0    0 -0.12607567527E+03  0.61472199196E+03  0.10651734353E+03  0.64195021996E+03  0.83522075740E+02 0.  0.
         24    2    4    4    0    0 -0.64435427469E+02 -0.28327092570E+03  0.28450286827E+03  0.41458948766E+03  0.80921069935E+02 0.  0.
         13    1    3    3    0    0  0.12421268665E+02 -0.10151887887E+03  0.22461487237E+03  0.24680399424E+03  0.00000000000E+00 0.  1.
        -13    1    3    3    0    0  0.17808983408E+03 -0.22993218739E+03  0.58809634488E+03  0.65608087204E+03  0.00000000000E+00 0. -1.
          2    1    6    6  502    0 -0.45004380312E+02 -0.51345577752E+02  0.54309194261E+02  0.87242484967E+02  0.00000000000E+00 0. -1.
          3    1    5    5  503    0 -0.17769767044E+01  0.27349080491E+02 -0.12108354039E+02  0.29962344491E+02  0.00000000000E+00 0. -1.
         -4    1    5    5    0  503 -0.12429869857E+03  0.58737291147E+03  0.11862569757E+03  0.61198787547E+03  0.00000000000E+00 0.  1.
         -1    1    6    6    0  502 -0.19431047157E+02 -0.23192534795E+03  0.23019367401E+03  0.32734700269E+03  0.00000000000E+00 0.  1.
<mgrwt>
<rscale>  0 0.15460839E+04</rscale>
<asrwt>0</asrwt>
<pdfrwt beam="1">  1        2 0.24331969E+00 0.15460839E+04</pdfrwt>
<pdfrwt beam="2">  1       -2 0.58130243E-01 0.15460839E+04</pdfrwt>
<totfact> 0.30442287E+01</totfact>
</mgrwt>
</event>
<event>
12    1  0.1519630E-007  0.2517455E+04  0.7818608E-02  0.8396793E-01
          1   -1    0    0  501    0  0.00000000000E+00  0.00000000000E+00  0.88396439895E+03  0.88396439895E+03  0.00000000000E+00 0. -1.
         -1   -1    0    0    0  501 -0.00000000000E+00 -0.00000000000E+00 -0.17923747115E+04  0.17923747115E+04  0.00000000000E+00 0.  1.
         23    2    1    2    0    0 -0.84860989118E+03  0.61218295349E+03 -0.91455598080E+03  0.13922515335E+04  0.83934346637E+02 0.  0.
        254    2    1    2    0    0  0.84860989118E+03 -0.61218295349E+03  0.61456682585E+01  0.12840875770E+04  0.74426905089E+03 0.  0.
        -24    2    4    4    0    0  0.87913798273E+03 -0.27953649100E+03 -0.82370366482E+02  0.92962443543E+03  0.79952931103E+02 0.  0.
         24    2    4    4    0    0 -0.30528091552E+02 -0.33264646249E+03  0.88516034740E+02  0.35446314153E+03  0.78888509392E+02 0.  0.
         13    1    3    3    0    0 -0.46183611920E+03  0.36419073776E+03 -0.46920928222E+03  0.75238610100E+03  0.00000000000E+00 0. -1.
        -13    1    3    3    0    0 -0.38677377198E+03  0.24799221573E+03 -0.44534669858E+03  0.63986543249E+03  0.00000000000E+00 0.  1.
          2    1    6    6  502    0  0.24601089156E+02 -0.95309180088E+02  0.12492891646E+02  0.99222606993E+02  0.00000000000E+00 0. -1.
          3    1    5    5  503    0  0.10705791684E+03 -0.36875324390E+02  0.15987264299E+02  0.11435374819E+03  0.00000000000E+00 0. -1.
         -4    1    5    5    0  503  0.77208006590E+03 -0.24266116661E+03 -0.98357630781E+02  0.81527068724E+03  0.00000000000E+00 0.  1.
         -1    1    6    6    0  502 -0.55129180708E+02 -0.23733728240E+03  0.76023143095E+02  0.25524053453E+03  0.00000000000E+00 0.  1.
<mgrwt>
<rscale>  0 0.25174554E+04</rscale>
<asrwt>0</asrwt>
<pdfrwt beam="1">  1        1 0.13599453E+00 0.25174554E+04</pdfrwt>
<pdfrwt beam="2">  1       -1 0.27574995E+00 0.25174554E+04</pdfrwt>
<totfact> 0.78908392E-01</totfact>
</mgrwt>
</event>
<event>
12    1  0.1519630E-007  0.2254890E+04  0.7818608E-02  0.8495923E-01
         -1   -1    0    0    0  501 -0.00000000000E+00  0.00000000000E+00  0.37373293966E+03  0.37373293966E+03  0.00000000000E+00 0.  1.
          1   -1    0    0  501    0  0.00000000000E+00 -0.00000000000E+00 -0.34011792278E+04  0.34011792278E+04  0.00000000000E+00 0. -1.
         23    2    1    2    0    0 -0.29986987439E+03  0.61634447042E+03 -0.18684214016E+03  0.71636125051E+03  0.91983738315E+02 0.  0.
        254    2    1    2    0    0  0.29986987439E+03 -0.61634447042E+03 -0.28406041480E+04  0.30585509170E+04  0.90327146431E+03 0.  0.
        -24    2    4    4    0    0  0.52571139262E+03 -0.46176388736E+03 -0.11853553403E+04  0.13789577399E+04  0.82817931731E+02 0.  0.
         24    2    4    4    0    0 -0.22584151823E+03 -0.15458058305E+03 -0.16552488078E+04  0.16795931770E+04  0.79278476290E+02 0.  0.
         13    1    3    3    0    0 -0.36005602471E+02  0.61012451476E+02 -0.49364618198E+02  0.86346905992E+02  0.00000000000E+00 0. -1.
        -13    1    3    3    0    0 -0.26386427192E+03  0.55533201894E+03 -0.13747752196E+03  0.63001434452E+03  0.00000000000E+00 0.  1.
          2    1    6    6  502    0 -0.11930901552E+03 -0.63596721246E+02 -0.59741105452E+03  0.61251869539E+03  0.00000000000E+00 0. -1.
          1    1    5    5  503    0  0.37725132859E+02 -0.24522227473E+02 -0.44183859217E+02  0.63061388383E+02  0.00000000000E+00 0. -1.
         -2    1    5    5    0  503  0.48798625976E+03 -0.43724165989E+03 -0.11411714811E+04  0.13158963516E+04  0.00000000000E+00 0.  1.
         -1    1    6    6    0  502 -0.10653250271E+03 -0.90983861809E+02 -0.10578377532E+04  0.10670744817E+04  0.00000000000E+00 0.  1.
<mgrwt>
<rscale>  0 0.22548904E+04</rscale>
<asrwt>0</asrwt>
<pdfrwt beam="1">  1        1 0.52325836E+00 0.22548904E+04</pdfrwt>
<pdfrwt beam="2">  1       -1 0.57497373E-01 0.22548904E+04</pdfrwt>
<totfact> 0.83158637E-01</totfact>
</mgrwt>
</event>
<event>
12    1  0.1519630E-007  0.1933221E+04  0.7818608E-02  0.8638495E-01
         -2   -1    0    0    0  501 -0.00000000000E+00  0.00000000000E+00  0.98988082499E+03  0.98988082499E+03  0.00000000000E+00 0.  1.
          2   -1    0    0  501    0  0.00000000000E+00 -0.00000000000E+00 -0.94388686793E+03  0.94388686793E+03  0.00000000000E+00 0. -1.
         23    2    1    2    0    0  0.77379792155E+02  0.35519176393E+03  0.65321054570E+03  0.75314053861E+03  0.91585110560E+02 0.  0.
        254    2    1    2    0    0 -0.77379792155E+02 -0.35519176393E+03 -0.60721658865E+03  0.11806271543E+04  0.94499718020E+03 0.  0.
        -24    2    4    4    0    0 -0.29839140516E+03 -0.10540242308E+03 -0.74315707148E+03  0.81163806333E+03  0.79541256582E+02 0.  0.
         24    2    4    4    0    0  0.22101161301E+03 -0.24978934085E+03  0.13594048283E+03  0.36898909098E+03  0.80201536812E+02 0.  0.
         13    1    3    3    0    0  0.68370570408E+02  0.11762764953E+03  0.26593373095E+03  0.29871650120E+03  0.00000000000E+00 0.  1.
        -13    1    3    3    0    0  0.90092217469E+01  0.23756411441E+03  0.38727681475E+03  0.45442403741E+03  0.00000000000E+00 0. -1.
          4    1    6    6  502    0  0.14428515509E+03 -0.10600262766E+03  0.56945077718E+02  0.18787630219E+03  0.00000000000E+00 0. -1.
          3    1    5    5  503    0 -0.56857235615E+02 -0.19092892483E+02 -0.75604670563E+02  0.96505699293E+02  0.00000000000E+00 0. -1.
         -4    1    5    5    0  503 -0.24153416955E+03 -0.86309530602E+02 -0.66755240091E+03  0.71513236404E+03  0.00000000000E+00 0.  1.
         -3    1    6    6    0  502  0.76726457919E+02 -0.14378671319E+03  0.78995405109E+02  0.18111278879E+03  0.00000000000E+00 0.  1.
<mgrwt>
<rscale>  0 0.19332206E+04</rscale>
<asrwt>0</asrwt>
<pdfrwt beam="1">  1        2 0.14521337E+00 0.19332206E+04</pdfrwt>
<pdfrwt beam="2">  1       -2 0.15228936E+00 0.19332206E+04</pdfrwt>
<totfact> 0.73650245E+00</totfact>
</mgrwt>
</event>
<event>
12    1  0.1519630E-007  0.2132201E+04  0.7818608E-02  0.8547190E-01
         -1   -1    0    0    0  501 -0.00000000000E+00  0.00000000000E+00  0.78994462449E+03  0.78994462449E+03  0.00000000000E+00 0.  1.
          1   -1    0    0  501    0  0.00000000000E+00 -0.00000000000E+00 -0.14387975576E+04  0.14387975576E+04  0.00000000000E+00 0. -1.
         23    2    1    2    0    0  0.78532405500E+03 -0.11546998246E+03 -0.66149913241E+03  0.10365641086E+04  0.82564283591E+02 0.  0.
        254    2    1    2    0    0 -0.78532405500E+03  0.11546998246E+03  0.12646199300E+02  0.11921780734E+04  0.88941635034E+03 0.  0.
        -24    2    4    4    0    0 -0.63022596986E+03 -0.25797522626E+03  0.23363063811E+03  0.72426123213E+03  0.78962439539E+02 0.  0.
         24    2    4    4    0    0 -0.15509808514E+03  0.37344520873E+03 -0.22098443881E+03  0.46791684132E+03  0.81211503228E+02 0.  0.
         11    1    3    3    0    0  0.61805409105E+03 -0.96916151809E+02 -0.47604700856E+03  0.78613252973E+03  0.00000000000E+00 0. -1.
        -11    1    3    3    0    0  0.16726996395E+03 -0.18553830653E+02 -0.18545212386E+03  0.25043157891E+03  0.00000000000E+00 0.  1.
          4    1    6    6  502    0 -0.78126869510E+02  0.26494933515E+03 -0.17580331966E+03  0.32742749601E+03  0.00000000000E+00 0. -1.
          1    1    5    5  503    0 -0.57952611979E+03 -0.21290967945E+03  0.21695071484E+03  0.65440711166E+03  0.00000000000E+00 0. -1.
         -2    1    5    5    0  503 -0.50699850069E+02 -0.45065546818E+02  0.16679923272E+02  0.69854120475E+02  0.00000000000E+00 0.  1.
         -3    1    6    6    0  502 -0.76971215630E+02  0.10849587357E+03 -0.45181119149E+02  0.14048934531E+03  0.00000000000E+00 0.  1.
<mgrwt>
<rscale>  0 0.21322011E+04</rscale>
<asrwt>0</asrwt>
<pdfrwt beam="1">  1        1 0.22135347E+00 0.21322011E+04</pdfrwt>
<pdfrwt beam="2">  1       -1 0.12152994E+00 0.21322011E+04</pdfrwt>
<totfact> 0.39715665E+00</totfact>
</mgrwt>
</event>
<event>
12    1  0.1519630E-007  0.1189518E+04  0.7818608E-02  0.9122081E-01
          4   -1    0    0  501    0  0.00000000000E+00  0.00000000000E+00  0.60894949413E+03  0.60894949413E+03  0.00000000000E+00 0. -1.
         -4   -1    0    0    0  501 -0.00000000000E+00 -0.00000000000E+00 -0.58089911877E+03  0.58089911877E+03  0.00000000000E+00 0.  1.
         23    2    1    2    0    0  0.10571558895E+03  0.21831410830E+03  0.30530724202E+02  0.25907793241E+03  0.85746220403E+02 0.  0.
        254    2    1    2    0    0 -0.10571558895E+03 -0.21831410830E+03 -0.24803488407E+01  0.93077068048E+03  0.89860507003E+03 0.  0.
        -24    2    4    4    0    0 -0.39368592871E+03  0.12292200516E+03  0.15873596578E+03  0.44918877586E+03  0.80467507215E+02 0.  0.
         24    2    4    4    0    0  0.28797033976E+03 -0.34123611346E+03 -0.16121631462E+03  0.48158190462E+03  0.81002648379E+02 0.  0.
         13    1    3    3    0    0  0.49686300604E+02  0.13746245540E+03  0.57515991957E+02  0.15707560104E+03  0.00000000000E+00 0.  1.
        -13    1    3    3    0    0  0.56029288345E+02  0.80851652903E+02 -0.26985267755E+02  0.10200233137E+03  0.00000000000E+00 0. -1.
          2    1    6    6  502    0  0.89809325549E+02 -0.80742134272E+02 -0.78342996860E+02  0.14395357710E+03  0.00000000000E+00 0. -1.
          3    1    5    5  503    0 -0.61416768184E+01 -0.53706397720E+01  0.13732752763E+02  0.15973492547E+02  0.00000000000E+00 0. -1.
         -4    1    5    5    0  503 -0.38754425189E+03  0.12829264494E+03  0.14500321301E+03  0.43321528332E+03  0.00000000000E+00 0.  1.
         -1    1    6    6    0  502  0.19816101421E+03 -0.26049397919E+03 -0.82873317757E+02  0.33762832752E+03  0.00000000000E+00 0.  1.
<mgrwt>
<rscale>  0 0.11895179E+04</rscale>
<asrwt>0</asrwt>
<pdfrwt beam="1">  1        4 0.93684537E-01 0.11895179E+04</pdfrwt>
<pdfrwt beam="2">  1       -4 0.89369095E-01 0.11895179E+04</pdfrwt>
<totfact> 0.20406280E+00</totfact>
</mgrwt>
</event>
<event>
12    1  0.1519630E-007  0.1108491E+04  0.7818608E-02  0.9196955E-01
         -2   -1    0    0    0  501 -0.00000000000E+00  0.00000000000E+00  0.96182106906E+02  0.96182106906E+02  0.00000000000E+00 0.  1.
          2   -1    0    0  501    0  0.00000000000E+00 -0.00000000000E+00 -0.31938166428E+04  0.31938166428E+04  0.00000000000E+00 0. -1.
         23    2    1    2    0    0 -0.16146426608E+03  0.12208278751E+02 -0.48436796601E+03  0.51890298186E+03  0.91805374561E+02 0.  0.
        254    2    1    2    0    0  0.16146426608E+03 -0.12208278751E+02 -0.26132665699E+04  0.27710957679E+04  0.90751850560E+03 0.  0.
        -24    2    4    4    0    0 -0.11056454618E+03  0.24884436300E+03 -0.25776262215E+03  0.38431230982E+03  0.84299147308E+02 0.  0.
         24    2    4    4    0    0  0.27202881225E+03 -0.26105264175E+03 -0.23555039478E+04  0.23867834580E+04  0.78665565719E+02 0.  0.
         13    1    3    3    0    0 -0.36531980877E+02 -0.41219710133E+01 -0.25115278113E+03  0.25382926494E+03  0.00000000000E+00 0. -1.
        -13    1    3    3    0    0 -0.12493228520E+03  0.16330249764E+02 -0.23321518488E+03  0.26507371692E+03  0.00000000000E+00 0.  1.
          2    1    6    6  502    0  0.20796972365E+03 -0.16083865999E+03 -0.17587803174E+04  0.17783218734E+04  0.00000000000E+00 0. -1.
          3    1    5    5  503    0 -0.55585763419E+02  0.40611524118E+02 -0.50166633050E+02  0.85180772816E+02  0.00000000000E+00 0. -1.
         -4    1    5    5    0  503 -0.54978782758E+02  0.20823283888E+03 -0.20759598910E+03  0.29913153701E+03  0.00000000000E+00 0.  1.
         -1    1    6    6    0  502  0.64059088599E+02 -0.10021398176E+03 -0.59672363038E+03  0.60846158468E+03  0.00000000000E+00 0.  1.
<mgrwt>
<rscale>  0 0.11084909E+04</rscale>
<asrwt>0</asrwt>
<pdfrwt beam="1">  1        2 0.49135644E+00 0.11084909E+04</pdfrwt>
<pdfrwt beam="2">  1       -2 0.14797246E-01 0.11084909E+04</pdfrwt>
<totfact> 0.47759572E+01</totfact>
</mgrwt>
</event>
<event>
12    1  0.1519630E-007  0.1987078E+04  0.7818608E-02  0.8612686E-01
         -2   -1    0    0    0  501 -0.00000000000E+00  0.00000000000E+00  0.97926047441E+03  0.97926047441E+03  0.00000000000E+00 0.  1.
          2   -1    0    0  501    0  0.00000000000E+00 -0.00000000000E+00 -0.10080258814E+04  0.10080258814E+04  0.00000000000E+00 0. -1.
         23    2    1    2    0    0 -0.18301010204E+03 -0.60016121427E+03  0.37516602582E+03  0.73615720647E+03  0.86554636780E+02 0.  0.
        254    2    1    2    0    0  0.18301010204E+03  0.60016121427E+03 -0.40393143278E+03  0.12511291493E+04  0.10042297373E+04 0.  0.
        -24    2    4    4    0    0 -0.72997068896E+02  0.14216977950E+03  0.31206307361E+03  0.35974111173E+03  0.80557354013E+02 0.  0.
         24    2    4    4    0    0  0.25600717094E+03  0.45799143477E+03 -0.71599450639E+03  0.89138803758E+03  0.81416671932E+02 0.  0.
         13    1    3    3    0    0 -0.35629378027E+02 -0.14588542858E+03  0.13338758147E+03  0.20085880051E+03  0.00000000000E+00 0. -1.
        -13    1    3    3    0    0 -0.14738072402E+03 -0.45427578570E+03  0.24177844434E+03  0.53529840597E+03  0.00000000000E+00 0.  1.
          2    1    6    6  502    0  0.12493504695E+03  0.30031971058E+03 -0.41735360749E+03  0.52913583152E+03  0.00000000000E+00 0. -1.
          1    1    5    5  503    0 -0.32420339017E+02  0.82959256443E+02  0.24807670053E+03  0.26358180127E+03  0.00000000000E+00 0. -1.
         -2    1    5    5    0  503 -0.40576729879E+02  0.59210523062E+02  0.63986373072E+02  0.96159310458E+02  0.00000000000E+00 0.  1.
         -1    1    6    6    0  502  0.13107212399E+03  0.15767172419E+03 -0.29864089890E+03  0.36225220606E+03  0.00000000000E+00 0.  1.
<mgrwt>
<rscale>  0 0.19870782E+04</rscale>
<asrwt>0</asrwt>
<pdfrwt beam="1">  1        2 0.15508091E+00 0.19870782E+04</pdfrwt>
<pdfrwt beam="2">  1       -2 0.15065546E+00 0.19870782E+04</pdfrwt>
<totfact> 0.68554839E+00</totfact>
</mgrwt>
</event>
<event>
12    1  0.1519630E-007  0.1313615E+04  0.7818608E-02  0.9018837E-01
         -2   -1    0    0    0  501 -0.00000000000E+00  0.00000000000E+00  0.40128645734E+03  0.40128645734E+03  0.00000000000E+00 0.  1.
          2   -1    0    0  501    0  0.00000000000E+00 -0.00000000000E+00 -0.10750328054E+04  0.10750328054E+04  0.00000000000E+00 0. -1.
         23    2    1    2    0    0 -0.33507763555E+03 -0.23020715917E+02 -0.92295199161E+02  0.36034436725E+03  0.92318383943E+02 0.  0.
        254    2    1    2    0    0  0.33507763555E+03  0.23020715917E+02 -0.58145114894E+03  0.11159748955E+04  0.89135153202E+03 0.  0.
        -24    2    4    4    0    0 -0.36131599152E+02 -0.35776708579E+03 -0.71316601870E+02  0.37469719446E+03  0.77518705505E+02 0.  0.
         24    2    4    4    0    0  0.37120923471E+03  0.38078780170E+03 -0.51013454707E+03  0.74127770107E+03  0.80372433928E+02 0.  0.
         13    1    3    3    0    0 -0.48262746059E+02  0.17763969375E+02  0.11343163060E+02  0.52664206187E+02  0.00000000000E+00 0.  1.
        -13    1    3    3    0    0 -0.28681488949E+03 -0.40784685291E+02 -0.10363836222E+03  0.30768016107E+03  0.00000000000E+00 0. -1.
          2    1    6    6  502    0  0.73265116995E+02  0.12251101249E+03 -0.11839807424E+03  0.18545843074E+03  0.00000000000E+00 0. -1.
          3    1    5    5  503    0  0.44632274040E+01 -0.27826205612E+03 -0.60245314239E+02  0.28474407837E+03  0.00000000000E+00 0. -1.
         -4    1    5    5    0  503 -0.40594826556E+02 -0.79505029661E+02 -0.11071287631E+02  0.89953116090E+02  0.00000000000E+00 0.  1.
         -1    1    6    6    0  502  0.29794411771E+03  0.25827678921E+03 -0.39173647283E+03  0.55581927033E+03  0.00000000000E+00 0.  1.
<mgrwt>
<rscale>  0 0.13136150E+04</rscale>
<asrwt>0</asrwt>
<pdfrwt beam="1">  1        2 0.16538966E+00 0.13136150E+04</pdfrwt>
<pdfrwt beam="2">  1       -2 0.61736379E-01 0.13136150E+04</pdfrwt>
<totfact> 0.53901381E+01</totfact>
</mgrwt>
</event>
<event>
12    1  0.1546206E-007  0.1678085E+04  0.7818608E-02  0.8773963E-01
          2   -1    0    0  501    0  0.00000000000E+00  0.00000000000E+00  0.17960444787E+04  0.17960444787E+04  0.00000000000E+00 0.  1.
         -2   -1    0    0    0  501 -0.00000000000E+00 -0.00000000000E+00 -0.39196821587E+03  0.39196821587E+03  0.00000000000E+00 0. -1.
         23    2    1    2    0    0  0.39369517347E+03 -0.38898075255E+03  0.22154038581E+03  0.60291318323E+03  0.90123518070E+02 0.  0.
        254    2    1    2    0    0 -0.39369517347E+03  0.38898075255E+03  0.11825358770E+04  0.15850995113E+04  0.89880334051E+03 0.  0.
        -24    2    4    4    0    0  0.17532994294E+03  0.43052188757E+03  0.62756082373E+03  0.78504962344E+03  0.79878903438E+02 0.  0.
         24    2    4    4    0    0 -0.56902511641E+03 -0.41541135020E+02  0.55497505326E+03  0.80004988787E+03  0.81038659514E+02 0.  0.
         13    1    3    3    0    0  0.36868319930E+03 -0.38856046296E+03  0.21377275629E+03  0.57671945186E+03  0.00000000000E+00 0.  1.
        -13    1    3    3    0    0  0.25011974165E+02 -0.42028958988E+00  0.77676295183E+01  0.26193731374E+02  0.00000000000E+00 0. -1.
          4    1    6    6  502    0 -0.51869059415E+03 -0.42866773203E+02  0.46995518172E+03  0.70123845126E+03  0.00000000000E+00 0. -1.
          1    1    5    5  503    0  0.15522240648E+03  0.38283346901E+03  0.59341206942E+03  0.72304449697E+03  0.00000000000E+00 0. -1.
         -2    1    5    5    0  503  0.20107536462E+02  0.47688418559E+02  0.34148754304E+02  0.62005126464E+02  0.00000000000E+00 0.  1.
         -3    1    6    6    0  502 -0.50334522260E+02  0.13256381827E+01  0.85019871539E+02  0.98811436606E+02  0.00000000000E+00 0.  1.
<mgrwt>
<rscale>  0 0.16780850E+04</rscale>
<asrwt>0</asrwt>
<pdfrwt beam="1">  1        2 0.27631453E+00 0.16780850E+04</pdfrwt>
<pdfrwt beam="2">  1       -2 0.60302804E-01 0.16780850E+04</pdfrwt>
<totfact> 0.21180844E+01</totfact>
</mgrwt>
</event>
<event>
12    1  0.1519630E-007  0.1772603E+04  0.7818608E-02  0.8721006E-01
          1   -1    0    0  501    0  0.00000000000E+00  0.00000000000E+00  0.29025654556E+04  0.29025654556E+04  0.00000000000E+00 0.  1.
         -1   -1    0    0    0  501 -0.00000000000E+00 -0.00000000000E+00 -0.27063315991E+03  0.27063315991E+03  0.00000000000E+00 0. -1.
         23    2    1    2    0    0  0.61597139130E+03 -0.18734031571E+03  0.11426372833E+04  0.13146907804E+04  0.90965587825E+02 0.  0.
        254    2    1    2    0    0 -0.61597139130E+03  0.18734031571E+03  0.14892950124E+04  0.18585078351E+04  0.90638545350E+03 0.  0.
        -24    2    4    4    0    0 -0.72392181082E+03 -0.14803376624E+03  0.90266486379E+03  0.11692387858E+04  0.79615938927E+02 0.  0.
         24    2    4    4    0    0  0.10795041952E+03  0.33537408195E+03  0.58663014860E+03  0.68926904930E+03  0.82630642970E+02 0.  0.
         13    1    3    3    0    0  0.16421083022E+03 -0.22983638870E+02  0.35731405493E+03  0.39391214537E+03  0.00000000000E+00 0.  1.
        -13    1    3    3    0    0  0.45176056108E+03 -0.16435667684E+03  0.78532322835E+03  0.92077863504E+03  0.00000000000E+00 0. -1.
          2    1    6    6  502    0  0.12089577893E+03  0.31232450297E+03  0.55278309356E+03  0.64632153998E+03  0.00000000000E+00 0. -1.
          3    1    5    5  503    0 -0.51047587706E+03 -0.11553394127E+03  0.58272822249E+03  0.78326617055E+03  0.00000000000E+00 0. -1.
         -4    1    5    5    0  503 -0.21344593375E+03 -0.32499824971E+02  0.31993664130E+03  0.38597261523E+03  0.00000000000E+00 0.  1.
         -3    1    6    6    0  502 -0.12945359419E+02  0.23049578974E+02  0.33847055042E+02  0.42947509315E+02  0.00000000000E+00 0.  1.
<mgrwt>
<rscale>  0 0.17726031E+04</rscale>
<asrwt>0</asrwt>
<pdfrwt beam="1">  1        1 0.44654851E+00 0.17726031E+04</pdfrwt>
<pdfrwt beam="2">  1       -1 0.41635873E-01 0.17726031E+04</pdfrwt>
<totfact> 0.37753324E+00</totfact>
</mgrwt>
</event>
<event>
12    1  0.1519630E-007  0.1926538E+04  0.7818608E-02  0.8641758E-01
          1   -1    0    0  501    0  0.00000000000E+00  0.00000000000E+00  0.63347148923E+03  0.63347148923E+03  0.00000000000E+00 0. -1.
         -1   -1    0    0    0  501 -0.00000000000E+00 -0.00000000000E+00 -0.14647652919E+04  0.14647652919E+04  0.00000000000E+00 0.  1.
         23    2    1    2    0    0 -0.52805549713E+03 -0.53776758854E+03 -0.36523587070E+03  0.84256219956E+03  0.92071882444E+02 0.  0.
        254    2    1    2    0    0  0.52805549713E+03  0.53776758854E+03 -0.46605793192E+03  0.12556745815E+04  0.88964716122E+03 0.  0.
        -24    2    4    4    0    0  0.90849629159E+01 -0.17163370755E+03  0.92587542274E+02  0.21104574234E+03  0.80169734034E+02 0.  0.
         24    2    4    4    0    0  0.51897053422E+03  0.70940129609E+03 -0.55864547420E+03  0.10446288392E+04  0.81142045507E+02 0.  0.
         13    1    3    3    0    0 -0.10890506134E+03 -0.14795263280E+03 -0.56480443648E+02  0.19219868484E+03  0.00000000000E+00 0. -1.
        -13    1    3    3    0    0 -0.41915043579E+03 -0.38981495574E+03 -0.30875542705E+03  0.65036351472E+03  0.00000000000E+00 0.  1.
          2    1    6    6  502    0  0.37161799647E+03  0.44423586460E+03 -0.35686337151E+03  0.68029177903E+03  0.00000000000E+00 0. -1.
          1    1    5    5  503    0  0.36806718649E+01 -0.12371483432E+03  0.10380271418E+03  0.16153609828E+03  0.00000000000E+00 0. -1.
         -2    1    5    5    0  503  0.54042910510E+01 -0.47918873230E+02 -0.11215171910E+02  0.49509644054E+02  0.00000000000E+00 0.  1.
         -1    1    6    6    0  502  0.14735253775E+03  0.26516543150E+03 -0.20178210269E+03  0.36433706016E+03  0.00000000000E+00 0.  1.
<mgrwt>
<rscale>  0 0.19265379E+04</rscale>
<asrwt>0</asrwt>
<pdfrwt beam="1">  1        1 0.97457153E-01 0.19265379E+04</pdfrwt>
<pdfrwt beam="2">  1       -1 0.22534851E+00 0.19265379E+04</pdfrwt>
<totfact> 0.29931309E+00</totfact>
</mgrwt>
</event>
<event>
12    1  0.1519630E-007  0.1792657E+04  0.7818608E-02  0.8710214E-01
         -1   -1    0    0    0  501 -0.00000000000E+00  0.00000000000E+00  0.25746380593E+04  0.25746380593E+04  0.00000000000E+00 0.  1.
          1   -1    0    0  501    0  0.00000000000E+00 -0.00000000000E+00 -0.31204574361E+03  0.31204574361E+03  0.00000000000E+00 0. -1.
         23    2    1    2    0    0  0.22594851925E+03  0.56059582538E+03  0.13018372069E+04  0.14379165323E+04  0.86622327767E+02 0.  0.
        254    2    1    2    0    0 -0.22594851925E+03 -0.56059582538E+03  0.96075510875E+03  0.14487672706E+04  0.90030873185E+03 0.  0.
        -24    2    4    4    0    0  0.13918314411E+02 -0.63383014242E+03  0.99666238525E+03  0.11838644086E+04  0.79149598677E+02 0.  0.
         24    2    4    4    0    0 -0.23986683366E+03  0.73234317038E+02 -0.35907276498E+02  0.26490286198E+03  0.77361687522E+02 0.  0.
         11    1    3    3    0    0  0.31107598233E+01  0.55600000216E+02  0.83409911709E+02  0.10029082820E+03  0.00000000000E+00 0. -1.
        -11    1    3    3    0    0  0.22283775942E+03  0.50499582516E+03  0.12184272952E+04  0.13376257041E+04  0.00000000000E+00 0.  1.
          2    1    6    6  502    0 -0.98675177055E+02  0.69732580156E+02 -0.93192426841E+01  0.12118692828E+03  0.00000000000E+00 0. -1.
          1    1    5    5  503    0 -0.20375480814E+02 -0.29982640825E+03  0.41741564151E+03  0.51434118353E+03  0.00000000000E+00 0. -1.
         -2    1    5    5    0  503  0.34293795226E+02 -0.33400373417E+03  0.57924674374E+03  0.66952322511E+03  0.00000000000E+00 0.  1.
         -1    1    6    6    0  502 -0.14119165660E+03  0.35017368816E+01 -0.26588033814E+02  0.14371593369E+03  0.00000000000E+00 0.  1.
<mgrwt>
<rscale>  0 0.17926571E+04</rscale>
<asrwt>0</asrwt>
<pdfrwt beam="1">  1        1 0.48007039E-01 0.17926571E+04</pdfrwt>
<pdfrwt beam="2">  1       -1 0.39609815E+00 0.17926571E+04</pdfrwt>
<totfact> 0.60000177E-01</totfact>
</mgrwt>
</event>
<event>
12    1  0.1519630E-007  0.2000678E+04  0.7818608E-02  0.8606304E-01
         -2   -1    0    0    0  501 -0.00000000000E+00  0.00000000000E+00  0.33355106953E+03  0.33355106953E+03  0.00000000000E+00 0. -1.
          2   -1    0    0  501    0  0.00000000000E+00 -0.00000000000E+00 -0.30000746043E+04  0.30000746043E+04  0.00000000000E+00 0.  1.
         23    2    1    2    0    0  0.11535701243E+03  0.25805393245E+03  0.17187756877E+03  0.33916085858E+03  0.74760397084E+02 0.  0.
        254    2    1    2    0    0 -0.11535701243E+03 -0.25805393245E+03 -0.28384011036E+04  0.29944648153E+04  0.91126265851E+03 0.  0.
        -24    2    4    4    0    0 -0.39190174357E+03 -0.41601961686E+03 -0.22272709012E+04  0.23007814552E+04  0.78742231495E+02 0.  0.
         24    2    4    4    0    0  0.27654473114E+03  0.15796568440E+03 -0.61113020237E+03  0.69368336007E+03  0.79286405068E+02 0.  0.
         13    1    3    3    0    0  0.12030765469E+03  0.22748858762E+03  0.13368714675E+03  0.28999524561E+03  0.00000000000E+00 0. -1.
        -13    1    3    3    0    0 -0.49506422547E+01  0.30565344831E+02  0.38190422026E+02  0.49165612962E+02  0.00000000000E+00 0.  1.
          2    1    6    6  502    0  0.26240765496E+03  0.16134181212E+03 -0.54552520722E+03  0.62648759719E+03  0.00000000000E+00 0. -1.
          1    1    5    5  503    0 -0.33509324782E+03 -0.32840638906E+03 -0.19093182932E+04  0.19661217118E+04  0.00000000000E+00 0. -1.
         -2    1    5    5    0  503 -0.56808495757E+02 -0.87613227800E+02 -0.31795260803E+03  0.33465974336E+03  0.00000000000E+00 0.  1.
         -3    1    6    6    0  502  0.14137076176E+02 -0.33761277169E+01 -0.65604995151E+02  0.67195762886E+02  0.00000000000E+00 0.  1.
<mgrwt>
<rscale>  0 0.20006780E+04</rscale>
<asrwt>0</asrwt>
<pdfrwt beam="1">  1        2 0.46154995E+00 0.20006780E+04</pdfrwt>
<pdfrwt beam="2">  1       -2 0.51315548E-01 0.20006780E+04</pdfrwt>
<totfact> 0.58173680E+00</totfact>
</mgrwt>
</event>
<event>
12    1  0.1519630E-007  0.1456055E+04  0.7818608E-02  0.8914214E-01
          2   -1    0    0  501    0  0.00000000000E+00  0.00000000000E+00  0.13758806401E+04  0.13758806401E+04  0.00000000000E+00 0. -1.
         -2   -1    0    0    0  501 -0.00000000000E+00 -0.00000000000E+00 -0.38522505456E+03  0.38522505456E+03  0.00000000000E+00 0.  1.
         23    2    1    2    0    0 -0.10356477299E+02 -0.44046524245E+03  0.23564027205E+03  0.50709781150E+03  0.86631207926E+02 0.  0.
        254    2    1    2    0    0  0.10356477299E+02  0.44046524245E+03  0.75501531352E+03  0.12540078832E+04  0.89909441163E+03 0.  0.
        -24    2    4    4    0    0  0.44536493984E+03  0.27157985401E+03  0.40108271987E+03  0.66288757210E+03  0.80293451345E+02 0.  0.
         24    2    4    4    0    0 -0.43500846254E+03  0.16888538843E+03  0.35393259365E+03  0.59112031108E+03  0.80001902590E+02 0.  0.
         13    1    3    3    0    0  0.27066118707E+02 -0.93876915662E+02  0.29276406915E+02  0.10199293151E+03  0.00000000000E+00 0. -1.
        -13    1    3    3    0    0 -0.37422596007E+02 -0.34658832678E+03  0.20636386514E+03  0.40510487999E+03  0.00000000000E+00 0.  1.
          2    1    6    6  502    0 -0.28706711337E+03  0.14198339573E+03  0.27016703154E+03  0.41899527106E+03  0.00000000000E+00 0. -1.
          1    1    5    5  503    0  0.14090926391E+03  0.12814775205E+03  0.16225280169E+03  0.25020639214E+03  0.00000000000E+00 0. -1.
         -2    1    5    5    0  503  0.30445567593E+03  0.14343210196E+03  0.23882991818E+03  0.41268117997E+03  0.00000000000E+00 0.  1.
         -1    1    6    6    0  502 -0.14794134917E+03  0.26901992701E+02  0.83765562107E+02  0.17212504002E+03  0.00000000000E+00 0.  1.
<mgrwt>
<rscale>  0 0.14560545E+04</rscale>
<asrwt>0</asrwt>
<pdfrwt beam="1">  1        2 0.21167394E+00 0.14560545E+04</pdfrwt>
<pdfrwt beam="2">  1       -2 0.59265394E-01 0.14560545E+04</pdfrwt>
<totfact> 0.38492260E+01</totfact>
</mgrwt>
</event>
<event>
12    1  0.1519630E-007  0.1778647E+04  0.7818608E-02  0.8717738E-01
          2   -1    0    0  501    0  0.00000000000E+00  0.00000000000E+00  0.37613701651E+04  0.37613701651E+04  0.00000000000E+00 0. -1.
         -2   -1    0    0    0  501 -0.00000000000E+00 -0.00000000000E+00 -0.21026803723E+03  0.21026803723E+03  0.00000000000E+00 0.  1.
         23    2    1    2    0    0 -0.53618450195E+03  0.85984711694E+02  0.50247950619E+03  0.74496181328E+03  0.87150779228E+02 0.  0.
        254    2    1    2    0    0  0.53618450195E+03 -0.85984711694E+02  0.30486226216E+04  0.32266763890E+04  0.90689218734E+03 0.  0.
        -24    2    4    4    0    0  0.40073556667E+03 -0.26988176400E+02  0.39953223458E+03  0.57226819768E+03  0.80916794022E+02 0.  0.
         24    2    4    4    0    0  0.13544893529E+03 -0.58996535294E+02  0.26490903871E+04  0.26544081913E+04  0.79849621913E+02 0.  0.
         13    1    3    3    0    0 -0.48671059876E+03  0.51005708368E+02  0.44523588981E+03  0.66160697306E+03  0.00000000000E+00 0.  1.
        -13    1    3    3    0    0 -0.49473903197E+02  0.34979003325E+02  0.57243616384E+02  0.83354840219E+02  0.00000000000E+00 0. -1.
          2    1    6    6  502    0  0.11909969886E+03 -0.78139394910E+02  0.21892532735E+04  0.21938824943E+04  0.00000000000E+00 0. -1.
          3    1    5    5  503    0  0.69165608981E+02  0.25349774377E+02  0.81518955268E+02  0.10987189174E+03  0.00000000000E+00 0. -1.
         -4    1    5    5    0  503  0.33156995769E+03 -0.52337950776E+02  0.31801327931E+03  0.46239630594E+03  0.00000000000E+00 0.  1.
         -1    1    6    6    0  502  0.16349236426E+02  0.19142859616E+02  0.45983711354E+03  0.46052569700E+03  0.00000000000E+00 0.  1.
<mgrwt>
<rscale>  0 0.17786466E+04</rscale>
<asrwt>0</asrwt>
<pdfrwt beam="1">  1        2 0.57867228E+00 0.17786466E+04</pdfrwt>
<pdfrwt beam="2">  1       -2 0.32348932E-01 0.17786466E+04</pdfrwt>
<totfact> 0.44735871E+00</totfact>
</mgrwt>
</event>
<event>
12    1  0.1519630E-007  0.1882584E+04  0.7818608E-02  0.8663574E-01
         -2   -1    0    0    0  501 -0.00000000000E+00  0.00000000000E+00  0.42242349983E+03  0.42242349983E+03  0.00000000000E+00 0.  1.
          2   -1    0    0  501    0  0.00000000000E+00 -0.00000000000E+00 -0.20974942905E+04  0.20974942905E+04  0.00000000000E+00 0. -1.
         23    2    1    2    0    0 -0.42545027401E+03 -0.49497281854E+03 -0.10569254062E+04  0.12456067459E+04  0.91863073785E+02 0.  0.
        254    2    1    2    0    0  0.42545027401E+03  0.49497281854E+03 -0.61814538444E+03  0.12743110444E+04  0.90319371947E+03 0.  0.
        -24    2    4    4    0    0  0.38697183985E+03  0.25452586443E+03 -0.82186307348E+03  0.94692038781E+03  0.81662040140E+02 0.  0.
         24    2    4    4    0    0  0.38478434161E+02  0.24044695411E+03  0.20371768904E+03  0.32739065662E+03  0.79927577061E+02 0.  0.
         11    1    3    3    0    0 -0.11439894547E+03 -0.19893655042E+03 -0.38401847771E+03  0.44736233753E+03  0.00000000000E+00 0. -1.
        -11    1    3    3    0    0 -0.31105132854E+03 -0.29603626812E+03 -0.67290692848E+03  0.79824440833E+03  0.00000000000E+00 0.  1.
          4    1    6    6  502    0  0.41737776785E+01  0.46780399600E+02  0.40801768237E+01  0.47143123038E+02  0.00000000000E+00 0. -1.
          1    1    5    5  503    0  0.90786105234E+02  0.22119121412E+02 -0.17931685527E+03  0.20220263850E+03  0.00000000000E+00 0. -1.
         -2    1    5    5    0  503  0.29618573462E+03  0.23240674302E+03 -0.64254621822E+03  0.74471774931E+03  0.00000000000E+00 0.  1.
         -3    1    6    6    0  502  0.34304656482E+02  0.19366655451E+03  0.19963751222E+03  0.28024753358E+03  0.00000000000E+00 0.  1.
<mgrwt>
<rscale>  0 0.18825843E+04</rscale>
<asrwt>0</asrwt>
<pdfrwt beam="1">  1        2 0.32269143E+00 0.18825843E+04</pdfrwt>
<pdfrwt beam="2">  1       -2 0.64988230E-01 0.18825843E+04</pdfrwt>
<totfact> 0.12074743E+01</totfact>
</mgrwt>
</event>
<event>
12    1  0.1519630E-007  0.1409064E+04  0.7818608E-02  0.8947284E-01
         -2   -1    0    0    0  501 -0.00000000000E+00  0.00000000000E+00  0.39273958855E+03  0.39273958855E+03  0.00000000000E+00 0.  1.
          2   -1    0    0  501    0  0.00000000000E+00 -0.00000000000E+00 -0.12638535779E+04  0.12638535779E+04  0.00000000000E+00 0. -1.
         23    2    1    2    0    0  0.21036336078E+03 -0.34529601023E+03 -0.33750075871E+03  0.53483702276E+03  0.93068794648E+02 0.  0.
        254    2    1    2    0    0 -0.21036336078E+03  0.34529601023E+03 -0.53361323061E+03  0.11217561437E+04  0.90006204658E+03 0.  0.
        -24    2    4    4    0    0 -0.16745077479E+03 -0.28948052693E+03 -0.21532468599E+03  0.40596976536E+03  0.81289559850E+02 0.  0.
         24    2    4    4    0    0 -0.42912585996E+02  0.63477653716E+03 -0.31828854461E+03  0.71578637829E+03  0.79118894990E+02 0.  0.
         13    1    3    3    0    0  0.11292826138E+03 -0.12564373632E+03 -0.96706797047E+02  0.19465699394E+03  0.00000000000E+00 0.  1.
        -13    1    3    3    0    0  0.97435099402E+02 -0.21965227392E+03 -0.24079396167E+03  0.34018002882E+03  0.00000000000E+00 0. -1.
          4    1    6    6  502    0 -0.60027161818E+02  0.54673184132E+03 -0.28970427956E+03  0.62164904574E+03  0.00000000000E+00 0. -1.
          3    1    5    5  503    0 -0.68188014148E+02 -0.17937465412E+03 -0.90480443141E+02  0.21215933259E+03  0.00000000000E+00 0. -1.
         -4    1    5    5    0  503 -0.99262760639E+02 -0.11010587281E+03 -0.12484424285E+03  0.19381043277E+03  0.00000000000E+00 0.  1.
         -3    1    6    6    0  502  0.17114575822E+02  0.88044695842E+02 -0.28584265047E+02  0.94137332551E+02  0.00000000000E+00 0.  1.
<mgrwt>
<rscale>  0 0.14090640E+04</rscale>
<asrwt>0</asrwt>
<pdfrwt beam="1">  1        2 0.19443901E+00 0.14090640E+04</pdfrwt>
<pdfrwt beam="2">  1       -2 0.60421475E-01 0.14090640E+04</pdfrwt>
<totfact> 0.43082327E+01</totfact>
</mgrwt>
</event>
<event>
12    1  0.1519630E-007  0.1678518E+04  0.7818608E-02  0.8773712E-01
          2   -1    0    0  501    0  0.00000000000E+00  0.00000000000E+00  0.21319569004E+04  0.21319569004E+04  0.00000000000E+00 0. -1.
         -2   -1    0    0    0  501 -0.00000000000E+00 -0.00000000000E+00 -0.33037980833E+03  0.33037980833E+03  0.00000000000E+00 0.  1.
         23    2    1    2    0    0  0.76101339859E+02 -0.24911096282E+03 -0.13816705785E+03  0.30762265919E+03  0.87714758419E+02 0.  0.
        254    2    1    2    0    0 -0.76101339859E+02  0.24911096282E+03  0.19397441499E+04  0.21547140495E+04  0.90129772129E+03 0.  0.
        -24    2    4    4    0    0 -0.41954183923E+03  0.16317556599E+03  0.15738761521E+04  0.16388494165E+04  0.78100242786E+02 0.  0.
         24    2    4    4    0    0  0.34344049937E+03  0.85935396836E+02  0.36586799783E+03  0.51586463295E+03  0.83190496219E+02 0.  0.
         11    1    3    3    0    0  0.38751175609E+02 -0.42380686232E+02 -0.23680376751E+01  0.57475070935E+02  0.00000000000E+00 0. -1.
        -11    1    3    3    0    0  0.37350164251E+02 -0.20673027659E+03 -0.13579902017E+03  0.25014758825E+03  0.00000000000E+00 0.  1.
          4    1    6    6  502    0  0.79127431709E+02  0.54730221893E+02  0.78409200579E+02  0.12411506908E+03  0.00000000000E+00 0. -1.
          3    1    5    5  503    0 -0.46645805131E+02  0.16177529376E+02  0.27970146064E+03  0.28402544020E+03  0.00000000000E+00 0. -1.
         -4    1    5    5    0  503 -0.37289603410E+03  0.14699803661E+03  0.12941746914E+04  0.13548239764E+04  0.00000000000E+00 0.  1.
         -3    1    6    6    0  502  0.26431306766E+03  0.31205174943E+02  0.28745879725E+03  0.39174956387E+03  0.00000000000E+00 0.  1.
<mgrwt>
<rscale>  0 0.16785178E+04</rscale>
<asrwt>0</asrwt>
<pdfrwt beam="1">  1        2 0.32799336E+00 0.16785178E+04</pdfrwt>
<pdfrwt beam="2">  1       -2 0.50827664E-01 0.16785178E+04</pdfrwt>
<totfact> 0.19674395E+01</totfact>
</mgrwt>
</event>
<event>
12    1  0.1519630E-007  0.1223723E+04  0.7818608E-02  0.9092341E-01
          2   -1    0    0  501    0  0.00000000000E+00  0.00000000000E+00  0.43494912275E+04  0.43494912275E+04  0.00000000000E+00 0. -1.
         -2   -1    0    0    0  501 -0.00000000000E+00 -0.00000000000E+00 -0.86073186635E+02  0.86073186635E+02  0.00000000000E+00 0.  1.
         23    2    1    2    0    0  0.11218156768E+03  0.83594847838E+02  0.15109732765E+03  0.22444939945E+03  0.89299091679E+02 0.  0.
        254    2    1    2    0    0 -0.11218156768E+03 -0.83594847838E+02  0.41123207132E+04  0.42111150147E+04  0.89595491846E+03 0.  0.
        -24    2    4    4    0    0 -0.14569934019E+03  0.38432991384E+03  0.15929938592E+04  0.16471642746E+04  0.81135267986E+02 0.  0.
         24    2    4    4    0    0  0.33517772505E+02 -0.46792476168E+03  0.25193268540E+04  0.25639507401E+04  0.82210562128E+02 0.  0.
         13    1    3    3    0    0  0.17469592425E+02 -0.11819172842E+02  0.55816743830E+02  0.59668990254E+02  0.00000000000E+00 0. -1.
        -13    1    3    3    0    0  0.94711975259E+02  0.95414020680E+02  0.95280583821E+02  0.16478040919E+03  0.00000000000E+00 0.  1.
          4    1    6    6  502    0  0.60199050430E+02 -0.36577445326E+03  0.19616696799E+04  0.19963874397E+04  0.00000000000E+00 0. -1.
          3    1    5    5  503    0 -0.95480969659E+02  0.20289442594E+03  0.10073504154E+04  0.10320066003E+04  0.00000000000E+00 0. -1.
         -4    1    5    5    0  503 -0.50218370531E+02  0.18143548789E+03  0.58564344379E+03  0.61515767431E+03  0.00000000000E+00 0.  1.
         -3    1    6    6    0  502 -0.26681277925E+02 -0.10215030841E+03  0.55765717415E+03  0.56756330042E+03  0.00000000000E+00 0.  1.
<mgrwt>
<rscale>  0 0.12237231E+04</rscale>
<asrwt>0</asrwt>
<pdfrwt beam="1">  1        2 0.66915233E+00 0.12237231E+04</pdfrwt>
<pdfrwt beam="2">  1       -2 0.13242032E-01 0.12237231E+04</pdfrwt>
<totfact> 0.76697524E+00</totfact>
</mgrwt>
</event>
<event>
12    1  0.1604585E-007  0.1492675E+04  0.7818608E-02  0.8889339E-01
         -1   -1    0    0    0  501 -0.00000000000E+00  0.00000000000E+00  0.70754579099E+03  0.70754579099E+03  0.00000000000E+00 0.  1.
          1   -1    0    0  501    0  0.00000000000E+00 -0.00000000000E+00 -0.78725580940E+03  0.78725580940E+03  0.00000000000E+00 0. -1.
         23    2    1    2    0    0  0.45176169451E+03  0.14820001022E+03 -0.77577598693E+02  0.48994069492E+03  0.89284539923E+02 0.  0.
        254    2    1    2    0    0 -0.45176169451E+03 -0.14820001022E+03 -0.21324197167E+01  0.10048609055E+04  0.88526211965E+03 0.  0.
        -24    2    4    4    0    0 -0.51693924715E+03  0.70059356322E+02 -0.31113240963E+03  0.61279316287E+03  0.81102314894E+02 0.  0.
         24    2    4    4    0    0  0.65177552646E+02 -0.21825936654E+03  0.30899998992E+03  0.39206774260E+03  0.79692261672E+02 0.  0.
         13    1    3    3    0    0  0.42838745954E+03  0.15932774738E+03 -0.79747397684E+02  0.46396206096E+03  0.00000000000E+00 0.  1.
        -13    1    3    3    0    0  0.23374234969E+02 -0.11127737163E+02  0.21697989906E+01  0.25978633960E+02  0.00000000000E+00 0. -1.
          4    1    6    6  502    0  0.10478884625E+00 -0.47061485969E+02  0.11994583107E+03  0.12884796015E+03  0.00000000000E+00 0. -1.
          1    1    5    5  503    0 -0.60138858457E+02 -0.17787729059E+02 -0.39629291123E+02  0.74186025076E+02  0.00000000000E+00 0. -1.
         -2    1    5    5    0  503 -0.45680038870E+03  0.87847085381E+02 -0.27150311851E+03  0.53860713780E+03  0.00000000000E+00 0.  1.
         -3    1    6    6    0  502  0.65072763800E+02 -0.17119788057E+03  0.18905415885E+03  0.26321978246E+03  0.00000000000E+00 0.  1.
<mgrwt>
<rscale>  0 0.14926748E+04</rscale>
<asrwt>0</asrwt>
<pdfrwt beam="1">  1        1 0.12111628E+00 0.14926748E+04</pdfrwt>
<pdfrwt beam="2">  1       -1 0.10885320E+00 0.14926748E+04</pdfrwt>
<totfact> 0.17184752E+01</totfact>
</mgrwt>
</event>
<event>
12    1  0.1519630E-007  0.1749549E+04  0.7818608E-02  0.8733599E-01
          2   -1    0    0  501    0  0.00000000000E+00  0.00000000000E+00  0.30853483767E+04  0.30853483767E+04  0.00000000000E+00 0. -1.
         -2   -1    0    0    0  501 -0.00000000000E+00 -0.00000000000E+00 -0.24802070165E+03  0.24802070165E+03  0.00000000000E+00 0.  1.
         23    2    1    2    0    0  0.53188010000E+03 -0.46807423230E+02  0.40634399850E+03  0.67726742689E+03  0.92132224350E+02 0.  0.
        254    2    1    2    0    0 -0.53188010000E+03  0.46807423230E+02  0.24309836766E+04  0.26561016515E+04  0.92741952297E+03 0.  0.
        -24    2    4    4    0    0 -0.27570330549E+03 -0.39642490188E+03  0.73655659809E+03  0.88430197533E+03  0.79431391056E+02 0.  0.
         24    2    4    4    0    0 -0.25617679451E+03  0.44323232511E+03  0.16944270785E+04  0.17717996762E+04  0.78163444551E+02 0.  0.
         11    1    3    3    0    0  0.46475756214E+03 -0.55386460512E+02  0.38578291621E+03  0.60654407095E+03  0.00000000000E+00 0.  1.
        -11    1    3    3    0    0  0.67122537865E+02  0.85790372822E+01  0.20561082293E+02  0.70723355938E+02  0.00000000000E+00 0. -1.
          2    1    6    6  502    0 -0.48719128945E+02  0.15324505018E+03  0.49076392640E+03  0.51643666639E+03  0.00000000000E+00 0. -1.
          1    1    5    5  503    0 -0.26180453896E+03 -0.39537888944E+03  0.70318193023E+03  0.84813378062E+03  0.00000000000E+00 0. -1.
         -2    1    5    5    0  503 -0.13898766533E+02 -0.10460124401E+01  0.33374667863E+02  0.36168194704E+02  0.00000000000E+00 0.  1.
         -1    1    6    6    0  502 -0.20745766557E+03  0.28998727492E+03  0.12036631521E+04  0.12553630098E+04  0.00000000000E+00 0.  1.
<mgrwt>
<rscale>  0 0.17495488E+04</rscale>
<asrwt>0</asrwt>
<pdfrwt beam="1">  1        2 0.47466895E+00 0.17495488E+04</pdfrwt>
<pdfrwt beam="2">  1       -2 0.38157033E-01 0.17495488E+04</pdfrwt>
<totfact> 0.94987783E+00</totfact>
</mgrwt>
</event>
<event>
12    1  0.1519630E-007  0.1799728E+04  0.7818608E-02  0.8706444E-01
          1   -1    0    0  501    0  0.00000000000E+00  0.00000000000E+00  0.84355948485E+03  0.84355948485E+03  0.00000000000E+00 0. -1.
         -1   -1    0    0    0  501 -0.00000000000E+00 -0.00000000000E+00 -0.95992629073E+03  0.95992629073E+03  0.00000000000E+00 0.  1.
         23    2    1    2    0    0  0.44879319223E+03  0.31099674789E+03 -0.43768304338E+03  0.70555492180E+03  0.90038850615E+02 0.  0.
        254    2    1    2    0    0 -0.44879319223E+03 -0.31099674789E+03  0.32131623751E+03  0.10979308538E+04  0.89670158281E+03 0.  0.
        -24    2    4    4    0    0 -0.29190001040E+03 -0.13905186639E+03 -0.28828056620E+03  0.44036067253E+03  0.79188379476E+02 0.  0.
         24    2    4    4    0    0 -0.15689318182E+03 -0.17194488150E+03  0.60959680370E+03  0.65757018126E+03  0.81300476099E+02 0.  0.
         13    1    3    3    0    0  0.45488017614E+02  0.66618443236E+02 -0.48447048588E+02  0.94097254171E+02  0.00000000000E+00 0. -1.
        -13    1    3    3    0    0  0.40330517461E+03  0.24437830465E+03 -0.38923599479E+03  0.61145766763E+03  0.00000000000E+00 0.  1.
          2    1    6    6  502    0 -0.16311289990E+03 -0.17517266837E+03  0.59616386642E+03  0.64241936263E+03  0.00000000000E+00 0. -1.
          1    1    5    5  503    0 -0.26046630520E+03 -0.12504207784E+03 -0.28492380368E+03  0.40578293616E+03  0.00000000000E+00 0. -1.
         -2    1    5    5    0  503 -0.31433705200E+02 -0.14009788554E+02 -0.33567625202E+01  0.34577736371E+02  0.00000000000E+00 0.  1.
         -3    1    6    6    0  502  0.62197180721E+01  0.32277868702E+01  0.13432937285E+02  0.15150818628E+02  0.00000000000E+00 0.  1.
<mgrwt>
<rscale>  0 0.17997277E+04</rscale>
<asrwt>0</asrwt>
<pdfrwt beam="1">  1        1 0.12977838E+00 0.17997277E+04</pdfrwt>
<pdfrwt beam="2">  1       -1 0.14768097E+00 0.17997277E+04</pdfrwt>
<totfact> 0.69636736E+00</totfact>
</mgrwt>
</event>
<event>
12    1  0.1519630E-007  0.2036443E+04  0.7818608E-02  0.8589769E-01
         -2   -1    0    0    0  501 -0.00000000000E+00  0.00000000000E+00  0.32426813675E+03  0.32426813675E+03  0.00000000000E+00 0.  1.
          2   -1    0    0  501    0  0.00000000000E+00 -0.00000000000E+00 -0.31972778872E+04  0.31972778872E+04  0.00000000000E+00 0. -1.
         23    2    1    2    0    0 -0.31149729933E+03  0.40659931881E+03 -0.62172837118E+02  0.52407361292E+03  0.91837446249E+02 0.  0.
        254    2    1    2    0    0  0.31149729933E+03 -0.40659931881E+03 -0.28108369133E+04  0.29974724110E+04  0.90646738937E+03 0.  0.
        -24    2    4    4    0    0 -0.93255907763E+02 -0.50670358972E+03 -0.89979544629E+03  0.10398917290E+04  0.79358494586E+02 0.  0.
         24    2    4    4    0    0  0.40475320710E+03  0.10010427090E+03 -0.19110414671E+04  0.19575806821E+04  0.78718576513E+02 0.  0.
         13    1    3    3    0    0 -0.59442318229E+02  0.12872410309E+03  0.95897335761E+01  0.14210998171E+03  0.00000000000E+00 0. -1.
        -13    1    3    3    0    0 -0.25205498111E+03  0.27787521573E+03 -0.71762570694E+02  0.38196363121E+03  0.00000000000E+00 0.  1.
          2    1    6    6  502    0  0.17666509393E+02  0.10993370579E+02 -0.42927684054E+02  0.47704777633E+02  0.00000000000E+00 0. -1.
          1    1    5    5  503    0  0.12792437402E+02 -0.53497953096E+02 -0.78090695110E+02  0.95518763094E+02  0.00000000000E+00 0. -1.
         -2    1    5    5    0  503 -0.10604834517E+03 -0.45320563662E+03 -0.82170475118E+03  0.94437296588E+03  0.00000000000E+00 0.  1.
         -1    1    6    6    0  502  0.38708669770E+03  0.89110900324E+02 -0.18681137830E+04  0.19098759044E+04  0.00000000000E+00 0.  1.
<mgrwt>
<rscale>  0 0.20364433E+04</rscale>
<asrwt>0</asrwt>
<pdfrwt beam="1">  1        2 0.49188891E+00 0.20364433E+04</pdfrwt>
<pdfrwt beam="2">  1       -2 0.49887405E-01 0.20364433E+04</pdfrwt>
<totfact> 0.46001503E+00</totfact>
</mgrwt>
</event>
<event>
12    1  0.1519630E-007  0.2192734E+04  0.7818608E-02  0.8521459E-01
          1   -1    0    0  501    0  0.00000000000E+00  0.00000000000E+00  0.16028506768E+04  0.16028506768E+04  0.00000000000E+00 0. -1.
         -1   -1    0    0    0  501 -0.00000000000E+00 -0.00000000000E+00 -0.74992652716E+03  0.74992652716E+03  0.00000000000E+00 0.  1.
         23    2    1    2    0    0  0.42084668274E+03  0.39378478619E+03 -0.40266034041E+03  0.70890905729E+03  0.90765156110E+02 0.  0.
        254    2    1    2    0    0 -0.42084668274E+03 -0.39378478619E+03  0.12555844900E+04  0.16438681466E+04  0.89086008091E+03 0.  0.
        -24    2    4    4    0    0 -0.64327018433E+03 -0.31096905024E+03  0.58339054145E+03  0.92584595462E+03  0.79673882674E+02 0.  0.
         24    2    4    4    0    0  0.22242350159E+03 -0.82815735944E+02  0.67219394857E+03  0.71802219202E+03  0.85909857182E+02 0.  0.
         11    1    3    3    0    0  0.13996806330E+03  0.19148132119E+03 -0.17077225029E+03  0.29226583204E+03  0.00000000000E+00 0. -1.
        -11    1    3    3    0    0  0.28087861944E+03  0.20230346500E+03 -0.23188809011E+03  0.41664322525E+03  0.00000000000E+00 0.  1.
          2    1    6    6  502    0  0.12769698208E+02 -0.28632489102E+02  0.13986488543E+03  0.14333551829E+03  0.00000000000E+00 0. -1.
          1    1    5    5  503    0 -0.13766826591E+03 -0.55647718448E+02  0.16284596822E+03  0.22038155406E+03  0.00000000000E+00 0. -1.
         -2    1    5    5    0  503 -0.50560191842E+03 -0.25532133180E+03  0.42054457323E+03  0.70546440056E+03  0.00000000000E+00 0.  1.
         -1    1    6    6    0  502  0.20965380338E+03 -0.54183246842E+02  0.53232906313E+03  0.57468667373E+03  0.00000000000E+00 0.  1.
<mgrwt>
<rscale>  0 0.21927337E+04</rscale>
<asrwt>0</asrwt>
<pdfrwt beam="1">  1        1 0.24659241E+00 0.21927337E+04</pdfrwt>
<pdfrwt beam="2">  1       -1 0.11537331E+00 0.21927337E+04</pdfrwt>
<totfact> 0.34514061E+00</totfact>
</mgrwt>
</event>
<event>
12    1  0.1519630E-007  0.2285341E+04  0.7818608E-02  0.8483723E-01
          2   -1    0    0  501    0  0.00000000000E+00  0.00000000000E+00  0.26337586022E+04  0.26337586022E+04  0.00000000000E+00 0. -1.
         -2   -1    0    0    0  501 -0.00000000000E+00 -0.00000000000E+00 -0.49575398368E+03  0.49575398368E+03  0.00000000000E+00 0.  1.
         23    2    1    2    0    0  0.32176621819E+03  0.19697788156E+03  0.21149050865E+04  0.21504397189E+04  0.96092011438E+02 0.  0.
        254    2    1    2    0    0 -0.32176621819E+03 -0.19697788156E+03  0.23099531992E+02  0.97907286696E+03  0.90317014203E+03 0.  0.
        -24    2    4    4    0    0 -0.46490172103E+03 -0.39792990427E+03 -0.18591849778E+03  0.64479310359E+03  0.81918494181E+02 0.  0.
         24    2    4    4    0    0  0.14313550283E+03  0.20095202271E+03  0.20901802977E+03  0.33427976337E+03  0.84764000771E+02 0.  0.
         13    1    3    3    0    0  0.91463235981E+02  0.38091435350E+02  0.36064381709E+03  0.37400594084E+03  0.00000000000E+00 0.  1.
        -13    1    3    3    0    0  0.23030298221E+03  0.15888644621E+03  0.17542612695E+04  0.17764337781E+04  0.00000000000E+00 0. -1.
          2    1    6    6  502    0  0.41101896952E+02  0.12444736684E+03  0.12797511364E+03  0.18317789921E+03  0.00000000000E+00 0. -1.
          1    1    5    5  503    0 -0.36851475284E+02 -0.66084889852E+02 -0.18540188245E+02  0.77903674352E+02  0.00000000000E+00 0. -1.
         -2    1    5    5    0  503 -0.42805024574E+03 -0.33184501442E+03 -0.16737830954E+03  0.56688942924E+03  0.00000000000E+00 0.  1.
         -1    1    6    6    0  502  0.10203360588E+03  0.76504655874E+02  0.81042916133E+02  0.15110186417E+03  0.00000000000E+00 0.  1.
<mgrwt>
<rscale>  0 0.22853414E+04</rscale>
<asrwt>0</asrwt>
<pdfrwt beam="1">  1        2 0.40519362E+00 0.22853414E+04</pdfrwt>
<pdfrwt beam="2">  1       -2 0.76269845E-01 0.22853414E+04</pdfrwt>
<totfact> 0.40596430E+00</totfact>
</mgrwt>
</event>
<event>
12    1  0.1519630E-007  0.3048540E+04  0.7818608E-02  0.8230004E-01
         -2   -1    0    0    0  501 -0.00000000000E+00  0.00000000000E+00  0.84377938475E+03  0.84377938475E+03  0.00000000000E+00 0. -1.
          2   -1    0    0  501    0  0.00000000000E+00 -0.00000000000E+00 -0.27535622836E+04  0.27535622836E+04  0.00000000000E+00 0.  1.
         23    2    1    2    0    0  0.85068901605E+03  0.44628409652E+03  0.31344499925E+03  0.10147609499E+04  0.93009252812E+02 0.  0.
        254    2    1    2    0    0 -0.85068901605E+03 -0.44628409652E+03 -0.22232278981E+04  0.25825807184E+04  0.89673830265E+03 0.  0.
        -24    2    4    4    0    0  0.71241892653E+02 -0.35695670242E+03 -0.48623863690E+03  0.61224793210E+03  0.76980670804E+02 0.  0.
         24    2    4    4    0    0 -0.92193090870E+03 -0.89327394103E+02 -0.17369892612E+04  0.19703327863E+04  0.84519888571E+02 0.  0.
         11    1    3    3    0    0  0.85218993137E+03  0.44629689454E+03  0.31533616716E+03  0.10123465294E+04  0.00000000000E+00 0. -1.
        -11    1    3    3    0    0 -0.15009153166E+01 -0.12798016473E-01 -0.18911679137E+01  0.24144205629E+01  0.00000000000E+00 0.  1.
          4    1    6    6  502    0 -0.91649151509E+03 -0.88817139777E+02 -0.17355503000E+04  0.19646831870E+04  0.00000000000E+00 0. -1.
          3    1    5    5  503    0  0.45393021215E+02 -0.29247296924E+03 -0.43404999733E+03  0.52535736817E+03  0.00000000000E+00 0. -1.
         -4    1    5    5    0  503  0.25848871438E+02 -0.64483733184E+02 -0.52188639564E+02  0.86890563927E+02  0.00000000000E+00 0.  1.
         -3    1    6    6    0  502 -0.54393936134E+01 -0.51025432629E+00 -0.14389611299E+01  0.56495992329E+01  0.00000000000E+00 0.  1.
<mgrwt>
<rscale>  0 0.30485400E+04</rscale>
<asrwt>0</asrwt>
<pdfrwt beam="1">  1        2 0.42362496E+00 0.30485400E+04</pdfrwt>
<pdfrwt beam="2">  1       -2 0.12981221E+00 0.30485400E+04</pdfrwt>
<totfact> 0.91629437E-01</totfact>
</mgrwt>
</event>
<event>
12    1  0.1519630E-007  0.2263175E+04  0.7818608E-02  0.8492584E-01
          1   -1    0    0  501    0  0.00000000000E+00  0.00000000000E+00  0.12252447201E+04  0.12252447201E+04  0.00000000000E+00 0. -1.
         -1   -1    0    0    0  501 -0.00000000000E+00 -0.00000000000E+00 -0.10450889878E+04  0.10450889878E+04  0.00000000000E+00 0.  1.
         23    2    1    2    0    0 -0.22109706356E+03  0.54271732536E+03 -0.67646480838E+03  0.89979379619E+03  0.92726651602E+02 0.  0.
        254    2    1    2    0    0  0.22109706356E+03 -0.54271732536E+03  0.85662054066E+03  0.13705399118E+04  0.89507256259E+03 0.  0.
        -24    2    4    4    0    0  0.44474659590E+03 -0.59332156399E+03  0.84586826044E+03  0.11277005418E+04  0.79908604925E+02 0.  0.
         24    2    4    4    0    0 -0.22364953235E+03  0.50604238631E+02  0.10752280215E+02  0.24283936994E+03  0.79217711265E+02 0.  0.
         13    1    3    3    0    0 -0.90525942013E+02  0.17600566368E+03 -0.29134409453E+03  0.35221345977E+03  0.00000000000E+00 0.  1.
        -13    1    3    3    0    0 -0.13057112154E+03  0.36671166168E+03 -0.38512071385E+03  0.54758033642E+03  0.00000000000E+00 0. -1.
          4    1    6    6  502    0 -0.76786740774E+02 -0.19226014846E+02 -0.58620312060E+01  0.79373840876E+02  0.00000000000E+00 0. -1.
          3    1    5    5  503    0  0.35033518821E+02 -0.85161728262E+02  0.86574686997E+02  0.12639241999E+03  0.00000000000E+00 0. -1.
         -4    1    5    5    0  503  0.40971307708E+03 -0.50815983573E+03  0.75929357345E+03  0.10013081218E+04  0.00000000000E+00 0.  1.
         -3    1    6    6    0  502 -0.14686279157E+03  0.69830253476E+02  0.16614311421E+02  0.16346552907E+03  0.00000000000E+00 0.  1.
<mgrwt>
<rscale>  0 0.22631746E+04</rscale>
<asrwt>0</asrwt>
<pdfrwt beam="1">  1        1 0.18849919E+00 0.22631746E+04</pdfrwt>
<pdfrwt beam="2">  1       -1 0.16078292E+00 0.22631746E+04</pdfrwt>
<totfact> 0.26773594E+00</totfact>
</mgrwt>
</event>
<event>
12    1  0.1519630E-007  0.1556879E+04  0.7818608E-02  0.8847486E-01
          2   -1    0    0  501    0  0.00000000000E+00  0.00000000000E+00  0.18287654281E+04  0.18287654281E+04  0.00000000000E+00 0. -1.
         -2   -1    0    0    0  501 -0.00000000000E+00 -0.00000000000E+00 -0.33135352237E+03  0.33135352237E+03  0.00000000000E+00 0.  1.
         23    2    1    2    0    0 -0.73046842877E+02  0.33740512469E+03  0.10271444974E+04  0.10871739221E+04  0.87995789888E+02 0.  0.
        254    2    1    2    0    0  0.73046842877E+02 -0.33740512469E+03  0.47026740836E+03  0.10729450283E+04  0.90048961075E+03 0.  0.
        -24    2    4    4    0    0  0.41583557564E+03  0.58052154121E+02  0.27611695287E+03  0.50886350027E+03  0.80076286633E+02 0.  0.
         24    2    4    4    0    0 -0.34278873276E+03 -0.39545727881E+03  0.19415045549E+03  0.56408152808E+03  0.81258822746E+02 0.  0.
         13    1    3    3    0    0 -0.35033188716E+02  0.25311891854E+03  0.63968571194E+03  0.68883548203E+03  0.00000000000E+00 0. -1.
        -13    1    3    3    0    0 -0.38013654161E+02  0.84286206143E+02  0.38745878546E+03  0.39833844012E+03  0.00000000000E+00 0.  1.
          2    1    6    6  502    0 -0.28635579796E+03 -0.30472319215E+03  0.12360957176E+03  0.43604494389E+03  0.00000000000E+00 0. -1.
          3    1    5    5  503    0  0.17610762049E+03  0.46888214895E+02  0.15885875764E+03  0.24176125325E+03  0.00000000000E+00 0. -1.
         -4    1    5    5    0  503  0.23972795515E+03  0.11163939226E+02  0.11725819523E+03  0.26710224703E+03  0.00000000000E+00 0.  1.
         -1    1    6    6    0  502 -0.56432934805E+02 -0.90734086660E+02  0.70540883733E+02  0.12803658419E+03  0.00000000000E+00 0.  1.
<mgrwt>
<rscale>  0 0.15568788E+04</rscale>
<asrwt>0</asrwt>
<pdfrwt beam="1">  1        2 0.28134852E+00 0.15568788E+04</pdfrwt>
<pdfrwt beam="2">  1       -2 0.50977466E-01 0.15568788E+04</pdfrwt>
<totfact> 0.29103881E+01</totfact>
</mgrwt>
</event>
<event>
12    1  0.1519630E-007  0.3144844E+04  0.7818608E-02  0.8203537E-01
         -1   -1    0    0    0  501 -0.00000000000E+00  0.00000000000E+00  0.66438587584E+03  0.66438587584E+03  0.00000000000E+00 0.  1.
          1   -1    0    0  501    0  0.00000000000E+00 -0.00000000000E+00 -0.37214991438E+04  0.37214991438E+04  0.00000000000E+00 0. -1.
         23    2    1    2    0    0 -0.94254031628E+03 -0.99110216136E+03 -0.20269868797E+04  0.24469521618E+04  0.90737695435E+02 0.  0.
        254    2    1    2    0    0  0.94254031628E+03  0.99110216136E+03 -0.10301263882E+04  0.19389328578E+04  0.90974420002E+03 0.  0.
        -24    2    4    4    0    0 -0.34377185926E+02 -0.12801910376E+03 -0.11644095583E+03  0.19309925425E+03  0.78473842506E+02 0.  0.
         24    2    4    4    0    0  0.97691750220E+03  0.11191212651E+04 -0.91368543237E+03  0.17458336036E+04  0.79458730958E+02 0.  0.
         11    1    3    3    0    0 -0.89759153415E+03 -0.93489881523E+03 -0.19514672952E+04  0.23426333390E+04  0.00000000000E+00 0. -1.
        -11    1    3    3    0    0 -0.44948782128E+02 -0.56203346134E+02 -0.75519584482E+02  0.10431882271E+03  0.00000000000E+00 0.  1.
          2    1    6    6  502    0  0.19674379666E+03  0.27484182219E+03 -0.21589558696E+03  0.40106988571E+03  0.00000000000E+00 0. -1.
          1    1    5    5  503    0 -0.43151985266E+01 -0.12139592487E+03 -0.10394959592E+03  0.15987842257E+03  0.00000000000E+00 0. -1.
         -2    1    5    5    0  503 -0.30061987399E+02 -0.66231788957E+01 -0.12491359914E+02  0.33220831681E+02  0.00000000000E+00 0.  1.
         -3    1    6    6    0  502  0.78017370554E+03  0.84427944293E+03 -0.69778984541E+03  0.13447637179E+04  0.00000000000E+00 0.  1.
<mgrwt>
<rscale>  0 0.31448443E+04</rscale>
<asrwt>0</asrwt>
<pdfrwt beam="1">  1        1 0.57253832E+00 0.31448443E+04</pdfrwt>
<pdfrwt beam="2">  1       -1 0.10221321E+00 0.31448443E+04</pdfrwt>
<totfact> 0.12602474E-01</totfact>
</mgrwt>
</event>
<event>
12    1  0.1519630E-007  0.2474875E+04  0.7818608E-02  0.8411991E-01
          1   -1    0    0  501    0  0.00000000000E+00  0.00000000000E+00  0.24572971750E+04  0.24572971750E+04  0.00000000000E+00 0. -1.
         -1   -1    0    0    0  501 -0.00000000000E+00 -0.00000000000E+00 -0.62314465675E+03  0.62314465675E+03  0.00000000000E+00 0.  1.
         23    2    1    2    0    0 -0.16271517746E+03  0.38845013124E+03 -0.42593578929E+03  0.60610740765E+03  0.92602157519E+02 0.  0.
        254    2    1    2    0    0  0.16271517746E+03 -0.38845013124E+03  0.22600883076E+04  0.24743344241E+04  0.91485624609E+03 0.  0.
        -24    2    4    4    0    0  0.24646968060E+03  0.13542634646E+03  0.22246535477E+03  0.36688396268E+03  0.77623509519E+02 0.  0.
         24    2    4    4    0    0 -0.83754503139E+02 -0.52387647770E+03  0.20376229528E+04  0.21074504614E+04  0.89323955437E+02 0.  0.
         13    1    3    3    0    0 -0.11288649746E+03  0.25276397459E+03 -0.33807679093E+03  0.43695412199E+03  0.00000000000E+00 0.  1.
        -13    1    3    3    0    0 -0.49828679994E+02  0.13568615665E+03 -0.87858998356E+02  0.16915328566E+03  0.00000000000E+00 0. -1.
          2    1    6    6  502    0 -0.13898672594E+02 -0.80297709209E+01  0.39604381262E+02  0.42733562174E+02  0.00000000000E+00 0. -1.
          1    1    5    5  503    0  0.39797946166E+02  0.18702842870E+01  0.59983853994E+02  0.72009980019E+02  0.00000000000E+00 0. -1.
         -2    1    5    5    0  503  0.20667173443E+03  0.13355606218E+03  0.16248150077E+03  0.29487398266E+03  0.00000000000E+00 0.  1.
         -1    1    6    6    0  502 -0.69855830546E+02 -0.51584670678E+03  0.19980185715E+04  0.20647168993E+04  0.00000000000E+00 0.  1.
<mgrwt>
<rscale>  0 0.24748750E+04</rscale>
<asrwt>0</asrwt>
<pdfrwt beam="1">  1        1 0.37804571E+00 0.24748750E+04</pdfrwt>
<pdfrwt beam="2">  1       -1 0.95868410E-01 0.24748750E+04</pdfrwt>
<totfact> 0.13541725E+00</totfact>
</mgrwt>
</event>
<event>
12    1  0.1519630E-007  0.1489752E+04  0.7818608E-02  0.8891296E-01
         -2   -1    0    0    0  501 -0.00000000000E+00  0.00000000000E+00  0.46217450950E+03  0.46217450950E+03  0.00000000000E+00 0.  1.
          2   -1    0    0  501    0  0.00000000000E+00 -0.00000000000E+00 -0.12005001287E+04  0.12005001287E+04  0.00000000000E+00 0. -1.
         23    2    1    2    0    0 -0.29878988238E+03 -0.10448456776E+03 -0.59242409274E+03  0.67792264266E+03  0.91762656134E+02 0.  0.
        254    2    1    2    0    0  0.29878988238E+03  0.10448456776E+03 -0.14590152644E+03  0.98475199551E+03  0.92100858765E+03 0.  0.
        -24    2    4    4    0    0  0.53365154551E+03  0.33535602525E+03 -0.89640796975E+02  0.64125501865E+03  0.76973312057E+02 0.  0.
         24    2    4    4    0    0 -0.23486166312E+03 -0.23087145749E+03 -0.56260729463E+02  0.34349697686E+03  0.79770124358E+02 0.  0.
         13    1    3    3    0    0 -0.28596591090E+03 -0.75908626725E+02 -0.55649237550E+03  0.63025580981E+03  0.00000000000E+00 0. -1.
        -13    1    3    3    0    0 -0.12823971487E+02 -0.28575941032E+02 -0.35931717240E+02  0.47666832854E+02  0.00000000000E+00 0.  1.
          2    1    6    6  502    0 -0.19936928580E+03 -0.17564506410E+03 -0.73383307213E+02  0.27565269895E+03  0.00000000000E+00 0. -1.
          1    1    5    5  503    0  0.42414312727E+03  0.29036427119E+03 -0.95111635622E+02  0.52273800859E+03  0.00000000000E+00 0. -1.
         -2    1    5    5    0  503  0.10950841824E+03  0.44991754059E+02  0.54708386472E+01  0.11851701006E+03  0.00000000000E+00 0.  1.
         -1    1    6    6    0  502 -0.35492377323E+02 -0.55226393397E+02  0.17122577750E+02  0.67844277905E+02  0.00000000000E+00 0.  1.
<mgrwt>
<rscale>  0 0.14897524E+04</rscale>
<asrwt>0</asrwt>
<pdfrwt beam="1">  1        2 0.18469233E+00 0.14897524E+04</pdfrwt>
<pdfrwt beam="2">  1       -2 0.71103771E-01 0.14897524E+04</pdfrwt>
<totfact> 0.32878703E+01</totfact>
</mgrwt>
</event>
<event>
12    1  0.1519630E-007  0.1470946E+04  0.7818608E-02  0.8904007E-01
          2   -1    0    0  501    0  0.00000000000E+00  0.00000000000E+00  0.14142956635E+04  0.14142956635E+04  0.00000000000E+00 0. -1.
         -2   -1    0    0    0  501 -0.00000000000E+00 -0.00000000000E+00 -0.38246647473E+03  0.38246647473E+03  0.00000000000E+00 0.  1.
         23    2    1    2    0    0 -0.40605298443E+03 -0.18120394663E+03  0.19179341934E+03  0.49289310823E+03  0.91896702875E+02 0.  0.
        254    2    1    2    0    0  0.40605298443E+03  0.18120394663E+03  0.84003576941E+03  0.13038690300E+04  0.89258078458E+03 0.  0.
        -24    2    4    4    0    0  0.44718871101E+03 -0.18635207760E+03  0.14311601050E+03  0.51075805675E+03  0.75410609293E+02 0.  0.
         24    2    4    4    0    0 -0.41135726579E+02  0.36755602424E+03  0.69691975890E+03  0.79311097322E+03  0.80859671876E+02 0.  0.
         13    1    3    3    0    0 -0.37600728082E+03 -0.19079020764E+03  0.17034263754E+03  0.45475157254E+03  0.00000000000E+00 0. -1.
        -13    1    3    3    0    0 -0.30045703611E+02  0.95862610027E+01  0.21450781795E+02  0.38141535694E+02  0.00000000000E+00 0.  1.
          2    1    6    6  502    0 -0.14071678913E+01  0.13243665572E+02  0.40996322880E+01  0.13934912420E+02  0.00000000000E+00 0. -1.
          3    1    5    5  503    0  0.16913101783E+03 -0.97768922954E+02  0.85743288621E+02  0.21334473284E+03  0.00000000000E+00 0. -1.
         -4    1    5    5    0  503  0.27805769318E+03 -0.88583154651E+02  0.57372721883E+02  0.29741332391E+03  0.00000000000E+00 0.  1.
         -3    1    6    6    0  502 -0.39728558688E+02  0.35431235867E+03  0.69282012662E+03  0.77917606080E+03  0.00000000000E+00 0.  1.
<mgrwt>
<rscale>  0 0.14709462E+04</rscale>
<asrwt>0</asrwt>
<pdfrwt beam="1">  1        2 0.21758395E+00 0.14709462E+04</pdfrwt>
<pdfrwt beam="2">  1       -2 0.58840997E-01 0.14709462E+04</pdfrwt>
<totfact> 0.37105928E+01</totfact>
</mgrwt>
</event>
<event>
12    1  0.1519630E-007  0.1112392E+04  0.7818608E-02  0.9193197E-01
          2   -1    0    0  501    0  0.00000000000E+00  0.00000000000E+00  0.96022480472E+03  0.96022480472E+03  0.00000000000E+00 0. -1.
         -2   -1    0    0    0  501 -0.00000000000E+00 -0.00000000000E+00 -0.32216846226E+03  0.32216846226E+03  0.00000000000E+00 0.  1.
         23    2    1    2    0    0  0.65829929283E+02  0.16046915611E+03  0.88054162420E+02  0.21760600229E+03  0.97544385078E+02 0.  0.
        254    2    1    2    0    0 -0.65829929283E+02 -0.16046915611E+03  0.55000218004E+03  0.10647872647E+04  0.89508971134E+03 0.  0.
        -24    2    4    4    0    0 -0.39081969597E+03  0.17659046550E+03  0.27476449736E+03  0.51701469426E+03  0.88794356834E+02 0.  0.
         24    2    4    4    0    0  0.32498976669E+03 -0.33705962161E+03  0.27523768268E+03  0.54777257043E+03  0.71214254070E+02 0.  0.
         13    1    3    3    0    0  0.63973803064E+02  0.88960165512E+02  0.95939295006E+02  0.14563964726E+03  0.00000000000E+00 0. -1.
        -13    1    3    3    0    0  0.18561262193E+01  0.71508990598E+02 -0.78851325855E+01  0.71966355034E+02  0.00000000000E+00 0.  1.
          2    1    6    6  502    0  0.15777963054E+03 -0.20954203293E+03  0.17051324002E+03  0.31285306519E+03  0.00000000000E+00 0. -1.
          3    1    5    5  503    0 -0.13294759226E+03  0.99483189087E+02  0.13339552827E+03  0.21299374207E+03  0.00000000000E+00 0. -1.
         -4    1    5    5    0  503 -0.25787210371E+03  0.77107276412E+02  0.14136896910E+03  0.30402095219E+03  0.00000000000E+00 0.  1.
         -1    1    6    6    0  502  0.16721013615E+03 -0.12751758868E+03  0.10472444265E+03  0.23491950524E+03  0.00000000000E+00 0.  1.
<mgrwt>
<rscale>  0 0.11123923E+04</rscale>
<asrwt>0</asrwt>
<pdfrwt beam="1">  1        2 0.14772689E+00 0.11123923E+04</pdfrwt>
<pdfrwt beam="2">  1       -2 0.49564379E-01 0.11123923E+04</pdfrwt>
<totfact> 0.10215781E+02</totfact>
</mgrwt>
</event>
<event>
12    1  0.1519630E-007  0.1650466E+04  0.7818608E-02  0.8790131E-01
         -1   -1    0    0    0  501 -0.00000000000E+00  0.00000000000E+00  0.61846194437E+03  0.61846194437E+03  0.00000000000E+00 0.  1.
          1   -1    0    0  501    0  0.00000000000E+00 -0.00000000000E+00 -0.11011336195E+04  0.11011336195E+04  0.00000000000E+00 0. -1.
         23    2    1    2    0    0 -0.42797614378E+03  0.30258461740E+03 -0.41273691665E+03  0.67631853896E+03  0.11105842353E+03 0.  0.
        254    2    1    2    0    0  0.42797614378E+03 -0.30258461740E+03 -0.69934758522E+02  0.10432770250E+04  0.89934145352E+03 0.  0.
        -24    2    4    4    0    0  0.57541286474E+03  0.97024963138E+02 -0.13770140398E+03  0.60468003954E+03  0.78501370548E+02 0.  0.
         24    2    4    4    0    0 -0.14743672095E+03 -0.39960958054E+03  0.67766645460E+02  0.43859698542E+03  0.79684338722E+02 0.  0.
         13    1    3    3    0    0 -0.36841461626E+03  0.26469711264E+03 -0.39954014680E+03  0.60450493780E+03  0.00000000000E+00 0. -1.
        -13    1    3    3    0    0 -0.59561527521E+02  0.37887504763E+02 -0.13196769856E+02  0.71813601166E+02  0.00000000000E+00 0.  1.
          2    1    6    6  502    0 -0.54839819060E+02 -0.25496236810E+03  0.27881728705E+02  0.26227963264E+03  0.00000000000E+00 0. -1.
          3    1    5    5  503    0  0.36619796506E+03  0.93367554713E+02 -0.66966283807E+02  0.38380064233E+03  0.00000000000E+00 0. -1.
         -4    1    5    5    0  503  0.20921489968E+03  0.36574084249E+01 -0.70735120175E+02  0.22087939720E+03  0.00000000000E+00 0.  1.
         -1    1    6    6    0  502 -0.92596901892E+02 -0.14464721244E+03  0.39884916755E+02  0.17631735278E+03  0.00000000000E+00 0.  1.
<mgrwt>
<rscale>  0 0.16504657E+04</rscale>
<asrwt>0</asrwt>
<pdfrwt beam="1">  1        1 0.16940517E+00 0.16504657E+04</pdfrwt>
<pdfrwt beam="2">  1       -1 0.95147991E-01 0.16504657E+04</pdfrwt>
<totfact> 0.12903814E+01</totfact>
</mgrwt>
</event>
<event>
12    1  0.1519630E-007  0.1189029E+04  0.7818608E-02  0.9122514E-01
         -2   -1    0    0    0  501 -0.00000000000E+00  0.00000000000E+00  0.15792800075E+03  0.15792800075E+03  0.00000000000E+00 0.  1.
          2   -1    0    0  501    0  0.00000000000E+00 -0.00000000000E+00 -0.22380284958E+04  0.22380284958E+04  0.00000000000E+00 0. -1.
         23    2    1    2    0    0  0.21040256474E+03  0.20039085105E+02 -0.63054168295E+03  0.67117685543E+03  0.90690424802E+02 0.  0.
        254    2    1    2    0    0 -0.21040256474E+03 -0.20039085105E+02 -0.14495588121E+04  0.17247796411E+04  0.91047968481E+03 0.  0.
        -24    2    4    4    0    0 -0.20594489212E+03 -0.13306852453E+03  0.11736315576E+02  0.25693066833E+03  0.75862351750E+02 0.  0.
         24    2    4    4    0    0 -0.44576726158E+01  0.11302943942E+03 -0.14612951276E+04  0.14678489727E+04  0.80010197466E+02 0.  0.
         13    1    3    3    0    0  0.98522273299E+02  0.45607318750E+02 -0.38716130599E+03  0.40209519111E+03  0.00000000000E+00 0. -1.
        -13    1    3    3    0    0  0.11188029144E+03 -0.25568233645E+02 -0.24338037696E+03  0.26908166432E+03  0.00000000000E+00 0.  1.
          2    1    6    6  502    0  0.27429399560E+02  0.81731953837E+02 -0.70793975643E+03  0.71316981356E+03  0.00000000000E+00 0. -1.
          1    1    5    5  503    0 -0.16495866307E+03 -0.11815664702E+03 -0.18664531183E+02  0.20376633304E+03  0.00000000000E+00 0. -1.
         -2    1    5    5    0  503 -0.40986229059E+02 -0.14911877506E+02  0.30400846760E+02  0.53164335291E+02  0.00000000000E+00 0.  1.
         -1    1    6    6    0  502 -0.31887072176E+02  0.31297485586E+02 -0.75335537120E+03  0.75467915918E+03  0.00000000000E+00 0.  1.
<mgrwt>
<rscale>  0 0.11890288E+04</rscale>
<asrwt>0</asrwt>
<pdfrwt beam="1">  1        2 0.34431206E+00 0.11890288E+04</pdfrwt>
<pdfrwt beam="2">  1       -2 0.24296617E-01 0.11890288E+04</pdfrwt>
<totfact> 0.73578702E+01</totfact>
</mgrwt>
</event>
<event>
12    1  0.1519630E-007  0.1794501E+04  0.7818608E-02  0.8709229E-01
          2   -1    0    0  501    0  0.00000000000E+00  0.00000000000E+00  0.22557303057E+04  0.22557303057E+04  0.00000000000E+00 0. -1.
         -2   -1    0    0    0  501 -0.00000000000E+00 -0.00000000000E+00 -0.35689464083E+03  0.35689464083E+03  0.00000000000E+00 0.  1.
         23    2    1    2    0    0 -0.14629075429E+03  0.32473696736E+03  0.15345643615E+04  0.15779462682E+04  0.90396698251E+02 0.  0.
        254    2    1    2    0    0  0.14629075429E+03 -0.32473696736E+03  0.36427130338E+03  0.10346786783E+04  0.90056165925E+03 0.  0.
        -24    2    4    4    0    0  0.56497274072E+02 -0.74119556640E+02  0.63564611110E+03  0.64640995803E+03  0.71513667402E+02 0.  0.
         24    2    4    4    0    0  0.89793480218E+02 -0.25061741072E+03 -0.27137480772E+03  0.38826872028E+03  0.78970609933E+02 0.  0.
         13    1    3    3    0    0 -0.14483240266E+03  0.28000341912E+03  0.12135557953E+04  0.12538325278E+04  0.00000000000E+00 0. -1.
        -13    1    3    3    0    0 -0.14583516308E+01  0.44733548237E+02  0.32100856620E+03  0.32411374038E+03  0.00000000000E+00 0.  1.
          4    1    6    6  502    0  0.13861551785E+02 -0.14862347305E+03 -0.16485984930E+03  0.22239570425E+03  0.00000000000E+00 0. -1.
          1    1    5    5  503    0  0.73039772931E+02 -0.65705255112E+02  0.50688018371E+03  0.51631338314E+03  0.00000000000E+00 0. -1.
         -2    1    5    5    0  503 -0.16542498859E+02 -0.84143015283E+01  0.12876592740E+03  0.13009657488E+03  0.00000000000E+00 0.  1.
         -1    1    6    6    0  502  0.75931928433E+02 -0.10199393767E+03 -0.10651495843E+03  0.16587301603E+03  0.00000000000E+00 0.  1.
<mgrwt>
<rscale>  0 0.17945006E+04</rscale>
<asrwt>0</asrwt>
<pdfrwt beam="1">  1        2 0.34703542E+00 0.17945006E+04</pdfrwt>
<pdfrwt beam="2">  1       -2 0.54906869E-01 0.17945006E+04</pdfrwt>
<totfact> 0.14159824E+01</totfact>
</mgrwt>
</event>
<event>
12    1  0.1519630E-007  0.2662265E+04  0.7818608E-02  0.8347353E-01
          1   -1    0    0  501    0  0.00000000000E+00  0.00000000000E+00  0.27936146583E+04  0.27936146583E+04  0.00000000000E+00 0. -1.
         -1   -1    0    0    0  501 -0.00000000000E+00 -0.00000000000E+00 -0.63427293524E+03  0.63427293524E+03  0.00000000000E+00 0.  1.
         23    2    1    2    0    0 -0.10731532822E+04  0.45163874745E+03  0.73178840586E+03  0.13777279094E+04  0.83572699970E+02 0.  0.
        254    2    1    2    0    0  0.10731532822E+04 -0.45163874745E+03  0.14275533172E+04  0.20501596841E+04  0.89978371376E+03 0.  0.
        -24    2    4    4    0    0  0.28683428881E+03  0.26496956407E+03  0.47652615309E+03  0.62119043225E+03  0.79483327920E+02 0.  0.
         24    2    4    4    0    0  0.78631899339E+03 -0.71660831152E+03  0.95102716409E+03  0.14289692518E+04  0.75335412284E+02 0.  0.
         11    1    3    3    0    0 -0.96865021555E+02  0.22446555584E+02  0.44136437219E+02  0.10878743194E+03  0.00000000000E+00 0. -1.
        -11    1    3    3    0    0 -0.97628826064E+03  0.42919219187E+03  0.68765196864E+03  0.12689404775E+04  0.00000000000E+00 0.  1.
          4    1    6    6  502    0  0.11630438339E+03 -0.13855493418E+03  0.14200980057E+03  0.22998035316E+03  0.00000000000E+00 0. -1.
          3    1    5    5  503    0  0.84352305863E+02  0.33870777450E+02  0.11985291524E+03  0.15042360972E+03  0.00000000000E+00 0. -1.
         -4    1    5    5    0  503  0.20248198295E+03  0.23109878662E+03  0.35667323785E+03  0.47076682253E+03  0.00000000000E+00 0.  1.
         -3    1    6    6    0  502  0.67001461000E+03 -0.57805337734E+03  0.80901736351E+03  0.11989888987E+04  0.00000000000E+00 0.  1.
<mgrwt>
<rscale>  0 0.26622653E+04</rscale>
<asrwt>0</asrwt>
<pdfrwt beam="1">  1        1 0.42978686E+00 0.26622653E+04</pdfrwt>
<pdfrwt beam="2">  1       -1 0.97580453E-01 0.26622653E+04</pdfrwt>
<totfact> 0.74319647E-01</totfact>
</mgrwt>
</event>
<event>
12    1  0.1681836E-007  0.1805888E+04  0.7818608E-02  0.8703175E-01
          1   -1    0    0  501    0  0.00000000000E+00  0.00000000000E+00  0.10356249210E+04  0.10356249210E+04  0.00000000000E+00 0. -1.
         -1   -1    0    0    0  501 -0.00000000000E+00 -0.00000000000E+00 -0.78726136817E+03  0.78726136817E+03  0.00000000000E+00 0.  1.
         23    2    1    2    0    0  0.30651197924E+03 -0.45959860373E+03  0.46958855373E+03  0.73349962059E+03  0.11103068784E+03 0.  0.
        254    2    1    2    0    0 -0.30651197924E+03  0.45959860373E+03 -0.22122500090E+03  0.10893866686E+04  0.91249237952E+03 0.  0.
        -24    2    4    4    0    0 -0.85331066059E+02  0.17759141535E+03  0.35025148094E+03  0.40968138541E+03  0.79640668088E+02 0.  0.
         24    2    4    4    0    0 -0.22118091318E+03  0.28200718837E+03 -0.57147648184E+03  0.67970528316E+03  0.83455688892E+02 0.  0.
         11    1    3    3    0    0  0.16945861468E+03 -0.25156594291E+03  0.32884292503E+03  0.44736932736E+03  0.00000000000E+00 0. -1.
        -11    1    3    3    0    0  0.13705336455E+03 -0.20803266082E+03  0.14074562870E+03  0.28613029323E+03  0.00000000000E+00 0.  1.
          4    1    6    6  502    0 -0.15609384862E+03  0.25170638724E+03 -0.45763904075E+03  0.54511914897E+03  0.00000000000E+00 0. -1.
          1    1    5    5  503    0 -0.89476851909E+02  0.15493305207E+03  0.34054897085E+03  0.38468683263E+03  0.00000000000E+00 0. -1.
         -2    1    5    5    0  503  0.41457858494E+01  0.22658363282E+02  0.97025100894E+01  0.24994552786E+02  0.00000000000E+00 0.  1.
         -3    1    6    6    0  502 -0.65087064557E+02  0.30300801134E+02 -0.11383744109E+03  0.13458613419E+03  0.00000000000E+00 0.  1.
<mgrwt>
<rscale>  0 0.18058876E+04</rscale>
<asrwt>0</asrwt>
<pdfrwt beam="1">  1        1 0.15932691E+00 0.18058876E+04</pdfrwt>
<pdfrwt beam="2">  1       -1 0.12111713E+00 0.18058876E+04</pdfrwt>
<totfact> 0.81035417E+00</totfact>
</mgrwt>
</event>
<event>
12    1  0.1519630E-007  0.2308109E+04  0.7818608E-02  0.8474731E-01
         -2   -1    0    0    0  501 -0.00000000000E+00  0.00000000000E+00  0.49525909079E+03  0.49525909079E+03  0.00000000000E+00 0.  1.
          2   -1    0    0  501    0  0.00000000000E+00 -0.00000000000E+00 -0.26891816856E+04  0.26891816856E+04  0.00000000000E+00 0. -1.
         23    2    1    2    0    0  0.85666085276E+03  0.13642633831E+03 -0.15408413351E+04  0.17705384163E+04  0.90190361868E+02 0.  0.
        254    2    1    2    0    0 -0.85666085276E+03 -0.13642633831E+03 -0.65308125972E+03  0.14139023600E+04  0.90560741467E+03 0.  0.
        -24    2    4    4    0    0 -0.65008961502E+02  0.14744668941E+03  0.16037128481E+03  0.24112001737E+03  0.80331951887E+02 0.  0.
         24    2    4    4    0    0 -0.79165189126E+03 -0.28387302772E+03 -0.81345254453E+03  0.11727823427E+04  0.80104733180E+02 0.  0.
         13    1    3    3    0    0  0.27022931932E+02  0.15179267848E+02 -0.85570474425E+02  0.91010741761E+02  0.00000000000E+00 0.  1.
        -13    1    3    3    0    0  0.82963792083E+03  0.12124707046E+03 -0.14552708607E+04  0.16795276746E+04  0.00000000000E+00 0. -1.
          4    1    6    6  502    0 -0.56762499787E+03 -0.16457594162E+03 -0.56764588040E+03  0.81945422343E+03  0.00000000000E+00 0. -1.
          1    1    5    5  503    0 -0.44947159987E+02  0.14606015175E+03  0.11425178881E+03  0.19080693480E+03  0.00000000000E+00 0. -1.
         -2    1    5    5    0  503 -0.20061801515E+02  0.13865376535E+01  0.46119496004E+02  0.50313082577E+02  0.00000000000E+00 0.  1.
         -3    1    6    6    0  502 -0.22402689339E+03 -0.11929708610E+03 -0.24580666414E+03  0.35332811925E+03  0.00000000000E+00 0.  1.
<mgrwt>
<rscale>  0 0.23081089E+04</rscale>
<asrwt>0</asrwt>
<pdfrwt beam="1">  1        2 0.41372025E+00 0.23081089E+04</pdfrwt>
<pdfrwt beam="2">  1       -2 0.76193708E-01 0.23081089E+04</pdfrwt>
<totfact> 0.37653567E+00</totfact>
</mgrwt>
</event>
<event>
12    1  0.1519630E-007  0.1087250E+04  0.7818608E-02  0.9217709E-01
         -1   -1    0    0    0  501 -0.00000000000E+00  0.00000000000E+00  0.26349912870E+03  0.26349912870E+03  0.00000000000E+00 0.  1.
          1   -1    0    0  501    0  0.00000000000E+00 -0.00000000000E+00 -0.11215528424E+04  0.11215528424E+04  0.00000000000E+00 0. -1.
         23    2    1    2    0    0 -0.85383700400E+02  0.88006480626E+02 -0.19652777816E+03  0.24906728682E+03  0.91519554470E+02 0.  0.
        254    2    1    2    0    0  0.85383700400E+02 -0.88006480626E+02 -0.66152593555E+03  0.11359846843E+04  0.91531913704E+03 0.  0.
        -24    2    4    4    0    0 -0.30571369123E+03 -0.91196101050E+02 -0.65975889937E+03  0.73698066817E+03  0.77981472819E+02 0.  0.
         24    2    4    4    0    0  0.39109739163E+03  0.31896204242E+01 -0.17670361845E+01  0.39900401613E+03  0.78954031263E+02 0.  0.
         13    1    3    3    0    0 -0.15156148902E+01 -0.74505135128E+01  0.61990563987E+01  0.98099714747E+01  0.00000000000E+00 0. -1.
        -13    1    3    3    0    0 -0.83868085510E+02  0.95456994139E+02 -0.20272683456E+03  0.23925731535E+03  0.00000000000E+00 0.  1.
          2    1    6    6  502    0  0.39956739792E+02  0.36894312153E+01 -0.24692325112E+02  0.47115431410E+02  0.00000000000E+00 0. -1.
          1    1    5    5  503    0 -0.10414157925E+02  0.10914140201E+02 -0.43411363292E+02  0.45957802433E+02  0.00000000000E+00 0. -1.
         -2    1    5    5    0  503 -0.29529953331E+03 -0.10211024125E+03 -0.61634753607E+03  0.69102286573E+03  0.00000000000E+00 0.  1.
         -1    1    6    6    0  502  0.35114065184E+03 -0.49981079107E+00  0.22925288927E+02  0.35188858472E+03  0.00000000000E+00 0.  1.
<mgrwt>
<rscale>  0 0.10872501E+04</rscale>
<asrwt>0</asrwt>
<pdfrwt beam="1">  1        1 0.17254659E+00 0.10872501E+04</pdfrwt>
<pdfrwt beam="2">  1       -1 0.40538328E-01 0.10872501E+04</pdfrwt>
<totfact> 0.72345590E+01</totfact>
</mgrwt>
</event>
<event>
12    1  0.1519630E-007  0.2559862E+04  0.7818608E-02  0.8381964E-01
          2   -1    0    0  501    0  0.00000000000E+00  0.00000000000E+00  0.33329183219E+04  0.33329183219E+04  0.00000000000E+00 0. -1.
         -2   -1    0    0    0  501 -0.00000000000E+00 -0.00000000000E+00 -0.49152814038E+03  0.49152814038E+03  0.00000000000E+00 0.  1.
         23    2    1    2    0    0 -0.27075594860E+03 -0.10786982422E+04  0.13987157924E+04  0.17891160526E+04  0.87359603958E+02 0.  0.
        254    2    1    2    0    0  0.27075594860E+03  0.10786982422E+04  0.14426743891E+04  0.20353304097E+04  0.90794372191E+03 0.  0.
        -24    2    4    4    0    0 -0.10027028841E+02  0.81052776131E+03  0.14227652389E+04  0.16394057573E+04  0.79589690688E+02 0.  0.
         24    2    4    4    0    0  0.28078297744E+03  0.26817048087E+03  0.19909150265E+02  0.39592465242E+03  0.74869679443E+02 0.  0.
         13    1    3    3    0    0 -0.21293396143E+03 -0.89329585665E+03  0.12023621502E+04  0.15129418692E+04  0.00000000000E+00 0. -1.
        -13    1    3    3    0    0 -0.57821987167E+02 -0.18540238553E+03  0.19635364224E+03  0.27617418341E+03  0.00000000000E+00 0.  1.
          4    1    6    6  502    0  0.16850952147E+03  0.14173215616E+03  0.45686888453E+02  0.22487942256E+03  0.00000000000E+00 0. -1.
          1    1    5    5  503    0 -0.38346909972E+02  0.23010687112E+03  0.41900903601E+03  0.47957088100E+03  0.00000000000E+00 0. -1.
         -2    1    5    5    0  503  0.28319881131E+02  0.58042089020E+03  0.10037562028E+04  0.11598348763E+04  0.00000000000E+00 0.  1.
         -3    1    6    6    0  502  0.11227345598E+03  0.12643832471E+03 -0.25777738189E+02  0.17104522986E+03  0.00000000000E+00 0.  1.
<mgrwt>
<rscale>  0 0.25598618E+04</rscale>
<asrwt>0</asrwt>
<pdfrwt beam="1">  1        2 0.51275665E+00 0.25598618E+04</pdfrwt>
<pdfrwt beam="2">  1       -2 0.75619716E-01 0.25598618E+04</pdfrwt>
<totfact> 0.14739335E+00</totfact>
</mgrwt>
</event>
<event>
12    1  0.1519630E-007  0.1646618E+04  0.7818608E-02  0.8792409E-01
          2   -1    0    0  501    0  0.00000000000E+00  0.00000000000E+00  0.46605495356E+03  0.46605495356E+03  0.00000000000E+00 0. -1.
         -2   -1    0    0    0  501 -0.00000000000E+00 -0.00000000000E+00 -0.14544165955E+04  0.14544165955E+04  0.00000000000E+00 0.  1.
         23    2    1    2    0    0  0.51000780440E+03 -0.11319200588E+03 -0.60259200331E+01  0.53044076597E+03  0.91709889077E+02 0.  0.
        254    2    1    2    0    0 -0.51000780440E+03  0.11319200588E+03 -0.98233572194E+03  0.13900307831E+04  0.83323569097E+03 0.  0.
        -24    2    4    4    0    0  0.16203101037E+03 -0.10853007274E+03 -0.50134285638E+02  0.21675664152E+03  0.80231976405E+02 0.  0.
         24    2    4    4    0    0 -0.67203881477E+03  0.22172207862E+03 -0.93220143630E+03  0.11732741416E+04  0.82315519865E+02 0.  0.
         13    1    3    3    0    0  0.12830805760E+03 -0.13580494218E+02  0.35387191365E+02  0.13378953913E+03  0.00000000000E+00 0.  1.
        -13    1    3    3    0    0  0.38169974680E+03 -0.99611511661E+02 -0.41413111398E+02  0.39665122684E+03  0.00000000000E+00 0. -1.
          4    1    6    6  502    0 -0.64324072508E+02  0.32972462009E+02 -0.62045139629E+02  0.95259481976E+02  0.00000000000E+00 0. -1.
          1    1    5    5  503    0  0.59166595916E+01  0.19482331117E+01 -0.22710085422E+02  0.23548894940E+02  0.00000000000E+00 0. -1.
         -2    1    5    5    0  503  0.15611435078E+03 -0.11047830585E+03 -0.27424200216E+02  0.19320774659E+03  0.00000000000E+00 0.  1.
         -3    1    6    6    0  502 -0.60771474226E+03  0.18874961661E+03 -0.87015629667E+03  0.10780146596E+04  0.00000000000E+00 0.  1.
<mgrwt>
<rscale>  0 0.16466184E+04</rscale>
<asrwt>0</asrwt>
<pdfrwt beam="1">  1        2 0.71700764E-01 0.16466184E+04</pdfrwt>
<pdfrwt beam="2">  1       -2 0.22375639E+00 0.16466184E+04</pdfrwt>
<totfact> 0.59693771E+00</totfact>
</mgrwt>
</event>
<event>
12    1  0.1519630E-007  0.2899750E+04  0.7818608E-02  0.8272952E-01
         -2   -1    0    0    0  501 -0.00000000000E+00  0.00000000000E+00  0.18868303917E+04  0.18868303917E+04  0.00000000000E+00 0. -1.
          2   -1    0    0  501    0  0.00000000000E+00 -0.00000000000E+00 -0.11141107030E+04  0.11141107030E+04  0.00000000000E+00 0.  1.
         23    2    1    2    0    0 -0.96663033186E+03  0.87142504066E+03  0.23788762612E+03  0.13263695914E+04  0.94392639633E+02 0.  0.
        254    2    1    2    0    0  0.96663033186E+03 -0.87142504066E+03  0.53483206262E+03  0.16745715033E+04  0.90795847064E+03 0.  0.
        -24    2    4    4    0    0  0.15111391872E+03 -0.12535707628E+03  0.52573114609E+03  0.56647552469E+03  0.77145765330E+02 0.  0.
         24    2    4    4    0    0  0.81551641313E+03 -0.74606796438E+03  0.91009165387E+01  0.11080959786E+04  0.78162929184E+02 0.  0.
         11    1    3    3    0    0 -0.15834125750E+03  0.12925855188E+03  0.42838939448E+01  0.20444578452E+03  0.00000000000E+00 0.  1.
        -11    1    3    3    0    0 -0.80828907435E+03  0.74216648878E+03  0.23360373218E+03  0.11219238069E+04  0.00000000000E+00 0. -1.
          2    1    6    6  502    0  0.50726459122E+03 -0.45896088343E+03  0.43407152386E+02  0.68545360084E+03  0.00000000000E+00 0. -1.
          3    1    5    5  503    0  0.10357827369E+02  0.76068113925E+01  0.12473412968E+02  0.17909053533E+02  0.00000000000E+00 0. -1.
         -4    1    5    5    0  503  0.14075609135E+03 -0.13296388767E+03  0.51325773312E+03  0.54856647116E+03  0.00000000000E+00 0.  1.
         -1    1    6    6    0  502  0.30825182191E+03 -0.28710708095E+03 -0.34306235848E+02  0.42264237774E+03  0.00000000000E+00 0.  1.
<mgrwt>
<rscale>  0 0.28997503E+04</rscale>
<asrwt>0</asrwt>
<pdfrwt beam="1">  1        2 0.17140165E+00 0.28997503E+04</pdfrwt>
<pdfrwt beam="2">  1       -2 0.29028160E+00 0.28997503E+04</pdfrwt>
<totfact> 0.67167066E-01</totfact>
</mgrwt>
</event>
<event>
12    1  0.1519630E-007  0.1482217E+04  0.7818608E-02  0.8896365E-01
          2   -1    0    0  501    0  0.00000000000E+00  0.00000000000E+00  0.39780944526E+03  0.39780944526E+03  0.00000000000E+00 0. -1.
         -2   -1    0    0    0  501 -0.00000000000E+00 -0.00000000000E+00 -0.13806661573E+04  0.13806661573E+04  0.00000000000E+00 0.  1.
         23    2    1    2    0    0 -0.32941022721E+02  0.39950277894E+03 -0.13013487934E+03  0.43172093189E+03  0.93596446805E+02 0.  0.
        254    2    1    2    0    0  0.32941022721E+02 -0.39950277894E+03 -0.85272183271E+03  0.13467546707E+04  0.96225050672E+03 0.  0.
        -24    2    4    4    0    0  0.29641045354E+03 -0.27814879994E+03  0.27781990955E+02  0.41628327945E+03  0.85405022411E+02 0.  0.
         24    2    4    4    0    0 -0.26346943082E+03 -0.12135397899E+03 -0.88050382366E+03  0.93047139123E+03  0.79668671538E+02 0.  0.
         11    1    3    3    0    0 -0.60094264945E+02  0.31155132833E+03 -0.81405234159E+02  0.32757039398E+03  0.00000000000E+00 0. -1.
        -11    1    3    3    0    0  0.27153242225E+02  0.87951450600E+02 -0.48729645185E+02  0.10415053790E+03  0.00000000000E+00 0.  1.
          2    1    6    6  502    0 -0.14117550678E+03 -0.10547386562E+03 -0.47531365653E+03  0.50693030302E+03  0.00000000000E+00 0. -1.
          3    1    5    5  503    0  0.27381288653E+03 -0.22593228947E+03  0.50881207030E+01  0.35502786542E+03  0.00000000000E+00 0. -1.
         -2    1    5    5    0  503  0.22597567007E+02 -0.52216510473E+02  0.22693870252E+02  0.61255414027E+02  0.00000000000E+00 0.  1.
         -1    1    6    6    0  502 -0.12229392403E+03 -0.15880113375E+02 -0.40519016714E+03  0.42354108821E+03  0.00000000000E+00 0.  1.
<mgrwt>
<rscale>  0 0.14822173E+04</rscale>
<asrwt>0</asrwt>
<pdfrwt beam="1">  1        2 0.61201452E-01 0.14822173E+04</pdfrwt>
<pdfrwt beam="2">  1       -2 0.21241018E+00 0.14822173E+04</pdfrwt>
<totfact> 0.85468195E+00</totfact>
</mgrwt>
</event>
<event>
12    1  0.1519630E-007  0.2465084E+04  0.7818608E-02  0.8415531E-01
          2   -1    0    0  501    0  0.00000000000E+00  0.00000000000E+00  0.24922252730E+04  0.24922252730E+04  0.00000000000E+00 0. -1.
         -2   -1    0    0    0  501 -0.00000000000E+00 -0.00000000000E+00 -0.60955954541E+03  0.60955954541E+03  0.00000000000E+00 0.  1.
         23    2    1    2    0    0  0.43430772498E+03 -0.47772988640E+03  0.18881699403E+04  0.19977193160E+04  0.94062200805E+02 0.  0.
        254    2    1    2    0    0 -0.43430772498E+03  0.47772988640E+03 -0.55042126897E+01  0.11040655025E+04  0.89558991344E+03 0.  0.
        -24    2    4    4    0    0  0.16617232589E+03 -0.49600169031E+02 -0.20139110727E+03  0.27735034976E+03  0.79318470534E+02 0.  0.
         24    2    4    4    0    0 -0.60048005086E+03  0.52733005543E+03  0.19588689458E+03  0.82671515270E+03  0.80205918724E+02 0.  0.
         13    1    3    3    0    0  0.40870032165E+03 -0.40972947268E+03  0.16389597953E+04  0.17381321596E+04  0.00000000000E+00 0. -1.
        -13    1    3    3    0    0  0.25607403330E+02 -0.68000413720E+02  0.24921014503E+03  0.25958715638E+03  0.00000000000E+00 0.  1.
          4    1    6    6  502    0 -0.29261806481E+03  0.21755594274E+03  0.11675260626E+03  0.38286693661E+03  0.00000000000E+00 0. -1.
          3    1    5    5  503    0  0.16309945192E+03 -0.45199518884E+02 -0.20843471711E+03  0.26849480259E+03  0.00000000000E+00 0. -1.
         -4    1    5    5    0  503  0.30728739708E+01 -0.44006501476E+01  0.70436098381E+01  0.88555471719E+01  0.00000000000E+00 0.  1.
         -3    1    6    6    0  502 -0.30786198605E+03  0.30977411269E+03  0.79134288322E+02  0.44384821610E+03  0.00000000000E+00 0.  1.
<mgrwt>
<rscale>  0 0.24650839E+04</rscale>
<asrwt>0</asrwt>
<pdfrwt beam="1">  1        2 0.38341927E+00 0.24650839E+04</pdfrwt>
<pdfrwt beam="2">  1       -2 0.93778393E-01 0.24650839E+04</pdfrwt>
<totfact> 0.30217573E+00</totfact>
</mgrwt>
</event>
<event>
12    1  0.1519630E-007  0.1849148E+04  0.7818608E-02  0.8680591E-01
          2   -1    0    0  501    0  0.00000000000E+00  0.00000000000E+00  0.80709459397E+03  0.80709459397E+03  0.00000000000E+00 0. -1.
         -2   -1    0    0    0  501 -0.00000000000E+00 -0.00000000000E+00 -0.10591531282E+04  0.10591531282E+04  0.00000000000E+00 0.  1.
         23    2    1    2    0    0  0.15860524882E+03  0.66410927750E+03  0.26176376638E+02  0.68960317161E+03  0.93115917987E+02 0.  0.
        254    2    1    2    0    0 -0.15860524882E+03 -0.66410927750E+03 -0.27823491090E+03  0.11766445506E+04  0.91699562451E+03 0.  0.
        -24    2    4    4    0    0  0.19617364240E+03 -0.39705707547E+03  0.22200215878E+03  0.50297689388E+03  0.86961934883E+02 0.  0.
         24    2    4    4    0    0 -0.35477889122E+03 -0.26705220204E+03 -0.50023706968E+03  0.67366765671E+03  0.80037775735E+02 0.  0.
         11    1    3    3    0    0  0.34753597488E+01  0.28161091276E+02  0.20461179195E+02  0.34982639141E+02  0.00000000000E+00 0.  1.
        -11    1    3    3    0    0  0.15512988907E+03  0.63594818623E+03  0.57151974435E+01  0.65462053247E+03  0.00000000000E+00 0. -1.
          4    1    6    6  502    0 -0.24291114184E+03 -0.21356744448E+03 -0.32078337477E+03  0.45554236872E+03  0.00000000000E+00 0. -1.
          3    1    5    5  503    0  0.85326527892E+02 -0.23942520298E+03  0.91058943930E+02  0.26999402856E+03  0.00000000000E+00 0. -1.
         -4    1    5    5    0  503  0.11084711451E+03 -0.15763187248E+03  0.13094321485E+03  0.23298286532E+03  0.00000000000E+00 0.  1.
         -3    1    6    6    0  502 -0.11186774938E+03 -0.53484757555E+02 -0.17945369491E+03  0.21812528799E+03  0.00000000000E+00 0.  1.
<mgrwt>
<rscale>  0 0.18491477E+04</rscale>
<asrwt>0</asrwt>
<pdfrwt beam="1">  1        2 0.12416840E+00 0.18491477E+04</pdfrwt>
<pdfrwt beam="2">  1       -2 0.16294663E+00 0.18491477E+04</pdfrwt>
<totfact> 0.76676262E+00</totfact>
</mgrwt>
</event>
<event>
12    1  0.1519630E-007  0.1974632E+04  0.7818608E-02  0.8618574E-01
          2   -1    0    0  501    0  0.00000000000E+00  0.00000000000E+00  0.83709690034E+03  0.83709690034E+03  0.00000000000E+00 0. -1.
         -2   -1    0    0    0  501 -0.00000000000E+00 -0.00000000000E+00 -0.11644921777E+04  0.11644921777E+04  0.00000000000E+00 0.  1.
         23    2    1    2    0    0 -0.34034676048E+03  0.24801787413E+03 -0.79629836578E+03  0.90545058475E+03  0.91656373568E+02 0.  0.
        254    2    1    2    0    0  0.34034676048E+03 -0.24801787413E+03  0.46890308844E+03  0.10961384933E+04  0.89682813672E+03 0.  0.
        -24    2    4    4    0    0 -0.15129793239E+03  0.19014732967E+03 -0.41339426809E+02  0.25921271222E+03  0.80219764669E+02 0.  0.
         24    2    4    4    0    0  0.49164469287E+03 -0.43816520380E+03  0.51024251525E+03  0.83692578105E+03  0.79963046278E+02 0.  0.
         13    1    3    3    0    0 -0.86902936564E+01  0.31632262325E+02 -0.39841038002E+02  0.51608425017E+02  0.00000000000E+00 0. -1.
        -13    1    3    3    0    0 -0.33165646683E+03  0.21638561181E+03 -0.75645732778E+03  0.85384215973E+03  0.00000000000E+00 0.  1.
          4    1    6    6  502    0  0.32147307349E+03 -0.33479209871E+03  0.36502274825E+03  0.59048479496E+03  0.00000000000E+00 0. -1.
          1    1    5    5  503    0 -0.15940139441E+03  0.16505699390E+03 -0.35266004480E+02  0.23215578142E+03  0.00000000000E+00 0. -1.
         -2    1    5    5    0  503  0.81034620186E+01  0.25090335772E+02 -0.60734223283E+01  0.27056930806E+02  0.00000000000E+00 0.  1.
         -3    1    6    6    0  502  0.17017161938E+03 -0.10337310509E+03  0.14521976699E+03  0.24644098609E+03  0.00000000000E+00 0.  1.
<mgrwt>
<rscale>  0 0.19746319E+04</rscale>
<asrwt>0</asrwt>
<pdfrwt beam="1">  1        2 0.12878414E+00 0.19746319E+04</pdfrwt>
<pdfrwt beam="2">  1       -2 0.17915264E+00 0.19746319E+04</pdfrwt>
<totfact> 0.55426108E+00</totfact>
</mgrwt>
</event>
<event>
12    1  0.1519630E-007  0.2161772E+04  0.7818608E-02  0.8534510E-01
          1   -1    0    0  501    0  0.00000000000E+00  0.00000000000E+00  0.28594292859E+04  0.28594292859E+04  0.00000000000E+00 0. -1.
         -1   -1    0    0    0  501 -0.00000000000E+00 -0.00000000000E+00 -0.40858301294E+03  0.40858301294E+03  0.00000000000E+00 0.  1.
         23    2    1    2    0    0  0.30575365168E+03 -0.63774234006E+03  0.19311621659E+03  0.73881424914E+03  0.91389462120E+02 0.  0.
        254    2    1    2    0    0 -0.30575365168E+03  0.63774234006E+03  0.22577300564E+04  0.25291980497E+04  0.89403421602E+03 0.  0.
        -24    2    4    4    0    0 -0.56687652684E+03  0.18455425537E+03  0.13583151521E+04  0.14856302581E+04  0.81657465382E+02 0.  0.
         24    2    4    4    0    0  0.26112287515E+03  0.45318808469E+03  0.89941490434E+03  0.10435677916E+04  0.80758711837E+02 0.  0.
         13    1    3    3    0    0  0.21225326366E+03 -0.40315628020E+03  0.16563615612E+03  0.48479043969E+03  0.00000000000E+00 0.  1.
        -13    1    3    3    0    0  0.93500388028E+02 -0.23458605986E+03  0.27480060476E+02  0.25402380945E+03  0.00000000000E+00 0. -1.
          4    1    6    6  502    0  0.41215626306E+02  0.84540959098E+02  0.22830979024E+03  0.24692359534E+03  0.00000000000E+00 0. -1.
          1    1    5    5  503    0 -0.25427559900E+03  0.64412401684E+02  0.50755388570E+03  0.57132826346E+03  0.00000000000E+00 0. -1.
         -2    1    5    5    0  503 -0.31260092784E+03  0.12014185369E+03  0.85076126636E+03  0.91430199465E+03  0.00000000000E+00 0.  1.
         -3    1    6    6    0  502  0.21990724885E+03  0.36864712559E+03  0.67110511410E+03  0.79664419629E+03  0.00000000000E+00 0.  1.
<mgrwt>
<rscale>  0 0.21617717E+04</rscale>
<asrwt>0</asrwt>
<pdfrwt beam="1">  1        1 0.43991218E+00 0.21617717E+04</pdfrwt>
<pdfrwt beam="2">  1       -1 0.62858927E-01 0.21617717E+04</pdfrwt>
<totfact> 0.17756268E+00</totfact>
</mgrwt>
</event>
<event>
12    1  0.1519630E-007  0.2451276E+04  0.7818608E-02  0.8420552E-01
          2   -1    0    0  501    0  0.00000000000E+00  0.00000000000E+00  0.20146518407E+04  0.20146518407E+04  0.00000000000E+00 0. -1.
         -2   -1    0    0    0  501 -0.00000000000E+00 -0.00000000000E+00 -0.74563169379E+03  0.74563169379E+03  0.00000000000E+00 0.  1.
         23    2    1    2    0    0 -0.64038888690E+02 -0.25860606473E+03  0.17037813694E+04  0.17265839701E+04  0.85106845901E+02 0.  0.
        254    2    1    2    0    0  0.64038888690E+02  0.25860606473E+03 -0.43476122248E+03  0.10336995644E+04  0.89918818544E+03 0.  0.
        -24    2    4    4    0    0  0.34067498979E+03  0.46551744200E+03 -0.30066530814E+03  0.65499684669E+03  0.76519959283E+02 0.  0.
         24    2    4    4    0    0 -0.27663610110E+03 -0.20691137727E+03 -0.13409591434E+03  0.37870271769E+03  0.78065252619E+02 0.  0.
         11    1    3    3    0    0 -0.33978281431E+02 -0.21740959216E+03  0.15204781064E+04  0.15363186929E+04  0.00000000000E+00 0. -1.
        -11    1    3    3    0    0 -0.30060607260E+02 -0.41196472576E+02  0.18330326300E+03  0.19026527715E+03  0.00000000000E+00 0.  1.
          4    1    6    6  502    0 -0.23858485421E+02 -0.47585778179E+02 -0.35799386975E+02  0.64150056269E+02  0.00000000000E+00 0. -1.
          3    1    5    5  503    0 -0.14037856109E+01  0.17053983426E+02 -0.14951016871E+02  0.22723157136E+02  0.00000000000E+00 0. -1.
         -4    1    5    5    0  503  0.34207877541E+03  0.44846345858E+03 -0.28571429127E+03  0.63227368955E+03  0.00000000000E+00 0.  1.
         -3    1    6    6    0  502 -0.25277761568E+03 -0.15932559909E+03 -0.98296527360E+02  0.31455266142E+03  0.00000000000E+00 0.  1.
<mgrwt>
<rscale>  0 0.24512758E+04</rscale>
<asrwt>0</asrwt>
<pdfrwt beam="1">  1        2 0.30994643E+00 0.24512758E+04</pdfrwt>
<pdfrwt beam="2">  1       -2 0.11471257E+00 0.24512758E+04</pdfrwt>
<totfact> 0.34832255E+00</totfact>
</mgrwt>
</event>
<event>
12    1  0.1519630E-007  0.2076700E+04  0.7818608E-02  0.8571577E-01
          2   -1    0    0  501    0  0.00000000000E+00  0.00000000000E+00  0.32068996142E+04  0.32068996142E+04  0.00000000000E+00 0. -1.
         -2   -1    0    0    0  501 -0.00000000000E+00 -0.00000000000E+00 -0.33620358611E+03  0.33620358611E+03  0.00000000000E+00 0.  1.
         23    2    1    2    0    0 -0.17174514088E+03  0.80739892297E+03  0.88694207450E+03  0.12149486508E+04  0.89691506154E+02 0.  0.
        254    2    1    2    0    0  0.17174514088E+03 -0.80739892297E+03  0.19837539535E+04  0.23281545495E+04  0.89645660454E+03 0.  0.
        -24    2    4    4    0    0  0.49044858583E+02 -0.40517462104E+03  0.14522081936E+03  0.44049642236E+03  0.79850736052E+02 0.  0.
         24    2    4    4    0    0  0.12270028230E+03 -0.40222430193E+03  0.18385331342E+04  0.18876581271E+04  0.78799562436E+02 0.  0.
         13    1    3    3    0    0 -0.60417982560E+02  0.17372129684E+03  0.24202338027E+03  0.30398147672E+03  0.00000000000E+00 0. -1.
        -13    1    3    3    0    0 -0.11132715832E+03  0.63367762614E+03  0.64491869423E+03  0.91096717406E+03  0.00000000000E+00 0.  1.
          4    1    6    6  502    0  0.42933756914E+02 -0.12991922754E+03  0.44629243864E+03  0.46679680157E+03  0.00000000000E+00 0. -1.
          3    1    5    5  503    0 -0.85974772226E+01 -0.37333796590E+01 -0.90309227374E+00  0.94164915933E+01  0.00000000000E+00 0. -1.
         -4    1    5    5    0  503  0.57642335806E+02 -0.40144124138E+03  0.14612391163E+03  0.43107993077E+03  0.00000000000E+00 0.  1.
         -3    1    6    6    0  502  0.79766525386E+02 -0.27230507439E+03  0.13922406956E+04  0.14208613256E+04  0.00000000000E+00 0.  1.
<mgrwt>
<rscale>  0 0.20767004E+04</rscale>
<asrwt>0</asrwt>
<pdfrwt beam="1">  1        2 0.49336915E+00 0.20767004E+04</pdfrwt>
<pdfrwt beam="2">  1       -2 0.51723631E-01 0.20767004E+04</pdfrwt>
<totfact> 0.41954460E+00</totfact>
</mgrwt>
</event>
<event>
12    1  0.2285436E-007  0.1747404E+04  0.7818608E-02  0.8734781E-01
          2   -1    0    0  501    0  0.00000000000E+00  0.00000000000E+00  0.86818801396E+03  0.86818801396E+03  0.00000000000E+00 0. -1.
         -2   -1    0    0    0  501 -0.00000000000E+00 -0.00000000000E+00 -0.87925066400E+03  0.87925066400E+03  0.00000000000E+00 0.  1.
         23    2    1    2    0    0  0.64443922251E+03 -0.40077493467E+02 -0.39548826952E+02  0.65323291458E+03  0.90780030779E+02 0.  0.
        254    2    1    2    0    0 -0.64443922251E+03  0.40077493467E+02  0.28486176913E+02  0.10942057634E+04  0.88293072964E+03 0.  0.
        -24    2    4    4    0    0 -0.38227360246E+03 -0.14582628860E+03 -0.38267126951E+03  0.56646254090E+03  0.83929113849E+02 0.  0.
         24    2    4    4    0    0 -0.26216562004E+03  0.18590378207E+03  0.41115744642E+03  0.52774322248E+03  0.78558478898E+02 0.  0.
         13    1    3    3    0    0  0.63458184346E+03 -0.27367909117E+02 -0.43535630544E+02  0.63666197439E+03  0.00000000000E+00 0.  1.
        -13    1    3    3    0    0  0.98573790412E+01 -0.12709584350E+02  0.39868035914E+01  0.16570940190E+02  0.00000000000E+00 0. -1.
          2    1    6    6  502    0 -0.33062549211E+02  0.68374738142E+01  0.16628332888E+02  0.37634886251E+02  0.00000000000E+00 0. -1.
          3    1    5    5  503    0 -0.44888311916E+02 -0.48136220719E+02 -0.71856546833E+02  0.97444443733E+02  0.00000000000E+00 0. -1.
         -4    1    5    5    0  503 -0.33738529055E+03 -0.97690067881E+02 -0.31081472267E+03  0.46901809717E+03  0.00000000000E+00 0.  1.
         -1    1    6    6    0  502 -0.22910307083E+03  0.17906630825E+03  0.39452911353E+03  0.49010833623E+03  0.00000000000E+00 0.  1.
<mgrwt>
<rscale>  0 0.17474037E+04</rscale>
<asrwt>0</asrwt>
<pdfrwt beam="1">  1        2 0.13356739E+00 0.17474037E+04</pdfrwt>
<pdfrwt beam="2">  1       -2 0.13526933E+00 0.17474037E+04</pdfrwt>
<totfact> 0.11469394E+01</totfact>
</mgrwt>
</event>
<event>
12    1  0.1519630E-007  0.2031461E+04  0.7818608E-02  0.8592051E-01
         -1   -1    0    0    0  501 -0.00000000000E+00  0.00000000000E+00  0.22504807391E+04  0.22504807391E+04  0.00000000000E+00 0.  1.
          1   -1    0    0  501    0  0.00000000000E+00 -0.00000000000E+00 -0.45843926899E+03  0.45843926899E+03  0.00000000000E+00 0. -1.
         23    2    1    2    0    0  0.34395008827E+03 -0.56338149348E+03  0.13621572075E+04  0.15162640426E+04  0.88791994779E+02 0.  0.
        254    2    1    2    0    0 -0.34395008827E+03  0.56338149348E+03  0.42988426262E+03  0.11926559656E+04  0.89550399358E+03 0.  0.
        -24    2    4    4    0    0 -0.14284444189E+03  0.70120067669E+03  0.55275618646E+03  0.90800636326E+03  0.82760077768E+02 0.  0.
         24    2    4    4    0    0 -0.20110564639E+03 -0.13781918320E+03 -0.12287192384E+03  0.28464960231E+03  0.80562262611E+02 0.  0.
         11    1    3    3    0    0  0.45258951645E+02 -0.14497664337E+03  0.31951667964E+03  0.35377607098E+03  0.00000000000E+00 0. -1.
        -11    1    3    3    0    0  0.29869113663E+03 -0.41840485011E+03  0.10426405279E+04  0.11624879716E+04  0.00000000000E+00 0.  1.
          2    1    6    6  502    0 -0.29840819841E+02  0.67745706323E+01 -0.37736378038E+01  0.30831958717E+02  0.00000000000E+00 0. -1.
          1    1    5    5  503    0 -0.55741526643E+01  0.21648423007E+03  0.16194719822E+03  0.27041336516E+03  0.00000000000E+00 0. -1.
         -2    1    5    5    0  503 -0.13727028922E+03  0.48471644662E+03  0.39080898824E+03  0.63759299809E+03  0.00000000000E+00 0.  1.
         -1    1    6    6    0  502 -0.17126482654E+03 -0.14459375384E+03 -0.11909828604E+03  0.25381764359E+03  0.00000000000E+00 0.  1.
<mgrwt>
<rscale>  0 0.20314613E+04</rscale>
<asrwt>0</asrwt>
<pdfrwt beam="1">  1        1 0.70529120E-01 0.20314613E+04</pdfrwt>
<pdfrwt beam="2">  1       -1 0.34622780E+00 0.20314613E+04</pdfrwt>
<totfact> 0.76125343E-01</totfact>
</mgrwt>
</event>
<event>
12    1  0.2821996E-007  0.1617075E+04  0.7818608E-02  0.8810126E-01
          1   -1    0    0  501    0  0.00000000000E+00  0.00000000000E+00  0.50518245512E+03  0.50518245512E+03  0.00000000000E+00 0. -1.
         -1   -1    0    0    0  501 -0.00000000000E+00 -0.00000000000E+00 -0.12940533164E+04  0.12940533164E+04  0.00000000000E+00 0.  1.
         23    2    1    2    0    0 -0.44630979303E+03 -0.23141235462E+03 -0.54221833185E+02  0.51387300719E+03  0.91549719311E+02 0.  0.
        254    2    1    2    0    0  0.44630979303E+03  0.23141235462E+03 -0.73464902808E+03  0.12853627643E+04  0.92720231460E+03 0.  0.
        -24    2    4    4    0    0  0.26538596647E+03 -0.24577671050E+03 -0.66898774984E+03  0.76456465033E+03  0.78604023213E+02 0.  0.
         24    2    4    4    0    0  0.18092382656E+03  0.47718906512E+03 -0.65661278232E+02  0.52079811398E+03  0.80476314412E+02 0.  0.
         11    1    3    3    0    0 -0.42009278042E+03 -0.19838370336E+03 -0.30712506795E+02  0.46559348792E+03  0.00000000000E+00 0. -1.
        -11    1    3    3    0    0 -0.26217012605E+02 -0.33028651255E+02 -0.23509326390E+02  0.48279519270E+02  0.00000000000E+00 0.  1.
          2    1    6    6  502    0  0.16395204095E+02  0.16104047227E+02 -0.17478162601E+02  0.28872637952E+02  0.00000000000E+00 0. -1.
          1    1    5    5  503    0  0.24761668077E+01 -0.12346971654E+02 -0.56272357602E+01  0.13792929109E+02  0.00000000000E+00 0. -1.
         -2    1    5    5    0  503  0.26290979966E+03 -0.23342973885E+03 -0.66336051408E+03  0.75077172122E+03  0.00000000000E+00 0.  1.
         -1    1    6    6    0  502  0.16452862246E+03  0.46108501789E+03 -0.48183115631E+02  0.49192547603E+03  0.00000000000E+00 0.  1.
<mgrwt>
<rscale>  0 0.16170752E+04</rscale>
<asrwt>0</asrwt>
<pdfrwt beam="1">  1        1 0.77720379E-01 0.16170752E+04</pdfrwt>
<pdfrwt beam="2">  1       -1 0.19908512E+00 0.16170752E+04</pdfrwt>
<totfact> 0.63923388E+00</totfact>
</mgrwt>
</event>
<event>
12    1  0.1519630E-007  0.1540937E+04  0.7818608E-02  0.8857678E-01
          2   -1    0    0  501    0  0.00000000000E+00  0.00000000000E+00  0.16404770180E+04  0.16404770180E+04  0.00000000000E+00 0.  1.
         -2   -1    0    0    0  501 -0.00000000000E+00 -0.00000000000E+00 -0.36185913024E+03  0.36185913024E+03  0.00000000000E+00 0. -1.
         23    2    1    2    0    0 -0.42430368873E+03  0.89104082507E+02  0.76860246564E+03  0.88680419626E+03  0.87742660859E+02 0.  0.
        254    2    1    2    0    0  0.42430368873E+03 -0.89104082507E+02  0.51001542213E+03  0.11155319520E+04  0.89236912055E+03 0.  0.
        -24    2    4    4    0    0  0.58009826940E+03  0.22397279574E+03  0.38398770004E+03  0.73516343391E+03  0.79629802072E+02 0.  0.
         24    2    4    4    0    0 -0.15579458067E+03 -0.31307687824E+03  0.12602772208E+03  0.38036851808E+03  0.80673042332E+02 0.  0.
         11    1    3    3    0    0 -0.41748275034E+03  0.99004302730E+02  0.75674797563E+03  0.86992022475E+03  0.00000000000E+00 0.  1.
        -11    1    3    3    0    0 -0.68209383834E+01 -0.99002202233E+01  0.11854490002E+02  0.16883971514E+02  0.00000000000E+00 0. -1.
          4    1    6    6  502    0 -0.15318688307E+03 -0.28060733588E+03  0.90699287116E+02  0.33231469841E+03  0.00000000000E+00 0. -1.
          3    1    5    5  503    0  0.20152382088E+03  0.65040308687E+02  0.17356243734E+03  0.27379921802E+03  0.00000000000E+00 0. -1.
         -4    1    5    5    0  503  0.37857444852E+03  0.15893248705E+03  0.21042526271E+03  0.46136421588E+03  0.00000000000E+00 0.  1.
         -3    1    6    6    0  502 -0.26076975959E+01 -0.32469542365E+02  0.35328434969E+02  0.48053819676E+02  0.00000000000E+00 0.  1.
<mgrwt>
<rscale>  0 0.15409368E+04</rscale>
<asrwt>0</asrwt>
<pdfrwt beam="1">  1        2 0.25238108E+00 0.15409368E+04</pdfrwt>
<pdfrwt beam="2">  1       -2 0.55670636E-01 0.15409368E+04</pdfrwt>
<totfact> 0.30905141E+01</totfact>
</mgrwt>
</event>
<event>
12    1  0.1519630E-007  0.1903469E+04  0.7818608E-02  0.8653132E-01
          2   -1    0    0  501    0  0.00000000000E+00  0.00000000000E+00  0.83627029687E+03  0.83627029687E+03  0.00000000000E+00 0. -1.
         -2   -1    0    0    0  501 -0.00000000000E+00 -0.00000000000E+00 -0.10831406020E+04  0.10831406020E+04  0.00000000000E+00 0.  1.
         23    2    1    2    0    0 -0.39255941331E+03  0.57027300195E+03  0.83526046642E+02  0.70338293295E+03  0.91960644656E+02 0.  0.
        254    2    1    2    0    0  0.39255941331E+03 -0.57027300195E+03 -0.33039635181E+03  0.12160279660E+04  0.94352958351E+03 0.  0.
        -24    2    4    4    0    0 -0.24088642504E+03 -0.38428800609E+03 -0.30049826284E+03  0.55029119723E+03  0.82569088524E+02 0.  0.
         24    2    4    4    0    0  0.63344583835E+03 -0.18598499585E+03 -0.29898088965E+02  0.66573676873E+03  0.80420772843E+02 0.  0.
         11    1    3    3    0    0 -0.17689093945E+03  0.25071117248E+03 -0.87760849431E+01  0.30695849252E+03  0.00000000000E+00 0.  1.
        -11    1    3    3    0    0 -0.21566847386E+03  0.31956182947E+03  0.92302131585E+02  0.39642444042E+03  0.00000000000E+00 0. -1.
          4    1    6    6  502    0  0.42626978328E+03 -0.15953940234E+03 -0.30174142535E+01  0.45515695515E+03  0.00000000000E+00 0. -1.
          1    1    5    5  503    0 -0.23737830529E+03 -0.38836822371E+03 -0.29936703509E+03  0.54479258320E+03  0.00000000000E+00 0. -1.
         -2    1    5    5    0  503 -0.35081197535E+01  0.40802176168E+01 -0.11312277459E+01  0.54986140270E+01  0.00000000000E+00 0.  1.
         -3    1    6    6    0  502  0.20717605507E+03 -0.26445593510E+02 -0.26880674712E+02  0.21057981357E+03  0.00000000000E+00 0.  1.
<mgrwt>
<rscale>  0 0.19034687E+04</rscale>
<asrwt>0</asrwt>
<pdfrwt beam="1">  1        2 0.12865697E+00 0.19034687E+04</pdfrwt>
<pdfrwt beam="2">  1       -2 0.16663702E+00 0.19034687E+04</pdfrwt>
<totfact> 0.68424154E+00</totfact>
</mgrwt>
</event>
<event>
12    1  0.1519630E-007  0.2759238E+04  0.7818608E-02  0.8316036E-01
         -2   -1    0    0    0  501 -0.00000000000E+00  0.00000000000E+00  0.92625400128E+03  0.92625400128E+03  0.00000000000E+00 0.  1.
          2   -1    0    0  501    0  0.00000000000E+00 -0.00000000000E+00 -0.20548884886E+04  0.20548884886E+04  0.00000000000E+00 0. -1.
         23    2    1    2    0    0  0.10893312000E+04  0.33776483860E+01  0.18785897584E+03  0.11092608262E+04  0.92275207374E+02 0.  0.
        254    2    1    2    0    0 -0.10893312000E+04 -0.33776483860E+01 -0.13164934632E+04  0.18718816637E+04  0.76428532142E+03 0.  0.
        -24    2    4    4    0    0  0.38816444428E+02 -0.14297480709E+03 -0.68049357815E+02  0.18154210161E+03  0.79864308279E+02 0.  0.
         24    2    4    4    0    0 -0.11281476444E+04  0.13959715870E+03 -0.12484441054E+04  0.16903395621E+04  0.80191499850E+02 0.  0.
         13    1    3    3    0    0  0.31137451722E+03 -0.13614977092E+02  0.93641667574E+02  0.32543543059E+03  0.00000000000E+00 0. -1.
        -13    1    3    3    0    0  0.77795668278E+03  0.16992625478E+02  0.94217308263E+02  0.78382539560E+03  0.00000000000E+00 0.  1.
          2    1    6    6  502    0 -0.35749072106E+03  0.68418775584E+01 -0.39544844585E+03  0.53312840878E+03  0.00000000000E+00 0. -1.
          1    1    5    5  503    0  0.42239191687E+02 -0.29735147612E+02 -0.38602628196E+02  0.64486364617E+02  0.00000000000E+00 0. -1.
         -2    1    5    5    0  503 -0.34227472589E+01 -0.11323965947E+03 -0.29446729619E+02  0.11705573699E+03  0.00000000000E+00 0.  1.
         -1    1    6    6    0  502 -0.77065692338E+03  0.13275528114E+03 -0.85299565954E+03  0.11572111533E+04  0.00000000000E+00 0.  1.
<mgrwt>
<rscale>  0 0.27592381E+04</rscale>
<asrwt>0</asrwt>
<pdfrwt beam="1">  1        2 0.31613668E+00 0.27592381E+04</pdfrwt>
<pdfrwt beam="2">  1       -2 0.14250062E+00 0.27592381E+04</pdfrwt>
<totfact> 0.18645211E+00</totfact>
</mgrwt>
</event>
<event>
12    1  0.1519630E-007  0.2529276E+04  0.7818608E-02  0.8392629E-01
          2   -1    0    0  501    0  0.00000000000E+00  0.00000000000E+00  0.24018462574E+04  0.24018462574E+04  0.00000000000E+00 0. -1.
         -2   -1    0    0    0  501 -0.00000000000E+00 -0.00000000000E+00 -0.66586688774E+03  0.66586688774E+03  0.00000000000E+00 0.  1.
         23    2    1    2    0    0 -0.55294182894E+02  0.10331161486E+04  0.31704395364E+03  0.10886429464E+04  0.11933219579E+03 0.  0.
        254    2    1    2    0    0  0.55294182894E+02 -0.10331161486E+04  0.14189354160E+04  0.19790701987E+04  0.91266352695E+03 0.  0.
        -24    2    4    4    0    0 -0.26137601338E+03 -0.93060751679E+03  0.12891832201E+04  0.16132555648E+04  0.79071941625E+02 0.  0.
         24    2    4    4    0    0  0.31667019627E+03 -0.10250863185E+03  0.12975219592E+03  0.36581463385E+03  0.78719001421E+02 0.  0.
         13    1    3    3    0    0 -0.25928397811E+02  0.59077566102E+03  0.24235677202E+03  0.63908134726E+03  0.00000000000E+00 0. -1.
        -13    1    3    3    0    0 -0.29365785084E+02  0.44234048762E+03  0.74687181617E+02  0.44956159914E+03  0.00000000000E+00 0.  1.
          4    1    6    6  502    0  0.19546775795E+03 -0.66432798797E+02  0.12044626784E+03  0.23901519740E+03  0.00000000000E+00 0. -1.
          1    1    5    5  503    0 -0.44010548741E+02 -0.20241975859E+03  0.32819083619E+03  0.38809781245E+03  0.00000000000E+00 0. -1.
         -2    1    5    5    0  503 -0.21736546463E+03 -0.72818775820E+03  0.96099238387E+03  0.12251577524E+04  0.00000000000E+00 0.  1.
         -3    1    6    6    0  502  0.12120243832E+03 -0.36075833048E+02  0.93059280739E+01  0.12679943645E+03  0.00000000000E+00 0.  1.
<mgrwt>
<rscale>  0 0.25292765E+04</rscale>
<asrwt>0</asrwt>
<pdfrwt beam="1">  1        2 0.36951481E+00 0.25292765E+04</pdfrwt>
<pdfrwt beam="2">  1       -2 0.10244106E+00 0.25292765E+04</pdfrwt>
<totfact> 0.27512572E+00</totfact>
</mgrwt>
</event>
<event>
12    1  0.1519630E-007  0.1415839E+04  0.7818608E-02  0.8942433E-01
          2   -1    0    0  501    0  0.00000000000E+00  0.00000000000E+00  0.21459772916E+04  0.21459772916E+04  0.00000000000E+00 0. -1.
         -2   -1    0    0    0  501 -0.00000000000E+00 -0.00000000000E+00 -0.23352985957E+03  0.23352985957E+03  0.00000000000E+00 0.  1.
         23    2    1    2    0    0 -0.72814477240E+02  0.30371511038E+03  0.10640698697E+03  0.34257965678E+03  0.92160501257E+02 0.  0.
        254    2    1    2    0    0  0.72814477240E+02 -0.30371511038E+03  0.18060404451E+04  0.20369274944E+04  0.88867694461E+03 0.  0.
        -24    2    4    4    0    0  0.34844715141E+03  0.88149234935E+02  0.12275048666E+04  0.12816052812E+04  0.80982679063E+02 0.  0.
         24    2    4    4    0    0 -0.27563267417E+03 -0.39186434532E+03  0.57853557849E+03  0.75532221323E+03  0.79228744919E+02 0.  0.
         13    1    3    3    0    0 -0.12918509723E+02  0.58869997992E+02 -0.16009908278E+02  0.62360898968E+02  0.00000000000E+00 0. -1.
        -13    1    3    3    0    0 -0.59895967518E+02  0.24484511239E+03  0.12241689525E+03  0.28021875781E+03  0.00000000000E+00 0.  1.
          2    1    6    6  502    0 -0.20562468831E+03 -0.33738904648E+03  0.44602799453E+03  0.59586395513E+03  0.00000000000E+00 0. -1.
          3    1    5    5  503    0  0.30883477622E+03  0.54326128415E+02  0.11013275022E+04  0.11450993469E+04  0.00000000000E+00 0. -1.
         -4    1    5    5    0  503  0.39612375198E+02  0.33823106520E+02  0.12617736442E+03  0.13650593429E+03  0.00000000000E+00 0.  1.
         -1    1    6    6    0  502 -0.70007985866E+02 -0.54475298840E+02  0.13250758396E+03  0.15945825810E+03  0.00000000000E+00 0.  1.
<mgrwt>
<rscale>  0 0.14158387E+04</rscale>
<asrwt>0</asrwt>
<pdfrwt beam="1">  1        2 0.33015034E+00 0.14158387E+04</pdfrwt>
<pdfrwt beam="2">  1       -2 0.35927672E-01 0.14158387E+04</pdfrwt>
<totfact> 0.39269572E+01</totfact>
</mgrwt>
</event>
<event>
12    1  0.1519630E-007  0.2176528E+04  0.7818608E-02  0.8528262E-01
          1   -1    0    0  501    0  0.00000000000E+00  0.00000000000E+00  0.20469837940E+04  0.20469837940E+04  0.00000000000E+00 0. -1.
         -1   -1    0    0    0  501 -0.00000000000E+00 -0.00000000000E+00 -0.57856735830E+03  0.57856735830E+03  0.00000000000E+00 0.  1.
         23    2    1    2    0    0 -0.30471338664E+03  0.75151628806E+03  0.10818509099E+04  0.13547973601E+04  0.86298993796E+02 0.  0.
        254    2    1    2    0    0  0.30471338664E+03 -0.75151628806E+03  0.38656552579E+03  0.12707537922E+04  0.89875208792E+03 0.  0.
        -24    2    4    4    0    0  0.58884865713E+02 -0.15616162903E+03 -0.28317611343E+03  0.33806277071E+03  0.79017997541E+02 0.  0.
         24    2    4    4    0    0  0.24582852093E+03 -0.59535465903E+03  0.66974163921E+03  0.93269102152E+03  0.80497494392E+02 0.  0.
         13    1    3    3    0    0 -0.15027409692E+03  0.33150561314E+03  0.55279046394E+03  0.66185766806E+03  0.00000000000E+00 0.  1.
        -13    1    3    3    0    0 -0.15443928973E+03  0.42001067492E+03  0.52906044599E+03  0.69293969202E+03  0.00000000000E+00 0. -1.
          4    1    6    6  502    0  0.18812778271E+03 -0.50893221878E+03  0.52942982312E+03  0.75808970680E+03  0.00000000000E+00 0. -1.
          3    1    5    5  503    0 -0.87004081698E+01 -0.18117636653E+02 -0.57498637256E+01  0.20904707438E+02  0.00000000000E+00 0. -1.
         -4    1    5    5    0  503  0.67585273883E+02 -0.13804399238E+03 -0.27742624970E+03  0.31715806327E+03  0.00000000000E+00 0.  1.
         -3    1    6    6    0  502  0.57700738218E+02 -0.86422440251E+02  0.14031181609E+03  0.17460131473E+03  0.00000000000E+00 0.  1.
<mgrwt>
<rscale>  0 0.21765275E+04</rscale>
<asrwt>0</asrwt>
<pdfrwt beam="1">  1        1 0.31492058E+00 0.21765275E+04</pdfrwt>
<pdfrwt beam="2">  1       -1 0.89010364E-01 0.21765275E+04</pdfrwt>
<totfact> 0.31306335E+00</totfact>
</mgrwt>
</event>
<event>
12    1  0.1519630E-007  0.1471204E+04  0.7818608E-02  0.8903831E-01
          1   -1    0    0  501    0  0.00000000000E+00  0.00000000000E+00  0.98140073891E+03  0.98140073891E+03  0.00000000000E+00 0. -1.
         -1   -1    0    0    0  501 -0.00000000000E+00 -0.00000000000E+00 -0.55136518201E+03  0.55136518201E+03  0.00000000000E+00 0.  1.
         23    2    1    2    0    0  0.38218255788E+03 -0.14741824418E+02  0.40616069540E+03  0.56355253334E+03  0.79649974334E+02 0.  0.
        254    2    1    2    0    0 -0.38218255788E+03  0.14741824418E+02  0.23874861497E+02  0.96921338757E+03  0.89023803148E+03 0.  0.
        -24    2    4    4    0    0 -0.35747603924E+03  0.34380039642E+03  0.25000742056E+03  0.56120023990E+03  0.80337834889E+02 0.  0.
         24    2    4    4    0    0 -0.24706518639E+02 -0.32905857201E+03 -0.22613255906E+03  0.40801314767E+03  0.80304660722E+02 0.  0.
         13    1    3    3    0    0  0.37827004241E+03 -0.24834787545E+02  0.38825884220E+03  0.54263239878E+03  0.00000000000E+00 0. -1.
        -13    1    3    3    0    0  0.39125154661E+01  0.10092963127E+02  0.17901853204E+02  0.20920134562E+02  0.00000000000E+00 0.  1.
          4    1    6    6  502    0  0.23849690273E+02 -0.17162675609E+03 -0.96180374024E+02  0.19817975548E+03  0.00000000000E+00 0. -1.
          1    1    5    5  503    0 -0.88412555316E+02  0.13400773918E+03  0.93982528404E+02  0.18603109886E+03  0.00000000000E+00 0. -1.
         -2    1    5    5    0  503 -0.26906348393E+03  0.20979265724E+03  0.15602489215E+03  0.37516914104E+03  0.00000000000E+00 0.  1.
         -3    1    6    6    0  502 -0.48556208912E+02 -0.15743181591E+03 -0.12995218504E+03  0.20983339220E+03  0.00000000000E+00 0.  1.
<mgrwt>
<rscale>  0 0.14712039E+04</rscale>
<asrwt>0</asrwt>
<pdfrwt beam="1">  1        1 0.15098473E+00 0.14712039E+04</pdfrwt>
<pdfrwt beam="2">  1       -1 0.84825413E-01 0.14712039E+04</pdfrwt>
<totfact> 0.20871788E+01</totfact>
</mgrwt>
</event>
<event>
12    1  0.1519630E-007  0.1799709E+04  0.7818608E-02  0.8706454E-01
         -2   -1    0    0    0  501 -0.00000000000E+00  0.00000000000E+00  0.83012972525E+03  0.83012972525E+03  0.00000000000E+00 0.  1.
          2   -1    0    0  501    0  0.00000000000E+00 -0.00000000000E+00 -0.97543558764E+03  0.97543558764E+03  0.00000000000E+00 0. -1.
         23    2    1    2    0    0 -0.24315756844E+03  0.64004411602E+03  0.37333347003E+01  0.69125651232E+03  0.95076571766E+02 0.  0.
        254    2    1    2    0    0  0.24315756844E+03 -0.64004411602E+03 -0.14903919709E+03  0.11143088006E+04  0.86642330718E+03 0.  0.
        -24    2    4    4    0    0  0.31674569259E+03 -0.34400549543E+03 -0.46684283218E+03  0.66642056843E+03  0.86640229783E+02 0.  0.
         24    2    4    4    0    0 -0.73588124150E+02 -0.29603862059E+03  0.31780363509E+03  0.44788823214E+03  0.80936031029E+02 0.  0.
         11    1    3    3    0    0 -0.37789723160E+02  0.12030502905E+03  0.37024126551E+02  0.13142354865E+03  0.00000000000E+00 0. -1.
        -11    1    3    3    0    0 -0.20536784528E+03  0.51973908697E+03 -0.33290791851E+02  0.55983296368E+03  0.00000000000E+00 0.  1.
          2    1    6    6  502    0 -0.31042717542E+02 -0.22340525447E+02  0.45941929118E+02  0.59778008002E+02  0.00000000000E+00 0. -1.
          1    1    5    5  503    0  0.10753473492E+01 -0.15005615362E+02 -0.18025688804E+01  0.15151703497E+02  0.00000000000E+00 0. -1.
         -4    1    5    5    0  503  0.31567034524E+03 -0.32899988007E+03 -0.46504026330E+03  0.65126886494E+03  0.00000000000E+00 0.  1.
         -1    1    6    6    0  502 -0.42545406608E+02 -0.27369809514E+03  0.27186170597E+03  0.38811022414E+03  0.00000000000E+00 0.  1.
<mgrwt>
<rscale>  0 0.17997090E+04</rscale>
<asrwt>0</asrwt>
<pdfrwt beam="1">  1        2 0.15006701E+00 0.17997090E+04</pdfrwt>
<pdfrwt beam="2">  1       -2 0.12771227E+00 0.17997090E+04</pdfrwt>
<totfact> 0.11204994E+01</totfact>
</mgrwt>
</event>
<event>
12    1  0.1519630E-007  0.1325196E+04  0.7818608E-02  0.9009820E-01
          1   -1    0    0  501    0  0.00000000000E+00  0.00000000000E+00  0.27190454139E+04  0.27190454139E+04  0.00000000000E+00 0. -1.
         -1   -1    0    0    0  501 -0.00000000000E+00 -0.00000000000E+00 -0.16146703696E+03  0.16146703696E+03  0.00000000000E+00 0.  1.
         23    2    1    2    0    0  0.61913676666E+02  0.63960287104E+02  0.14447293654E+04  0.14499756461E+04  0.85218620304E+02 0.  0.
        254    2    1    2    0    0 -0.61913676666E+02 -0.63960287104E+02  0.11128490116E+04  0.14305368048E+04  0.89447102005E+03 0.  0.
        -24    2    4    4    0    0  0.34636556070E+03 -0.25806079219E+03  0.56874493707E+03  0.71861655941E+03  0.79840352602E+02 0.  0.
         24    2    4    4    0    0 -0.40827923737E+03  0.19410050509E+03  0.54410407450E+03  0.71192024541E+03  0.80089014185E+02 0.  0.
         11    1    3    3    0    0 -0.87857995254E+01  0.38415316370E+02  0.27204709971E+03  0.27488643339E+03  0.00000000000E+00 0.  1.
        -11    1    3    3    0    0  0.70699476192E+02  0.25544970734E+02  0.11726822657E+04  0.11750892127E+04  0.00000000000E+00 0. -1.
          2    1    6    6  502    0 -0.25223756905E+02 -0.68057148085E+01  0.24215403653E+02  0.35622204319E+02  0.00000000000E+00 0. -1.
          1    1    5    5  503    0  0.17403610318E+03 -0.88259146178E+02  0.21866351785E+03  0.29307332893E+03  0.00000000000E+00 0. -1.
         -2    1    5    5    0  503  0.17232945753E+03 -0.16980164602E+03  0.35008141921E+03  0.42554323047E+03  0.00000000000E+00 0.  1.
         -1    1    6    6    0  502 -0.38305548046E+03  0.20090621990E+03  0.51988867085E+03  0.67629804109E+03  0.00000000000E+00 0.  1.
<mgrwt>
<rscale>  0 0.13251961E+04</rscale>
<asrwt>0</asrwt>
<pdfrwt beam="1">  1        1 0.41831464E+00 0.13251961E+04</pdfrwt>
<pdfrwt beam="2">  1       -1 0.24841085E-01 0.13251961E+04</pdfrwt>
<totfact> 0.13297079E+01</totfact>
</mgrwt>
</event>
<event>
12    1  0.1519630E-007  0.2430478E+04  0.7818608E-02  0.8428181E-01
          1   -1    0    0  501    0  0.00000000000E+00  0.00000000000E+00  0.27583780606E+04  0.27583780606E+04  0.00000000000E+00 0. -1.
         -1   -1    0    0    0  501 -0.00000000000E+00 -0.00000000000E+00 -0.53538900939E+03  0.53538900939E+03  0.00000000000E+00 0.  1.
         23    2    1    2    0    0 -0.62786652000E+02 -0.12967973492E+03 -0.45260029341E+03  0.48588763643E+03  0.10237564321E+03 0.  0.
        254    2    1    2    0    0  0.62786652000E+02  0.12967973492E+03  0.26755893446E+04  0.28078794335E+04  0.83943408017E+03 0.  0.
        -24    2    4    4    0    0  0.37902781588E+03  0.75826605625E+02  0.68948278313E+03  0.79458957668E+03  0.81082228623E+02 0.  0.
         24    2    4    4    0    0 -0.31624116388E+03  0.53853129298E+02  0.19861065615E+04  0.20132898569E+04  0.76211160016E+02 0.  0.
         11    1    3    3    0    0 -0.45584068249E+02 -0.29949788850E+02 -0.28444511617E+03  0.28962721081E+03  0.00000000000E+00 0. -1.
        -11    1    3    3    0    0 -0.17202583751E+02 -0.99729946073E+02 -0.16815517725E+03  0.19626042562E+03  0.00000000000E+00 0.  1.
          4    1    6    6  502    0 -0.28637652423E+03  0.27029494843E+02  0.16622580920E+04  0.16869629728E+04  0.00000000000E+00 0. -1.
          3    1    5    5  503    0  0.23707186836E+03  0.35395012935E+02  0.49924415206E+03  0.55380556251E+03  0.00000000000E+00 0. -1.
         -4    1    5    5    0  503  0.14195594752E+03  0.40431592689E+02  0.19023863108E+03  0.24078401416E+03  0.00000000000E+00 0.  1.
         -3    1    6    6    0  502 -0.29864639644E+02  0.26823634455E+02  0.32384846946E+03  0.32632688402E+03  0.00000000000E+00 0.  1.
<mgrwt>
<rscale>  0 0.24304776E+04</rscale>
<asrwt>0</asrwt>
<pdfrwt beam="1">  1        1 0.42436585E+00 0.24304776E+04</pdfrwt>
<pdfrwt beam="2">  1       -1 0.82367542E-01 0.24304776E+04</pdfrwt>
<totfact> 0.11684834E+00</totfact>
</mgrwt>
</event>
<event>
12    1  0.1519630E-007  0.1653343E+04  0.7818608E-02  0.8788431E-01
          2   -1    0    0  501    0  0.00000000000E+00  0.00000000000E+00  0.77656257192E+03  0.77656257192E+03  0.00000000000E+00 0. -1.
         -2   -1    0    0    0  501 -0.00000000000E+00 -0.00000000000E+00 -0.88001344295E+03  0.88001344295E+03  0.00000000000E+00 0.  1.
         23    2    1    2    0    0  0.35589370943E+02 -0.41171991494E+03 -0.44866263971E+03  0.61679364706E+03  0.91413057622E+02 0.  0.
        254    2    1    2    0    0 -0.35589370943E+02  0.41171991494E+03  0.34521176868E+03  0.10397823678E+04  0.88949216720E+03 0.  0.
        -24    2    4    4    0    0  0.29149994421E+02 -0.41182704609E+02 -0.26002613786E+03  0.27659279913E+03  0.79650780459E+02 0.  0.
         24    2    4    4    0    0 -0.64739365364E+02  0.45290261954E+03  0.60523790654E+03  0.76318956869E+03  0.82664539065E+02 0.  0.
         11    1    3    3    0    0 -0.17170497689E+02 -0.28871442123E+03 -0.29835058806E+03  0.41552847846E+03  0.00000000000E+00 0.  1.
        -11    1    3    3    0    0  0.52759868632E+02 -0.12300549371E+03 -0.15031205165E+03  0.20126516860E+03  0.00000000000E+00 0. -1.
          2    1    6    6  502    0 -0.52595806677E+02  0.44153111324E+03  0.56047941034E+03  0.71543917439E+03  0.00000000000E+00 0. -1.
          3    1    5    5  503    0 -0.47207784977E+01  0.26503798738E+01 -0.17518496860E+03  0.17526860382E+03  0.00000000000E+00 0. -1.
         -4    1    5    5    0  503  0.33870772919E+02 -0.43833084482E+02 -0.84841169258E+02  0.10132419531E+03  0.00000000000E+00 0.  1.
         -1    1    6    6    0  502 -0.12143558687E+02  0.11371506306E+02  0.44758496197E+02  0.47750394292E+02  0.00000000000E+00 0.  1.
<mgrwt>
<rscale>  0 0.16533427E+04</rscale>
<asrwt>0</asrwt>
<pdfrwt beam="1">  1        2 0.11947116E+00 0.16533427E+04</pdfrwt>
<pdfrwt beam="2">  1       -2 0.13538668E+00 0.16533427E+04</pdfrwt>
<totfact> 0.13397482E+01</totfact>
</mgrwt>
</event>
<event>
12    1  0.1519630E-007  0.1772856E+04  0.7818608E-02  0.8720869E-01
         -2   -1    0    0    0  501 -0.00000000000E+00  0.00000000000E+00  0.73580723358E+03  0.73580723358E+03  0.00000000000E+00 0.  1.
          2   -1    0    0  501    0  0.00000000000E+00 -0.00000000000E+00 -0.10678816394E+04  0.10678816394E+04  0.00000000000E+00 0. -1.
         23    2    1    2    0    0  0.40825636782E+03 -0.99657450646E+02 -0.63071636351E+03  0.76369277544E+03  0.93907692626E+02 0.  0.
        254    2    1    2    0    0 -0.40825636782E+03  0.99657450646E+02  0.29864195768E+03  0.10399960976E+04  0.90321647168E+03 0.  0.
        -24    2    4    4    0    0  0.23411706886E+03 -0.15682316923E+03  0.35660848079E+02  0.29570051477E+03  0.82236184340E+02 0.  0.
         24    2    4    4    0    0 -0.64237343667E+03  0.25648061987E+03  0.26298110960E+03  0.74429558278E+03  0.79943167506E+02 0.  0.
         11    1    3    3    0    0  0.26442329906E+02 -0.19193550616E+02 -0.18070898740E+02  0.37338272287E+02  0.00000000000E+00 0.  1.
        -11    1    3    3    0    0  0.38181403791E+03 -0.80463900030E+02 -0.61264546477E+03  0.72635450315E+03  0.00000000000E+00 0. -1.
          4    1    6    6  502    0 -0.64148163454E+03  0.24918164951E+03  0.25628874695E+03  0.73435284688E+03  0.00000000000E+00 0. -1.
          1    1    5    5  503    0  0.89932185040E+02 -0.10894586536E+03  0.24366584494E+02  0.14335525775E+03  0.00000000000E+00 0. -1.
         -2    1    5    5    0  503  0.14418488382E+03 -0.47877303865E+02  0.11294263585E+02  0.15234525702E+03  0.00000000000E+00 0.  1.
         -3    1    6    6    0  502 -0.89180213327E+00  0.72989703684E+01  0.66923626502E+01  0.99427359075E+01  0.00000000000E+00 0.  1.
<mgrwt>
<rscale>  0 0.17728565E+04</rscale>
<asrwt>0</asrwt>
<pdfrwt beam="1">  1        2 0.16428948E+00 0.17728565E+04</pdfrwt>
<pdfrwt beam="2">  1       -2 0.11320111E+00 0.17728565E+04</pdfrwt>
<totfact> 0.13226640E+01</totfact>
</mgrwt>
</event>
<event>
12    1  0.1519630E-007  0.1976717E+04  0.7818608E-02  0.8617584E-01
         -1   -1    0    0    0  501 -0.00000000000E+00  0.00000000000E+00  0.59419590024E+03  0.59419590024E+03  0.00000000000E+00 0.  1.
          1   -1    0    0  501    0  0.00000000000E+00 -0.00000000000E+00 -0.16439910576E+04  0.16439910576E+04  0.00000000000E+00 0. -1.
         23    2    1    2    0    0 -0.62865261811E+03  0.22136432984E+03  0.59849490929E+02  0.67468573877E+03  0.86096479375E+02 0.  0.
        254    2    1    2    0    0  0.62865261811E+03 -0.22136432984E+03 -0.11096446483E+04  0.15635012191E+04  0.87693701931E+03 0.  0.
        -24    2    4    4    0    0  0.83379277376E+03 -0.17260515140E+03 -0.74147503943E+03  0.11321372017E+04  0.83345554894E+02 0.  0.
         24    2    4    4    0    0 -0.20514015565E+03 -0.48759178441E+02 -0.36816960890E+03  0.43136401741E+03  0.77885259554E+02 0.  0.
         11    1    3    3    0    0 -0.53327975653E+03  0.15376913769E+03  0.44563019391E+02  0.55679269852E+03  0.00000000000E+00 0. -1.
        -11    1    3    3    0    0 -0.95372861575E+02  0.67595192152E+02  0.15286471538E+02  0.11789304025E+03  0.00000000000E+00 0.  1.
          2    1    6    6  502    0 -0.44694908870E+02  0.21580907883E+01 -0.30772427554E+02  0.54306855297E+02  0.00000000000E+00 0. -1.
          1    1    5    5  503    0  0.75773173727E+03 -0.13579115156E+03 -0.68548153790E+03  0.10307674623E+04  0.00000000000E+00 0. -1.
         -2    1    5    5    0  503  0.76061036495E+02 -0.36813999836E+02 -0.55993501535E+02  0.10136973942E+03  0.00000000000E+00 0.  1.
         -1    1    6    6    0  502 -0.16044524678E+03 -0.50917269230E+02 -0.33739718134E+03  0.37705716211E+03  0.00000000000E+00 0.  1.
<mgrwt>
<rscale>  0 0.19767172E+04</rscale>
<asrwt>0</asrwt>
<pdfrwt beam="1">  1        1 0.25292170E+00 0.19767172E+04</pdfrwt>
<pdfrwt beam="2">  1       -1 0.91414753E-01 0.19767172E+04</pdfrwt>
<totfact> 0.56455827E+00</totfact>
</mgrwt>
</event>
<event>
12    1  0.1519630E-007  0.1913078E+04  0.7818608E-02  0.8648374E-01
         -2   -1    0    0    0  501 -0.00000000000E+00  0.00000000000E+00  0.61077421921E+03  0.61077421921E+03  0.00000000000E+00 0.  1.
          2   -1    0    0  501    0  0.00000000000E+00 -0.00000000000E+00 -0.14980439750E+04  0.14980439750E+04  0.00000000000E+00 0. -1.
         23    2    1    2    0    0 -0.58585976076E+03 -0.42768385244E+03 -0.52733341542E+03  0.90174056818E+03  0.94394832285E+02 0.  0.
        254    2    1    2    0    0  0.58585976076E+03  0.42768385244E+03 -0.35993634036E+03  0.12070776260E+04  0.89517433456E+03 0.  0.
        -24    2    4    4    0    0  0.12526800195E+03  0.62532477993E+03 -0.23322863150E+03  0.68394678610E+03  0.81636137535E+02 0.  0.
         24    2    4    4    0    0  0.46059175881E+03 -0.19764092749E+03 -0.12670770886E+03  0.52313083994E+03  0.80027043573E+02 0.  0.
         13    1    3    3    0    0 -0.19551684685E+03 -0.17232116836E+03 -0.14250691994E+03  0.29703475335E+03  0.00000000000E+00 0.  1.
        -13    1    3    3    0    0 -0.39034291391E+03 -0.25536268408E+03 -0.38482649549E+03  0.60470581483E+03  0.00000000000E+00 0. -1.
          4    1    6    6  502    0  0.39979533381E+03 -0.18047691812E+03 -0.83302654210E+02  0.44648354853E+03  0.00000000000E+00 0. -1.
          3    1    5    5  503    0  0.88032871120E+02  0.41780255793E+03 -0.19614511596E+03  0.46987410050E+03  0.00000000000E+00 0. -1.
         -4    1    5    5    0  503  0.37235130826E+02  0.20752222200E+03 -0.37083515549E+02  0.21407268559E+03  0.00000000000E+00 0.  1.
         -3    1    6    6    0  502  0.60796425006E+02 -0.17164009372E+02 -0.43405054650E+02  0.76647291410E+02  0.00000000000E+00 0.  1.
<mgrwt>
<rscale>  0 0.19130778E+04</rscale>
<asrwt>0</asrwt>
<pdfrwt beam="1">  1        2 0.23046830E+00 0.19130778E+04</pdfrwt>
<pdfrwt beam="2">  1       -2 0.93965266E-01 0.19130778E+04</pdfrwt>
<totfact> 0.11385304E+01</totfact>
</mgrwt>
</event>
<event>
12    1  0.1519630E-007  0.1364719E+04  0.7818608E-02  0.8979760E-01
          2   -1    0    0  501    0  0.00000000000E+00  0.00000000000E+00  0.99499953974E+03  0.99499953974E+03  0.00000000000E+00 0. -1.
         -2   -1    0    0    0  501 -0.00000000000E+00 -0.00000000000E+00 -0.46795473492E+03  0.46795473492E+03  0.00000000000E+00 0.  1.
         23    2    1    2    0    0 -0.26354631469E+03 -0.26853607315E+03  0.12717988621E+03  0.40807309432E+03  0.93705092110E+02 0.  0.
        254    2    1    2    0    0  0.26354631469E+03  0.26853607315E+03  0.39986491861E+03  0.10548811803E+04  0.90072974245E+03 0.  0.
        -24    2    4    4    0    0  0.56117516822E+03  0.23727018683E+03  0.10082574534E+03  0.62277839930E+03  0.80451182259E+02 0.  0.
         24    2    4    4    0    0 -0.29762885353E+03  0.31265886316E+02  0.29903917327E+03  0.43210278104E+03  0.87908453137E+02 0.  0.
         13    1    3    3    0    0 -0.24838340164E+03 -0.22824886419E+03  0.13671765822E+03  0.36398293405E+03  0.00000000000E+00 0.  1.
        -13    1    3    3    0    0 -0.15162913049E+02 -0.40287208955E+02 -0.95377720101E+01  0.44090160268E+02  0.00000000000E+00 0. -1.
          4    1    6    6  502    0 -0.92920172293E+02  0.49914272122E+02  0.11701086871E+03  0.15753455614E+03  0.00000000000E+00 0. -1.
          1    1    5    5  503    0  0.10834279316E+03  0.18078388305E+02  0.82756508411E+00  0.10984386108E+03  0.00000000000E+00 0. -1.
         -2    1    5    5    0  503  0.45283237506E+03  0.21919179853E+03  0.99998180259E+02  0.51293453822E+03  0.00000000000E+00 0.  1.
         -3    1    6    6    0  502 -0.20470868124E+03 -0.18648385806E+02  0.18202830455E+03  0.27456822490E+03  0.00000000000E+00 0.  1.
<mgrwt>
<rscale>  0 0.13647194E+04</rscale>
<asrwt>0</asrwt>
<pdfrwt beam="1">  1        2 0.15307685E+00 0.13647194E+04</pdfrwt>
<pdfrwt beam="2">  1       -2 0.71993036E-01 0.13647194E+04</pdfrwt>
<totfact> 0.43290862E+01</totfact>
</mgrwt>
</event>
<event>
12    1  0.1519630E-007  0.1380628E+04  0.7818608E-02  0.8967962E-01
         -1   -1    0    0    0  501 -0.00000000000E+00  0.00000000000E+00  0.18617661688E+03  0.18617661688E+03  0.00000000000E+00 0.  1.
          1   -1    0    0  501    0  0.00000000000E+00 -0.00000000000E+00 -0.25595764467E+04  0.25595764467E+04  0.00000000000E+00 0. -1.
         23    2    1    2    0    0  0.21707661224E+03  0.27300067872E+03 -0.33169139227E+03  0.48991645883E+03  0.91363727836E+02 0.  0.
        254    2    1    2    0    0 -0.21707661224E+03 -0.27300067872E+03 -0.20417084376E+04  0.22558366048E+04  0.89362957492E+03 0.  0.
        -24    2    4    4    0    0  0.30564140062E+03  0.67896022632E+02 -0.56680621030E+03  0.65234659707E+03  0.79121849174E+02 0.  0.
         24    2    4    4    0    0 -0.52271801286E+03 -0.34089670135E+03 -0.14749022273E+04  0.16034900077E+04  0.79993392136E+02 0.  0.
         13    1    3    3    0    0  0.80138502655E+02  0.15012390690E+03 -0.11371358102E+03  0.20467082239E+03  0.00000000000E+00 0.  1.
        -13    1    3    3    0    0  0.13693810959E+03  0.12287677182E+03 -0.21797781125E+03  0.28524563643E+03  0.00000000000E+00 0. -1.
          2    1    6    6  502    0 -0.23072844042E+03 -0.12082294841E+03 -0.69281574094E+03  0.74015366578E+03  0.00000000000E+00 0. -1.
          3    1    5    5  503    0  0.33293858109E+02 -0.16332325015E+02 -0.80766924782E+02  0.88873629199E+02  0.00000000000E+00 0. -1.
         -4    1    5    5    0  503  0.27234754251E+03  0.84228347647E+02 -0.48603928551E+03  0.56347296787E+03  0.00000000000E+00 0.  1.
         -1    1    6    6    0  502 -0.29198957245E+03 -0.22007375295E+03 -0.78208648634E+03  0.86333634192E+03  0.00000000000E+00 0.  1.
<mgrwt>
<rscale>  0 0.13806278E+04</rscale>
<asrwt>0</asrwt>
<pdfrwt beam="1">  1        1 0.39378097E+00 0.13806278E+04</pdfrwt>
<pdfrwt beam="2">  1       -1 0.28642558E-01 0.13806278E+04</pdfrwt>
<totfact> 0.13362776E+01</totfact>
</mgrwt>
</event>
<event>
12    1  0.1519630E-007  0.1615176E+04  0.7818608E-02  0.8811278E-01
          4   -1    0    0  501    0  0.00000000000E+00  0.00000000000E+00  0.52284523095E+03  0.52284523095E+03  0.00000000000E+00 0.  1.
         -4   -1    0    0    0  501 -0.00000000000E+00 -0.00000000000E+00 -0.12474029917E+04  0.12474029917E+04  0.00000000000E+00 0. -1.
         23    2    1    2    0    0  0.34537644880E+03 -0.18695292156E+03 -0.75391289947E+03  0.85503473395E+03  0.91997010864E+02 0.  0.
        254    2    1    2    0    0 -0.34537644880E+03  0.18695292156E+03  0.29355138699E+02  0.91521348873E+03  0.82614630636E+03 0.  0.
        -24    2    4    4    0    0 -0.28042762119E+03 -0.25562055796E+03  0.19247733883E+03  0.43245608653E+03  0.77390053857E+02 0.  0.
         24    2    4    4    0    0 -0.64948827610E+02  0.44257347952E+03 -0.16312220013E+03  0.48275740219E+03  0.79725919340E+02 0.  0.
         11    1    3    3    0    0  0.17623950191E+02 -0.40400724781E+02 -0.92358998256E+02  0.10233770929E+03  0.00000000000E+00 0.  1.
        -11    1    3    3    0    0  0.32775249861E+03 -0.14655219677E+03 -0.66155390121E+03  0.75269702466E+03  0.00000000000E+00 0. -1.
          4    1    6    6  502    0 -0.29724527792E+02  0.30684022945E+03 -0.14723086792E+03  0.34163050571E+03  0.00000000000E+00 0. -1.
          1    1    5    5  503    0 -0.20572776808E+03 -0.15177824765E+03  0.15577148181E+03  0.29937485794E+03  0.00000000000E+00 0. -1.
         -2    1    5    5    0  503 -0.74699853114E+02 -0.10384231031E+03  0.36705857024E+02  0.13308122860E+03  0.00000000000E+00 0.  1.
         -3    1    6    6    0  502 -0.35224299817E+02  0.13573325006E+03 -0.15891332210E+02  0.14112689648E+03  0.00000000000E+00 0.  1.
<mgrwt>
<rscale>  0 0.16151764E+04</rscale>
<asrwt>0</asrwt>
<pdfrwt beam="1">  1        4 0.80437728E-01 0.16151764E+04</pdfrwt>
<pdfrwt beam="2">  1       -4 0.19190815E+00 0.16151764E+04</pdfrwt>
<totfact> 0.39131462E-01</totfact>
</mgrwt>
</event>
<event>
12    1  0.1519630E-007  0.2123100E+04  0.7818608E-02  0.8551135E-01
         -1   -1    0    0    0  501 -0.00000000000E+00  0.00000000000E+00  0.81926042193E+03  0.81926042193E+03  0.00000000000E+00 0.  1.
          1   -1    0    0  501    0  0.00000000000E+00 -0.00000000000E+00 -0.13754952537E+04  0.13754952537E+04  0.00000000000E+00 0. -1.
         23    2    1    2    0    0 -0.64131104937E+03  0.55563120795E+03 -0.36878399264E+02  0.85405630038E+03  0.89700872843E+02 0.  0.
        254    2    1    2    0    0  0.64131104937E+03 -0.55563120795E+03 -0.51935643255E+03  0.13406993753E+04  0.89874234884E+03 0.  0.
        -24    2    4    4    0    0  0.63642860040E+03 -0.47313731725E+03 -0.74296494077E+03  0.10895315746E+04  0.78624833754E+02 0.  0.
         24    2    4    4    0    0  0.48824489772E+01 -0.82493890697E+02  0.22360850822E+03  0.25116780068E+03  0.79091205832E+02 0.  0.
         11    1    3    3    0    0 -0.55338489855E+03  0.51243552291E+03 -0.18804159383E+02  0.75443926694E+03  0.00000000000E+00 0.  1.
        -11    1    3    3    0    0 -0.87926150825E+02  0.43195685035E+02 -0.18074239881E+02  0.99617033442E+02  0.00000000000E+00 0. -1.
          2    1    6    6  502    0  0.11755429318E+02  0.92905514795E+01  0.74094300868E+02  0.75594112776E+02  0.00000000000E+00 0. -1.
          3    1    5    5  503    0  0.13477680097E+03 -0.10952435832E+03 -0.12123669055E+03  0.21179874003E+03  0.00000000000E+00 0. -1.
         -4    1    5    5    0  503  0.50165179943E+03 -0.36361295893E+03 -0.62172825022E+03  0.87773283458E+03  0.00000000000E+00 0.  1.
         -1    1    6    6    0  502 -0.68729803407E+01 -0.91784442177E+02  0.14951420736E+03  0.17557368791E+03  0.00000000000E+00 0.  1.
<mgrwt>
<rscale>  0 0.21231004E+04</rscale>
<asrwt>0</asrwt>
<pdfrwt beam="1">  1        1 0.21161465E+00 0.21231004E+04</pdfrwt>
<pdfrwt beam="2">  1       -1 0.12604007E+00 0.21231004E+04</pdfrwt>
<totfact> 0.40224446E+00</totfact>
</mgrwt>
</event>
<event>
12    1  0.1519630E-007  0.1744030E+04  0.7818608E-02  0.8736643E-01
         -2   -1    0    0    0  501 -0.00000000000E+00  0.00000000000E+00  0.44742295959E+03  0.44742295959E+03  0.00000000000E+00 0. -1.
          2   -1    0    0  501    0  0.00000000000E+00 -0.00000000000E+00 -0.16995333153E+04  0.16995333153E+04  0.00000000000E+00 0.  1.
         23    2    1    2    0    0 -0.44683183583E+03 -0.20632548892E+03 -0.94922489036E+03  0.10726926969E+04  0.86097809021E+02 0.  0.
        254    2    1    2    0    0  0.44683183583E+03  0.20632548892E+03 -0.30288546535E+03  0.10742635779E+04  0.90557922507E+03 0.  0.
        -24    2    4    4    0    0  0.46565109174E+03  0.52150634419E+03 -0.22981333325E+03  0.74037624224E+03  0.80888847601E+02 0.  0.
         24    2    4    4    0    0 -0.18819255906E+02 -0.31518085527E+03 -0.73072132101E+02  0.33388733570E+03  0.80299941047E+02 0.  0.
         13    1    3    3    0    0 -0.30546866982E+02  0.49863406143E+01 -0.39581036450E+02  0.50245727397E+02  0.00000000000E+00 0. -1.
        -13    1    3    3    0    0 -0.41628496885E+03 -0.21131182954E+03 -0.90964385391E+03  0.10224469696E+04  0.00000000000E+00 0.  1.
          4    1    6    6  502    0 -0.16363679898E+02 -0.19401764242E+03 -0.47444651374E+01  0.19476428199E+03  0.00000000000E+00 0. -1.
          1    1    5    5  503    0  0.78270622845E+02  0.12678186287E+03 -0.70484579994E+02  0.16482720397E+03  0.00000000000E+00 0. -1.
         -2    1    5    5    0  503  0.38738046890E+03  0.39472448132E+03 -0.15932875326E+03  0.57554903827E+03  0.00000000000E+00 0.  1.
         -3    1    6    6    0  502 -0.24555760081E+01 -0.12116321285E+03 -0.68327666964E+02  0.13912305371E+03  0.00000000000E+00 0.  1.
<mgrwt>
<rscale>  0 0.17440301E+04</rscale>
<asrwt>0</asrwt>
<pdfrwt beam="1">  1        2 0.26146666E+00 0.17440301E+04</pdfrwt>
<pdfrwt beam="2">  1       -2 0.68834302E-01 0.17440301E+04</pdfrwt>
<totfact> 0.17941373E+01</totfact>
</mgrwt>
</event>
<event>
12    1  0.1519630E-007  0.2124208E+04  0.7818608E-02  0.8550654E-01
         -2   -1    0    0    0  501 -0.00000000000E+00  0.00000000000E+00  0.36802820228E+03  0.36802820228E+03  0.00000000000E+00 0.  1.
          2   -1    0    0  501    0  0.00000000000E+00 -0.00000000000E+00 -0.30651586542E+04  0.30651586542E+04  0.00000000000E+00 0. -1.
         23    2    1    2    0    0 -0.39620874876E+03 -0.21820910693E+03  0.96631555882E+02  0.47136488761E+03  0.90832883521E+02 0.  0.
        254    2    1    2    0    0  0.39620874876E+03  0.21820910693E+03 -0.27937620078E+04  0.29618219689E+04  0.87331931857E+03 0.  0.
        -24    2    4    4    0    0  0.68015216968E+01  0.45472791300E+03 -0.88892098019E+03  0.10016709581E+04  0.79627028489E+02 0.  0.
         24    2    4    4    0    0  0.38940722707E+03 -0.23651880606E+03 -0.19048410276E+04  0.19601510108E+04  0.78698860249E+02 0.  0.
         11    1    3    3    0    0 -0.36195598172E+03 -0.22271196072E+03  0.77900358430E+02  0.43206621714E+03  0.00000000000E+00 0.  1.
        -11    1    3    3    0    0 -0.34252767044E+02  0.45028537839E+01  0.18731197452E+02  0.39298670465E+02  0.00000000000E+00 0. -1.
          4    1    6    6  502    0  0.98521642537E+02 -0.23414992537E+02 -0.45637789791E+03  0.46747787287E+03  0.00000000000E+00 0. -1.
          3    1    5    5  503    0 -0.13738167109E+02  0.12015861603E+02 -0.42153127677E+02  0.45934783536E+02  0.00000000000E+00 0. -1.
         -4    1    5    5    0  503  0.20539688806E+02  0.44271205139E+03 -0.84676785251E+03  0.95573617453E+03  0.00000000000E+00 0.  1.
         -3    1    6    6    0  502  0.29088558453E+03 -0.21310381352E+03 -0.14484631297E+04  0.14926731380E+04  0.00000000000E+00 0.  1.
<mgrwt>
<rscale>  0 0.21242079E+04</rscale>
<asrwt>0</asrwt>
<pdfrwt beam="1">  1        2 0.47156287E+00 0.21242079E+04</pdfrwt>
<pdfrwt beam="2">  1       -2 0.56619723E-01 0.21242079E+04</pdfrwt>
<totfact> 0.42707041E+00</totfact>
</mgrwt>
</event>
<event>
12    1  0.1519630E-007  0.1719471E+04  0.7818608E-02  0.8750337E-01
          2   -1    0    0  501    0  0.00000000000E+00  0.00000000000E+00  0.16587779503E+04  0.16587779503E+04  0.00000000000E+00 0. -1.
         -2   -1    0    0    0  501 -0.00000000000E+00 -0.00000000000E+00 -0.44559623197E+03  0.44559623197E+03  0.00000000000E+00 0.  1.
         23    2    1    2    0    0 -0.27981012899E+03  0.44844122536E+03  0.83538304245E+03  0.99285230460E+03  0.92182591965E+02 0.  0.
        254    2    1    2    0    0  0.27981012899E+03 -0.44844122536E+03  0.37779867592E+03  0.11115218777E+04  0.90186240869E+03 0.  0.
        -24    2    4    4    0    0  0.55048401857E+03 -0.26543564607E+03  0.45542319896E+03  0.76640206281E+03  0.80455545625E+02 0.  0.
         24    2    4    4    0    0 -0.27067388958E+03 -0.18300557929E+03 -0.77624523035E+02  0.34511981490E+03  0.79540703463E+02 0.  0.
         11    1    3    3    0    0 -0.91255476562E+01  0.14007505388E+01  0.40660634025E+02  0.41695621850E+02  0.00000000000E+00 0.  1.
        -11    1    3    3    0    0 -0.27068458134E+03  0.44704047482E+03  0.79472240842E+03  0.95115668276E+03  0.00000000000E+00 0. -1.
          4    1    6    6  502    0 -0.14614126846E+03 -0.13674589711E+03 -0.22918102471E+02  0.20144962185E+03  0.00000000000E+00 0. -1.
          1    1    5    5  503    0  0.24389720050E+03 -0.14281741262E+03  0.16914199340E+03  0.32938073971E+03  0.00000000000E+00 0. -1.
         -2    1    5    5    0  503  0.30658681807E+03 -0.12261823345E+03  0.28628120556E+03  0.43702132310E+03  0.00000000000E+00 0.  1.
         -3    1    6    6    0  502 -0.12453262112E+03 -0.46259682175E+02 -0.54706420564E+02  0.14367019304E+03  0.00000000000E+00 0.  1.
<mgrwt>
<rscale>  0 0.17194711E+04</rscale>
<asrwt>0</asrwt>
<pdfrwt beam="1">  1        2 0.25519660E+00 0.17194711E+04</pdfrwt>
<pdfrwt beam="2">  1       -2 0.68553267E-01 0.17194711E+04</pdfrwt>
<totfact> 0.19110671E+01</totfact>
</mgrwt>
</event>
<event>
12    1  0.1519630E-007  0.2443287E+04  0.7818608E-02  0.8423473E-01
         -3   -1    0    0    0  501 -0.00000000000E+00  0.00000000000E+00  0.10800418131E+04  0.10800418131E+04  0.00000000000E+00 0.  1.
          3   -1    0    0  501    0  0.00000000000E+00 -0.00000000000E+00 -0.13818106912E+04  0.13818106912E+04  0.00000000000E+00 0. -1.
         23    2    1    2    0    0  0.30642172838E+02 -0.88723414208E+03 -0.69735376443E+03  0.11327493700E+04  0.93249647831E+02 0.  0.
        254    2    1    2    0    0 -0.30642172838E+02  0.88723414208E+03  0.39558488624E+03  0.13291031343E+04  0.90658941853E+03 0.  0.
        -24    2    4    4    0    0 -0.16093452514E+02  0.37592111102E+03 -0.28154897577E+03  0.47698791505E+03  0.81682093660E+02 0.  0.
         24    2    4    4    0    0 -0.14548720324E+02  0.51131303106E+03  0.67713386200E+03  0.85211521927E+03  0.77054518621E+02 0.  0.
         13    1    3    3    0    0  0.25893599772E+02 -0.50132889571E+03 -0.45141822206E+03  0.67511447280E+03  0.00000000000E+00 0. -1.
        -13    1    3    3    0    0  0.47485730656E+01 -0.38590524637E+03 -0.24593554237E+03  0.45763489719E+03  0.00000000000E+00 0.  1.
          4    1    6    6  502    0  0.10299268278E+02  0.10456691226E+03  0.95872202055E+02  0.14223850812E+03  0.00000000000E+00 0. -1.
          1    1    5    5  503    0  0.10931784048E+02  0.28958311535E+03 -0.24477043434E+03  0.37932894712E+03  0.00000000000E+00 0. -1.
         -2    1    5    5    0  503 -0.27025236562E+02  0.86337995664E+02 -0.36778541430E+02  0.97658967925E+02  0.00000000000E+00 0.  1.
         -3    1    6    6    0  502 -0.24847988602E+02  0.40674611880E+03  0.58126165995E+03  0.70987671114E+03  0.00000000000E+00 0.  1.
<mgrwt>
<rscale>  0 0.24432874E+04</rscale>
<asrwt>0</asrwt>
<pdfrwt beam="1">  1        3 0.21258626E+00 0.24432874E+04</pdfrwt>
<pdfrwt beam="2">  1       -3 0.16616028E+00 0.24432874E+04</pdfrwt>
<totfact> 0.70662060E-02</totfact>
</mgrwt>
</event>
<event>
12    1  0.1519630E-007  0.1376200E+04  0.7818608E-02  0.8971229E-01
          3   -1    0    0  501    0  0.00000000000E+00  0.00000000000E+00  0.30290043467E+03  0.30290043467E+03  0.00000000000E+00 0. -1.
         -3   -1    0    0    0  501 -0.00000000000E+00 -0.00000000000E+00 -0.15631593168E+04  0.15631593168E+04  0.00000000000E+00 0.  1.
         23    2    1    2    0    0 -0.32192658770E+03  0.19782388910E+03 -0.40842276156E+03  0.56511365935E+03  0.98859885013E+02 0.  0.
        254    2    1    2    0    0  0.32192658770E+03 -0.19782388910E+03 -0.85183612055E+03  0.13009460921E+04  0.90778022632E+03 0.  0.
        -24    2    4    4    0    0  0.60631658050E+03 -0.18774153291E+03 -0.75538812541E+03  0.98986288271E+03  0.79690825117E+02 0.  0.
         24    2    4    4    0    0 -0.28438999279E+03 -0.10082356184E+02 -0.96447995148E+02  0.31108320939E+03  0.80568141878E+02 0.  0.
         11    1    3    3    0    0 -0.26513614987E+03  0.19020191099E+03 -0.30383532427E+03  0.44585855289E+03  0.00000000000E+00 0. -1.
        -11    1    3    3    0    0 -0.56790437836E+02  0.76219781049E+01 -0.10458743728E+03  0.11925510646E+03  0.00000000000E+00 0.  1.
          4    1    6    6  502    0 -0.33723701522E+02  0.20559251296E+02 -0.30996204252E+02  0.50206927174E+02  0.00000000000E+00 0. -1.
          3    1    5    5  503    0  0.14074804822E+03 -0.10686994236E+02 -0.18247889822E+03  0.23070061383E+03  0.00000000000E+00 0. -1.
         -4    1    5    5    0  503  0.46556853227E+03 -0.17705453868E+03 -0.57290922718E+03  0.75916226889E+03  0.00000000000E+00 0.  1.
         -3    1    6    6    0  502 -0.25066629127E+03 -0.30641607480E+02 -0.65451790895E+02  0.26087628221E+03  0.00000000000E+00 0.  1.
<mgrwt>
<rscale>  0 0.13762000E+04</rscale>
<asrwt>0</asrwt>
<pdfrwt beam="1">  1        3 0.46600066E-01 0.13762000E+04</pdfrwt>
<pdfrwt beam="2">  1       -3 0.24048605E+00 0.13762000E+04</pdfrwt>
<totfact> 0.97419745E-01</totfact>
</mgrwt>
</event>
<event>
12    1  0.1519630E-007  0.2081631E+04  0.7818608E-02  0.8569378E-01
          2   -1    0    0  501    0  0.00000000000E+00  0.00000000000E+00  0.11081945720E+04  0.11081945720E+04  0.00000000000E+00 0. -1.
         -2   -1    0    0    0  501 -0.00000000000E+00 -0.00000000000E+00 -0.97753354424E+03  0.97753354424E+03  0.00000000000E+00 0.  1.
         23    2    1    2    0    0  0.54815264750E+01 -0.96005053985E+02  0.89417871873E+03  0.90396464814E+03  0.91375524813E+02 0.  0.
        254    2    1    2    0    0 -0.54815264750E+01  0.96005053985E+02 -0.76351769094E+03  0.11817634681E+04  0.89686041987E+03 0.  0.
        -24    2    4    4    0    0  0.35270359234E+03  0.30818132800E+03 -0.35623446123E+03  0.59389254526E+03  0.80186089640E+02 0.  0.
         24    2    4    4    0    0 -0.35818511881E+03 -0.21217627401E+03 -0.40728322971E+03  0.58787092288E+03  0.79982761685E+02 0.  0.
         11    1    3    3    0    0  0.96826692539E+00  0.62843865509E+01  0.31931503467E+01  0.71152838521E+01  0.00000000000E+00 0.  1.
        -11    1    3    3    0    0  0.45132595496E+01 -0.10228944054E+03  0.89098556839E+03  0.89684936429E+03  0.00000000000E+00 0. -1.
          2    1    6    6  502    0 -0.15706314072E+03 -0.62985833215E+02 -0.20596235875E+03  0.26656432353E+03  0.00000000000E+00 0. -1.
          1    1    5    5  503    0  0.16427199806E+03  0.12785658943E+03 -0.11107833361E+03  0.23594701313E+03  0.00000000000E+00 0. -1.
         -2    1    5    5    0  503  0.18843159428E+03  0.18032473857E+03 -0.24515612762E+03  0.35794553213E+03  0.00000000000E+00 0.  1.
         -1    1    6    6    0  502 -0.20112197810E+03 -0.14919044080E+03 -0.20132087097E+03  0.32130659935E+03  0.00000000000E+00 0.  1.
<mgrwt>
<rscale>  0 0.20816314E+04</rscale>
<asrwt>0</asrwt>
<pdfrwt beam="1">  1        2 0.17049147E+00 0.20816314E+04</pdfrwt>
<pdfrwt beam="2">  1       -2 0.15038978E+00 0.20816314E+04</pdfrwt>
<totfact> 0.59138580E+00</totfact>
</mgrwt>
</event>
<event>
12    1  0.1519630E-007  0.1635997E+04  0.7818608E-02  0.8798734E-01
          3   -1    0    0  501    0  0.00000000000E+00  0.00000000000E+00  0.29651361801E+03  0.29651361801E+03  0.00000000000E+00 0. -1.
         -3   -1    0    0    0  501 -0.00000000000E+00 -0.00000000000E+00 -0.22566302300E+04  0.22566302300E+04  0.00000000000E+00 0.  1.
         23    2    1    2    0    0 -0.32246074704E+03  0.20480044587E+03 -0.13342465671E+04  0.13909656696E+04  0.92991592340E+02 0.  0.
        254    2    1    2    0    0  0.32246074704E+03 -0.20480044587E+03 -0.62587004485E+03  0.11621781783E+04  0.90167657681E+03 0.  0.
        -24    2    4    4    0    0  0.30378650654E+03  0.28520762243E+03 -0.95105634220E+02  0.43485049396E+03  0.80126406367E+02 0.  0.
         24    2    4    4    0    0  0.18674240500E+02 -0.49000806829E+03 -0.53076441063E+03  0.72732768437E+03  0.82692603163E+02 0.  0.
         13    1    3    3    0    0 -0.55711754471E+02  0.82825069213E+02 -0.34540199465E+03  0.35953627019E+03  0.00000000000E+00 0. -1.
        -13    1    3    3    0    0 -0.26674899256E+03  0.12197537665E+03 -0.98884457245E+03  0.10314293994E+04  0.00000000000E+00 0.  1.
          2    1    6    6  502    0  0.34624382636E+02 -0.85588595269E+02 -0.10727909176E+03  0.14153818934E+03  0.00000000000E+00 0. -1.
          3    1    5    5  503    0  0.30048923696E+02  0.53922601193E+01 -0.19344628202E+02  0.36141789175E+02  0.00000000000E+00 0. -1.
         -4    1    5    5    0  503  0.27373758284E+03  0.27981536231E+03 -0.75761006018E+02  0.39870870479E+03  0.00000000000E+00 0.  1.
         -1    1    6    6    0  502 -0.15950142136E+02 -0.40441947302E+03 -0.42348531887E+03  0.58578949503E+03  0.00000000000E+00 0.  1.
<mgrwt>
<rscale>  0 0.16359971E+04</rscale>
<asrwt>0</asrwt>
<pdfrwt beam="1">  1        3 0.45617479E-01 0.16359971E+04</pdfrwt>
<pdfrwt beam="2">  1       -3 0.34717389E+00 0.16359971E+04</pdfrwt>
<totfact> 0.24970554E-01</totfact>
</mgrwt>
</event>
<event>
12    1  0.1519630E-007  0.1614194E+04  0.7818608E-02  0.8811875E-01
         -2   -1    0    0    0  501 -0.00000000000E+00  0.00000000000E+00  0.36442503830E+03  0.36442503830E+03  0.00000000000E+00 0.  1.
          2   -1    0    0  501    0  0.00000000000E+00 -0.00000000000E+00 -0.17874881141E+04  0.17874881141E+04  0.00000000000E+00 0. -1.
         23    2    1    2    0    0  0.21561396104E+03  0.47422630700E+02 -0.11627327272E+04  0.11870315336E+04  0.91423087047E+02 0.  0.
        254    2    1    2    0    0 -0.21561396104E+03 -0.47422630700E+02 -0.26033034862E+03  0.96488161878E+03  0.90248898151E+03 0.  0.
        -24    2    4    4    0    0 -0.36911743879E+03 -0.36669265649E+03 -0.14148036876E+02  0.52651910300E+03  0.79441871392E+02 0.  0.
         24    2    4    4    0    0  0.15350347775E+03  0.31927002579E+03 -0.24618231175E+03  0.43836251578E+03  0.77841490073E+02 0.  0.
         11    1    3    3    0    0  0.97529223057E+02  0.52191569651E+02 -0.39266919255E+03  0.40795220807E+03  0.00000000000E+00 0.  1.
        -11    1    3    3    0    0  0.11808473798E+03 -0.47689389507E+01 -0.77006353465E+03  0.77907932556E+03  0.00000000000E+00 0. -1.
          4    1    6    6  502    0  0.10602689795E+00  0.39843849932E+02 -0.50511322771E+02  0.64334573498E+02  0.00000000000E+00 0. -1.
          1    1    5    5  503    0  0.23363230357E+01 -0.13113629772E+02 -0.25169758908E+01  0.13555842237E+02  0.00000000000E+00 0. -1.
         -2    1    5    5    0  503 -0.37145376183E+03 -0.35357902671E+03 -0.11631060985E+02  0.51296326076E+03  0.00000000000E+00 0.  1.
         -3    1    6    6    0  502  0.15339745086E+03  0.27942617585E+03 -0.19567098898E+03  0.37402794228E+03  0.00000000000E+00 0.  1.
<mgrwt>
<rscale>  0 0.16141938E+04</rscale>
<asrwt>0</asrwt>
<pdfrwt beam="1">  1        2 0.27499817E+00 0.16141938E+04</pdfrwt>
<pdfrwt beam="2">  1       -2 0.56065391E-01 0.16141938E+04</pdfrwt>
<totfact> 0.25085453E+01</totfact>
</mgrwt>
</event>
<event>
12    1  0.1519630E-007  0.5873436E+04  0.7818608E-02  0.7706295E-01
          2   -1    0    0  501    0  0.00000000000E+00  0.00000000000E+00  0.35852895453E+04  0.35852895453E+04  0.00000000000E+00 0. -1.
         -2   -1    0    0    0  501 -0.00000000000E+00 -0.00000000000E+00 -0.24054719361E+04  0.24054719361E+04  0.00000000000E+00 0.  1.
         23    2    1    2    0    0 -0.18209608726E+04 -0.26215782760E+02 -0.16821387464E+04  0.24807538679E+04  0.89236898177E+02 0.  0.
        254    2    1    2    0    0  0.18209608726E+04  0.26215782760E+02  0.28619563556E+04  0.35100076134E+04  0.90153951562E+03 0.  0.
        -24    2    4    4    0    0  0.39996917102E+03 -0.20590022380E+03  0.23728719810E+03  0.51523155482E+03  0.82389931255E+02 0.  0.
         24    2    4    4    0    0  0.14209917016E+04  0.23211600656E+03  0.26246691575E+04  0.29947760586E+04  0.81854740259E+02 0.  0.
         13    1    3    3    0    0 -0.64915480813E+03 -0.32979098550E+02 -0.55208677810E+03  0.85281263852E+03  0.00000000000E+00 0. -1.
        -13    1    3    3    0    0 -0.11718060645E+04  0.67633157896E+01 -0.11300519683E+04  0.16279412294E+04  0.00000000000E+00 0.  1.
          2    1    6    6  502    0  0.11898132760E+04  0.16465800179E+03  0.22036339032E+04  0.25097350993E+04  0.00000000000E+00 0. -1.
          3    1    5    5  503    0  0.19266391231E+03 -0.98843074094E+02  0.67985159753E+02  0.22696105029E+03  0.00000000000E+00 0. -1.
         -4    1    5    5    0  503  0.20730525872E+03 -0.10705714970E+03  0.16930203835E+03  0.28827050453E+03  0.00000000000E+00 0.  1.
         -1    1    6    6    0  502  0.23117842564E+03  0.67458004774E+02  0.42103525429E+03  0.48504095935E+03  0.00000000000E+00 0.  1.
<mgrwt>
<rscale>  0 0.58734363E+04</rscale>
<asrwt>0</asrwt>
<pdfrwt beam="1">  1        2 0.55158301E+00 0.58734363E+04</pdfrwt>
<pdfrwt beam="2">  1       -2 0.37007260E+00 0.58734363E+04</pdfrwt>
<totfact> 0.55643141E-03</totfact>
</mgrwt>
</event>
<event>
12    1  0.1582965E-007  0.3136826E+04  0.7818608E-02  0.8205703E-01
         -2   -1    0    0    0  501 -0.00000000000E+00  0.00000000000E+00  0.16015437121E+04  0.16015437121E+04  0.00000000000E+00 0.  1.
          2   -1    0    0  501    0  0.00000000000E+00 -0.00000000000E+00 -0.15359678639E+04  0.15359678639E+04  0.00000000000E+00 0. -1.
         23    2    1    2    0    0  0.11105891057E+04  0.36506847266E+03 -0.81540489194E+03  0.14281684217E+04  0.89981951465E+02 0.  0.
        254    2    1    2    0    0 -0.11105891057E+04 -0.36506847266E+03  0.88098074013E+03  0.17093431542E+04  0.88263458070E+03 0.  0.
        -24    2    4    4    0    0 -0.49901804945E+03  0.24192486879E+03  0.16016653871E+03  0.58312916822E+03  0.82702181838E+02 0.  0.
         24    2    4    4    0    0 -0.61157105624E+03 -0.60699334146E+03  0.72081420142E+03  0.11262139860E+04  0.79528334203E+02 0.  0.
         11    1    3    3    0    0  0.76882800891E+03  0.23780852156E+03 -0.51255880025E+03  0.95413097839E+03  0.00000000000E+00 0. -1.
        -11    1    3    3    0    0  0.34176109679E+03  0.12725995110E+03 -0.30284609169E+03  0.47403744333E+03  0.00000000000E+00 0.  1.
          2    1    6    6  502    0 -0.55577652163E+03 -0.53803977572E+03  0.67363399856E+03  0.10257470966E+04  0.00000000000E+00 0. -1.
          1    1    5    5  503    0 -0.42903545501E+03  0.17523102748E+03  0.12231493208E+03  0.47931020984E+03  0.00000000000E+00 0. -1.
         -2    1    5    5    0  503 -0.69982594447E+02  0.66693841309E+02  0.37851606629E+02  0.10381895838E+03  0.00000000000E+00 0.  1.
         -1    1    6    6    0  502 -0.55794534618E+02 -0.68953565739E+02  0.47180202865E+02  0.10046688939E+03  0.00000000000E+00 0.  1.
<mgrwt>
<rscale>  0 0.31368262E+04</rscale>
<asrwt>0</asrwt>
<pdfrwt beam="1">  1        2 0.23630275E+00 0.31368262E+04</pdfrwt>
<pdfrwt beam="2">  1       -2 0.24639134E+00 0.31368262E+04</pdfrwt>
<totfact> 0.69359464E-01</totfact>
</mgrwt>
</event>
<event>
12    1  0.1519630E-007  0.2377994E+04  0.7818608E-02  0.8447788E-01
         -2   -1    0    0    0  501 -0.00000000000E+00  0.00000000000E+00  0.50032889025E+03  0.50032889025E+03  0.00000000000E+00 0.  1.
          2   -1    0    0  501    0  0.00000000000E+00 -0.00000000000E+00 -0.28255702186E+04  0.28255702186E+04  0.00000000000E+00 0. -1.
         23    2    1    2    0    0  0.31906404019E+02  0.21501537312E+01 -0.24279106755E+04  0.24303529168E+04  0.10412689634E+03 0.  0.
        254    2    1    2    0    0 -0.31906404019E+02 -0.21501537312E+01  0.10266934713E+03  0.89554619201E+03  0.88906655848E+03 0.  0.
        -24    2    4    4    0    0 -0.12217510899E+03  0.42304120319E+03  0.36252257715E+02  0.44866280743E+03  0.78060692580E+02 0.  0.
         24    2    4    4    0    0  0.90268704971E+02 -0.42519135692E+03  0.66417089412E+02  0.44688338459E+03  0.79733308943E+02 0.  0.
         11    1    3    3    0    0  0.57975756305E+02 -0.14995786002E+02 -0.21241353544E+04  0.21249793095E+04  0.00000000000E+00 0. -1.
        -11    1    3    3    0    0 -0.26069352286E+02  0.17145939733E+02 -0.30377532106E+03  0.30537360735E+03  0.00000000000E+00 0.  1.
          4    1    6    6  502    0 -0.34646088345E+01 -0.24538527909E+02  0.21789826314E+02  0.32999081761E+02  0.00000000000E+00 0. -1.
          3    1    5    5  503    0 -0.10537291693E+02  0.17351428413E+03  0.14003778183E+02  0.17439709606E+03  0.00000000000E+00 0. -1.
         -4    1    5    5    0  503 -0.11163781730E+03  0.24952691907E+03  0.22248479532E+02  0.27426571137E+03  0.00000000000E+00 0.  1.
         -3    1    6    6    0  502  0.93733313806E+02 -0.40065282901E+03  0.44627263098E+02  0.41388430283E+03  0.00000000000E+00 0.  1.
<mgrwt>
<rscale>  0 0.23779945E+04</rscale>
<asrwt>0</asrwt>
<pdfrwt beam="1">  1        2 0.43470311E+00 0.23779945E+04</pdfrwt>
<pdfrwt beam="2">  1       -2 0.76973675E-01 0.23779945E+04</pdfrwt>
<totfact> 0.30299887E+00</totfact>
</mgrwt>
</event>
<event>
12    1  0.1519630E-007  0.1448711E+04  0.7818608E-02  0.8919295E-01
          3   -1    0    0  501    0  0.00000000000E+00  0.00000000000E+00  0.56879656135E+03  0.56879656135E+03  0.00000000000E+00 0. -1.
         -3   -1    0    0    0  501 -0.00000000000E+00 -0.00000000000E+00 -0.92245776605E+03  0.92245776605E+03  0.00000000000E+00 0.  1.
         23    2    1    2    0    0  0.37181645776E+03  0.19544026013E+03  0.24870486236E+02  0.43061145870E+03  0.91451154901E+02 0.  0.
        254    2    1    2    0    0 -0.37181645776E+03 -0.19544026013E+03 -0.37853169094E+03  0.10606428687E+04  0.89734758056E+03 0.  0.
        -24    2    4    4    0    0 -0.10516730791E+03 -0.29278707015E+03 -0.60767849591E+03  0.68734100709E+03  0.79875368722E+02 0.  0.
         24    2    4    4    0    0 -0.26664914985E+03  0.97346810020E+02  0.22914680498E+03  0.37330186162E+03  0.79169761382E+02 0.  0.
         11    1    3    3    0    0  0.14415664189E+03  0.65292631995E+02 -0.33963346957E+02  0.16185726468E+03  0.00000000000E+00 0. -1.
        -11    1    3    3    0    0  0.22765981587E+03  0.13014762814E+03  0.58833833193E+02  0.26875419401E+03  0.00000000000E+00 0.  1.
          2    1    6    6  502    0 -0.11934056059E+03  0.21950964763E+02  0.14023985149E+03  0.18544872662E+03  0.00000000000E+00 0. -1.
          3    1    5    5  503    0 -0.10450934847E+03 -0.29296710626E+03 -0.61010460539E+03  0.68482082240E+03  0.00000000000E+00 0. -1.
         -4    1    5    5    0  503 -0.65795943621E+00  0.18003611027E+00  0.24261094838E+01  0.25201846853E+01  0.00000000000E+00 0.  1.
         -1    1    6    6    0  502 -0.14730858926E+03  0.75395845257E+02  0.88906953482E+02  0.18785313500E+03  0.00000000000E+00 0.  1.
<mgrwt>
<rscale>  0 0.14487109E+04</rscale>
<asrwt>0</asrwt>
<pdfrwt beam="1">  1        3 0.87507163E-01 0.14487109E+04</pdfrwt>
<pdfrwt beam="2">  1       -3 0.14191658E+00 0.14487109E+04</pdfrwt>
<totfact> 0.11240647E+00</totfact>
</mgrwt>
</event>
<event>
12    1  0.1519630E-007  0.1400475E+04  0.7818608E-02  0.8953475E-01
          1   -1    0    0  501    0  0.00000000000E+00  0.00000000000E+00  0.17057518519E+04  0.17057518519E+04  0.00000000000E+00 0. -1.
         -1   -1    0    0    0  501 -0.00000000000E+00 -0.00000000000E+00 -0.28745833687E+03  0.28745833687E+03  0.00000000000E+00 0.  1.
         23    2    1    2    0    0  0.15247707506E+03 -0.34028581176E+03  0.20180854613E+03  0.43393468956E+03  0.92352224697E+02 0.  0.
        254    2    1    2    0    0 -0.15247707506E+03  0.34028581176E+03  0.12164849689E+04  0.15592754992E+04  0.90136602487E+03 0.  0.
        -24    2    4    4    0    0  0.24560529239E+03  0.45295062787E+03  0.46931326361E+03  0.70155790878E+03  0.80264120473E+02 0.  0.
         24    2    4    4    0    0 -0.39808236745E+03 -0.11266481611E+03  0.74717170528E+03  0.85771759043E+03  0.79063112102E+02 0.  0.
         11    1    3    3    0    0  0.14399744685E+03 -0.28828216553E+03  0.13635061497E+03  0.34990478972E+03  0.00000000000E+00 0.  1.
        -11    1    3    3    0    0  0.84796282008E+01 -0.52003646230E+02  0.65457931157E+02  0.84029899839E+02  0.00000000000E+00 0. -1.
          2    1    6    6  502    0 -0.22433367266E+03 -0.79201832458E+02  0.50029791968E+03  0.55398243238E+03  0.00000000000E+00 0. -1.
          3    1    5    5  503    0  0.18662438337E+03  0.38871920324E+03  0.35999113175E+03  0.56171602645E+03  0.00000000000E+00 0. -1.
         -4    1    5    5    0  503  0.58980909025E+02  0.64231424632E+02  0.10932213186E+03  0.13984188233E+03  0.00000000000E+00 0.  1.
         -1    1    6    6    0  502 -0.17374869479E+03 -0.33462983649E+02  0.24687378561E+03  0.30373515805E+03  0.00000000000E+00 0.  1.
<mgrwt>
<rscale>  0 0.14004750E+04</rscale>
<asrwt>0</asrwt>
<pdfrwt beam="1">  1        1 0.26242336E+00 0.14004750E+04</pdfrwt>
<pdfrwt beam="2">  1       -1 0.44224361E-01 0.14004750E+04</pdfrwt>
<totfact> 0.23300997E+01</totfact>
</mgrwt>
</event>
<event>
12    1  0.1519630E-007  0.1906419E+04  0.7818608E-02  0.8651668E-01
          2   -1    0    0  501    0  0.00000000000E+00  0.00000000000E+00  0.40587469131E+03  0.40587469131E+03  0.00000000000E+00 0. -1.
         -2   -1    0    0    0  501 -0.00000000000E+00 -0.00000000000E+00 -0.22386426883E+04  0.22386426883E+04  0.00000000000E+00 0.  1.
         23    2    1    2    0    0  0.18674664755E+03 -0.44585812480E+03 -0.14950230592E+04  0.15739260477E+04  0.92116655973E+02 0.  0.
        254    2    1    2    0    0 -0.18674664755E+03  0.44585812480E+03 -0.33774493783E+03  0.10705913319E+04  0.89354931545E+03 0.  0.
        -24    2    4    4    0    0  0.29592659633E+03  0.30482517531E+03 -0.35749726194E+03  0.56093799788E+03  0.79725825505E+02 0.  0.
         24    2    4    4    0    0 -0.48267324388E+03  0.14103294949E+03  0.19752324108E+02  0.50965333405E+03  0.80576754669E+02 0.  0.
         11    1    3    3    0    0  0.83675237072E+02 -0.98775806801E+02 -0.36120722914E+03  0.38370414083E+03  0.00000000000E+00 0. -1.
        -11    1    3    3    0    0  0.10307141048E+03 -0.34708231800E+03 -0.11338158300E+04  0.11902219069E+04  0.00000000000E+00 0.  1.
          4    1    6    6  502    0 -0.13580435711E+03  0.39939665653E+01 -0.41890152404E+01  0.13592763894E+03  0.00000000000E+00 0. -1.
          1    1    5    5  503    0  0.77917899104E+02  0.13282328966E+03 -0.11379583326E+03  0.19147510790E+03  0.00000000000E+00 0. -1.
         -2    1    5    5    0  503  0.21800869723E+03  0.17200188565E+03 -0.24370142867E+03  0.36946288998E+03  0.00000000000E+00 0.  1.
         -3    1    6    6    0  502 -0.34686888677E+03  0.13703898292E+03  0.23941339348E+02  0.37372569510E+03  0.00000000000E+00 0.  1.
<mgrwt>
<rscale>  0 0.19064191E+04</rscale>
<asrwt>0</asrwt>
<pdfrwt beam="1">  1        2 0.62442260E-01 0.19064191E+04</pdfrwt>
<pdfrwt beam="2">  1       -2 0.34440657E+00 0.19064191E+04</pdfrwt>
<totfact> 0.12387980E+00</totfact>
</mgrwt>
</event>
<event>
12    1  0.1519630E-007  0.2942426E+04  0.7818608E-02  0.8260365E-01
          1   -1    0    0  501    0  0.00000000000E+00  0.00000000000E+00  0.13118826175E+04  0.13118826175E+04  0.00000000000E+00 0. -1.
         -1   -1    0    0    0  501 -0.00000000000E+00 -0.00000000000E+00 -0.16498941627E+04  0.16498941627E+04  0.00000000000E+00 0.  1.
         23    2    1    2    0    0 -0.42247319925E+03 -0.78917483840E+02  0.11153548979E+04  0.11988519697E+04  0.92292597380E+02 0.  0.
        254    2    1    2    0    0  0.42247319925E+03  0.78917483840E+02 -0.14533664432E+04  0.17629248104E+04  0.90051001980E+03 0.  0.
        -24    2    4    4    0    0  0.53046355692E+01  0.10293160943E+03 -0.13055366052E+04  0.13119870817E+04  0.79127868146E+02 0.  0.
         24    2    4    4    0    0  0.41716856368E+03 -0.24014125590E+02 -0.14782983794E+03  0.45093772876E+03  0.82975210030E+02 0.  0.
         13    1    3    3    0    0 -0.17310032553E+03 -0.33545198009E+02  0.33812718951E+03  0.38133843144E+03  0.00000000000E+00 0. -1.
        -13    1    3    3    0    0 -0.24937287372E+03 -0.45372285831E+02  0.77722770844E+03  0.81751353825E+03  0.00000000000E+00 0.  1.
          2    1    6    6  502    0  0.11254485989E+03 -0.39842172252E+02 -0.59364928398E+02  0.13333393755E+03  0.00000000000E+00 0. -1.
          3    1    5    5  503    0 -0.11937547364E+02  0.64750497140E+02 -0.39205229263E+03  0.39754261668E+03  0.00000000000E+00 0. -1.
         -4    1    5    5    0  503  0.17242182933E+02  0.38181112290E+02 -0.91348431259E+03  0.91444446499E+03  0.00000000000E+00 0.  1.
         -1    1    6    6    0  502  0.30462370379E+03  0.15828046662E+02 -0.88464909547E+02  0.31760379121E+03  0.00000000000E+00 0.  1.
<mgrwt>
<rscale>  0 0.29424259E+04</rscale>
<asrwt>0</asrwt>
<pdfrwt beam="1">  1        1 0.20182810E+00 0.29424259E+04</pdfrwt>
<pdfrwt beam="2">  1       -1 0.25382987E+00 0.29424259E+04</pdfrwt>
<totfact> 0.49930837E-01</totfact>
</mgrwt>
</event>
<event>
12    1  0.1519630E-007  0.1635650E+04  0.7818608E-02  0.8798942E-01
          1   -1    0    0  501    0  0.00000000000E+00  0.00000000000E+00  0.32261401692E+04  0.32261401692E+04  0.00000000000E+00 0. -1.
         -1   -1    0    0    0  501 -0.00000000000E+00 -0.00000000000E+00 -0.20731812353E+03  0.20731812353E+03  0.00000000000E+00 0.  1.
         23    2    1    2    0    0 -0.21928321929E+03  0.50590068430E+03  0.12165545042E+04  0.13388301621E+04  0.91873328575E+02 0.  0.
        254    2    1    2    0    0  0.21928321929E+03 -0.50590068430E+03  0.18022675414E+04  0.20946281306E+04  0.91393549122E+03 0.  0.
        -24    2    4    4    0    0 -0.16054228166E+03 -0.60830679549E+03  0.13379401477E+04  0.14807258337E+04  0.81573121145E+02 0.  0.
         24    2    4    4    0    0  0.37982550095E+03  0.10240611119E+03  0.46432739372E+03  0.61390229693E+03  0.80756912005E+02 0.  0.
         11    1    3    3    0    0 -0.12203161624E+03  0.35605930577E+03  0.89631934788E+03  0.97214109983E+03  0.00000000000E+00 0. -1.
        -11    1    3    3    0    0 -0.97251603050E+02  0.14984137853E+03  0.32023515633E+03  0.36668906224E+03  0.00000000000E+00 0.  1.
          4    1    6    6  502    0  0.17395703583E+03  0.63579572298E+02  0.16188417521E+03  0.24598759829E+03  0.00000000000E+00 0. -1.
          1    1    5    5  503    0 -0.15395976918E+03 -0.58367921911E+03  0.12343743109E+04  0.13740687686E+04  0.00000000000E+00 0. -1.
         -2    1    5    5    0  503 -0.65825124798E+01 -0.24627576388E+02  0.10356583679E+03  0.10665706512E+03  0.00000000000E+00 0.  1.
         -3    1    6    6    0  502  0.20586846512E+03  0.38826538894E+02  0.30244321852E+03  0.36791469864E+03  0.00000000000E+00 0.  1.
<mgrwt>
<rscale>  0 0.16356495E+04</rscale>
<asrwt>0</asrwt>
<pdfrwt beam="1">  1        1 0.49632922E+00 0.16356495E+04</pdfrwt>
<pdfrwt beam="2">  1       -1 0.31895098E-01 0.16356495E+04</pdfrwt>
<totfact> 0.35824592E+00</totfact>
</mgrwt>
</event>
<event>
12    1  0.1519630E-007  0.1011919E+04  0.7818608E-02  0.9295568E-01
          2   -1    0    0  501    0  0.00000000000E+00  0.00000000000E+00  0.22880196921E+04  0.22880196921E+04  0.00000000000E+00 0. -1.
         -2   -1    0    0    0  501 -0.00000000000E+00 -0.00000000000E+00 -0.11188497925E+03  0.11188497925E+03  0.00000000000E+00 0.  1.
         23    2    1    2    0    0  0.28187485241E+02  0.42162374328E+02  0.18422251266E+03  0.21261661644E+03  0.93250690510E+02 0.  0.
        254    2    1    2    0    0 -0.28187485241E+02 -0.42162374328E+02  0.19919122002E+04  0.21872880549E+04  0.90218768655E+03 0.  0.
        -24    2    4    4    0    0 -0.37678741896E+03  0.18069279450E+03  0.61641627472E+03  0.74871803166E+03  0.77401693251E+02 0.  0.
         24    2    4    4    0    0  0.34859993372E+03 -0.22285516883E+03  0.13754959254E+04  0.14385700232E+04  0.79425000843E+02 0.  0.
         11    1    3    3    0    0 -0.27386110170E+02 -0.47304027194E+01  0.24212370144E+02  0.36859389687E+02  0.00000000000E+00 0. -1.
        -11    1    3    3    0    0  0.55573595411E+02  0.46892777048E+02  0.16001014252E+03  0.17575722675E+03  0.00000000000E+00 0.  1.
          2    1    6    6  502    0  0.34651316411E+03 -0.20701028161E+03  0.13431808952E+04  0.14025190006E+04  0.00000000000E+00 0. -1.
          1    1    5    5  503    0 -0.36664134934E+03  0.18278891870E+03  0.61391876995E+03  0.73806092157E+03  0.00000000000E+00 0. -1.
         -2    1    5    5    0  503 -0.10146069621E+02 -0.20961242079E+01  0.24975047745E+01  0.10657110094E+02  0.00000000000E+00 0.  1.
         -1    1    6    6    0  502  0.20867696097E+01 -0.15844887219E+02  0.32315030191E+02  0.36051022658E+02  0.00000000000E+00 0.  1.
<mgrwt>
<rscale>  0 0.10119190E+04</rscale>
<asrwt>0</asrwt>
<pdfrwt beam="1">  1        2 0.35200299E+00 0.10119190E+04</pdfrwt>
<pdfrwt beam="2">  1       -2 0.17213075E-01 0.10119190E+04</pdfrwt>
<totfact> 0.12853968E+02</totfact>
</mgrwt>
</event>
<event>
12    1  0.1519630E-007  0.1164833E+04  0.7818608E-02  0.9144208E-01
         -1   -1    0    0    0  501 -0.00000000000E+00  0.00000000000E+00  0.32850015562E+03  0.32850015562E+03  0.00000000000E+00 0.  1.
          1   -1    0    0  501    0  0.00000000000E+00 -0.00000000000E+00 -0.10325983417E+04  0.10325983417E+04  0.00000000000E+00 0. -1.
         23    2    1    2    0    0 -0.93387885132E+02 -0.18248994850E+03 -0.21851625303E+02  0.22433022679E+03  0.88445908516E+02 0.  0.
        254    2    1    2    0    0  0.93387885132E+02  0.18248994850E+03 -0.68224656076E+03  0.11367682705E+04  0.88586559522E+03 0.  0.
        -24    2    4    4    0    0 -0.35361726551E+03  0.13254916791E+02 -0.50255584663E+03  0.61983969474E+03  0.80112451601E+02 0.  0.
         24    2    4    4    0    0  0.44700515064E+03  0.16923503171E+03 -0.17969071413E+03  0.51692857578E+03  0.80450600090E+02 0.  0.
         11    1    3    3    0    0  0.82266894822E+01  0.52402359802E+01 -0.18549090807E+01  0.99287048835E+01  0.00000000000E+00 0. -1.
        -11    1    3    3    0    0 -0.10161457461E+03 -0.18773018448E+03 -0.19996716222E+02  0.21440152191E+03  0.00000000000E+00 0.  1.
          4    1    6    6  502    0  0.28833242563E+01  0.76683965662E+01 -0.13824606941E+02  0.16069773543E+02  0.00000000000E+00 0. -1.
          1    1    5    5  503    0 -0.20968447306E+02  0.12949544199E+02 -0.69695555818E+02  0.73924535698E+02  0.00000000000E+00 0. -1.
         -2    1    5    5    0  503 -0.33264881820E+03  0.30537259178E+00 -0.43286029082E+03  0.54591515904E+03  0.00000000000E+00 0.  1.
         -3    1    6    6    0  502  0.44412182639E+03  0.16156663514E+03 -0.16586610718E+03  0.50085880223E+03  0.00000000000E+00 0.  1.
<mgrwt>
<rscale>  0 0.11648325E+04</rscale>
<asrwt>0</asrwt>
<pdfrwt beam="1">  1        1 0.15886128E+00 0.11648325E+04</pdfrwt>
<pdfrwt beam="2">  1       -1 0.50538487E-01 0.11648325E+04</pdfrwt>
<totfact> 0.55673812E+01</totfact>
</mgrwt>
</event>
<event>
12    1  0.1519630E-007  0.1357542E+04  0.7818608E-02  0.8985138E-01
         -1   -1    0    0    0  501 -0.00000000000E+00  0.00000000000E+00  0.34834649198E+03  0.34834649198E+03  0.00000000000E+00 0.  1.
          1   -1    0    0  501    0  0.00000000000E+00 -0.00000000000E+00 -0.13226207600E+04  0.13226207600E+04  0.00000000000E+00 0. -1.
         23    2    1    2    0    0  0.17449022690E+03 -0.24069336917E+03 -0.80503733297E+01  0.31187070695E+03  0.93906294230E+02 0.  0.
        254    2    1    2    0    0 -0.17449022690E+03  0.24069336917E+03 -0.96622389468E+03  0.13590965450E+04  0.90839125205E+03 0.  0.
        -24    2    4    4    0    0 -0.25749204137E+03  0.48084731756E+03 -0.27135704801E+03  0.61490936727E+03  0.83442125287E+02 0.  0.
         24    2    4    4    0    0  0.83001814464E+02 -0.24015394839E+03 -0.69486684666E+03  0.74418717775E+03  0.80071223336E+02 0.  0.
         11    1    3    3    0    0  0.58229538885E+02 -0.72385032168E+02  0.40951303396E+02  0.10152478185E+03  0.00000000000E+00 0. -1.
        -11    1    3    3    0    0  0.11626068802E+03 -0.16830833700E+03 -0.49001676725E+02  0.21034592510E+03  0.00000000000E+00 0.  1.
          4    1    6    6  502    0  0.73652963678E+02 -0.95427808254E+02 -0.28625283194E+03  0.31059927469E+03  0.00000000000E+00 0. -1.
          1    1    5    5  503    0 -0.24652307467E+03  0.42654665408E+03 -0.26425506984E+03  0.55905850891E+03  0.00000000000E+00 0. -1.
         -2    1    5    5    0  503 -0.10968966699E+02  0.54300663482E+02 -0.71019781731E+01  0.55850858355E+02  0.00000000000E+00 0.  1.
         -3    1    6    6    0  502  0.93488507859E+01 -0.14472614014E+03 -0.40861401472E+03  0.43358790306E+03  0.00000000000E+00 0.  1.
<mgrwt>
<rscale>  0 0.13575423E+04</rscale>
<asrwt>0</asrwt>
<pdfrwt beam="1">  1        1 0.20348012E+00 0.13575423E+04</pdfrwt>
<pdfrwt beam="2">  1       -1 0.53591768E-01 0.13575423E+04</pdfrwt>
<totfact> 0.29950629E+01</totfact>
</mgrwt>
</event>
<event>
12    1  0.1519630E-007  0.1593245E+04  0.7818608E-02  0.8824709E-01
          2   -1    0    0  501    0  0.00000000000E+00  0.00000000000E+00  0.22595225502E+04  0.22595225502E+04  0.00000000000E+00 0. -1.
         -2   -1    0    0    0  501 -0.00000000000E+00 -0.00000000000E+00 -0.28085905519E+03  0.28085905519E+03  0.00000000000E+00 0.  1.
         23    2    1    2    0    0 -0.20375726557E+03  0.39313467900E+03  0.11788703441E+04  0.12626095741E+04  0.91519118859E+02 0.  0.
        254    2    1    2    0    0  0.20375726557E+03 -0.39313467900E+03  0.79979315090E+03  0.12777720314E+04  0.89272637509E+03 0.  0.
        -24    2    4    4    0    0  0.73292687667E+02  0.29589312125E+02 -0.17286507481E+03  0.20637342764E+03  0.80376066641E+02 0.  0.
         24    2    4    4    0    0  0.13046457791E+03 -0.42272399112E+03  0.97265822571E+03  0.10713986037E+04  0.78194406662E+02 0.  0.
         11    1    3    3    0    0 -0.38491375095E+02  0.10498325429E+03  0.41161555712E+03  0.42653304269E+03  0.00000000000E+00 0. -1.
        -11    1    3    3    0    0 -0.16526589048E+03  0.28815142471E+03  0.76725478701E+03  0.83607653137E+03  0.00000000000E+00 0.  1.
          4    1    6    6  502    0  0.80614930626E+02 -0.17884227768E+03  0.35752225550E+03  0.40780570190E+03  0.00000000000E+00 0. -1.
          3    1    5    5  503    0  0.44921014106E+02  0.57432175029E+02 -0.10853513221E+03  0.13075254170E+03  0.00000000000E+00 0. -1.
         -4    1    5    5    0  503  0.28371673561E+02 -0.27842862904E+02 -0.64329942602E+02  0.75620885941E+02  0.00000000000E+00 0.  1.
         -3    1    6    6    0  502  0.49849647279E+02 -0.24388171345E+03  0.61513597021E+03  0.66359290181E+03  0.00000000000E+00 0.  1.
<mgrwt>
<rscale>  0 0.15932450E+04</rscale>
<asrwt>0</asrwt>
<pdfrwt beam="1">  1        2 0.34761884E+00 0.15932450E+04</pdfrwt>
<pdfrwt beam="2">  1       -2 0.43209087E-01 0.15932450E+04</pdfrwt>
<totfact> 0.23311429E+01</totfact>
</mgrwt>
</event>
<event>
12    1  0.1519630E-007  0.1742762E+04  0.7818608E-02  0.8737344E-01
         -2   -1    0    0    0  501 -0.00000000000E+00  0.00000000000E+00  0.81746676047E+03  0.81746676047E+03  0.00000000000E+00 0.  1.
          2   -1    0    0  501    0  0.00000000000E+00 -0.00000000000E+00 -0.92885126345E+03  0.92885126345E+03  0.00000000000E+00 0. -1.
         23    2    1    2    0    0  0.16728993023E+03  0.39446667636E+03  0.42463183580E+03  0.60976437319E+03  0.88941077797E+02 0.  0.
        254    2    1    2    0    0 -0.16728993023E+03 -0.39446667636E+03 -0.53601633878E+03  0.11365536507E+04  0.90600817107E+03 0.  0.
        -24    2    4    4    0    0 -0.14745646600E+03  0.21638666466E+03 -0.43205746353E+03  0.51145229245E+03  0.79644194053E+02 0.  0.
         24    2    4    4    0    0 -0.19833464225E+02 -0.61085334102E+03 -0.10395887525E+03  0.62510135829E+03  0.80056791433E+02 0.  0.
         11    1    3    3    0    0  0.16903413164E+03  0.33943624639E+03  0.39368390504E+03  0.54660453722E+03  0.00000000000E+00 0.  1.
        -11    1    3    3    0    0 -0.17442014131E+01  0.55030429964E+02  0.30947930763E+02  0.63159835965E+02  0.00000000000E+00 0. -1.
          4    1    6    6  502    0  0.56935585453E+01 -0.14516384819E+02 -0.14979727704E+02  0.21622540998E+02  0.00000000000E+00 0. -1.
          1    1    5    5  503    0 -0.18334622338E+02  0.73336152511E+00 -0.11966829360E+02  0.21906647400E+02  0.00000000000E+00 0. -1.
         -2    1    5    5    0  503 -0.12912184366E+03  0.21565330314E+03 -0.42009063417E+03  0.48954564505E+03  0.00000000000E+00 0.  1.
         -3    1    6    6    0  502 -0.25527022770E+02 -0.59633695620E+03 -0.88979147549E+02  0.60347881729E+03  0.00000000000E+00 0.  1.
<mgrwt>
<rscale>  0 0.17427622E+04</rscale>
<asrwt>0</asrwt>
<pdfrwt beam="1">  1        2 0.14290019E+00 0.17427622E+04</pdfrwt>
<pdfrwt beam="2">  1       -2 0.12576412E+00 0.17427622E+04</pdfrwt>
<totfact> 0.12556645E+01</totfact>
</mgrwt>
</event>
<event>
12    1  0.1519630E-007  0.1352666E+04  0.7818608E-02  0.8988813E-01
         -2   -1    0    0    0  501 -0.00000000000E+00  0.00000000000E+00  0.34542748799E+03  0.34542748799E+03  0.00000000000E+00 0. -1.
          2   -1    0    0  501    0  0.00000000000E+00 -0.00000000000E+00 -0.13242320044E+04  0.13242320044E+04  0.00000000000E+00 0.  1.
         23    2    1    2    0    0 -0.23425851392E+03  0.12476449476E+02  0.64355142539E+02  0.25971486574E+03  0.90980844021E+02 0.  0.
        254    2    1    2    0    0  0.23425851392E+03 -0.12476449476E+02 -0.10431596590E+04  0.14099446267E+04  0.91909143344E+03 0.  0.
        -24    2    4    4    0    0  0.13739862770E+03 -0.38651753726E+03 -0.89627243324E+03  0.98880193495E+03  0.78427051931E+02 0.  0.
         24    2    4    4    0    0  0.96859886228E+02  0.37404108778E+03 -0.14688722573E+03  0.42114269172E+03  0.80602337413E+02 0.  0.
         11    1    3    3    0    0 -0.96822768316E+01  0.23329638758E+02  0.15481571489E+02  0.29625961335E+02  0.00000000000E+00 0.  1.
        -11    1    3    3    0    0 -0.22457623709E+03 -0.10853189282E+02  0.48873571050E+02  0.23008890441E+03  0.00000000000E+00 0. -1.
          2    1    6    6  502    0  0.43902274981E+02  0.51007819924E+02 -0.27625588259E+02  0.72748749602E+02  0.00000000000E+00 0. -1.
          1    1    5    5  503    0  0.56365692834E+01 -0.12048458606E+03 -0.27112056686E+03  0.29674006835E+03  0.00000000000E+00 0. -1.
         -2    1    5    5    0  503  0.13176205841E+03 -0.26603295120E+03 -0.62515186638E+03  0.69206186660E+03  0.00000000000E+00 0.  1.
         -1    1    6    6    0  502  0.52957611247E+02  0.32303326786E+03 -0.11926163747E+03  0.34839394212E+03  0.00000000000E+00 0.  1.
<mgrwt>
<rscale>  0 0.13526657E+04</rscale>
<asrwt>0</asrwt>
<pdfrwt beam="1">  1        2 0.20372800E+00 0.13526657E+04</pdfrwt>
<pdfrwt beam="2">  1       -2 0.53142691E-01 0.13526657E+04</pdfrwt>
<totfact> 0.52167083E+01</totfact>
</mgrwt>
</event>
<event>
12    1  0.1519630E-007  0.2109889E+04  0.7818608E-02  0.8556900E-01
         -1   -1    0    0    0  501 -0.00000000000E+00  0.00000000000E+00  0.10575722762E+04  0.10575722762E+04  0.00000000000E+00 0.  1.
          1   -1    0    0  501    0  0.00000000000E+00 -0.00000000000E+00 -0.10523233113E+04  0.10523233113E+04  0.00000000000E+00 0. -1.
         23    2    1    2    0    0  0.75897432238E+03  0.31534064018E+03  0.25357129045E+03  0.86480244555E+03  0.90017382189E+02 0.  0.
        254    2    1    2    0    0 -0.75897432238E+03 -0.31534064018E+03 -0.24832232547E+03  0.12450931420E+04  0.90172679536E+03 0.  0.
        -24    2    4    4    0    0  0.19671894854E+03 -0.29799546100E+02 -0.42113276777E+00  0.21371870497E+03  0.78033004820E+02 0.  0.
         24    2    4    4    0    0 -0.95569327092E+03 -0.28554109408E+03 -0.24790119271E+03  0.10313744370E+04  0.85993508222E+02 0.  0.
         11    1    3    3    0    0  0.40950897409E+03  0.19118185892E+03  0.18137190238E+03  0.48697419850E+03  0.00000000000E+00 0.  1.
        -11    1    3    3    0    0  0.34946534830E+03  0.12415878126E+03  0.72199388071E+02  0.37782824704E+03  0.00000000000E+00 0. -1.
          4    1    6    6  502    0 -0.83713916874E+03 -0.27685236271E+03 -0.20742715309E+03  0.90580088453E+03  0.00000000000E+00 0. -1.
          3    1    5    5  503    0  0.91980305449E+02  0.18893840591E+02 -0.21440653212E+02  0.96317472002E+02  0.00000000000E+00 0. -1.
         -4    1    5    5    0  503  0.10473864309E+03 -0.48693386691E+02  0.21019520444E+02  0.11740123297E+03  0.00000000000E+00 0.  1.
         -3    1    6    6    0  502 -0.11855410218E+03 -0.86887313738E+01 -0.40474039618E+02  0.12557355247E+03  0.00000000000E+00 0.  1.
<mgrwt>
<rscale>  0 0.21098891E+04</rscale>
<asrwt>0</asrwt>
<pdfrwt beam="1">  1        1 0.16189589E+00 0.21098891E+04</pdfrwt>
<pdfrwt beam="2">  1       -1 0.16270343E+00 0.21098891E+04</pdfrwt>
<totfact> 0.35313504E+00</totfact>
</mgrwt>
</event>
<event>
12    1  0.1519630E-007  0.1700590E+04  0.7818608E-02  0.8761028E-01
         -2   -1    0    0    0  501 -0.00000000000E+00  0.00000000000E+00  0.69822047254E+03  0.69822047254E+03  0.00000000000E+00 0.  1.
          2   -1    0    0  501    0  0.00000000000E+00 -0.00000000000E+00 -0.10354921955E+04  0.10354921955E+04  0.00000000000E+00 0. -1.
         23    2    1    2    0    0 -0.30636294352E+03  0.16715997746E+03  0.37101746479E+03  0.51731626153E+03  0.90340710837E+02 0.  0.
        254    2    1    2    0    0  0.30636294352E+03 -0.16715997746E+03 -0.70828918778E+03  0.12163964065E+04  0.92528154260E+03 0.  0.
        -24    2    4    4    0    0  0.59727135396E+03 -0.22507134733E+03 -0.31242572884E+03  0.71514794397E+03  0.80228199981E+02 0.  0.
         24    2    4    4    0    0 -0.29090841043E+03  0.57911369869E+02 -0.39586345894E+03  0.50124846256E+03  0.80998228876E+02 0.  0.
         11    1    3    3    0    0 -0.14990285367E+02  0.33173681942E+02  0.62371401827E+02  0.72217682010E+02  0.00000000000E+00 0. -1.
        -11    1    3    3    0    0 -0.29137265816E+03  0.13398629552E+03  0.30864606297E+03  0.44509857952E+03  0.00000000000E+00 0.  1.
          2    1    6    6  502    0 -0.17477120305E+03  0.73189430626E+02 -0.26259403526E+03  0.32381675918E+03  0.00000000000E+00 0. -1.
          3    1    5    5  503    0  0.59833487108E+03 -0.22648155465E+03 -0.30732778717E+03  0.70975269025E+03  0.00000000000E+00 0. -1.
         -4    1    5    5    0  503 -0.10635171276E+01  0.14102073177E+01 -0.50979416756E+01  0.53952537185E+01  0.00000000000E+00 0.  1.
         -1    1    6    6    0  502 -0.11613720738E+03 -0.15278060757E+02 -0.13326942367E+03  0.17743170338E+03  0.00000000000E+00 0.  1.
<mgrwt>
<rscale>  0 0.17005903E+04</rscale>
<asrwt>0</asrwt>
<pdfrwt beam="1">  1        2 0.15930649E+00 0.17005903E+04</pdfrwt>
<pdfrwt beam="2">  1       -2 0.10741853E+00 0.17005903E+04</pdfrwt>
<totfact> 0.15832083E+01</totfact>
</mgrwt>
</event>
<event>
12    1  0.1519630E-007  0.2078497E+04  0.7818608E-02  0.8570775E-01
         -1   -1    0    0    0  501 -0.00000000000E+00  0.00000000000E+00  0.12027757059E+04  0.12027757059E+04  0.00000000000E+00 0.  1.
          1   -1    0    0  501    0  0.00000000000E+00 -0.00000000000E+00 -0.89795446985E+03  0.89795446985E+03  0.00000000000E+00 0. -1.
         23    2    1    2    0    0  0.65586415122E+03 -0.30688226671E+03  0.54221859358E+03  0.90925983647E+03  0.91749313479E+02 0.  0.
        254    2    1    2    0    0 -0.65586415122E+03  0.30688226671E+03 -0.23739735757E+03  0.11914703392E+04  0.91592005843E+03 0.  0.
        -24    2    4    4    0    0 -0.74516735787E+03  0.27608661657E+03 -0.47148671395E+03  0.92743494719E+03  0.79609350873E+02 0.  0.
         24    2    4    4    0    0  0.89303206655E+02  0.30795650142E+02  0.23408935638E+03  0.26403539205E+03  0.77417224830E+02 0.  0.
         13    1    3    3    0    0  0.54994063602E+02 -0.27321451133E+02  0.17184931022E+02  0.63766218155E+02  0.00000000000E+00 0. -1.
        -13    1    3    3    0    0  0.60087008762E+03 -0.27956081558E+03  0.52503366255E+03  0.84549361832E+03  0.00000000000E+00 0.  1.
          2    1    6    6  502    0  0.44598134125E+02  0.38085132010E+00  0.32142477288E+02  0.54975244077E+02  0.00000000000E+00 0. -1.
          3    1    5    5  503    0 -0.23529015419E+03  0.10135207898E+03 -0.11225629932E+03  0.27970551891E+03  0.00000000000E+00 0. -1.
         -4    1    5    5    0  503 -0.50987720369E+03  0.17473453759E+03 -0.35923041462E+03  0.64772942828E+03  0.00000000000E+00 0.  1.
         -1    1    6    6    0  502  0.44705072530E+02  0.30414798822E+02  0.20194687909E+03  0.20906014798E+03  0.00000000000E+00 0.  1.
<mgrwt>
<rscale>  0 0.20784974E+04</rscale>
<asrwt>0</asrwt>
<pdfrwt beam="1">  1        1 0.13814684E+00 0.20784974E+04</pdfrwt>
<pdfrwt beam="2">  1       -1 0.18504242E+00 0.20784974E+04</pdfrwt>
<totfact> 0.32237220E+00</totfact>
</mgrwt>
</event>
<event>
12    1  0.1519630E-007  0.1497310E+04  0.7818608E-02  0.8886244E-01
          1   -1    0    0  501    0  0.00000000000E+00  0.00000000000E+00  0.90562735805E+03  0.90562735805E+03  0.00000000000E+00 0. -1.
         -1   -1    0    0    0  501 -0.00000000000E+00 -0.00000000000E+00 -0.61889050131E+03  0.61889050131E+03  0.00000000000E+00 0.  1.
         23    2    1    2    0    0  0.63605631397E+02 -0.62148585176E+02 -0.38373931586E+03  0.40351772211E+03  0.87536087029E+02 0.  0.
        254    2    1    2    0    0 -0.63605631397E+02  0.62148585176E+02  0.67047617260E+03  0.11210001372E+04  0.89397700569E+03 0.  0.
        -24    2    4    4    0    0 -0.15457506607E+03  0.45406362687E+03  0.40183271279E+03  0.63087338413E+03  0.80401924343E+02 0.  0.
         24    2    4    4    0    0  0.90969434672E+02 -0.39191504169E+03  0.26864345981E+03  0.49012675312E+03  0.78626253105E+02 0.  0.
         13    1    3    3    0    0 -0.20708483040E+02 -0.21500447444E+02 -0.12014808487E+03  0.12380094026E+03  0.00000000000E+00 0. -1.
        -13    1    3    3    0    0  0.84314114437E+02 -0.40648137732E+02 -0.26359123099E+03  0.27971678185E+03  0.00000000000E+00 0.  1.
          2    1    6    6  502    0  0.69909916186E+01 -0.72955999207E+00 -0.17307531613E+01  0.72389037912E+01  0.00000000000E+00 0. -1.
          3    1    5    5  503    0 -0.57661786508E+02  0.86825654681E+02  0.11289163303E+03  0.15364926535E+03  0.00000000000E+00 0. -1.
         -4    1    5    5    0  503 -0.96913279561E+02  0.36723797219E+03  0.28894107976E+03  0.47722411878E+03  0.00000000000E+00 0.  1.
         -1    1    6    6    0  502  0.83978443053E+02 -0.39118548170E+03  0.27037421297E+03  0.48288784933E+03  0.00000000000E+00 0.  1.
<mgrwt>
<rscale>  0 0.14973098E+04</rscale>
<asrwt>0</asrwt>
<pdfrwt beam="1">  1        1 0.13932729E+00 0.14973098E+04</pdfrwt>
<pdfrwt beam="2">  1       -1 0.95213923E-01 0.14973098E+04</pdfrwt>
<totfact> 0.18564579E+01</totfact>
</mgrwt>
</event>
<event>
12    1  0.1519630E-007  0.1573775E+04  0.7818608E-02  0.8836823E-01
          2   -1    0    0  501    0  0.00000000000E+00  0.00000000000E+00  0.69134117209E+03  0.69134117209E+03  0.00000000000E+00 0. -1.
         -2   -1    0    0    0  501 -0.00000000000E+00 -0.00000000000E+00 -0.89563883302E+03  0.89563883302E+03  0.00000000000E+00 0.  1.
         23    2    1    2    0    0  0.37975639288E+03  0.37011639917E+03  0.23634629331E+03  0.58745156370E+03  0.89658811438E+02 0.  0.
        254    2    1    2    0    0 -0.37975639288E+03 -0.37011639917E+03 -0.44064395423E+03  0.99952844141E+03  0.72366355713E+03 0.  0.
        -24    2    4    4    0    0 -0.12418917275E+03  0.95372340368E+01  0.17529184596E+03  0.22789015548E+03  0.75450528456E+02 0.  0.
         24    2    4    4    0    0 -0.25556722013E+03 -0.37965363320E+03 -0.61593580018E+03  0.77163828593E+03  0.81223451977E+02 0.  0.
         11    1    3    3    0    0  0.28005224780E+03  0.27550449696E+03  0.21655538469E+03  0.44858468986E+03  0.00000000000E+00 0. -1.
        -11    1    3    3    0    0  0.99704145081E+02  0.94611902205E+02  0.19790908621E+02  0.13886687384E+03  0.00000000000E+00 0.  1.
          2    1    6    6  502    0 -0.16469028078E+03 -0.19802091906E+03 -0.29260539915E+03  0.38981161165E+03  0.00000000000E+00 0. -1.
          1    1    5    5  503    0 -0.12378151830E+03  0.46369771837E+01  0.12027533982E+03  0.17265434602E+03  0.00000000000E+00 0. -1.
         -2    1    5    5    0  503 -0.40765445170E+00  0.49002568531E+01  0.55016506140E+02  0.55235809464E+02  0.00000000000E+00 0.  1.
         -1    1    6    6    0  502 -0.90876939345E+02 -0.18163271414E+03 -0.32333040104E+03  0.38182667427E+03  0.00000000000E+00 0.  1.
<mgrwt>
<rscale>  0 0.15737751E+04</rscale>
<asrwt>0</asrwt>
<pdfrwt beam="1">  1        2 0.10636018E+00 0.15737751E+04</pdfrwt>
<pdfrwt beam="2">  1       -2 0.13779059E+00 0.15737751E+04</pdfrwt>
<totfact> 0.14963299E+01</totfact>
</mgrwt>
</event>
<event>
12    1  0.1519630E-007  0.1296691E+04  0.7818608E-02  0.9032194E-01
          2   -1    0    0  501    0  0.00000000000E+00  0.00000000000E+00  0.21459364500E+04  0.21459364500E+04  0.00000000000E+00 0. -1.
         -2   -1    0    0    0  501 -0.00000000000E+00 -0.00000000000E+00 -0.19588265044E+03  0.19588265044E+03  0.00000000000E+00 0.  1.
         23    2    1    2    0    0  0.78476991952E+02  0.22340376694E+03  0.10878725130E+03  0.27633774280E+03  0.91978262099E+02 0.  0.
        254    2    1    2    0    0 -0.78476991952E+02 -0.22340376694E+03  0.18412665483E+04  0.20654813577E+04  0.90547382938E+03 0.  0.
        -24    2    4    4    0    0  0.12274767715E+03 -0.45833237455E+03  0.15829610894E+04  0.16545242822E+04  0.80927325064E+02 0.  0.
         24    2    4    4    0    0 -0.20122466910E+03  0.23492860761E+03  0.25830545891E+03  0.41095707552E+03  0.80505836394E+02 0.  0.
         11    1    3    3    0    0 -0.39365234425E+00 -0.49087711057E+01 -0.69278516148E+01  0.84997719930E+01  0.00000000000E+00 0. -1.
        -11    1    3    3    0    0  0.78870644296E+02  0.22831253805E+03  0.11571510291E+03  0.26783797081E+03  0.00000000000E+00 0.  1.
          2    1    6    6  502    0 -0.32937090738E+02  0.42188629610E+02  0.10074648224E+02  0.54463115514E+02  0.00000000000E+00 0. -1.
          1    1    5    5  503    0 -0.11291058621E+02 -0.26966129236E+02  0.11331230861E+03  0.11702281578E+03  0.00000000000E+00 0. -1.
         -2    1    5    5    0  503  0.13403873577E+03 -0.43136624531E+03  0.14696487808E+04  0.15375014664E+04  0.00000000000E+00 0.  1.
         -1    1    6    6    0  502 -0.16828757836E+03  0.19273997800E+03  0.24823081069E+03  0.35649396001E+03  0.00000000000E+00 0.  1.
<mgrwt>
<rscale>  0 0.12966907E+04</rscale>
<asrwt>0</asrwt>
<pdfrwt beam="1">  1        2 0.33014405E+00 0.12966907E+04</pdfrwt>
<pdfrwt beam="2">  1       -2 0.30135794E-01 0.12966907E+04</pdfrwt>
<totfact> 0.55304589E+01</totfact>
</mgrwt>
</event>
<event>
12    1  0.1519630E-007  0.1715642E+04  0.7818608E-02  0.8752493E-01
          2   -1    0    0  501    0  0.00000000000E+00  0.00000000000E+00  0.97603937288E+03  0.97603937288E+03  0.00000000000E+00 0. -1.
         -2   -1    0    0    0  501 -0.00000000000E+00 -0.00000000000E+00 -0.75392154504E+03  0.75392154504E+03  0.00000000000E+00 0.  1.
         23    2    1    2    0    0  0.38606365266E+02 -0.51666640073E+03  0.40560262437E+03  0.66486152933E+03  0.95355876614E+02 0.  0.
        254    2    1    2    0    0 -0.38606365266E+02  0.51666640073E+03 -0.18348479653E+03  0.10650993886E+04  0.91232418358E+03 0.  0.
        -24    2    4    4    0    0  0.22702797984E+03  0.71723266875E+02 -0.42028889302E+03  0.48967201720E+03  0.80311893172E+02 0.  0.
         24    2    4    4    0    0 -0.26563434511E+03  0.44494313386E+03  0.23680409649E+03  0.57542737140E+03  0.80650368695E+02 0.  0.
         13    1    3    3    0    0  0.33061563303E+02 -0.44300366259E+03  0.38581426437E+03  0.58838589261E+03  0.00000000000E+00 0. -1.
        -13    1    3    3    0    0  0.55448019624E+01 -0.73662738144E+02  0.19788359994E+02  0.76475636715E+02  0.00000000000E+00 0.  1.
          2    1    6    6  502    0 -0.14041308795E+03  0.15838574008E+03  0.99705341274E+02  0.23397229111E+03  0.00000000000E+00 0. -1.
          1    1    5    5  503    0  0.69607811274E+02  0.39767020247E+02 -0.79393572027E+02  0.11282731305E+03  0.00000000000E+00 0. -1.
         -2    1    5    5    0  503  0.15742016857E+03  0.31956246628E+02 -0.34089532100E+03  0.37684470415E+03  0.00000000000E+00 0.  1.
         -1    1    6    6    0  502 -0.12522125716E+03  0.28655739378E+03  0.13709875522E+03  0.34145508029E+03  0.00000000000E+00 0.  1.
<mgrwt>
<rscale>  0 0.17156423E+04</rscale>
<asrwt>0</asrwt>
<pdfrwt beam="1">  1        2 0.15015990E+00 0.17156423E+04</pdfrwt>
<pdfrwt beam="2">  1       -2 0.11598793E+00 0.17156423E+04</pdfrwt>
<totfact> 0.14326865E+01</totfact>
</mgrwt>
</event>
<event>
12    1  0.1519630E-007  0.2070900E+04  0.7818608E-02  0.8574172E-01
         -1   -1    0    0    0  501 -0.00000000000E+00  0.00000000000E+00  0.32094187739E+03  0.32094187739E+03  0.00000000000E+00 0.  1.
          1   -1    0    0  501    0  0.00000000000E+00 -0.00000000000E+00 -0.33406566230E+04  0.33406566230E+04  0.00000000000E+00 0. -1.
         23    2    1    2    0    0 -0.65757335438E+03  0.46525101837E+03 -0.16363120909E+04  0.18261657920E+04  0.92211790990E+02 0.  0.
        254    2    1    2    0    0  0.65757335438E+03 -0.46525101837E+03 -0.13834026547E+04  0.18354327085E+04  0.89785805988E+03 0.  0.
        -24    2    4    4    0    0  0.71365235514E+03 -0.40810996528E+03 -0.14758342404E+04  0.16911708976E+04  0.78223217845E+02 0.  0.
         24    2    4    4    0    0 -0.56079000765E+02 -0.57141053090E+02  0.92431585682E+02  0.14426181090E+03  0.76537035339E+02 0.  0.
         11    1    3    3    0    0 -0.25075799029E+03  0.19716214201E+03 -0.74424091245E+03  0.80972033178E+03  0.00000000000E+00 0. -1.
        -11    1    3    3    0    0 -0.40681536408E+03  0.26808887635E+03 -0.89207117845E+03  0.10164454602E+04  0.00000000000E+00 0.  1.
          2    1    6    6  502    0 -0.29210031848E+02  0.57607314466E+01  0.62927387459E+00  0.29779321231E+02  0.00000000000E+00 0. -1.
          1    1    5    5  503    0  0.37242137367E+03 -0.23440437675E+03 -0.71857046478E+03  0.84260702837E+03  0.00000000000E+00 0. -1.
         -4    1    5    5    0  503  0.34123098147E+03 -0.17370558853E+03 -0.75726377563E+03  0.84856386918E+03  0.00000000000E+00 0.  1.
         -1    1    6    6    0  502 -0.26868968917E+02 -0.62901784536E+02  0.91802311808E+02  0.11448248967E+03  0.00000000000E+00 0.  1.
<mgrwt>
<rscale>  0 0.20708999E+04</rscale>
<asrwt>0</asrwt>
<pdfrwt beam="1">  1        1 0.51394717E+00 0.20708999E+04</pdfrwt>
<pdfrwt beam="2">  1       -1 0.49375674E-01 0.20708999E+04</pdfrwt>
<totfact> 0.12638286E+00</totfact>
</mgrwt>
</event>
<event>
12    1  0.1519630E-007  0.1416163E+04  0.7818608E-02  0.8942202E-01
          2   -1    0    0  501    0  0.00000000000E+00  0.00000000000E+00  0.26726488121E+04  0.26726488121E+04  0.00000000000E+00 0. -1.
         -2   -1    0    0    0  501 -0.00000000000E+00 -0.00000000000E+00 -0.18759638514E+03  0.18759638514E+03  0.00000000000E+00 0.  1.
         23    2    1    2    0    0 -0.11568780476E+03 -0.39428131341E+03  0.60276270845E+03  0.73466988755E+03  0.87037570597E+02 0.  0.
        254    2    1    2    0    0  0.11568780476E+03  0.39428131341E+03  0.18822897185E+04  0.21255753097E+04  0.89789442055E+03 0.  0.
        -24    2    4    4    0    0 -0.33497450690E+03  0.20415655047E+03  0.13007852483E+04  0.13611749739E+04  0.82868751865E+02 0.  0.
         24    2    4    4    0    0  0.45066231167E+03  0.19012476294E+03  0.58150447025E+03  0.76440033581E+03  0.83165376355E+02 0.  0.
         11    1    3    3    0    0 -0.54975449768E+02 -0.17792175449E+03  0.35001383180E+03  0.39646958679E+03  0.00000000000E+00 0. -1.
        -11    1    3    3    0    0 -0.60712354997E+02 -0.21635955892E+03  0.25274887666E+03  0.33820030076E+03  0.00000000000E+00 0.  1.
          4    1    6    6  502    0  0.30203896775E+03  0.85195496653E+02  0.38258303814E+03  0.49482885098E+03  0.00000000000E+00 0. -1.
          1    1    5    5  503    0 -0.33191274390E+03  0.20506892394E+03  0.12316928150E+04  0.12920087166E+04  0.00000000000E+00 0. -1.
         -2    1    5    5    0  503 -0.30617630039E+01 -0.91237346536E+00  0.69092433255E+02  0.69166257316E+02  0.00000000000E+00 0.  1.
         -3    1    6    6    0  502  0.14862334391E+03  0.10492926628E+03  0.19892143211E+03  0.26957148483E+03  0.00000000000E+00 0.  1.
<mgrwt>
<rscale>  0 0.14161628E+04</rscale>
<asrwt>0</asrwt>
<pdfrwt beam="1">  1        2 0.41117671E+00 0.14161628E+04</pdfrwt>
<pdfrwt beam="2">  1       -2 0.28860984E-01 0.14161628E+04</pdfrwt>
<totfact> 0.29689028E+01</totfact>
</mgrwt>
</event>
<event>
12    1  0.1519630E-007  0.1333779E+04  0.7818608E-02  0.9003199E-01
          2   -1    0    0  501    0  0.00000000000E+00  0.00000000000E+00  0.14081320810E+04  0.14081320810E+04  0.00000000000E+00 0. -1.
         -2   -1    0    0    0  501 -0.00000000000E+00 -0.00000000000E+00 -0.31583808319E+03  0.31583808319E+03  0.00000000000E+00 0.  1.
         23    2    1    2    0    0 -0.15987624572E+03  0.10761691129E+02 -0.97210155051E+02  0.21239195386E+03  0.99921468545E+02 0.  0.
        254    2    1    2    0    0  0.15987624572E+03 -0.10761691129E+02  0.11895041529E+04  0.15115782103E+04  0.91884292910E+03 0.  0.
        -24    2    4    4    0    0 -0.20939508078E+03  0.33113980665E+03  0.69458118380E+03  0.80131644809E+03  0.78518518158E+02 0.  0.
         24    2    4    4    0    0  0.36927132650E+03 -0.34190149778E+03  0.49492296905E+03  0.71026176224E+03  0.79152251063E+02 0.  0.
         13    1    3    3    0    0 -0.17170654804E+03  0.49843351911E+00 -0.81006217289E+02  0.18985624645E+03  0.00000000000E+00 0.  1.
        -13    1    3    3    0    0  0.11830302314E+02  0.10263257610E+02 -0.16203937762E+02  0.22535707413E+02  0.00000000000E+00 0. -1.
          2    1    6    6  502    0  0.35988127153E+03 -0.30827766265E+03  0.46956273145E+03  0.66711228864E+03  0.00000000000E+00 0. -1.
          3    1    5    5  503    0 -0.19716738873E+03  0.26290667555E+03  0.54419067591E+03  0.63571879866E+03  0.00000000000E+00 0. -1.
         -4    1    5    5    0  503 -0.12227692041E+02  0.68233131095E+02  0.15039050790E+03  0.16559764943E+03  0.00000000000E+00 0.  1.
         -1    1    6    6    0  502  0.93900549721E+01 -0.33623835124E+02  0.25360237605E+02  0.43149473602E+02  0.00000000000E+00 0.  1.
<mgrwt>
<rscale>  0 0.13337792E+04</rscale>
<asrwt>0</asrwt>
<pdfrwt beam="1">  1        2 0.21663570E+00 0.13337792E+04</pdfrwt>
<pdfrwt beam="2">  1       -2 0.48590475E-01 0.13337792E+04</pdfrwt>
<totfact> 0.56140624E+01</totfact>
</mgrwt>
</event>
<event>
12    1  0.1519630E-007  0.1166306E+04  0.7818608E-02  0.9142871E-01
         -2   -1    0    0    0  501 -0.00000000000E+00  0.00000000000E+00  0.36830198314E+03  0.36830198314E+03  0.00000000000E+00 0.  1.
          2   -1    0    0  501    0  0.00000000000E+00 -0.00000000000E+00 -0.92333921974E+03  0.92333921974E+03  0.00000000000E+00 0. -1.
         23    2    1    2    0    0  0.15588391825E+03  0.15489908031E+03 -0.13688749235E+03  0.27717415875E+03  0.98963668423E+02 0.  0.
        254    2    1    2    0    0 -0.15588391825E+03 -0.15489908031E+03 -0.41814974425E+03  0.10144670441E+04  0.89777539171E+03 0.  0.
        -24    2    4    4    0    0 -0.20994881993E+03 -0.50401064539E+03 -0.17570166510E+03  0.57879166781E+03  0.77611094213E+02 0.  0.
         24    2    4    4    0    0  0.54064901678E+02  0.34911156508E+03 -0.24244807915E+03  0.43567537633E+03  0.78930754378E+02 0.  0.
         11    1    3    3    0    0  0.22459699208E+02 -0.77318971525E+01  0.38698616667E+01  0.24066494373E+02  0.00000000000E+00 0.  1.
        -11    1    3    3    0    0  0.13342421904E+03  0.16263097746E+03 -0.14075735402E+03  0.25310766438E+03  0.00000000000E+00 0. -1.
          2    1    6    6  502    0  0.14564101112E+02  0.80152739372E+02 -0.18679117507E+02  0.83579208544E+02  0.00000000000E+00 0. -1.
          1    1    5    5  503    0 -0.13838177950E+03 -0.28972535277E+03 -0.13915269325E+03  0.34993394945E+03  0.00000000000E+00 0. -1.
         -2    1    5    5    0  503 -0.71567040428E+02 -0.21428529262E+03 -0.36548971846E+02  0.22885771836E+03  0.00000000000E+00 0.  1.
         -1    1    6    6    0  502  0.39500800566E+02  0.26895882571E+03 -0.22376896164E+03  0.35209616778E+03  0.00000000000E+00 0.  1.
<mgrwt>
<rscale>  0 0.11663064E+04</rscale>
<asrwt>0</asrwt>
<pdfrwt beam="1">  1        2 0.14205219E+00 0.11663064E+04</pdfrwt>
<pdfrwt beam="2">  1       -2 0.56661845E-01 0.11663064E+04</pdfrwt>
<totfact> 0.81711744E+01</totfact>
</mgrwt>
</event>
<event>
12    1  0.1519630E-007  0.2643746E+04  0.7818608E-02  0.8353492E-01
          2   -1    0    0  501    0  0.00000000000E+00  0.00000000000E+00  0.27650868742E+04  0.27650868742E+04  0.00000000000E+00 0.  1.
         -2   -1    0    0    0  501 -0.00000000000E+00 -0.00000000000E+00 -0.63193247612E+03  0.63193247612E+03  0.00000000000E+00 0. -1.
         23    2    1    2    0    0 -0.52619996601E+02  0.14401092007E+03  0.24301940570E+04  0.24367784328E+04  0.92401119239E+02 0.  0.
        254    2    1    2    0    0  0.52619996601E+02 -0.14401092007E+03 -0.29703965893E+03  0.96024091749E+03  0.90017889973E+03 0.  0.
        -24    2    4    4    0    0  0.50706534599E+02  0.22278849993E+03  0.21616439141E+03  0.32474782185E+03  0.80797495811E+02 0.  0.
         24    2    4    4    0    0  0.19134620026E+01 -0.36679941999E+03 -0.51320405034E+03  0.63549309565E+03  0.76990918225E+02 0.  0.
         13    1    3    3    0    0  0.12138496268E+02  0.87927912464E+02  0.15094856764E+04  0.15120931414E+04  0.00000000000E+00 0. -1.
        -13    1    3    3    0    0 -0.64758492869E+02  0.56083007604E+02  0.92070838058E+03  0.92468529145E+03  0.00000000000E+00 0.  1.
          4    1    6    6  502    0  0.15376631592E+01 -0.34204785114E+03 -0.50394322167E+03  0.60906310637E+03  0.00000000000E+00 0. -1.
          1    1    5    5  503    0  0.49119849763E+02  0.22410837636E+03  0.22157569681E+03  0.31895628762E+03  0.00000000000E+00 0. -1.
         -2    1    5    5    0  503  0.15866848361E+01 -0.13198764333E+01 -0.54113053995E+01  0.57915342263E+01  0.00000000000E+00 0.  1.
         -3    1    6    6    0  502  0.37579884342E+00 -0.24751568855E+02 -0.92608286690E+01  0.26429989277E+02  0.00000000000E+00 0.  1.
<mgrwt>
<rscale>  0 0.26437460E+04</rscale>
<asrwt>0</asrwt>
<pdfrwt beam="1">  1        2 0.42539797E+00 0.26437460E+04</pdfrwt>
<pdfrwt beam="2">  1       -2 0.97220383E-01 0.26437460E+04</pdfrwt>
<totfact> 0.18883400E+00</totfact>
</mgrwt>
</event>
<event>
12    1  0.1519630E-007  0.2273424E+04  0.7818608E-02  0.8488474E-01
         -1   -1    0    0    0  501 -0.00000000000E+00  0.00000000000E+00  0.15543465537E+04  0.15543465537E+04  0.00000000000E+00 0.  1.
          1   -1    0    0  501    0  0.00000000000E+00 -0.00000000000E+00 -0.83129102504E+03  0.83129102504E+03  0.00000000000E+00 0. -1.
         23    2    1    2    0    0 -0.28685126346E+02  0.83336928318E+03 -0.78985004355E+02  0.84243676453E+03  0.90187985281E+02 0.  0.
        254    2    1    2    0    0  0.28685126346E+02 -0.83336928318E+03  0.80204053301E+03  0.15432008142E+04  0.10212113091E+04 0.  0.
        -24    2    4    4    0    0  0.39488059063E+03 -0.10554918533E+03  0.54353255084E+03  0.68480727535E+03  0.80386934118E+02 0.  0.
         24    2    4    4    0    0 -0.36619546428E+03 -0.72782009785E+03  0.25850798218E+03  0.85839353887E+03  0.78688485927E+02 0.  0.
         11    1    3    3    0    0 -0.25340296320E+02  0.97206478114E+02 -0.29066913855E+02  0.10457588386E+03  0.00000000000E+00 0.  1.
        -11    1    3    3    0    0 -0.33448300260E+01  0.73616280507E+03 -0.49918090501E+02  0.73786088066E+03  0.00000000000E+00 0. -1.
          4    1    6    6  502    0 -0.14550432885E+03 -0.22346913195E+03  0.10767368181E+03  0.28758230892E+03  0.00000000000E+00 0. -1.
          1    1    5    5  503    0  0.33471698548E+02 -0.34830537427E+02  0.62072289666E+02  0.78654243913E+02  0.00000000000E+00 0. -1.
         -2    1    5    5    0  503  0.36140889208E+03 -0.70718647903E+02  0.48146026117E+03  0.60615303144E+03  0.00000000000E+00 0.  1.
         -3    1    6    6    0  502 -0.22069113543E+03 -0.50435096591E+03  0.15083430037E+03  0.57081122995E+03  0.00000000000E+00 0.  1.
<mgrwt>
<rscale>  0 0.22734241E+04</rscale>
<asrwt>0</asrwt>
<pdfrwt beam="1">  1        1 0.12789093E+00 0.22734241E+04</pdfrwt>
<pdfrwt beam="2">  1       -1 0.23913024E+00 0.22734241E+04</pdfrwt>
<totfact> 0.15460283E+00</totfact>
</mgrwt>
</event>
<event>
12    1  0.1519630E-007  0.1511723E+04  0.7818608E-02  0.8876694E-01
         -2   -1    0    0    0  501 -0.00000000000E+00  0.00000000000E+00  0.54335885644E+03  0.54335885644E+03  0.00000000000E+00 0.  1.
          2   -1    0    0  501    0  0.00000000000E+00 -0.00000000000E+00 -0.10514721292E+04  0.10514721292E+04  0.00000000000E+00 0. -1.
         23    2    1    2    0    0  0.36312916575E+03 -0.19740618250E+03 -0.37879350656E+03  0.56892097501E+03  0.96718991345E+02 0.  0.
        254    2    1    2    0    0 -0.36312916575E+03  0.19740618250E+03 -0.12931976625E+03  0.10259100107E+04  0.93001922354E+03 0.  0.
        -24    2    4    4    0    0 -0.23418283795E+03 -0.29254150852E+03  0.18399832001E+03  0.42504090025E+03  0.79888981241E+02 0.  0.
         24    2    4    4    0    0 -0.12894632780E+03  0.48994769102E+03 -0.31331808626E+03  0.60086911042E+03  0.78737343665E+02 0.  0.
         13    1    3    3    0    0  0.21555207069E+03 -0.11383573019E+03 -0.15792636194E+03  0.29045138052E+03  0.00000000000E+00 0. -1.
        -13    1    3    3    0    0  0.14757709505E+03 -0.83570452313E+02 -0.22086714462E+03  0.27846959449E+03  0.00000000000E+00 0.  1.
          4    1    6    6  502    0 -0.62658378497E+02  0.33887950063E+03 -0.18022953394E+03  0.38890625251E+03  0.00000000000E+00 0. -1.
          1    1    5    5  503    0 -0.23381188669E+03 -0.28116968223E+03  0.19008556221E+03  0.41213700334E+03  0.00000000000E+00 0. -1.
         -2    1    5    5    0  503 -0.37095125626E+00 -0.11371826295E+02 -0.60872421920E+01  0.12903896916E+02  0.00000000000E+00 0.  1.
         -3    1    6    6    0  502 -0.66287949303E+02  0.15106819040E+03 -0.13308855232E+03  0.21196285791E+03  0.00000000000E+00 0.  1.
<mgrwt>
<rscale>  0 0.15117231E+04</rscale>
<asrwt>0</asrwt>
<pdfrwt beam="1">  1        2 0.16176494E+00 0.15117231E+04</pdfrwt>
<pdfrwt beam="2">  1       -2 0.83593670E-01 0.15117231E+04</pdfrwt>
<totfact> 0.28226871E+01</totfact>
</mgrwt>
</event>
<event>
12    1  0.1519630E-007  0.1145520E+04  0.7818608E-02  0.9161926E-01
          2   -1    0    0  501    0  0.00000000000E+00  0.00000000000E+00  0.16514863145E+04  0.16514863145E+04  0.00000000000E+00 0. -1.
         -2   -1    0    0    0  501 -0.00000000000E+00 -0.00000000000E+00 -0.19864170185E+03  0.19864170185E+03  0.00000000000E+00 0.  1.
         23    2    1    2    0    0  0.13899129841E+03  0.16451888116E+02  0.43445138667E+02  0.17250877970E+03  0.91008534456E+02 0.  0.
        254    2    1    2    0    0 -0.13899129841E+03 -0.16451888116E+02  0.14093994740E+04  0.16776192367E+04  0.89911633300E+03 0.  0.
        -24    2    4    4    0    0  0.36967610962E+03  0.75540889364E+02  0.63980046931E+03  0.74708677551E+03  0.80169555458E+02 0.  0.
         24    2    4    4    0    0 -0.50866740803E+03 -0.91992777480E+02  0.76959900468E+03  0.93053246115E+03  0.80017686495E+02 0.  0.
         11    1    3    3    0    0 -0.33588932987E+01 -0.10188840712E+02  0.24126623124E+02  0.26404328862E+02  0.00000000000E+00 0. -1.
        -11    1    3    3    0    0  0.14235019171E+03  0.26640728828E+02  0.19318515543E+02  0.14610445084E+03  0.00000000000E+00 0.  1.
          2    1    6    6  502    0 -0.55142331474E+02 -0.16270199276E+01  0.46213697595E+02  0.71965476165E+02  0.00000000000E+00 0. -1.
          1    1    5    5  503    0  0.34479416041E+02  0.64195980287E+01  0.11765242946E+03  0.12276862599E+03  0.00000000000E+00 0. -1.
         -2    1    5    5    0  503  0.33519669358E+03  0.69121291335E+02  0.52214803985E+03  0.62431814952E+03  0.00000000000E+00 0.  1.
         -1    1    6    6    0  502 -0.45352507656E+03 -0.90365757552E+02  0.72338530708E+03  0.85856698499E+03  0.00000000000E+00 0.  1.
<mgrwt>
<rscale>  0 0.11455201E+04</rscale>
<asrwt>0</asrwt>
<pdfrwt beam="1">  1        2 0.25407481E+00 0.11455201E+04</pdfrwt>
<pdfrwt beam="2">  1       -2 0.30560263E-01 0.11455201E+04</pdfrwt>
<totfact> 0.10233427E+02</totfact>
</mgrwt>
</event>
<event>
12    1  0.1519630E-007  0.1563483E+04  0.7818608E-02  0.8843301E-01
          1   -1    0    0  501    0  0.00000000000E+00  0.00000000000E+00  0.68702818846E+03  0.68702818846E+03  0.00000000000E+00 0. -1.
         -1   -1    0    0    0  501 -0.00000000000E+00 -0.00000000000E+00 -0.88951148816E+03  0.88951148816E+03  0.00000000000E+00 0.  1.
         23    2    1    2    0    0  0.12650295660E+03  0.20632549819E+02  0.42811134228E+03  0.45605616403E+03  0.90990127074E+02 0.  0.
        254    2    1    2    0    0 -0.12650295660E+03 -0.20632549819E+02 -0.63059464198E+03  0.11204835126E+04  0.91728130873E+03 0.  0.
        -24    2    4    4    0    0 -0.38151811326E+03  0.18688431405E+03 -0.65150869799E+03  0.78226265388E+03  0.83602981467E+02 0.  0.
         24    2    4    4    0    0  0.25501515667E+03 -0.20751686387E+03  0.20914056006E+02  0.33822085871E+03  0.76550457896E+02 0.  0.
         11    1    3    3    0    0  0.91347368269E+02 -0.26476315261E+02  0.30770623709E+03  0.32206903810E+03  0.00000000000E+00 0. -1.
        -11    1    3    3    0    0  0.35155588328E+02  0.47108865081E+02  0.12040510519E+03  0.13398712593E+03  0.00000000000E+00 0.  1.
          2    1    6    6  502    0  0.21521723059E+03 -0.20058436243E+03  0.34709064237E+01  0.29421860918E+03  0.00000000000E+00 0. -1.
          3    1    5    5  503    0 -0.24887031211E+03  0.14019109452E+03 -0.36851485531E+03  0.46625440890E+03  0.00000000000E+00 0. -1.
         -4    1    5    5    0  503 -0.13264780115E+03  0.46693219532E+02 -0.28299384268E+03  0.31600824498E+03  0.00000000000E+00 0.  1.
         -1    1    6    6    0  502  0.39797926076E+02 -0.69325014405E+01  0.17443149583E+02  0.44002249528E+02  0.00000000000E+00 0.  1.
<mgrwt>
<rscale>  0 0.15634826E+04</rscale>
<asrwt>0</asrwt>
<pdfrwt beam="1">  1        1 0.10569664E+00 0.15634826E+04</pdfrwt>
<pdfrwt beam="2">  1       -1 0.13684792E+00 0.15634826E+04</pdfrwt>
<totfact> 0.12000370E+01</totfact>
</mgrwt>
</event>
<event>
12    1  0.1519630E-007  0.1633396E+04  0.7818608E-02  0.8800290E-01
         -2   -1    0    0    0  501 -0.00000000000E+00  0.00000000000E+00  0.20779668334E+03  0.20779668334E+03  0.00000000000E+00 0. -1.
          2   -1    0    0  501    0  0.00000000000E+00 -0.00000000000E+00 -0.32098472908E+04  0.32098472908E+04  0.00000000000E+00 0.  1.
         23    2    1    2    0    0 -0.44473816915E+02 -0.45208186787E+03 -0.35785846151E+03  0.58555191071E+03  0.91937076410E+02 0.  0.
        254    2    1    2    0    0  0.44473816915E+02  0.45208186787E+03 -0.26441921460E+04  0.28320920634E+04  0.90699361375E+03 0.  0.
        -24    2    4    4    0    0 -0.34276739755E+03 -0.40521184690E+02 -0.12886322207E+04  0.13365312613E+04  0.81310251281E+02 0.  0.
         24    2    4    4    0    0  0.38724121447E+03  0.49260305256E+03 -0.13555599252E+04  0.14955608021E+04  0.80906590318E+02 0.  0.
         11    1    3    3    0    0 -0.21386466366E+02 -0.19671262981E+03 -0.21433235965E+03  0.29170464526E+03  0.00000000000E+00 0.  1.
        -11    1    3    3    0    0 -0.23087350550E+02 -0.25536923805E+03 -0.14352610186E+03  0.29384726545E+03  0.00000000000E+00 0. -1.
          2    1    6    6  502    0  0.23646654924E+03  0.24790160049E+03 -0.68104190445E+03  0.76235799206E+03  0.00000000000E+00 0. -1.
          1    1    5    5  503    0 -0.28470170969E+03 -0.14695606509E+02 -0.94470045303E+03  0.98677756881E+03  0.00000000000E+00 0. -1.
         -2    1    5    5    0  503 -0.58065687864E+02 -0.25825578181E+02 -0.34393176770E+03  0.34975369251E+03  0.00000000000E+00 0.  1.
         -1    1    6    6    0  502  0.15077466523E+03  0.24470145207E+03 -0.67451802079E+03  0.73320281007E+03  0.00000000000E+00 0.  1.
<mgrwt>
<rscale>  0 0.16333960E+04</rscale>
<asrwt>0</asrwt>
<pdfrwt beam="1">  1        2 0.49382265E+00 0.16333960E+04</pdfrwt>
<pdfrwt beam="2">  1       -2 0.31968721E-01 0.16333960E+04</pdfrwt>
<totfact> 0.11207673E+01</totfact>
</mgrwt>
</event>
<event>
12    1  0.1519630E-007  0.1547460E+04  0.7818608E-02  0.8853492E-01
          2   -1    0    0  501    0  0.00000000000E+00  0.00000000000E+00  0.56885194814E+03  0.56885194814E+03  0.00000000000E+00 0.  1.
         -2   -1    0    0    0  501 -0.00000000000E+00 -0.00000000000E+00 -0.10523968031E+04  0.10523968031E+04  0.00000000000E+00 0. -1.
         23    2    1    2    0    0  0.49550569533E+03  0.32782425873E+02 -0.26000076571E+03  0.56803725767E+03  0.92007316957E+02 0.  0.
        254    2    1    2    0    0 -0.49550569533E+03 -0.32782425873E+02 -0.22354408929E+03  0.10532114936E+04  0.90148871811E+03 0.  0.
        -24    2    4    4    0    0 -0.25546866006E+03  0.20058457876E+03  0.28468149920E+03  0.43910129525E+03  0.79170587916E+02 0.  0.
         24    2    4    4    0    0 -0.24003703527E+03 -0.23336700464E+03 -0.50822558849E+03  0.61411019837E+03  0.82220130114E+02 0.  0.
         11    1    3    3    0    0  0.18088522466E+03 -0.28452260909E+00 -0.14357541092E+03  0.23094034744E+03  0.00000000000E+00 0. -1.
        -11    1    3    3    0    0  0.31462047067E+03  0.33066948482E+02 -0.11642535479E+03  0.33709691023E+03  0.00000000000E+00 0.  1.
          2    1    6    6  502    0 -0.75174064023E+02 -0.34456396406E+02 -0.16453287304E+03  0.18414518583E+03  0.00000000000E+00 0. -1.
          3    1    5    5  503    0 -0.10487379333E+03  0.35406383985E+02  0.89203783761E+02  0.14215990853E+03  0.00000000000E+00 0. -1.
         -4    1    5    5    0  503 -0.15059486673E+03  0.16517819478E+03  0.19547771544E+03  0.29694138672E+03  0.00000000000E+00 0.  1.
         -1    1    6    6    0  502 -0.16486297125E+03 -0.19891060823E+03 -0.34369271545E+03  0.42996501254E+03  0.00000000000E+00 0.  1.
<mgrwt>
<rscale>  0 0.15474598E+04</rscale>
<asrwt>0</asrwt>
<pdfrwt beam="1">  1        2 0.87515685E-01 0.15474598E+04</pdfrwt>
<pdfrwt beam="2">  1       -2 0.16190720E+00 0.15474598E+04</pdfrwt>
<totfact> 0.12405402E+01</totfact>
</mgrwt>
</event>
<event>
12    1  0.1519630E-007  0.1487131E+04  0.7818608E-02  0.8893056E-01
          2   -1    0    0  501    0  0.00000000000E+00  0.00000000000E+00  0.96606870921E+03  0.96606870921E+03  0.00000000000E+00 0. -1.
         -2   -1    0    0    0  501 -0.00000000000E+00 -0.00000000000E+00 -0.57230919471E+03  0.57230919471E+03  0.00000000000E+00 0.  1.
         23    2    1    2    0    0  0.13158417727E+03  0.31843645814E+03  0.46071470325E+03  0.58335125642E+03  0.96563331557E+02 0.  0.
        254    2    1    2    0    0 -0.13158417727E+03 -0.31843645814E+03 -0.66955188749E+02  0.95502664750E+03  0.88818732628E+03 0.  0.
        -24    2    4    4    0    0  0.22565783480E+03  0.20436205676E+03 -0.19910417970E+02  0.31550467822E+03  0.80383260608E+02 0.  0.
         24    2    4    4    0    0 -0.35724201206E+03 -0.52279851490E+03 -0.47044770780E+02  0.63952196928E+03  0.76387147959E+02 0.  0.
         11    1    3    3    0    0  0.77321518050E+02  0.11179541685E+03  0.12068958766E+03  0.18177681082E+03  0.00000000000E+00 0.  1.
        -11    1    3    3    0    0  0.54262659219E+02  0.20664104129E+03  0.34002511559E+03  0.40157444561E+03  0.00000000000E+00 0. -1.
          4    1    6    6  502    0 -0.13120121801E+03 -0.17209347970E+03 -0.50720350394E+02  0.22226668510E+03  0.00000000000E+00 0. -1.
          1    1    5    5  503    0  0.80339437177E+02  0.92972825774E+02  0.28453003228E+02  0.12612670174E+03  0.00000000000E+00 0. -1.
         -4    1    5    5    0  503  0.14531839762E+03  0.11138923099E+03 -0.48363421198E+02  0.18937797648E+03  0.00000000000E+00 0.  1.
         -3    1    6    6    0  502 -0.22604079406E+03 -0.35070503520E+03  0.36755796141E+01  0.41725528418E+03  0.00000000000E+00 0.  1.
<mgrwt>
<rscale>  0 0.14871315E+04</rscale>
<asrwt>0</asrwt>
<pdfrwt beam="1">  1        2 0.14862596E+00 0.14871315E+04</pdfrwt>
<pdfrwt beam="2">  1       -2 0.88047568E-01 0.14871315E+04</pdfrwt>
<totfact> 0.28493730E+01</totfact>
</mgrwt>
</event>
<event>
12    1  0.1519630E-007  0.1286948E+04  0.7818608E-02  0.9039980E-01
         -2   -1    0    0    0  501 -0.00000000000E+00  0.00000000000E+00  0.47778653812E+03  0.47778653812E+03  0.00000000000E+00 0.  1.
          2   -1    0    0  501    0  0.00000000000E+00 -0.00000000000E+00 -0.86661910018E+03  0.86661910018E+03  0.00000000000E+00 0. -1.
         23    2    1    2    0    0  0.11702399860E+03  0.29408574102E+03 -0.92208732058E+02  0.34167305280E+03  0.89760712049E+02 0.  0.
        254    2    1    2    0    0 -0.11702399860E+03 -0.29408574102E+03 -0.29662383000E+03  0.10027325855E+04  0.90404972328E+03 0.  0.
        -24    2    4    4    0    0 -0.10860457768E+03 -0.21921709584E+03  0.30055779501E+03  0.39555405236E+03  0.79227083710E+02 0.  0.
         24    2    4    4    0    0 -0.84194209175E+01 -0.74868645176E+02 -0.59718162501E+03  0.60717853313E+03  0.79772659272E+02 0.  0.
         13    1    3    3    0    0  0.96182301707E+02  0.20576919946E+03 -0.24505498845E+02  0.22845681886E+03  0.00000000000E+00 0.  1.
        -13    1    3    3    0    0  0.20841696891E+02  0.88316541553E+02 -0.67703233213E+02  0.11321623395E+03  0.00000000000E+00 0. -1.
          2    1    6    6  502    0  0.24307132299E+02 -0.66910083016E+02 -0.48008885602E+03  0.48533813529E+03  0.00000000000E+00 0. -1.
          3    1    5    5  503    0 -0.43969163169E+02 -0.40579329082E+02  0.35910376290E+02  0.69781977500E+02  0.00000000000E+00 0. -1.
         -4    1    5    5    0  503 -0.64635414511E+02 -0.17863776676E+03  0.26464741872E+03  0.32577207486E+03  0.00000000000E+00 0.  1.
         -1    1    6    6    0  502 -0.32726553216E+02 -0.79585621595E+01 -0.11709276899E+03  0.12184039785E+03  0.00000000000E+00 0.  1.
<mgrwt>
<rscale>  0 0.12869482E+04</rscale>
<asrwt>0</asrwt>
<pdfrwt beam="1">  1        2 0.13332601E+00 0.12869482E+04</pdfrwt>
<pdfrwt beam="2">  1       -2 0.73505622E-01 0.12869482E+04</pdfrwt>
<totfact> 0.50640881E+01</totfact>
</mgrwt>
</event>
<event>
12    1  0.1519630E-007  0.1787045E+04  0.7818608E-02  0.8713220E-01
         -1   -1    0    0    0  501 -0.00000000000E+00  0.00000000000E+00  0.63726703550E+03  0.63726703550E+03  0.00000000000E+00 0.  1.
          1   -1    0    0  501    0  0.00000000000E+00 -0.00000000000E+00 -0.12528218588E+04  0.12528218588E+04  0.00000000000E+00 0. -1.
         23    2    1    2    0    0  0.51950949178E+02  0.40549437955E+03 -0.78150091253E+03  0.88668276672E+03  0.91312975734E+02 0.  0.
        254    2    1    2    0    0 -0.51950949178E+02 -0.40549437955E+03  0.16594608922E+03  0.10034061276E+04  0.90119984432E+03 0.  0.
        -24    2    4    4    0    0  0.11582073374E+03  0.39894640494E+02 -0.29940606262E+03  0.33302436722E+03  0.79089911661E+02 0.  0.
         24    2    4    4    0    0 -0.16777168292E+03 -0.44538902005E+03  0.46535215184E+03  0.67038176037E+03  0.79626394188E+02 0.  0.
         13    1    3    3    0    0  0.76321753920E+02  0.29123193929E+03 -0.58947682182E+03  0.66190934126E+03  0.00000000000E+00 0. -1.
        -13    1    3    3    0    0 -0.24370804741E+02  0.11426244026E+03 -0.19202409072E+03  0.22477342546E+03  0.00000000000E+00 0.  1.
          2    1    6    6  502    0 -0.40253823254E+02 -0.37595769686E+02  0.47019347801E+02  0.72419826377E+02  0.00000000000E+00 0. -1.
          3    1    5    5  503    0  0.37741590440E+02 -0.17096920360E+02 -0.14545052285E+03  0.15123685706E+03  0.00000000000E+00 0. -1.
         -4    1    5    5    0  503  0.78079143301E+02  0.56991560854E+02 -0.15395553977E+03  0.18178751017E+03  0.00000000000E+00 0.  1.
         -1    1    6    6    0  502 -0.12751785967E+03 -0.40779325036E+03  0.41833280404E+03  0.59796193400E+03  0.00000000000E+00 0.  1.
<mgrwt>
<rscale>  0 0.17870446E+04</rscale>
<asrwt>0</asrwt>
<pdfrwt beam="1">  1        1 0.19274182E+00 0.17870446E+04</pdfrwt>
<pdfrwt beam="2">  1       -1 0.98041082E-01 0.17870446E+04</pdfrwt>
<totfact> 0.92135375E+00</totfact>
</mgrwt>
</event>
<event>
12    1  0.1519630E-007  0.1818865E+04  0.7818608E-02  0.8696331E-01
         -1   -1    0    0    0  501 -0.00000000000E+00  0.00000000000E+00  0.39414138762E+03  0.39414138762E+03  0.00000000000E+00 0.  1.
          1   -1    0    0  501    0  0.00000000000E+00 -0.00000000000E+00 -0.20984020680E+04  0.20984020680E+04  0.00000000000E+00 0. -1.
         23    2    1    2    0    0 -0.53911003921E+03 -0.25056247366E+03 -0.11006407416E+04  0.12543675592E+04  0.92772538263E+02 0.  0.
        254    2    1    2    0    0  0.53911003921E+03  0.25056247366E+03 -0.60361993881E+03  0.12381758965E+04  0.90294038148E+03 0.  0.
        -24    2    4    4    0    0  0.77701501826E+03  0.27571063345E+03 -0.44066344499E+03  0.93827067797E+03  0.79993133407E+02 0.  0.
         24    2    4    4    0    0 -0.23790497906E+03 -0.25148159787E+02 -0.16295649382E+03  0.29990521851E+03  0.78467268390E+02 0.  0.
         11    1    3    3    0    0 -0.43366378046E+03 -0.19609377722E+03 -0.95035339728E+03  0.10628681121E+04  0.00000000000E+00 0. -1.
        -11    1    3    3    0    0 -0.10544625875E+03 -0.54468696445E+02 -0.15028734433E+03  0.19149944711E+03  0.00000000000E+00 0.  1.
          2    1    6    6  502    0 -0.92121150134E+02  0.28498110702E+02 -0.62035624774E+02  0.11465978962E+03  0.00000000000E+00 0. -1.
          1    1    5    5  503    0  0.38935764819E+02  0.19094752728E+02 -0.44616978274E+02  0.62219595901E+02  0.00000000000E+00 0. -1.
         -2    1    5    5    0  503  0.73807925344E+03  0.25661588072E+03 -0.39604646671E+03  0.87605108207E+03  0.00000000000E+00 0.  1.
         -1    1    6    6    0  502 -0.14578382892E+03 -0.53646270489E+02 -0.10092086905E+03  0.18524542888E+03  0.00000000000E+00 0.  1.
<mgrwt>
<rscale>  0 0.18188646E+04</rscale>
<asrwt>0</asrwt>
<pdfrwt beam="1">  1        1 0.32283108E+00 0.18188646E+04</pdfrwt>
<pdfrwt beam="2">  1       -1 0.60637137E-01 0.18188646E+04</pdfrwt>
<totfact> 0.66397560E+00</totfact>
</mgrwt>
</event>
<event>
12    1  0.1519630E-007  0.1927922E+04  0.7818608E-02  0.8641081E-01
          2   -1    0    0  501    0  0.00000000000E+00  0.00000000000E+00  0.36661569051E+04  0.36661569051E+04  0.00000000000E+00 0. -1.
         -2   -1    0    0    0  501 -0.00000000000E+00 -0.00000000000E+00 -0.25345920736E+03  0.25345920736E+03  0.00000000000E+00 0.  1.
         23    2    1    2    0    0 -0.56144461687E+03 -0.19085591254E+03  0.22695531014E+04  0.23474919728E+04  0.90560726253E+02 0.  0.
        254    2    1    2    0    0  0.56144461687E+03  0.19085591254E+03  0.11431445963E+04  0.15721241396E+04  0.90174758394E+03 0.  0.
        -24    2    4    4    0    0 -0.16829572472E+03 -0.17800127177E+03  0.25904811969E+03  0.36520507900E+03  0.79125960993E+02 0.  0.
         24    2    4    4    0    0  0.72974034159E+03  0.36885718431E+03  0.88409647662E+03  0.12069190606E+04  0.80314695724E+02 0.  0.
         13    1    3    3    0    0 -0.46700725352E+03 -0.18733947524E+03  0.19783741555E+04  0.20413613480E+04  0.00000000000E+00 0. -1.
        -13    1    3    3    0    0 -0.94437363354E+02 -0.35164373033E+01  0.29117894594E+03  0.30613062488E+03  0.00000000000E+00 0.  1.
          4    1    6    6  502    0  0.64038820611E+02  0.16814546027E+02  0.48602600837E+02  0.82133502978E+02  0.00000000000E+00 0. -1.
          3    1    5    5  503    0 -0.48549826721E+02 -0.81366850990E+01  0.42119665726E+02  0.64787016909E+02  0.00000000000E+00 0. -1.
         -2    1    5    5    0  503 -0.11974589800E+03 -0.16986458667E+03  0.21692845396E+03  0.30041806209E+03  0.00000000000E+00 0.  1.
         -3    1    6    6    0  502  0.66570152098E+03  0.35204263829E+03  0.83549387579E+03  0.11247855576E+04  0.00000000000E+00 0.  1.
<mgrwt>
<rscale>  0 0.19279224E+04</rscale>
<asrwt>0</asrwt>
<pdfrwt beam="1">  1        2 0.56402410E+00 0.19279224E+04</pdfrwt>
<pdfrwt beam="2">  1       -2 0.38993727E-01 0.19279224E+04</pdfrwt>
<totfact> 0.36200319E+00</totfact>
</mgrwt>
</event>
<event>
12    1  0.1519630E-007  0.2305585E+04  0.7818608E-02  0.8475722E-01
          2   -1    0    0  501    0  0.00000000000E+00  0.00000000000E+00  0.14718071013E+04  0.14718071013E+04  0.00000000000E+00 0. -1.
         -2   -1    0    0    0  501 -0.00000000000E+00 -0.00000000000E+00 -0.90292433135E+03  0.90292433135E+03  0.00000000000E+00 0.  1.
         23    2    1    2    0    0  0.77535571966E+03 -0.68867404902E+02  0.85207886280E+03  0.11575920540E+04  0.89787324462E+02 0.  0.
        254    2    1    2    0    0 -0.77535571966E+03  0.68867404902E+02 -0.28319609282E+03  0.12171393787E+04  0.89180100282E+03 0.  0.
        -24    2    4    4    0    0 -0.68296286561E+03 -0.19029867322E+03 -0.48850271218E+03  0.86462493893E+03  0.79306521662E+02 0.  0.
         24    2    4    4    0    0 -0.92392854053E+02  0.25916607813E+03  0.20530661936E+03  0.35251443974E+03  0.80075756248E+02 0.  0.
         11    1    3    3    0    0  0.58468436751E+03 -0.14802873851E+02  0.61799764360E+03  0.85087955797E+03  0.00000000000E+00 0.  1.
        -11    1    3    3    0    0  0.19067135215E+03 -0.54064531051E+02  0.23408121920E+03  0.30671249605E+03  0.00000000000E+00 0. -1.
          2    1    6    6  502    0 -0.70661649645E+02  0.22554728467E+03  0.20438878610E+03  0.31247307442E+03  0.00000000000E+00 0. -1.
          1    1    5    5  503    0 -0.45805662128E+03 -0.16583134347E+03 -0.33078218171E+03  0.58884017740E+03  0.00000000000E+00 0. -1.
         -2    1    5    5    0  503 -0.22490624432E+03 -0.24467329754E+02 -0.15772053047E+03  0.27578476153E+03  0.00000000000E+00 0.  1.
         -1    1    6    6    0  502 -0.21731204408E+02  0.33618793452E+02  0.91783325341E+00  0.40041365312E+02  0.00000000000E+00 0.  1.
<mgrwt>
<rscale>  0 0.23055849E+04</rscale>
<asrwt>0</asrwt>
<pdfrwt beam="1">  1        2 0.22643186E+00 0.23055849E+04</pdfrwt>
<pdfrwt beam="2">  1       -2 0.13891144E+00 0.23055849E+04</pdfrwt>
<totfact> 0.43747537E+00</totfact>
</mgrwt>
</event>
<event>
12    1  0.1519630E-007  0.2803507E+04  0.7818608E-02  0.8302180E-01
          2   -1    0    0  501    0  0.00000000000E+00  0.00000000000E+00  0.20024495658E+04  0.20024495658E+04  0.00000000000E+00 0. -1.
         -2   -1    0    0    0  501 -0.00000000000E+00 -0.00000000000E+00 -0.98125460241E+03  0.98125460241E+03  0.00000000000E+00 0.  1.
         23    2    1    2    0    0  0.67125648422E+02  0.10139943744E+04  0.12550498084E+04  0.16174753732E+04  0.91575747141E+02 0.  0.
        254    2    1    2    0    0 -0.67125648422E+02 -0.10139943744E+04 -0.23385484502E+03  0.13662287950E+04  0.88272452541E+03 0.  0.
        -24    2    4    4    0    0 -0.12932062929E+03  0.11198943983E+03 -0.13372955846E+03  0.23116334018E+03  0.79293349306E+02 0.  0.
         24    2    4    4    0    0  0.62194980870E+02 -0.11259838142E+04 -0.10012528657E+03  0.11350654548E+04  0.81490785889E+02 0.  0.
         13    1    3    3    0    0  0.10517961317E+02  0.76114064447E+03  0.93401611406E+03  0.12049198353E+04  0.00000000000E+00 0. -1.
        -13    1    3    3    0    0  0.56607687105E+02  0.25285372990E+03  0.32103369433E+03  0.41255553791E+03  0.00000000000E+00 0.  1.
          2    1    6    6  502    0  0.14620227438E+02 -0.73575265285E+03 -0.94180258843E+02  0.74190001913E+03  0.00000000000E+00 0. -1.
          1    1    5    5  503    0 -0.66180880358E+02  0.42421272641E+02 -0.15452036020E+02  0.80113910868E+02  0.00000000000E+00 0. -1.
         -2    1    5    5    0  503 -0.63139748935E+02  0.69568167191E+02 -0.11827752244E+03  0.15104942931E+03  0.00000000000E+00 0.  1.
         -1    1    6    6    0  502  0.47574753433E+02 -0.39023116135E+03 -0.59450277234E+01  0.39316543567E+03  0.00000000000E+00 0.  1.
<mgrwt>
<rscale>  0 0.28035070E+04</rscale>
<asrwt>0</asrwt>
<pdfrwt beam="1">  1        2 0.30806916E+00 0.28035070E+04</pdfrwt>
<pdfrwt beam="2">  1       -2 0.15096225E+00 0.28035070E+04</pdfrwt>
<totfact> 0.17068141E+00</totfact>
</mgrwt>
</event>
<event>
12    1  0.1519630E-007  0.3664316E+04  0.7818608E-02  0.8075916E-01
          1   -1    0    0  501    0  0.00000000000E+00  0.00000000000E+00  0.31913762980E+04  0.31913762980E+04  0.00000000000E+00 0. -1.
         -1   -1    0    0    0  501 -0.00000000000E+00 -0.00000000000E+00 -0.10518352310E+04  0.10518352310E+04  0.00000000000E+00 0.  1.
         23    2    1    2    0    0  0.11614879006E+03 -0.62762045018E+03  0.28626801886E+04  0.29344125656E+04  0.91876393710E+02 0.  0.
        254    2    1    2    0    0 -0.11614879006E+03  0.62762045018E+03 -0.72313912161E+03  0.13087989634E+04  0.88466183742E+03 0.  0.
        -24    2    4    4    0    0  0.25988437312E+03  0.32852465858E+03 -0.70268856347E+03  0.82128295316E+03  0.72568128203E+02 0.  0.
         24    2    4    4    0    0 -0.37603316317E+03  0.29909579160E+03 -0.20450558141E+02  0.48751601028E+03  0.79965008552E+02 0.  0.
         11    1    3    3    0    0  0.86007671986E+02 -0.28036535661E+03  0.14508115156E+04  0.14801540821E+04  0.00000000000E+00 0.  1.
        -11    1    3    3    0    0  0.30141118069E+02 -0.34725509357E+03  0.14118686730E+04  0.14542584835E+04  0.00000000000E+00 0. -1.
          4    1    6    6  502    0 -0.17056739229E+03  0.10773857247E+03  0.24285358011E+02  0.20320092008E+03  0.00000000000E+00 0. -1.
          1    1    5    5  503    0  0.18973448608E+03  0.28511407024E+03 -0.55725725321E+03  0.65408321681E+03  0.00000000000E+00 0. -1.
         -2    1    5    5    0  503  0.70149887032E+02  0.43410588342E+02 -0.14543131026E+03  0.16719973635E+03  0.00000000000E+00 0.  1.
         -3    1    6    6    0  502 -0.20546577089E+03  0.19135721913E+03 -0.44735916153E+02  0.28431509020E+03  0.00000000000E+00 0.  1.
<mgrwt>
<rscale>  0 0.36643155E+04</rscale>
<asrwt>0</asrwt>
<pdfrwt beam="1">  1        1 0.49098097E+00 0.36643155E+04</pdfrwt>
<pdfrwt beam="2">  1       -1 0.16182081E+00 0.36643155E+04</pdfrwt>
<totfact> 0.98201426E-02</totfact>
</mgrwt>
</event>
<event>
12    1  0.1519630E-007  0.1805268E+04  0.7818608E-02  0.8703503E-01
         -2   -1    0    0    0  501 -0.00000000000E+00  0.00000000000E+00  0.20615946626E+03  0.20615946626E+03  0.00000000000E+00 0.  1.
          2   -1    0    0  501    0  0.00000000000E+00 -0.00000000000E+00 -0.39520280436E+04  0.39520280436E+04  0.00000000000E+00 0. -1.
         23    2    1    2    0    0  0.35798185946E+03  0.14286289398E+03 -0.13896425509E+03  0.41837542348E+03  0.84652894779E+02 0.  0.
        254    2    1    2    0    0 -0.35798185946E+03 -0.14286289398E+03 -0.36069043222E+04  0.37398120864E+04  0.90987627368E+03 0.  0.
        -24    2    4    4    0    0 -0.57281428573E+03  0.79451495849E+02 -0.15141690881E+04  0.16228302193E+04  0.80256757996E+02 0.  0.
         24    2    4    4    0    0  0.21483242627E+03 -0.22231438983E+03 -0.20927352342E+04  0.21169818671E+04  0.80590359077E+02 0.  0.
         11    1    3    3    0    0  0.20930219854E+03  0.38348597166E+02 -0.70307600989E+02  0.22410083440E+03  0.00000000000E+00 0. -1.
        -11    1    3    3    0    0  0.14867966092E+03  0.10451429682E+03 -0.68656654098E+02  0.19427458908E+03  0.00000000000E+00 0.  1.
          4    1    6    6  502    0  0.17290416108E+03 -0.20340747319E+03 -0.19090361261E+04  0.19276123520E+04  0.00000000000E+00 0. -1.
          3    1    5    5  503    0 -0.47002263565E+03  0.34744324406E+02 -0.12474334456E+04  0.13334986491E+04  0.00000000000E+00 0. -1.
         -4    1    5    5    0  503 -0.10279165008E+03  0.44707171443E+02 -0.26673564248E+03  0.28933157013E+03  0.00000000000E+00 0.  1.
         -3    1    6    6    0  502  0.41928265190E+02 -0.18906916636E+02 -0.18369910809E+03  0.18936951506E+03  0.00000000000E+00 0.  1.
<mgrwt>
<rscale>  0 0.18052678E+04</rscale>
<asrwt>0</asrwt>
<pdfrwt beam="1">  1        2 0.60800427E+00 0.18052678E+04</pdfrwt>
<pdfrwt beam="2">  1       -2 0.31716844E-01 0.18052678E+04</pdfrwt>
<totfact> 0.33047438E+00</totfact>
</mgrwt>
</event>
<event>
12    1  0.1519630E-007  0.1343753E+04  0.7818608E-02  0.8995571E-01
         -1   -1    0    0    0  501 -0.00000000000E+00  0.00000000000E+00  0.71534363890E+03  0.71534363890E+03  0.00000000000E+00 0.  1.
          1   -1    0    0  501    0  0.00000000000E+00 -0.00000000000E+00 -0.63105055465E+03  0.63105055465E+03  0.00000000000E+00 0. -1.
         23    2    1    2    0    0  0.35170954758E+03 -0.86200320268E+02  0.18640078856E+02  0.37310402646E+03  0.87915078026E+02 0.  0.
        254    2    1    2    0    0 -0.35170954758E+03  0.86200320268E+02  0.65653005395E+02  0.97329016709E+03  0.90102904014E+03 0.  0.
        -24    2    4    4    0    0  0.11970188722E+03  0.34177954914E+03  0.19028090710E+03  0.41681362010E+03  0.79905996518E+02 0.  0.
         24    2    4    4    0    0 -0.47141143480E+03 -0.25557922887E+03 -0.12462790171E+03  0.55647654699E+03  0.81145242488E+02 0.  0.
         13    1    3    3    0    0  0.14671023962E+03 -0.27404250661E+02 -0.34789034580E+02  0.15324870078E+03  0.00000000000E+00 0.  1.
        -13    1    3    3    0    0  0.20499930796E+03 -0.58796069607E+02  0.53429113437E+02  0.21985532567E+03  0.00000000000E+00 0. -1.
          4    1    6    6  502    0 -0.31940803469E+03 -0.17741857139E+03 -0.12307935166E+03  0.38554814084E+03  0.00000000000E+00 0. -1.
          3    1    5    5  503    0  0.71364269133E+02  0.14906069822E+03  0.12656081212E+03  0.20815760815E+03  0.00000000000E+00 0. -1.
         -4    1    5    5    0  503  0.48337618085E+02  0.19271885091E+03  0.63720094979E+02  0.20865601195E+03  0.00000000000E+00 0.  1.
         -3    1    6    6    0  502 -0.15200340011E+03 -0.78160657484E+02 -0.15485500432E+01  0.17092840616E+03  0.00000000000E+00 0.  1.
<mgrwt>
<rscale>  0 0.13437530E+04</rscale>
<asrwt>0</asrwt>
<pdfrwt beam="1">  1        1 0.97084701E-01 0.13437530E+04</pdfrwt>
<pdfrwt beam="2">  1       -1 0.11005287E+00 0.13437530E+04</pdfrwt>
<totfact> 0.23763356E+01</totfact>
</mgrwt>
</event>
<event>
12    1  0.1519630E-007  0.1403339E+04  0.7818608E-02  0.8951405E-01
         -1   -1    0    0    0  501 -0.00000000000E+00  0.00000000000E+00  0.24697300675E+03  0.24697300675E+03  0.00000000000E+00 0.  1.
          1   -1    0    0  501    0  0.00000000000E+00 -0.00000000000E+00 -0.19934973379E+04  0.19934973379E+04  0.00000000000E+00 0. -1.
         23    2    1    2    0    0 -0.10546417133E+03 -0.27912529070E+03 -0.67542627991E+02  0.31914086439E+03  0.90858490979E+02 0.  0.
        254    2    1    2    0    0  0.10546417133E+03  0.27912529070E+03 -0.16789817031E+04  0.19213294802E+04  0.88515184733E+03 0.  0.
        -24    2    4    4    0    0  0.24155389064E+03  0.55424082316E+03 -0.12100607811E+04  0.13551319243E+04  0.81266636130E+02 0.  0.
         24    2    4    4    0    0 -0.13608971932E+03 -0.27511553245E+03 -0.46892092208E+03  0.56619755599E+03  0.80522502058E+02 0.  0.
         11    1    3    3    0    0 -0.36047236151E+01 -0.51415187490E+02 -0.45436377806E+02  0.68709387751E+02  0.00000000000E+00 0. -1.
        -11    1    3    3    0    0 -0.10185944771E+03 -0.22771010321E+03 -0.22106250185E+02  0.25043147664E+03  0.00000000000E+00 0.  1.
          4    1    6    6  502    0 -0.37599762343E+02 -0.15805634479E+03 -0.21072447173E+03  0.26608335769E+03  0.00000000000E+00 0. -1.
          3    1    5    5  503    0  0.18403839544E+03  0.32805564548E+03 -0.72002765974E+03  0.81236104555E+03  0.00000000000E+00 0. -1.
         -4    1    5    5    0  503  0.57515495198E+02  0.22618517768E+03 -0.49003312132E+03  0.54277087872E+03  0.00000000000E+00 0.  1.
         -3    1    6    6    0  502 -0.98489956972E+02 -0.11705918766E+03 -0.25819645036E+03  0.30011419829E+03  0.00000000000E+00 0.  1.
<mgrwt>
<rscale>  0 0.14033389E+04</rscale>
<asrwt>0</asrwt>
<pdfrwt beam="1">  1        1 0.30669190E+00 0.14033389E+04</pdfrwt>
<pdfrwt beam="2">  1       -1 0.37995846E-01 0.14033389E+04</pdfrwt>
<totfact> 0.19649896E+01</totfact>
</mgrwt>
</event>
<event>
12    1  0.1519630E-007  0.2690837E+04  0.7818608E-02  0.8337984E-01
         -2   -1    0    0    0  501 -0.00000000000E+00  0.00000000000E+00  0.10643318843E+04  0.10643318843E+04  0.00000000000E+00 0.  1.
          2   -1    0    0  501    0  0.00000000000E+00 -0.00000000000E+00 -0.17007388122E+04  0.17007388122E+04  0.00000000000E+00 0. -1.
         23    2    1    2    0    0  0.14411236389E+03 -0.98196700763E+03  0.39957046888E+03  0.10738649264E+04  0.92204897359E+02 0.  0.
        254    2    1    2    0    0 -0.14411236389E+03  0.98196700763E+03 -0.10359773967E+04  0.16912057700E+04  0.89548881209E+03 0.  0.
        -24    2    4    4    0    0 -0.15637292311E+03 -0.10302768922E+03 -0.35050954986E+03  0.40529724467E+03  0.79634892884E+02 0.  0.
         24    2    4    4    0    0  0.12260559215E+02  0.10849946968E+04 -0.68546784688E+03  0.12859085254E+04  0.79566029355E+02 0.  0.
         13    1    3    3    0    0  0.84667575457E+01 -0.15480698502E+03  0.96131657430E+02  0.18242309107E+03  0.00000000000E+00 0. -1.
        -13    1    3    3    0    0  0.13564560635E+03 -0.82716002261E+03  0.30343881145E+03  0.89144183536E+03  0.00000000000E+00 0.  1.
          4    1    6    6  502    0  0.22041737501E+02  0.79321449887E+03 -0.46162264603E+03  0.91802535190E+03  0.00000000000E+00 0. -1.
          1    1    5    5  503    0 -0.13376998305E+03 -0.44875342596E+02 -0.24431443622E+03  0.28213072942E+03  0.00000000000E+00 0. -1.
         -2    1    5    5    0  503 -0.22602940060E+02 -0.58152346622E+02 -0.10619511365E+03  0.12316651525E+03  0.00000000000E+00 0.  1.
         -3    1    6    6    0  502 -0.97811782865E+01  0.29178019798E+03 -0.22384520085E+03  0.36788317348E+03  0.00000000000E+00 0.  1.
<mgrwt>
<rscale>  0 0.26908367E+04</rscale>
<asrwt>0</asrwt>
<pdfrwt beam="1">  1        2 0.26165212E+00 0.26908367E+04</pdfrwt>
<pdfrwt beam="2">  1       -2 0.16374337E+00 0.26908367E+04</pdfrwt>
<totfact> 0.20341681E+00</totfact>
</mgrwt>
</event>
<event>
12    1  0.1519630E-007  0.1737838E+04  0.7818608E-02  0.8740074E-01
         -1   -1    0    0    0  501 -0.00000000000E+00  0.00000000000E+00  0.37427998778E+03  0.37427998778E+03  0.00000000000E+00 0.  1.
          1   -1    0    0  501    0  0.00000000000E+00 -0.00000000000E+00 -0.20172599394E+04  0.20172599394E+04  0.00000000000E+00 0. -1.
         23    2    1    2    0    0 -0.19835426808E+03 -0.87150042964E+02  0.21457722370E+03  0.31769983559E+03  0.89164202139E+02 0.  0.
        254    2    1    2    0    0  0.19835426808E+03  0.87150042964E+02 -0.18575571753E+04  0.20738400916E+04  0.89630046313E+03 0.  0.
        -24    2    4    4    0    0 -0.11045175217E+03  0.42891395629E+03 -0.10126186746E+04  0.11081331306E+04  0.79973018559E+02 0.  0.
         24    2    4    4    0    0  0.30880602025E+03 -0.34176391333E+03 -0.84493850075E+03  0.96570696093E+03  0.80654409344E+02 0.  0.
         13    1    3    3    0    0 -0.10117077893E+03  0.36309205179E+01  0.96366281670E+02  0.13976827371E+03  0.00000000000E+00 0.  1.
        -13    1    3    3    0    0 -0.97183489153E+02 -0.90780963481E+02  0.11821094203E+03  0.17793156187E+03  0.00000000000E+00 0. -1.
          4    1    6    6  502    0  0.27136659357E+03 -0.33030108123E+03 -0.75509793929E+03  0.86770474834E+03  0.00000000000E+00 0. -1.
          3    1    5    5  503    0 -0.11709313460E+03  0.41820358460E+03 -0.95435447942E+03  0.10485215843E+04  0.00000000000E+00 0. -1.
         -4    1    5    5    0  503  0.66413824372E+01  0.10710371694E+02 -0.58264195141E+02  0.59611546347E+02  0.00000000000E+00 0.  1.
         -3    1    6    6    0  502  0.37439426677E+02 -0.11462832094E+02 -0.89840561453E+02  0.98002212586E+02  0.00000000000E+00 0.  1.
<mgrwt>
<rscale>  0 0.17378378E+04</rscale>
<asrwt>0</asrwt>
<pdfrwt beam="1">  1        1 0.31034768E+00 0.17378378E+04</pdfrwt>
<pdfrwt beam="2">  1       -1 0.57581537E-01 0.17378378E+04</pdfrwt>
<totfact> 0.84072469E+00</totfact>
</mgrwt>
</event>
<event>
12    1  0.1519630E-007  0.1507065E+04  0.7818608E-02  0.8879769E-01
         -2   -1    0    0    0  501 -0.00000000000E+00  0.00000000000E+00  0.13211930288E+04  0.13211930288E+04  0.00000000000E+00 0.  1.
          2   -1    0    0  501    0  0.00000000000E+00 -0.00000000000E+00 -0.42977133765E+03  0.42977133765E+03  0.00000000000E+00 0. -1.
         23    2    1    2    0    0  0.45628457764E+03  0.27260999596E+02  0.15580214708E+03  0.49171513090E+03  0.92577983493E+02 0.  0.
        254    2    1    2    0    0 -0.45628457764E+03 -0.27260999596E+02  0.73561954403E+03  0.12592492355E+04  0.91413004855E+03 0.  0.
        -24    2    4    4    0    0  0.23522127779E+03  0.15854629682E+03  0.14976759004E+03  0.33063077330E+03  0.80127395246E+02 0.  0.
         24    2    4    4    0    0 -0.69150585543E+03 -0.18580729641E+03  0.58585195399E+03  0.92861846220E+03  0.80031474164E+02 0.  0.
         13    1    3    3    0    0  0.51453773715E+02 -0.15114735024E+01  0.51193243985E+02  0.72598371960E+02  0.00000000000E+00 0. -1.
        -13    1    3    3    0    0  0.40483080393E+03  0.28772473098E+02  0.10460890309E+03  0.41911675894E+03  0.00000000000E+00 0.  1.
          2    1    6    6  502    0 -0.69247804702E+03 -0.18152513646E+03  0.58393332075E+03  0.92382646848E+03  0.00000000000E+00 0. -1.
          3    1    5    5  503    0  0.16257961977E+03  0.15008060901E+03  0.11963532081E+03  0.25153316273E+03  0.00000000000E+00 0. -1.
         -4    1    5    5    0  503  0.72641658012E+02  0.84656878021E+01  0.30132269225E+02  0.79097610567E+02  0.00000000000E+00 0.  1.
         -1    1    6    6    0  502  0.97219159549E+00 -0.42821599509E+01  0.19186332381E+01  0.47919937235E+01  0.00000000000E+00 0.  1.
<mgrwt>
<rscale>  0 0.15070646E+04</rscale>
<asrwt>0</asrwt>
<pdfrwt beam="1">  1        2 0.66118668E-01 0.15070646E+04</pdfrwt>
<pdfrwt beam="2">  1       -2 0.20326046E+00 0.15070646E+04</pdfrwt>
<totfact> 0.89540381E+00</totfact>
</mgrwt>
</event>
<event>
12    1  0.1519630E-007  0.4091244E+04  0.7818608E-02  0.7986389E-01
         -1   -1    0    0    0  501 -0.00000000000E+00  0.00000000000E+00  0.25831492157E+04  0.25831492157E+04  0.00000000000E+00 0.  1.
          1   -1    0    0  501    0  0.00000000000E+00 -0.00000000000E+00 -0.16199488134E+04  0.16199488134E+04  0.00000000000E+00 0. -1.
         23    2    1    2    0    0  0.15582096854E+04 -0.11688140501E+04  0.39319192739E+03  0.19891801491E+04  0.89967030561E+02 0.  0.
        254    2    1    2    0    0 -0.15582096854E+04  0.11688140501E+04  0.57000847489E+03  0.22139178800E+04  0.88452191068E+03 0.  0.
        -24    2    4    4    0    0 -0.46959238787E+03 -0.34805263337E+02  0.30394592749E+03  0.56743440546E+03  0.88714489011E+02 0.  0.
         24    2    4    4    0    0 -0.10886172975E+04  0.12036193135E+04  0.26606254740E+03  0.16464834745E+04  0.79570601178E+02 0.  0.
         11    1    3    3    0    0  0.10571593220E+04 -0.82267068345E+03  0.30516701520E+03  0.13738630909E+04  0.00000000000E+00 0.  1.
        -11    1    3    3    0    0  0.50105036342E+03 -0.34614336667E+03  0.88024912194E+02  0.61531705822E+03  0.00000000000E+00 0. -1.
          2    1    6    6  502    0 -0.31291235313E+03  0.31988215571E+03  0.10481859402E+03  0.45959294157E+03  0.00000000000E+00 0. -1.
          1    1    5    5  503    0 -0.53194942124E+02 -0.33248487623E+02  0.42067614881E+02  0.75530444316E+02  0.00000000000E+00 0. -1.
         -2    1    5    5    0  503 -0.41639744574E+03 -0.15567757147E+01  0.26187831261E+03  0.49190396114E+03  0.00000000000E+00 0.  1.
         -1    1    6    6    0  502 -0.77570494438E+03  0.88373715775E+03  0.16124395338E+03  0.11868905330E+04  0.00000000000E+00 0.  1.
<mgrwt>
<rscale>  0 0.40912441E+04</rscale>
<asrwt>0</asrwt>
<pdfrwt beam="1">  1        1 0.24922290E+00 0.40912441E+04</pdfrwt>
<pdfrwt beam="2">  1       -1 0.39740757E+00 0.40912441E+04</pdfrwt>
<totfact> 0.31279726E-02</totfact>
</mgrwt>
</event>
<event>
12    1  0.1519630E-007  0.1530842E+04  0.7818608E-02  0.8864199E-01
          2   -1    0    0  501    0  0.00000000000E+00  0.00000000000E+00  0.39083543622E+03  0.39083543622E+03  0.00000000000E+00 0.  1.
         -2   -1    0    0    0  501 -0.00000000000E+00 -0.00000000000E+00 -0.14990172257E+04  0.14990172257E+04  0.00000000000E+00 0. -1.
         23    2    1    2    0    0  0.33945027404E+03  0.10478237717E+02 -0.79965999867E+03  0.87338793037E+03  0.89521402132E+02 0.  0.
        254    2    1    2    0    0 -0.33945027404E+03 -0.10478237717E+02 -0.30852179081E+03  0.10164647315E+04  0.90701630253E+03 0.  0.
        -24    2    4    4    0    0 -0.48365392541E+03 -0.33057401618E+03 -0.28238496410E+03  0.65537685796E+03  0.81100297507E+02 0.  0.
         24    2    4    4    0    0  0.14420365137E+03  0.32009577846E+03 -0.26136826706E+02  0.36108787358E+03  0.80282739611E+02 0.  0.
         11    1    3    3    0    0  0.52995399936E+02 -0.26218096070E+02 -0.18593822666E+03  0.19511259598E+03  0.00000000000E+00 0.  1.
        -11    1    3    3    0    0  0.28645487410E+03  0.36696333787E+02 -0.61372177200E+03  0.67827533439E+03  0.00000000000E+00 0. -1.
          2    1    6    6  502    0  0.24096662802E+02  0.14917541702E+03 -0.61656763812E+01  0.15123481665E+03  0.00000000000E+00 0. -1.
          3    1    5    5  503    0 -0.25817200255E+02 -0.44804435276E+02 -0.25601391057E+02  0.57700922640E+02  0.00000000000E+00 0. -1.
         -4    1    5    5    0  503 -0.45783672516E+03 -0.28576958090E+03 -0.25678357304E+03  0.59767593532E+03  0.00000000000E+00 0.  1.
         -1    1    6    6    0  502  0.12010698857E+03  0.17092036144E+03 -0.19971150324E+02  0.20985305693E+03  0.00000000000E+00 0.  1.
<mgrwt>
<rscale>  0 0.15308417E+04</rscale>
<asrwt>0</asrwt>
<pdfrwt beam="1">  1        2 0.60128529E-01 0.15308417E+04</pdfrwt>
<pdfrwt beam="2">  1       -2 0.23061803E+00 0.15308417E+04</pdfrwt>
<totfact> 0.66658442E+00</totfact>
</mgrwt>
</event>
<event>
12    1  0.1519630E-007  0.1706670E+04  0.7818608E-02  0.8757569E-01
         -2   -1    0    0    0  501 -0.00000000000E+00  0.00000000000E+00  0.57340096061E+03  0.57340096061E+03  0.00000000000E+00 0.  1.
          2   -1    0    0  501    0  0.00000000000E+00 -0.00000000000E+00 -0.12699331900E+04  0.12699331900E+04  0.00000000000E+00 0. -1.
         23    2    1    2    0    0  0.45765740026E+03 -0.36667811041E+03 -0.41515684047E+03  0.72593695704E+03  0.10356703502E+03 0.  0.
        254    2    1    2    0    0 -0.45765740026E+03  0.36667811041E+03 -0.28137538893E+03  0.11173971936E+04  0.90857099120E+03 0.  0.
        -24    2    4    4    0    0  0.17042943776E+03  0.32571037458E+03 -0.30309976982E+03  0.48260157778E+03  0.76820381740E+02 0.  0.
         24    2    4    4    0    0 -0.62808683802E+03  0.40967735828E+02  0.21724380889E+02  0.63479561579E+03  0.79511594309E+02 0.  0.
         11    1    3    3    0    0  0.32916265117E+03 -0.30670916752E+03 -0.27926667263E+03  0.52953605997E+03  0.00000000000E+00 0.  1.
        -11    1    3    3    0    0  0.12849474909E+03 -0.59968942888E+02 -0.13589016784E+03  0.19640089707E+03  0.00000000000E+00 0. -1.
          4    1    6    6  502    0 -0.46727898511E+03  0.33159801273E+02  0.50777063506E+02  0.47119797594E+03  0.00000000000E+00 0. -1.
          3    1    5    5  503    0  0.40719825639E+02  0.13762705741E+03 -0.14982808270E+03  0.20747955441E+03  0.00000000000E+00 0. -1.
         -4    1    5    5    0  503  0.12970961212E+03  0.18808331717E+03 -0.15327168711E+03  0.27512202337E+03  0.00000000000E+00 0.  1.
         -3    1    6    6    0  502 -0.16080785291E+03  0.78079345550E+01 -0.29052682617E+02  0.16359763986E+03  0.00000000000E+00 0.  1.
<mgrwt>
<rscale>  0 0.17066703E+04</rscale>
<asrwt>0</asrwt>
<pdfrwt beam="1">  1        2 0.19537433E+00 0.17066703E+04</pdfrwt>
<pdfrwt beam="2">  1       -2 0.88215534E-01 0.17066703E+04</pdfrwt>
<totfact> 0.18122742E+01</totfact>
</mgrwt>
</event>
<event>
12    1  0.1519630E-007  0.1401555E+04  0.7818608E-02  0.8952694E-01
         -2   -1    0    0    0  501 -0.00000000000E+00  0.00000000000E+00  0.11665718352E+03  0.11665718352E+03  0.00000000000E+00 0. -1.
          2   -1    0    0  501    0  0.00000000000E+00 -0.00000000000E+00 -0.42096791082E+04  0.42096791082E+04  0.00000000000E+00 0.  1.
         23    2    1    2    0    0  0.22125139801E+03 -0.60377692235E+02 -0.18581981516E+03  0.30999659668E+03  0.94716626897E+02 0.  0.
        254    2    1    2    0    0 -0.22125139801E+03  0.60377692235E+02 -0.39072021095E+04  0.40163396950E+04  0.90119841011E+03 0.  0.
        -24    2    4    4    0    0  0.32320694447E+03  0.10272614842E+03 -0.20300419119E+04  0.20597336353E+04  0.80106765365E+02 0.  0.
         24    2    4    4    0    0 -0.54445834248E+03 -0.42348456183E+02 -0.18771601976E+04  0.19566060597E+04  0.79678020387E+02 0.  0.
         11    1    3    3    0    0  0.16206174837E+03 -0.10832889536E+02 -0.85914615276E+02  0.18374624594E+03  0.00000000000E+00 0.  1.
        -11    1    3    3    0    0  0.59189649638E+02 -0.49544802699E+02 -0.99905199884E+02  0.12625035074E+03  0.00000000000E+00 0. -1.
          2    1    6    6  502    0 -0.37538206804E+03  0.32453648158E+01 -0.12140862262E+04  0.12707980147E+04  0.00000000000E+00 0. -1.
          1    1    5    5  503    0  0.74919361325E+02  0.78101654090E+01 -0.64786089131E+03  0.65222514815E+03  0.00000000000E+00 0. -1.
         -2    1    5    5    0  503  0.24828758315E+03  0.94915983009E+02 -0.13821810206E+04  0.14075084871E+04  0.00000000000E+00 0.  1.
         -1    1    6    6    0  502 -0.16907627444E+03 -0.45593820999E+02 -0.66307397139E+03  0.68580804503E+03  0.00000000000E+00 0.  1.
<mgrwt>
<rscale>  0 0.14015553E+04</rscale>
<asrwt>0</asrwt>
<pdfrwt beam="1">  1        2 0.64764286E+00 0.14015553E+04</pdfrwt>
<pdfrwt beam="2">  1       -2 0.17947261E-01 0.14015553E+04</pdfrwt>
<totfact> 0.59270049E+00</totfact>
</mgrwt>
</event>
<event>
12    1  0.1519630E-007  0.1216718E+04  0.7818608E-02  0.9098348E-01
         -2   -1    0    0    0  501 -0.00000000000E+00  0.00000000000E+00  0.29871845053E+03  0.29871845053E+03  0.00000000000E+00 0.  1.
          2   -1    0    0  501    0  0.00000000000E+00 -0.00000000000E+00 -0.12389609485E+04  0.12389609485E+04  0.00000000000E+00 0. -1.
         23    2    1    2    0    0 -0.14582288351E+03 -0.21310456384E+03 -0.25003510461E+03  0.37040290216E+03  0.89458861517E+02 0.  0.
        254    2    1    2    0    0  0.14582288351E+03  0.21310456384E+03 -0.69020739337E+03  0.11672764969E+04  0.90524599190E+03 0.  0.
        -24    2    4    4    0    0  0.73023693844E+02  0.54148036548E+03 -0.24627106321E+03  0.60454741635E+03  0.79339120112E+02 0.  0.
         24    2    4    4    0    0  0.72799189663E+02 -0.32837580164E+03 -0.44393633016E+03  0.56272908054E+03  0.80337810088E+02 0.  0.
         11    1    3    3    0    0 -0.10315372916E+03 -0.18920901429E+03 -0.16165286843E+03  0.26939263688E+03  0.00000000000E+00 0.  1.
        -11    1    3    3    0    0 -0.42669154343E+02 -0.23895549550E+02 -0.88382236176E+02  0.10101026528E+03  0.00000000000E+00 0. -1.
          4    1    6    6  502    0 -0.31956362628E+01 -0.11141955451E+03 -0.10460334374E+03  0.15286068409E+03  0.00000000000E+00 0. -1.
          1    1    5    5  503    0  0.47159533203E+02  0.12526139765E+03 -0.42700251070E+02  0.14049110561E+03  0.00000000000E+00 0. -1.
         -2    1    5    5    0  503  0.25864160641E+02  0.41621896783E+03 -0.20357081214E+03  0.46405631074E+03  0.00000000000E+00 0.  1.
         -3    1    6    6    0  502  0.75994825925E+02 -0.21695624713E+03 -0.33933298642E+03  0.40986839645E+03  0.00000000000E+00 0.  1.
<mgrwt>
<rscale>  0 0.12167177E+04</rscale>
<asrwt>0</asrwt>
<pdfrwt beam="1">  1        2 0.19060937E+00 0.12167177E+04</pdfrwt>
<pdfrwt beam="2">  1       -2 0.45956685E-01 0.12167177E+04</pdfrwt>
<totfact> 0.79424638E+01</totfact>
</mgrwt>
</event>
<event>
12    1  0.1519630E-007  0.1558600E+04  0.7818608E-02  0.8846393E-01
          2   -1    0    0  501    0  0.00000000000E+00  0.00000000000E+00  0.10602262271E+04  0.10602262271E+04  0.00000000000E+00 0. -1.
         -2   -1    0    0    0  501 -0.00000000000E+00 -0.00000000000E+00 -0.57281030345E+03  0.57281030345E+03  0.00000000000E+00 0.  1.
         23    2    1    2    0    0  0.39965647513E+03  0.12497042022E+03  0.47617099729E+03  0.64123191647E+03  0.95376349297E+02 0.  0.
        254    2    1    2    0    0 -0.39965647513E+03 -0.12497042022E+03  0.11244926358E+02  0.99180461406E+03  0.89900335932E+03 0.  0.
        -24    2    4    4    0    0 -0.31551366493E+02  0.14578740028E+03  0.36913672085E+03  0.40584923114E+03  0.78754205800E+02 0.  0.
         24    2    4    4    0    0 -0.36810510864E+03 -0.27075782050E+03 -0.35789179449E+03  0.58595538292E+03  0.80287021619E+02 0.  0.
         11    1    3    3    0    0  0.16287991461E+03  0.44860210773E+02  0.12488944801E+03  0.21009445333E+03  0.00000000000E+00 0.  1.
        -11    1    3    3    0    0  0.23677656052E+03  0.80110209443E+02  0.35128154927E+03  0.43113746315E+03  0.00000000000E+00 0. -1.
          2    1    6    6  502    0 -0.28211820149E+03 -0.23938625679E+03 -0.30974724352E+03  0.48253478053E+03  0.00000000000E+00 0. -1.
          3    1    5    5  503    0 -0.45806278112E+02  0.79074027689E+02  0.14351484415E+03  0.17013943535E+03  0.00000000000E+00 0. -1.
         -4    1    5    5    0  503  0.14254911619E+02  0.66713372595E+02  0.22562187670E+03  0.23570979579E+03  0.00000000000E+00 0.  1.
         -1    1    6    6    0  502 -0.85986907149E+02 -0.31371563712E+02 -0.48144550969E+02  0.10342060239E+03  0.00000000000E+00 0.  1.
<mgrwt>
<rscale>  0 0.15586000E+04</rscale>
<asrwt>0</asrwt>
<pdfrwt beam="1">  1        2 0.16311173E+00 0.15586000E+04</pdfrwt>
<pdfrwt beam="2">  1       -2 0.88124662E-01 0.15586000E+04</pdfrwt>
<totfact> 0.24618155E+01</totfact>
</mgrwt>
</event>
<event>
12    1  0.1519630E-007  0.2414399E+04  0.7818608E-02  0.8434133E-01
         -1   -1    0    0    0  501 -0.00000000000E+00  0.00000000000E+00  0.96998549924E+03  0.96998549924E+03  0.00000000000E+00 0.  1.
          1   -1    0    0  501    0  0.00000000000E+00 -0.00000000000E+00 -0.15024246350E+04  0.15024246350E+04  0.00000000000E+00 0. -1.
         23    2    1    2    0    0  0.16601402184E+02  0.68947278234E+03  0.56447318918E+03  0.89612191461E+03  0.93574464439E+02 0.  0.
        254    2    1    2    0    0 -0.16601402184E+02 -0.68947278234E+03 -0.10969123250E+04  0.15762882197E+04  0.89767453937E+03 0.  0.
        -24    2    4    4    0    0 -0.28316720365E+03 -0.27822162840E+03 -0.98942300128E+03  0.10690421623E+04  0.79387213578E+02 0.  0.
         24    2    4    4    0    0  0.26656580147E+03 -0.41125115394E+03 -0.10748932370E+03  0.50724605732E+03  0.74563864078E+02 0.  0.
         11    1    3    3    0    0  0.52954347653E+02  0.30219166935E+03  0.25989668107E+03  0.40208239553E+03  0.00000000000E+00 0.  1.
        -11    1    3    3    0    0 -0.36352945469E+02  0.38728111299E+03  0.30457650811E+03  0.49403951908E+03  0.00000000000E+00 0. -1.
          4    1    6    6  502    0 -0.44797704073E+01 -0.14645546283E+02 -0.43618141356E+01  0.15924377268E+02  0.00000000000E+00 0. -1.
          3    1    5    5  503    0 -0.25932205526E+02 -0.42758595892E+01 -0.10202387047E+03  0.10535479299E+03  0.00000000000E+00 0. -1.
         -4    1    5    5    0  503 -0.25723499813E+03 -0.27394576881E+03 -0.88739913081E+03  0.96368736936E+03  0.00000000000E+00 0.  1.
         -3    1    6    6    0  502  0.27104557188E+03 -0.39660560766E+03 -0.10312750956E+03  0.49132168005E+03  0.00000000000E+00 0.  1.
<mgrwt>
<rscale>  0 0.24143986E+04</rscale>
<asrwt>0</asrwt>
<pdfrwt beam="1">  1        1 0.23114225E+00 0.24143986E+04</pdfrwt>
<pdfrwt beam="2">  1       -1 0.14922854E+00 0.24143986E+04</pdfrwt>
<totfact> 0.20634275E+00</totfact>
</mgrwt>
</event>
<event>
12    1  0.1519630E-007  0.1652761E+04  0.7818608E-02  0.8788775E-01
          2   -1    0    0  501    0  0.00000000000E+00  0.00000000000E+00  0.76710779532E+03  0.76710779532E+03  0.00000000000E+00 0. -1.
         -2   -1    0    0    0  501 -0.00000000000E+00 -0.00000000000E+00 -0.89023287222E+03  0.89023287222E+03  0.00000000000E+00 0.  1.
         23    2    1    2    0    0  0.11272707243E+03 -0.23974611018E+03 -0.55259118764E+03  0.61889656677E+03  0.86546805216E+02 0.  0.
        254    2    1    2    0    0 -0.11272707243E+03  0.23974611018E+03  0.42946611074E+03  0.10384441008E+04  0.90760091446E+03 0.  0.
        -24    2    4    4    0    0  0.33711002373E+03  0.11194574402E+03 -0.45262118026E+02  0.36687259805E+03  0.79823719347E+02 0.  0.
         24    2    4    4    0    0 -0.44983709616E+03  0.12780036617E+03  0.47472822877E+03  0.67157150272E+03  0.83396914841E+02 0.  0.
         13    1    3    3    0    0  0.11940335756E+03 -0.23469069277E+03 -0.55054490393E+03  0.61027581823E+03  0.00000000000E+00 0.  1.
        -13    1    3    3    0    0 -0.66762851288E+01 -0.50554174093E+01 -0.20462837052E+01  0.86207485352E+01  0.00000000000E+00 0. -1.
          4    1    6    6  502    0 -0.25391501555E+03  0.11418921210E+03  0.28823566066E+03  0.40073907640E+03  0.00000000000E+00 0. -1.
          1    1    5    5  503    0  0.24413855858E+03  0.42379679774E+02 -0.35935192080E+02  0.25038173071E+03  0.00000000000E+00 0. -1.
         -2    1    5    5    0  503  0.92971465141E+02  0.69566064241E+02 -0.93269259458E+01  0.11649086733E+03  0.00000000000E+00 0.  1.
         -3    1    6    6    0  502 -0.19592208061E+03  0.13611154069E+02  0.18649256811E+03  0.27083242632E+03  0.00000000000E+00 0.  1.
<mgrwt>
<rscale>  0 0.16527608E+04</rscale>
<asrwt>0</asrwt>
<pdfrwt beam="1">  1        2 0.11801658E+00 0.16527608E+04</pdfrwt>
<pdfrwt beam="2">  1       -2 0.13695890E+00 0.16527608E+04</pdfrwt>
<totfact> 0.13217643E+01</totfact>
</mgrwt>
</event>
<event>
12    1  0.1519630E-007  0.2127593E+04  0.7818608E-02  0.8549185E-01
          2   -1    0    0  501    0  0.00000000000E+00  0.00000000000E+00  0.12999174106E+04  0.12999174106E+04  0.00000000000E+00 0. -1.
         -2   -1    0    0    0  501 -0.00000000000E+00 -0.00000000000E+00 -0.87056553504E+03  0.87056553504E+03  0.00000000000E+00 0.  1.
         23    2    1    2    0    0 -0.66194195275E+03 -0.16798976493E+03  0.72557393974E+03  0.10005832651E+04  0.91222905677E+02 0.  0.
        254    2    1    2    0    0  0.66194195275E+03  0.16798976493E+03 -0.29622206416E+03  0.11698996805E+04  0.90251318066E+03 0.  0.
        -24    2    4    4    0    0  0.69366846487E+03  0.25882686312E+02  0.13155637535E+03  0.71068716062E+03  0.76963028562E+02 0.  0.
         24    2    4    4    0    0 -0.31726512120E+02  0.14210707862E+03 -0.42777843951E+03  0.45921251991E+03  0.81735865847E+02 0.  0.
         11    1    3    3    0    0 -0.18314817573E+03 -0.17437169327E+02  0.23825585217E+03  0.30102019905E+03  0.00000000000E+00 0.  1.
        -11    1    3    3    0    0 -0.47879377703E+03 -0.15055259560E+03  0.48731808757E+03  0.69956306609E+03  0.00000000000E+00 0. -1.
          4    1    6    6  502    0 -0.47806828726E+02  0.11463163671E+03 -0.39255456238E+03  0.41173412472E+03  0.00000000000E+00 0. -1.
          1    1    5    5  503    0  0.51856910676E+03  0.11146267216E+02  0.64823789740E+02  0.52272390559E+03  0.00000000000E+00 0. -1.
         -2    1    5    5    0  503  0.17509935811E+03  0.14736419095E+02  0.66732585611E+02  0.18796325502E+03  0.00000000000E+00 0.  1.
         -3    1    6    6    0  502  0.16080316606E+02  0.27475441906E+02 -0.35223877126E+02  0.47478395190E+02  0.00000000000E+00 0.  1.
<mgrwt>
<rscale>  0 0.21275933E+04</rscale>
<asrwt>0</asrwt>
<pdfrwt beam="1">  1        2 0.19998729E+00 0.21275933E+04</pdfrwt>
<pdfrwt beam="2">  1       -2 0.13393316E+00 0.21275933E+04</pdfrwt>
<totfact> 0.61212082E+00</totfact>
</mgrwt>
</event>
<event>
12    1  0.1519630E-007  0.2782227E+04  0.7818608E-02  0.8308807E-01
          2   -1    0    0  501    0  0.00000000000E+00  0.00000000000E+00  0.14995373558E+04  0.14995373558E+04  0.00000000000E+00 0.  1.
         -2   -1    0    0    0  501 -0.00000000000E+00 -0.00000000000E+00 -0.12905292649E+04  0.12905292649E+04  0.00000000000E+00 0. -1.
         23    2    1    2    0    0 -0.83016548197E+03 -0.46652570967E+03  0.89641846366E+03  0.13108380957E+04  0.88935290474E+02 0.  0.
        254    2    1    2    0    0  0.83016548197E+03  0.46652570967E+03 -0.68741037277E+03  0.14792285250E+04  0.89931253924E+03 0.  0.
        -24    2    4    4    0    0 -0.10001639896E+03 -0.85471396490E+02 -0.28181885904E+03  0.32123668336E+03  0.80389661935E+02 0.  0.
         24    2    4    4    0    0  0.93018188093E+03  0.55199710616E+03 -0.40559151373E+03  0.11579918416E+04  0.80631832436E+02 0.  0.
         11    1    3    3    0    0 -0.17596803491E+03 -0.83729334505E+02  0.23111027952E+03  0.30230334445E+03  0.00000000000E+00 0. -1.
        -11    1    3    3    0    0 -0.65419744705E+03 -0.38279637516E+03  0.66530818414E+03  0.10085347512E+04  0.00000000000E+00 0.  1.
          4    1    6    6  502    0  0.18856524365E+03  0.75763811944E+02 -0.80880595266E+02  0.21872054545E+03  0.00000000000E+00 0. -1.
          1    1    5    5  503    0 -0.35625922221E+01  0.72136175382E+01  0.12598150887E+01  0.81434314257E+01  0.00000000000E+00 0. -1.
         -2    1    5    5    0  503 -0.96453806737E+02 -0.92685014028E+02 -0.28307867413E+03  0.31309325193E+03  0.00000000000E+00 0.  1.
         -3    1    6    6    0  502  0.74161663728E+03  0.47623329421E+03 -0.32471091846E+03  0.93927129615E+03  0.00000000000E+00 0.  1.
<mgrwt>
<rscale>  0 0.27822271E+04</rscale>
<asrwt>0</asrwt>
<pdfrwt beam="1">  1        2 0.23069806E+00 0.27822271E+04</pdfrwt>
<pdfrwt beam="2">  1       -2 0.19854296E+00 0.27822271E+04</pdfrwt>
<totfact> 0.15051264E+00</totfact>
</mgrwt>
</event>
<event>
12    1  0.1519630E-007  0.1117147E+04  0.7818608E-02  0.9188638E-01
         -2   -1    0    0    0  501 -0.00000000000E+00  0.00000000000E+00  0.45119558073E+03  0.45119558073E+03  0.00000000000E+00 0.  1.
          2   -1    0    0  501    0  0.00000000000E+00 -0.00000000000E+00 -0.69150637099E+03  0.69150637099E+03  0.00000000000E+00 0. -1.
         23    2    1    2    0    0  0.10274035623E+02 -0.51171117444E+02  0.12966946345E+03  0.16751845345E+03  0.92326721084E+02 0.  0.
        254    2    1    2    0    0 -0.10274035623E+02  0.51171117444E+02 -0.36998025370E+03  0.97518349827E+03  0.90076269245E+03 0.  0.
        -24    2    4    4    0    0  0.25051455393E+03  0.43144299637E+01 -0.57420348481E+03  0.63155214012E+03  0.79826735375E+02 0.  0.
         24    2    4    4    0    0 -0.26078858955E+03  0.46856687481E+02  0.20422323111E+03  0.34363135816E+03  0.78543902247E+02 0.  0.
         11    1    3    3    0    0 -0.87753299712E+01 -0.66659556202E+02  0.48999737240E+02  0.83195415130E+02  0.00000000000E+00 0. -1.
        -11    1    3    3    0    0  0.19049365594E+02  0.15488438757E+02  0.80669726206E+02  0.84323038316E+02  0.00000000000E+00 0.  1.
          4    1    6    6  502    0 -0.14010395248E+02  0.24630377324E+02  0.16684158881E+02  0.32883245273E+02  0.00000000000E+00 0. -1.
          3    1    5    5  503    0  0.55946546935E+02  0.56342713966E+01 -0.22375717546E+03  0.23071418400E+03  0.00000000000E+00 0. -1.
         -4    1    5    5    0  503  0.19456800700E+03 -0.13198414330E+01 -0.35044630935E+03  0.40083795611E+03  0.00000000000E+00 0.  1.
         -3    1    6    6    0  502 -0.24677819431E+03  0.22226310157E+02  0.18753907223E+03  0.31074811288E+03  0.00000000000E+00 0.  1.
<mgrwt>
<rscale>  0 0.11171475E+04</rscale>
<asrwt>0</asrwt>
<pdfrwt beam="1">  1        2 0.10638559E+00 0.11171475E+04</pdfrwt>
<pdfrwt beam="2">  1       -2 0.69414705E-01 0.11171475E+04</pdfrwt>
<totfact> 0.78187394E+01</totfact>
</mgrwt>
</event>
<event>
12    1  0.1519630E-007  0.1531804E+04  0.7818608E-02  0.8863575E-01
         -2   -1    0    0    0  501 -0.00000000000E+00  0.00000000000E+00  0.25876681538E+03  0.25876681538E+03  0.00000000000E+00 0.  1.
          2   -1    0    0  501    0  0.00000000000E+00 -0.00000000000E+00 -0.22669276759E+04  0.22669276759E+04  0.00000000000E+00 0. -1.
         23    2    1    2    0    0  0.47039942695E+03  0.10156107546E+03 -0.50451582109E+03  0.70401799311E+03  0.97544082140E+02 0.  0.
        254    2    1    2    0    0 -0.47039942695E+03 -0.10156107546E+03 -0.15036450394E+04  0.18216764982E+04  0.90882703881E+03 0.  0.
        -24    2    4    4    0    0 -0.16044026643E+03  0.31199899617E+03 -0.18882485865E+03  0.40654989013E+03  0.80892108503E+02 0.  0.
         24    2    4    4    0    0 -0.30995916053E+03 -0.41356007163E+03 -0.13148201808E+04  0.14151266080E+04  0.82003627852E+02 0.  0.
         11    1    3    3    0    0  0.16412713869E+03  0.56105148085E+02 -0.24402708754E+03  0.29939058895E+03  0.00000000000E+00 0. -1.
        -11    1    3    3    0    0  0.30627228826E+03  0.45455927376E+02 -0.26048873355E+03  0.40462740416E+03  0.00000000000E+00 0.  1.
          2    1    6    6  502    0 -0.23198616920E+03 -0.30892706711E+03 -0.87813543017E+03  0.95936194901E+03  0.00000000000E+00 0. -1.
          1    1    5    5  503    0 -0.13103249475E+03  0.21057056563E+03 -0.16619487006E+03  0.29854683489E+03  0.00000000000E+00 0. -1.
         -2    1    5    5    0  503 -0.29407771675E+02  0.10142843054E+03 -0.22629988590E+02  0.10800305524E+03  0.00000000000E+00 0.  1.
         -1    1    6    6    0  502 -0.77972991331E+02 -0.10463300451E+03 -0.43668475061E+03  0.45576465903E+03  0.00000000000E+00 0.  1.
<mgrwt>
<rscale>  0 0.15318037E+04</rscale>
<asrwt>0</asrwt>
<pdfrwt beam="1">  1        2 0.34875810E+00 0.15318037E+04</pdfrwt>
<pdfrwt beam="2">  1       -2 0.39810280E-01 0.15318037E+04</pdfrwt>
<totfact> 0.27271700E+01</totfact>
</mgrwt>
</event>
<event>
12    1  0.1519630E-007  0.1538484E+04  0.7818608E-02  0.8859257E-01
         -2   -1    0    0    0  501 -0.00000000000E+00  0.00000000000E+00  0.11365482937E+04  0.11365482937E+04  0.00000000000E+00 0.  1.
          2   -1    0    0  501    0  0.00000000000E+00 -0.00000000000E+00 -0.52064058687E+03  0.52064058687E+03  0.00000000000E+00 0. -1.
         23    2    1    2    0    0 -0.71843375346E+02  0.45339471366E+03  0.51569748382E+01  0.47300694860E+03  0.11393305963E+03 0.  0.
        254    2    1    2    0    0  0.71843375346E+02 -0.45339471366E+03  0.61075073203E+03  0.11841819320E+04  0.90473319519E+03 0.  0.
        -24    2    4    4    0    0  0.18695450140E+03  0.23534165573E+03  0.20711717085E+03  0.37385502264E+03  0.80823109214E+02 0.  0.
         24    2    4    4    0    0 -0.11511112605E+03 -0.68873636939E+03  0.40363356118E+03  0.81032690937E+03  0.78110757760E+02 0.  0.
         13    1    3    3    0    0 -0.10423489562E+01  0.25968358648E+03 -0.37552186921E+02  0.26238677238E+03  0.00000000000E+00 0. -1.
        -13    1    3    3    0    0 -0.70801026390E+02  0.19371112718E+03  0.42709161760E+02  0.21062017622E+03  0.00000000000E+00 0.  1.
          2    1    6    6  502    0 -0.94792397512E+00 -0.22060286301E+03  0.11812413945E+03  0.25023955333E+03  0.00000000000E+00 0. -1.
          3    1    5    5  503    0  0.16167352373E+03  0.14947352557E+03  0.16369851220E+03  0.27436812135E+03  0.00000000000E+00 0. -1.
         -4    1    5    5    0  503  0.25280977667E+02  0.85868130159E+02  0.43418658654E+02  0.99486901289E+02  0.00000000000E+00 0.  1.
         -1    1    6    6    0  502 -0.11416320208E+03 -0.46813350637E+03  0.28550942173E+03  0.56008735604E+03  0.00000000000E+00 0.  1.
<mgrwt>
<rscale>  0 0.15384839E+04</rscale>
<asrwt>0</asrwt>
<pdfrwt beam="1">  1        2 0.80098552E-01 0.15384839E+04</pdfrwt>
<pdfrwt beam="2">  1       -2 0.17485358E+00 0.15384839E+04</pdfrwt>
<totfact> 0.11132498E+01</totfact>
</mgrwt>
</event>
<event>
12    1  0.1519630E-007  0.1246263E+04  0.7818608E-02  0.9073299E-01
          1   -1    0    0  501    0  0.00000000000E+00  0.00000000000E+00  0.19637198674E+04  0.19637198674E+04  0.00000000000E+00 0. -1.
         -1   -1    0    0    0  501 -0.00000000000E+00 -0.00000000000E+00 -0.19773337145E+03  0.19773337145E+03  0.00000000000E+00 0.  1.
         23    2    1    2    0    0 -0.85270389458E+02 -0.26061658698E+03  0.28012832285E+03  0.40162905257E+03  0.87418384076E+02 0.  0.
        254    2    1    2    0    0  0.85270389458E+02  0.26061658698E+03  0.14858581731E+04  0.17598241863E+04  0.90222758289E+03 0.  0.
        -24    2    4    4    0    0  0.32669651272E+02  0.58014409459E+03  0.75789089778E+03  0.95898974616E+03  0.87339817406E+02 0.  0.
         24    2    4    4    0    0  0.52600738186E+02 -0.31952750761E+03  0.72796727534E+03  0.80083444013E+03  0.80837990855E+02 0.  0.
         11    1    3    3    0    0 -0.29978695682E+02 -0.11376749736E+02  0.24547897506E+02  0.40382569276E+02  0.00000000000E+00 0. -1.
        -11    1    3    3    0    0 -0.55291693776E+02 -0.24923983725E+03  0.25558042534E+03  0.36124648329E+03  0.00000000000E+00 0.  1.
          2    1    6    6  502    0 -0.15831113541E+02 -0.10084512313E+03  0.27212347039E+03  0.29063989085E+03  0.00000000000E+00 0. -1.
          1    1    5    5  503    0  0.18439731765E+02  0.68305557326E+02  0.56280072607E+02  0.90405306492E+02  0.00000000000E+00 0. -1.
         -2    1    5    5    0  503  0.14229919507E+02  0.51183853726E+03  0.70161082518E+03  0.86858443967E+03  0.00000000000E+00 0.  1.
         -1    1    6    6    0  502  0.68431851726E+02 -0.21868238447E+03  0.45584380494E+03  0.51019454928E+03  0.00000000000E+00 0.  1.
<mgrwt>
<rscale>  0 0.12462631E+04</rscale>
<asrwt>0</asrwt>
<pdfrwt beam="1">  1        1 0.30211074E+00 0.12462631E+04</pdfrwt>
<pdfrwt beam="2">  1       -1 0.30420520E-01 0.12462631E+04</pdfrwt>
<totfact> 0.31019054E+01</totfact>
</mgrwt>
</event>
<event>
12    1  0.1519630E-007  0.1845173E+04  0.7818608E-02  0.8682639E-01
          2   -1    0    0  501    0  0.00000000000E+00  0.00000000000E+00  0.14919710061E+04  0.14919710061E+04  0.00000000000E+00 0. -1.
         -2   -1    0    0    0  501 -0.00000000000E+00 -0.00000000000E+00 -0.57049744731E+03  0.57049744731E+03  0.00000000000E+00 0.  1.
         23    2    1    2    0    0 -0.48724099453E+02 -0.28064523351E+03  0.10204759116E+04  0.10634459224E+04  0.91708007534E+02 0.  0.
        254    2    1    2    0    0  0.48724099453E+02  0.28064523351E+03 -0.99002352859E+02  0.99902253101E+03  0.95242257777E+03 0.  0.
        -24    2    4    4    0    0  0.15475844015E+03  0.61070062525E+03 -0.10013642184E+03  0.64292371965E+03  0.80113530862E+02 0.  0.
         24    2    4    4    0    0 -0.10603434070E+03 -0.33005539175E+03  0.11340689809E+01  0.35609881136E+03  0.81395542336E+02 0.  0.
         11    1    3    3    0    0  0.27380649372E+02 -0.83256989761E+02  0.30760493006E+03  0.31984718117E+03  0.00000000000E+00 0. -1.
        -11    1    3    3    0    0 -0.76104748825E+02 -0.19738824375E+03  0.71287098159E+03  0.74359874123E+03  0.00000000000E+00 0.  1.
          4    1    6    6  502    0 -0.10327682484E+03 -0.32573728316E+03  0.14253255023E+02  0.34201467142E+03  0.00000000000E+00 0. -1.
          1    1    5    5  503    0  0.97894416068E+02  0.23138480224E+03 -0.30276512188E+02  0.25305910494E+03  0.00000000000E+00 0. -1.
         -2    1    5    5    0  503  0.56864024086E+02  0.37931582302E+03 -0.69859909652E+02  0.38986461471E+03  0.00000000000E+00 0.  1.
         -3    1    6    6    0  502 -0.27575158590E+01 -0.43181085906E+01 -0.13119186042E+02  0.14084139943E+02  0.00000000000E+00 0.  1.
<mgrwt>
<rscale>  0 0.18451728E+04</rscale>
<asrwt>0</asrwt>
<pdfrwt beam="1">  1        2 0.22953400E+00 0.18451728E+04</pdfrwt>
<pdfrwt beam="2">  1       -2 0.87768839E-01 0.18451728E+04</pdfrwt>
<totfact> 0.13511056E+01</totfact>
</mgrwt>
</event>
<event>
12    1  0.1519630E-007  0.1941063E+04  0.7818608E-02  0.8634682E-01
         -2   -1    0    0    0  501 -0.00000000000E+00  0.00000000000E+00  0.73916998665E+03  0.73916998665E+03  0.00000000000E+00 0. -1.
          2   -1    0    0  501    0  0.00000000000E+00 -0.00000000000E+00 -0.12743097794E+04  0.12743097794E+04  0.00000000000E+00 0.  1.
         23    2    1    2    0    0 -0.87315128770E+02  0.10321603611E+03  0.55247003178E+03  0.57587509812E+03  0.90174890032E+02 0.  0.
        254    2    1    2    0    0  0.87315128770E+02 -0.10321603611E+03 -0.10876098245E+04  0.14376046679E+04  0.93034110357E+03 0.  0.
        -24    2    4    4    0    0  0.39074724783E+02  0.37635216066E+03 -0.75112337315E+03  0.84426727018E+03  0.73709693091E+02 0.  0.
         24    2    4    4    0    0  0.48240403986E+02 -0.47956819677E+03 -0.33648645135E+03  0.59333739771E+03  0.80705288870E+02 0.  0.
         11    1    3    3    0    0 -0.46034258619E+02  0.23279729463E+02  0.35684328643E+03  0.36055267277E+03  0.00000000000E+00 0. -1.
        -11    1    3    3    0    0 -0.41280870151E+02  0.79936306648E+02  0.19562674535E+03  0.21532242534E+03  0.00000000000E+00 0.  1.
          2    1    6    6  502    0  0.15312694943E+02 -0.57419563843E+02 -0.74939839899E+02  0.95642378381E+02  0.00000000000E+00 0. -1.
          1    1    5    5  503    0 -0.14977288550E+02  0.22983060796E+02 -0.42572873469E+02  0.50645728460E+02  0.00000000000E+00 0. -1.
         -2    1    5    5    0  503  0.54052013334E+02  0.35336909987E+03 -0.70855049968E+03  0.79362154172E+03  0.00000000000E+00 0.  1.
         -3    1    6    6    0  502  0.32927709043E+02 -0.42214863293E+03 -0.26154661145E+03  0.49769501933E+03  0.00000000000E+00 0.  1.
<mgrwt>
<rscale>  0 0.19410632E+04</rscale>
<asrwt>0</asrwt>
<pdfrwt beam="1">  1        2 0.19604766E+00 0.19410632E+04</pdfrwt>
<pdfrwt beam="2">  1       -2 0.11371846E+00 0.19410632E+04</pdfrwt>
<totfact> 0.96830737E+00</totfact>
</mgrwt>
</event>
<event>
12    1  0.1519630E-007  0.1668065E+04  0.7818608E-02  0.8779790E-01
          2   -1    0    0  501    0  0.00000000000E+00  0.00000000000E+00  0.94532758726E+03  0.94532758726E+03  0.00000000000E+00 0. -1.
         -2   -1    0    0    0  501 -0.00000000000E+00 -0.00000000000E+00 -0.73584078894E+03  0.73584078894E+03  0.00000000000E+00 0.  1.
         23    2    1    2    0    0  0.59012435399E+02 -0.22277239709E+03  0.60560986384E+03  0.65455948198E+03  0.92600215086E+02 0.  0.
        254    2    1    2    0    0 -0.59012435399E+02  0.22277239709E+03 -0.39612306552E+03  0.10266088942E+04  0.91864156787E+03 0.  0.
        -24    2    4    4    0    0 -0.24165471652E+03  0.47417173933E+03 -0.28560302975E+02  0.53888615513E+03  0.79666535569E+02 0.  0.
         24    2    4    4    0    0  0.18264228112E+03 -0.25139934224E+03 -0.36756276255E+03  0.48772273909E+03  0.78811507271E+02 0.  0.
         11    1    3    3    0    0  0.14667732465E+02  0.37048130515E+01  0.65273716666E+02  0.67003926025E+02  0.00000000000E+00 0.  1.
        -11    1    3    3    0    0  0.44344702934E+02 -0.22647721014E+03  0.54033614717E+03  0.58755555595E+03  0.00000000000E+00 0. -1.
          2    1    6    6  502    0  0.18558604469E+03 -0.22994022088E+03 -0.35757975170E+03  0.46387278858E+03  0.00000000000E+00 0. -1.
          3    1    5    5  503    0 -0.11584634653E+03  0.28381907239E+03  0.13601262973E+02  0.30685279241E+03  0.00000000000E+00 0. -1.
         -4    1    5    5    0  503 -0.12580836999E+03  0.19035266694E+03 -0.42161565948E+02  0.23203336272E+03  0.00000000000E+00 0.  1.
         -1    1    6    6    0  502 -0.29437635667E+01 -0.21459121361E+02 -0.99830108498E+01  0.23849950506E+02  0.00000000000E+00 0.  1.
<mgrwt>
<rscale>  0 0.16680655E+04</rscale>
<asrwt>0</asrwt>
<pdfrwt beam="1">  1        2 0.14543501E+00 0.16680655E+04</pdfrwt>
<pdfrwt beam="2">  1       -2 0.11320628E+00 0.16680655E+04</pdfrwt>
<totfact> 0.15983038E+01</totfact>
</mgrwt>
</event>
<event>
12    1  0.1519630E-007  0.1244372E+04  0.7818608E-02  0.9074880E-01
         -2   -1    0    0    0  501 -0.00000000000E+00  0.00000000000E+00  0.27893284212E+03  0.27893284212E+03  0.00000000000E+00 0.  1.
          2   -1    0    0  501    0  0.00000000000E+00 -0.00000000000E+00 -0.13878446601E+04  0.13878446601E+04  0.00000000000E+00 0. -1.
         23    2    1    2    0    0  0.71184872305E+02 -0.21127530581E+03 -0.32284563270E+02  0.24301710244E+03  0.91161824038E+02 0.  0.
        254    2    1    2    0    0 -0.71184872305E+02  0.21127530581E+03 -0.10766272548E+04  0.14237603998E+04  0.90457884649E+03 0.  0.
        -24    2    4    4    0    0  0.18802178683E+03 -0.23983006966E+03 -0.13088366410E+03  0.34140715354E+03  0.80979357382E+02 0.  0.
         24    2    4    4    0    0 -0.25920665913E+03  0.45110537547E+03 -0.94574359065E+03  0.10823532463E+04  0.79833943643E+02 0.  0.
         11    1    3    3    0    0  0.49089338575E+02 -0.17232303037E+03 -0.61623705798E+02  0.18947947402E+03  0.00000000000E+00 0. -1.
        -11    1    3    3    0    0  0.22095533730E+02 -0.38952275445E+02  0.29339142528E+02  0.53537628425E+02  0.00000000000E+00 0.  1.
          2    1    6    6  502    0 -0.15964431667E+03  0.22137996512E+03 -0.43489084631E+03  0.51344468544E+03  0.00000000000E+00 0. -1.
          1    1    5    5  503    0  0.68608242036E+02 -0.49484964514E+02 -0.66680164979E+02  0.10771303073E+03  0.00000000000E+00 0. -1.
         -2    1    5    5    0  503  0.11941354479E+03 -0.19034510515E+03 -0.64203499123E+02  0.23369412280E+03  0.00000000000E+00 0.  1.
         -1    1    6    6    0  502 -0.99562342464E+02  0.22972541036E+03 -0.51085274434E+03  0.56890856084E+03  0.00000000000E+00 0.  1.
<mgrwt>
<rscale>  0 0.12443721E+04</rscale>
<asrwt>0</asrwt>
<pdfrwt beam="1">  1        2 0.21351457E+00 0.12443721E+04</pdfrwt>
<pdfrwt beam="2">  1       -2 0.42912744E-01 0.12443721E+04</pdfrwt>
<totfact> 0.74449268E+01</totfact>
</mgrwt>
</event>
<event>
12    1  0.1519630E-007  0.1337334E+04  0.7818608E-02  0.9000472E-01
         -1   -1    0    0    0  501 -0.00000000000E+00  0.00000000000E+00  0.29451622258E+03  0.29451622258E+03  0.00000000000E+00 0.  1.
          1   -1    0    0  501    0  0.00000000000E+00 -0.00000000000E+00 -0.15181359463E+04  0.15181359463E+04  0.00000000000E+00 0. -1.
         23    2    1    2    0    0  0.85515651734E+02  0.34790482434E+03 -0.36196356006E+03  0.51716470825E+03  0.89950114775E+02 0.  0.
        254    2    1    2    0    0 -0.85515651734E+02 -0.34790482434E+03 -0.86165616364E+03  0.12954874606E+04  0.89860209368E+03 0.  0.
        -24    2    4    4    0    0  0.11078341436E+02 -0.25492477542E+03  0.12578658808E+03  0.29576689793E+03  0.80909958557E+02 0.  0.
         24    2    4    4    0    0 -0.96593993170E+02 -0.92980048920E+02 -0.98744275172E+03  0.99972056268E+03  0.80139419140E+02 0.  0.
         13    1    3    3    0    0  0.68112031967E+02  0.22919790061E+03 -0.29512023780E+03  0.37982480343E+03  0.00000000000E+00 0. -1.
        -13    1    3    3    0    0  0.17403619767E+02  0.11870692373E+03 -0.66843322263E+02  0.13733990481E+03  0.00000000000E+00 0.  1.
          4    1    6    6  502    0 -0.55743275223E+02 -0.34724549617E+02 -0.23759011759E+03  0.24649983987E+03  0.00000000000E+00 0. -1.
          3    1    5    5  503    0  0.14512486043E+01  0.51051268541E+01 -0.22494140932E+01  0.57643999229E+01  0.00000000000E+00 0. -1.
         -4    1    5    5    0  503  0.96270928316E+01 -0.26002990228E+03  0.12803600218E+03  0.29000249800E+03  0.00000000000E+00 0.  1.
         -3    1    6    6    0  502 -0.40850717947E+02 -0.58255499303E+02 -0.74985263413E+03  0.75322072281E+03  0.00000000000E+00 0.  1.
<mgrwt>
<rscale>  0 0.13373342E+04</rscale>
<asrwt>0</asrwt>
<pdfrwt beam="1">  1        1 0.23355938E+00 0.13373342E+04</pdfrwt>
<pdfrwt beam="2">  1       -1 0.45310188E-01 0.13373342E+04</pdfrwt>
<totfact> 0.30101021E+01</totfact>
</mgrwt>
</event>
<event>
12    1  0.1519630E-007  0.1111919E+04  0.7818608E-02  0.9193652E-01
         -1   -1    0    0    0  501 -0.00000000000E+00  0.00000000000E+00  0.48043530437E+03  0.48043530437E+03  0.00000000000E+00 0.  1.
          1   -1    0    0  501    0  0.00000000000E+00 -0.00000000000E+00 -0.64335619885E+03  0.64335619885E+03  0.00000000000E+00 0. -1.
         23    2    1    2    0    0 -0.82945952325E+02 -0.35080701887E+02  0.10930315124E+03  0.16929442651E+03  0.92750942439E+02 0.  0.
        254    2    1    2    0    0  0.82945952325E+02  0.35080701887E+02 -0.27222404573E+03  0.95449707671E+03  0.91041092465E+03 0.  0.
        -24    2    4    4    0    0  0.13193168225E+03  0.85994050930E+02 -0.59189264485E+03  0.61770614199E+03  0.80143803543E+02 0.  0.
         24    2    4    4    0    0 -0.48985729926E+02 -0.50913349044E+02  0.31966859913E+03  0.33679093472E+03  0.79046502723E+02 0.  0.
         11    1    3    3    0    0 -0.85930326083E+02 -0.27583510361E+02  0.38641469878E+02  0.98173490205E+02  0.00000000000E+00 0.  1.
        -11    1    3    3    0    0  0.29843737580E+01 -0.74971915257E+01  0.70661681364E+02  0.71120936304E+02  0.00000000000E+00 0. -1.
          2    1    6    6  502    0 -0.53453032837E+02 -0.70934489109E+01  0.10950316833E+03  0.12205936102E+03  0.00000000000E+00 0. -1.
          3    1    5    5  503    0  0.78106894045E+02  0.56047738157E+02 -0.21104144724E+03  0.23190629207E+03  0.00000000000E+00 0. -1.
         -4    1    5    5    0  503  0.53824788207E+02  0.29946312773E+02 -0.38085119762E+03  0.38579984992E+03  0.00000000000E+00 0.  1.
         -1    1    6    6    0  502  0.44673029108E+01 -0.43819900133E+02  0.21016543079E+03  0.21473157370E+03  0.00000000000E+00 0.  1.
<mgrwt>
<rscale>  0 0.11119191E+04</rscale>
<asrwt>0</asrwt>
<pdfrwt beam="1">  1        1 0.98977876E-01 0.11119191E+04</pdfrwt>
<pdfrwt beam="2">  1       -1 0.73913124E-01 0.11119191E+04</pdfrwt>
<totfact> 0.56783951E+01</totfact>
</mgrwt>
</event>
<event>
12    1  0.1519630E-007  0.1765083E+04  0.7818608E-02  0.8725091E-01
         -2   -1    0    0    0  501 -0.00000000000E+00  0.00000000000E+00  0.94353007782E+03  0.94353007782E+03  0.00000000000E+00 0.  1.
          2   -1    0    0  501    0  0.00000000000E+00 -0.00000000000E+00 -0.82549529940E+03  0.82549529940E+03  0.00000000000E+00 0. -1.
         23    2    1    2    0    0  0.80932021857E+02 -0.64342645371E+03  0.74348762711E+01  0.65483800224E+03  0.90608709813E+02 0.  0.
        254    2    1    2    0    0 -0.80932021857E+02  0.64342645371E+03  0.11059990215E+03  0.11141873750E+04  0.89924055442E+03 0.  0.
        -24    2    4    4    0    0 -0.13757416988E+03 -0.96884220610E+01  0.37177013327E+03  0.40469330503E+03  0.80889563006E+02 0.  0.
         24    2    4    4    0    0  0.56642148027E+02  0.65311487578E+03 -0.26117023112E+03  0.70949406995E+03  0.73515792728E+02 0.  0.
         11    1    3    3    0    0  0.13947335505E+02 -0.30034055829E+02  0.18036417014E+02  0.37707890632E+02  0.00000000000E+00 0.  1.
        -11    1    3    3    0    0  0.66984686351E+02 -0.61339239789E+03 -0.10601540743E+02  0.61713011161E+03  0.00000000000E+00 0. -1.
          2    1    6    6  502    0  0.27418740202E+02  0.34664887608E+03 -0.17778932840E+03  0.39054612518E+03  0.00000000000E+00 0. -1.
          1    1    5    5  503    0 -0.50469957936E+02  0.29312746834E+02  0.19820762168E+03  0.20662215533E+03  0.00000000000E+00 0. -1.
         -2    1    5    5    0  503 -0.87104211948E+02 -0.39001168895E+02  0.17356251159E+03  0.19807114970E+03  0.00000000000E+00 0.  1.
         -1    1    6    6    0  502  0.29223407825E+02  0.30646599970E+03 -0.83380902722E+02  0.31894794477E+03  0.00000000000E+00 0.  1.
<mgrwt>
<rscale>  0 0.17650832E+04</rscale>
<asrwt>0</asrwt>
<pdfrwt beam="1">  1        2 0.12699928E+00 0.17650832E+04</pdfrwt>
<pdfrwt beam="2">  1       -2 0.14515847E+00 0.17650832E+04</pdfrwt>
<totfact> 0.10212468E+01</totfact>
</mgrwt>
</event>
<event>
12    1  0.1519630E-007  0.1346842E+04  0.7818608E-02  0.8993222E-01
          2   -1    0    0  501    0  0.00000000000E+00  0.00000000000E+00  0.23345856167E+04  0.23345856167E+04  0.00000000000E+00 0. -1.
         -2   -1    0    0    0  501 -0.00000000000E+00 -0.00000000000E+00 -0.19425108749E+03  0.19425108749E+03  0.00000000000E+00 0.  1.
         23    2    1    2    0    0  0.86347077476E+02 -0.69627967700E+02 -0.54245998660E+02  0.15561639385E+03  0.94709883278E+02 0.  0.
        254    2    1    2    0    0 -0.86347077476E+02  0.69627967700E+02  0.21945805279E+04  0.23732203104E+04  0.89648595998E+03 0.  0.
        -24    2    4    4    0    0  0.41695889441E+02  0.12215497295E+02 -0.62564069984E+02  0.11032222529E+03  0.79805795332E+02 0.  0.
         24    2    4    4    0    0 -0.12804296692E+03  0.57412470405E+02  0.22571445979E+04  0.22628980851E+04  0.79465807624E+02 0.  0.
         13    1    3    3    0    0  0.72117464590E+02 -0.60511659093E+02  0.47367675479E+01  0.94260418798E+02  0.00000000000E+00 0. -1.
        -13    1    3    3    0    0  0.14229612886E+02 -0.91163086064E+01 -0.58982766208E+02  0.61355975056E+02  0.00000000000E+00 0.  1.
          4    1    6    6  502    0 -0.11287419571E+03  0.56799253758E+02  0.22042284768E+04  0.22078473491E+04  0.00000000000E+00 0. -1.
          1    1    5    5  503    0  0.45753203860E+02  0.32913474293E+02 -0.68214523873E+02  0.88486573675E+02  0.00000000000E+00 0. -1.
         -4    1    5    5    0  503 -0.40573144188E+01 -0.20697976998E+02  0.56504538896E+01  0.21835651611E+02  0.00000000000E+00 0.  1.
         -3    1    6    6    0  502 -0.15168771207E+02  0.61321664690E+00  0.52916121126E+02  0.55050735959E+02  0.00000000000E+00 0.  1.
<mgrwt>
<rscale>  0 0.13468419E+04</rscale>
<asrwt>0</asrwt>
<pdfrwt beam="1">  1        2 0.35916700E+00 0.13468419E+04</pdfrwt>
<pdfrwt beam="2">  1       -2 0.29884784E-01 0.13468419E+04</pdfrwt>
<totfact> 0.43844235E+01</totfact>
</mgrwt>
</event>
<event>
12    1  0.1519630E-007  0.1882653E+04  0.7818608E-02  0.8663540E-01
          2   -1    0    0  501    0  0.00000000000E+00  0.00000000000E+00  0.91433546474E+03  0.91433546474E+03  0.00000000000E+00 0. -1.
         -2   -1    0    0    0  501 -0.00000000000E+00 -0.00000000000E+00 -0.96911435044E+03  0.96911435044E+03  0.00000000000E+00 0.  1.
         23    2    1    2    0    0 -0.52425272435E+03  0.28926890835E+03 -0.42219229517E+03  0.73819204720E+03  0.90353439934E+02 0.  0.
        254    2    1    2    0    0  0.52425272435E+03 -0.28926890835E+03  0.36741340947E+03  0.11452577680E+04  0.90449174751E+03 0.  0.
        -24    2    4    4    0    0  0.26721326620E+03 -0.60591405800E+03  0.19674500682E+03  0.69567231939E+03  0.81954883582E+02 0.  0.
         24    2    4    4    0    0  0.25703945816E+03  0.31664514965E+03  0.17066840265E+03  0.44958544859E+03  0.81645196258E+02 0.  0.
         13    1    3    3    0    0 -0.16378128559E+02  0.30785444282E+02 -0.33736856441E+02  0.48519708957E+02  0.00000000000E+00 0. -1.
        -13    1    3    3    0    0 -0.50787459579E+03  0.25848346407E+03 -0.38845543873E+03  0.68967233824E+03  0.00000000000E+00 0.  1.
          4    1    6    6  502    0  0.17003174167E+03  0.16882384917E+03  0.65560188394E+02  0.24841582785E+03  0.00000000000E+00 0. -1.
          3    1    5    5  503    0  0.23888505562E+03 -0.55524216582E+03  0.20217673316E+03  0.63736595762E+03  0.00000000000E+00 0. -1.
         -4    1    5    5    0  503  0.28328210574E+02 -0.50671892185E+02 -0.54317263428E+01  0.58306361771E+02  0.00000000000E+00 0.  1.
         -3    1    6    6    0  502  0.87007716490E+02  0.14782130047E+03  0.10510821426E+03  0.20116962074E+03  0.00000000000E+00 0.  1.
<mgrwt>
<rscale>  0 0.18826530E+04</rscale>
<asrwt>0</asrwt>
<pdfrwt beam="1">  1        2 0.14066700E+00 0.18826530E+04</pdfrwt>
<pdfrwt beam="2">  1       -2 0.14909451E+00 0.18826530E+04</pdfrwt>
<totfact> 0.81865318E+00</totfact>
</mgrwt>
</event>
<event>
12    1  0.1519630E-007  0.1146251E+04  0.7818608E-02  0.9161249E-01
         -2   -1    0    0    0  501 -0.00000000000E+00  0.00000000000E+00  0.28474213017E+03  0.28474213017E+03  0.00000000000E+00 0. -1.
          2   -1    0    0  501    0  0.00000000000E+00 -0.00000000000E+00 -0.11535799004E+04  0.11535799004E+04  0.00000000000E+00 0.  1.
         23    2    1    2    0    0  0.11849646468E+02  0.17459927704E+03 -0.28115129996E+03  0.34384996442E+03  0.92527957392E+02 0.  0.
        254    2    1    2    0    0 -0.11849646468E+02 -0.17459927704E+03 -0.58768647030E+03  0.10944720662E+04  0.90656957517E+03 0.  0.
        -24    2    4    4    0    0 -0.36330378272E+03  0.10448264323E+03 -0.49729022766E+03  0.62973412523E+03  0.79757361313E+02 0.  0.
         24    2    4    4    0    0  0.35145413625E+03 -0.27908192027E+03 -0.90396242641E+02  0.46473794095E+03  0.80019653617E+02 0.  0.
         11    1    3    3    0    0 -0.35467724914E+02  0.32980062785E+02 -0.75817726254E+02  0.89966503023E+02  0.00000000000E+00 0. -1.
        -11    1    3    3    0    0  0.47317371381E+02  0.14161921426E+03 -0.20533357370E+03  0.25388346140E+03  0.00000000000E+00 0.  1.
          2    1    6    6  502    0  0.28917467000E+03 -0.20351157639E+03 -0.96750278941E+02  0.36660546637E+03  0.00000000000E+00 0. -1.
          3    1    5    5  503    0 -0.35712737510E+03  0.87729580238E+02 -0.46506449304E+03  0.59289242193E+03  0.00000000000E+00 0. -1.
         -4    1    5    5    0  503 -0.61764076215E+01  0.16753062992E+02 -0.32225734618E+02  0.36841703304E+02  0.00000000000E+00 0.  1.
         -1    1    6    6    0  502  0.62279466252E+02 -0.75570343880E+02  0.63540363003E+01  0.98132474584E+02  0.00000000000E+00 0.  1.
<mgrwt>
<rscale>  0 0.11462509E+04</rscale>
<asrwt>0</asrwt>
<pdfrwt beam="1">  1        2 0.17747383E+00 0.11462509E+04</pdfrwt>
<pdfrwt beam="2">  1       -2 0.43806481E-01 0.11462509E+04</pdfrwt>
<totfact> 0.98782334E+01</totfact>
</mgrwt>
</event>
<event>
12    1  0.1519630E-007  0.1462777E+04  0.7818608E-02  0.8909590E-01
          2   -1    0    0  501    0  0.00000000000E+00  0.00000000000E+00  0.18296500727E+04  0.18296500727E+04  0.00000000000E+00 0. -1.
         -2   -1    0    0    0  501 -0.00000000000E+00 -0.00000000000E+00 -0.29236686270E+03  0.29236686270E+03  0.00000000000E+00 0.  1.
         23    2    1    2    0    0  0.18091049371E+03 -0.40303342432E+02 -0.10962650503E+03  0.23528297959E+03  0.94800547132E+02 0.  0.
        254    2    1    2    0    0 -0.18091049371E+03  0.40303342432E+02  0.16469097151E+04  0.18867339558E+04  0.90172082400E+03 0.  0.
        -24    2    4    4    0    0  0.23695696227E+03  0.27500203934E+03  0.10718703460E+04  0.11344755365E+04  0.79711860050E+02 0.  0.
         24    2    4    4    0    0 -0.41786745597E+03 -0.23469869691E+03  0.57503936908E+03  0.75225841938E+03  0.74335485811E+02 0.  0.
         13    1    3    3    0    0  0.11058371654E+03 -0.30655249921E+02 -0.13149479944E+02  0.11550502818E+03  0.00000000000E+00 0. -1.
        -13    1    3    3    0    0  0.70326777166E+02 -0.96480925114E+01 -0.96477025085E+02  0.11977795141E+03  0.00000000000E+00 0.  1.
          4    1    6    6  502    0 -0.15435375915E+03 -0.11177676562E+03  0.18351375027E+03  0.26456837459E+03  0.00000000000E+00 0. -1.
          3    1    5    5  503    0  0.50424138716E+02  0.11503410573E+03  0.34043320820E+03  0.36286389802E+03  0.00000000000E+00 0. -1.
         -4    1    5    5    0  503  0.18653282355E+03  0.15996793361E+03  0.73143713778E+03  0.77161163844E+03  0.00000000000E+00 0.  1.
         -3    1    6    6    0  502 -0.26351369683E+03 -0.12292193129E+03  0.39152561881E+03  0.48769004479E+03  0.00000000000E+00 0.  1.
<mgrwt>
<rscale>  0 0.14627769E+04</rscale>
<asrwt>0</asrwt>
<pdfrwt beam="1">  1        2 0.28148462E+00 0.14627769E+04</pdfrwt>
<pdfrwt beam="2">  1       -2 0.44979518E-01 0.14627769E+04</pdfrwt>
<totfact> 0.37732144E+01</totfact>
</mgrwt>
</event>
<event>
12    1  0.1519630E-007  0.2137293E+04  0.7818608E-02  0.8544991E-01
          2   -1    0    0  501    0  0.00000000000E+00  0.00000000000E+00  0.14811418456E+04  0.14811418456E+04  0.00000000000E+00 0. -1.
         -2   -1    0    0    0  501 -0.00000000000E+00 -0.00000000000E+00 -0.77103046629E+03  0.77103046629E+03  0.00000000000E+00 0.  1.
         23    2    1    2    0    0 -0.58874586671E+03 -0.61303837030E+03  0.50266925676E+03  0.99180027121E+03  0.92485984037E+02 0.  0.
        254    2    1    2    0    0  0.58874586671E+03  0.61303837030E+03  0.20744212258E+03  0.12603720407E+04  0.90723079079E+03 0.  0.
        -24    2    4    4    0    0 -0.96378761234E+02  0.35865913407E+03  0.34413014440E+03  0.51254370241E+03  0.79688459209E+02 0.  0.
         24    2    4    4    0    0  0.68512462794E+03  0.25437923623E+03 -0.13668802183E+03  0.74782833829E+03  0.80368256193E+02 0.  0.
         11    1    3    3    0    0 -0.21328899649E+03 -0.19032955247E+03  0.21332001899E+03  0.35668328398E+03  0.00000000000E+00 0.  1.
        -11    1    3    3    0    0 -0.37545687022E+03 -0.42270881783E+03  0.28934923777E+03  0.63511698723E+03  0.00000000000E+00 0. -1.
          2    1    6    6  502    0  0.60527607227E+03  0.23729363419E+03 -0.14386914710E+03  0.66585713481E+03  0.00000000000E+00 0. -1.
          1    1    5    5  503    0 -0.84795978576E+02  0.35828444051E+03  0.33193877381E+03  0.49572315646E+03  0.00000000000E+00 0. -1.
         -2    1    5    5    0  503 -0.11582782657E+02  0.37469356358E+00  0.12191370591E+02  0.16820545956E+02  0.00000000000E+00 0.  1.
         -1    1    6    6    0  502  0.79848555673E+02  0.17085602038E+02  0.71811252744E+01  0.81971203482E+02  0.00000000000E+00 0.  1.
<mgrwt>
<rscale>  0 0.21372931E+04</rscale>
<asrwt>0</asrwt>
<pdfrwt beam="1">  1        2 0.22786798E+00 0.21372931E+04</pdfrwt>
<pdfrwt beam="2">  1       -2 0.11862007E+00 0.21372931E+04</pdfrwt>
<totfact> 0.65329389E+00</totfact>
</mgrwt>
</event>
<event>
12    1  0.1727255E-007  0.1863167E+04  0.7818608E-02  0.8673411E-01
          2   -1    0    0  501    0  0.00000000000E+00  0.00000000000E+00  0.73678676989E+03  0.73678676989E+03  0.00000000000E+00 0. -1.
         -2   -1    0    0    0  501 -0.00000000000E+00 -0.00000000000E+00 -0.11778820969E+04  0.11778820969E+04  0.00000000000E+00 0.  1.
         23    2    1    2    0    0  0.21591960165E+03  0.51192621836E+03 -0.62901427641E+03  0.84384721723E+03  0.87917226357E+02 0.  0.
        254    2    1    2    0    0 -0.21591960165E+03 -0.51192621836E+03  0.18791894939E+03  0.10708216496E+04  0.89591056821E+03 0.  0.
        -24    2    4    4    0    0  0.28655024376E+03 -0.17635771805E+03  0.29198773964E+03  0.45259315392E+03  0.79816263774E+02 0.  0.
         24    2    4    4    0    0 -0.50246984541E+03 -0.33556850030E+03 -0.10406879026E+03  0.61822849564E+03  0.79334707260E+02 0.  0.
         13    1    3    3    0    0  0.10450599602E+03  0.30526784721E+03 -0.30735855686E+03  0.44562231118E+03  0.00000000000E+00 0. -1.
        -13    1    3    3    0    0  0.11141360563E+03  0.20665837114E+03 -0.32165571955E+03  0.39822490606E+03  0.00000000000E+00 0.  1.
          4    1    6    6  502    0 -0.84629427289E+01 -0.22475596654E+02 -0.91942430709E+01  0.25715908505E+02  0.00000000000E+00 0. -1.
          3    1    5    5  503    0  0.15937202716E+01  0.53062045745E+01  0.13841313114E+02  0.14908980515E+02  0.00000000000E+00 0. -1.
         -4    1    5    5    0  503  0.28495652349E+03 -0.18166392263E+03  0.27814642653E+03  0.43768417341E+03  0.00000000000E+00 0.  1.
         -3    1    6    6    0  502 -0.49400690268E+03 -0.31309290365E+03 -0.94874547187E+02  0.59251258714E+03  0.00000000000E+00 0.  1.
<mgrwt>
<rscale>  0 0.18631671E+04</rscale>
<asrwt>0</asrwt>
<pdfrwt beam="1">  1        2 0.11335181E+00 0.18631671E+04</pdfrwt>
<pdfrwt beam="2">  1       -2 0.18121263E+00 0.18631671E+04</pdfrwt>
<totfact> 0.64070723E+00</totfact>
</mgrwt>
</event>
<event>
12    1  0.1519630E-007  0.1397879E+04  0.7818608E-02  0.8955355E-01
         -3   -1    0    0    0  501 -0.00000000000E+00  0.00000000000E+00  0.75432685199E+03  0.75432685199E+03  0.00000000000E+00 0.  1.
          3   -1    0    0  501    0  0.00000000000E+00 -0.00000000000E+00 -0.64761891326E+03  0.64761891326E+03  0.00000000000E+00 0. -1.
         23    2    1    2    0    0  0.88454890166E+02 -0.37254944002E+03 -0.77503507886E+02  0.40084901934E+03  0.89754051246E+02 0.  0.
        254    2    1    2    0    0 -0.88454890166E+02  0.37254944002E+03  0.18421144662E+03  0.10010967459E+04  0.90644552222E+03 0.  0.
        -24    2    4    4    0    0 -0.40243099904E+03  0.21882644928E+03  0.37271655957E+03  0.59603774499E+03  0.80669918717E+02 0.  0.
         24    2    4    4    0    0  0.31397610887E+03  0.15372299074E+03 -0.18850511295E+03  0.40505900092E+03  0.79541572739E+02 0.  0.
         13    1    3    3    0    0  0.79464659215E+02 -0.33942476117E+03 -0.96376064072E+02  0.36167961829E+03  0.00000000000E+00 0.  1.
        -13    1    3    3    0    0  0.89902309513E+01 -0.33124678853E+02  0.18872556186E+02  0.39169401050E+02  0.00000000000E+00 0. -1.
          2    1    6    6  502    0  0.74624368306E+02  0.33873438902E+02 -0.84973569386E+02  0.11805385933E+03  0.00000000000E+00 0. -1.
          3    1    5    5  503    0 -0.41851409241E+02  0.99770991922E+01  0.65362928573E+02  0.78252127098E+02  0.00000000000E+00 0. -1.
         -4    1    5    5    0  503 -0.36057958980E+03  0.20884935009E+03  0.30735363100E+03  0.51778561789E+03  0.00000000000E+00 0.  1.
         -1    1    6    6    0  502  0.23935174056E+03  0.11984955184E+03 -0.10353154357E+03  0.28700514159E+03  0.00000000000E+00 0.  1.
<mgrwt>
<rscale>  0 0.13978789E+04</rscale>
<asrwt>0</asrwt>
<pdfrwt beam="1">  1        3 0.99633678E-01 0.13978789E+04</pdfrwt>
<pdfrwt beam="2">  1       -3 0.11605029E+00 0.13978789E+04</pdfrwt>
<totfact> 0.13802974E+00</totfact>
</mgrwt>
</event>
<event>
12    1  0.1519630E-007  0.1153110E+04  0.7818608E-02  0.9154919E-01
         -1   -1    0    0    0  501 -0.00000000000E+00  0.00000000000E+00  0.27522247479E+03  0.27522247479E+03  0.00000000000E+00 0.  1.
          1   -1    0    0  501    0  0.00000000000E+00 -0.00000000000E+00 -0.12078076945E+04  0.12078076945E+04  0.00000000000E+00 0. -1.
         23    2    1    2    0    0 -0.26100476338E+02  0.20672171055E+03 -0.23754069322E+03  0.32893476427E+03  0.91418804028E+02 0.  0.
        254    2    1    2    0    0  0.26100476338E+02 -0.20672171055E+03 -0.69504452652E+03  0.11540954051E+04  0.89745986520E+03 0.  0.
        -24    2    4    4    0    0 -0.68684551406E+02  0.19460000717E+02  0.19816697774E+03  0.22503578990E+03  0.79212981506E+02 0.  0.
         24    2    4    4    0    0  0.94785027744E+02 -0.22618171127E+03 -0.89321150426E+03  0.92905961516E+03  0.71990340878E+02 0.  0.
         11    1    3    3    0    0 -0.23328808952E+02  0.17695842220E+03 -0.23982475498E+03  0.29895556462E+03  0.00000000000E+00 0. -1.
        -11    1    3    3    0    0 -0.27716673860E+01  0.29763288352E+02  0.22840617583E+01  0.29979199651E+02  0.00000000000E+00 0.  1.
          4    1    6    6  502    0  0.94814075176E+02 -0.22114119138E+03 -0.79246573852E+03  0.82818783021E+03  0.00000000000E+00 0. -1.
          1    1    5    5  503    0  0.82363157547E+01  0.28006558197E+02  0.57324465577E+02  0.64329608680E+02  0.00000000000E+00 0. -1.
         -2    1    5    5    0  503 -0.76920867161E+02 -0.85465574801E+01  0.14084251216E+03  0.16070618122E+03  0.00000000000E+00 0.  1.
         -3    1    6    6    0  502 -0.29047432233E-01 -0.50405198858E+01 -0.10074576574E+03  0.10087178495E+03  0.00000000000E+00 0.  1.
<mgrwt>
<rscale>  0 0.11531103E+04</rscale>
<asrwt>0</asrwt>
<pdfrwt beam="1">  1        1 0.18581657E+00 0.11531103E+04</pdfrwt>
<pdfrwt beam="2">  1       -1 0.42341919E-01 0.11531103E+04</pdfrwt>
<totfact> 0.57405222E+01</totfact>
</mgrwt>
</event>
<event>
12    1  0.1519630E-007  0.1740999E+04  0.7818608E-02  0.8738321E-01
          2   -1    0    0  501    0  0.00000000000E+00  0.00000000000E+00  0.86090595560E+03  0.86090595560E+03  0.00000000000E+00 0. -1.
         -2   -1    0    0    0  501 -0.00000000000E+00 -0.00000000000E+00 -0.88019979736E+03  0.88019979736E+03  0.00000000000E+00 0.  1.
         23    2    1    2    0    0 -0.25168778477E+03  0.53269665322E+03 -0.33050931370E+03  0.68152477472E+03  0.90150689230E+02 0.  0.
        254    2    1    2    0    0  0.25168778477E+03 -0.53269665322E+03  0.31121547194E+03  0.10595809782E+04  0.82385940191E+03 0.  0.
        -24    2    4    4    0    0 -0.26641673896E+03 -0.36985434766E+03  0.11591453824E+03  0.47702143644E+03  0.79643916055E+02 0.  0.
         24    2    4    4    0    0  0.51810452373E+03 -0.16284230555E+03  0.19530093371E+03  0.58255954180E+03  0.79266960630E+02 0.  0.
         11    1    3    3    0    0 -0.14680749349E+03  0.22578096452E+03 -0.11985614020E+03  0.29477954208E+03  0.00000000000E+00 0.  1.
        -11    1    3    3    0    0 -0.10488029128E+03  0.30691568869E+03 -0.21065317350E+03  0.38674523264E+03  0.00000000000E+00 0. -1.
          2    1    6    6  502    0 -0.65703240354E+00 -0.51467423306E+01  0.67419823555E+01  0.85073482519E+01  0.00000000000E+00 0. -1.
          1    1    5    5  503    0 -0.60603151945E+02 -0.36451272433E+02  0.22685935947E+02  0.74270377523E+02  0.00000000000E+00 0. -1.
         -2    1    5    5    0  503 -0.20581358701E+03 -0.33340307523E+03  0.93228602289E+02  0.40275105891E+03  0.00000000000E+00 0.  1.
         -1    1    6    6    0  502  0.51876155613E+03 -0.15769556322E+03  0.18855895135E+03  0.57405219355E+03  0.00000000000E+00 0.  1.
<mgrwt>
<rscale>  0 0.17409988E+04</rscale>
<asrwt>0</asrwt>
<pdfrwt beam="1">  1        2 0.13244707E+00 0.17409988E+04</pdfrwt>
<pdfrwt beam="2">  1       -2 0.13541535E+00 0.17409988E+04</pdfrwt>
<totfact> 0.11577063E+01</totfact>
</mgrwt>
</event>
<event>
12    1  0.1519630E-007  0.1477863E+04  0.7818608E-02  0.8899309E-01
         -1   -1    0    0    0  501 -0.00000000000E+00  0.00000000000E+00  0.28638465304E+03  0.28638465304E+03  0.00000000000E+00 0.  1.
          1   -1    0    0  501    0  0.00000000000E+00 -0.00000000000E+00 -0.19065952233E+04  0.19065952233E+04  0.00000000000E+00 0. -1.
         23    2    1    2    0    0 -0.12469085751E+03  0.40247512078E+03 -0.77569098167E+03  0.88978062634E+03  0.11170958408E+03 0.  0.
        254    2    1    2    0    0  0.12469085751E+03 -0.40247512078E+03 -0.84451958854E+03  0.13031992500E+04  0.89865506000E+03 0.  0.
        -24    2    4    4    0    0 -0.30056425635E+02 -0.19755195047E+03  0.15683993565E+03  0.26624350416E+03  0.79728766688E+02 0.  0.
         24    2    4    4    0    0  0.15474728315E+03 -0.20492317031E+03 -0.10013595242E+04  0.10369557458E+04  0.81339379533E+02 0.  0.
         13    1    3    3    0    0 -0.49888290121E+02  0.32274267688E+03 -0.58190335070E+03  0.66728044069E+03  0.00000000000E+00 0. -1.
        -13    1    3    3    0    0 -0.74802567393E+02  0.79732443904E+02 -0.19378763097E+03  0.22250018565E+03  0.00000000000E+00 0.  1.
          2    1    6    6  502    0  0.14119695620E+03 -0.13058791397E+03 -0.76536708162E+03  0.78916193101E+03  0.00000000000E+00 0. -1.
          3    1    5    5  503    0 -0.49449231530E+00 -0.15485656157E+03  0.14674188388E+03  0.21334005641E+03  0.00000000000E+00 0. -1.
         -2    1    5    5    0  503 -0.29561933320E+02 -0.42695388900E+02  0.10098051776E+02  0.52903447757E+02  0.00000000000E+00 0.  1.
         -1    1    6    6    0  502  0.13550326946E+02 -0.74335256339E+02 -0.23599244257E+03  0.24779381479E+03  0.00000000000E+00 0.  1.
<mgrwt>
<rscale>  0 0.14778628E+04</rscale>
<asrwt>0</asrwt>
<pdfrwt beam="1">  1        1 0.29332235E+00 0.14778628E+04</pdfrwt>
<pdfrwt beam="2">  1       -1 0.44059176E-01 0.14778628E+04</pdfrwt>
<totfact> 0.17031986E+01</totfact>
</mgrwt>
</event>
<event>
12    1  0.1519630E-007  0.3763636E+04  0.7818608E-02  0.8054004E-01
          1   -1    0    0  501    0  0.00000000000E+00  0.00000000000E+00  0.32198314581E+04  0.32198314581E+04  0.00000000000E+00 0. -1.
         -1   -1    0    0    0  501 -0.00000000000E+00 -0.00000000000E+00 -0.10998213100E+04  0.10998213100E+04  0.00000000000E+00 0.  1.
         23    2    1    2    0    0 -0.14864141401E+04  0.71465891820E+03  0.17724548015E+04  0.24228598878E+04  0.92139284304E+02 0.  0.
        254    2    1    2    0    0  0.14864141401E+04 -0.71465891820E+03  0.34755534658E+03  0.18967928803E+04  0.86997939440E+03 0.  0.
        -24    2    4    4    0    0  0.11317114540E+04 -0.16779914265E+03 -0.13995808801E+02  0.11469230470E+04  0.79430634690E+02 0.  0.
         24    2    4    4    0    0  0.35470268610E+03 -0.54685977555E+03  0.36155115538E+03  0.74986983332E+03  0.81950712742E+02 0.  0.
         11    1    3    3    0    0 -0.11392872808E+04  0.55545507425E+03  0.13045035998E+04  0.18188555439E+04  0.00000000000E+00 0. -1.
        -11    1    3    3    0    0 -0.34712685925E+03  0.15920384395E+03  0.46795120164E+03  0.60400434391E+03  0.00000000000E+00 0.  1.
          2    1    6    6  502    0  0.10182685735E+03 -0.22327136141E+03  0.11658553306E+03  0.27168179222E+03  0.00000000000E+00 0. -1.
          1    1    5    5  503    0  0.26173750148E+03 -0.61448802103E+02  0.21846985216E+02  0.26974018189E+03  0.00000000000E+00 0. -1.
         -4    1    5    5    0  503  0.86997395248E+03 -0.10635034055E+03 -0.35842794017E+02  0.87718286509E+03  0.00000000000E+00 0.  1.
         -1    1    6    6    0  502  0.25287582874E+03 -0.32358841414E+03  0.24496562232E+03  0.47818804110E+03  0.00000000000E+00 0.  1.
<mgrwt>
<rscale>  0 0.37636361E+04</rscale>
<asrwt>0</asrwt>
<pdfrwt beam="1">  1        1 0.49535868E+00 0.37636361E+04</pdfrwt>
<pdfrwt beam="2">  1       -1 0.16920328E+00 0.37636361E+04</pdfrwt>
<totfact> 0.81673210E-02</totfact>
</mgrwt>
</event>
<event>
12    1  0.1519630E-007  0.1038786E+04  0.7818608E-02  0.9266999E-01
         -1   -1    0    0    0  501 -0.00000000000E+00  0.00000000000E+00  0.40472161547E+03  0.40472161547E+03  0.00000000000E+00 0.  1.
          1   -1    0    0  501    0  0.00000000000E+00 -0.00000000000E+00 -0.66655416134E+03  0.66655416134E+03  0.00000000000E+00 0. -1.
         23    2    1    2    0    0  0.77516635529E+02  0.46970150931E+02 -0.59760407579E+02  0.14202849034E+03  0.91573805707E+02 0.  0.
        254    2    1    2    0    0 -0.77516635529E+02 -0.46970150931E+02 -0.20207213829E+03  0.92924728647E+03  0.90247013605E+03 0.  0.
        -24    2    4    4    0    0 -0.27803420382E+03  0.33851139290E+03 -0.35937197664E+01  0.44529427411E+03  0.79881750844E+02 0.  0.
         24    2    4    4    0    0  0.20051756829E+03 -0.38548154383E+03 -0.19847841853E+03  0.48395301235E+03  0.77546887197E+02 0.  0.
         13    1    3    3    0    0  0.66172596105E+02 -0.43721875876E+01 -0.60023933274E+02  0.89447197079E+02  0.00000000000E+00 0. -1.
        -13    1    3    3    0    0  0.11344039423E+02  0.51342338519E+02  0.26352569544E+00  0.52581293259E+02  0.00000000000E+00 0.  1.
          2    1    6    6  502    0  0.53485199450E+02 -0.14481479908E+03 -0.36171888713E+02  0.15855723927E+03  0.00000000000E+00 0. -1.
          1    1    5    5  503    0 -0.49468811762E+02  0.20407212872E+02  0.19942525238E+01  0.53549927335E+02  0.00000000000E+00 0. -1.
         -2    1    5    5    0  503 -0.22856539206E+03  0.31810418003E+03 -0.55879722902E+01  0.39174434678E+03  0.00000000000E+00 0.  1.
         -1    1    6    6    0  502  0.14703236884E+03 -0.24066674475E+03 -0.16230652982E+03  0.32539577308E+03  0.00000000000E+00 0.  1.
<mgrwt>
<rscale>  0 0.10387856E+04</rscale>
<asrwt>0</asrwt>
<pdfrwt beam="1">  1        1 0.10254679E+00 0.10387856E+04</pdfrwt>
<pdfrwt beam="2">  1       -1 0.62264865E-01 0.10387856E+04</pdfrwt>
<totfact> 0.76788649E+01</totfact>
</mgrwt>
</event>
<event>
12    1  0.1519630E-007  0.1482004E+04  0.7818608E-02  0.8896509E-01
          1   -1    0    0  501    0  0.00000000000E+00  0.00000000000E+00  0.11819294569E+04  0.11819294569E+04  0.00000000000E+00 0. -1.
         -1   -1    0    0    0  501 -0.00000000000E+00 -0.00000000000E+00 -0.46456546185E+03  0.46456546185E+03  0.00000000000E+00 0.  1.
         23    2    1    2    0    0  0.35665324122E+03  0.33395038784E+02 -0.93518741912E+02  0.37986834875E+03  0.85073169681E+02 0.  0.
        254    2    1    2    0    0 -0.35665324122E+03 -0.33395038784E+02  0.81088273694E+03  0.12666265700E+04  0.90470729609E+03 0.  0.
        -24    2    4    4    0    0  0.18753569274E+03 -0.24816167353E+03  0.89580303942E+02  0.33428507867E+03  0.83474730970E+02 0.  0.
         24    2    4    4    0    0 -0.54418893396E+03  0.21476663474E+03  0.72130243300E+03  0.93234149130E+03  0.81958241242E+02 0.  0.
         11    1    3    3    0    0  0.23882402411E+02 -0.16883980308E+02 -0.19862422816E+02  0.35354685348E+02  0.00000000000E+00 0. -1.
        -11    1    3    3    0    0  0.33277083881E+03  0.50279019092E+02 -0.73656319096E+02  0.34451366340E+03  0.00000000000E+00 0.  1.
          2    1    6    6  502    0 -0.49860208292E+03  0.21969474065E+03  0.66243786360E+03  0.85772591152E+03  0.00000000000E+00 0. -1.
          1    1    5    5  503    0  0.90857164375E+02 -0.15911522915E+03  0.16685846448E+02  0.18398667869E+03  0.00000000000E+00 0. -1.
         -2    1    5    5    0  503  0.96678528360E+02 -0.89046444379E+02  0.72894457494E+02  0.15029839998E+03  0.00000000000E+00 0.  1.
         -1    1    6    6    0  502 -0.45586851041E+02 -0.49281059062E+01  0.58864569402E+02  0.74615579784E+02  0.00000000000E+00 0.  1.
<mgrwt>
<rscale>  0 0.14820035E+04</rscale>
<asrwt>0</asrwt>
<pdfrwt beam="1">  1        1 0.18183530E+00 0.14820035E+04</pdfrwt>
<pdfrwt beam="2">  1       -1 0.71471610E-01 0.14820035E+04</pdfrwt>
<totfact> 0.21096877E+01</totfact>
</mgrwt>
</event>
<event>
12    1  0.1519630E-007  0.1182789E+04  0.7818608E-02  0.9128056E-01
         -1   -1    0    0    0  501 -0.00000000000E+00  0.00000000000E+00  0.97896236553E+03  0.97896236553E+03  0.00000000000E+00 0.  1.
          1   -1    0    0  501    0  0.00000000000E+00 -0.00000000000E+00 -0.35726373303E+03  0.35726373303E+03  0.00000000000E+00 0. -1.
         23    2    1    2    0    0  0.10427022888E+03  0.22720878686E+02 -0.92209259352E+02  0.17592529587E+03  0.10516008396E+03 0.  0.
        254    2    1    2    0    0 -0.10427022888E+03 -0.22720878686E+02  0.71390789186E+03  0.11603008027E+04  0.90842993990E+03 0.  0.
        -24    2    4    4    0    0  0.37652595670E+03  0.84534911167E+02  0.19227961670E+03  0.43820894062E+03  0.78343330087E+02 0.  0.
         24    2    4    4    0    0 -0.48079618558E+03 -0.10725578985E+03  0.52162827516E+03  0.72209186207E+03  0.81558710662E+02 0.  0.
         11    1    3    3    0    0 -0.37430456842E+01 -0.23695892240E+02 -0.41406133738E+02  0.47853668733E+02  0.00000000000E+00 0.  1.
        -11    1    3    3    0    0  0.10801327457E+03  0.46416770927E+02 -0.50803125614E+02  0.12807162714E+03  0.00000000000E+00 0. -1.
          2    1    6    6  502    0 -0.21030853605E+03 -0.62434011490E+01  0.21019764229E+03  0.29740832069E+03  0.00000000000E+00 0. -1.
          1    1    5    5  503    0  0.64735523299E+02  0.46192405083E+02  0.34799172859E+02  0.86806731858E+02  0.00000000000E+00 0. -1.
         -2    1    5    5    0  503  0.31179043340E+03  0.38342506085E+02  0.15748044384E+03  0.35140220876E+03  0.00000000000E+00 0.  1.
         -3    1    6    6    0  502 -0.27048764954E+03 -0.10101238870E+03  0.31143063288E+03  0.42468354138E+03  0.00000000000E+00 0.  1.
<mgrwt>
<rscale>  0 0.11827895E+04</rscale>
<asrwt>0</asrwt>
<pdfrwt beam="1">  1        1 0.54963652E-01 0.11827895E+04</pdfrwt>
<pdfrwt beam="2">  1       -1 0.15060959E+00 0.11827895E+04</pdfrwt>
<totfact> 0.23837999E+01</totfact>
</mgrwt>
</event>
<event>
12    1  0.1519630E-007  0.1264363E+04  0.7818608E-02  0.9058313E-01
         -2   -1    0    0    0  501 -0.00000000000E+00  0.00000000000E+00  0.17474287507E+03  0.17474287507E+03  0.00000000000E+00 0.  1.
          2   -1    0    0  501    0  0.00000000000E+00 -0.00000000000E+00 -0.22870935423E+04  0.22870935423E+04  0.00000000000E+00 0. -1.
         23    2    1    2    0    0  0.22667421264E+03  0.68434768914E+02 -0.17016444492E+03  0.30670785055E+03  0.95127551226E+02 0.  0.
        254    2    1    2    0    0 -0.22667421264E+03 -0.68434768914E+02 -0.19421862223E+04  0.21551285668E+04  0.90356366746E+03 0.  0.
        -24    2    4    4    0    0 -0.10593179740E+03 -0.63566627901E+02 -0.19939634233E+04  0.19993684270E+04  0.79509193144E+02 0.  0.
         24    2    4    4    0    0 -0.12074241523E+03 -0.48681410128E+01  0.51777200936E+02  0.15576013982E+03  0.83533903209E+02 0.  0.
         11    1    3    3    0    0  0.90384816057E+02  0.47669334934E+02 -0.12539589438E+03  0.16175880438E+03  0.00000000000E+00 0. -1.
        -11    1    3    3    0    0  0.13628939658E+03  0.20765433980E+02 -0.44768550542E+02  0.14494904617E+03  0.00000000000E+00 0.  1.
          2    1    6    6  502    0 -0.22256709718E+02  0.10991611998E+02  0.50190016398E+02  0.55992985344E+02  0.00000000000E+00 0. -1.
          3    1    5    5  503    0  0.12185958690E+02 -0.21732686591E+00 -0.22823744357E+03  0.22856262921E+03  0.00000000000E+00 0. -1.
         -4    1    5    5    0  503 -0.11811775609E+03 -0.63349301036E+02 -0.17657259797E+04  0.17708057978E+04  0.00000000000E+00 0.  1.
         -1    1    6    6    0  502 -0.98485705517E+02 -0.15859753011E+02  0.15871845379E+01  0.99767154472E+02  0.00000000000E+00 0.  1.
<mgrwt>
<rscale>  0 0.12643628E+04</rscale>
<asrwt>0</asrwt>
<pdfrwt beam="1">  1        2 0.35186056E+00 0.12643628E+04</pdfrwt>
<pdfrwt beam="2">  1       -2 0.26883518E-01 0.12643628E+04</pdfrwt>
<totfact> 0.57096195E+01</totfact>
</mgrwt>
</event>
<event>
12    1  0.1519630E-007  0.2174292E+04  0.7818608E-02  0.8529205E-01
         -2   -1    0    0    0  501 -0.00000000000E+00  0.00000000000E+00  0.61800508048E+03  0.61800508048E+03  0.00000000000E+00 0.  1.
          2   -1    0    0  501    0  0.00000000000E+00 -0.00000000000E+00 -0.19124219323E+04  0.19124219323E+04  0.00000000000E+00 0. -1.
         23    2    1    2    0    0 -0.72087582137E+03  0.53701910972E+03 -0.46947473129E+03  0.10184869696E+04  0.94115406932E+02 0.  0.
        254    2    1    2    0    0  0.72087582137E+03 -0.53701910972E+03 -0.82494212055E+03  0.15119400432E+04  0.89296232732E+03 0.  0.
        -24    2    4    4    0    0 -0.84628396229E+02  0.15021360057E+03 -0.22372562250E+03  0.29173044415E+03  0.72989085720E+02 0.  0.
         24    2    4    4    0    0  0.80550421760E+03 -0.68723271029E+03 -0.60121649805E+03  0.12202095991E+04  0.79525753689E+02 0.  0.
         13    1    3    3    0    0 -0.71068360256E+03  0.53995126097E+03 -0.45925955815E+03  0.10037618686E+04  0.00000000000E+00 0.  1.
        -13    1    3    3    0    0 -0.10192218805E+02 -0.29321512536E+01 -0.10215173137E+02  0.14725100929E+02  0.00000000000E+00 0. -1.
          2    1    6    6  502    0  0.37506186655E+02 -0.32178125744E+02 -0.10064185794E+02  0.50432466225E+02  0.00000000000E+00 0. -1.
          3    1    5    5  503    0  0.20328077885E+01  0.97720130104E+01  0.37807252620E+01  0.10673257670E+02  0.00000000000E+00 0. -1.
         -2    1    5    5    0  503 -0.86661204017E+02  0.14044158756E+03 -0.22750634776E+03  0.28105718648E+03  0.00000000000E+00 0.  1.
         -1    1    6    6    0  502  0.76799803094E+03 -0.65505458454E+03 -0.59115231225E+03  0.11697771329E+04  0.00000000000E+00 0.  1.
<mgrwt>
<rscale>  0 0.21742920E+04</rscale>
<asrwt>0</asrwt>
<pdfrwt beam="1">  1        2 0.29421875E+00 0.21742920E+04</pdfrwt>
<pdfrwt beam="2">  1       -2 0.95077706E-01 0.21742920E+04</pdfrwt>
<totfact> 0.63677960E+00</totfact>
</mgrwt>
</event>
<event>
12    1  0.1519630E-007  0.2132524E+04  0.7818608E-02  0.8547050E-01
          2   -1    0    0  501    0  0.00000000000E+00  0.00000000000E+00  0.38184856529E+04  0.38184856529E+04  0.00000000000E+00 0.  1.
         -2   -1    0    0    0  501 -0.00000000000E+00 -0.00000000000E+00 -0.29773965968E+03  0.29773965968E+03  0.00000000000E+00 0. -1.
         23    2    1    2    0    0  0.46812197650E+03 -0.65297827234E+03  0.80566009748E+03  0.11444479399E+04  0.12310193088E+03 0.  0.
        254    2    1    2    0    0 -0.46812197650E+03  0.65297827234E+03  0.27150858958E+04  0.29717773727E+04  0.90235831168E+03 0.  0.
        -24    2    4    4    0    0 -0.21482039822E+03  0.43982433530E+03  0.41637121694E+03  0.64791380845E+03  0.82668394575E+02 0.  0.
         24    2    4    4    0    0 -0.25330157828E+03  0.21315393703E+03  0.22987146788E+04  0.23238635643E+04  0.81586765685E+02 0.  0.
         13    1    3    3    0    0  0.30570153550E+03 -0.37784783871E+03  0.40974917207E+03  0.63570181850E+03  0.00000000000E+00 0. -1.
        -13    1    3    3    0    0  0.16242044100E+03 -0.27513043362E+03  0.39591092540E+03  0.50874612138E+03  0.00000000000E+00 0.  1.
          4    1    6    6  502    0 -0.14495598469E+03  0.89396764298E+02  0.94861689221E+03  0.96378318473E+03  0.00000000000E+00 0. -1.
          1    1    5    5  503    0 -0.16532056276E+03  0.35582360910E+03  0.28797618077E+03  0.48669457564E+03  0.00000000000E+00 0. -1.
         -2    1    5    5    0  503 -0.49499835453E+02  0.84000726199E+02  0.12839503618E+03  0.16121923281E+03  0.00000000000E+00 0.  1.
         -3    1    6    6    0  502 -0.10834559359E+03  0.12375717273E+03  0.13500977866E+04  0.13600803796E+04  0.00000000000E+00 0.  1.
<mgrwt>
<rscale>  0 0.21325240E+04</rscale>
<asrwt>0</asrwt>
<pdfrwt beam="1">  1        2 0.58745930E+00 0.21325240E+04</pdfrwt>
<pdfrwt beam="2">  1       -2 0.45806104E-01 0.21325240E+04</pdfrwt>
<totfact> 0.19878804E+00</totfact>
</mgrwt>
</event>
<event>
12    1  0.1519630E-007  0.3688606E+04  0.7818608E-02  0.8070492E-01
          1   -1    0    0  501    0  0.00000000000E+00  0.00000000000E+00  0.43256205650E+04  0.43256205650E+04  0.00000000000E+00 0. -1.
         -1   -1    0    0    0  501 -0.00000000000E+00 -0.00000000000E+00 -0.78635022790E+03  0.78635022790E+03  0.00000000000E+00 0.  1.
         23    2    1    2    0    0  0.58975759236E+03  0.63568372147E+03 -0.41108120166E+03  0.96388567831E+03  0.90443545947E+02 0.  0.
        254    2    1    2    0    0 -0.58975759236E+03 -0.63568372147E+03  0.39503515387E+04  0.41480851146E+04  0.92164256987E+03 0.  0.
        -24    2    4    4    0    0 -0.61671391758E+03  0.27337238019E+01  0.19389083589E+04  0.20361196831E+04  0.77937221043E+02 0.  0.
         24    2    4    4    0    0  0.26956325215E+02 -0.63841744527E+03  0.20114431799E+04  0.21119654315E+04  0.78681891121E+02 0.  0.
         13    1    3    3    0    0  0.57192020706E+02  0.55723972989E+02 -0.10748695143E+02  0.80570607826E+02  0.00000000000E+00 0. -1.
        -13    1    3    3    0    0  0.53256557166E+03  0.57995974848E+03 -0.40033250652E+03  0.88331507049E+03  0.00000000000E+00 0.  1.
          2    1    6    6  502    0  0.29862148773E+02 -0.63946461006E+03  0.19936794809E+04  0.20939351967E+04  0.00000000000E+00 0. -1.
          1    1    5    5  503    0 -0.51332541646E+03  0.26236788728E+02  0.16591939216E+04  0.17369846924E+04  0.00000000000E+00 0. -1.
         -2    1    5    5    0  503 -0.10338850111E+03 -0.23503064926E+02  0.27971443728E+03  0.29913499068E+03  0.00000000000E+00 0.  1.
         -1    1    6    6    0  502 -0.29058235582E+01  0.10471647809E+01  0.17763698983E+02  0.18030234779E+02  0.00000000000E+00 0.  1.
<mgrwt>
<rscale>  0 0.36886055E+04</rscale>
<asrwt>0</asrwt>
<pdfrwt beam="1">  1        1 0.66548007E+00 0.36886055E+04</pdfrwt>
<pdfrwt beam="2">  1       -1 0.12097696E+00 0.36886055E+04</pdfrwt>
<totfact> 0.23332527E-02</totfact>
</mgrwt>
</event>
<event>
12    1  0.1519630E-007  0.3162049E+04  0.7818608E-02  0.8198912E-01
          2   -1    0    0  501    0  0.00000000000E+00  0.00000000000E+00  0.32598881287E+04  0.32598881287E+04  0.00000000000E+00 0.  1.
         -2   -1    0    0    0  501 -0.00000000000E+00 -0.00000000000E+00 -0.76678648238E+03  0.76678648238E+03  0.00000000000E+00 0. -1.
         23    2    1    2    0    0  0.40233545878E+03 -0.17380080890E+03  0.29131370988E+04  0.29473243982E+04  0.90954986390E+02 0.  0.
        254    2    1    2    0    0 -0.40233545878E+03  0.17380080890E+03 -0.42003545249E+03  0.10793502128E+04  0.89246095603E+03 0.  0.
        -24    2    4    4    0    0 -0.11529600915E+03  0.51014176416E+03 -0.32110794624E+03  0.61894221114E+03  0.80258073315E+02 0.  0.
         24    2    4    4    0    0 -0.28703944962E+03 -0.33634095526E+03 -0.98927506240E+02  0.46040800169E+03  0.81682266737E+02 0.  0.
         11    1    3    3    0    0  0.22959241795E+03 -0.10011059701E+03  0.13597860826E+04  0.13826615639E+04  0.00000000000E+00 0.  1.
        -11    1    3    3    0    0  0.17274304082E+03 -0.73690211886E+02  0.15533510162E+04  0.15646628343E+04  0.00000000000E+00 0. -1.
          2    1    6    6  502    0 -0.38489463392E+02 -0.37373707268E+02  0.14192843355E+02  0.55494770831E+02  0.00000000000E+00 0. -1.
          3    1    5    5  503    0 -0.68098780494E+02  0.17844896874E+03 -0.14926925967E+03  0.24241037567E+03  0.00000000000E+00 0. -1.
         -4    1    5    5    0  503 -0.47197228659E+02  0.33169279542E+03 -0.17183868658E+03  0.37653183548E+03  0.00000000000E+00 0.  1.
         -1    1    6    6    0  502 -0.24854998623E+03 -0.29896724799E+03 -0.11312034960E+03  0.40491323085E+03  0.00000000000E+00 0.  1.
<mgrwt>
<rscale>  0 0.31620488E+04</rscale>
<asrwt>0</asrwt>
<pdfrwt beam="1">  1        2 0.50152124E+00 0.31620488E+04</pdfrwt>
<pdfrwt beam="2">  1       -2 0.11796715E+00 0.31620488E+04</pdfrwt>
<totfact> 0.55368165E-01</totfact>
</mgrwt>
</event>
<event>
12    1  0.1519630E-007  0.1277281E+04  0.7818608E-02  0.9047778E-01
          2   -1    0    0  501    0  0.00000000000E+00  0.00000000000E+00  0.21732147979E+04  0.21732147979E+04  0.00000000000E+00 0. -1.
         -2   -1    0    0    0  501 -0.00000000000E+00 -0.00000000000E+00 -0.18767655080E+03  0.18767655080E+03  0.00000000000E+00 0.  1.
         23    2    1    2    0    0  0.15214698478E+03  0.27369776495E+03  0.43435339635E+03  0.54322265120E+03  0.91481169271E+02 0.  0.
        254    2    1    2    0    0 -0.15214698478E+03 -0.27369776495E+03  0.15511848508E+04  0.18176686975E+04  0.89425157600E+03 0.  0.
        -24    2    4    4    0    0  0.24957789450E+03  0.10247411547E+03  0.17275350311E+03  0.33083442900E+03  0.82568618788E+02 0.  0.
         24    2    4    4    0    0 -0.40172487928E+03 -0.37617188042E+03  0.13784313477E+04  0.14868342685E+04  0.87835070380E+02 0.  0.
         13    1    3    3    0    0  0.82570864115E+02  0.84061335740E+02  0.21398860363E+03  0.24428544421E+03  0.00000000000E+00 0. -1.
        -13    1    3    3    0    0  0.69576120667E+02  0.18963642921E+03  0.22036479272E+03  0.29893720699E+03  0.00000000000E+00 0.  1.
          4    1    6    6  502    0 -0.31449263957E+03 -0.28884983465E+03  0.11576495307E+04  0.12338931410E+04  0.00000000000E+00 0. -1.
          1    1    5    5  503    0  0.13641023128E+03  0.87265096852E+02  0.13420283647E+03  0.21031725950E+03  0.00000000000E+00 0. -1.
         -2    1    5    5    0  503  0.11316766322E+03  0.15209018619E+02  0.38550666641E+02  0.12051716950E+03  0.00000000000E+00 0.  1.
         -3    1    6    6    0  502 -0.87232239710E+02 -0.87322045772E+02  0.22078181691E+03  0.25294112754E+03  0.00000000000E+00 0.  1.
<mgrwt>
<rscale>  0 0.12772806E+04</rscale>
<asrwt>0</asrwt>
<pdfrwt beam="1">  1        2 0.33434072E+00 0.12772806E+04</pdfrwt>
<pdfrwt beam="2">  1       -2 0.28873317E-01 0.12772806E+04</pdfrwt>
<totfact> 0.57914446E+01</totfact>
</mgrwt>
</event>
<event>
12    1  0.1519630E-007  0.1585585E+04  0.7818608E-02  0.8829453E-01
         -1   -1    0    0    0  501 -0.00000000000E+00  0.00000000000E+00  0.27419546864E+03  0.27419546864E+03  0.00000000000E+00 0.  1.
          1   -1    0    0  501    0  0.00000000000E+00 -0.00000000000E+00 -0.22922335022E+04  0.22922335022E+04  0.00000000000E+00 0. -1.
         23    2    1    2    0    0  0.36665782249E+03  0.29391177594E+03 -0.10966661099E+04  0.11966177629E+04  0.91626541019E+02 0.  0.
        254    2    1    2    0    0 -0.36665782249E+03 -0.29391177594E+03 -0.92137192366E+03  0.13698112080E+04  0.89812829424E+03 0.  0.
        -24    2    4    4    0    0  0.29902159792E+01 -0.50188604675E+03 -0.74857267270E+03  0.90482194795E+03  0.80269333338E+02 0.  0.
         24    2    4    4    0    0 -0.36964803847E+03  0.20797427081E+03 -0.17279925096E+03  0.46498926001E+03  0.80389434155E+02 0.  0.
         11    1    3    3    0    0  0.24224089170E+03  0.17041206034E+03 -0.58405586620E+03  0.65486042388E+03  0.00000000000E+00 0. -1.
        -11    1    3    3    0    0  0.12441693079E+03  0.12349971560E+03 -0.51261024369E+03  0.54175733900E+03  0.00000000000E+00 0.  1.
          2    1    6    6  502    0 -0.26348801130E+03  0.12719464466E+03 -0.15286432923E+03  0.33010894093E+03  0.00000000000E+00 0. -1.
          1    1    5    5  503    0 -0.23913107324E+02 -0.40128278199E+03 -0.62630641743E+03  0.74421733139E+03  0.00000000000E+00 0. -1.
         -2    1    5    5    0  503  0.26903323303E+02 -0.10060326476E+03 -0.12226625527E+03  0.16060461657E+03  0.00000000000E+00 0.  1.
         -1    1    6    6    0  502 -0.10616002717E+03  0.80779626152E+02 -0.19934921725E+02  0.13488031908E+03  0.00000000000E+00 0.  1.
<mgrwt>
<rscale>  0 0.15855851E+04</rscale>
<asrwt>0</asrwt>
<pdfrwt beam="1">  1        1 0.35265131E+00 0.15855851E+04</pdfrwt>
<pdfrwt beam="2">  1       -1 0.42183918E-01 0.15855851E+04</pdfrwt>
<totfact> 0.10009076E+01</totfact>
</mgrwt>
</event>
<event>
12    1  0.1519630E-007  0.1866065E+04  0.7818608E-02  0.8671935E-01
          2   -1    0    0  501    0  0.00000000000E+00  0.00000000000E+00  0.91131546589E+03  0.91131546589E+03  0.00000000000E+00 0.  1.
         -2   -1    0    0    0  501 -0.00000000000E+00 -0.00000000000E+00 -0.95526717580E+03  0.95526717580E+03  0.00000000000E+00 0. -1.
         23    2    1    2    0    0  0.38147806648E+03 -0.49486137239E+03 -0.36310282079E+03  0.72846620047E+03  0.91684533400E+02 0.  0.
        254    2    1    2    0    0 -0.38147806648E+03  0.49486137239E+03  0.31915111088E+03  0.11381164412E+04  0.89612404782E+03 0.  0.
        -24    2    4    4    0    0 -0.12430862061E+03  0.24212991324E+03 -0.30274995361E+03  0.41466053331E+03  0.78780044661E+02 0.  0.
         24    2    4    4    0    0 -0.25716944587E+03  0.25273145916E+03  0.62190106449E+03  0.72345590790E+03  0.81352334495E+02 0.  0.
         11    1    3    3    0    0  0.13887289427E+02  0.13756915536E+01 -0.86671552830E+01  0.16427687469E+02  0.00000000000E+00 0.  1.
        -11    1    3    3    0    0  0.36759077705E+03 -0.49623706395E+03 -0.35443566551E+03  0.71203851300E+03  0.00000000000E+00 0. -1.
          4    1    6    6  502    0 -0.10692970348E+03  0.55540807471E+02  0.17639847937E+03  0.21362388983E+03  0.00000000000E+00 0. -1.
          1    1    5    5  503    0 -0.27155267196E+02  0.74896829657E+01 -0.19657750706E+02  0.34350124457E+02  0.00000000000E+00 0. -1.
         -2    1    5    5    0  503 -0.97153353418E+02  0.23464023027E+03 -0.28309220290E+03  0.38031040886E+03  0.00000000000E+00 0.  1.
         -3    1    6    6    0  502 -0.15023974239E+03  0.19719065169E+03  0.44550258512E+03  0.50983201807E+03  0.00000000000E+00 0.  1.
<mgrwt>
<rscale>  0 0.18660651E+04</rscale>
<asrwt>0</asrwt>
<pdfrwt beam="1">  1        2 0.14020238E+00 0.18660651E+04</pdfrwt>
<pdfrwt beam="2">  1       -2 0.14696418E+00 0.18660651E+04</pdfrwt>
<totfact> 0.85552459E+00</totfact>
</mgrwt>
</event>
<event>
12    1  0.1519630E-007  0.2263864E+04  0.7818608E-02  0.8492307E-01
          1   -1    0    0  501    0  0.00000000000E+00  0.00000000000E+00  0.91074909212E+03  0.91074909212E+03  0.00000000000E+00 0. -1.
         -1   -1    0    0    0  501 -0.00000000000E+00 -0.00000000000E+00 -0.14068312694E+04  0.14068312694E+04  0.00000000000E+00 0.  1.
         23    2    1    2    0    0 -0.78329905679E+03 -0.14078370062E+03 -0.74427135323E+03  0.10935448962E+04  0.92320800129E+02 0.  0.
        254    2    1    2    0    0  0.78329905679E+03  0.14078370062E+03  0.24818917595E+03  0.12240354653E+04  0.89626306990E+03 0.  0.
        -24    2    4    4    0    0  0.78872406735E+03 -0.15745100606E+03 -0.28275552754E+02  0.80922551884E+03  0.84675614728E+02 0.  0.
         24    2    4    4    0    0 -0.54250105632E+01  0.29823470668E+03  0.27646472871E+03  0.41480994644E+03  0.81616018267E+02 0.  0.
         11    1    3    3    0    0 -0.40381248314E+02 -0.14965744477E+01 -0.69079137761E+02  0.80030070750E+02  0.00000000000E+00 0. -1.
        -11    1    3    3    0    0 -0.74291780847E+03 -0.13928712618E+03 -0.67519221547E+03  0.10135148255E+04  0.00000000000E+00 0.  1.
          2    1    6    6  502    0 -0.29113666251E+02  0.25564288806E+03  0.20845663954E+03  0.33114205765E+03  0.00000000000E+00 0. -1.
          1    1    5    5  503    0  0.62252398839E+03 -0.99091702896E+02 -0.46853508752E+02  0.63210009728E+03  0.00000000000E+00 0. -1.
         -2    1    5    5    0  503  0.16620007896E+03 -0.58359303159E+02  0.18577955998E+02  0.17712542156E+03  0.00000000000E+00 0.  1.
         -1    1    6    6    0  502  0.23688655688E+02  0.42591818617E+02  0.68008089169E+02  0.83667888786E+02  0.00000000000E+00 0.  1.
<mgrwt>
<rscale>  0 0.22638642E+04</rscale>
<asrwt>0</asrwt>
<pdfrwt beam="1">  1        1 0.14011525E+00 0.22638642E+04</pdfrwt>
<pdfrwt beam="2">  1       -1 0.21643558E+00 0.22638642E+04</pdfrwt>
<totfact> 0.18800543E+00</totfact>
</mgrwt>
</event>
<event>
12    1  0.1519630E-007  0.1923598E+04  0.7818608E-02  0.8643199E-01
          1   -1    0    0  501    0  0.00000000000E+00  0.00000000000E+00  0.14686236507E+04  0.14686236507E+04  0.00000000000E+00 0.  1.
         -1   -1    0    0    0  501 -0.00000000000E+00 -0.00000000000E+00 -0.62988033896E+03  0.62988033896E+03  0.00000000000E+00 0. -1.
         23    2    1    2    0    0  0.39922758888E+03  0.21613042808E+03  0.99144071995E+03  0.10934410643E+04  0.81016234906E+02 0.  0.
        254    2    1    2    0    0 -0.39922758888E+03 -0.21613042808E+03 -0.15269740817E+03  0.10050629254E+04  0.88359490482E+03 0.  0.
        -24    2    4    4    0    0 -0.56617376539E+03  0.47755661546E+02 -0.30287827461E+03  0.64899229405E+03  0.81378207687E+02 0.  0.
         24    2    4    4    0    0  0.16694617651E+03 -0.26388608963E+03  0.15018086643E+03  0.35607063132E+03  0.82006753954E+02 0.  0.
         11    1    3    3    0    0  0.85358061540E+02  0.85884029259E+02  0.27628395112E+03  0.30165358741E+03  0.00000000000E+00 0.  1.
        -11    1    3    3    0    0  0.31386952734E+03  0.13024639882E+03  0.71515676884E+03  0.79178747692E+03  0.00000000000E+00 0. -1.
          2    1    6    6  502    0  0.95661981814E+02 -0.16473281242E+03  0.13395859884E+03  0.23287984124E+03  0.00000000000E+00 0. -1.
          3    1    5    5  503    0 -0.11894644452E+02  0.51311805924E+01 -0.23474714603E+02  0.26811822142E+02  0.00000000000E+00 0. -1.
         -2    1    5    5    0  503 -0.55427912094E+03  0.42624480954E+02 -0.27940356000E+03  0.62218047191E+03  0.00000000000E+00 0.  1.
         -3    1    6    6    0  502  0.71284194693E+02 -0.99153277204E+02  0.16222267593E+02  0.12319079007E+03  0.00000000000E+00 0.  1.
<mgrwt>
<rscale>  0 0.19235978E+04</rscale>
<asrwt>0</asrwt>
<pdfrwt beam="1">  1        1 0.22594210E+00 0.19235978E+04</pdfrwt>
<pdfrwt beam="2">  1       -1 0.96904668E-01 0.19235978E+04</pdfrwt>
<totfact> 0.65758549E+00</totfact>
</mgrwt>
</event>
<event>
12    1  0.1519630E-007  0.1616701E+04  0.7818608E-02  0.8810353E-01
          1   -1    0    0  501    0  0.00000000000E+00  0.00000000000E+00  0.75472236334E+03  0.75472236334E+03  0.00000000000E+00 0. -1.
         -1   -1    0    0    0  501 -0.00000000000E+00 -0.00000000000E+00 -0.86578929135E+03  0.86578929135E+03  0.00000000000E+00 0.  1.
         23    2    1    2    0    0  0.36132401116E+03 -0.15543554792E+03 -0.42214370295E+03  0.58438486419E+03  0.92655884638E+02 0.  0.
        254    2    1    2    0    0 -0.36132401116E+03  0.15543554792E+03  0.31107677494E+03  0.10361267905E+04  0.90668336010E+03 0.  0.
        -24    2    4    4    0    0 -0.44941492065E+03 -0.11743518502E+03  0.49771521325E+03  0.68535121220E+03  0.78873677405E+02 0.  0.
         24    2    4    4    0    0  0.88090909490E+02  0.27287073294E+03 -0.18663843831E+03  0.35077557829E+03  0.77402548015E+02 0.  0.
         11    1    3    3    0    0  0.32131089677E+03 -0.11439949890E+03 -0.39206561663E+03  0.51965698828E+03  0.00000000000E+00 0.  1.
        -11    1    3    3    0    0  0.40013114391E+02 -0.41036049025E+02 -0.30078086324E+02  0.64727875910E+02  0.00000000000E+00 0. -1.
          4    1    6    6  502    0  0.99543587300E+02  0.20461781420E+03 -0.14908489143E+03  0.27203617501E+03  0.00000000000E+00 0. -1.
          1    1    5    5  503    0 -0.35352259092E+03 -0.67153602379E+02  0.41370632310E+03  0.54830716790E+03  0.00000000000E+00 0. -1.
         -2    1    5    5    0  503 -0.95892329727E+02 -0.50281582643E+02  0.84008890153E+02  0.13704404430E+03  0.00000000000E+00 0.  1.
         -3    1    6    6    0  502 -0.11452677811E+02  0.68252918747E+02 -0.37553546879E+02  0.78739403285E+02  0.00000000000E+00 0.  1.
<mgrwt>
<rscale>  0 0.16167010E+04</rscale>
<asrwt>0</asrwt>
<pdfrwt beam="1">  1        1 0.11611113E+00 0.16167010E+04</pdfrwt>
<pdfrwt beam="2">  1       -1 0.13319835E+00 0.16167010E+04</pdfrwt>
<totfact> 0.11081993E+01</totfact>
</mgrwt>
</event>
<event>
12    1  0.1519630E-007  0.2296010E+04  0.7818608E-02  0.8479496E-01
          2   -1    0    0  501    0  0.00000000000E+00  0.00000000000E+00  0.22190080908E+04  0.22190080908E+04  0.00000000000E+00 0.  1.
         -2   -1    0    0    0  501 -0.00000000000E+00 -0.00000000000E+00 -0.59392076032E+03  0.59392076032E+03  0.00000000000E+00 0. -1.
         23    2    1    2    0    0  0.40600957731E+03  0.77529906776E+03  0.18269882308E+03  0.89776762870E+03  0.81703328318E+02 0.  0.
        254    2    1    2    0    0 -0.40600957731E+03 -0.77529906776E+03  0.14423885074E+04  0.19151612224E+04  0.90632526184E+03 0.  0.
        -24    2    4    4    0    0  0.96937295804E+02  0.14463687635E+03  0.12104523218E+03  0.22646776086E+03  0.79492346556E+02 0.  0.
         24    2    4    4    0    0 -0.50294687312E+03 -0.91993594411E+03  0.13213432752E+04  0.16886934616E+04  0.80621694869E+02 0.  0.
         13    1    3    3    0    0  0.27343132249E+03  0.44467422716E+03  0.12677281073E+03  0.53718823699E+03  0.00000000000E+00 0.  1.
        -13    1    3    3    0    0  0.13257825482E+03  0.33062484060E+03  0.55926012350E+02  0.36057939172E+03  0.00000000000E+00 0. -1.
          2    1    6    6  502    0 -0.31371977343E+03 -0.64097962357E+03  0.92828639035E+03  0.11708930765E+04  0.00000000000E+00 0. -1.
          1    1    5    5  503    0  0.78256247852E+02  0.14942662817E+03  0.93549722053E+02  0.19288314605E+03  0.00000000000E+00 0. -1.
         -2    1    5    5    0  503  0.18681047952E+02 -0.47897518250E+01  0.27495510124E+02  0.33584614812E+02  0.00000000000E+00 0.  1.
         -1    1    6    6    0  502 -0.18922709969E+03 -0.27895632054E+03  0.39305688490E+03  0.51780038508E+03  0.00000000000E+00 0.  1.
<mgrwt>
<rscale>  0 0.22960096E+04</rscale>
<asrwt>0</asrwt>
<pdfrwt beam="1">  1        2 0.34138586E+00 0.22960096E+04</pdfrwt>
<pdfrwt beam="2">  1       -2 0.91372425E-01 0.22960096E+04</pdfrwt>
<totfact> 0.46618473E+00</totfact>
</mgrwt>
</event>
<event>
12    1  0.1519630E-007  0.1889764E+04  0.7818608E-02  0.8659969E-01
         -2   -1    0    0    0  501 -0.00000000000E+00  0.00000000000E+00  0.23205374843E+03  0.23205374843E+03  0.00000000000E+00 0. -1.
          2   -1    0    0  501    0  0.00000000000E+00 -0.00000000000E+00 -0.38473915289E+04  0.38473915289E+04  0.00000000000E+00 0.  1.
         23    2    1    2    0    0  0.73225097832E+02 -0.31729075859E+03  0.11083357199E+01  0.33760026003E+03  0.89091900455E+02 0.  0.
        254    2    1    2    0    0 -0.73225097832E+02  0.31729075859E+03 -0.36164461162E+04  0.37418450173E+04  0.90370696675E+03 0.  0.
        -24    2    4    4    0    0  0.38387610531E+03  0.18881141411E+03 -0.11665342992E+04  0.12450915276E+04  0.80249776036E+02 0.  0.
         24    2    4    4    0    0 -0.45710120314E+03  0.12847934448E+03 -0.24499118170E+04  0.24967534897E+04  0.79130433102E+02 0.  0.
         13    1    3    3    0    0  0.85102805072E+02 -0.28726151051E+03  0.19856055219E+02  0.30025976384E+03  0.00000000000E+00 0. -1.
        -13    1    3    3    0    0 -0.11877707240E+02 -0.30029248075E+02 -0.18747719499E+02  0.37340496189E+02  0.00000000000E+00 0.  1.
          2    1    6    6  502    0 -0.40713092196E+03  0.11203255638E+03 -0.20220837388E+04  0.20657031558E+04  0.00000000000E+00 0. -1.
          1    1    5    5  503    0  0.30865388961E+03  0.16133707106E+03 -0.85000444624E+03  0.91858828247E+03  0.00000000000E+00 0. -1.
         -2    1    5    5    0  503  0.75222215697E+02  0.27474343050E+02 -0.31652985293E+03  0.32650324509E+03  0.00000000000E+00 0.  1.
         -1    1    6    6    0  502 -0.49970281184E+02  0.16446788102E+02 -0.42782807819E+03  0.43105033387E+03  0.00000000000E+00 0.  1.
<mgrwt>
<rscale>  0 0.18897636E+04</rscale>
<asrwt>0</asrwt>
<pdfrwt beam="1">  1        2 0.59190642E+00 0.18897636E+04</pdfrwt>
<pdfrwt beam="2">  1       -2 0.35700575E-01 0.18897636E+04</pdfrwt>
<totfact> 0.31562359E+00</totfact>
</mgrwt>
</event>
<event>
12    1  0.1519630E-007  0.1466668E+04  0.7818608E-02  0.8906926E-01
         -1   -1    0    0    0  501 -0.00000000000E+00  0.00000000000E+00  0.10281834288E+04  0.10281834288E+04  0.00000000000E+00 0.  1.
          1   -1    0    0  501    0  0.00000000000E+00 -0.00000000000E+00 -0.52303803239E+03  0.52303803239E+03  0.00000000000E+00 0. -1.
         23    2    1    2    0    0 -0.29235998590E+03  0.21551495055E+03 -0.10601263801E+03  0.38865193122E+03  0.88828987162E+02 0.  0.
        254    2    1    2    0    0  0.29235998590E+03 -0.21551495055E+03  0.61115803444E+03  0.11625695300E+04  0.91985472425E+03 0.  0.
        -24    2    4    4    0    0  0.53962294288E+03 -0.10949659427E+03  0.80320950996E+02  0.56213213744E+03  0.79741207238E+02 0.  0.
         24    2    4    4    0    0 -0.24726295698E+03 -0.10601835627E+03  0.53083708345E+03  0.60043739255E+03  0.79738268382E+02 0.  0.
         13    1    3    3    0    0 -0.19797990220E+03  0.17208984821E+03 -0.11055054958E+03  0.28466187231E+03  0.00000000000E+00 0. -1.
        -13    1    3    3    0    0 -0.94380083701E+02  0.43425102333E+02  0.45379115672E+01  0.10399005892E+03  0.00000000000E+00 0.  1.
          4    1    6    6  502    0 -0.18151934198E+03 -0.96580632647E+02  0.45699335522E+03  0.50111876520E+03  0.00000000000E+00 0. -1.
          1    1    5    5  503    0  0.48132094645E+03 -0.71212422748E+02  0.72876550502E+02  0.49198785987E+03  0.00000000000E+00 0. -1.
         -2    1    5    5    0  503  0.58301996431E+02 -0.38284171523E+02  0.74444004945E+01  0.70144277570E+02  0.00000000000E+00 0.  1.
         -3    1    6    6    0  502 -0.65743614998E+02 -0.94377236275E+01  0.73843728220E+02  0.99318627346E+02  0.00000000000E+00 0.  1.
<mgrwt>
<rscale>  0 0.14666684E+04</rscale>
<asrwt>0</asrwt>
<pdfrwt beam="1">  1        1 0.80467390E-01 0.14666684E+04</pdfrwt>
<pdfrwt beam="2">  1       -1 0.15818207E+00 0.14666684E+04</pdfrwt>
<totfact> 0.12182455E+01</totfact>
</mgrwt>
</event>
<event>
12    1  0.1519630E-007  0.1308878E+04  0.7818608E-02  0.9022554E-01
          2   -1    0    0  501    0  0.00000000000E+00  0.00000000000E+00  0.21411434859E+04  0.21411434859E+04  0.00000000000E+00 0. -1.
         -2   -1    0    0    0  501 -0.00000000000E+00 -0.00000000000E+00 -0.20002882734E+03  0.20002882734E+03  0.00000000000E+00 0.  1.
         23    2    1    2    0    0 -0.11393292533E+03  0.25778321290E+03  0.84865821228E+03  0.89889263827E+03  0.91401955939E+02 0.  0.
        254    2    1    2    0    0  0.11393292533E+03 -0.25778321290E+03  0.10924564463E+04  0.14422796750E+04  0.89848576922E+03 0.  0.
        -24    2    4    4    0    0 -0.38313093438E+03 -0.10480014854E+03  0.37169451467E+03  0.54982825499E+03  0.79886880903E+02 0.  0.
         24    2    4    4    0    0  0.49706385971E+03 -0.15298306435E+03  0.72076193162E+03  0.89245141998E+03  0.80594518098E+02 0.  0.
         13    1    3    3    0    0 -0.84735431802E+02  0.19535727625E+03  0.49946857305E+03  0.54296723129E+03  0.00000000000E+00 0. -1.
        -13    1    3    3    0    0 -0.29197493531E+02  0.62425936646E+02  0.34918963922E+03  0.35592540698E+03  0.00000000000E+00 0.  1.
          2    1    6    6  502    0  0.24821411777E+02 -0.18341407199E+02  0.20061713165E+02  0.36810080627E+02  0.00000000000E+00 0. -1.
          3    1    5    5  503    0 -0.88880025468E+02  0.95795044111E+01  0.86145727070E+02  0.12414713901E+03  0.00000000000E+00 0. -1.
         -4    1    5    5    0  503 -0.29425090891E+03 -0.11437965296E+03  0.28554878760E+03  0.42568111598E+03  0.00000000000E+00 0.  1.
         -1    1    6    6    0  502  0.47224244793E+03 -0.13464165715E+03  0.70070021846E+03  0.85564133936E+03  0.00000000000E+00 0.  1.
<mgrwt>
<rscale>  0 0.13088780E+04</rscale>
<asrwt>0</asrwt>
<pdfrwt beam="1">  1        2 0.32940667E+00 0.13088780E+04</pdfrwt>
<pdfrwt beam="2">  1       -2 0.30773667E-01 0.13088780E+04</pdfrwt>
<totfact> 0.53457378E+01</totfact>
</mgrwt>
</event>
<event>
12    1  0.1519630E-007  0.1215537E+04  0.7818608E-02  0.9099364E-01
          1   -1    0    0  501    0  0.00000000000E+00  0.00000000000E+00  0.11896772665E+04  0.11896772665E+04  0.00000000000E+00 0. -1.
         -1   -1    0    0    0  501 -0.00000000000E+00 -0.00000000000E+00 -0.31048985172E+03  0.31048985172E+03  0.00000000000E+00 0.  1.
         23    2    1    2    0    0  0.17845843305E+03  0.29041507290E+02  0.42641080553E+03  0.47468748665E+03  0.10397698516E+03 0.  0.
        254    2    1    2    0    0 -0.17845843305E+03 -0.29041507290E+02  0.45277660924E+03  0.10254796316E+04  0.90217015878E+03 0.  0.
        -24    2    4    4    0    0  0.11413914758E+03  0.23583107711E+02  0.64511673520E+03  0.66038603986E+03  0.79688215118E+02 0.  0.
         24    2    4    4    0    0 -0.29259758063E+03 -0.52624615001E+02 -0.19234012596E+03  0.36509359170E+03  0.88971413106E+02 0.  0.
         11    1    3    3    0    0  0.13619287065E+03  0.30592510351E+02  0.40268763318E+03  0.42619447395E+03  0.00000000000E+00 0. -1.
        -11    1    3    3    0    0  0.42265562396E+02 -0.15510030616E+01  0.23723172345E+02  0.48493012705E+02  0.00000000000E+00 0.  1.
          4    1    6    6  502    0 -0.80896391912E+02 -0.53361852045E+01 -0.10154735987E+03  0.12994063026E+03  0.00000000000E+00 0. -1.
          1    1    5    5  503    0  0.10265912832E+03  0.15843124183E+02  0.63447919688E+03  0.64292593079E+03  0.00000000000E+00 0. -1.
         -2    1    5    5    0  503  0.11480019260E+02  0.77399835282E+01  0.10637538323E+02  0.17460109072E+02  0.00000000000E+00 0.  1.
         -3    1    6    6    0  502 -0.21170118871E+03 -0.47288429796E+02 -0.90792766093E+02  0.23515296143E+03  0.00000000000E+00 0.  1.
<mgrwt>
<rscale>  0 0.12155373E+04</rscale>
<asrwt>0</asrwt>
<pdfrwt beam="1">  1        1 0.18302727E+00 0.12155373E+04</pdfrwt>
<pdfrwt beam="2">  1       -1 0.47767670E-01 0.12155373E+04</pdfrwt>
<totfact> 0.47041878E+01</totfact>
</mgrwt>
</event>
<event>
12    1  0.1519630E-007  0.2096879E+04  0.7818608E-02  0.8562619E-01
          2   -1    0    0  501    0  0.00000000000E+00  0.00000000000E+00  0.81749328703E+03  0.81749328703E+03  0.00000000000E+00 0.  1.
         -2   -1    0    0    0  501 -0.00000000000E+00 -0.00000000000E+00 -0.13446295937E+04  0.13446295937E+04  0.00000000000E+00 0. -1.
         23    2    1    2    0    0  0.59813752462E+03 -0.32496245784E+03  0.30718707777E+03  0.75253493785E+03  0.92605802057E+02 0.  0.
        254    2    1    2    0    0 -0.59813752462E+03  0.32496245784E+03 -0.83432338443E+03  0.14095879429E+04  0.90965573789E+03 0.  0.
        -24    2    4    4    0    0  0.22521716532E+03  0.16986855384E+03 -0.18535316379E+03  0.34746285640E+03  0.82441155434E+02 0.  0.
         24    2    4    4    0    0 -0.82335468994E+03  0.15509390400E+03 -0.64897022064E+03  0.10621250865E+04  0.70571152112E+02 0.  0.
         13    1    3    3    0    0  0.48933318271E+03 -0.22329680351E+03  0.23308312655E+03  0.58620488742E+03  0.00000000000E+00 0.  1.
        -13    1    3    3    0    0  0.10880434191E+03 -0.10166565433E+03  0.74103951219E+02  0.16633005043E+03  0.00000000000E+00 0. -1.
          4    1    6    6  502    0 -0.73904699837E+03  0.12267234041E+03 -0.59679833732E+03  0.95781377330E+03  0.00000000000E+00 0. -1.
          3    1    5    5  503    0  0.19648940728E+03  0.14347752319E+03 -0.11983103496E+03  0.27120723400E+03  0.00000000000E+00 0. -1.
         -4    1    5    5    0  503  0.28727758041E+02  0.26391030646E+02 -0.65522128828E+02  0.76255622395E+02  0.00000000000E+00 0.  1.
         -3    1    6    6    0  502 -0.84307691568E+02  0.32421563598E+02 -0.52171883319E+02  0.10431131316E+03  0.00000000000E+00 0.  1.
<mgrwt>
<rscale>  0 0.20968793E+04</rscale>
<asrwt>0</asrwt>
<pdfrwt beam="1">  1        2 0.12576820E+00 0.20968793E+04</pdfrwt>
<pdfrwt beam="2">  1       -2 0.20686609E+00 0.20968793E+04</pdfrwt>
<totfact> 0.36987911E+00</totfact>
</mgrwt>
</event>
<event>
12    1  0.1519630E-007  0.1729993E+04  0.7818608E-02  0.8744441E-01
         -1   -1    0    0    0  501 -0.00000000000E+00  0.00000000000E+00  0.22743531807E+03  0.22743531807E+03  0.00000000000E+00 0.  1.
          1   -1    0    0  501    0  0.00000000000E+00 -0.00000000000E+00 -0.32898086873E+04  0.32898086873E+04  0.00000000000E+00 0. -1.
         23    2    1    2    0    0  0.18463974963E+03  0.38750099696E+03 -0.19520122554E+03  0.48036829452E+03  0.91658715574E+02 0.  0.
        254    2    1    2    0    0 -0.18463974963E+03 -0.38750099696E+03 -0.28671721437E+04  0.30368757109E+04  0.90426164455E+03 0.  0.
        -24    2    4    4    0    0  0.31066180986E+03 -0.20542735727E+03 -0.18499479792E+04  0.18884208107E+04  0.71515547633E+02 0.  0.
         24    2    4    4    0    0 -0.49530155949E+03 -0.18207363968E+03 -0.10172241645E+04  0.11484549001E+04  0.75691555821E+02 0.  0.
         11    1    3    3    0    0  0.17322451844E+03  0.28869393837E+03 -0.12731081541E+03  0.35994300599E+03  0.00000000000E+00 0.  1.
        -11    1    3    3    0    0  0.11415231189E+02  0.98807058582E+02 -0.67890410132E+02  0.12042528853E+03  0.00000000000E+00 0. -1.
          4    1    6    6  502    0 -0.13123478681E+03 -0.29740592787E+02 -0.32275416642E+03  0.34968174684E+03  0.00000000000E+00 0. -1.
          3    1    5    5  503    0  0.15838982126E+03 -0.14160813414E+03 -0.95198296238E+03  0.97540338312E+03  0.00000000000E+00 0. -1.
         -4    1    5    5    0  503  0.15227198860E+03 -0.63819223137E+02 -0.89796501680E+03  0.91301742762E+03  0.00000000000E+00 0.  1.
         -3    1    6    6    0  502 -0.36406677267E+03 -0.15233304689E+03 -0.69446999813E+03  0.79877315330E+03  0.00000000000E+00 0.  1.
<mgrwt>
<rscale>  0 0.17299927E+04</rscale>
<asrwt>0</asrwt>
<pdfrwt beam="1">  1        1 0.50612435E+00 0.17299927E+04</pdfrwt>
<pdfrwt beam="2">  1       -1 0.34990053E-01 0.17299927E+04</pdfrwt>
<totfact> 0.26947808E+00</totfact>
</mgrwt>
</event>
<event>
12    1  0.1519630E-007  0.1032190E+04  0.7818608E-02  0.9273927E-01
          4   -1    0    0  501    0  0.00000000000E+00  0.00000000000E+00  0.27295290601E+04  0.27295290601E+04  0.00000000000E+00 0. -1.
         -4   -1    0    0    0  501 -0.00000000000E+00 -0.00000000000E+00 -0.97582491067E+02  0.97582491067E+02  0.00000000000E+00 0.  1.
         23    2    1    2    0    0  0.25622786376E+02 -0.63786816014E+00  0.59230229351E+03  0.59925433943E+03  0.87331680263E+02 0.  0.
        254    2    1    2    0    0 -0.25622786376E+02  0.63786816014E+00  0.20396442755E+04  0.22278572117E+04  0.89584711370E+03 0.  0.
        -24    2    4    4    0    0  0.22831895391E+03 -0.11172236408E+03  0.12966656338E+03  0.29617882274E+03  0.79353928905E+02 0.  0.
         24    2    4    4    0    0 -0.25394174029E+03  0.11236023224E+03  0.19099777121E+04  0.19316783890E+04  0.79090507319E+02 0.  0.
         13    1    3    3    0    0 -0.20945620491E+02 -0.26273317197E+02  0.32393004371E+03  0.32566805098E+03  0.00000000000E+00 0. -1.
        -13    1    3    3    0    0  0.46568406867E+02  0.25635449037E+02  0.26837224980E+03  0.27358628845E+03  0.00000000000E+00 0.  1.
          4    1    6    6  502    0 -0.10030504472E+03  0.20534773605E+02  0.91701754755E+03  0.92271553658E+03  0.00000000000E+00 0. -1.
          3    1    5    5  503    0  0.21354754397E+03 -0.94934642401E+02  0.13904006341E+03  0.27193248996E+03  0.00000000000E+00 0. -1.
         -4    1    5    5    0  503  0.14771409940E+02 -0.16787721677E+02 -0.93735000257E+01  0.24246332783E+02  0.00000000000E+00 0.  1.
         -3    1    6    6    0  502 -0.15363669556E+03  0.91825458633E+02  0.99296016457E+03  0.10089628524E+04  0.00000000000E+00 0.  1.
<mgrwt>
<rscale>  0 0.10321904E+04</rscale>
<asrwt>0</asrwt>
<pdfrwt beam="1">  1        4 0.41992749E+00 0.10321904E+04</pdfrwt>
<pdfrwt beam="2">  1       -4 0.15012693E-01 0.10321904E+04</pdfrwt>
<totfact> 0.39644017E-01</totfact>
</mgrwt>
</event>
<event>
12    1  0.1519630E-007  0.1419682E+04  0.7818608E-02  0.8939694E-01
          2   -1    0    0  501    0  0.00000000000E+00  0.00000000000E+00  0.19596265292E+04  0.19596265292E+04  0.00000000000E+00 0. -1.
         -2   -1    0    0    0  501 -0.00000000000E+00 -0.00000000000E+00 -0.25712752360E+03  0.25712752360E+03  0.00000000000E+00 0.  1.
         23    2    1    2    0    0 -0.30853457141E+03 -0.27757936204E+03  0.74173726679E+03  0.85793083665E+03  0.11673587085E+03 0.  0.
        254    2    1    2    0    0  0.30853457141E+03  0.27757936204E+03  0.96076173880E+03  0.13588232162E+04  0.86665652367E+03 0.  0.
        -24    2    4    4    0    0  0.13289713378E+03  0.93977015440E+02  0.10588526906E+04  0.10742033651E+04  0.79060240802E+02 0.  0.
         24    2    4    4    0    0  0.17563743763E+03  0.18360234660E+03 -0.98090951781E+02  0.28461985103E+03  0.82633489630E+02 0.  0.
         11    1    3    3    0    0 -0.10273627618E+03 -0.12573799747E+03  0.19088427294E+03  0.25060245830E+03  0.00000000000E+00 0. -1.
        -11    1    3    3    0    0 -0.20579829524E+03 -0.15184136457E+03  0.55085299385E+03  0.60732837835E+03  0.00000000000E+00 0.  1.
          4    1    6    6  502    0  0.11919950668E+03  0.11113288413E+03 -0.20256417202E+02  0.16422351466E+03  0.00000000000E+00 0. -1.
          1    1    5    5  503    0  0.57355944790E+02  0.23258411494E+01  0.46997885619E+03  0.47347147665E+03  0.00000000000E+00 0. -1.
         -2    1    5    5    0  503  0.75541188994E+02  0.91651174290E+02  0.58887383439E+03  0.60073188846E+03  0.00000000000E+00 0.  1.
         -3    1    6    6    0  502  0.56437930944E+02  0.72469462469E+02 -0.77834534579E+02  0.12039633638E+03  0.00000000000E+00 0.  1.
<mgrwt>
<rscale>  0 0.14196815E+04</rscale>
<asrwt>0</asrwt>
<pdfrwt beam="1">  1        2 0.30148099E+00 0.14196815E+04</pdfrwt>
<pdfrwt beam="2">  1       -2 0.39558082E-01 0.14196815E+04</pdfrwt>
<totfact> 0.41350588E+01</totfact>
</mgrwt>
</event>
<event>
12    1  0.1519630E-007  0.2349167E+04  0.7818608E-02  0.8458784E-01
         -2   -1    0    0    0  501 -0.00000000000E+00  0.00000000000E+00  0.91619810781E+03  0.91619810781E+03  0.00000000000E+00 0.  1.
          2   -1    0    0  501    0  0.00000000000E+00 -0.00000000000E+00 -0.15058383499E+04  0.15058383499E+04  0.00000000000E+00 0. -1.
         23    2    1    2    0    0 -0.88772732159E+03 -0.40350674508E+03 -0.47959960565E+03  0.10907417958E+04  0.93938238101E+02 0.  0.
        254    2    1    2    0    0  0.88772732159E+03  0.40350674508E+03 -0.11004063642E+03  0.13312946619E+04  0.89964384302E+03 0.  0.
        -24    2    4    4    0    0  0.47964710607E+03 -0.87665638251E+02  0.29009998627E+03  0.57353358066E+03  0.83881795487E+02 0.  0.
         24    2    4    4    0    0  0.40808021552E+03  0.49117238333E+03 -0.40014062269E+03  0.75776108123E+03  0.79432775691E+02 0.  0.
         11    1    3    3    0    0 -0.35789660261E+03 -0.15390358087E+03 -0.14155413230E+03  0.41450435792E+03  0.00000000000E+00 0.  1.
        -11    1    3    3    0    0 -0.52983071898E+03 -0.24960316421E+03 -0.33804547335E+03  0.67623743789E+03  0.00000000000E+00 0. -1.
          4    1    6    6  502    0  0.75286922943E+01 -0.22487683413E+01 -0.64540255555E+01  0.10168215802E+02  0.00000000000E+00 0. -1.
          3    1    5    5  503    0  0.93652320276E+02 -0.48973925086E+02  0.78484844140E+02  0.13163993767E+03  0.00000000000E+00 0. -1.
         -4    1    5    5    0  503  0.38599478579E+03 -0.38691713165E+02  0.21161514213E+03  0.44189364298E+03  0.00000000000E+00 0.  1.
         -3    1    6    6    0  502  0.40055152322E+03  0.49342115167E+03 -0.39368659714E+03  0.74759286543E+03  0.00000000000E+00 0.  1.
<mgrwt>
<rscale>  0 0.23491669E+04</rscale>
<asrwt>0</asrwt>
<pdfrwt beam="1">  1        2 0.23166744E+00 0.23491669E+04</pdfrwt>
<pdfrwt beam="2">  1       -2 0.14095356E+00 0.23491669E+04</pdfrwt>
<totfact> 0.40147694E+00</totfact>
</mgrwt>
</event>
<event>
12    1  0.1519630E-007  0.1394064E+04  0.7818608E-02  0.8958126E-01
         -1   -1    0    0    0  501 -0.00000000000E+00  0.00000000000E+00  0.87770407020E+03  0.87770407020E+03  0.00000000000E+00 0.  1.
          1   -1    0    0  501    0  0.00000000000E+00 -0.00000000000E+00 -0.55355072208E+03  0.55355072208E+03  0.00000000000E+00 0. -1.
         23    2    1    2    0    0  0.34320295272E+03 -0.46620305618E+02 -0.85234769551E+02  0.36802349876E+03  0.90634485979E+02 0.  0.
        254    2    1    2    0    0 -0.34320295272E+03  0.46620305618E+02  0.40938811767E+03  0.10632312935E+04  0.91809609138E+03 0.  0.
        -24    2    4    4    0    0 -0.15669976387E+03 -0.15790223190E+03 -0.24998981014E+03  0.34371902831E+03  0.78485249638E+02 0.  0.
         24    2    4    4    0    0 -0.18650318885E+03  0.20452253752E+03  0.65937792781E+03  0.71951226522E+03  0.79408691675E+02 0.  0.
         11    1    3    3    0    0  0.10041289617E+03 -0.12970104161E+02  0.16601907031E+02  0.10259920387E+03  0.00000000000E+00 0. -1.
        -11    1    3    3    0    0  0.24279005655E+03 -0.33650201457E+02 -0.10183667658E+03  0.26542429488E+03  0.00000000000E+00 0.  1.
          4    1    6    6  502    0 -0.44837816496E+01  0.30792889639E+02  0.37958212564E+02  0.49082912009E+02  0.00000000000E+00 0. -1.
          1    1    5    5  503    0 -0.68345090978E+02 -0.19900393977E+02 -0.89481563868E+02  0.11434171336E+03  0.00000000000E+00 0. -1.
         -2    1    5    5    0  503 -0.88354672891E+02 -0.13800183793E+03 -0.16050824627E+03  0.22937731495E+03  0.00000000000E+00 0.  1.
         -3    1    6    6    0  502 -0.18201940720E+03  0.17372964788E+03  0.62141971525E+03  0.67042935321E+03  0.00000000000E+00 0.  1.
<mgrwt>
<rscale>  0 0.13940642E+04</rscale>
<asrwt>0</asrwt>
<pdfrwt beam="1">  1        1 0.85161649E-01 0.13940642E+04</pdfrwt>
<pdfrwt beam="2">  1       -1 0.13503140E+00 0.13940642E+04</pdfrwt>
<totfact> 0.17266437E+01</totfact>
</mgrwt>
</event>
<event>
12    1  0.1519630E-007  0.1725057E+04  0.7818608E-02  0.8747201E-01
          1   -1    0    0  501    0  0.00000000000E+00  0.00000000000E+00  0.20399031898E+04  0.20399031898E+04  0.00000000000E+00 0. -1.
         -1   -1    0    0    0  501 -0.00000000000E+00 -0.00000000000E+00 -0.36470135428E+03  0.36470135428E+03  0.00000000000E+00 0.  1.
         23    2    1    2    0    0 -0.43569144429E+02 -0.41271233979E+03  0.12555840392E+04  0.13256180604E+04  0.92424113688E+02 0.  0.
        254    2    1    2    0    0  0.43569144429E+02  0.41271233979E+03  0.41961779630E+03  0.10789864837E+04  0.90327348638E+03 0.  0.
        -24    2    4    4    0    0  0.18691875654E+03  0.66184233982E+03  0.33679008697E+03  0.76993181241E+03  0.79959544474E+02 0.  0.
         24    2    4    4    0    0 -0.14334961211E+03 -0.24913000004E+03  0.82827709327E+02  0.30905467125E+03  0.77714169749E+02 0.  0.
         11    1    3    3    0    0 -0.32287108501E+02 -0.19175598203E+03  0.72797846129E+03  0.75350212616E+03  0.00000000000E+00 0. -1.
        -11    1    3    3    0    0 -0.11282035928E+02 -0.22095635775E+03  0.52760557790E+03  0.57211593423E+03  0.00000000000E+00 0.  1.
          2    1    6    6  502    0 -0.14175157032E+02 -0.82716467697E+02  0.44296936727E+02  0.94895562111E+02  0.00000000000E+00 0. -1.
          3    1    5    5  503    0  0.23242648604E+01  0.10996216889E+03  0.63759628202E+02  0.12713131394E+03  0.00000000000E+00 0. -1.
         -4    1    5    5    0  503  0.18459449168E+03  0.55188017093E+03  0.27303045877E+03  0.64280049847E+03  0.00000000000E+00 0.  1.
         -1    1    6    6    0  502 -0.12917445508E+03 -0.16641353234E+03  0.38530772600E+02  0.21415910914E+03  0.00000000000E+00 0.  1.
<mgrwt>
<rscale>  0 0.17250570E+04</rscale>
<asrwt>0</asrwt>
<pdfrwt beam="1">  1        1 0.31383125E+00 0.17250570E+04</pdfrwt>
<pdfrwt beam="2">  1       -1 0.56107902E-01 0.17250570E+04</pdfrwt>
<totfact> 0.85469069E+00</totfact>
</mgrwt>
</event>
<event>
12    1  0.1519630E-007  0.2273814E+04  0.7818608E-02  0.8488318E-01
         -2   -1    0    0    0  501 -0.00000000000E+00  0.00000000000E+00  0.12962362034E+04  0.12962362034E+04  0.00000000000E+00 0. -1.
          2   -1    0    0  501    0  0.00000000000E+00 -0.00000000000E+00 -0.99716226004E+03  0.99716226004E+03  0.00000000000E+00 0.  1.
         23    2    1    2    0    0  0.16189383987E+03 -0.56142125856E+03  0.88795865909E+03  0.10668883039E+04  0.91523919572E+02 0.  0.
        254    2    1    2    0    0 -0.16189383987E+03  0.56142125856E+03 -0.58888471576E+03  0.12265101595E+04  0.90340385094E+03 0.  0.
        -24    2    4    4    0    0  0.29954673853E+03  0.66926631813E+02  0.13239105787E+02  0.31753564356E+03  0.80288158507E+02 0.  0.
         24    2    4    4    0    0 -0.46144057841E+03  0.49449462674E+03 -0.60212382155E+03  0.90897451592E+03  0.78925476421E+02 0.  0.
         13    1    3    3    0    0  0.15347658273E+03 -0.52365767830E+03  0.86231860174E+03  0.10204733198E+04  0.00000000000E+00 0. -1.
        -13    1    3    3    0    0  0.84172571390E+01 -0.37763580261E+02  0.25640057347E+02  0.46414984139E+02  0.00000000000E+00 0.  1.
          4    1    6    6  502    0 -0.12539196195E+03  0.13966061748E+03 -0.21586700895E+03  0.28605383715E+03  0.00000000000E+00 0. -1.
          3    1    5    5  503    0  0.12304875838E+02  0.15469699480E+02 -0.14340552158E+02  0.24420749529E+02  0.00000000000E+00 0. -1.
         -4    1    5    5    0  503  0.28724186270E+03  0.51456932334E+02  0.27579657945E+02  0.29311489403E+03  0.00000000000E+00 0.  1.
         -3    1    6    6    0  502 -0.33604861646E+03  0.35483400926E+03 -0.38625681260E+03  0.62292067876E+03  0.00000000000E+00 0.  1.
<mgrwt>
<rscale>  0 0.22738143E+04</rscale>
<asrwt>0</asrwt>
<pdfrwt beam="1">  1        2 0.15340958E+00 0.22738143E+04</pdfrwt>
<pdfrwt beam="2">  1       -2 0.19942095E+00 0.22738143E+04</pdfrwt>
<totfact> 0.30827461E+00</totfact>
</mgrwt>
</event>
<event>
12    1  0.1519630E-007  0.2301369E+04  0.7818608E-02  0.8477382E-01
          1   -1    0    0  501    0  0.00000000000E+00  0.00000000000E+00  0.20946184548E+04  0.20946184548E+04  0.00000000000E+00 0. -1.
         -1   -1    0    0    0  501 -0.00000000000E+00 -0.00000000000E+00 -0.63213166166E+03  0.63213166166E+03  0.00000000000E+00 0.  1.
         23    2    1    2    0    0  0.18402348195E+03  0.71509968635E+03 -0.13045325082E+03  0.75608447648E+03  0.97023098294E+02 0.  0.
        254    2    1    2    0    0 -0.18402348195E+03 -0.71509968635E+03  0.15929400440E+04  0.19706656400E+04  0.89489266265E+03 0.  0.
        -24    2    4    4    0    0 -0.51932456122E+03 -0.28457185764E+03  0.96534448126E+03  0.11352075452E+04  0.78275546131E+02 0.  0.
         24    2    4    4    0    0  0.33530107926E+03 -0.43052782871E+03  0.62759556274E+03  0.83545809483E+03  0.79580228671E+02 0.  0.
         13    1    3    3    0    0  0.90637037539E+02  0.22085609884E+03 -0.10349517401E+02  0.23895522903E+03  0.00000000000E+00 0. -1.
        -13    1    3    3    0    0  0.93386444412E+02  0.49424358751E+03 -0.12010373342E+03  0.51712924745E+03  0.00000000000E+00 0.  1.
          2    1    6    6  502    0  0.45454232440E+02 -0.99943515025E+02  0.98191185925E+02  0.14729664774E+03  0.00000000000E+00 0. -1.
          1    1    5    5  503    0 -0.38045713876E+03 -0.21283145829E+03  0.64138575929E+03  0.77551309228E+03  0.00000000000E+00 0. -1.
         -2    1    5    5    0  503 -0.13886742245E+03 -0.71740399346E+02  0.32395872197E+03  0.35969445292E+03  0.00000000000E+00 0.  1.
         -1    1    6    6    0  502  0.28984684682E+03 -0.33058431369E+03  0.52940437681E+03  0.68816144709E+03  0.00000000000E+00 0.  1.
<mgrwt>
<rscale>  0 0.23013688E+04</rscale>
<asrwt>0</asrwt>
<pdfrwt beam="1">  1        1 0.32224899E+00 0.23013688E+04</pdfrwt>
<pdfrwt beam="2">  1       -1 0.97251026E-01 0.23013688E+04</pdfrwt>
<totfact> 0.23585013E+00</totfact>
</mgrwt>
</event>
<event>
12    1  0.1519630E-007  0.2126697E+04  0.7818608E-02  0.8549574E-01
         -2   -1    0    0    0  501 -0.00000000000E+00  0.00000000000E+00  0.46660442603E+03  0.46660442603E+03  0.00000000000E+00 0.  1.
          2   -1    0    0  501    0  0.00000000000E+00 -0.00000000000E+00 -0.24232722190E+04  0.24232722190E+04  0.00000000000E+00 0. -1.
         23    2    1    2    0    0  0.46313659451E+03 -0.37733487444E+02  0.19024673107E+03  0.51055425697E+03  0.92479778210E+02 0.  0.
        254    2    1    2    0    0 -0.46313659451E+03  0.37733487444E+02 -0.21469145240E+04  0.23793223881E+04  0.91433786509E+03 0.  0.
        -24    2    4    4    0    0 -0.26133355696E+03 -0.32362200216E+03 -0.40115018080E+03  0.58326236243E+03  0.79038519652E+02 0.  0.
         24    2    4    4    0    0 -0.20180303755E+03  0.36135548961E+03 -0.17457643432E+04  0.17960600256E+04  0.82681423038E+02 0.  0.
         11    1    3    3    0    0  0.40201941589E+03 -0.48737705129E+02  0.13341307765E+03  0.42637310415E+03  0.00000000000E+00 0.  1.
        -11    1    3    3    0    0  0.61117178623E+02  0.11004217685E+02  0.56833653417E+02  0.84181152822E+02  0.00000000000E+00 0. -1.
          4    1    6    6  502    0 -0.63365632049E+02  0.11059977970E+03 -0.71333908136E+03  0.72463795070E+03  0.00000000000E+00 0. -1.
          3    1    5    5  503    0 -0.25154439584E+02 -0.76198522088E+02 -0.60272069324E+02  0.10035777469E+03  0.00000000000E+00 0. -1.
         -4    1    5    5    0  503 -0.23617911738E+03 -0.24742348008E+03 -0.34087811148E+03  0.48290458774E+03  0.00000000000E+00 0.  1.
         -3    1    6    6    0  502 -0.13843740550E+03  0.25075570991E+03 -0.10324252619E+04  0.10714220749E+04  0.00000000000E+00 0.  1.
<mgrwt>
<rscale>  0 0.21266965E+04</rscale>
<asrwt>0</asrwt>
<pdfrwt beam="1">  1        2 0.37281111E+00 0.21266965E+04</pdfrwt>
<pdfrwt beam="2">  1       -2 0.71785296E-01 0.21266965E+04</pdfrwt>
<totfact> 0.62364359E+00</totfact>
</mgrwt>
</event>
<event>
12    1  0.1519630E-007  0.2125667E+04  0.7818608E-02  0.8550020E-01
         -2   -1    0    0    0  501 -0.00000000000E+00  0.00000000000E+00  0.54109677350E+03  0.54109677350E+03  0.00000000000E+00 0.  1.
          2   -1    0    0  501    0  0.00000000000E+00 -0.00000000000E+00 -0.20876401538E+04  0.20876401538E+04  0.00000000000E+00 0. -1.
         23    2    1    2    0    0  0.68832835879E+03  0.48837837555E+03 -0.38213802201E+03  0.93240283178E+03  0.10505334654E+03 0.  0.
        254    2    1    2    0    0 -0.68832835879E+03 -0.48837837555E+03 -0.11644053583E+04  0.16963340956E+04  0.89966669275E+03 0.  0.
        -24    2    4    4    0    0 -0.45454317114E+03 -0.24939956961E+03 -0.12380525865E+04  0.13451661799E+04  0.88815565893E+02 0.  0.
         24    2    4    4    0    0 -0.23378518765E+03 -0.23897880594E+03  0.73647228224E+02  0.35116791566E+03  0.78285420789E+02 0.  0.
         11    1    3    3    0    0  0.55021419690E+02  0.27535357311E+02 -0.14251715458E+01  0.61543347657E+02  0.00000000000E+00 0. -1.
        -11    1    3    3    0    0  0.63330693910E+03  0.46084301823E+03 -0.38071285046E+03  0.87085948412E+03  0.00000000000E+00 0.  1.
          2    1    6    6  502    0 -0.18599644396E+03 -0.13786377461E+03  0.49756494070E+02  0.23680541847E+03  0.00000000000E+00 0. -1.
          3    1    5    5  503    0 -0.16708806427E+03 -0.14159569017E+03 -0.51482454714E+03  0.55947482074E+03  0.00000000000E+00 0. -1.
         -4    1    5    5    0  503 -0.28745510687E+03 -0.10780387943E+03 -0.72322803941E+03  0.78569135917E+03  0.00000000000E+00 0.  1.
         -1    1    6    6    0  502 -0.47788743698E+02 -0.10111503133E+03  0.23890734153E+02  0.11436249719E+03  0.00000000000E+00 0.  1.
<mgrwt>
<rscale>  0 0.21256673E+04</rscale>
<asrwt>0</asrwt>
<pdfrwt beam="1">  1        2 0.32117541E+00 0.21256673E+04</pdfrwt>
<pdfrwt beam="2">  1       -2 0.83245658E-01 0.21256673E+04</pdfrwt>
<totfact> 0.69358503E+00</totfact>
</mgrwt>
</event>
<event>
12    1  0.1519630E-007  0.1279185E+04  0.7818608E-02  0.9046236E-01
          3   -1    0    0  501    0  0.00000000000E+00  0.00000000000E+00  0.19363801783E+03  0.19363801783E+03  0.00000000000E+00 0. -1.
         -3   -1    0    0    0  501 -0.00000000000E+00 -0.00000000000E+00 -0.21125943403E+04  0.21125943403E+04  0.00000000000E+00 0.  1.
         23    2    1    2    0    0  0.20979699558E+02  0.13321346134E+03 -0.12040051949E+03  0.20275255994E+03  0.91795105500E+02 0.  0.
        254    2    1    2    0    0 -0.20979699558E+02 -0.13321346134E+03 -0.17985558030E+04  0.21034797982E+04  0.10824224272E+04 0.  0.
        -24    2    4    4    0    0 -0.47739031652E+03 -0.11537620988E+03 -0.42965732996E+03  0.65832987215E+03  0.87060985933E+02 0.  0.
         24    2    4    4    0    0  0.45641061696E+03 -0.17837251458E+02 -0.13688984730E+04  0.14451499261E+04  0.77113296504E+02 0.  0.
         13    1    3    3    0    0 -0.16889540718E+02  0.66931024953E+01  0.67930276019E+01  0.19395861174E+02  0.00000000000E+00 0. -1.
        -13    1    3    3    0    0  0.37869240276E+02  0.12652035885E+03 -0.12719354710E+03  0.18335669877E+03  0.00000000000E+00 0.  1.
          2    1    6    6  502    0  0.69804144265E+02  0.23654072043E+02 -0.24848694885E+03  0.25918699317E+03  0.00000000000E+00 0. -1.
          3    1    5    5  503    0 -0.38395024418E+02  0.13204517789E+02 -0.25653244079E+02  0.48027347645E+02  0.00000000000E+00 0. -1.
         -4    1    5    5    0  503 -0.43899529210E+03 -0.12858072767E+03 -0.40400408588E+03  0.61030252451E+03  0.00000000000E+00 0.  1.
         -1    1    6    6    0  502  0.38660647269E+03 -0.41491323502E+02 -0.11204115242E+04  0.11859629329E+04  0.00000000000E+00 0.  1.
<mgrwt>
<rscale>  0 0.12791850E+04</rscale>
<asrwt>0</asrwt>
<pdfrwt beam="1">  1        3 0.29790464E-01 0.12791850E+04</pdfrwt>
<pdfrwt beam="2">  1       -3 0.32501451E+00 0.12791850E+04</pdfrwt>
<totfact> 0.78722936E-01</totfact>
</mgrwt>
</event>
<event>
12    1  0.1519630E-007  0.1358748E+04  0.7818608E-02  0.8984232E-01
          1   -1    0    0  501    0  0.00000000000E+00  0.00000000000E+00  0.90266760149E+03  0.90266760149E+03  0.00000000000E+00 0. -1.
         -1   -1    0    0    0  501 -0.00000000000E+00 -0.00000000000E+00 -0.51131683482E+03  0.51131683482E+03  0.00000000000E+00 0.  1.
         23    2    1    2    0    0 -0.17722832443E+03 -0.25924636350E+03  0.31789235102E+03  0.45574598758E+03  0.89611954500E+02 0.  0.
        254    2    1    2    0    0  0.17722832443E+03  0.25924636350E+03  0.73458415648E+02  0.95823844873E+03  0.90233376853E+03 0.  0.
        -24    2    4    4    0    0  0.39566731019E+03 -0.18056651350E+03  0.12452717080E+03  0.45880986378E+03  0.76436828086E+02 0.  0.
         24    2    4    4    0    0 -0.21843898576E+03  0.43981287700E+03 -0.51068755151E+02  0.49942858495E+03  0.75298980336E+02 0.  0.
         11    1    3    3    0    0 -0.16787274385E+02 -0.69076263933E+01  0.53856706139E+02  0.56833728365E+02  0.00000000000E+00 0.  1.
        -11    1    3    3    0    0 -0.16044105004E+03 -0.25233873711E+03  0.26403564488E+03  0.39891225922E+03  0.00000000000E+00 0. -1.
          2    1    6    6  502    0 -0.12301335326E+03  0.24810262389E+03  0.88203606822E+01  0.27706496680E+03  0.00000000000E+00 0. -1.
          1    1    5    5  503    0  0.33157269239E+03 -0.17677658906E+03  0.92083148120E+02  0.38687170864E+03  0.00000000000E+00 0. -1.
         -2    1    5    5    0  503  0.64094617794E+02 -0.37899244441E+01  0.32444022679E+02  0.71938155141E+02  0.00000000000E+00 0.  1.
         -1    1    6    6    0  502 -0.95425632495E+02  0.19171025311E+03 -0.59889115833E+02  0.22236361815E+03  0.00000000000E+00 0.  1.
<mgrwt>
<rscale>  0 0.13587482E+04</rscale>
<asrwt>0</asrwt>
<pdfrwt beam="1">  1        1 0.13887194E+00 0.13587482E+04</pdfrwt>
<pdfrwt beam="2">  1       -1 0.78664129E-01 0.13587482E+04</pdfrwt>
<totfact> 0.28642399E+01</totfact>
</mgrwt>
</event>
<event>
12    1  0.1519630E-007  0.1174745E+04  0.7818608E-02  0.9135254E-01
         -2   -1    0    0    0  501 -0.00000000000E+00  0.00000000000E+00  0.10969701069E+04  0.10969701069E+04  0.00000000000E+00 0.  1.
          2   -1    0    0  501    0  0.00000000000E+00 -0.00000000000E+00 -0.31450856081E+03  0.31450856081E+03  0.00000000000E+00 0. -1.
         23    2    1    2    0    0  0.22045088789E+03  0.14742649613E+02  0.52757430223E+02  0.25389363190E+03  0.11341380069E+03 0.  0.
        254    2    1    2    0    0 -0.22045088789E+03 -0.14742649613E+02  0.72970411587E+03  0.11575850358E+04  0.87104482017E+03 0.  0.
        -24    2    4    4    0    0 -0.15487658169E+03  0.34362699684E+03  0.67949632540E+03  0.78109347452E+03  0.79532956622E+02 0.  0.
         24    2    4    4    0    0 -0.65574306204E+02 -0.35836964646E+03  0.50207790462E+02  0.37649156129E+03  0.80599505992E+02 0.  0.
         11    1    3    3    0    0  0.17490364853E+03  0.57438246097E+02  0.52611223620E+02  0.19146378048E+03  0.00000000000E+00 0. -1.
        -11    1    3    3    0    0  0.45547239363E+02 -0.42695596485E+02  0.14620660301E+00  0.62429851427E+02  0.00000000000E+00 0.  1.
          4    1    6    6  502    0 -0.78274522222E+02 -0.34789840826E+03  0.46451141632E+02  0.35960799749E+03  0.00000000000E+00 0. -1.
          1    1    5    5  503    0 -0.11019587833E+03  0.15463069578E+03  0.36586149547E+03  0.41219948756E+03  0.00000000000E+00 0. -1.
         -2    1    5    5    0  503 -0.44680703356E+02  0.18899630106E+03  0.31363482993E+03  0.36889398696E+03  0.00000000000E+00 0.  1.
         -3    1    6    6    0  502  0.12700216018E+02 -0.10471238196E+02  0.37566488306E+01  0.16883563803E+02  0.00000000000E+00 0.  1.
<mgrwt>
<rscale>  0 0.11747451E+04</rscale>
<asrwt>0</asrwt>
<pdfrwt beam="1">  1        2 0.48385933E-01 0.11747451E+04</pdfrwt>
<pdfrwt beam="2">  1       -2 0.16876463E+00 0.11747451E+04</pdfrwt>
<totfact> 0.22362876E+01</totfact>
</mgrwt>
</event>
<event>
12    1  0.1519630E-007  0.1298814E+04  0.7818608E-02  0.9030507E-01
         -1   -1    0    0    0  501 -0.00000000000E+00  0.00000000000E+00  0.41874004726E+03  0.41874004726E+03  0.00000000000E+00 0.  1.
          1   -1    0    0  501    0  0.00000000000E+00 -0.00000000000E+00 -0.10071383393E+04  0.10071383393E+04  0.00000000000E+00 0. -1.
         23    2    1    2    0    0  0.23640201182E+03  0.15267710434E+03  0.27556858971E+02  0.29999152034E+03  0.10019641918E+03 0.  0.
        254    2    1    2    0    0 -0.23640201182E+03 -0.15267710434E+03 -0.61595515101E+03  0.11258868662E+04  0.89945776892E+03 0.  0.
        -24    2    4    4    0    0  0.79033511237E+02 -0.40276682699E+03 -0.57852728014E+03  0.71380771282E+03  0.79751013753E+02 0.  0.
         24    2    4    4    0    0 -0.31543552305E+03  0.25008972265E+03 -0.37427870865E+02  0.41207915339E+03  0.79774335216E+02 0.  0.
         13    1    3    3    0    0  0.18455639108E+03  0.63819531827E+02  0.92473529871E+01  0.19549810144E+03  0.00000000000E+00 0.  1.
        -13    1    3    3    0    0  0.51845620738E+02  0.88857572513E+02  0.18309505984E+02  0.10449341889E+03  0.00000000000E+00 0. -1.
          2    1    6    6  502    0 -0.12081690629E+03  0.51028203535E+02  0.23611542232E+00  0.13115127964E+03  0.00000000000E+00 0. -1.
          3    1    5    5  503    0  0.25338324012E+02 -0.17255628252E+03 -0.18134480482E+03  0.25160214533E+03  0.00000000000E+00 0. -1.
         -4    1    5    5    0  503  0.53695187225E+02 -0.23021054447E+03 -0.39718247532E+03  0.46220556749E+03  0.00000000000E+00 0.  1.
         -1    1    6    6    0  502 -0.19461861677E+03  0.19906151912E+03 -0.37663986287E+02  0.28092787375E+03  0.00000000000E+00 0.  1.
<mgrwt>
<rscale>  0 0.12988135E+04</rscale>
<asrwt>0</asrwt>
<pdfrwt beam="1">  1        1 0.15494436E+00 0.12988135E+04</pdfrwt>
<pdfrwt beam="2">  1       -1 0.64421545E-01 0.12988135E+04</pdfrwt>
<totfact> 0.35867190E+01</totfact>
</mgrwt>
</event>
<event>
12    1  0.1519630E-007  0.2095881E+04  0.7818608E-02  0.8563060E-01
          2   -1    0    0  501    0  0.00000000000E+00  0.00000000000E+00  0.17585422896E+04  0.17585422896E+04  0.00000000000E+00 0. -1.
         -2   -1    0    0    0  501 -0.00000000000E+00 -0.00000000000E+00 -0.62448259015E+03  0.62448259015E+03  0.00000000000E+00 0.  1.
         23    2    1    2    0    0 -0.40238930667E+02 -0.42492082106E+03 -0.37511348955E+03  0.57602773193E+03  0.94450739561E+02 0.  0.
        254    2    1    2    0    0  0.40238930667E+02  0.42492082106E+03  0.15091731890E+04  0.18069971478E+04  0.89747317625E+03 0.  0.
        -24    2    4    4    0    0  0.32387085955E+03 -0.32665987978E+02  0.10243901809E+04  0.10781352619E+04  0.83910665442E+02 0.  0.
         24    2    4    4    0    0 -0.28363192889E+03  0.45758680903E+03  0.48478300806E+03  0.72886188588E+03  0.79952016258E+02 0.  0.
         13    1    3    3    0    0 -0.32867607480E+02 -0.40012719538E+03 -0.37612989179E+03  0.55014157051E+03  0.00000000000E+00 0.  1.
        -13    1    3    3    0    0 -0.73713231866E+01 -0.24793625673E+02  0.10164022411E+01  0.25886161419E+02  0.00000000000E+00 0. -1.
          4    1    6    6  502    0 -0.72003621424E+02  0.18731576464E+03  0.19097303564E+03  0.27702421829E+03  0.00000000000E+00 0. -1.
          3    1    5    5  503    0  0.66337150879E+02 -0.40341950760E+02  0.27129420145E+03  0.28218546086E+03  0.00000000000E+00 0. -1.
         -4    1    5    5    0  503  0.25753370867E+03  0.76759627822E+01  0.75309597946E+03  0.79594980104E+03  0.00000000000E+00 0.  1.
         -3    1    6    6    0  502 -0.21162830746E+03  0.27027104439E+03  0.29380997242E+03  0.45183766759E+03  0.00000000000E+00 0.  1.
<mgrwt>
<rscale>  0 0.20958808E+04</rscale>
<asrwt>0</asrwt>
<pdfrwt beam="1">  1        2 0.27054497E+00 0.20958808E+04</pdfrwt>
<pdfrwt beam="2">  1       -2 0.96074245E-01 0.20958808E+04</pdfrwt>
<totfact> 0.76141865E+00</totfact>
</mgrwt>
</event>
<event>
12    1  0.1519630E-007  0.2265462E+04  0.7818608E-02  0.8491665E-01
         -2   -1    0    0    0  501 -0.00000000000E+00  0.00000000000E+00  0.10558556871E+04  0.10558556871E+04  0.00000000000E+00 0.  1.
          2   -1    0    0  501    0  0.00000000000E+00 -0.00000000000E+00 -0.12152035029E+04  0.12152035029E+04  0.00000000000E+00 0. -1.
         23    2    1    2    0    0  0.66157610188E+03 -0.57647576540E+03 -0.44399196600E+03  0.98741726862E+03  0.88638309032E+02 0.  0.
        254    2    1    2    0    0 -0.66157610188E+03  0.57647576540E+03  0.28464415018E+03  0.12836419214E+04  0.89258447417E+03 0.  0.
        -24    2    4    4    0    0 -0.81587202353E+02 -0.12994963956E+03  0.32264446483E+03  0.36536660652E+03  0.76484809358E+02 0.  0.
         24    2    4    4    0    0 -0.57998889952E+03  0.70642540497E+03 -0.38000314651E+02  0.91827531490E+03  0.79759348606E+02 0.  0.
         11    1    3    3    0    0  0.46421753315E+03 -0.43485108220E+03 -0.35688500359E+03  0.72935607735E+03  0.00000000000E+00 0. -1.
        -11    1    3    3    0    0  0.19735856872E+03 -0.14162468320E+03 -0.87106962409E+02  0.25806119127E+03  0.00000000000E+00 0.  1.
          4    1    6    6  502    0 -0.12312385798E+03  0.13594455586E+03  0.23059212968E+02  0.18485706363E+03  0.00000000000E+00 0. -1.
          1    1    5    5  503    0 -0.66379943796E+01 -0.72822706122E+02  0.10260411936E+03  0.12599529676E+03  0.00000000000E+00 0. -1.
         -2    1    5    5    0  503 -0.74949207973E+02 -0.57126933442E+02  0.22004034547E+03  0.23937130976E+03  0.00000000000E+00 0.  1.
         -3    1    6    6    0  502 -0.45686504154E+03  0.57048084911E+03 -0.61059527619E+02  0.73341825127E+03  0.00000000000E+00 0.  1.
<mgrwt>
<rscale>  0 0.22654620E+04</rscale>
<asrwt>0</asrwt>
<pdfrwt beam="1">  1        2 0.18695439E+00 0.22654620E+04</pdfrwt>
<pdfrwt beam="2">  1       -2 0.16243934E+00 0.22654620E+04</pdfrwt>
<totfact> 0.40760702E+00</totfact>
</mgrwt>
</event>
<event>
12    1  0.1519630E-007  0.1325452E+04  0.7818608E-02  0.9009621E-01
         -1   -1    0    0    0  501 -0.00000000000E+00  0.00000000000E+00  0.39775261113E+03  0.39775261113E+03  0.00000000000E+00 0.  1.
          1   -1    0    0  501    0  0.00000000000E+00 -0.00000000000E+00 -0.11042184411E+04  0.11042184411E+04  0.00000000000E+00 0. -1.
         23    2    1    2    0    0 -0.12681477768E+03  0.33431994073E+03 -0.21395998064E+03  0.42890701365E+03  0.10163927606E+03 0.  0.
        254    2    1    2    0    0  0.12681477768E+03 -0.33431994073E+03 -0.49250584932E+03  0.10730640386E+04  0.88377180802E+03 0.  0.
        -24    2    4    4    0    0 -0.32851716409E+03 -0.34359565851E+03 -0.32970709843E+03  0.58288894129E+03  0.71212663747E+02 0.  0.
         24    2    4    4    0    0  0.45533194177E+03  0.92757177760E+01 -0.16279875089E+03  0.49017509728E+03  0.79718106871E+02 0.  0.
         11    1    3    3    0    0 -0.83441391950E+02  0.25221914487E+03 -0.20511628258E+03  0.33563321097E+03  0.00000000000E+00 0.  1.
        -11    1    3    3    0    0 -0.43373385728E+02  0.82100795864E+02 -0.88436980552E+01  0.93273802679E+02  0.00000000000E+00 0. -1.
          4    1    6    6  502    0  0.11535423130E+03 -0.24741863073E+02 -0.19109683495E+02  0.11951543194E+03  0.00000000000E+00 0. -1.
          1    1    5    5  503    0 -0.14252641495E+03 -0.10117092451E+03 -0.13063498740E+03  0.21820823738E+03  0.00000000000E+00 0. -1.
         -2    1    5    5    0  503 -0.18599074914E+03 -0.24242473400E+03 -0.19907211102E+03  0.36468070392E+03  0.00000000000E+00 0.  1.
         -3    1    6    6    0  502  0.33997771047E+03  0.34017580849E+02 -0.14368906740E+03  0.37065966534E+03  0.00000000000E+00 0.  1.
<mgrwt>
<rscale>  0 0.13254520E+04</rscale>
<asrwt>0</asrwt>
<pdfrwt beam="1">  1        1 0.16987976E+00 0.13254520E+04</pdfrwt>
<pdfrwt beam="2">  1       -1 0.61192710E-01 0.13254520E+04</pdfrwt>
<totfact> 0.33430205E+01</totfact>
</mgrwt>
</event>
<event>
12    1  0.1519630E-007  0.1679476E+04  0.7818608E-02  0.8773157E-01
          2   -1    0    0  501    0  0.00000000000E+00  0.00000000000E+00  0.65707521062E+03  0.65707521062E+03  0.00000000000E+00 0. -1.
         -2   -1    0    0    0  501 -0.00000000000E+00 -0.00000000000E+00 -0.10731803920E+04  0.10731803920E+04  0.00000000000E+00 0.  1.
         23    2    1    2    0    0 -0.26223008694E+03 -0.50796047287E+03 -0.31362398428E+03  0.65864807788E+03  0.93106532976E+02 0.  0.
        254    2    1    2    0    0  0.26223008694E+03  0.50796047287E+03 -0.10248119714E+03  0.10716075248E+04  0.90058416092E+03 0.  0.
        -24    2    4    4    0    0  0.41591025633E+03  0.56425677750E+03  0.18571294306E+03  0.73047029217E+03  0.87923252036E+02 0.  0.
         24    2    4    4    0    0 -0.15368016939E+03 -0.56296304638E+02 -0.28819414020E+03  0.34113723260E+03  0.80820050989E+02 0.  0.
         13    1    3    3    0    0 -0.21135918941E+03 -0.47103679428E+03 -0.28211631976E+03  0.58833492705E+03  0.00000000000E+00 0.  1.
        -13    1    3    3    0    0 -0.50870897522E+02 -0.36923678588E+02 -0.31507664520E+02  0.70313150823E+02  0.00000000000E+00 0. -1.
          2    1    6    6  502    0  0.24514410789E+01 -0.15136095550E+02 -0.57780196467E+02  0.59780114215E+02  0.00000000000E+00 0. -1.
          1    1    5    5  503    0  0.93778586840E+02  0.10236557869E+03  0.44869131468E+01  0.13890020677E+03  0.00000000000E+00 0. -1.
         -2    1    5    5    0  503  0.32213166949E+03  0.46189119881E+03  0.18122602992E+03  0.59157008540E+03  0.00000000000E+00 0.  1.
         -1    1    6    6    0  502 -0.15613161047E+03 -0.41160209087E+02 -0.23041394374E+03  0.28135711839E+03  0.00000000000E+00 0.  1.
<mgrwt>
<rscale>  0 0.16794764E+04</rscale>
<asrwt>0</asrwt>
<pdfrwt beam="1">  1        2 0.10108849E+00 0.16794764E+04</pdfrwt>
<pdfrwt beam="2">  1       -2 0.16510467E+00 0.16794764E+04</pdfrwt>
<totfact> 0.97641835E+00</totfact>
</mgrwt>
</event>
<event>
12    1  0.1519630E-007  0.1783829E+04  0.7818608E-02  0.8714946E-01
          1   -1    0    0  501    0  0.00000000000E+00  0.00000000000E+00  0.21996312534E+04  0.21996312534E+04  0.00000000000E+00 0. -1.
         -1   -1    0    0    0  501 -0.00000000000E+00 -0.00000000000E+00 -0.36165681263E+03  0.36165681263E+03  0.00000000000E+00 0.  1.
         23    2    1    2    0    0  0.43223159678E+03  0.26955177657E+03  0.94001633849E+02  0.52597195871E+03  0.91257222627E+02 0.  0.
        254    2    1    2    0    0 -0.43223159678E+03 -0.26955177657E+03  0.17439728070E+04  0.20353161074E+04  0.91738115957E+03 0.  0.
        -24    2    4    4    0    0 -0.39538491867E+03 -0.20220527869E+02  0.16853079931E+03  0.43771346243E+03  0.80326466465E+02 0.  0.
         24    2    4    4    0    0 -0.36846678109E+02 -0.24933124870E+03  0.15754420077E+04  0.15976026449E+04  0.82419308035E+02 0.  0.
         13    1    3    3    0    0  0.29931854016E+02  0.75552995472E+01 -0.13977970945E+02  0.33887787001E+02  0.00000000000E+00 0. -1.
        -13    1    3    3    0    0  0.40229974276E+03  0.26199647702E+03  0.10797960479E+03  0.49208417171E+03  0.00000000000E+00 0.  1.
          2    1    6    6  502    0  0.11912318743E+02 -0.36493827040E+02  0.12334856939E+03  0.12918425724E+03  0.00000000000E+00 0. -1.
          1    1    5    5  503    0 -0.16103185715E+03  0.30324841053E+02  0.77576713807E+02  0.18129810128E+03  0.00000000000E+00 0. -1.
         -2    1    5    5    0  503 -0.23435306152E+03 -0.50545368922E+02  0.90954085503E+02  0.25641536115E+03  0.00000000000E+00 0.  1.
         -1    1    6    6    0  502 -0.48758996852E+02 -0.21283742166E+03  0.14520934383E+04  0.14684183877E+04  0.00000000000E+00 0.  1.
<mgrwt>
<rscale>  0 0.17838292E+04</rscale>
<asrwt>0</asrwt>
<pdfrwt beam="1">  1        1 0.33840480E+00 0.17838292E+04</pdfrwt>
<pdfrwt beam="2">  1       -1 0.55639511E-01 0.17838292E+04</pdfrwt>
<totfact> 0.67315040E+00</totfact>
</mgrwt>
</event>
<event>
12    1  0.1519630E-007  0.2311535E+04  0.7818608E-02  0.8473387E-01
         -2   -1    0    0    0  501 -0.00000000000E+00  0.00000000000E+00  0.68016410120E+03  0.68016410120E+03  0.00000000000E+00 0.  1.
          2   -1    0    0  501    0  0.00000000000E+00 -0.00000000000E+00 -0.19639353419E+04  0.19639353419E+04  0.00000000000E+00 0. -1.
         23    2    1    2    0    0  0.55142606356E+03 -0.19984448040E+03 -0.14409790949E+04  0.15587399249E+04  0.96129505157E+02 0.  0.
        254    2    1    2    0    0 -0.55142606356E+03  0.19984448040E+03  0.15720785417E+03  0.10853595182E+04  0.89960127521E+03 0.  0.
        -24    2    4    4    0    0  0.18712531385E+03  0.18611923434E+03  0.20049499811E+03  0.34121581219E+03  0.81078565260E+02 0.  0.
         24    2    4    4    0    0 -0.73855137741E+03  0.13725246057E+02 -0.43287143932E+02  0.74414370599E+03  0.78927554605E+02 0.  0.
         11    1    3    3    0    0  0.81820009217E+02  0.41229094062E+01 -0.22011487435E+03  0.23486606865E+03  0.00000000000E+00 0.  1.
        -11    1    3    3    0    0  0.46960605434E+03 -0.20396738980E+03 -0.12208642205E+04  0.13238738563E+04  0.00000000000E+00 0. -1.
          4    1    6    6  502    0 -0.12871004659E+03 -0.12800590061E+01  0.22185450644E+02  0.13061435168E+03  0.00000000000E+00 0. -1.
          1    1    5    5  503    0  0.74330491342E+01 -0.24172586897E+01 -0.51537006130E+01  0.93623709077E+01  0.00000000000E+00 0. -1.
         -2    1    5    5    0  503  0.17969226472E+03  0.18853649303E+03  0.20564869872E+03  0.33185344128E+03  0.00000000000E+00 0.  1.
         -3    1    6    6    0  502 -0.60984133082E+03  0.15005305063E+02 -0.65472594576E+02  0.61352935430E+03  0.00000000000E+00 0.  1.
<mgrwt>
<rscale>  0 0.23115348E+04</rscale>
<asrwt>0</asrwt>
<pdfrwt beam="1">  1        2 0.30214390E+00 0.23115348E+04</pdfrwt>
<pdfrwt beam="2">  1       -2 0.10464063E+00 0.23115348E+04</pdfrwt>
<totfact> 0.46970686E+00</totfact>
</mgrwt>
</event>
<event>
12    1  0.1519630E-007  0.2353936E+04  0.7818608E-02  0.8456953E-01
         -1   -1    0    0    0  501 -0.00000000000E+00  0.00000000000E+00  0.36922298332E+03  0.36922298332E+03  0.00000000000E+00 0.  1.
          1   -1    0    0  501    0  0.00000000000E+00 -0.00000000000E+00 -0.37518091086E+04  0.37518091086E+04  0.00000000000E+00 0. -1.
         23    2    1    2    0    0 -0.15263147530E+03 -0.98912026604E+03 -0.15845806910E+04  0.18764386415E+04  0.92036630581E+02 0.  0.
        254    2    1    2    0    0  0.15263147530E+03  0.98912026604E+03 -0.17980054343E+04  0.22445934503E+04  0.89650485087E+03 0.  0.
        -24    2    4    4    0    0 -0.20739407035E+03 -0.19212192834E+02 -0.12315111317E+03  0.25509593675E+03  0.80785713476E+02 0.  0.
         24    2    4    4    0    0  0.36002554565E+03  0.10083324589E+04 -0.16748543211E+04  0.19894975136E+04  0.81305709862E+02 0.  0.
         13    1    3    3    0    0 -0.13967666366E+02 -0.43946019771E+02 -0.44142338686E+02  0.63834899719E+02  0.00000000000E+00 0.  1.
        -13    1    3    3    0    0 -0.13866380893E+03 -0.94517424627E+03 -0.15404383523E+04  0.18126037418E+04  0.00000000000E+00 0. -1.
          2    1    6    6  502    0  0.25950307410E+03  0.78597641198E+03 -0.12404575867E+04  0.14912530939E+04  0.00000000000E+00 0. -1.
          3    1    5    5  503    0 -0.95293615409E+02 -0.49218712639E+02 -0.62960615372E+02  0.12436797779E+03  0.00000000000E+00 0. -1.
         -4    1    5    5    0  503 -0.11210045494E+03  0.30006519805E+02 -0.60190497796E+02  0.13072795896E+03  0.00000000000E+00 0.  1.
         -1    1    6    6    0  502  0.10052247155E+03  0.22235604689E+03 -0.43439673443E+03  0.49824441970E+03  0.00000000000E+00 0.  1.
<mgrwt>
<rscale>  0 0.23539364E+04</rscale>
<asrwt>0</asrwt>
<pdfrwt beam="1">  1        1 0.57720138E+00 0.23539364E+04</pdfrwt>
<pdfrwt beam="2">  1       -1 0.56803538E-01 0.23539364E+04</pdfrwt>
<totfact> 0.44253522E-01</totfact>
</mgrwt>
</event>
<event>
12    1  0.1519630E-007  0.1562266E+04  0.7818608E-02  0.8844071E-01
          2   -1    0    0  501    0  0.00000000000E+00  0.00000000000E+00  0.51401399038E+03  0.51401399038E+03  0.00000000000E+00 0. -1.
         -2   -1    0    0    0  501 -0.00000000000E+00 -0.00000000000E+00 -0.11870658169E+04  0.11870658169E+04  0.00000000000E+00 0.  1.
         23    2    1    2    0    0  0.94224374176E+02 -0.18467400775E+03  0.28516765853E+03  0.36461554605E+03  0.92957953546E+02 0.  0.
        254    2    1    2    0    0 -0.94224374176E+02  0.18467400775E+03 -0.95821948501E+03  0.13364642612E+04  0.90827827133E+03 0.  0.
        -24    2    4    4    0    0  0.10341130346E+03  0.32687415397E+03 -0.10124121734E+04  0.10716392151E+04  0.76756681900E+02 0.  0.
         24    2    4    4    0    0 -0.19763567764E+03 -0.14220014622E+03  0.54192688429E+02  0.26482504608E+03  0.88964683406E+02 0.  0.
         11    1    3    3    0    0 -0.32939256829E+01 -0.37272003315E+02  0.10828013432E+03  0.11456281974E+03  0.00000000000E+00 0.  1.
        -11    1    3    3    0    0  0.97518299859E+02 -0.14740200443E+03  0.17688752420E+03  0.25005272631E+03  0.00000000000E+00 0. -1.
          4    1    6    6  502    0 -0.17456608934E+03 -0.11571695705E+03  0.76779724491E+02  0.22306694015E+03  0.00000000000E+00 0. -1.
          3    1    5    5  503    0  0.28712065847E+02  0.70839911010E+02 -0.33509429496E+03  0.34370170531E+03  0.00000000000E+00 0. -1.
         -4    1    5    5    0  503  0.74699237614E+02  0.25603424296E+03 -0.67731787847E+03  0.72793750979E+03  0.00000000000E+00 0.  1.
         -3    1    6    6    0  502 -0.23069588300E+02 -0.26483189175E+02 -0.22587036062E+02  0.41758105935E+02  0.00000000000E+00 0.  1.
<mgrwt>
<rscale>  0 0.15622656E+04</rscale>
<asrwt>0</asrwt>
<pdfrwt beam="1">  1        2 0.79079076E-01 0.15622656E+04</pdfrwt>
<pdfrwt beam="2">  1       -2 0.18262551E+00 0.15622656E+04</pdfrwt>
<totfact> 0.99625218E+00</totfact>
</mgrwt>
</event>
<event>
12    1  0.1519630E-007  0.1950860E+04  0.7818608E-02  0.8629946E-01
         -2   -1    0    0    0  501 -0.00000000000E+00  0.00000000000E+00  0.24270033862E+04  0.24270033862E+04  0.00000000000E+00 0.  1.
          2   -1    0    0  501    0  0.00000000000E+00 -0.00000000000E+00 -0.39203232910E+03  0.39203232910E+03  0.00000000000E+00 0. -1.
         23    2    1    2    0    0 -0.44155585970E+03  0.61176236590E+03  0.99169113175E+03  0.12494644177E+04  0.92115475580E+02 0.  0.
        254    2    1    2    0    0  0.44155585970E+03 -0.61176236590E+03  0.10432799253E+04  0.15695712975E+04  0.89771726389E+03 0.  0.
        -24    2    4    4    0    0 -0.82571721187E+02  0.17829665136E+03  0.11903958646E+03  0.24310544595E+03  0.79511317921E+02 0.  0.
         24    2    4    4    0    0  0.52412758089E+03 -0.79005901726E+03  0.92424033884E+03  0.13264658516E+04  0.79927965427E+02 0.  0.
         13    1    3    3    0    0 -0.22553929886E+02  0.47465981400E+02  0.11003651419E+03  0.12194151713E+03  0.00000000000E+00 0. -1.
        -13    1    3    3    0    0 -0.41900192982E+03  0.56429638450E+03  0.88165461755E+03  0.11275229006E+04  0.00000000000E+00 0.  1.
          2    1    6    6  502    0  0.39554259196E+03 -0.65343176141E+03  0.73818057022E+03  0.10622323489E+04  0.00000000000E+00 0. -1.
          3    1    5    5  503    0 -0.47750003791E+02  0.94469863769E+02  0.18158427645E+02  0.10739807502E+03  0.00000000000E+00 0. -1.
         -4    1    5    5    0  503 -0.34821717397E+02  0.83826787588E+02  0.10088115882E+03  0.13570737093E+03  0.00000000000E+00 0.  1.
         -1    1    6    6    0  502  0.12858498893E+03 -0.13662725585E+03  0.18605976862E+03  0.26423350264E+03  0.00000000000E+00 0.  1.
<mgrwt>
<rscale>  0 0.19508601E+04</rscale>
<asrwt>0</asrwt>
<pdfrwt beam="1">  1        2 0.60312668E-01 0.19508601E+04</pdfrwt>
<pdfrwt beam="2">  1       -2 0.37338513E+00 0.19508601E+04</pdfrwt>
<totfact> 0.84060276E-01</totfact>
</mgrwt>
</event>
<event>
12    1  0.1519630E-007  0.2027361E+04  0.7818608E-02  0.8593934E-01
          2   -1    0    0  501    0  0.00000000000E+00  0.00000000000E+00  0.41017782842E+04  0.41017782842E+04  0.00000000000E+00 0. -1.
         -2   -1    0    0    0  501 -0.00000000000E+00 -0.00000000000E+00 -0.25051286702E+03  0.25051286702E+03  0.00000000000E+00 0.  1.
         23    2    1    2    0    0 -0.33953639159E+03 -0.73743816154E+03  0.15211280565E+04  0.17265053102E+04  0.88825777064E+02 0.  0.
        254    2    1    2    0    0  0.33953639159E+03  0.73743816154E+03  0.23301373608E+04  0.26257858411E+04  0.89783693386E+03 0.  0.
        -24    2    4    4    0    0  0.17504818374E+03  0.90907417546E+03  0.15600061165E+04  0.18158214347E+04  0.80812598560E+02 0.  0.
         24    2    4    4    0    0  0.16448820785E+03 -0.17163601392E+03  0.77013124425E+03  0.80996440635E+03  0.80155563687E+02 0.  0.
         11    1    3    3    0    0 -0.31648509138E+03 -0.70929523516E+03  0.14126870218E+04  0.16121250464E+04  0.00000000000E+00 0.  1.
        -11    1    3    3    0    0 -0.23051300210E+02 -0.28142926379E+02  0.10844103464E+03  0.11438026377E+03  0.00000000000E+00 0. -1.
          2    1    6    6  502    0  0.16141225138E+03 -0.12790825824E+03  0.66165042589E+03  0.69296155990E+03  0.00000000000E+00 0. -1.
          1    1    5    5  503    0  0.14507728395E+03  0.72156925924E+03  0.11739325191E+04  0.13855782813E+04  0.00000000000E+00 0. -1.
         -2    1    5    5    0  503  0.29970899790E+02  0.18750491622E+03  0.38607359745E+03  0.43024315345E+03  0.00000000000E+00 0.  1.
         -1    1    6    6    0  502  0.30759564672E+01 -0.43727755681E+02  0.10848081836E+03  0.11700284645E+03  0.00000000000E+00 0.  1.
<mgrwt>
<rscale>  0 0.20273611E+04</rscale>
<asrwt>0</asrwt>
<pdfrwt beam="1">  1        2 0.63104277E+00 0.20273611E+04</pdfrwt>
<pdfrwt beam="2">  1       -2 0.38540444E-01 0.20273611E+04</pdfrwt>
<totfact> 0.16814052E+00</totfact>
</mgrwt>
</event>
<event>
12    1  0.1519630E-007  0.2293793E+04  0.7818608E-02  0.8480373E-01
          1   -1    0    0  501    0  0.00000000000E+00  0.00000000000E+00  0.12400782998E+04  0.12400782998E+04  0.00000000000E+00 0. -1.
         -1   -1    0    0    0  501 -0.00000000000E+00 -0.00000000000E+00 -0.10607162937E+04  0.10607162937E+04  0.00000000000E+00 0.  1.
         23    2    1    2    0    0  0.71427269054E+03  0.51124054683E+03 -0.35739759770E+03  0.95047865817E+03  0.64220429884E+02 0.  0.
        254    2    1    2    0    0 -0.71427269054E+03 -0.51124054683E+03  0.53675960375E+03  0.13503159353E+04  0.87389351739E+03 0.  0.
        -24    2    4    4    0    0 -0.21498081156E+02  0.21012015092E+03  0.16787929357E+03  0.28128800641E+03  0.79541435903E+02 0.  0.
         24    2    4    4    0    0 -0.69277460939E+03 -0.72136069775E+03  0.36888031018E+03  0.10690279289E+04  0.80312600757E+02 0.  0.
         11    1    3    3    0    0  0.67505956205E+03  0.49681530224E+03 -0.34863750478E+03  0.90778795244E+03  0.00000000000E+00 0.  1.
        -11    1    3    3    0    0  0.39213128497E+02  0.14425244584E+02 -0.87600929286E+01  0.42690705733E+02  0.00000000000E+00 0. -1.
          2    1    6    6  502    0 -0.43329131294E+03 -0.41011085847E+03  0.24864163603E+03  0.64633964854E+03  0.00000000000E+00 0. -1.
          3    1    5    5  503    0 -0.23498215340E+02  0.13697193417E+02  0.34136782926E+02  0.43647441852E+02  0.00000000000E+00 0. -1.
         -4    1    5    5    0  503  0.20001341846E+01  0.19642295750E+03  0.13374251065E+03  0.23764056456E+03  0.00000000000E+00 0.  1.
         -1    1    6    6    0  502 -0.25948329644E+03 -0.31124983928E+03  0.12023867415E+03  0.42268828035E+03  0.00000000000E+00 0.  1.
<mgrwt>
<rscale>  0 0.22937927E+04</rscale>
<asrwt>0</asrwt>
<pdfrwt beam="1">  1        1 0.19078128E+00 0.22937927E+04</pdfrwt>
<pdfrwt beam="2">  1       -1 0.16318712E+00 0.22937927E+04</pdfrwt>
<totfact> 0.24984149E+00</totfact>
</mgrwt>
</event>
<event>
12    1  0.1519630E-007  0.1770108E+04  0.7818608E-02  0.8722359E-01
          2   -1    0    0  501    0  0.00000000000E+00  0.00000000000E+00  0.18239089366E+04  0.18239089366E+04  0.00000000000E+00 0. -1.
         -2   -1    0    0    0  501 -0.00000000000E+00 -0.00000000000E+00 -0.42947371661E+03  0.42947371661E+03  0.00000000000E+00 0.  1.
         23    2    1    2    0    0 -0.45183585617E+03 -0.91273910787E+02 -0.71154162655E+02  0.47622057910E+03  0.96107010063E+02 0.  0.
        254    2    1    2    0    0  0.45183585617E+03  0.91273910787E+02  0.14655893827E+04  0.17771620742E+04  0.89323358171E+03 0.  0.
        -24    2    4    4    0    0  0.12781060610E+03  0.18540464845E+03  0.14037799760E+04  0.14240730719E+04  0.81703477376E+02 0.  0.
         24    2    4    4    0    0  0.32402525007E+03 -0.94130737659E+02  0.61809406645E+02  0.35308900229E+03  0.83656932362E+02 0.  0.
         11    1    3    3    0    0 -0.10044979731E+03 -0.12773241636E+02 -0.56319459795E+02  0.11586716115E+03  0.00000000000E+00 0. -1.
        -11    1    3    3    0    0 -0.35138605886E+03 -0.78500669151E+02 -0.14834702861E+02  0.36035341795E+03  0.00000000000E+00 0.  1.
          2    1    6    6  502    0  0.12834643745E+03 -0.17228047429E+02  0.60268779853E+02  0.14283535784E+03  0.00000000000E+00 0. -1.
          3    1    5    5  503    0  0.10234805185E+02 -0.76608913934E+01  0.53783586408E+02  0.55282136907E+02  0.00000000000E+00 0. -1.
         -4    1    5    5    0  503  0.11757580092E+03  0.19306553984E+03  0.13499963896E+04  0.13687909350E+04  0.00000000000E+00 0.  1.
         -1    1    6    6    0  502  0.19567881261E+03 -0.76902690230E+02  0.15406267919E+01  0.21025364444E+03  0.00000000000E+00 0.  1.
<mgrwt>
<rscale>  0 0.17701084E+04</rscale>
<asrwt>0</asrwt>
<pdfrwt beam="1">  1        2 0.28060137E+00 0.17701084E+04</pdfrwt>
<pdfrwt beam="2">  1       -2 0.66072880E-01 0.17701084E+04</pdfrwt>
<totfact> 0.16688739E+01</totfact>
</mgrwt>
</event>
<event>
12    1  0.1519630E-007  0.1427082E+04  0.7818608E-02  0.8934445E-01
          1   -1    0    0  501    0  0.00000000000E+00  0.00000000000E+00  0.85693004199E+03  0.85693004199E+03  0.00000000000E+00 0. -1.
         -1   -1    0    0    0  501 -0.00000000000E+00 -0.00000000000E+00 -0.59414544465E+03  0.59414544465E+03  0.00000000000E+00 0.  1.
         23    2    1    2    0    0 -0.35001473974E+03  0.17135797754E+02  0.32840680832E+03  0.48926154014E+03  0.93390948751E+02 0.  0.
        254    2    1    2    0    0  0.35001473974E+03 -0.17135797754E+02 -0.65622210976E+02  0.96181394651E+03  0.89329493423E+03 0.  0.
        -24    2    4    4    0    0 -0.21264400516E+03  0.15388444433E+02 -0.27399685827E+03  0.35632740584E+03  0.80253751671E+02 0.  0.
         24    2    4    4    0    0  0.56265874490E+03 -0.32524242186E+02  0.20837464729E+03  0.60548654067E+03  0.74506830265E+02 0.  0.
         13    1    3    3    0    0 -0.25623096502E+03 -0.28784924867E+02  0.24399096680E+03  0.35498517041E+03  0.00000000000E+00 0. -1.
        -13    1    3    3    0    0 -0.93783774719E+02  0.45920722621E+02  0.84415841523E+02  0.13427636973E+03  0.00000000000E+00 0.  1.
          2    1    6    6  502    0  0.55171715621E+03 -0.42246764144E+02  0.19863519056E+03  0.58790522065E+03  0.00000000000E+00 0. -1.
          3    1    5    5  503    0 -0.11004769186E+03  0.33754916120E+02 -0.95225616475E+02  0.14939145517E+03  0.00000000000E+00 0. -1.
         -4    1    5    5    0  503 -0.10259631330E+03 -0.18366471687E+02 -0.17877124179E+03  0.20693595067E+03  0.00000000000E+00 0.  1.
         -1    1    6    6    0  502  0.10941588690E+02  0.97225219578E+01  0.97394567284E+01  0.17581320020E+02  0.00000000000E+00 0.  1.
<mgrwt>
<rscale>  0 0.14270825E+04</rscale>
<asrwt>0</asrwt>
<pdfrwt beam="1">  1        1 0.13183539E+00 0.14270825E+04</pdfrwt>
<pdfrwt beam="2">  1       -1 0.91406991E-01 0.14270825E+04</pdfrwt>
<totfact> 0.22447978E+01</totfact>
</mgrwt>
</event>
<event>
12    1  0.1519630E-007  0.2734673E+04  0.7818608E-02  0.8323842E-01
         -1   -1    0    0    0  501 -0.00000000000E+00  0.00000000000E+00  0.10188511226E+04  0.10188511226E+04  0.00000000000E+00 0.  1.
          1   -1    0    0  501    0  0.00000000000E+00 -0.00000000000E+00 -0.18350171628E+04  0.18350171628E+04  0.00000000000E+00 0. -1.
         23    2    1    2    0    0 -0.12337179112E+04 -0.27042376326E+02 -0.27973222310E+03  0.12686112771E+04  0.91286807713E+02 0.  0.
        254    2    1    2    0    0  0.12337179112E+04  0.27042376326E+02 -0.53643381704E+03  0.15852570083E+04  0.83814519497E+03 0.  0.
        -24    2    4    4    0    0  0.11391226000E+04  0.30101011225E+03 -0.35177001018E+03  0.12321977756E+04  0.79761097859E+02 0.  0.
         24    2    4    4    0    0  0.94595311224E+02 -0.27396773592E+03 -0.18466380686E+03  0.35305923271E+03  0.80891946493E+02 0.  0.
         13    1    3    3    0    0 -0.60559286681E+03  0.13585056636E+02 -0.99363498952E+02  0.61384067886E+03  0.00000000000E+00 0.  1.
        -13    1    3    3    0    0 -0.62812504437E+03 -0.40627432962E+02 -0.18036872415E+03  0.65477059824E+03  0.00000000000E+00 0. -1.
          2    1    6    6  502    0  0.52518501928E+01 -0.65250691317E+01 -0.30637735502E+02  0.31762073206E+02  0.00000000000E+00 0. -1.
          3    1    5    5  503    0  0.97695782469E+03  0.24078746347E+03 -0.27611202617E+03  0.10433901690E+04  0.00000000000E+00 0. -1.
         -4    1    5    5    0  503  0.16216477526E+03  0.60222648782E+02 -0.75657984016E+02  0.18880760659E+03  0.00000000000E+00 0.  1.
         -1    1    6    6    0  502  0.89343461031E+02 -0.26744266679E+03 -0.15402607136E+03  0.32129715951E+03  0.00000000000E+00 0.  1.
<mgrwt>
<rscale>  0 0.27346731E+04</rscale>
<asrwt>0</asrwt>
<pdfrwt beam="1">  1        1 0.28231033E+00 0.27346731E+04</pdfrwt>
<pdfrwt beam="2">  1       -1 0.15674633E+00 0.27346731E+04</pdfrwt>
<totfact> 0.10388628E+00</totfact>
</mgrwt>
</event>
<event>
12    1  0.1519630E-007  0.1436702E+04  0.7818608E-02  0.8927672E-01
         -2   -1    0    0    0  501 -0.00000000000E+00  0.00000000000E+00  0.26851955215E+03  0.26851955215E+03  0.00000000000E+00 0. -1.
          2   -1    0    0  501    0  0.00000000000E+00 -0.00000000000E+00 -0.19217531349E+04  0.19217531349E+04  0.00000000000E+00 0.  1.
         23    2    1    2    0    0 -0.22239008101E+03 -0.11575578958E+03 -0.10505501051E+04  0.10837699415E+04  0.89693990113E+02 0.  0.
        254    2    1    2    0    0  0.22239008101E+03  0.11575578958E+03 -0.60268347764E+03  0.11065027455E+04  0.89345632275E+03 0.  0.
        -24    2    4    4    0    0  0.12291441800E+03 -0.18549028520E+03 -0.72087208949E+03  0.75867965488E+03  0.80147671616E+02 0.  0.
         24    2    4    4    0    0  0.99475663013E+02  0.30124607478E+03  0.11818861185E+03  0.34782309064E+03  0.79798178599E+02 0.  0.
         11    1    3    3    0    0 -0.83764766895E+02 -0.59649904822E+02 -0.60799078739E+03  0.61662585485E+03  0.00000000000E+00 0.  1.
        -11    1    3    3    0    0 -0.13862531412E+03 -0.56105884759E+02 -0.44255931771E+03  0.46714408668E+03  0.00000000000E+00 0. -1.
          4    1    6    6  502    0  0.85812494229E+02  0.22675945946E+03  0.53637914639E+02  0.24831565095E+03  0.00000000000E+00 0. -1.
          3    1    5    5  503    0  0.65458517637E+02 -0.13534681507E+03 -0.36543067947E+03  0.39514954053E+03  0.00000000000E+00 0. -1.
         -4    1    5    5    0  503  0.57455900364E+02 -0.50143470128E+02 -0.35544141002E+03  0.36353011435E+03  0.00000000000E+00 0.  1.
         -3    1    6    6    0  502  0.13663168784E+02  0.74486615326E+02  0.64550697207E+02  0.99507439691E+02  0.00000000000E+00 0.  1.
<mgrwt>
<rscale>  0 0.14367022E+04</rscale>
<asrwt>0</asrwt>
<pdfrwt beam="1">  1        2 0.29565433E+00 0.14367022E+04</pdfrwt>
<pdfrwt beam="2">  1       -2 0.41310700E-01 0.14367022E+04</pdfrwt>
<totfact> 0.39805708E+01</totfact>
</mgrwt>
</event>
<event>
12    1  0.1519630E-007  0.1569047E+04  0.7818608E-02  0.8839793E-01
         -2   -1    0    0    0  501 -0.00000000000E+00  0.00000000000E+00  0.15759809320E+04  0.15759809320E+04  0.00000000000E+00 0.  1.
          2   -1    0    0  501    0  0.00000000000E+00 -0.00000000000E+00 -0.39053589426E+03  0.39053589426E+03  0.00000000000E+00 0. -1.
         23    2    1    2    0    0 -0.17198049476E+03  0.21997590019E+03  0.89432711927E+03  0.94154527811E+03  0.93380015182E+02 0.  0.
        254    2    1    2    0    0  0.17198049476E+03 -0.21997590019E+03  0.29111791849E+03  0.10249715482E+04  0.94225810947E+03 0.  0.
        -24    2    4    4    0    0  0.46237464556E+02 -0.53477123367E+03  0.38327432688E+03  0.66440114623E+03  0.80071830054E+02 0.  0.
         24    2    4    4    0    0  0.12574303020E+03  0.31479533349E+03 -0.92156408386E+02  0.36057040195E+03  0.81306823363E+02 0.  0.
         11    1    3    3    0    0 -0.11526848754E+03  0.18928482582E+03  0.77305395013E+03  0.80419399359E+03  0.00000000000E+00 0.  1.
        -11    1    3    3    0    0 -0.56712007215E+02  0.30691074366E+02  0.12127316913E+03  0.13735128452E+03  0.00000000000E+00 0. -1.
          2    1    6    6  502    0  0.28073458406E+01  0.14390991846E+02 -0.25193093630E+02  0.29149164716E+02  0.00000000000E+00 0. -1.
          3    1    5    5  503    0 -0.15539447309E+02 -0.87520659189E+02  0.41315282950E+02  0.98021899659E+02  0.00000000000E+00 0. -1.
         -4    1    5    5    0  503  0.61776911866E+02 -0.44725057449E+03  0.34195904393E+03  0.56637924657E+03  0.00000000000E+00 0.  1.
         -1    1    6    6    0  502  0.12293568436E+03  0.30040434164E+03 -0.66963314756E+02  0.33142123723E+03  0.00000000000E+00 0.  1.
<mgrwt>
<rscale>  0 0.15690470E+04</rscale>
<asrwt>0</asrwt>
<pdfrwt beam="1">  1        2 0.60082446E-01 0.15690470E+04</pdfrwt>
<pdfrwt beam="2">  1       -2 0.24245860E+00 0.15690470E+04</pdfrwt>
<totfact> 0.56170545E+00</totfact>
</mgrwt>
</event>
<event>
12    1  0.1519630E-007  0.1477265E+04  0.7818608E-02  0.8899714E-01
          2   -1    0    0  501    0  0.00000000000E+00  0.00000000000E+00  0.11280523236E+04  0.11280523236E+04  0.00000000000E+00 0.  1.
         -2   -1    0    0    0  501 -0.00000000000E+00 -0.00000000000E+00 -0.48364576910E+03  0.48364576910E+03  0.00000000000E+00 0. -1.
         23    2    1    2    0    0 -0.20903841724E+02  0.23287728417E+02  0.70714273078E+03  0.71375640978E+03  0.91750105779E+02 0.  0.
        254    2    1    2    0    0  0.20903841724E+02 -0.23287728417E+02 -0.62736176302E+02  0.89794168290E+03  0.89520061951E+03 0.  0.
        -24    2    4    4    0    0  0.23566906757E+03  0.21199702910E+03  0.27508265731E+03  0.42695751313E+03  0.78355599063E+02 0.  0.
         24    2    4    4    0    0 -0.21476522585E+03 -0.23528475752E+03 -0.33781883361E+03  0.47098416977E+03  0.78876514074E+02 0.  0.
         13    1    3    3    0    0 -0.39299785546E+02  0.37845348961E+02  0.24424379816E+03  0.25026341426E+03  0.00000000000E+00 0. -1.
        -13    1    3    3    0    0  0.18395943822E+02 -0.14557620544E+02  0.46289893263E+03  0.46349299552E+03  0.00000000000E+00 0.  1.
          4    1    6    6  502    0 -0.15066100976E+03 -0.20576224745E+03 -0.23869509403E+03  0.34930243379E+03  0.00000000000E+00 0. -1.
          1    1    5    5  503    0  0.16455015240E+03  0.11086492806E+03  0.20292130093E+03  0.28380422706E+03  0.00000000000E+00 0. -1.
         -2    1    5    5    0  503  0.71118915173E+02  0.10113210104E+03  0.72161356385E+02  0.14315328607E+03  0.00000000000E+00 0.  1.
         -3    1    6    6    0  502 -0.64104216089E+02 -0.29522510067E+02 -0.99123739583E+02  0.12168173598E+03  0.00000000000E+00 0.  1.
<mgrwt>
<rscale>  0 0.14772647E+04</rscale>
<asrwt>0</asrwt>
<pdfrwt beam="1">  1        2 0.17354651E+00 0.14772647E+04</pdfrwt>
<pdfrwt beam="2">  1       -2 0.74407042E-01 0.14772647E+04</pdfrwt>
<totfact> 0.32937802E+01</totfact>
</mgrwt>
</event>
<event>
12    1  0.1519630E-007  0.3590612E+04  0.7818608E-02  0.8092645E-01
         -2   -1    0    0    0  501 -0.00000000000E+00  0.00000000000E+00  0.12416545037E+04  0.12416545037E+04  0.00000000000E+00 0.  1.
          2   -1    0    0  501    0  0.00000000000E+00 -0.00000000000E+00 -0.25958301209E+04  0.25958301209E+04  0.00000000000E+00 0. -1.
         23    2    1    2    0    0 -0.26918116354E+03 -0.82435132247E+03 -0.21725752338E+04  0.23410818400E+04  0.92560430309E+02 0.  0.
        254    2    1    2    0    0  0.26918116354E+03  0.82435132247E+03  0.81839961664E+03  0.14964027846E+04  0.90411822217E+03 0.  0.
        -24    2    4    4    0    0  0.21747095287E+03  0.64936917759E+02  0.67716040592E+03  0.71795316111E+03  0.73485424206E+02 0.  0.
         24    2    4    4    0    0  0.51710210678E+02  0.75941440471E+03  0.14123921072E+03  0.77844962352E+03  0.81554385171E+02 0.  0.
         11    1    3    3    0    0 -0.26766825591E+03 -0.72636606599E+03 -0.19296128409E+04  0.20791006885E+04  0.00000000000E+00 0. -1.
        -11    1    3    3    0    0 -0.15129076385E+01 -0.97985256484E+02 -0.24296239284E+03  0.26198115145E+03  0.00000000000E+00 0.  1.
          2    1    6    6  502    0 -0.13656631537E+02  0.31656409828E+03  0.78383680511E+02  0.32640976283E+03  0.00000000000E+00 0. -1.
          3    1    5    5  503    0  0.78606719895E+02  0.99915705674E+01  0.14503984318E+03  0.16527372448E+03  0.00000000000E+00 0. -1.
         -4    1    5    5    0  503  0.13886423297E+03  0.54945347191E+02  0.53212056274E+03  0.55267943663E+03  0.00000000000E+00 0.  1.
         -1    1    6    6    0  502  0.65366842215E+02  0.44285030644E+03  0.62855530205E+02  0.45203986069E+03  0.00000000000E+00 0.  1.
<mgrwt>
<rscale>  0 0.35906123E+04</rscale>
<asrwt>0</asrwt>
<pdfrwt beam="1">  1        2 0.39935848E+00 0.35906123E+04</pdfrwt>
<pdfrwt beam="2">  1       -2 0.19102377E+00 0.35906123E+04</pdfrwt>
<totfact> 0.38079100E-01</totfact>
</mgrwt>
</event>
<event>
12    1  0.1519630E-007  0.1634624E+04  0.7818608E-02  0.8799555E-01
          1   -1    0    0  501    0  0.00000000000E+00  0.00000000000E+00  0.74565480373E+03  0.74565480373E+03  0.00000000000E+00 0. -1.
         -1   -1    0    0    0  501 -0.00000000000E+00 -0.00000000000E+00 -0.89585535815E+03  0.89585535815E+03  0.00000000000E+00 0.  1.
         23    2    1    2    0    0  0.37298215506E+03  0.21593231356E+03 -0.42266037945E+03  0.61044235814E+03  0.90860465620E+02 0.  0.
        254    2    1    2    0    0 -0.37298215506E+03 -0.21593231356E+03  0.27245982504E+03  0.10310678037E+04  0.89617186276E+03 0.  0.
        -24    2    4    4    0    0 -0.31834666951E+03 -0.46956953303E+03  0.43078347435E+03  0.71680015324E+03  0.79924399079E+02 0.  0.
         24    2    4    4    0    0 -0.54635485554E+02  0.25363721948E+03 -0.15832364932E+03  0.31426765050E+03  0.79880553528E+02 0.  0.
         13    1    3    3    0    0  0.19071047671E+03  0.95682851768E+02 -0.26941158585E+03  0.34366887645E+03  0.00000000000E+00 0.  1.
        -13    1    3    3    0    0  0.18227167835E+03  0.12024946179E+03 -0.15324879360E+03  0.26677348168E+03  0.00000000000E+00 0. -1.
          2    1    6    6  502    0 -0.65369098800E+02  0.24972005603E+03 -0.14282426316E+03  0.29501185672E+03  0.00000000000E+00 0. -1.
          3    1    5    5  503    0 -0.22591616617E+03 -0.35730569184E+03  0.35911880877E+03  0.55468170185E+03  0.00000000000E+00 0. -1.
         -4    1    5    5    0  503 -0.92430503335E+02 -0.11226384119E+03  0.71664665581E+02  0.16211845138E+03  0.00000000000E+00 0.  1.
         -1    1    6    6    0  502  0.10733613247E+02  0.39171634507E+01 -0.15499386150E+02  0.19255793774E+02  0.00000000000E+00 0.  1.
<mgrwt>
<rscale>  0 0.16346239E+04</rscale>
<asrwt>0</asrwt>
<pdfrwt beam="1">  1        1 0.11471612E+00 0.16346239E+04</pdfrwt>
<pdfrwt beam="2">  1       -1 0.13782390E+00 0.16346239E+04</pdfrwt>
<totfact> 0.10327781E+01</totfact>
</mgrwt>
</event>
<event>
12    1  0.1519630E-007  0.1843820E+04  0.7818608E-02  0.8683338E-01
          2   -1    0    0  501    0  0.00000000000E+00  0.00000000000E+00  0.19263497276E+04  0.19263497276E+04  0.00000000000E+00 0. -1.
         -2   -1    0    0    0  501 -0.00000000000E+00 -0.00000000000E+00 -0.44120633631E+03  0.44120633631E+03  0.00000000000E+00 0.  1.
         23    2    1    2    0    0 -0.11864902894E+01  0.33162495605E+03  0.13348128068E+04  0.13785586806E+04  0.93393187296E+02 0.  0.
        254    2    1    2    0    0  0.11864902894E+01 -0.33162495605E+03  0.15033058449E+03  0.98899738330E+03  0.91953250095E+03 0.  0.
        -24    2    4    4    0    0  0.28650382812E+03  0.17924435529E+03 -0.76776231462E+02  0.35625832756E+03  0.82537408536E+02 0.  0.
         24    2    4    4    0    0 -0.28531733783E+03 -0.51086931134E+03  0.22710681595E+03  0.63273905574E+03  0.79923527632E+02 0.  0.
         13    1    3    3    0    0 -0.11161668671E+02  0.90680247740E+02  0.22488824172E+03  0.24273897800E+03  0.00000000000E+00 0. -1.
        -13    1    3    3    0    0  0.99751783818E+01  0.24094470831E+03  0.11099245651E+04  0.11358197026E+04  0.00000000000E+00 0.  1.
          2    1    6    6  502    0 -0.15217163055E+03 -0.29800127669E+03  0.89250753086E+02  0.34630429247E+03  0.00000000000E+00 0. -1.
          1    1    5    5  503    0  0.13635016852E+03  0.56603504582E+02  0.28067644146E+00  0.14763266565E+03  0.00000000000E+00 0. -1.
         -2    1    5    5    0  503  0.15015365960E+03  0.12264085071E+03 -0.77056907903E+02  0.20862566192E+03  0.00000000000E+00 0.  1.
         -1    1    6    6    0  502 -0.13314570728E+03 -0.21286803465E+03  0.13785606286E+03  0.28643476327E+03  0.00000000000E+00 0.  1.
<mgrwt>
<rscale>  0 0.18438196E+04</rscale>
<asrwt>0</asrwt>
<pdfrwt beam="1">  1        2 0.29636149E+00 0.18438196E+04</pdfrwt>
<pdfrwt beam="2">  1       -2 0.67877899E-01 0.18438196E+04</pdfrwt>
<totfact> 0.13729351E+01</totfact>
</mgrwt>
</event>
<event>
12    1  0.1519630E-007  0.1361619E+04  0.7818608E-02  0.8982079E-01
         -2   -1    0    0    0  501 -0.00000000000E+00  0.00000000000E+00  0.26891199382E+03  0.26891199382E+03  0.00000000000E+00 0.  1.
          2   -1    0    0  501    0  0.00000000000E+00 -0.00000000000E+00 -0.17236169607E+04  0.17236169607E+04  0.00000000000E+00 0. -1.
         23    2    1    2    0    0 -0.15474730221E+03 -0.33667480973E+03 -0.30959746046E+03  0.49138721869E+03  0.91181994499E+02 0.  0.
        254    2    1    2    0    0  0.15474730221E+03  0.33667480973E+03 -0.11451075064E+04  0.15011417358E+04  0.89713915016E+03 0.  0.
        -24    2    4    4    0    0  0.22529244929E+03  0.52460677814E+03 -0.34262384903E+03  0.67050562034E+03  0.78852556135E+02 0.  0.
         24    2    4    4    0    0 -0.70545147081E+02 -0.18793196841E+03 -0.80248365741E+03  0.83063611551E+03  0.75374355359E+02 0.  0.
         13    1    3    3    0    0 -0.77782027223E+01 -0.11270816231E+03 -0.78184860554E+02  0.13739178545E+03  0.00000000000E+00 0.  1.
        -13    1    3    3    0    0 -0.14696909949E+03 -0.22396664742E+03 -0.23141259990E+03  0.35399543324E+03  0.00000000000E+00 0. -1.
          2    1    6    6  502    0 -0.74754270033E+02 -0.97741483719E+02 -0.50340425010E+03  0.51822527684E+03  0.00000000000E+00 0. -1.
          1    1    5    5  503    0  0.14906495864E+03  0.25372742745E+03 -0.19141710089E+03  0.35105338034E+03  0.00000000000E+00 0. -1.
         -2    1    5    5    0  503  0.76227490658E+02  0.27087935068E+03 -0.15120674814E+03  0.31945224000E+03  0.00000000000E+00 0.  1.
         -1    1    6    6    0  502  0.42091229520E+01 -0.90190484690E+02 -0.29907940731E+03  0.31241083867E+03  0.00000000000E+00 0.  1.
<mgrwt>
<rscale>  0 0.13616186E+04</rscale>
<asrwt>0</asrwt>
<pdfrwt beam="1">  1        2 0.26517183E+00 0.13616186E+04</pdfrwt>
<pdfrwt beam="2">  1       -2 0.41371077E-01 0.13616186E+04</pdfrwt>
<totfact> 0.51393038E+01</totfact>
</mgrwt>
</event>
<event>
12    1  0.1519630E-007  0.1187271E+04  0.7818608E-02  0.9124072E-01
          2   -1    0    0  501    0  0.00000000000E+00  0.00000000000E+00  0.17467444825E+04  0.17467444825E+04  0.00000000000E+00 0. -1.
         -2   -1    0    0    0  501 -0.00000000000E+00 -0.00000000000E+00 -0.20174841139E+03  0.20174841139E+03  0.00000000000E+00 0.  1.
         23    2    1    2    0    0  0.10326750812E+03 -0.12463861334E+03  0.62423860306E+03  0.64995771608E+03  0.81069334394E+02 0.  0.
        254    2    1    2    0    0 -0.10326750812E+03  0.12463861334E+03  0.92075746803E+03  0.12985351778E+04  0.90122157698E+03 0.  0.
        -24    2    4    4    0    0  0.23339738668E+03 -0.24998184442E+03  0.60004604544E+03  0.69473457854E+03  0.75070735497E+02 0.  0.
         24    2    4    4    0    0 -0.33666489480E+03  0.37462045776E+03  0.32071142259E+03  0.60380059923E+03  0.89641554501E+02 0.  0.
         13    1    3    3    0    0  0.99175209681E+02 -0.13333185119E+03  0.61323046227E+03  0.63534612977E+03  0.00000000000E+00 0. -1.
        -13    1    3    3    0    0  0.40922984442E+01  0.86932378562E+01  0.11008140789E+02  0.14611586314E+02  0.00000000000E+00 0.  1.
          4    1    6    6  502    0 -0.14836157155E+03  0.10165871866E+03  0.10643555503E+03  0.20898367967E+03  0.00000000000E+00 0. -1.
          1    1    5    5  503    0  0.51051096869E+02 -0.17408362185E+02  0.10897718528E+03  0.12159478804E+03  0.00000000000E+00 0. -1.
         -2    1    5    5    0  503  0.18234628981E+03 -0.23257348224E+03  0.49106886015E+03  0.57313979050E+03  0.00000000000E+00 0.  1.
         -3    1    6    6    0  502 -0.18830332325E+03  0.27296173910E+03  0.21427586756E+03  0.39481691957E+03  0.00000000000E+00 0.  1.
<mgrwt>
<rscale>  0 0.11872707E+04</rscale>
<asrwt>0</asrwt>
<pdfrwt beam="1">  1        2 0.26872991E+00 0.11872707E+04</pdfrwt>
<pdfrwt beam="2">  1       -2 0.31038218E-01 0.11872707E+04</pdfrwt>
<totfact> 0.87768538E+01</totfact>
</mgrwt>
</event>
<event>
12    1  0.1519630E-007  0.3765363E+04  0.7818608E-02  0.8053629E-01
          1   -1    0    0  501    0  0.00000000000E+00  0.00000000000E+00  0.17571345987E+04  0.17571345987E+04  0.00000000000E+00 0. -1.
         -1   -1    0    0    0  501 -0.00000000000E+00 -0.00000000000E+00 -0.20171988538E+04  0.20171988538E+04  0.00000000000E+00 0.  1.
         23    2    1    2    0    0  0.67049427231E+03 -0.59849157114E+03  0.14100727902E+04  0.16747161888E+04  0.92813303015E+02 0.  0.
        254    2    1    2    0    0 -0.67049427231E+03  0.59849157114E+03 -0.16701370454E+04  0.20996172638E+04  0.90071092706E+03 0.  0.
        -24    2    4    4    0    0  0.11163024722E+03 -0.73584442010E+02 -0.28479776818E+02  0.15929396215E+03  0.81777053564E+02 0.  0.
         24    2    4    4    0    0 -0.78212451953E+03  0.67207601315E+03 -0.16416572685E+04  0.19403233016E+04  0.80068695360E+02 0.  0.
         11    1    3    3    0    0  0.26756473745E+03 -0.22904852357E+03  0.47118347681E+03  0.58827543183E+03  0.00000000000E+00 0. -1.
        -11    1    3    3    0    0  0.40292953486E+03 -0.36944304757E+03  0.93888931342E+03  0.10864407569E+04  0.00000000000E+00 0.  1.
          2    1    6    6  502    0 -0.74407593645E+03  0.65411850303E+03 -0.15515405713E+04  0.18408688600E+04  0.00000000000E+00 0. -1.
          1    1    5    5  503    0  0.69164907418E+02 -0.69627152944E+02 -0.51495166328E+02  0.11083084860E+03  0.00000000000E+00 0. -1.
         -2    1    5    5    0  503  0.42465339797E+02 -0.39572890660E+01  0.23015389510E+02  0.48463113551E+02  0.00000000000E+00 0.  1.
         -1    1    6    6    0  502 -0.38048583080E+02  0.17957510121E+02 -0.90116697220E+02  0.99454441641E+02  0.00000000000E+00 0.  1.
<mgrwt>
<rscale>  0 0.37653631E+04</rscale>
<asrwt>0</asrwt>
<pdfrwt beam="1">  1        1 0.27032840E+00 0.37653631E+04</pdfrwt>
<pdfrwt beam="2">  1       -1 0.31033828E+00 0.37653631E+04</pdfrwt>
<totfact> 0.98355734E-02</totfact>
</mgrwt>
</event>
<event>
12    1  0.1519630E-007  0.1462555E+04  0.7818608E-02  0.8909742E-01
         -1   -1    0    0    0  501 -0.00000000000E+00  0.00000000000E+00  0.40817971282E+03  0.40817971282E+03  0.00000000000E+00 0.  1.
          1   -1    0    0  501    0  0.00000000000E+00 -0.00000000000E+00 -0.13101262145E+04  0.13101262145E+04  0.00000000000E+00 0. -1.
         23    2    1    2    0    0  0.28374355154E+03 -0.23047178549E+03  0.21428333776E+02  0.37662176055E+03  0.88074571163E+02 0.  0.
        254    2    1    2    0    0 -0.28374355154E+03  0.23047178549E+03 -0.92337483541E+03  0.13416841667E+04  0.90214614648E+03 0.  0.
        -24    2    4    4    0    0  0.15735648417E+02  0.42809996940E+01 -0.95360288399E+03  0.95691851625E+03  0.77901532784E+02 0.  0.
         24    2    4    4    0    0 -0.29947919995E+03  0.22619078580E+03  0.30228048577E+02  0.38476565047E+03  0.79251549347E+02 0.  0.
         13    1    3    3    0    0  0.65848350885E+01 -0.28502462649E+02 -0.12891297034E+02  0.31967733254E+02  0.00000000000E+00 0. -1.
        -13    1    3    3    0    0  0.27715871645E+03 -0.20196932284E+03  0.34319630810E+02  0.34465402730E+03  0.00000000000E+00 0.  1.
          2    1    6    6  502    0 -0.21555303351E+03  0.19504286378E+03  0.44602948413E+02  0.29409905130E+03  0.00000000000E+00 0. -1.
          1    1    5    5  503    0 -0.31746073363E+02 -0.88063615066E+00 -0.36131037158E+03  0.36270342334E+03  0.00000000000E+00 0. -1.
         -4    1    5    5    0  503  0.47481721780E+02  0.51616358446E+01 -0.59229251241E+03  0.59421509291E+03  0.00000000000E+00 0.  1.
         -1    1    6    6    0  502 -0.83926166438E+02  0.31147922019E+02 -0.14374899836E+02  0.90666599167E+02  0.00000000000E+00 0.  1.
<mgrwt>
<rscale>  0 0.14625552E+04</rscale>
<asrwt>0</asrwt>
<pdfrwt beam="1">  1        1 0.20155788E+00 0.14625552E+04</pdfrwt>
<pdfrwt beam="2">  1       -1 0.62796878E-01 0.14625552E+04</pdfrwt>
<totfact> 0.22199955E+01</totfact>
</mgrwt>
</event>
<event>
12    1  0.1519630E-007  0.2597592E+04  0.7818608E-02  0.8369020E-01
         -2   -1    0    0    0  501 -0.00000000000E+00  0.00000000000E+00  0.45839074904E+03  0.45839074904E+03  0.00000000000E+00 0.  1.
          2   -1    0    0  501    0  0.00000000000E+00 -0.00000000000E+00 -0.36799857062E+04  0.36799857062E+04  0.00000000000E+00 0. -1.
         23    2    1    2    0    0 -0.87551918669E+03 -0.65917882969E+03 -0.19004802660E+04  0.21957143317E+04  0.91025322086E+02 0.  0.
        254    2    1    2    0    0  0.87551918669E+03  0.65917882969E+03 -0.13211146911E+04  0.19426621235E+04  0.90969309285E+03 0.  0.
        -24    2    4    4    0    0 -0.14074000713E+03  0.30189059744E+03 -0.34075297497E+03  0.48410737132E+03  0.85449836664E+02 0.  0.
         24    2    4    4    0    0  0.10162591938E+04  0.35728823225E+03 -0.98036171614E+03  0.14585547522E+04  0.76388746962E+02 0.  0.
         11    1    3    3    0    0 -0.13861502998E+02 -0.12395830660E+00 -0.36495756554E+02  0.39039683368E+02  0.00000000000E+00 0.  1.
        -11    1    3    3    0    0 -0.86165768370E+03 -0.65905487138E+03 -0.18639845095E+04  0.21566746484E+04  0.00000000000E+00 0. -1.
          4    1    6    6  502    0  0.70909139215E+03  0.25512556832E+03 -0.73155959561E+03  0.10502757257E+04  0.00000000000E+00 0. -1.
          1    1    5    5  503    0 -0.87585024132E+02  0.15261425289E+03 -0.12252029945E+03  0.21441424956E+03  0.00000000000E+00 0. -1.
         -2    1    5    5    0  503 -0.53154982997E+02  0.14927634455E+03 -0.21823267552E+03  0.26969312176E+03  0.00000000000E+00 0.  1.
         -3    1    6    6    0  502  0.30716780167E+03  0.10216266393E+03 -0.24880212053E+03  0.40827902648E+03  0.00000000000E+00 0.  1.
<mgrwt>
<rscale>  0 0.25975923E+04</rscale>
<asrwt>0</asrwt>
<pdfrwt beam="1">  1        2 0.56615167E+00 0.25975923E+04</pdfrwt>
<pdfrwt beam="2">  1       -2 0.70521651E-01 0.25975923E+04</pdfrwt>
<totfact> 0.97835929E-01</totfact>
</mgrwt>
</event>
<event>
12    1  0.1519630E-007  0.1543524E+04  0.7818608E-02  0.8856015E-01
         -2   -1    0    0    0  501 -0.00000000000E+00  0.00000000000E+00  0.36554906830E+03  0.36554906830E+03  0.00000000000E+00 0.  1.
          2   -1    0    0  501    0  0.00000000000E+00 -0.00000000000E+00 -0.16293746071E+04  0.16293746071E+04  0.00000000000E+00 0. -1.
         23    2    1    2    0    0 -0.30470537079E+03 -0.47759791671E+02  0.92502425436E+02  0.33450434250E+03  0.90609578695E+02 0.  0.
        254    2    1    2    0    0  0.30470537079E+03  0.47759791671E+02 -0.13563279642E+04  0.16604193329E+04  0.90677475361E+03 0.  0.
        -24    2    4    4    0    0  0.48256846954E+03  0.34188501456E+03 -0.74765046116E+03  0.95688249817E+03  0.82977179161E+02 0.  0.
         24    2    4    4    0    0 -0.17786309874E+03 -0.29412522289E+03 -0.60867750305E+03  0.70353683470E+03  0.79566616289E+02 0.  0.
         13    1    3    3    0    0 -0.27711713784E+02 -0.32246983119E+02  0.15445750775E+01  0.42546359577E+02  0.00000000000E+00 0. -1.
        -13    1    3    3    0    0 -0.27699365701E+03 -0.15512808553E+02  0.90957850358E+02  0.29195798292E+03  0.00000000000E+00 0.  1.
          2    1    6    6  502    0 -0.13683130042E+03 -0.18007538307E+03 -0.45223563647E+03  0.50563526307E+03  0.00000000000E+00 0. -1.
          3    1    5    5  503    0  0.34022689145E+03  0.22490111647E+03 -0.45468684186E+03  0.61079863622E+03  0.00000000000E+00 0. -1.
         -4    1    5    5    0  503  0.14234157808E+03  0.11698389809E+03 -0.29296361930E+03  0.34608386194E+03  0.00000000000E+00 0.  1.
         -1    1    6    6    0  502 -0.41031798323E+02 -0.11404983982E+03 -0.15644186658E+03  0.19790157163E+03  0.00000000000E+00 0.  1.
<mgrwt>
<rscale>  0 0.15435237E+04</rscale>
<asrwt>0</asrwt>
<pdfrwt beam="1">  1        2 0.25067302E+00 0.15435237E+04</pdfrwt>
<pdfrwt beam="2">  1       -2 0.56238317E-01 0.15435237E+04</pdfrwt>
<totfact> 0.30686276E+01</totfact>
</mgrwt>
</event>
<event>
12    1  0.1519630E-007  0.1590507E+04  0.7818608E-02  0.8826401E-01
          2   -1    0    0  501    0  0.00000000000E+00  0.00000000000E+00  0.26948358340E+04  0.26948358340E+04  0.00000000000E+00 0. -1.
         -2   -1    0    0    0  501 -0.00000000000E+00 -0.00000000000E+00 -0.23468138083E+03  0.23468138083E+03  0.00000000000E+00 0.  1.
         23    2    1    2    0    0  0.35140892373E+03 -0.18158958671E+03  0.14981839398E+04  0.15521948040E+04  0.91052634295E+02 0.  0.
        254    2    1    2    0    0 -0.35140892373E+03  0.18158958671E+03  0.96197051333E+03  0.13773224109E+04  0.90286585119E+03 0.  0.
        -24    2    4    4    0    0 -0.21250214575E+03  0.37913693291E+03  0.68195856317E+02  0.44711425966E+03  0.79740269177E+02 0.  0.
         24    2    4    4    0    0 -0.13890677798E+03 -0.19754734619E+03  0.89377465702E+03  0.93020815120E+03  0.90188802398E+02 0.  0.
         13    1    3    3    0    0  0.30677678816E+03 -0.18374527932E+03  0.13872903611E+04  0.14326370340E+04  0.00000000000E+00 0. -1.
        -13    1    3    3    0    0  0.44632135569E+02  0.21556926069E+01  0.11089357879E+03  0.11955776994E+03  0.00000000000E+00 0.  1.
          4    1    6    6  502    0 -0.63927641220E+02 -0.32091106952E+02  0.18027068098E+03  0.19394355075E+03  0.00000000000E+00 0. -1.
          3    1    5    5  503    0 -0.15870760021E+03  0.22582323819E+03  0.16079403592E+02  0.27648288282E+03  0.00000000000E+00 0. -1.
         -4    1    5    5    0  503 -0.53794545533E+02  0.15331369471E+03  0.52116452725E+02  0.17063137683E+03  0.00000000000E+00 0.  1.
         -3    1    6    6    0  502 -0.74979136758E+02 -0.16545623924E+03  0.71350397604E+03  0.73626460045E+03  0.00000000000E+00 0.  1.
<mgrwt>
<rscale>  0 0.15905066E+04</rscale>
<asrwt>0</asrwt>
<pdfrwt beam="1">  1        2 0.41459011E+00 0.15905066E+04</pdfrwt>
<pdfrwt beam="2">  1       -2 0.36104830E-01 0.15905066E+04</pdfrwt>
<totfact> 0.18586245E+01</totfact>
</mgrwt>
</event>
<event>
12    1  0.1519630E-007  0.1821128E+04  0.7818608E-02  0.8695144E-01
          1   -1    0    0  501    0  0.00000000000E+00  0.00000000000E+00  0.67959652163E+03  0.67959652163E+03  0.00000000000E+00 0. -1.
         -1   -1    0    0    0  501 -0.00000000000E+00 -0.00000000000E+00 -0.12200284537E+04  0.12200284537E+04  0.00000000000E+00 0.  1.
         23    2    1    2    0    0  0.26370844276E+03 -0.63506266456E+03 -0.63077534914E+02  0.69649394458E+03  0.90985211589E+02 0.  0.
        254    2    1    2    0    0 -0.26370844276E+03  0.63506266456E+03 -0.47735439720E+03  0.12031310308E+04  0.86418188249E+03 0.  0.
        -24    2    4    4    0    0  0.20265112063E+03 -0.53823768911E+02 -0.25109834598E+03  0.33687924323E+03  0.80453529302E+02 0.  0.
         24    2    4    4    0    0 -0.46635956339E+03  0.68888643347E+03 -0.22625605122E+03  0.86625178755E+03  0.84525724700E+02 0.  0.
         11    1    3    3    0    0  0.58691198330E+02 -0.23273832802E+03 -0.47477326782E+02  0.24467505523E+03  0.00000000000E+00 0.  1.
        -11    1    3    3    0    0  0.20501724443E+03 -0.40232433654E+03 -0.15600208132E+02  0.45181888935E+03  0.00000000000E+00 0. -1.
          4    1    6    6  502    0 -0.38022088176E+03  0.49734636802E+03 -0.16282861279E+03  0.64686512184E+03  0.00000000000E+00 0. -1.
          1    1    5    5  503    0  0.17123703764E+03 -0.11159672359E+02 -0.19162814749E+03  0.25723142937E+03  0.00000000000E+00 0. -1.
         -2    1    5    5    0  503  0.31414082989E+02 -0.42664096552E+02 -0.59470198488E+02  0.79647813861E+02  0.00000000000E+00 0.  1.
         -3    1    6    6    0  502 -0.86138681627E+02  0.19154006546E+03 -0.63427438427E+02  0.21938666571E+03  0.00000000000E+00 0.  1.
<mgrwt>
<rscale>  0 0.18211283E+04</rscale>
<asrwt>0</asrwt>
<pdfrwt beam="1">  1        1 0.10455331E+00 0.18211283E+04</pdfrwt>
<pdfrwt beam="2">  1       -1 0.18769668E+00 0.18211283E+04</pdfrwt>
<totfact> 0.49221282E+00</totfact>
</mgrwt>
</event>
<event>
12    1  0.1519630E-007  0.1206607E+04  0.7818608E-02  0.9107093E-01
          2   -1    0    0  501    0  0.00000000000E+00  0.00000000000E+00  0.45885548012E+03  0.45885548012E+03  0.00000000000E+00 0. -1.
         -2   -1    0    0    0  501 -0.00000000000E+00 -0.00000000000E+00 -0.79322383285E+03  0.79322383285E+03  0.00000000000E+00 0.  1.
         23    2    1    2    0    0 -0.12707234811E+03 -0.21203725296E+03 -0.78467280449E+02  0.27504842806E+03  0.91582451274E+02 0.  0.
        254    2    1    2    0    0  0.12707234811E+03  0.21203725296E+03 -0.25590107228E+03  0.97703088491E+03  0.90994330207E+03 0.  0.
        -24    2    4    4    0    0 -0.37958174570E+03  0.22425489538E+02 -0.16340835075E+03  0.42260096987E+03  0.85463947866E+02 0.  0.
         24    2    4    4    0    0  0.50665409381E+03  0.18961176342E+03 -0.92492721524E+02  0.55442991505E+03  0.78655168682E+02 0.  0.
         13    1    3    3    0    0 -0.12349346546E+03 -0.17197188467E+03 -0.94363967647E+02  0.23179629747E+03  0.00000000000E+00 0.  1.
        -13    1    3    3    0    0 -0.35788826461E+01 -0.40065368289E+02  0.15896687197E+02  0.43252130595E+02  0.00000000000E+00 0. -1.
          4    1    6    6  502    0  0.49567918646E+03  0.19236252479E+03 -0.80180008984E+02  0.53770812777E+03  0.00000000000E+00 0. -1.
          3    1    5    5  503    0 -0.26897023765E+03  0.11308126522E+02 -0.71979800933E+02  0.27866459088E+03  0.00000000000E+00 0. -1.
         -4    1    5    5    0  503 -0.11061150805E+03  0.11117363016E+02 -0.91428549821E+02  0.14393637899E+03  0.00000000000E+00 0.  1.
         -3    1    6    6    0  502  0.10974907351E+02 -0.27507613708E+01 -0.12312712540E+02  0.16721787272E+02  0.00000000000E+00 0.  1.
<mgrwt>
<rscale>  0 0.12066070E+04</rscale>
<asrwt>0</asrwt>
<pdfrwt beam="1">  1        2 0.70593152E-01 0.12066070E+04</pdfrwt>
<pdfrwt beam="2">  1       -2 0.12203443E+00 0.12066070E+04</pdfrwt>
<totfact> 0.34144240E+01</totfact>
</mgrwt>
</event>
<event>
12    1  0.1519630E-007  0.3269230E+04  0.7818608E-02  0.8170769E-01
          2   -1    0    0  501    0  0.00000000000E+00  0.00000000000E+00  0.19049776254E+04  0.19049776254E+04  0.00000000000E+00 0.  1.
         -2   -1    0    0    0  501 -0.00000000000E+00 -0.00000000000E+00 -0.14026234736E+04  0.14026234736E+04  0.00000000000E+00 0. -1.
         23    2    1    2    0    0  0.33988470429E+02  0.27123291139E+03 -0.12690226529E+04  0.13009750440E+04  0.85994553367E+02 0.  0.
        254    2    1    2    0    0 -0.33988470429E+02 -0.27123291139E+03  0.17713768047E+04  0.20066260549E+04  0.90224710129E+03 0.  0.
        -24    2    4    4    0    0 -0.44390023530E+03 -0.17150432635E+03  0.11905717072E+04  0.12845523369E+04  0.78438276548E+02 0.  0.
         24    2    4    4    0    0  0.40991176487E+03 -0.99728585036E+02  0.58080509747E+03  0.72207371807E+03  0.77990046996E+02 0.  0.
         13    1    3    3    0    0  0.50859348091E+02  0.22494343152E+03 -0.11347687879E+04  0.11579665033E+04  0.00000000000E+00 0. -1.
        -13    1    3    3    0    0 -0.16870877662E+02  0.46289479866E+02 -0.13425386499E+03  0.14300854074E+03  0.00000000000E+00 0.  1.
          4    1    6    6  502    0  0.11104924644E+03 -0.51141323422E+02  0.12487283623E+03  0.17475867739E+03  0.00000000000E+00 0. -1.
          3    1    5    5  503    0 -0.31079269908E+02 -0.24124373189E+02  0.57726236157E+02  0.69858605345E+02  0.00000000000E+00 0. -1.
         -4    1    5    5    0  503 -0.41282096539E+03 -0.14737995316E+03  0.11328454711E+04  0.12146937315E+04  0.00000000000E+00 0.  1.
         -3    1    6    6    0  502  0.29886251843E+03 -0.48587261615E+02  0.45593226123E+03  0.54731504068E+03  0.00000000000E+00 0.  1.
<mgrwt>
<rscale>  0 0.32692301E+04</rscale>
<asrwt>0</asrwt>
<pdfrwt beam="1">  1        2 0.29307348E+00 0.32692301E+04</pdfrwt>
<pdfrwt beam="2">  1       -2 0.21578823E+00 0.32692301E+04</pdfrwt>
<totfact> 0.66419902E-01</totfact>
</mgrwt>
</event>
<event>
12    1  0.2550968E-007  0.1539059E+04  0.7818608E-02  0.8858886E-01
          2   -1    0    0  501    0  0.00000000000E+00  0.00000000000E+00  0.16755773273E+04  0.16755773273E+04  0.00000000000E+00 0. -1.
         -2   -1    0    0    0  501 -0.00000000000E+00 -0.00000000000E+00 -0.35341600888E+03  0.35341600888E+03  0.00000000000E+00 0.  1.
         23    2    1    2    0    0 -0.17898782025E+03  0.43604147827E+03  0.66856469867E+03  0.82283719518E+03  0.88957759063E+02 0.  0.
        254    2    1    2    0    0  0.17898782025E+03 -0.43604147827E+03  0.65359661974E+03  0.12061561410E+04  0.89747160654E+03 0.  0.
        -24    2    4    4    0    0  0.83883032282E+02 -0.19624694111E+03  0.84529072558E+03  0.87517188390E+03  0.76551881845E+02 0.  0.
         24    2    4    4    0    0  0.95104787967E+02 -0.23979453716E+03 -0.19169410585E+03  0.33098425708E+03  0.79105040752E+02 0.  0.
         13    1    3    3    0    0 -0.35746396902E+02  0.99696054363E+02  0.22002431101E+03  0.24418805372E+03  0.00000000000E+00 0. -1.
        -13    1    3    3    0    0 -0.14324142335E+03  0.33634542391E+03  0.44854038766E+03  0.57864914146E+03  0.00000000000E+00 0.  1.
          4    1    6    6  502    0  0.10550617062E+03 -0.23548014792E+03 -0.17916117772E+03  0.31413560719E+03  0.00000000000E+00 0. -1.
          1    1    5    5  503    0  0.65534929712E+02 -0.19078314664E+03  0.81281702026E+03  0.83747510081E+03  0.00000000000E+00 0. -1.
         -2    1    5    5    0  503  0.18348102570E+02 -0.54637944697E+01  0.32473705327E+02  0.37696783094E+02  0.00000000000E+00 0.  1.
         -3    1    6    6    0  502 -0.10401382658E+02 -0.43143892482E+01 -0.12532928131E+02  0.16848649895E+02  0.00000000000E+00 0.  1.
<mgrwt>
<rscale>  0 0.15390593E+04</rscale>
<asrwt>0</asrwt>
<pdfrwt beam="1">  1        2 0.25778112E+00 0.15390593E+04</pdfrwt>
<pdfrwt beam="2">  1       -2 0.54371695E-01 0.15390593E+04</pdfrwt>
<totfact> 0.31035637E+01</totfact>
</mgrwt>
</event>
<event>
12    1  0.1519630E-007  0.2459631E+04  0.7818608E-02  0.8417510E-01
          1   -1    0    0  501    0  0.00000000000E+00  0.00000000000E+00  0.97759609091E+03  0.97759609091E+03  0.00000000000E+00 0. -1.
         -1   -1    0    0    0  501 -0.00000000000E+00 -0.00000000000E+00 -0.15471070881E+04  0.15471070881E+04  0.00000000000E+00 0.  1.
         23    2    1    2    0    0  0.60286681931E+03 -0.31850008739E+03  0.58494052261E+03  0.90264641613E+03  0.87888736842E+02 0.  0.
        254    2    1    2    0    0 -0.60286681931E+03  0.31850008739E+03 -0.11544515198E+04  0.16220567629E+04  0.91291791686E+03 0.  0.
        -24    2    4    4    0    0 -0.70601773586E+03  0.26013235481E+03 -0.40525609985E+03  0.85835202178E+03  0.80036250953E+02 0.  0.
         24    2    4    4    0    0  0.10315091655E+03  0.58367732587E+02 -0.74919541997E+03  0.76370474111E+03  0.88905851877E+02 0.  0.
         13    1    3    3    0    0  0.13944259345E+02  0.52814482153E+01  0.80507382381E+01  0.16945514159E+02  0.00000000000E+00 0.  1.
        -13    1    3    3    0    0  0.58892255997E+03 -0.32378153561E+03  0.57688978438E+03  0.88570090197E+03  0.00000000000E+00 0. -1.
          2    1    6    6  502    0 -0.33788451393E+01 -0.45587691079E+01 -0.15382976610E+01  0.58792286865E+01  0.00000000000E+00 0. -1.
          1    1    5    5  503    0 -0.15923067587E+03  0.89083169857E+02 -0.76804794994E+02  0.19796261219E+03  0.00000000000E+00 0. -1.
         -2    1    5    5    0  503 -0.54678705999E+03  0.17104918495E+03 -0.32845130486E+03  0.66038940960E+03  0.00000000000E+00 0.  1.
         -1    1    6    6    0  502  0.10652976169E+03  0.62926501695E+02 -0.74765712231E+03  0.75782551242E+03  0.00000000000E+00 0.  1.
<mgrwt>
<rscale>  0 0.24596307E+04</rscale>
<asrwt>0</asrwt>
<pdfrwt beam="1">  1        1 0.15039940E+00 0.24596307E+04</pdfrwt>
<pdfrwt beam="2">  1       -1 0.23801648E+00 0.24596307E+04</pdfrwt>
<totfact> 0.11736327E+00</totfact>
</mgrwt>
</event>
<event>
12    1  0.1519630E-007  0.1629024E+04  0.7818608E-02  0.8802913E-01
          1   -1    0    0  501    0  0.00000000000E+00  0.00000000000E+00  0.81607906876E+03  0.81607906876E+03  0.00000000000E+00 0.  1.
         -1   -1    0    0    0  501 -0.00000000000E+00 -0.00000000000E+00 -0.81294830811E+03  0.81294830811E+03  0.00000000000E+00 0. -1.
         23    2    1    2    0    0 -0.16315307691E+03 -0.47365061945E+03  0.27173957022E+03  0.57689626757E+03  0.89459899974E+02 0.  0.
        254    2    1    2    0    0  0.16315307691E+03  0.47365061945E+03 -0.26860880958E+03  0.10521311093E+04  0.88536170166E+03 0.  0.
        -24    2    4    4    0    0  0.11121105454E+02  0.22681769023E+03  0.31451518736E+03  0.39596299696E+03  0.79353313084E+02 0.  0.
         24    2    4    4    0    0  0.15203197145E+03  0.24683292922E+03 -0.58312399694E+03  0.65616811233E+03  0.80515716145E+02 0.  0.
         13    1    3    3    0    0 -0.93743580482E+02 -0.38366484853E+03  0.21907349435E+03  0.45164119698E+03  0.00000000000E+00 0.  1.
        -13    1    3    3    0    0 -0.69409496425E+02 -0.89985770923E+02  0.52666075868E+02  0.12525507060E+03  0.00000000000E+00 0. -1.
          4    1    6    6  502    0  0.62569469286E+02  0.17199478389E+03 -0.38431279912E+03  0.42566826490E+03  0.00000000000E+00 0. -1.
          3    1    5    5  503    0 -0.31168833420E+02  0.12975173280E+03  0.19508113592E+03  0.23635494057E+03  0.00000000000E+00 0. -1.
         -4    1    5    5    0  503  0.42289938874E+02  0.97065957433E+02  0.11943405144E+03  0.15960805639E+03  0.00000000000E+00 0.  1.
         -3    1    6    6    0  502  0.89462502167E+02  0.74838145326E+02 -0.19881119782E+03  0.23049984743E+03  0.00000000000E+00 0.  1.
<mgrwt>
<rscale>  0 0.16290244E+04</rscale>
<asrwt>0</asrwt>
<pdfrwt beam="1">  1        1 0.12555063E+00 0.16290244E+04</pdfrwt>
<pdfrwt beam="2">  1       -1 0.12506897E+00 0.16290244E+04</pdfrwt>
<totfact> 0.11456156E+01</totfact>
</mgrwt>
</event>
<event>
12    1  0.1519630E-007  0.1611137E+04  0.7818608E-02  0.8813735E-01
          1   -1    0    0  501    0  0.00000000000E+00  0.00000000000E+00  0.89866771458E+03  0.89866771458E+03  0.00000000000E+00 0. -1.
         -1   -1    0    0    0  501 -0.00000000000E+00 -0.00000000000E+00 -0.72211432377E+03  0.72211432377E+03  0.00000000000E+00 0.  1.
         23    2    1    2    0    0 -0.35282721653E+03  0.20038654223E+03 -0.31796029153E+03  0.52181206728E+03  0.80915236747E+02 0.  0.
        254    2    1    2    0    0  0.35282721653E+03 -0.20038654223E+03  0.49451368234E+03  0.10989699711E+04  0.89361591539E+03 0.  0.
        -24    2    4    4    0    0  0.48796465504E+03 -0.26511609361E+03  0.65707668385E+03  0.86468558671E+03  0.86806380811E+02 0.  0.
         24    2    4    4    0    0 -0.13513743850E+03  0.64729551378E+02 -0.16256300151E+03  0.23428438435E+03  0.77526777203E+02 0.  0.
         13    1    3    3    0    0 -0.81048053783E+01  0.14380575057E+02  0.11914260417E+01  0.16550175383E+02  0.00000000000E+00 0. -1.
        -13    1    3    3    0    0 -0.34472241116E+03  0.18600596718E+03 -0.31915171757E+03  0.50526189190E+03  0.00000000000E+00 0.  1.
          2    1    6    6  502    0 -0.31996295445E+02  0.46358408749E+02 -0.25666024926E+02  0.61899998541E+02  0.00000000000E+00 0. -1.
          3    1    5    5  503    0  0.34622298055E+03 -0.20809778568E+03  0.42072276042E+03  0.58325181680E+03  0.00000000000E+00 0. -1.
         -4    1    5    5    0  503  0.14174167449E+03 -0.57018307934E+02  0.23635392343E+03  0.28143376991E+03  0.00000000000E+00 0.  1.
         -1    1    6    6    0  502 -0.10314114306E+03  0.18371142629E+02 -0.13689697658E+03  0.17238438581E+03  0.00000000000E+00 0.  1.
<mgrwt>
<rscale>  0 0.16111373E+04</rscale>
<asrwt>0</asrwt>
<pdfrwt beam="1">  1        1 0.13825657E+00 0.16111373E+04</pdfrwt>
<pdfrwt beam="2">  1       -1 0.11109451E+00 0.16111373E+04</pdfrwt>
<totfact> 0.13040449E+01</totfact>
</mgrwt>
</event>
<event>
12    1  0.1519630E-007  0.1779095E+04  0.7818608E-02  0.8717496E-01
          2   -1    0    0  501    0  0.00000000000E+00  0.00000000000E+00  0.16550368802E+04  0.16550368802E+04  0.00000000000E+00 0. -1.
         -2   -1    0    0    0  501 -0.00000000000E+00 -0.00000000000E+00 -0.47811309219E+03  0.47811309219E+03  0.00000000000E+00 0.  1.
         23    2    1    2    0    0  0.17372460275E+03 -0.62586042037E+03  0.55366375108E+03  0.85994002917E+03  0.10522262651E+03 0.  0.
        254    2    1    2    0    0 -0.17372460275E+03  0.62586042037E+03  0.62326003697E+03  0.12732099433E+04  0.90040489922E+03 0.  0.
        -24    2    4    4    0    0 -0.18053168071E+02  0.63468364226E+03  0.14859446255E+02  0.64002612103E+03  0.79141580855E+02 0.  0.
         24    2    4    4    0    0 -0.15567143468E+03 -0.88232218880E+01  0.60840059072E+03  0.63318382224E+03  0.80368085320E+02 0.  0.
         13    1    3    3    0    0  0.22635129130E+02 -0.19606482660E+03  0.12014652223E+03  0.23106049447E+03  0.00000000000E+00 0.  1.
        -13    1    3    3    0    0  0.15108947362E+03 -0.42979559378E+03  0.43351722884E+03  0.62887953471E+03  0.00000000000E+00 0. -1.
          4    1    6    6  502    0  0.50805794436E+01  0.12244990981E+02  0.42919656649E+02  0.44920474379E+02  0.00000000000E+00 0. -1.
          3    1    5    5  503    0  0.72577203552E+01  0.10420772750E+02 -0.76856115268E+01  0.14843706882E+02  0.00000000000E+00 0. -1.
         -4    1    5    5    0  503 -0.25310888427E+02  0.62426286951E+03  0.22545057782E+02  0.62518241414E+03  0.00000000000E+00 0.  1.
         -3    1    6    6    0  502 -0.16075201412E+03 -0.21068212869E+02  0.56548093407E+03  0.58826334786E+03  0.00000000000E+00 0.  1.
<mgrwt>
<rscale>  0 0.17790951E+04</rscale>
<asrwt>0</asrwt>
<pdfrwt beam="1">  1        2 0.25462106E+00 0.17790951E+04</pdfrwt>
<pdfrwt beam="2">  1       -2 0.73555861E-01 0.17790951E+04</pdfrwt>
<totfact> 0.16376902E+01</totfact>
</mgrwt>
</event>
<event>
12    1  0.1519630E-007  0.1479045E+04  0.7818608E-02  0.8898508E-01
         -2   -1    0    0    0  501 -0.00000000000E+00  0.00000000000E+00  0.42511731525E+03  0.42511731525E+03  0.00000000000E+00 0.  1.
          2   -1    0    0  501    0  0.00000000000E+00 -0.00000000000E+00 -0.12864539799E+04  0.12864539799E+04  0.00000000000E+00 0. -1.
         23    2    1    2    0    0 -0.69401357945E+02 -0.14984057167E+03  0.21069492377E+03  0.28299052864E+03  0.91774413637E+02 0.  0.
        254    2    1    2    0    0  0.69401357945E+02  0.14984057167E+03 -0.10720315884E+04  0.14285807665E+04  0.92968948282E+03 0.  0.
        -24    2    4    4    0    0  0.90806383877E+02  0.32604343659E+03 -0.11629848400E+04  0.12137631978E+04  0.78340540946E+02 0.  0.
         24    2    4    4    0    0 -0.21405025933E+02 -0.17620286492E+03  0.90953251531E+02  0.21481756876E+03  0.79802688811E+02 0.  0.
         11    1    3    3    0    0 -0.75738251386E+02 -0.11914168602E+03  0.20819142835E+03  0.25154461813E+03  0.00000000000E+00 0.  1.
        -11    1    3    3    0    0  0.63368934416E+01 -0.30698885656E+02  0.25034954146E+01  0.31445910518E+02  0.00000000000E+00 0. -1.
          4    1    6    6  502    0 -0.39014076261E+02 -0.43128236584E+02  0.13005695399E+02  0.59592709706E+02  0.00000000000E+00 0. -1.
          1    1    5    5  503    0 -0.65139003771E+01  0.10699558835E+02 -0.98526248071E+02  0.99319348651E+02  0.00000000000E+00 0. -1.
         -2    1    5    5    0  503  0.97320284255E+02  0.31534387776E+03 -0.10644585919E+04  0.11144438491E+04  0.00000000000E+00 0.  1.
         -3    1    6    6    0  502  0.17609050328E+02 -0.13307462834E+03  0.77947556133E+02  0.15522485905E+03  0.00000000000E+00 0.  1.
<mgrwt>
<rscale>  0 0.14790455E+04</rscale>
<asrwt>0</asrwt>
<pdfrwt beam="1">  1        2 0.19791600E+00 0.14790455E+04</pdfrwt>
<pdfrwt beam="2">  1       -2 0.65402663E-01 0.14790455E+04</pdfrwt>
<totfact> 0.35097686E+01</totfact>
</mgrwt>
</event>
<event>
12    1  0.1519630E-007  0.3075748E+04  0.7818608E-02  0.8222425E-01
         -2   -1    0    0    0  501 -0.00000000000E+00  0.00000000000E+00  0.11160264486E+04  0.11160264486E+04  0.00000000000E+00 0.  1.
          2   -1    0    0  501    0  0.00000000000E+00 -0.00000000000E+00 -0.21191765196E+04  0.21191765196E+04  0.00000000000E+00 0. -1.
         23    2    1    2    0    0  0.20786452838E+03  0.30549885218E+03 -0.18844311023E+04  0.19223974700E+04  0.89410529195E+02 0.  0.
        254    2    1    2    0    0 -0.20786452838E+03 -0.30549885218E+03  0.88128103125E+03  0.13128054982E+04  0.90014710415E+03 0.  0.
        -24    2    4    4    0    0 -0.24968209744E+02 -0.33276524437E+03 -0.60704107133E+02  0.34939806797E+03  0.83892204164E+02 0.  0.
         24    2    4    4    0    0 -0.18289631864E+03  0.27266392189E+02  0.94198513838E+03  0.96340743019E+03  0.81384003971E+02 0.  0.
         13    1    3    3    0    0  0.18625036797E+03  0.23429295795E+03 -0.16323263083E+04  0.16595395646E+04  0.00000000000E+00 0. -1.
        -13    1    3    3    0    0  0.21614160414E+02  0.71205894228E+02 -0.25210479402E+03  0.26285790547E+03  0.00000000000E+00 0.  1.
          4    1    6    6  502    0 -0.14322451373E+03  0.25805338736E+02  0.53334920198E+03  0.55284767169E+03  0.00000000000E+00 0. -1.
          1    1    5    5  503    0 -0.46185705452E+02 -0.28921161737E+03 -0.67286221537E+02  0.30050609747E+03  0.00000000000E+00 0. -1.
         -2    1    5    5    0  503  0.21217495708E+02 -0.43553627000E+02  0.65821144041E+01  0.48891970496E+02  0.00000000000E+00 0.  1.
         -3    1    6    6    0  502 -0.39671804908E+02  0.14610534523E+01  0.40863593641E+03  0.41055975850E+03  0.00000000000E+00 0.  1.
<mgrwt>
<rscale>  0 0.30757484E+04</rscale>
<asrwt>0</asrwt>
<pdfrwt beam="1">  1        2 0.32602715E+00 0.30757484E+04</pdfrwt>
<pdfrwt beam="2">  1       -2 0.17169638E+00 0.30757484E+04</pdfrwt>
<totfact> 0.10109900E+00</totfact>
</mgrwt>
</event>
<event>
12    1  0.1519630E-007  0.1323714E+04  0.7818608E-02  0.9010968E-01
         -2   -1    0    0    0  501 -0.00000000000E+00  0.00000000000E+00  0.11850594288E+04  0.11850594288E+04  0.00000000000E+00 0. -1.
          2   -1    0    0  501    0  0.00000000000E+00 -0.00000000000E+00 -0.36964790440E+03  0.36964790440E+03  0.00000000000E+00 0.  1.
         23    2    1    2    0    0 -0.48000196983E+02 -0.31190780400E+03  0.35819563844E+03  0.48567120046E+03  0.89341493466E+02 0.  0.
        254    2    1    2    0    0  0.48000196983E+02  0.31190780400E+03  0.45721588599E+03  0.10690361328E+04  0.91334625944E+03 0.  0.
        -24    2    4    4    0    0 -0.12780943282E+03  0.30790376763E+03 -0.19022029511E+03  0.39342237540E+03  0.86356375302E+02 0.  0.
         24    2    4    4    0    0  0.17580962980E+03  0.40040363675E+01  0.64743618110E+03  0.67561375736E+03  0.79720024448E+02 0.  0.
         13    1    3    3    0    0  0.13767182544E+02 -0.19450644236E+03  0.20239815778E+03  0.28104680341E+03  0.00000000000E+00 0. -1.
        -13    1    3    3    0    0 -0.61767379527E+02 -0.11740136163E+03  0.15579748066E+03  0.20462439705E+03  0.00000000000E+00 0.  1.
          2    1    6    6  502    0  0.12891534900E+03 -0.31075515957E+00  0.57456784891E+03  0.58885267834E+03  0.00000000000E+00 0. -1.
          1    1    5    5  503    0 -0.10258541753E+03  0.15553118915E+03 -0.75505209317E+02  0.20103421431E+03  0.00000000000E+00 0. -1.
         -2    1    5    5    0  503 -0.25224015289E+02  0.15237257848E+03 -0.11471508579E+03  0.19238816109E+03  0.00000000000E+00 0.  1.
         -1    1    6    6    0  502  0.46894280803E+02  0.43147915270E+01  0.72868332184E+02  0.86761079023E+02  0.00000000000E+00 0.  1.
<mgrwt>
<rscale>  0 0.13237141E+04</rscale>
<asrwt>0</asrwt>
<pdfrwt beam="1">  1        2 0.56868909E-01 0.13237141E+04</pdfrwt>
<pdfrwt beam="2">  1       -2 0.18231683E+00 0.13237141E+04</pdfrwt>
<totfact> 0.14848038E+01</totfact>
</mgrwt>
</event>
<event>
12    1  0.1519630E-007  0.1236391E+04  0.7818608E-02  0.9081587E-01
         -1   -1    0    0    0  501 -0.00000000000E+00  0.00000000000E+00  0.50566997841E+03  0.50566997841E+03  0.00000000000E+00 0.  1.
          1   -1    0    0  501    0  0.00000000000E+00 -0.00000000000E+00 -0.75576107758E+03  0.75576107758E+03  0.00000000000E+00 0. -1.
         23    2    1    2    0    0 -0.17127521031E+03  0.12524679881E+02 -0.28082751849E+03  0.34099336743E+03  0.88996158448E+02 0.  0.
        254    2    1    2    0    0  0.17127521031E+03 -0.12524679881E+02  0.30736419323E+02  0.92043768856E+03  0.90375259102E+03 0.  0.
        -24    2    4    4    0    0 -0.93649414343E+02 -0.26933764558E+02  0.42243720532E+03  0.44082285923E+03  0.79849610511E+02 0.  0.
         24    2    4    4    0    0  0.26492462465E+03  0.14409084677E+02 -0.39170078600E+03  0.47961482933E+03  0.78792133448E+02 0.  0.
         11    1    3    3    0    0 -0.95932495519E+02  0.12278505683E+02 -0.23162909112E+03  0.25100964374E+03  0.00000000000E+00 0. -1.
        -11    1    3    3    0    0 -0.75342714788E+02  0.24617419775E+00 -0.49198427372E+02  0.89983723690E+02  0.00000000000E+00 0.  1.
          4    1    6    6  502    0  0.15596922633E+03 -0.27972411568E+02 -0.20126157235E+03  0.25615439851E+03  0.00000000000E+00 0. -1.
          1    1    5    5  503    0 -0.14987561958E+02 -0.33832951050E+02  0.22766564998E+03  0.23065329776E+03  0.00000000000E+00 0. -1.
         -2    1    5    5    0  503 -0.78661852385E+02  0.68991864917E+01  0.19477155535E+03  0.21016956147E+03  0.00000000000E+00 0.  1.
         -3    1    6    6    0  502  0.10895539832E+03  0.42381496245E+02 -0.19043921365E+03  0.22346043082E+03  0.00000000000E+00 0.  1.
<mgrwt>
<rscale>  0 0.12363910E+04</rscale>
<asrwt>0</asrwt>
<pdfrwt beam="1">  1        1 0.11627093E+00 0.12363910E+04</pdfrwt>
<pdfrwt beam="2">  1       -1 0.77795382E-01 0.12363910E+04</pdfrwt>
<totfact> 0.39561614E+01</totfact>
</mgrwt>
</event>
<event>
12    1  0.1519630E-007  0.1403273E+04  0.7818608E-02  0.8951453E-01
         -2   -1    0    0    0  501 -0.00000000000E+00  0.00000000000E+00  0.90909385806E+03  0.90909385806E+03  0.00000000000E+00 0.  1.
          2   -1    0    0  501    0  0.00000000000E+00 -0.00000000000E+00 -0.54152161994E+03  0.54152161994E+03  0.00000000000E+00 0. -1.
         23    2    1    2    0    0 -0.19759045811E+02 -0.23012867034E+03 -0.24681704294E+03  0.34991278308E+03  0.90391804224E+02 0.  0.
        254    2    1    2    0    0  0.19759045811E+02  0.23012867034E+03  0.61438928107E+03  0.11007026949E+04  0.88358508878E+03 0.  0.
        -24    2    4    4    0    0 -0.34665621383E+02 -0.11097255916E+03  0.71774239003E+03  0.73142959473E+03  0.79488989231E+02 0.  0.
         24    2    4    4    0    0  0.54424667194E+02  0.34110122950E+03 -0.10335310896E+03  0.36927310019E+03  0.79803911077E+02 0.  0.
         11    1    3    3    0    0  0.28881806192E+02 -0.13448376941E+03 -0.11054778227E+03  0.17646771696E+03  0.00000000000E+00 0.  1.
        -11    1    3    3    0    0 -0.48640852003E+02 -0.95644900933E+02 -0.13626926067E+03  0.17344506612E+03  0.00000000000E+00 0. -1.
          4    1    6    6  502    0  0.32580882047E+02  0.57273054746E+02 -0.41784884298E+02  0.78023670964E+02  0.00000000000E+00 0. -1.
          1    1    5    5  503    0  0.19935433229E+02 -0.19811695250E+02  0.26001897829E+03  0.26153354247E+03  0.00000000000E+00 0. -1.
         -2    1    5    5    0  503 -0.54601054612E+02 -0.91160863912E+02  0.45772341175E+03  0.46989605226E+03  0.00000000000E+00 0.  1.
         -3    1    6    6    0  502  0.21843785147E+02  0.28382817476E+03 -0.61568224666E+02  0.29124942922E+03  0.00000000000E+00 0.  1.
<mgrwt>
<rscale>  0 0.14032733E+04</rscale>
<asrwt>0</asrwt>
<pdfrwt beam="1">  1        2 0.83311018E-01 0.14032733E+04</pdfrwt>
<pdfrwt beam="2">  1       -2 0.13986059E+00 0.14032733E+04</pdfrwt>
<totfact> 0.19635228E+01</totfact>
</mgrwt>
</event>
<event>
12    1  0.1519630E-007  0.1660848E+04  0.7818608E-02  0.8784015E-01
         -1   -1    0    0    0  501 -0.00000000000E+00  0.00000000000E+00  0.86238109610E+03  0.86238109610E+03  0.00000000000E+00 0.  1.
          1   -1    0    0  501    0  0.00000000000E+00 -0.00000000000E+00 -0.79965085444E+03  0.79965085444E+03  0.00000000000E+00 0. -1.
         23    2    1    2    0    0 -0.21632789087E+02  0.18495258745E+03 -0.53163066403E+03  0.57088249196E+03  0.92737368531E+02 0.  0.
        254    2    1    2    0    0  0.21632789087E+02 -0.18495258745E+03  0.59436090570E+03  0.10911494586E+04  0.89591674701E+03 0.  0.
        -24    2    4    4    0    0  0.15986302038E+03 -0.44349612206E+02 -0.19836692996E+03  0.27037675563E+03  0.78937175643E+02 0.  0.
         24    2    4    4    0    0 -0.13823023129E+03 -0.14060297524E+03  0.79272783565E+03  0.82077270295E+03  0.79834923393E+02 0.  0.
         11    1    3    3    0    0 -0.22989695169E+02  0.48006025009E+00 -0.46880918479E+02  0.52216635848E+02  0.00000000000E+00 0.  1.
        -11    1    3    3    0    0  0.13569060824E+01  0.18447252720E+03 -0.48474974555E+03  0.51866585611E+03  0.00000000000E+00 0. -1.
          4    1    6    6  502    0 -0.56699382020E+02 -0.11193187862E+03  0.43339145464E+03  0.45118922674E+03  0.00000000000E+00 0. -1.
          1    1    5    5  503    0  0.13427859986E+03 -0.71319917770E+01 -0.17111670822E+03  0.21762935353E+03  0.00000000000E+00 0. -1.
         -2    1    5    5    0  503  0.25584420518E+02 -0.37217620429E+02 -0.27250221740E+02  0.52747402102E+02  0.00000000000E+00 0.  1.
         -3    1    6    6    0  502 -0.81530849273E+02 -0.28671096625E+02  0.35933638101E+03  0.36958347621E+03  0.00000000000E+00 0.  1.
<mgrwt>
<rscale>  0 0.16608477E+04</rscale>
<asrwt>0</asrwt>
<pdfrwt beam="1">  1        1 0.12302321E+00 0.16608477E+04</pdfrwt>
<pdfrwt beam="2">  1       -1 0.13267402E+00 0.16608477E+04</pdfrwt>
<totfact> 0.10174608E+01</totfact>
</mgrwt>
</event>
<event>
12    1  0.1519630E-007  0.1168865E+04  0.7818608E-02  0.9140554E-01
         -1   -1    0    0    0  501 -0.00000000000E+00  0.00000000000E+00  0.42121570954E+03  0.42121570954E+03  0.00000000000E+00 0.  1.
          1   -1    0    0  501    0  0.00000000000E+00 -0.00000000000E+00 -0.81089348532E+03  0.81089348532E+03  0.00000000000E+00 0. -1.
         23    2    1    2    0    0  0.18272169240E+03  0.72391574462E+01 -0.22478366255E+03  0.30397616252E+03  0.91837847072E+02 0.  0.
        254    2    1    2    0    0 -0.18272169240E+03 -0.72391574462E+01 -0.16489411324E+03  0.92813303235E+03  0.89487498282E+03 0.  0.
        -24    2    4    4    0    0  0.31769100803E+03 -0.24991591628E+02 -0.25149631198E+03  0.41378859519E+03  0.80115231612E+02 0.  0.
         24    2    4    4    0    0 -0.50041270044E+03  0.17752434182E+02  0.86602198743E+02  0.51434443716E+03  0.79512511788E+02 0.  0.
         11    1    3    3    0    0  0.54268929078E+02  0.26004192705E+02 -0.23799200155E+02  0.64712723862E+02  0.00000000000E+00 0.  1.
        -11    1    3    3    0    0  0.12845276333E+03 -0.18765035259E+02 -0.20098446239E+03  0.23926343865E+03  0.00000000000E+00 0. -1.
          4    1    6    6  502    0 -0.17809992455E+03  0.11184696262E+02 -0.71977636529E+01  0.17859588001E+03  0.00000000000E+00 0. -1.
          1    1    5    5  503    0  0.39295945580E+02  0.19362613651E+02 -0.54248124767E+02  0.69727621407E+02  0.00000000000E+00 0. -1.
         -2    1    5    5    0  503  0.27839506245E+03 -0.44354205280E+02 -0.19724818721E+03  0.34406097379E+03  0.00000000000E+00 0.  1.
         -3    1    6    6    0  502 -0.32231277588E+03  0.65677379197E+01  0.93799962396E+02  0.33574855715E+03  0.00000000000E+00 0.  1.
<mgrwt>
<rscale>  0 0.11688645E+04</rscale>
<asrwt>0</asrwt>
<pdfrwt beam="1">  1        1 0.12475284E+00 0.11688645E+04</pdfrwt>
<pdfrwt beam="2">  1       -1 0.64802417E-01 0.11688645E+04</pdfrwt>
<totfact> 0.51816875E+01</totfact>
</mgrwt>
</event>
<event>
12    1  0.1519630E-007  0.1950118E+04  0.7818608E-02  0.8630304E-01
          2   -1    0    0  501    0  0.00000000000E+00  0.00000000000E+00  0.18949537643E+04  0.18949537643E+04  0.00000000000E+00 0. -1.
         -2   -1    0    0    0  501 -0.00000000000E+00 -0.00000000000E+00 -0.50172209828E+03  0.50172209828E+03  0.00000000000E+00 0.  1.
         23    2    1    2    0    0  0.18521590090E+03 -0.17263019987E+03  0.14350376648E+04  0.14600277755E+04  0.90784855356E+02 0.  0.
        254    2    1    2    0    0 -0.18521590090E+03  0.17263019987E+03 -0.41805998771E+02  0.93664808710E+03  0.90080840453E+03 0.  0.
        -24    2    4    4    0    0 -0.29583352677E+03 -0.18617936227E+03  0.26450063193E+03  0.44547300833E+03  0.79406462971E+02 0.  0.
         24    2    4    4    0    0  0.11061762587E+03  0.35880956214E+03 -0.30630663070E+03  0.49117507877E+03  0.80303455444E+02 0.  0.
         13    1    3    3    0    0  0.40395414667E+02 -0.35496941391E+02  0.55863750882E+03  0.56121982202E+03  0.00000000000E+00 0. -1.
        -13    1    3    3    0    0  0.14482048624E+03 -0.13713325847E+03  0.87640015602E+03  0.89880795351E+03  0.00000000000E+00 0.  1.
          4    1    6    6  502    0  0.38701813399E+02  0.18645689160E+03 -0.20053712238E+03  0.27654862183E+03  0.00000000000E+00 0. -1.
          1    1    5    5  503    0 -0.10937912882E+03 -0.85495738562E+02  0.15087867976E+03  0.20503095166E+03  0.00000000000E+00 0. -1.
         -2    1    5    5    0  503 -0.18645439795E+03 -0.10068362371E+03  0.11362195216E+03  0.24044205667E+03  0.00000000000E+00 0.  1.
         -3    1    6    6    0  502  0.71915812471E+02  0.17235267054E+03 -0.10576950831E+03  0.21462645693E+03  0.00000000000E+00 0.  1.
<mgrwt>
<rscale>  0 0.19501181E+04</rscale>
<asrwt>0</asrwt>
<pdfrwt beam="1">  1        2 0.29153134E+00 0.19501181E+04</pdfrwt>
<pdfrwt beam="2">  1       -2 0.77188016E-01 0.19501181E+04</pdfrwt>
<totfact> 0.10676776E+01</totfact>
</mgrwt>
</event>
<event>
12    1  0.1519630E-007  0.3500761E+04  0.7818608E-02  0.8113610E-01
         -2   -1    0    0    0  501 -0.00000000000E+00  0.00000000000E+00  0.21744247732E+04  0.21744247732E+04  0.00000000000E+00 0.  1.
          2   -1    0    0  501    0  0.00000000000E+00 -0.00000000000E+00 -0.14090307215E+04  0.14090307215E+04  0.00000000000E+00 0. -1.
         23    2    1    2    0    0 -0.95532734328E+03  0.67320842841E+03 -0.80859335403E+03  0.14254220447E+04  0.11020377650E+03 0.  0.
        254    2    1    2    0    0  0.95532734328E+03 -0.67320842841E+03  0.15739874058E+04  0.21580334501E+04  0.90211534579E+03 0.  0.
        -24    2    4    4    0    0  0.29004004031E+03 -0.19021754407E+03  0.11997353918E+04  0.12510087746E+04  0.73157397684E+02 0.  0.
         24    2    4    4    0    0  0.66528730297E+03 -0.48299088434E+03  0.37425201402E+03  0.90702467546E+03  0.82108477291E+02 0.  0.
         13    1    3    3    0    0 -0.55682615929E+03  0.39675673072E+03 -0.53823565139E+03  0.87015452160E+03  0.00000000000E+00 0.  1.
        -13    1    3    3    0    0 -0.39850118399E+03  0.27645169768E+03 -0.27035770264E+03  0.55526752306E+03  0.00000000000E+00 0. -1.
          4    1    6    6  502    0  0.42778166622E+03 -0.29209332150E+03  0.19489598363E+03  0.55344386062E+03  0.00000000000E+00 0. -1.
          1    1    5    5  503    0  0.25568898659E+03 -0.18419012967E+03  0.11288399194E+04  0.11719993282E+04  0.00000000000E+00 0. -1.
         -2    1    5    5    0  503  0.34351053717E+02 -0.60274143997E+01  0.70895472393E+02  0.79009446407E+02  0.00000000000E+00 0.  1.
         -3    1    6    6    0  502  0.23750563675E+03 -0.19089756284E+03  0.17935603039E+03  0.35358081484E+03  0.00000000000E+00 0.  1.
<mgrwt>
<rscale>  0 0.35007607E+04</rscale>
<asrwt>0</asrwt>
<pdfrwt beam="1">  1        2 0.21677396E+00 0.35007607E+04</pdfrwt>
<pdfrwt beam="2">  1       -2 0.33452689E+00 0.35007607E+04</pdfrwt>
<totfact> 0.22849858E-01</totfact>
</mgrwt>
</event>
<event>
12    1  0.1519630E-007  0.1328646E+04  0.7818608E-02  0.9007152E-01
         -2   -1    0    0    0  501 -0.00000000000E+00  0.00000000000E+00  0.18175188586E+03  0.18175188586E+03  0.00000000000E+00 0.  1.
          2   -1    0    0  501    0  0.00000000000E+00 -0.00000000000E+00 -0.24281727425E+04  0.24281727425E+04  0.00000000000E+00 0. -1.
         23    2    1    2    0    0 -0.65001134712E+02 -0.31322845861E+03 -0.38304569416E+03  0.50700668684E+03  0.89412313954E+02 0.  0.
        254    2    1    2    0    0  0.65001134712E+02  0.31322845861E+03 -0.18633751624E+04  0.21029179415E+04  0.92073864793E+03 0.  0.
        -24    2    4    4    0    0 -0.23254226532E+03  0.53471170135E+03 -0.12510918378E+04  0.13826727435E+04  0.80997655463E+02 0.  0.
         24    2    4    4    0    0  0.29754340003E+03 -0.22148324274E+03 -0.61228332464E+03  0.72024519801E+03  0.79217257653E+02 0.  0.
         11    1    3    3    0    0 -0.64111667965E+02 -0.30475808503E+03 -0.33180510646E+03  0.45506310006E+03  0.00000000000E+00 0. -1.
        -11    1    3    3    0    0 -0.88946674671E+00 -0.84703735751E+01 -0.51240587696E+02  0.51943586775E+02  0.00000000000E+00 0.  1.
          2    1    6    6  502    0  0.92232589017E+02 -0.99319756368E+02 -0.27897763959E+03  0.31016090642E+03  0.00000000000E+00 0. -1.
          3    1    5    5  503    0 -0.19960536741E+03  0.49908846707E+03 -0.11063695386E+04  0.12300346160E+04  0.00000000000E+00 0. -1.
         -4    1    5    5    0  503 -0.32936897906E+02  0.35623234285E+02 -0.14472229924E+03  0.15263812748E+03  0.00000000000E+00 0.  1.
         -1    1    6    6    0  502  0.20531081101E+03 -0.12216348637E+03 -0.33330568505E+03  0.41008429159E+03  0.00000000000E+00 0.  1.
<mgrwt>
<rscale>  0 0.13286459E+04</rscale>
<asrwt>0</asrwt>
<pdfrwt beam="1">  1        2 0.37356499E+00 0.13286459E+04</pdfrwt>
<pdfrwt beam="2">  1       -2 0.27961832E-01 0.13286459E+04</pdfrwt>
<totfact> 0.43950631E+01</totfact>
</mgrwt>
</event>
<event>
12    1  0.1519630E-007  0.1326197E+04  0.7818608E-02  0.9009045E-01
          1   -1    0    0  501    0  0.00000000000E+00  0.00000000000E+00  0.19532130068E+04  0.19532130068E+04  0.00000000000E+00 0. -1.
         -1   -1    0    0    0  501 -0.00000000000E+00 -0.00000000000E+00 -0.22511611302E+03  0.22511611302E+03  0.00000000000E+00 0.  1.
         23    2    1    2    0    0  0.30928452483E+03 -0.14669788984E+03  0.61565585401E+03  0.71034700418E+03  0.91561714628E+02 0.  0.
        254    2    1    2    0    0 -0.30928452483E+03  0.14669788984E+03  0.11124410398E+04  0.14679821156E+04  0.89457768623E+03 0.  0.
        -24    2    4    4    0    0  0.22052528681E+03  0.31595634233E+03  0.40754937533E+03  0.56641022965E+03  0.79146968021E+02 0.  0.
         24    2    4    4    0    0 -0.52980981165E+03 -0.16925845249E+03  0.70489166443E+03  0.90157188598E+03  0.81318797019E+02 0.  0.
         13    1    3    3    0    0  0.21950626597E+03 -0.58005642591E+02  0.36829678722E+03  0.43265480333E+03  0.00000000000E+00 0.  1.
        -13    1    3    3    0    0  0.89778258861E+02 -0.88692247245E+02  0.24735906680E+03  0.27769220085E+03  0.00000000000E+00 0. -1.
          4    1    6    6  502    0 -0.37916707545E+03 -0.84137067967E+02  0.50785671887E+03  0.63934745187E+03  0.00000000000E+00 0. -1.
          1    1    5    5  503    0  0.20275468817E+03  0.23672418847E+03  0.31189505090E+03  0.44093800898E+03  0.00000000000E+00 0. -1.
         -2    1    5    5    0  503  0.17770598642E+02  0.79232153855E+02  0.95654324424E+02  0.12547222068E+03  0.00000000000E+00 0.  1.
         -3    1    6    6    0  502 -0.15064273620E+03 -0.85121384523E+02  0.19703494556E+03  0.26222443411E+03  0.00000000000E+00 0.  1.
<mgrwt>
<rscale>  0 0.13261971E+04</rscale>
<asrwt>0</asrwt>
<pdfrwt beam="1">  1        1 0.30049430E+00 0.13261971E+04</pdfrwt>
<pdfrwt beam="2">  1       -1 0.34633249E-01 0.13261971E+04</pdfrwt>
<totfact> 0.24885621E+01</totfact>
</mgrwt>
</event>
<event>
12    1  0.1519630E-007  0.1622657E+04  0.7818608E-02  0.8806749E-01
          2   -1    0    0  501    0  0.00000000000E+00  0.00000000000E+00  0.35311683885E+03  0.35311683885E+03  0.00000000000E+00 0. -1.
         -2   -1    0    0    0  501 -0.00000000000E+00 -0.00000000000E+00 -0.18641242863E+04  0.18641242863E+04  0.00000000000E+00 0.  1.
         23    2    1    2    0    0 -0.20879137338E+03  0.24756738199E+03  0.90930621365E+02  0.34685800925E+03  0.84608832019E+02 0.  0.
        254    2    1    2    0    0  0.20879137338E+03 -0.24756738199E+03 -0.16019380688E+04  0.18703831159E+04  0.90952953646E+03 0.  0.
        -24    2    4    4    0    0  0.54675184029E+03 -0.24120005750E+03 -0.11718124743E+04  0.13177867809E+04  0.79388176392E+02 0.  0.
         24    2    4    4    0    0 -0.33796046691E+03 -0.63673244868E+01 -0.43012559453E+03  0.55259633495E+03  0.78082407222E+02 0.  0.
         11    1    3    3    0    0 -0.19427535659E+03  0.21960773134E+03  0.10620220268E+03  0.31184832482E+03  0.00000000000E+00 0. -1.
        -11    1    3    3    0    0 -0.14516016795E+02  0.27959650649E+02 -0.15271581311E+02  0.35009684428E+02  0.00000000000E+00 0.  1.
          2    1    6    6  502    0 -0.21900657323E+03 -0.93260660882E+01 -0.33457916062E+03  0.39999258661E+03  0.00000000000E+00 0. -1.
          3    1    5    5  503    0  0.52324113282E+03 -0.21165190847E+03 -0.10822947322E+04  0.12206308618E+04  0.00000000000E+00 0. -1.
         -4    1    5    5    0  503  0.23510707464E+02 -0.29548149039E+02 -0.89517742061E+02  0.97155919124E+02  0.00000000000E+00 0.  1.
         -1    1    6    6    0  502 -0.11895389368E+03  0.29587416014E+01 -0.95546433913E+02  0.15260374834E+03  0.00000000000E+00 0.  1.
<mgrwt>
<rscale>  0 0.16226567E+04</rscale>
<asrwt>0</asrwt>
<pdfrwt beam="1">  1        2 0.54325667E-01 0.16226567E+04</pdfrwt>
<pdfrwt beam="2">  1       -2 0.28678835E+00 0.16226567E+04</pdfrwt>
<totfact> 0.33595448E+00</totfact>
</mgrwt>
</event>
<event>
12    1  0.1519630E-007  0.1579618E+04  0.7818608E-02  0.8833168E-01
         -1   -1    0    0    0  501 -0.00000000000E+00  0.00000000000E+00  0.41039129328E+03  0.41039129328E+03  0.00000000000E+00 0.  1.
          1   -1    0    0  501    0  0.00000000000E+00 -0.00000000000E+00 -0.15200076183E+04  0.15200076183E+04  0.00000000000E+00 0. -1.
         23    2    1    2    0    0  0.81013938254E+02  0.32998721399E+03 -0.86569037018E+03  0.93426990619E+03  0.89362301954E+02 0.  0.
        254    2    1    2    0    0 -0.81013938254E+02 -0.32998721399E+03 -0.24392595480E+03  0.99612900535E+03  0.90405658245E+03 0.  0.
        -24    2    4    4    0    0  0.12560820655E+03 -0.59887538655E+03 -0.14375277914E+03  0.63354942317E+03  0.79314941381E+02 0.  0.
         24    2    4    4    0    0 -0.20662214480E+03  0.26888817256E+03 -0.10017317566E+03  0.36257958217E+03  0.80222990618E+02 0.  0.
         13    1    3    3    0    0  0.51956697532E+02  0.18617063536E+03 -0.60501158091E+03  0.63513621919E+03  0.00000000000E+00 0. -1.
        -13    1    3    3    0    0  0.29057240721E+02  0.14381657863E+03 -0.26067878927E+03  0.29913368701E+03  0.00000000000E+00 0.  1.
          2    1    6    6  502    0 -0.96761305172E+02  0.10939482580E+03 -0.83407163024E+02  0.16818660153E+03  0.00000000000E+00 0. -1.
          1    1    5    5  503    0  0.72586823873E+02 -0.21356111994E+03 -0.25341070003E+02  0.22697878487E+03  0.00000000000E+00 0. -1.
         -4    1    5    5    0  503  0.53021382674E+02 -0.38531426661E+03 -0.11841170914E+03  0.40657063831E+03  0.00000000000E+00 0.  1.
         -1    1    6    6    0  502 -0.10986083963E+03  0.15949334675E+03 -0.16766012635E+02  0.19439298064E+03  0.00000000000E+00 0.  1.
<mgrwt>
<rscale>  0 0.15796175E+04</rscale>
<asrwt>0</asrwt>
<pdfrwt beam="1">  1        1 0.23384733E+00 0.15796175E+04</pdfrwt>
<pdfrwt beam="2">  1       -1 0.63137121E-01 0.15796175E+04</pdfrwt>
<totfact> 0.15493738E+01</totfact>
</mgrwt>
</event>
<event>
12    1  0.1519630E-007  0.1671235E+04  0.7818608E-02  0.8777942E-01
         -1   -1    0    0    0  501 -0.00000000000E+00  0.00000000000E+00  0.87679209807E+03  0.87679209807E+03  0.00000000000E+00 0.  1.
          1   -1    0    0  501    0  0.00000000000E+00 -0.00000000000E+00 -0.79637649637E+03  0.79637649637E+03  0.00000000000E+00 0. -1.
         23    2    1    2    0    0  0.21915545038E+03  0.53425007915E+03  0.83398192239E+02  0.59038900950E+03  0.90286574664E+02 0.  0.
        254    2    1    2    0    0 -0.21915545038E+03 -0.53425007915E+03 -0.29825905371E+01  0.10827795849E+04  0.91594239732E+03 0.  0.
        -24    2    4    4    0    0 -0.55532178772E+03 -0.20842238162E+03 -0.72745505007E+02  0.60277966922E+03  0.78925560129E+02 0.  0.
         24    2    4    4    0    0  0.33616633734E+03 -0.32582769753E+03  0.69762914469E+02  0.47999991572E+03  0.79759388328E+02 0.  0.
         11    1    3    3    0    0  0.14371121613E+03  0.33555449666E+03  0.96104813665E+02  0.37747300444E+03  0.00000000000E+00 0.  1.
        -11    1    3    3    0    0  0.75444234256E+02  0.19869558249E+03 -0.12706621426E+02  0.21291600506E+03  0.00000000000E+00 0. -1.
          2    1    6    6  502    0  0.26553411707E+03 -0.26617903687E+03  0.23736044273E+02  0.37672675349E+03  0.00000000000E+00 0. -1.
          3    1    5    5  503    0 -0.12791960319E+03 -0.27297411900E+02  0.10331416707E+02  0.13120713299E+03  0.00000000000E+00 0. -1.
         -4    1    5    5    0  503 -0.42740218453E+03 -0.18112496972E+03 -0.83076921714E+02  0.47157253622E+03  0.00000000000E+00 0.  1.
         -1    1    6    6    0  502  0.70632220262E+02 -0.59648660658E+02  0.46026870196E+02  0.10327316223E+03  0.00000000000E+00 0.  1.
<mgrwt>
<rscale>  0 0.16712350E+04</rscale>
<asrwt>0</asrwt>
<pdfrwt beam="1">  1        1 0.12251946E+00 0.16712350E+04</pdfrwt>
<pdfrwt beam="2">  1       -1 0.13489109E+00 0.16712350E+04</pdfrwt>
<totfact> 0.98081685E+00</totfact>
</mgrwt>
</event>
<event>
12    1  0.1519630E-007  0.1720041E+04  0.7818608E-02  0.8750016E-01
         -2   -1    0    0    0  501 -0.00000000000E+00  0.00000000000E+00  0.46238432916E+03  0.46238432916E+03  0.00000000000E+00 0.  1.
          2   -1    0    0  501    0  0.00000000000E+00 -0.00000000000E+00 -0.15996113906E+04  0.15996113906E+04  0.00000000000E+00 0. -1.
         23    2    1    2    0    0 -0.25405726080E+03 -0.40696085567E+03 -0.87731374022E+03  0.10068428910E+04  0.11785999544E+03 0.  0.
        254    2    1    2    0    0  0.25405726080E+03  0.40696085567E+03 -0.25991332124E+03  0.10551528288E+04  0.90312254305E+03 0.  0.
        -24    2    4    4    0    0  0.37384872486E+03 -0.17749269968E+03 -0.12375961898E+03  0.43889444676E+03  0.77751942653E+02 0.  0.
         24    2    4    4    0    0 -0.11979146407E+03  0.58445355534E+03 -0.13615370226E+03  0.61625838205E+03  0.72805285411E+02 0.  0.
         11    1    3    3    0    0 -0.23330138380E+03 -0.34197324797E+03 -0.66012993130E+03  0.77919622959E+03  0.00000000000E+00 0. -1.
        -11    1    3    3    0    0 -0.20755876998E+02 -0.64987607698E+02 -0.21718380891E+03  0.22764666138E+03  0.00000000000E+00 0.  1.
          4    1    6    6  502    0 -0.45123434980E+02  0.20967036579E+03 -0.13445896713E+02  0.21489201663E+03  0.00000000000E+00 0. -1.
          3    1    5    5  503    0  0.32020257922E+03 -0.12355650647E+03 -0.11662714087E+03  0.36248833363E+03  0.00000000000E+00 0. -1.
         -4    1    5    5    0  503  0.53646145648E+02 -0.53936193202E+02 -0.71324781091E+01  0.76406113133E+02  0.00000000000E+00 0.  1.
         -3    1    6    6    0  502 -0.74668029086E+02  0.37478318955E+03 -0.12270780555E+03  0.40136636541E+03  0.00000000000E+00 0.  1.
<mgrwt>
<rscale>  0 0.17200410E+04</rscale>
<asrwt>0</asrwt>
<pdfrwt beam="1">  1        2 0.24609406E+00 0.17200410E+04</pdfrwt>
<pdfrwt beam="2">  1       -2 0.71136052E-01 0.17200410E+04</pdfrwt>
<totfact> 0.19020650E+01</totfact>
</mgrwt>
</event>
<event>
12    1  0.1519630E-007  0.1821055E+04  0.7818608E-02  0.8695182E-01
         -1   -1    0    0    0  501 -0.00000000000E+00  0.00000000000E+00  0.19524623482E+04  0.19524623482E+04  0.00000000000E+00 0.  1.
          1   -1    0    0  501    0  0.00000000000E+00 -0.00000000000E+00 -0.42462298441E+03  0.42462298441E+03  0.00000000000E+00 0. -1.
         23    2    1    2    0    0 -0.66198354403E+03  0.17312186702E+03  0.62152429417E+03  0.92890889391E+03  0.91574513553E+02 0.  0.
        254    2    1    2    0    0  0.66198354403E+03 -0.17312186702E+03  0.90631506961E+03  0.14481764387E+04  0.89867379999E+03 0.  0.
        -24    2    4    4    0    0  0.83609815105E+03 -0.35521285045E+02  0.86886796230E+03  0.12089603000E+04  0.79571295845E+02 0.  0.
         24    2    4    4    0    0 -0.17411460702E+03 -0.13760058197E+03  0.37447107313E+02  0.23921613872E+03  0.81069468002E+02 0.  0.
         11    1    3    3    0    0 -0.46673353268E+03  0.16460073253E+03  0.44693931689E+03  0.66684956674E+03  0.00000000000E+00 0.  1.
        -11    1    3    3    0    0 -0.19525001135E+03  0.85211344896E+01  0.17458497728E+03  0.26205932717E+03  0.00000000000E+00 0. -1.
          2    1    6    6  502    0 -0.91664115536E+02 -0.75520156656E+02  0.60760395303E+02  0.13340700797E+03  0.00000000000E+00 0. -1.
          1    1    5    5  503    0  0.42563941572E+03  0.19125435046E+02  0.42025726381E+03  0.59845706802E+03  0.00000000000E+00 0. -1.
         -2    1    5    5    0  503  0.41045873534E+03 -0.54646720091E+02  0.44861069849E+03  0.61050323196E+03  0.00000000000E+00 0.  1.
         -1    1    6    6    0  502 -0.82450491488E+02 -0.62080425314E+02 -0.23313287990E+02  0.10580913075E+03  0.00000000000E+00 0.  1.
<mgrwt>
<rscale>  0 0.18210551E+04</rscale>
<asrwt>0</asrwt>
<pdfrwt beam="1">  1        1 0.65326614E-01 0.18210551E+04</pdfrwt>
<pdfrwt beam="2">  1       -1 0.30037882E+00 0.18210551E+04</pdfrwt>
<totfact> 0.17148970E+00</totfact>
</mgrwt>
</event>
<event>
12    1  0.1519630E-007  0.1769297E+04  0.7818608E-02  0.8722799E-01
          1   -1    0    0  501    0  0.00000000000E+00  0.00000000000E+00  0.16674513495E+04  0.16674513495E+04  0.00000000000E+00 0. -1.
         -1   -1    0    0    0  501 -0.00000000000E+00 -0.00000000000E+00 -0.46934088606E+03  0.46934088606E+03  0.00000000000E+00 0.  1.
         23    2    1    2    0    0  0.68147079501E+02  0.22793976377E+03  0.11680186072E+04  0.11935263480E+04  0.60308508530E+02 0.  0.
        254    2    1    2    0    0 -0.68147079501E+02 -0.22793976377E+03  0.30091856183E+02  0.94326588752E+03  0.91227433067E+03 0.  0.
        -24    2    4    4    0    0 -0.78060439606E+02  0.34263198884E+03  0.62843440096E+02  0.36592129239E+03  0.80367793626E+02 0.  0.
         24    2    4    4    0    0  0.99133601048E+01 -0.57057175261E+03 -0.32751583913E+02  0.57734459513E+03  0.81263249281E+02 0.  0.
         11    1    3    3    0    0  0.60792876121E+01  0.12544018971E+03  0.60513186069E+03  0.61802651056E+03  0.00000000000E+00 0. -1.
        -11    1    3    3    0    0  0.62067791889E+02  0.10249957406E+03  0.56288674654E+03  0.57549983745E+03  0.00000000000E+00 0.  1.
          4    1    6    6  502    0 -0.47800944734E+01 -0.49285757574E+03 -0.52945343124E+02  0.49571629852E+03  0.00000000000E+00 0. -1.
          1    1    5    5  503    0 -0.34456673457E+02  0.18203016489E+03  0.73162481149E+02  0.19918582260E+03  0.00000000000E+00 0. -1.
         -2    1    5    5    0  503 -0.43603766150E+02  0.16060182395E+03 -0.10319041053E+02  0.16673546980E+03  0.00000000000E+00 0.  1.
         -1    1    6    6    0  502  0.14693454578E+02 -0.77714176877E+02  0.20193759211E+02  0.81628296602E+02  0.00000000000E+00 0.  1.
<mgrwt>
<rscale>  0 0.17692971E+04</rscale>
<asrwt>0</asrwt>
<pdfrwt beam="1">  1        1 0.25653097E+00 0.17692971E+04</pdfrwt>
<pdfrwt beam="2">  1       -1 0.72206291E-01 0.17692971E+04</pdfrwt>
<totfact> 0.91834508E+00</totfact>
</mgrwt>
</event>
<event>
12    1  0.1519630E-007  0.1598643E+04  0.7818608E-02  0.8821382E-01
         -1   -1    0    0    0  501 -0.00000000000E+00  0.00000000000E+00  0.10435813956E+04  0.10435813956E+04  0.00000000000E+00 0.  1.
          1   -1    0    0  501    0  0.00000000000E+00 -0.00000000000E+00 -0.61223286052E+03  0.61223286052E+03  0.00000000000E+00 0. -1.
         23    2    1    2    0    0  0.24654897103E+03  0.42032717284E+03 -0.92444192082E+02  0.50416976510E+03  0.90442777734E+02 0.  0.
        254    2    1    2    0    0 -0.24654897103E+03 -0.42032717284E+03  0.52379272719E+03  0.11516444910E+04  0.90247708301E+03 0.  0.
        -24    2    4    4    0    0  0.12231195470E+03  0.72172699838E+02  0.50512574716E+03  0.53083313992E+03  0.80390852272E+02 0.  0.
         24    2    4    4    0    0 -0.36886092573E+03 -0.49249987268E+03  0.18666980027E+02  0.62081135112E+03  0.80273098989E+02 0.  0.
         11    1    3    3    0    0  0.14246171801E+03  0.25455491627E+03 -0.10296438978E+02  0.29188964208E+03  0.00000000000E+00 0.  1.
        -11    1    3    3    0    0  0.10408725302E+03  0.16577225657E+03 -0.82147753104E+02  0.21228012302E+03  0.00000000000E+00 0. -1.
          4    1    6    6  502    0 -0.36745222795E+03 -0.48273943146E+03  0.86288920225E+01  0.60673961160E+03  0.00000000000E+00 0. -1.
          3    1    5    5  503    0  0.12830310441E+03  0.45962072612E+02  0.42483794559E+03  0.44616306294E+03  0.00000000000E+00 0. -1.
         -4    1    5    5    0  503 -0.59911497140E+01  0.26210627226E+02  0.80287801575E+02  0.84670076983E+02  0.00000000000E+00 0.  1.
         -3    1    6    6    0  502 -0.14086977720E+01 -0.97604412238E+01  0.10038088005E+02  0.14071739519E+02  0.00000000000E+00 0.  1.
<mgrwt>
<rscale>  0 0.15986430E+04</rscale>
<asrwt>0</asrwt>
<pdfrwt beam="1">  1        1 0.94189671E-01 0.15986430E+04</pdfrwt>
<pdfrwt beam="2">  1       -1 0.16055098E+00 0.15986430E+04</pdfrwt>
<totfact> 0.92379272E+00</totfact>
</mgrwt>
</event>
<event>
12    1  0.1519630E-007  0.1093801E+04  0.7818608E-02  0.9211255E-01
          1   -1    0    0  501    0  0.00000000000E+00  0.00000000000E+00  0.13701569472E+04  0.13701569472E+04  0.00000000000E+00 0. -1.
         -1   -1    0    0    0  501 -0.00000000000E+00 -0.00000000000E+00 -0.21829631476E+03  0.21829631476E+03  0.00000000000E+00 0.  1.
         23    2    1    2    0    0  0.85168546377E+02 -0.14991577494E+02 -0.12782089906E+01  0.12234269107E+03  0.86531332775E+02 0.  0.
        254    2    1    2    0    0 -0.85168546377E+02  0.14991577494E+02  0.11531388414E+04  0.14661105709E+04  0.90126166554E+03 0.  0.
        -24    2    4    4    0    0  0.75200091898E+02  0.20017928784E+03 -0.51715004436E+02  0.23400991077E+03  0.79745818388E+02 0.  0.
         24    2    4    4    0    0 -0.16036863828E+03 -0.18518771035E+03  0.12048538459E+04  0.12321006601E+04  0.79916572617E+02 0.  0.
         13    1    3    3    0    0  0.78244710153E+02 -0.34879402696E+02  0.24457052976E+02  0.89089588840E+02  0.00000000000E+00 0.  1.
        -13    1    3    3    0    0  0.69238362244E+01  0.19887825201E+02 -0.25735261967E+02  0.33253102228E+02  0.00000000000E+00 0. -1.
          2    1    6    6  502    0 -0.31917993834E+02 -0.31435932456E+02  0.40777436110E+03  0.41022787051E+03  0.00000000000E+00 0. -1.
          1    1    5    5  503    0  0.34138760596E+02  0.82455780077E+02  0.18178984892E+02  0.91076265486E+02  0.00000000000E+00 0. -1.
         -2    1    5    5    0  503  0.41061331302E+02  0.11772350776E+03 -0.69893989328E+02  0.14293364528E+03  0.00000000000E+00 0.  1.
         -1    1    6    6    0  502 -0.12845064444E+03 -0.15375177789E+03  0.79707948476E+03  0.82187278960E+03  0.00000000000E+00 0.  1.
<mgrwt>
<rscale>  0 0.10938011E+04</rscale>
<asrwt>0</asrwt>
<pdfrwt beam="1">  1        1 0.21079337E+00 0.10938011E+04</pdfrwt>
<pdfrwt beam="2">  1       -1 0.33584049E-01 0.10938011E+04</pdfrwt>
<totfact> 0.67127297E+01</totfact>
</mgrwt>
</event>
<event>
12    1  0.1519630E-007  0.1393549E+04  0.7818608E-02  0.8958502E-01
         -1   -1    0    0    0  501 -0.00000000000E+00  0.00000000000E+00  0.73746460498E+03  0.73746460498E+03  0.00000000000E+00 0.  1.
          1   -1    0    0  501    0  0.00000000000E+00 -0.00000000000E+00 -0.65832930831E+03  0.65832930831E+03  0.00000000000E+00 0. -1.
         23    2    1    2    0    0  0.84058400819E+02  0.74612664848E+02  0.41156574955E+03  0.43482027239E+03  0.83960934837E+02 0.  0.
        254    2    1    2    0    0 -0.84058400819E+02 -0.74612664848E+02 -0.33243045288E+03  0.96097364089E+03  0.89461023244E+03 0.  0.
        -24    2    4    4    0    0 -0.37559899600E+03 -0.29853158851E+03 -0.46835105012E+02  0.48864880095E+03  0.79927520124E+02 0.  0.
         24    2    4    4    0    0  0.29154059519E+03  0.22391892366E+03 -0.28559534787E+03  0.47232483994E+03  0.79940282022E+02 0.  0.
         11    1    3    3    0    0  0.50170716851E+02  0.69340453848E+01  0.79688772927E+02  0.94421831931E+02  0.00000000000E+00 0. -1.
        -11    1    3    3    0    0  0.33887683969E+02  0.67678619463E+02  0.33187697662E+03  0.34039844046E+03  0.00000000000E+00 0.  1.
          2    1    6    6  502    0  0.14042278100E+02  0.21475993203E+02 -0.75688337400E-01  0.25659493117E+02  0.00000000000E+00 0. -1.
          3    1    5    5  503    0 -0.23417382526E+03 -0.16834561598E+03  0.87917752332E+01  0.28853929051E+03  0.00000000000E+00 0. -1.
         -4    1    5    5    0  503 -0.14142517075E+03 -0.13018597253E+03 -0.55626880245E+02  0.20010951044E+03  0.00000000000E+00 0.  1.
         -1    1    6    6    0  502  0.27749831709E+03  0.20244293045E+03 -0.28551965953E+03  0.44666534682E+03  0.00000000000E+00 0.  1.
<mgrwt>
<rscale>  0 0.13935488E+04</rscale>
<asrwt>0</asrwt>
<pdfrwt beam="1">  1        1 0.10128143E+00 0.13935488E+04</pdfrwt>
<pdfrwt beam="2">  1       -1 0.11345609E+00 0.13935488E+04</pdfrwt>
<totfact> 0.20678939E+01</totfact>
</mgrwt>
</event>
<event>
12    1  0.1519630E-007  0.1361639E+04  0.7818608E-02  0.8982064E-01
          2   -1    0    0  501    0  0.00000000000E+00  0.00000000000E+00  0.46181794671E+04  0.46181794671E+04  0.00000000000E+00 0. -1.
         -2   -1    0    0    0  501 -0.00000000000E+00 -0.00000000000E+00 -0.10036748708E+03  0.10036748708E+03  0.00000000000E+00 0.  1.
         23    2    1    2    0    0  0.12175881894E+03  0.28267119226E+03  0.98919555895E+03  0.10401111828E+04  0.92710333382E+02 0.  0.
        254    2    1    2    0    0 -0.12175881894E+03 -0.28267119226E+03  0.35286164211E+04  0.36784357713E+04  0.99248559884E+03 0.  0.
        -24    2    4    4    0    0  0.34794133151E+03 -0.96647963964E+02  0.59607416643E+03  0.70159260317E+03  0.80769857141E+02 0.  0.
         24    2    4    4    0    0 -0.46970015045E+03 -0.18602322829E+03  0.29325422546E+04  0.29768431682E+04  0.81045048259E+02 0.  0.
         13    1    3    3    0    0  0.11629654648E+03  0.26665627536E+03  0.97662408217E+03  0.10190314292E+04  0.00000000000E+00 0.  1.
        -13    1    3    3    0    0  0.54622724557E+01  0.16014916894E+02  0.12571476781E+02  0.21079753603E+02  0.00000000000E+00 0. -1.
          2    1    6    6  502    0 -0.16267547639E+03 -0.80364253476E+02  0.12694029680E+04  0.12823048074E+04  0.00000000000E+00 0. -1.
          3    1    5    5  503    0  0.16125632781E+03 -0.83932437600E+02  0.26639156747E+03  0.32251003792E+03  0.00000000000E+00 0. -1.
         -4    1    5    5    0  503  0.18668500370E+03 -0.12715526363E+02  0.32968259896E+03  0.37908256525E+03  0.00000000000E+00 0.  1.
         -1    1    6    6    0  502 -0.30702467406E+03 -0.10565897482E+03  0.16631392867E+04  0.16945383608E+04  0.00000000000E+00 0.  1.
<mgrwt>
<rscale>  0 0.13616388E+04</rscale>
<asrwt>0</asrwt>
<pdfrwt beam="1">  1        2 0.71048899E+00 0.13616388E+04</pdfrwt>
<pdfrwt beam="2">  1       -2 0.15441155E-01 0.13616388E+04</pdfrwt>
<totfact> 0.32055815E+00</totfact>
</mgrwt>
</event>
<event>
12    1  0.1519630E-007  0.1350366E+04  0.7818608E-02  0.8990551E-01
         -1   -1    0    0    0  501 -0.00000000000E+00  0.00000000000E+00  0.76540087384E+03  0.76540087384E+03  0.00000000000E+00 0.  1.
          1   -1    0    0  501    0  0.00000000000E+00 -0.00000000000E+00 -0.59559954740E+03  0.59559954740E+03  0.00000000000E+00 0. -1.
         23    2    1    2    0    0  0.31585347573E+03  0.83020720704E+02 -0.11503271804E+03  0.35711198636E+03  0.87410447845E+02 0.  0.
        254    2    1    2    0    0 -0.31585347573E+03 -0.83020720704E+02  0.28483404447E+03  0.10038884349E+04  0.90554166034E+03 0.  0.
        -24    2    4    4    0    0 -0.14772825882E+03 -0.26825959136E+03 -0.25332522589E+03  0.40536029920E+03  0.79727381007E+02 0.  0.
         24    2    4    4    0    0 -0.16812521691E+03  0.18523887066E+03  0.53815927036E+03  0.59852813568E+03  0.77723877685E+02 0.  0.
         13    1    3    3    0    0  0.15289621206E+03  0.12490363963E+02 -0.17168254589E+02  0.15436323986E+03  0.00000000000E+00 0.  1.
        -13    1    3    3    0    0  0.16295726366E+03  0.70530356741E+02 -0.97864463446E+02  0.20274874650E+03  0.00000000000E+00 0. -1.
          2    1    6    6  502    0  0.14187383700E+01 -0.30897249651E+01 -0.30905481614E+00  0.34139030159E+01  0.00000000000E+00 0. -1.
          3    1    5    5  503    0  0.21991579490E+01  0.30283031171E+01 -0.11891154569E+02  0.12466213236E+02  0.00000000000E+00 0. -1.
         -4    1    5    5    0  503 -0.14992741677E+03 -0.27128789448E+03 -0.24143407132E+03  0.39289408596E+03  0.00000000000E+00 0.  1.
         -1    1    6    6    0  502 -0.16954395528E+03  0.18832859562E+03  0.53846832518E+03  0.59511423266E+03  0.00000000000E+00 0.  1.
<mgrwt>
<rscale>  0 0.13503665E+04</rscale>
<asrwt>0</asrwt>
<pdfrwt beam="1">  1        1 0.91630700E-01 0.13503665E+04</pdfrwt>
<pdfrwt beam="2">  1       -1 0.11775398E+00 0.13503665E+04</pdfrwt>
<totfact> 0.21974182E+01</totfact>
</mgrwt>
</event>
<event>
12    1  0.1519630E-007  0.1133426E+04  0.7818608E-02  0.9173211E-01
         -2   -1    0    0    0  501 -0.00000000000E+00  0.00000000000E+00  0.56900681376E+03  0.56900681376E+03  0.00000000000E+00 0.  1.
          2   -1    0    0  501    0  0.00000000000E+00 -0.00000000000E+00 -0.56442859060E+03  0.56442859060E+03  0.00000000000E+00 0. -1.
         23    2    1    2    0    0  0.17461645704E+02  0.13490075113E+02  0.20822329250E+03  0.22767094997E+03  0.89388090502E+02 0.  0.
        254    2    1    2    0    0 -0.17461645704E+02 -0.13490075113E+02 -0.20364506934E+03  0.90576445438E+03  0.88229872569E+03 0.  0.
        -24    2    4    4    0    0 -0.17681941257E+03 -0.25183688013E+03  0.22106867513E+03  0.38696454045E+03  0.78633819624E+02 0.  0.
         24    2    4    4    0    0  0.15935776687E+03  0.23834680501E+03 -0.42471374448E+03  0.51879991393E+03  0.81040043331E+02 0.  0.
         11    1    3    3    0    0  0.37200893028E+02  0.26569068502E+02  0.50250342605E+02  0.67933193470E+02  0.00000000000E+00 0. -1.
        -11    1    3    3    0    0 -0.19739247324E+02 -0.13078993389E+02  0.15797294990E+03  0.15973775650E+03  0.00000000000E+00 0.  1.
          4    1    6    6  502    0  0.13691992148E+03  0.16831444503E+03 -0.36251027342E+03  0.42248137904E+03  0.00000000000E+00 0. -1.
          1    1    5    5  503    0 -0.15984701503E+03 -0.25426573942E+03  0.21145068338E+03  0.36730576630E+03  0.00000000000E+00 0. -1.
         -2    1    5    5    0  503 -0.16972397540E+02  0.24288592935E+01  0.96179917535E+01  0.19658774150E+02  0.00000000000E+00 0.  1.
         -3    1    6    6    0  502  0.22437845387E+02  0.70032359988E+02 -0.62203471058E+02  0.96318534887E+02  0.00000000000E+00 0.  1.
<mgrwt>
<rscale>  0 0.11334262E+04</rscale>
<asrwt>0</asrwt>
<pdfrwt beam="1">  1        2 0.86835168E-01 0.11334262E+04</pdfrwt>
<pdfrwt beam="2">  1       -2 0.87539510E-01 0.11334262E+04</pdfrwt>
<totfact> 0.59611842E+01</totfact>
</mgrwt>
</event>
<event>
12    1  0.1519630E-007  0.1626669E+04  0.7818608E-02  0.8804330E-01
         -2   -1    0    0    0  501 -0.00000000000E+00  0.00000000000E+00  0.22244467602E+03  0.22244467602E+03  0.00000000000E+00 0.  1.
          2   -1    0    0  501    0  0.00000000000E+00 -0.00000000000E+00 -0.29738305016E+04  0.29738305016E+04  0.00000000000E+00 0. -1.
         23    2    1    2    0    0 -0.11873218380E+03 -0.24000861008E+03  0.11526336009E+02  0.28279150277E+03  0.90203731810E+02 0.  0.
        254    2    1    2    0    0  0.11873218380E+03  0.24000861008E+03 -0.27629121616E+04  0.29134836749E+04  0.88487402868E+03 0.  0.
        -24    2    4    4    0    0  0.33479641645E+03  0.44734899742E+03 -0.21969022036E+04  0.22682590987E+04  0.80064229989E+02 0.  0.
         24    2    4    4    0    0 -0.21606423265E+03 -0.20734038734E+03 -0.56600995803E+03  0.64522457614E+03  0.79206642560E+02 0.  0.
         13    1    3    3    0    0 -0.58851047903E+02 -0.36189445649E+02  0.13270849392E+02  0.70350815626E+02  0.00000000000E+00 0. -1.
        -13    1    3    3    0    0 -0.59881135898E+02 -0.20381916443E+03 -0.17445133826E+01  0.21244068714E+03  0.00000000000E+00 0.  1.
          4    1    6    6  502    0  0.24928528473E+01 -0.10908600155E+02 -0.51579793782E+02  0.52779607797E+02  0.00000000000E+00 0. -1.
          1    1    5    5  503    0  0.59693260737E+01  0.23536378541E+02 -0.16346398410E+03  0.16525758096E+03  0.00000000000E+00 0. -1.
         -2    1    5    5    0  503  0.32882709038E+03  0.42381261888E+03 -0.20334382195E+04  0.21030015178E+04  0.00000000000E+00 0.  1.
         -3    1    6    6    0  502 -0.21855708550E+03 -0.19643178718E+03 -0.51443016424E+03  0.59244496835E+03  0.00000000000E+00 0.  1.
<mgrwt>
<rscale>  0 0.16266687E+04</rscale>
<asrwt>0</asrwt>
<pdfrwt beam="1">  1        2 0.45751234E+00 0.16266687E+04</pdfrwt>
<pdfrwt beam="2">  1       -2 0.34222261E-01 0.16266687E+04</pdfrwt>
<totfact> 0.13912429E+01</totfact>
</mgrwt>
</event>
<event>
12    1  0.1519630E-007  0.1384930E+04  0.7818608E-02  0.8964800E-01
         -1   -1    0    0    0  501 -0.00000000000E+00  0.00000000000E+00  0.11089556668E+04  0.11089556668E+04  0.00000000000E+00 0.  1.
          1   -1    0    0  501    0  0.00000000000E+00 -0.00000000000E+00 -0.43239583006E+03  0.43239583006E+03  0.00000000000E+00 0. -1.
         23    2    1    2    0    0  0.13663474075E+03 -0.34620710445E+03  0.52180393114E+02  0.38601501654E+03  0.88070358335E+02 0.  0.
        254    2    1    2    0    0 -0.13663474075E+03  0.34620710445E+03  0.62437944364E+03  0.11553364803E+04  0.89801129259E+03 0.  0.
        -24    2    4    4    0    0 -0.10289475368E+02 -0.50865951666E+02  0.71620289274E+03  0.72155863904E+03  0.70760636425E+02 0.  0.
         24    2    4    4    0    0 -0.12634526538E+03  0.39707305611E+03 -0.91823449096E+02  0.43377784130E+03  0.78112302625E+02 0.  0.
         11    1    3    3    0    0  0.14329094434E+02 -0.99888211157E+01 -0.13735379645E+02  0.22220714403E+02  0.00000000000E+00 0.  1.
        -11    1    3    3    0    0  0.12230564632E+03 -0.33621828333E+03  0.65915772758E+02  0.36379430213E+03  0.00000000000E+00 0. -1.
          4    1    6    6  502    0 -0.12426452024E+03  0.30355043855E+03 -0.51953212506E+02  0.33208986137E+03  0.00000000000E+00 0. -1.
          3    1    5    5  503    0 -0.35451617395E+01 -0.31040812886E+02  0.67115010419E+03  0.67187689541E+03  0.00000000000E+00 0. -1.
         -4    1    5    5    0  503 -0.67443136284E+01 -0.19825138781E+02  0.45052788549E+02  0.49681743630E+02  0.00000000000E+00 0.  1.
         -3    1    6    6    0  502 -0.20807451426E+01  0.93522617560E+02 -0.39870236590E+02  0.10168797993E+03  0.00000000000E+00 0.  1.
<mgrwt>
<rscale>  0 0.13849300E+04</rscale>
<asrwt>0</asrwt>
<pdfrwt beam="1">  1        1 0.66522436E-01 0.13849300E+04</pdfrwt>
<pdfrwt beam="2">  1       -1 0.17060856E+00 0.13849300E+04</pdfrwt>
<totfact> 0.12847685E+01</totfact>
</mgrwt>
</event>
<event>
12    1  0.1519630E-007  0.3333667E+04  0.7818608E-02  0.8154381E-01
          2   -1    0    0  501    0  0.00000000000E+00  0.00000000000E+00  0.13218882585E+04  0.13218882585E+04  0.00000000000E+00 0.  1.
         -2   -1    0    0    0  501 -0.00000000000E+00 -0.00000000000E+00 -0.21017916496E+04  0.21017916496E+04  0.00000000000E+00 0. -1.
         23    2    1    2    0    0  0.85850843196E+03  0.28104164487E+03  0.92473388058E+03  0.12973603405E+04  0.10949871895E+03 0.  0.
        254    2    1    2    0    0 -0.85850843196E+03 -0.28104164487E+03 -0.17046372717E+04  0.21263195675E+04  0.89410600117E+03 0.  0.
        -24    2    4    4    0    0 -0.86549686025E+03  0.82302785611E+02 -0.13788902320E+04  0.16320352302E+04  0.79637660583E+02 0.  0.
         24    2    4    4    0    0  0.69884282949E+01 -0.36334443048E+03 -0.32574703968E+03  0.49428433735E+03  0.78344489283E+02 0.  0.
         11    1    3    3    0    0  0.54829598567E+03  0.21878479911E+03  0.65304820484E+03  0.88032223308E+03  0.00000000000E+00 0.  1.
        -11    1    3    3    0    0  0.31021244629E+03  0.62256845756E+02  0.27168567574E+03  0.41703810746E+03  0.00000000000E+00 0. -1.
          4    1    6    6  502    0 -0.34608508980E+02 -0.19497594133E+03 -0.16363533590E+03  0.25688497377E+03  0.00000000000E+00 0. -1.
          3    1    5    5  503    0 -0.14744065966E+03  0.40119066625E+02 -0.27145484924E+03  0.31150605580E+03  0.00000000000E+00 0. -1.
         -4    1    5    5    0  503 -0.71805620059E+03  0.42183718986E+02 -0.11074353827E+04  0.13205291743E+04  0.00000000000E+00 0.  1.
         -3    1    6    6    0  502  0.41596937275E+02 -0.16836848915E+03 -0.16211170377E+03  0.23739936358E+03  0.00000000000E+00 0.  1.
<mgrwt>
<rscale>  0 0.33336669E+04</rscale>
<asrwt>0</asrwt>
<pdfrwt beam="1">  1        2 0.20336743E+00 0.33336669E+04</pdfrwt>
<pdfrwt beam="2">  1       -2 0.32335256E+00 0.33336669E+04</pdfrwt>
<totfact> 0.30515138E-01</totfact>
</mgrwt>
</event>
<event>
12    1  0.1519630E-007  0.3214691E+04  0.7818608E-02  0.8184948E-01
          1   -1    0    0  501    0  0.00000000000E+00  0.00000000000E+00  0.13689820357E+04  0.13689820357E+04  0.00000000000E+00 0. -1.
         -1   -1    0    0    0  501 -0.00000000000E+00 -0.00000000000E+00 -0.18872122947E+04  0.18872122947E+04  0.00000000000E+00 0.  1.
         23    2    1    2    0    0 -0.77448865054E+03 -0.71656284370E+03  0.81246033950E+03  0.13347530680E+04  0.90437660651E+02 0.  0.
        254    2    1    2    0    0  0.77448865054E+03  0.71656284370E+03 -0.13306905985E+04  0.19214412624E+04  0.89883484425E+03 0.  0.
        -24    2    4    4    0    0  0.90710305081E+03  0.32754398091E+03 -0.93796434127E+03  0.13476960159E+04  0.79915214084E+02 0.  0.
         24    2    4    4    0    0 -0.13261440026E+03  0.38901886279E+03 -0.39272625726E+03  0.57374524659E+03  0.77636589862E+02 0.  0.
         13    1    3    3    0    0 -0.95421227370E+02 -0.51218803912E+02  0.84466766362E+02  0.13734340584E+03  0.00000000000E+00 0.  1.
        -13    1    3    3    0    0 -0.67906742317E+03 -0.66534403978E+03  0.72799357314E+03  0.11974096622E+04  0.00000000000E+00 0. -1.
          2    1    6    6  502    0 -0.14332440574E+02  0.76356425294E+02 -0.38564122939E+02  0.86734734188E+02  0.00000000000E+00 0. -1.
          3    1    5    5  503    0  0.12316606879E+02  0.60187185485E+01 -0.26416567418E+01  0.13960735236E+02  0.00000000000E+00 0. -1.
         -4    1    5    5    0  503  0.89478644393E+03  0.32152526236E+03 -0.93532268453E+03  0.13337352806E+04  0.00000000000E+00 0.  1.
         -1    1    6    6    0  502 -0.11828195969E+03  0.31266243750E+03 -0.35416213432E+03  0.48701051241E+03  0.00000000000E+00 0.  1.
<mgrwt>
<rscale>  0 0.32146911E+04</rscale>
<asrwt>0</asrwt>
<pdfrwt beam="1">  1        1 0.21061262E+00 0.32146911E+04</pdfrwt>
<pdfrwt beam="2">  1       -1 0.29034035E+00 0.32146911E+04</pdfrwt>
<totfact> 0.25750843E-01</totfact>
</mgrwt>
</event>
<event>
12    1  0.1519630E-007  0.2884109E+04  0.7818608E-02  0.8277621E-01
          2   -1    0    0  501    0  0.00000000000E+00  0.00000000000E+00  0.16713630493E+04  0.16713630493E+04  0.00000000000E+00 0. -1.
         -2   -1    0    0    0  501 -0.00000000000E+00 -0.00000000000E+00 -0.12442067727E+04  0.12442067727E+04  0.00000000000E+00 0.  1.
         23    2    1    2    0    0  0.46121047765E+03 -0.49712670505E+03  0.13233326708E+04  0.14898575672E+04  0.92823205326E+02 0.  0.
        254    2    1    2    0    0 -0.46121047765E+03  0.49712670505E+03 -0.89617639420E+03  0.14257122548E+04  0.87731022927E+03 0.  0.
        -24    2    4    4    0    0 -0.62210920755E+03  0.24719536409E+03 -0.89231726816E+03  0.11183414303E+04  0.79574076016E+02 0.  0.
         24    2    4    4    0    0  0.16089872990E+03  0.24993134096E+03 -0.38591260416E+01  0.30737082447E+03  0.78152763272E+02 0.  0.
         11    1    3    3    0    0  0.43918302421E+03 -0.44995583833E+03  0.11749976669E+04  0.13326520561E+04  0.00000000000E+00 0. -1.
        -11    1    3    3    0    0  0.22027453436E+02 -0.47170866715E+02  0.14833500381E+03  0.15720551112E+03  0.00000000000E+00 0.  1.
          4    1    6    6  502    0  0.11650814089E+03  0.14184926112E+03  0.29363166057E+02  0.18589662529E+03  0.00000000000E+00 0. -1.
          1    1    5    5  503    0 -0.61183055404E+03  0.25262909310E+03 -0.88225650613E+03  0.11029662860E+04  0.00000000000E+00 0. -1.
         -2    1    5    5    0  503 -0.10278653506E+02 -0.54337290137E+01 -0.10060762022E+02  0.15375144271E+02  0.00000000000E+00 0.  1.
         -3    1    6    6    0  502  0.44390589016E+02  0.10808207984E+03 -0.33222292098E+02  0.12147419919E+03  0.00000000000E+00 0.  1.
<mgrwt>
<rscale>  0 0.28841090E+04</rscale>
<asrwt>0</asrwt>
<pdfrwt beam="1">  1        2 0.25713278E+00 0.28841090E+04</pdfrwt>
<pdfrwt beam="2">  1       -2 0.19141643E+00 0.28841090E+04</pdfrwt>
<totfact> 0.13334860E+00</totfact>
</mgrwt>
</event>
<event>
12    1  0.1519630E-007  0.2008785E+04  0.7818608E-02  0.8602524E-01
          1   -1    0    0  501    0  0.00000000000E+00  0.00000000000E+00  0.19109932384E+04  0.19109932384E+04  0.00000000000E+00 0. -1.
         -1   -1    0    0    0  501 -0.00000000000E+00 -0.00000000000E+00 -0.52789544720E+03  0.52789544720E+03  0.00000000000E+00 0.  1.
         23    2    1    2    0    0  0.10232054446E+03 -0.16121749842E+03  0.14990826314E+04  0.15138571022E+04  0.89744162912E+02 0.  0.
        254    2    1    2    0    0 -0.10232054446E+03  0.16121749842E+03 -0.11598484012E+03  0.92503158339E+03  0.89764713085E+03 0.  0.
        -24    2    4    4    0    0  0.37546247805E+03  0.19732374988E+03 -0.70214689351E+02  0.43724994508E+03  0.79678586728E+02 0.  0.
         24    2    4    4    0    0 -0.47778302251E+03 -0.36106251459E+02 -0.45770150764E+02  0.48778163831E+03  0.79093248634E+02 0.  0.
         13    1    3    3    0    0  0.98527716568E+02 -0.86973781868E+02  0.11084169621E+04  0.11161811284E+04  0.00000000000E+00 0.  1.
        -13    1    3    3    0    0  0.37928278918E+01 -0.74243716552E+02  0.39066566927E+03  0.39767597380E+03  0.00000000000E+00 0. -1.
          4    1    6    6  502    0 -0.28654995210E+03  0.17019035190E+02 -0.22205687001E+02  0.28791251300E+03  0.00000000000E+00 0. -1.
          1    1    5    5  503    0  0.26049340565E+03  0.93832499833E+02 -0.43633966874E+02  0.28029497940E+03  0.00000000000E+00 0. -1.
         -4    1    5    5    0  503  0.11496907240E+03  0.10349125005E+03 -0.26580722477E+02  0.15695496568E+03  0.00000000000E+00 0.  1.
         -3    1    6    6    0  502 -0.19123307041E+03 -0.53125286648E+02 -0.23564463764E+02  0.19986912531E+03  0.00000000000E+00 0.  1.
<mgrwt>
<rscale>  0 0.20087853E+04</rscale>
<asrwt>0</asrwt>
<pdfrwt beam="1">  1        1 0.29399896E+00 0.20087853E+04</pdfrwt>
<pdfrwt beam="2">  1       -1 0.81214685E-01 0.20087853E+04</pdfrwt>
<totfact> 0.47945322E+00</totfact>
</mgrwt>
</event>
<event>
12    1  0.1668169E-007  0.1664863E+04  0.7818608E-02  0.8781662E-01
         -1   -1    0    0    0  501 -0.00000000000E+00  0.00000000000E+00  0.36772970625E+03  0.36772970625E+03  0.00000000000E+00 0.  1.
          1   -1    0    0  501    0  0.00000000000E+00 -0.00000000000E+00 -0.18843797526E+04  0.18843797526E+04  0.00000000000E+00 0. -1.
         23    2    1    2    0    0  0.43630177998E+03 -0.23357460388E+03 -0.93447290207E+03  0.10613782104E+04  0.91475472275E+02 0.  0.
        254    2    1    2    0    0 -0.43630177998E+03  0.23357460388E+03 -0.58217714426E+03  0.11907312484E+04  0.91323290562E+03 0.  0.
        -24    2    4    4    0    0 -0.30109121714E+03  0.50534841797E+03 -0.63859772459E+03  0.87190135336E+03  0.79824630070E+02 0.  0.
         24    2    4    4    0    0 -0.13521056284E+03 -0.27177381409E+03  0.56420580322E+02  0.31882989507E+03  0.79538152972E+02 0.  0.
         11    1    3    3    0    0  0.34181500046E+03 -0.17495546570E+03 -0.63677551029E+03  0.74359260353E+03  0.00000000000E+00 0. -1.
        -11    1    3    3    0    0  0.94486779518E+02 -0.58619138180E+02 -0.29769739177E+03  0.31778560687E+03  0.00000000000E+00 0.  1.
          2    1    6    6  502    0 -0.85701042143E+02 -0.23454784025E+03  0.59867829889E+02  0.25679080016E+03  0.00000000000E+00 0. -1.
          3    1    5    5  503    0 -0.28372157107E+03  0.49697229720E+03 -0.60236633231E+03  0.83085774497E+03  0.00000000000E+00 0. -1.
         -4    1    5    5    0  503 -0.17369646074E+02  0.83761207706E+01 -0.36231392273E+02  0.41043608393E+02  0.00000000000E+00 0.  1.
         -1    1    6    6    0  502 -0.49509520698E+02 -0.37225973843E+02 -0.34472495663E+01  0.62039094915E+02  0.00000000000E+00 0.  1.
<mgrwt>
<rscale>  0 0.16648633E+04</rscale>
<asrwt>0</asrwt>
<pdfrwt beam="1">  1        1 0.28990457E+00 0.16648633E+04</pdfrwt>
<pdfrwt beam="2">  1       -1 0.56573802E-01 0.16648633E+04</pdfrwt>
<totfact> 0.10776989E+01</totfact>
</mgrwt>
</event>
<event>
12    1  0.1519630E-007  0.2107405E+04  0.7818608E-02  0.8557988E-01
          1   -1    0    0  501    0  0.00000000000E+00  0.00000000000E+00  0.22149494563E+04  0.22149494563E+04  0.00000000000E+00 0. -1.
         -1   -1    0    0    0  501 -0.00000000000E+00 -0.00000000000E+00 -0.50127055660E+03  0.50127055660E+03  0.00000000000E+00 0.  1.
         23    2    1    2    0    0  0.78967745561E+03  0.32114016761E+03  0.56709882591E+03  0.10273292770E+04  0.84159811183E+02 0.  0.
        254    2    1    2    0    0 -0.78967745561E+03 -0.32114016761E+03  0.11465800738E+04  0.16888907359E+04  0.90054681230E+03 0.  0.
        -24    2    4    4    0    0 -0.80193457619E+03 -0.23136772690E+03  0.12662648627E+04  0.15186172521E+04  0.78368146432E+02 0.  0.
         24    2    4    4    0    0  0.12257120589E+02 -0.89772440714E+02 -0.11968478891E+03  0.17027348381E+03  0.80369661402E+02 0.  0.
         13    1    3    3    0    0  0.26903522693E+03  0.96934268205E+02  0.14536702135E+03  0.32079241976E+03  0.00000000000E+00 0.  1.
        -13    1    3    3    0    0  0.52064222868E+03  0.22420589941E+03  0.42173180455E+03  0.70653685720E+03  0.00000000000E+00 0. -1.
          2    1    6    6  502    0 -0.23882341797E+02 -0.14218763601E+02 -0.49649701501E+01  0.28234560677E+02  0.00000000000E+00 0. -1.
          3    1    5    5  503    0 -0.10435566860E+03 -0.90389824912E+01  0.18935148574E+03  0.21639268454E+03  0.00000000000E+00 0. -1.
         -4    1    5    5    0  503 -0.69757890760E+03 -0.22232874441E+03  0.10769133770E+04  0.13022245676E+04  0.00000000000E+00 0.  1.
         -1    1    6    6    0  502  0.36139462387E+02 -0.75553677113E+02 -0.11471981876E+03  0.14203892313E+03  0.00000000000E+00 0.  1.
<mgrwt>
<rscale>  0 0.21074050E+04</rscale>
<asrwt>0</asrwt>
<pdfrwt beam="1">  1        1 0.34076145E+00 0.21074050E+04</pdfrwt>
<pdfrwt beam="2">  1       -1 0.77118548E-01 0.21074050E+04</pdfrwt>
<totfact> 0.32976003E+00</totfact>
</mgrwt>
</event>
<event>
12    1  0.1519630E-007  0.1639678E+04  0.7818608E-02  0.8796537E-01
          1   -1    0    0  501    0  0.00000000000E+00  0.00000000000E+00  0.18512160223E+04  0.18512160223E+04  0.00000000000E+00 0. -1.
         -1   -1    0    0    0  501 -0.00000000000E+00 -0.00000000000E+00 -0.36307789954E+03  0.36307789954E+03  0.00000000000E+00 0.  1.
         23    2    1    2    0    0  0.45976467684E+03 -0.21654962450E+03  0.17623513475E+03  0.54570978162E+03  0.91994810155E+02 0.  0.
        254    2    1    2    0    0 -0.45976467684E+03  0.21654962450E+03  0.13119029880E+04  0.16685841402E+04  0.89710996268E+03 0.  0.
        -24    2    4    4    0    0  0.23428297127E+03  0.15951444710E+03  0.60558089380E+03  0.67342904670E+03  0.80281333696E+02 0.  0.
         24    2    4    4    0    0 -0.69404764811E+03  0.57035177395E+02  0.70632209421E+03  0.99515509353E+03  0.80545701900E+02 0.  0.
         13    1    3    3    0    0  0.12876985453E+03 -0.42564900113E+02  0.87468453431E+02  0.16138208235E+03  0.00000000000E+00 0. -1.
        -13    1    3    3    0    0  0.33099482231E+03 -0.17398472439E+03  0.88766681318E+02  0.38432769927E+03  0.00000000000E+00 0.  1.
          4    1    6    6  502    0 -0.12856435618E+02  0.33404104117E+01  0.13108095038E+01  0.13347827541E+02  0.00000000000E+00 0. -1.
          3    1    5    5  503    0  0.10535993836E+03  0.11211347213E+03  0.26884040343E+03  0.30975039913E+03  0.00000000000E+00 0. -1.
         -4    1    5    5    0  503  0.12892303292E+03  0.47400974973E+02  0.33674049037E+03  0.36367864757E+03  0.00000000000E+00 0.  1.
         -3    1    6    6    0  502 -0.68119121249E+03  0.53694766984E+02  0.70501128471E+03  0.98180726599E+03  0.00000000000E+00 0.  1.
<mgrwt>
<rscale>  0 0.16396776E+04</rscale>
<asrwt>0</asrwt>
<pdfrwt beam="1">  1        1 0.28480246E+00 0.16396776E+04</pdfrwt>
<pdfrwt beam="2">  1       -1 0.55858140E-01 0.16396776E+04</pdfrwt>
<totfact> 0.11660416E+01</totfact>
</mgrwt>
</event>
<event>
12    1  0.1519630E-007  0.2139872E+04  0.7818608E-02  0.8543880E-01
         -2   -1    0    0    0  501 -0.00000000000E+00  0.00000000000E+00  0.51566258074E+03  0.51566258074E+03  0.00000000000E+00 0.  1.
          2   -1    0    0  501    0  0.00000000000E+00 -0.00000000000E+00 -0.22199851098E+04  0.22199851098E+04  0.00000000000E+00 0. -1.
         23    2    1    2    0    0  0.65056378565E+03 -0.47079785440E+03 -0.11518493979E+04  0.14064914811E+04  0.81101122984E+02 0.  0.
        254    2    1    2    0    0 -0.65056378565E+03  0.47079785440E+03 -0.55247313122E+03  0.13291562095E+04  0.90362924340E+03 0.  0.
        -24    2    4    4    0    0 -0.79831061830E+03  0.12365052820E+03 -0.45702411404E+03  0.93155421585E+03  0.79579644630E+02 0.  0.
         24    2    4    4    0    0  0.14774683265E+03  0.34714732620E+03 -0.95449017180E+02  0.39760199361E+03  0.81464334514E+02 0.  0.
         13    1    3    3    0    0  0.10263458871E+03 -0.47091906194E+02 -0.13259821541E+03  0.17416599312E+03  0.00000000000E+00 0.  1.
        -13    1    3    3    0    0  0.54792919694E+03 -0.42370594821E+03 -0.10192511825E+04  0.12323254880E+04  0.00000000000E+00 0. -1.
          2    1    6    6  502    0  0.89760948290E+02  0.23264985374E+03 -0.10122833470E+03  0.26912851582E+03  0.00000000000E+00 0. -1.
          1    1    5    5  503    0 -0.26662694930E+03  0.52823457791E+01 -0.13724007650E+03  0.29992110940E+03  0.00000000000E+00 0. -1.
         -2    1    5    5    0  503 -0.53168366900E+03  0.11836818242E+03 -0.31978403753E+03  0.63163310644E+03  0.00000000000E+00 0.  1.
         -1    1    6    6    0  502  0.57985884355E+02  0.11449747246E+03  0.57793175149E+01  0.12847347779E+03  0.00000000000E+00 0.  1.
<mgrwt>
<rscale>  0 0.21398722E+04</rscale>
<asrwt>0</asrwt>
<pdfrwt beam="1">  1        2 0.34153618E+00 0.21398722E+04</pdfrwt>
<pdfrwt beam="2">  1       -2 0.79332703E-01 0.21398722E+04</pdfrwt>
<totfact> 0.65097895E+00</totfact>
</mgrwt>
</event>
<event>
12    1  0.1519630E-007  0.1521894E+04  0.7818608E-02  0.8870023E-01
         -2   -1    0    0    0  501 -0.00000000000E+00  0.00000000000E+00  0.28627279207E+03  0.28627279207E+03  0.00000000000E+00 0. -1.
          2   -1    0    0  501    0  0.00000000000E+00 -0.00000000000E+00 -0.20226869994E+04  0.20226869994E+04  0.00000000000E+00 0.  1.
         23    2    1    2    0    0  0.27639140772E+03  0.18456900020E+03 -0.11115124029E+04  0.11633852361E+04  0.86876117822E+02 0.  0.
        254    2    1    2    0    0 -0.27639140772E+03 -0.18456900020E+03 -0.62490180441E+03  0.11455745553E+04  0.90076682356E+03 0.  0.
        -24    2    4    4    0    0 -0.54470264533E+03 -0.32919826020E+03 -0.46358004846E+03  0.79140745452E+03  0.79667003120E+02 0.  0.
         24    2    4    4    0    0  0.26831123761E+03  0.14462926001E+03 -0.16132175595E+03  0.35416710075E+03  0.80629295141E+02 0.  0.
         13    1    3    3    0    0  0.32675398070E+02 -0.70679989881E+01 -0.11433529708E+03  0.11912261921E+03  0.00000000000E+00 0. -1.
        -13    1    3    3    0    0  0.24371600965E+03  0.19163699918E+03 -0.99717710579E+03  0.10442626169E+04  0.00000000000E+00 0.  1.
          2    1    6    6  502    0  0.11483305901E+03  0.10755041446E+03 -0.76890227468E+02  0.17511661878E+03  0.00000000000E+00 0. -1.
          1    1    5    5  503    0 -0.78838727203E+01 -0.10972255046E+02 -0.25764350522E+02  0.29092053686E+02  0.00000000000E+00 0. -1.
         -2    1    5    5    0  503 -0.53681877261E+03 -0.31822600516E+03 -0.43781569794E+03  0.76231540083E+03  0.00000000000E+00 0.  1.
         -1    1    6    6    0  502  0.15347817860E+03  0.37078845544E+02 -0.84431528483E+02  0.17905048197E+03  0.00000000000E+00 0.  1.
<mgrwt>
<rscale>  0 0.15218939E+04</rscale>
<asrwt>0</asrwt>
<pdfrwt beam="1">  1        2 0.31118260E+00 0.15218939E+04</pdfrwt>
<pdfrwt beam="2">  1       -2 0.44041970E-01 0.15218939E+04</pdfrwt>
<totfact> 0.30617229E+01</totfact>
</mgrwt>
</event>
<event>
12    1  0.1519630E-007  0.2230691E+04  0.7818608E-02  0.8505761E-01
          1   -1    0    0  501    0  0.00000000000E+00  0.00000000000E+00  0.19542739963E+04  0.19542739963E+04  0.00000000000E+00 0. -1.
         -1   -1    0    0    0  501 -0.00000000000E+00 -0.00000000000E+00 -0.63655127168E+03  0.63655127168E+03  0.00000000000E+00 0.  1.
         23    2    1    2    0    0  0.14860199634E+03 -0.86922277740E+03  0.23506270504E+03  0.91755917066E+03  0.95024030142E+02 0.  0.
        254    2    1    2    0    0 -0.14860199634E+03  0.86922277740E+03  0.10826600196E+04  0.16732660973E+04  0.92197392826E+03 0.  0.
        -24    2    4    4    0    0 -0.40503075240E+03  0.66498015783E+03  0.33128546412E+03  0.84967810514E+03  0.77164129726E+02 0.  0.
         24    2    4    4    0    0  0.25642875606E+03  0.20424261957E+03  0.75137455546E+03  0.82358799219E+03  0.79137245934E+02 0.  0.
         11    1    3    3    0    0  0.33610142641E+02 -0.19134590355E+03  0.93379117312E+02  0.21555174795E+03  0.00000000000E+00 0. -1.
        -11    1    3    3    0    0  0.11499185369E+03 -0.67787687385E+03  0.14168358773E+03  0.70200742272E+03  0.00000000000E+00 0.  1.
          2    1    6    6  502    0  0.22090940509E+03  0.19193392588E+03  0.59926111159E+03  0.66689840083E+03  0.00000000000E+00 0. -1.
          1    1    5    5  503    0 -0.28633841166E+03  0.53216123038E+03  0.25493301268E+03  0.65587811525E+03  0.00000000000E+00 0. -1.
         -2    1    5    5    0  503 -0.11869234074E+03  0.13281892745E+03  0.76352451445E+02  0.19379998989E+03  0.00000000000E+00 0.  1.
         -1    1    6    6    0  502  0.35519350976E+02  0.12308693686E+02  0.15211344387E+03  0.15668959136E+03  0.00000000000E+00 0.  1.
<mgrwt>
<rscale>  0 0.22306910E+04</rscale>
<asrwt>0</asrwt>
<pdfrwt beam="1">  1        1 0.30065754E+00 0.22306910E+04</pdfrwt>
<pdfrwt beam="2">  1       -1 0.97930966E-01 0.22306910E+04</pdfrwt>
<totfact> 0.29089807E+00</totfact>
</mgrwt>
</event>
<event>
12    1  0.1519630E-007  0.3327702E+04  0.7818608E-02  0.8155882E-01
         -1   -1    0    0    0  501 -0.00000000000E+00  0.00000000000E+00  0.10579991030E+04  0.10579991030E+04  0.00000000000E+00 0.  1.
          1   -1    0    0  501    0  0.00000000000E+00 -0.00000000000E+00 -0.26166374438E+04  0.26166374438E+04  0.00000000000E+00 0. -1.
         23    2    1    2    0    0  0.10557546885E+04  0.59807484032E+03  0.32296922525E+03  0.12589743425E+04  0.91628585089E+02 0.  0.
        254    2    1    2    0    0 -0.10557546885E+04 -0.59807484032E+03 -0.18816075661E+04  0.24156622044E+04  0.90700902746E+03 0.  0.
        -24    2    4    4    0    0 -0.56638108357E+03 -0.58412426631E+03 -0.17021366164E+04  0.18880433878E+04  0.73824678489E+02 0.  0.
         24    2    4    4    0    0 -0.48937360495E+03 -0.13950574003E+02 -0.17947094969E+03  0.52761881653E+03  0.80564570630E+02 0.  0.
         11    1    3    3    0    0  0.18621984677E+03  0.92596415581E+02  0.22030126384E+02  0.20913453559E+03  0.00000000000E+00 0. -1.
        -11    1    3    3    0    0  0.86953484175E+03  0.50547842474E+03  0.30093909887E+03  0.10498398069E+04  0.00000000000E+00 0.  1.
          2    1    6    6  502    0 -0.46469350211E+02 -0.15512821579E+02  0.18698997750E+01  0.49025959119E+02  0.00000000000E+00 0. -1.
          1    1    5    5  503    0 -0.10863182181E+03 -0.73339117708E+02 -0.27736524087E+03  0.30677512243E+03  0.00000000000E+00 0. -1.
         -2    1    5    5    0  503 -0.45774926176E+03 -0.51078514861E+03 -0.14247713755E+04  0.15812682654E+04  0.00000000000E+00 0.  1.
         -1    1    6    6    0  502 -0.44290425474E+03  0.15622475764E+01 -0.18134084947E+03  0.47859285741E+03  0.00000000000E+00 0.  1.
<mgrwt>
<rscale>  0 0.33277020E+04</rscale>
<asrwt>0</asrwt>
<pdfrwt beam="1">  1        1 0.40255961E+00 0.33277020E+04</pdfrwt>
<pdfrwt beam="2">  1       -1 0.16276909E+00 0.33277020E+04</pdfrwt>
<totfact> 0.25883862E-01</totfact>
</mgrwt>
</event>
<event>
12    1  0.1519630E-007  0.1618097E+04  0.7818608E-02  0.8809507E-01
          1   -1    0    0  501    0  0.00000000000E+00  0.00000000000E+00  0.30597014211E+03  0.30597014211E+03  0.00000000000E+00 0. -1.
         -1   -1    0    0    0  501 -0.00000000000E+00 -0.00000000000E+00 -0.21392927893E+04  0.21392927893E+04  0.00000000000E+00 0.  1.
         23    2    1    2    0    0 -0.13970422222E+03  0.50345523492E+01  0.17617497176E+03  0.24290348305E+03  0.91770719627E+02 0.  0.
        254    2    1    2    0    0  0.13970422222E+03 -0.50345523492E+01 -0.20094976189E+04  0.22023594483E+04  0.89037286727E+03 0.  0.
        -24    2    4    4    0    0  0.11540366880E+03  0.42429179577E+03 -0.80188073090E+03  0.91799634493E+03  0.79768715661E+02 0.  0.
         24    2    4    4    0    0  0.24300553421E+02 -0.42932634812E+03 -0.12076168880E+04  0.12843631034E+04  0.79614088210E+02 0.  0.
         11    1    3    3    0    0 -0.14777915074E+03  0.19323270724E+02  0.16795988595E+03  0.22454974833E+03  0.00000000000E+00 0. -1.
        -11    1    3    3    0    0  0.80749285221E+01 -0.14288718375E+02  0.82150858055E+01  0.18353734722E+02  0.00000000000E+00 0.  1.
          2    1    6    6  502    0 -0.28932463777E+02 -0.12431529390E+03 -0.36242803903E+03  0.38424661772E+03  0.00000000000E+00 0. -1.
          3    1    5    5  503    0  0.27688775163E+02  0.48996692335E+02 -0.15628302663E+03  0.16610758123E+03  0.00000000000E+00 0. -1.
         -4    1    5    5    0  503  0.87714893634E+02  0.37529510343E+03 -0.64559770427E+03  0.75188876370E+03  0.00000000000E+00 0.  1.
         -1    1    6    6    0  502  0.53233017199E+02 -0.30501105421E+03 -0.84518884900E+03  0.90011648568E+03  0.00000000000E+00 0.  1.
<mgrwt>
<rscale>  0 0.16180973E+04</rscale>
<asrwt>0</asrwt>
<pdfrwt beam="1">  1        1 0.47072331E-01 0.16180973E+04</pdfrwt>
<pdfrwt beam="2">  1       -1 0.32912196E+00 0.16180973E+04</pdfrwt>
<totfact> 0.17516812E+00</totfact>
</mgrwt>
</event>
<event>
12    1  0.1519630E-007  0.1597520E+04  0.7818608E-02  0.8822073E-01
         -2   -1    0    0    0  501 -0.00000000000E+00  0.00000000000E+00  0.26778522817E+03  0.26778522817E+03  0.00000000000E+00 0.  1.
          2   -1    0    0  501    0  0.00000000000E+00 -0.00000000000E+00 -0.23825718721E+04  0.23825718721E+04  0.00000000000E+00 0. -1.
         23    2    1    2    0    0 -0.29503959805E+03 -0.21324472092E+03 -0.61271258043E+02  0.37999460642E+03  0.90111366796E+02 0.  0.
        254    2    1    2    0    0  0.29503959805E+03  0.21324472092E+03 -0.20535153858E+04  0.22703624938E+04  0.89727294509E+03 0.  0.
        -24    2    4    4    0    0  0.11460078817E+03  0.53465930140E+03 -0.89489329995E+03  0.10518159377E+04  0.80553331421E+02 0.  0.
         24    2    4    4    0    0  0.18043880988E+03 -0.32141458048E+03 -0.11586220859E+04  0.12185465562E+04  0.81148474596E+02 0.  0.
         11    1    3    3    0    0  0.63516675625E+00 -0.14397974850E+02 -0.14799432198E+02  0.20657403273E+02  0.00000000000E+00 0. -1.
        -11    1    3    3    0    0 -0.29567476481E+03 -0.19884674607E+03 -0.46471825845E+02  0.35933720315E+03  0.00000000000E+00 0.  1.
          4    1    6    6  502    0  0.43738225314E+02 -0.23520409252E+02 -0.15084724919E+03  0.15881163243E+03  0.00000000000E+00 0. -1.
          1    1    5    5  503    0  0.11547019434E+02  0.42044583007E+01 -0.18012103523E+02  0.21804747206E+02  0.00000000000E+00 0. -1.
         -2    1    5    5    0  503  0.10305376874E+03  0.53045484310E+03 -0.87688119643E+03  0.10300111905E+04  0.00000000000E+00 0.  1.
         -3    1    6    6    0  502  0.13670058457E+03 -0.29789417123E+03 -0.10077748367E+04  0.10597349237E+04  0.00000000000E+00 0.  1.
<mgrwt>
<rscale>  0 0.15975200E+04</rscale>
<asrwt>0</asrwt>
<pdfrwt beam="1">  1        2 0.36654953E+00 0.15975200E+04</pdfrwt>
<pdfrwt beam="2">  1       -2 0.41197727E-01 0.15975200E+04</pdfrwt>
<totfact> 0.21808655E+01</totfact>
</mgrwt>
</event>
<event>
12    1  0.1519630E-007  0.2369599E+04  0.7818608E-02  0.8450974E-01
          2   -1    0    0  501    0  0.00000000000E+00  0.00000000000E+00  0.34479938304E+04  0.34479938304E+04  0.00000000000E+00 0. -1.
         -2   -1    0    0    0  501 -0.00000000000E+00 -0.00000000000E+00 -0.40712088164E+03  0.40712088164E+03  0.00000000000E+00 0.  1.
         23    2    1    2    0    0 -0.58691214836E+03 -0.82233333408E+03  0.11294235612E+04  0.15176747370E+04  0.83910931821E+02 0.  0.
        254    2    1    2    0    0  0.58691214836E+03  0.82233333408E+03  0.19114493876E+04  0.23374399751E+04  0.88841932305E+03 0.  0.
        -24    2    4    4    0    0 -0.31991488240E+02  0.11983723180E+03 -0.55915206990E+02  0.15714777117E+03  0.78641554950E+02 0.  0.
         24    2    4    4    0    0  0.61890363660E+03  0.70249610228E+03  0.19673645946E+04  0.21802922039E+04  0.81290598124E+02 0.  0.
         11    1    3    3    0    0 -0.39205447452E+03 -0.53575923004E+03  0.79937519071E+03  0.10391079631E+04  0.00000000000E+00 0. -1.
        -11    1    3    3    0    0 -0.19485767384E+03 -0.28657410404E+03  0.33004837050E+03  0.47856677385E+03  0.00000000000E+00 0.  1.
          4    1    6    6  502    0  0.12587165453E+03  0.11430395520E+03  0.30174019289E+03  0.34634695263E+03  0.00000000000E+00 0. -1.
          1    1    5    5  503    0 -0.17219768041E+02  0.73327195997E+02  0.90850438312E+01  0.75867885864E+02  0.00000000000E+00 0. -1.
         -4    1    5    5    0  503 -0.14771720198E+02  0.46510035803E+02 -0.65000250821E+02  0.81279885303E+02  0.00000000000E+00 0.  1.
         -3    1    6    6    0  502  0.49303198207E+03  0.58819214708E+03  0.16656244017E+04  0.18339452513E+04  0.00000000000E+00 0.  1.
<mgrwt>
<rscale>  0 0.23695994E+04</rscale>
<asrwt>0</asrwt>
<pdfrwt beam="1">  1        2 0.53046057E+00 0.23695994E+04</pdfrwt>
<pdfrwt beam="2">  1       -2 0.62633984E-01 0.23695994E+04</pdfrwt>
<totfact> 0.18866608E+00</totfact>
</mgrwt>
</event>
<event>
12    1  0.1519630E-007  0.2840995E+04  0.7818608E-02  0.8290653E-01
         -1   -1    0    0    0  501 -0.00000000000E+00  0.00000000000E+00  0.76292082340E+03  0.76292082340E+03  0.00000000000E+00 0.  1.
          1   -1    0    0  501    0  0.00000000000E+00 -0.00000000000E+00 -0.26448518766E+04  0.26448518766E+04  0.00000000000E+00 0. -1.
         23    2    1    2    0    0 -0.11312089485E+04  0.21208318072E+03 -0.18578456739E+03  0.11693202477E+04  0.90448745221E+02 0.  0.
        254    2    1    2    0    0  0.11312089485E+04 -0.21208318072E+03 -0.16961464858E+04  0.22384524523E+04  0.89952405134E+03 0.  0.
        -24    2    4    4    0    0  0.83808895458E+03  0.26325414184E+03 -0.11841699808E+04  0.14766880557E+04  0.81567343262E+02 0.  0.
         24    2    4    4    0    0  0.29311999395E+03 -0.47533732256E+03 -0.51197650505E+03  0.76176439658E+03  0.79373503735E+02 0.  0.
         13    1    3    3    0    0 -0.86988108164E+02 -0.54910084487E+01 -0.24577498901E+02  0.90560121400E+02  0.00000000000E+00 0. -1.
        -13    1    3    3    0    0 -0.10442208404E+04  0.21757418917E+03 -0.16120706849E+03  0.10787601263E+04  0.00000000000E+00 0.  1.
          4    1    6    6  502    0  0.10419269953E+03 -0.10358113973E+03 -0.14072168456E+03  0.20343982808E+03  0.00000000000E+00 0. -1.
          3    1    5    5  503    0  0.10006472534E+03  0.92770430886E+01 -0.11138698248E+03  0.15002024080E+03  0.00000000000E+00 0. -1.
         -4    1    5    5    0  503  0.73802422924E+03  0.25397709875E+03 -0.10727829983E+04  0.13266678149E+04  0.00000000000E+00 0.  1.
         -3    1    6    6    0  502  0.18892729442E+03 -0.37175618283E+03 -0.37125482049E+03  0.55832456850E+03  0.00000000000E+00 0.  1.
<mgrwt>
<rscale>  0 0.28409946E+04</rscale>
<asrwt>0</asrwt>
<pdfrwt beam="1">  1        1 0.40690028E+00 0.28409946E+04</pdfrwt>
<pdfrwt beam="2">  1       -1 0.11737244E+00 0.28409946E+04</pdfrwt>
<totfact> 0.60467743E-01</totfact>
</mgrwt>
</event>
<event>
12    1  0.1519630E-007  0.2059709E+04  0.7818608E-02  0.8579203E-01
          2   -1    0    0  501    0  0.00000000000E+00  0.00000000000E+00  0.10624537910E+04  0.10624537910E+04  0.00000000000E+00 0. -1.
         -2   -1    0    0    0  501 -0.00000000000E+00 -0.00000000000E+00 -0.99825546813E+03  0.99825546813E+03  0.00000000000E+00 0.  1.
         23    2    1    2    0    0  0.13530391887E+03  0.69974005944E+03 -0.40432057930E+03  0.82438466944E+03  0.90507740625E+02 0.  0.
        254    2    1    2    0    0 -0.13530391887E+03 -0.69974005944E+03  0.46851890213E+03  0.12363245897E+04  0.89501130054E+03 0.  0.
        -24    2    4    4    0    0 -0.78335797487E+01 -0.70114184825E+03 -0.39875134256E+02  0.70611297712E+03  0.73104403275E+02 0.  0.
         24    2    4    4    0    0 -0.12747033912E+03  0.14017888129E+01  0.50839403638E+03  0.53021161254E+03  0.80057513538E+02 0.  0.
         13    1    3    3    0    0 -0.11382117007E+01  0.16713224762E+03 -0.11710009402E+03  0.20407575981E+03  0.00000000000E+00 0. -1.
        -13    1    3    3    0    0  0.13644213057E+03  0.53260781181E+03 -0.28722048528E+03  0.62030890963E+03  0.00000000000E+00 0.  1.
          4    1    6    6  502    0 -0.57005071759E+02  0.25417411924E+02  0.12568762303E+03  0.14033175556E+03  0.00000000000E+00 0. -1.
          3    1    5    5  503    0  0.14555305729E+02 -0.10305931105E+03  0.14758025379E+02  0.10512315555E+03  0.00000000000E+00 0. -1.
         -4    1    5    5    0  503 -0.22388885478E+02 -0.59808253720E+03 -0.54633159635E+02  0.60098982157E+03  0.00000000000E+00 0.  1.
         -3    1    6    6    0  502 -0.70465267366E+02 -0.24015623111E+02  0.38270641336E+03  0.38987985698E+03  0.00000000000E+00 0.  1.
<mgrwt>
<rscale>  0 0.20597090E+04</rscale>
<asrwt>0</asrwt>
<pdfrwt beam="1">  1        2 0.16345443E+00 0.20597090E+04</pdfrwt>
<pdfrwt beam="2">  1       -2 0.15357776E+00 0.20597090E+04</pdfrwt>
<totfact> 0.59808979E+00</totfact>
</mgrwt>
</event>
<event>
12    1  0.1519630E-007  0.2148033E+04  0.7818608E-02  0.8540375E-01
          1   -1    0    0  501    0  0.00000000000E+00  0.00000000000E+00  0.21325000267E+04  0.21325000267E+04  0.00000000000E+00 0. -1.
         -1   -1    0    0    0  501 -0.00000000000E+00 -0.00000000000E+00 -0.54091980109E+03  0.54091980109E+03  0.00000000000E+00 0.  1.
         23    2    1    2    0    0  0.50312355766E+03  0.19017465945E+03 -0.21342374846E+03  0.58662946058E+03  0.96357211664E+02 0.  0.
        254    2    1    2    0    0 -0.50312355766E+03 -0.19017465945E+03  0.18050039741E+04  0.20867903672E+04  0.89852934004E+03 0.  0.
        -24    2    4    4    0    0  0.16240168318E+03  0.79893000810E+02  0.74657342258E+02  0.21155367301E+03  0.80150106252E+02 0.  0.
         24    2    4    4    0    0 -0.66552524085E+03 -0.27006766026E+03  0.17303466318E+04  0.18752366942E+04  0.80949402250E+02 0.  0.
         11    1    3    3    0    0  0.20426713393E+03  0.63158008624E+02 -0.36725568654E+02  0.21693953870E+03  0.00000000000E+00 0. -1.
        -11    1    3    3    0    0  0.29885642373E+03  0.12701665082E+03 -0.17669817981E+03  0.36968992188E+03  0.00000000000E+00 0.  1.
          2    1    6    6  502    0 -0.45212881559E+03 -0.22338348658E+03  0.12159488469E+04  0.13163784585E+04  0.00000000000E+00 0. -1.
          1    1    5    5  503    0  0.10126202708E+03  0.90437093498E+02  0.47630006347E+02  0.14388010117E+03  0.00000000000E+00 0. -1.
         -2    1    5    5    0  503  0.61139656104E+02 -0.10544092687E+02  0.27027335910E+02  0.67673571839E+02  0.00000000000E+00 0.  1.
         -1    1    6    6    0  502 -0.21339642526E+03 -0.46684173672E+02  0.51439778497E+03  0.55885823566E+03  0.00000000000E+00 0.  1.
<mgrwt>
<rscale>  0 0.21480330E+04</rscale>
<asrwt>0</asrwt>
<pdfrwt beam="1">  1        1 0.32807692E+00 0.21480330E+04</pdfrwt>
<pdfrwt beam="2">  1       -1 0.83218432E-01 0.21480330E+04</pdfrwt>
<totfact> 0.31789452E+00</totfact>
</mgrwt>
</event>
<event>
12    1  0.1519630E-007  0.1653541E+04  0.7818608E-02  0.8788314E-01
         -2   -1    0    0    0  501 -0.00000000000E+00  0.00000000000E+00  0.85244087505E+03  0.85244087505E+03  0.00000000000E+00 0.  1.
          2   -1    0    0  501    0  0.00000000000E+00 -0.00000000000E+00 -0.80187335181E+03  0.80187335181E+03  0.00000000000E+00 0. -1.
         23    2    1    2    0    0  0.37677910743E+03 -0.43804291551E+03 -0.38702440931E+02  0.58464417533E+03  0.80416672309E+02 0.  0.
        254    2    1    2    0    0 -0.37677910743E+03  0.43804291551E+03  0.89269964176E+02  0.10696700515E+04  0.89575711050E+03 0.  0.
        -24    2    4    4    0    0 -0.49771765464E+03  0.61271595644E+03 -0.63461691997E+02  0.79635990171E+03  0.83773502268E+02 0.  0.
         24    2    4    4    0    0  0.12093854720E+03 -0.17467304093E+03  0.15273165617E+03  0.27331014982E+03  0.78959963080E+02 0.  0.
         11    1    3    3    0    0  0.32189543151E+02 -0.53808029264E+02  0.18478661610E+02  0.65367665068E+02  0.00000000000E+00 0. -1.
        -11    1    3    3    0    0  0.34458956428E+03 -0.38423488625E+03 -0.57181102541E+02  0.51927651026E+03  0.00000000000E+00 0.  1.
          2    1    6    6  502    0  0.80586555840E+02 -0.13731448881E+03  0.14921462112E+03  0.21820738982E+03  0.00000000000E+00 0. -1.
          3    1    5    5  503    0 -0.11596990835E+03  0.19723254056E+03 -0.34479971274E+02  0.23138401656E+03  0.00000000000E+00 0. -1.
         -4    1    5    5    0  503 -0.38174774629E+03  0.41548341588E+03 -0.28981720723E+02  0.56497588515E+03  0.00000000000E+00 0.  1.
         -1    1    6    6    0  502  0.40351991363E+02 -0.37358552125E+02  0.35170350577E+01  0.55102759998E+02  0.00000000000E+00 0.  1.
<mgrwt>
<rscale>  0 0.16535412E+04</rscale>
<asrwt>0</asrwt>
<pdfrwt beam="1">  1        2 0.12336513E+00 0.16535412E+04</pdfrwt>
<pdfrwt beam="2">  1       -2 0.13114475E+00 0.16535412E+04</pdfrwt>
<totfact> 0.13926142E+01</totfact>
</mgrwt>
</event>
<event>
12    1  0.1519630E-007  0.1315723E+04  0.7818608E-02  0.9017189E-01
          2   -1    0    0  501    0  0.00000000000E+00  0.00000000000E+00  0.15535663260E+04  0.15535663260E+04  0.00000000000E+00 0. -1.
         -2   -1    0    0    0  501 -0.00000000000E+00 -0.00000000000E+00 -0.27857308430E+03  0.27857308430E+03  0.00000000000E+00 0.  1.
         23    2    1    2    0    0 -0.23597078837E+03  0.11091178528E+03  0.67781934158E+03  0.73166920615E+03  0.88978257639E+02 0.  0.
        254    2    1    2    0    0  0.23597078837E+03 -0.11091178528E+03  0.59717390015E+03  0.11004702042E+04  0.88681134756E+03 0.  0.
        -24    2    4    4    0    0  0.46910079153E+02  0.31801921554E+03 -0.79888850376E+01  0.33109468610E+03  0.78886576172E+02 0.  0.
         24    2    4    4    0    0  0.18906070922E+03 -0.42893100082E+03  0.60516278519E+03  0.76937551807E+03  0.77401136909E+02 0.  0.
         11    1    3    3    0    0 -0.20251689764E+03  0.60383691504E+02  0.57109193619E+03  0.60893783230E+03  0.00000000000E+00 0. -1.
        -11    1    3    3    0    0 -0.33453890735E+02  0.50528093772E+02  0.10672740539E+03  0.12273137385E+03  0.00000000000E+00 0.  1.
          4    1    6    6  502    0  0.90914699722E+02 -0.24057546752E+03  0.38900273102E+03  0.46633160191E+03  0.00000000000E+00 0. -1.
          1    1    5    5  503    0  0.45067531027E+02  0.12778147730E+03 -0.32322882353E+02  0.13929808691E+03  0.00000000000E+00 0. -1.
         -2    1    5    5    0  503  0.18425481261E+01  0.19023773824E+03  0.24333997315E+02  0.19179659919E+03  0.00000000000E+00 0.  1.
         -3    1    6    6    0  502  0.98146009499E+02 -0.18835553330E+03  0.21616005417E+03  0.30304391617E+03  0.00000000000E+00 0.  1.
<mgrwt>
<rscale>  0 0.13157230E+04</rscale>
<asrwt>0</asrwt>
<pdfrwt beam="1">  1        2 0.23901020E+00 0.13157230E+04</pdfrwt>
<pdfrwt beam="2">  1       -2 0.42857398E-01 0.13157230E+04</pdfrwt>
<totfact> 0.59824220E+01</totfact>
</mgrwt>
</event>
<event>
12    1  0.1519630E-007  0.1158479E+04  0.7818608E-02  0.9149997E-01
         -1   -1    0    0    0  501 -0.00000000000E+00  0.00000000000E+00  0.98065961182E+03  0.98065961182E+03  0.00000000000E+00 0.  1.
          1   -1    0    0  501    0  0.00000000000E+00 -0.00000000000E+00 -0.34213536365E+03  0.34213536365E+03  0.00000000000E+00 0. -1.
         23    2    1    2    0    0  0.16675927506E+03  0.92350091166E+02  0.24953521137E+03  0.32621559372E+03  0.88383237737E+02 0.  0.
        254    2    1    2    0    0 -0.16675927506E+03 -0.92350091166E+02  0.38898903681E+03  0.99657938175E+03  0.89750810482E+03 0.  0.
        -24    2    4    4    0    0 -0.89683472170E+02  0.15856762497E+03 -0.23925749966E+03  0.31111031293E+03  0.79741198891E+02 0.  0.
         24    2    4    4    0    0 -0.77075802890E+02 -0.25091771614E+03  0.62824653647E+03  0.68546906882E+03  0.79207032910E+02 0.  0.
         11    1    3    3    0    0  0.89488399494E+02  0.74785804656E+01  0.73389761288E+02  0.11597482430E+03  0.00000000000E+00 0. -1.
        -11    1    3    3    0    0  0.77270875566E+02  0.84871510701E+02  0.17614545008E+03  0.21024076942E+03  0.00000000000E+00 0.  1.
          2    1    6    6  502    0 -0.33255472028E+02 -0.21488974933E+03  0.49726125922E+03  0.54272671826E+03  0.00000000000E+00 0. -1.
          3    1    5    5  503    0 -0.29992911944E+02  0.15620610247E+02 -0.11607341812E+02  0.35753442006E+02  0.00000000000E+00 0. -1.
         -4    1    5    5    0  503 -0.59690560227E+02  0.14294701472E+03 -0.22765015785E+03  0.27535687093E+03  0.00000000000E+00 0.  1.
         -1    1    6    6    0  502 -0.43820330862E+02 -0.36027966807E+02  0.13098527724E+03  0.14274235056E+03  0.00000000000E+00 0.  1.
<mgrwt>
<rscale>  0 0.11584789E+04</rscale>
<asrwt>0</asrwt>
<pdfrwt beam="1">  1        1 0.52636210E-01 0.11584789E+04</pdfrwt>
<pdfrwt beam="2">  1       -1 0.15087071E+00 0.11584789E+04</pdfrwt>
<totfact> 0.25161906E+01</totfact>
</mgrwt>
</event>
<event>
12    1  0.1519630E-007  0.1270507E+04  0.7818608E-02  0.9053286E-01
         -2   -1    0    0    0  501 -0.00000000000E+00  0.00000000000E+00  0.18734781200E+03  0.18734781200E+03  0.00000000000E+00 0.  1.
          2   -1    0    0  501    0  0.00000000000E+00 -0.00000000000E+00 -0.21539999759E+04  0.21539999759E+04  0.00000000000E+00 0. -1.
         23    2    1    2    0    0 -0.21544531938E+03 -0.28046884770E+02 -0.11638550951E+04  0.11873931473E+04  0.90224667296E+02 0.  0.
        254    2    1    2    0    0  0.21544531938E+03  0.28046884770E+02 -0.80279706886E+03  0.11539546406E+04  0.79995303950E+03 0.  0.
        -24    2    4    4    0    0  0.46251959643E+02 -0.79343012210E+02  0.14086369904E+03  0.18605751165E+03  0.79625740676E+02 0.  0.
         24    2    4    4    0    0  0.16919335974E+03  0.10738989698E+03 -0.94366076790E+03  0.96789712895E+03  0.78550775999E+02 0.  0.
         11    1    3    3    0    0 -0.25668893508E+02  0.86170075620E+01 -0.49705248444E+02  0.56601737042E+02  0.00000000000E+00 0.  1.
        -11    1    3    3    0    0 -0.18977642588E+03 -0.36663892332E+02 -0.11141498466E+04  0.11307914103E+04  0.00000000000E+00 0. -1.
          4    1    6    6  502    0  0.10368861268E+03  0.44395385005E+02 -0.36157185896E+03  0.37875650199E+03  0.00000000000E+00 0. -1.
          1    1    5    5  503    0  0.34704269465E+01 -0.31540709725E+02  0.11072081225E+03  0.11517794276E+03  0.00000000000E+00 0. -1.
         -2    1    5    5    0  503  0.42781532696E+02 -0.47802302485E+02  0.30142886792E+02  0.70879568896E+02  0.00000000000E+00 0.  1.
         -3    1    6    6    0  502  0.65504747060E+02  0.62994511975E+02 -0.58208890893E+03  0.58914062696E+03  0.00000000000E+00 0.  1.
<mgrwt>
<rscale>  0 0.12705073E+04</rscale>
<asrwt>0</asrwt>
<pdfrwt beam="1">  1        2 0.33138460E+00 0.12705073E+04</pdfrwt>
<pdfrwt beam="2">  1       -2 0.28822741E-01 0.12705073E+04</pdfrwt>
<totfact> 0.59586332E+01</totfact>
</mgrwt>
</event>
<event>
12    1  0.1519630E-007  0.2090827E+04  0.7818608E-02  0.8565295E-01
         -2   -1    0    0    0  501 -0.00000000000E+00  0.00000000000E+00  0.55557044488E+03  0.55557044488E+03  0.00000000000E+00 0.  1.
          2   -1    0    0  501    0  0.00000000000E+00 -0.00000000000E+00 -0.19671482723E+04  0.19671482723E+04  0.00000000000E+00 0. -1.
         23    2    1    2    0    0 -0.18442694295E+03  0.57741255730E+03 -0.13174434199E+04  0.14526000343E+04  0.83493330634E+02 0.  0.
        254    2    1    2    0    0  0.18442694295E+03 -0.57741255730E+03 -0.94134407469E+02  0.10701186829E+04  0.87685469158E+03 0.  0.
        -24    2    4    4    0    0  0.29817410390E+03  0.10642433261E+03 -0.16987696851E+03  0.36828979658E+03  0.80902750421E+02 0.  0.
         24    2    4    4    0    0 -0.11374716096E+03 -0.68383688991E+03  0.75742561045E+02  0.70182888629E+03  0.79091980957E+02 0.  0.
         11    1    3    3    0    0 -0.31493153950E+01  0.92214627993E+02 -0.16339581614E+03  0.18764767128E+03  0.00000000000E+00 0.  1.
        -11    1    3    3    0    0 -0.18127762755E+03  0.48519792931E+03 -0.11540476038E+04  0.12649523630E+04  0.00000000000E+00 0. -1.
          4    1    6    6  502    0 -0.29343681646E+02 -0.68955922316E+02 -0.87829613470E+01  0.75452708931E+02  0.00000000000E+00 0. -1.
          3    1    5    5  503    0  0.81087829506E+02  0.26477534812E+02 -0.74557860160E+01  0.85626425178E+02  0.00000000000E+00 0. -1.
         -2    1    5    5    0  503  0.21708627440E+03  0.79946797797E+02 -0.16242118250E+03  0.28266337140E+03  0.00000000000E+00 0.  1.
         -1    1    6    6    0  502 -0.84403479311E+02 -0.61488096759E+03  0.84525522391E+02  0.62637617736E+03  0.00000000000E+00 0.  1.
<mgrwt>
<rscale>  0 0.20908271E+04</rscale>
<asrwt>0</asrwt>
<pdfrwt beam="1">  1        2 0.30263819E+00 0.20908271E+04</pdfrwt>
<pdfrwt beam="2">  1       -2 0.85472376E-01 0.20908271E+04</pdfrwt>
<totfact> 0.76454252E+00</totfact>
</mgrwt>
</event>
<event>
12    1  0.1519630E-007  0.1599931E+04  0.7818608E-02  0.8820591E-01
         -2   -1    0    0    0  501 -0.00000000000E+00  0.00000000000E+00  0.37111688501E+03  0.37111688501E+03  0.00000000000E+00 0.  1.
          2   -1    0    0  501    0  0.00000000000E+00 -0.00000000000E+00 -0.17243749028E+04  0.17243749028E+04  0.00000000000E+00 0. -1.
         23    2    1    2    0    0  0.34029249835E+03  0.30244805808E+03 -0.86124555619E+03  0.97825780077E+03  0.89278241772E+02 0.  0.
        254    2    1    2    0    0 -0.34029249835E+03 -0.30244805808E+03 -0.49201246158E+03  0.11172339870E+04  0.89379063942E+03 0.  0.
        -24    2    4    4    0    0 -0.34791469824E+03 -0.44265787577E+03 -0.66869349282E+03  0.87779775679E+03  0.79920474617E+02 0.  0.
         24    2    4    4    0    0  0.76221998966E+01  0.14020981769E+03  0.17668103124E+03  0.23943623022E+03  0.79978938697E+02 0.  0.
         11    1    3    3    0    0  0.31840666688E+02  0.63625035120E+02 -0.98062235444E+02  0.12115351901E+03  0.00000000000E+00 0.  1.
        -11    1    3    3    0    0  0.30845183166E+03  0.23882302296E+03 -0.76318332074E+03  0.85710428176E+03  0.00000000000E+00 0. -1.
          4    1    6    6  502    0 -0.12360466274E+02  0.13715391820E+03  0.16853424017E+03  0.21764137592E+03  0.00000000000E+00 0. -1.
          1    1    5    5  503    0 -0.33004343154E+03 -0.38308367146E+03 -0.57998401647E+03  0.76945644802E+03  0.00000000000E+00 0. -1.
         -2    1    5    5    0  503 -0.17871266702E+02 -0.59574204306E+02 -0.88709476349E+02  0.10834130877E+03  0.00000000000E+00 0.  1.
         -3    1    6    6    0  502  0.19982666171E+02  0.30558994822E+01  0.81467910680E+01  0.21794854293E+02  0.00000000000E+00 0.  1.
<mgrwt>
<rscale>  0 0.15999308E+04</rscale>
<asrwt>0</asrwt>
<pdfrwt beam="1">  1        2 0.26528845E+00 0.15999308E+04</pdfrwt>
<pdfrwt beam="2">  1       -2 0.57094906E-01 0.15999308E+04</pdfrwt>
<totfact> 0.26206430E+01</totfact>
</mgrwt>
</event>
<event>
12    1  0.1519630E-007  0.1543585E+04  0.7818608E-02  0.8855976E-01
         -1   -1    0    0    0  501 -0.00000000000E+00  0.00000000000E+00  0.75166740424E+03  0.75166740424E+03  0.00000000000E+00 0.  1.
          1   -1    0    0  501    0  0.00000000000E+00 -0.00000000000E+00 -0.79245608308E+03  0.79245608308E+03  0.00000000000E+00 0. -1.
         23    2    1    2    0    0  0.24762045118E+03  0.42563376229E+03  0.39951842172E+02  0.50247433157E+03  0.91675060674E+02 0.  0.
        254    2    1    2    0    0 -0.24762045118E+03 -0.42563376229E+03 -0.80740521018E+02  0.10416491558E+04  0.91434891835E+03 0.  0.
        -24    2    4    4    0    0 -0.57858417720E+03 -0.32981745675E+03  0.29199025854E+02  0.67132790667E+03  0.79305550089E+02 0.  0.
         24    2    4    4    0    0  0.33096372602E+03 -0.95816305547E+02 -0.10993954687E+03  0.37032124908E+03  0.79582480502E+02 0.  0.
         13    1    3    3    0    0  0.23586001322E+03  0.39936926300E+03  0.14478752819E+02  0.46404244240E+03  0.00000000000E+00 0.  1.
        -13    1    3    3    0    0  0.11760437962E+02  0.26264499291E+02  0.25473089354E+02  0.38431889171E+02  0.00000000000E+00 0. -1.
          4    1    6    6  502    0  0.10769457776E+03 -0.44187164133E+01 -0.62023725315E+02  0.12435670322E+03  0.00000000000E+00 0. -1.
          3    1    5    5  503    0 -0.39144070933E+03 -0.23266698232E+03  0.55902298669E+02  0.45878624716E+03  0.00000000000E+00 0. -1.
         -4    1    5    5    0  503 -0.18714346787E+03 -0.97150474426E+02 -0.26703272816E+02  0.21254165951E+03  0.00000000000E+00 0.  1.
         -3    1    6    6    0  502  0.22326914826E+03 -0.91397589134E+02 -0.47915821556E+02  0.24596454586E+03  0.00000000000E+00 0.  1.
<mgrwt>
<rscale>  0 0.15435847E+04</rscale>
<asrwt>0</asrwt>
<pdfrwt beam="1">  1        1 0.12191632E+00 0.15435847E+04</pdfrwt>
<pdfrwt beam="2">  1       -1 0.11564114E+00 0.15435847E+04</pdfrwt>
<totfact> 0.14660331E+01</totfact>
</mgrwt>
</event>
<event>
12    1  0.1519630E-007  0.1707404E+04  0.7818608E-02  0.8757153E-01
          1   -1    0    0  501    0  0.00000000000E+00  0.00000000000E+00  0.76831216829E+03  0.76831216829E+03  0.00000000000E+00 0. -1.
         -1   -1    0    0    0  501 -0.00000000000E+00 -0.00000000000E+00 -0.94858158864E+03  0.94858158864E+03  0.00000000000E+00 0.  1.
         23    2    1    2    0    0  0.37311959323E+03 -0.49096737978E+03 -0.91827342728E+02  0.62991789839E+03  0.89983881797E+02 0.  0.
        254    2    1    2    0    0 -0.37311959323E+03  0.49096737978E+03 -0.88442077619E+02  0.10869758585E+04  0.89074537163E+03 0.  0.
        -24    2    4    4    0    0  0.23748207803E+03  0.22727427922E+03 -0.22119164453E+03  0.40397955172E+03  0.78882185680E+02 0.  0.
         24    2    4    4    0    0 -0.61060167125E+03  0.26369310056E+03  0.13274956691E+03  0.68299630682E+03  0.80579497310E+02 0.  0.
         11    1    3    3    0    0  0.50887838073E+02 -0.11382181640E+03 -0.41077983142E+02  0.13127215489E+03  0.00000000000E+00 0. -1.
        -11    1    3    3    0    0  0.32223175515E+03 -0.37714556338E+03 -0.50749359586E+02  0.49864574350E+03  0.00000000000E+00 0.  1.
          4    1    6    6  502    0 -0.31099207141E+03  0.90465171656E+02  0.65493785895E+02  0.33043827223E+03  0.00000000000E+00 0. -1.
          3    1    5    5  503    0  0.19007114328E+03  0.21870311460E+03 -0.18601272273E+03  0.34432372103E+03  0.00000000000E+00 0. -1.
         -4    1    5    5    0  503  0.47410934746E+02  0.85711646173E+01 -0.35178921796E+02  0.59655830688E+02  0.00000000000E+00 0.  1.
         -3    1    6    6    0  502 -0.29960959984E+03  0.17322792890E+03  0.67255781015E+02  0.35255803458E+03  0.00000000000E+00 0.  1.
<mgrwt>
<rscale>  0 0.17074036E+04</rscale>
<asrwt>0</asrwt>
<pdfrwt beam="1">  1        1 0.11820187E+00 0.17074036E+04</pdfrwt>
<pdfrwt beam="2">  1       -1 0.14593563E+00 0.17074036E+04</pdfrwt>
<totfact> 0.84240785E+00</totfact>
</mgrwt>
</event>
<event>
12    1  0.1519630E-007  0.1867230E+04  0.7818608E-02  0.8671342E-01
          2   -1    0    0  501    0  0.00000000000E+00  0.00000000000E+00  0.75859667530E+03  0.75859667530E+03  0.00000000000E+00 0. -1.
         -2   -1    0    0    0  501 -0.00000000000E+00 -0.00000000000E+00 -0.11490121783E+04  0.11490121783E+04  0.00000000000E+00 0.  1.
         23    2    1    2    0    0  0.58290313282E+03  0.37624053789E+03 -0.33350297366E+03  0.77499868791E+03  0.89809399423E+02 0.  0.
        254    2    1    2    0    0 -0.58290313282E+03 -0.37624053789E+03 -0.56912529386E+02  0.11326101657E+04  0.89343927993E+03 0.  0.
        -24    2    4    4    0    0 -0.28038594446E+03 -0.20901453857E+03 -0.46801896869E+03  0.58967403886E+03  0.79814546719E+02 0.  0.
         24    2    4    4    0    0 -0.30251718835E+03 -0.16722599932E+03  0.41110643930E+03  0.54293612687E+03  0.79309200781E+02 0.  0.
         11    1    3    3    0    0  0.47660596143E+03  0.26371147782E+03 -0.25496379369E+03  0.60141792632E+03  0.00000000000E+00 0.  1.
        -11    1    3    3    0    0  0.10629717139E+03  0.11252906007E+03 -0.78539179969E+02  0.17358076159E+03  0.00000000000E+00 0. -1.
          2    1    6    6  502    0 -0.90113415224E+02 -0.92813933154E+02  0.15928100955E+03  0.20519574507E+03  0.00000000000E+00 0. -1.
          1    1    5    5  503    0 -0.12093977857E+03 -0.53073960263E+02 -0.13489972251E+03  0.18878879848E+03  0.00000000000E+00 0. -1.
         -4    1    5    5    0  503 -0.15944616590E+03 -0.15594057831E+03 -0.33311924618E+03  0.40088524038E+03  0.00000000000E+00 0.  1.
         -1    1    6    6    0  502 -0.21240377313E+03 -0.74412066165E+02  0.25182542976E+03  0.33774038180E+03  0.00000000000E+00 0.  1.
<mgrwt>
<rscale>  0 0.18672298E+04</rscale>
<asrwt>0</asrwt>
<pdfrwt beam="1">  1        2 0.11670718E+00 0.18672298E+04</pdfrwt>
<pdfrwt beam="2">  1       -2 0.17677110E+00 0.18672298E+04</pdfrwt>
<totfact> 0.66207379E+00</totfact>
</mgrwt>
</event>
<event>
12    1  0.1519630E-007  0.2698722E+04  0.7818608E-02  0.8335420E-01
         -2   -1    0    0    0  501 -0.00000000000E+00  0.00000000000E+00  0.55874536434E+03  0.55874536434E+03  0.00000000000E+00 0.  1.
          2   -1    0    0  501    0  0.00000000000E+00 -0.00000000000E+00 -0.32586857024E+04  0.32586857024E+04  0.00000000000E+00 0. -1.
         23    2    1    2    0    0 -0.49996816171E+03 -0.10666603503E+04 -0.89531603908E+03  0.14825271231E+04  0.92538615376E+02 0.  0.
        254    2    1    2    0    0  0.49996816171E+03  0.10666603503E+04 -0.18046242990E+04  0.23349039437E+04  0.89854053889E+03 0.  0.
        -24    2    4    4    0    0 -0.13882038883E+02  0.49228446934E+02  0.84242124586E+02  0.12731727378E+03  0.80602739763E+02 0.  0.
         24    2    4    4    0    0  0.51385020059E+03  0.10174319033E+04 -0.18888664236E+04  0.22075866699E+04  0.80080161725E+02 0.  0.
         11    1    3    3    0    0 -0.89676366930E+02 -0.12182104638E+03 -0.12603407296E+03  0.19689287868E+03  0.00000000000E+00 0. -1.
        -11    1    3    3    0    0 -0.41029179478E+03 -0.94483930389E+03 -0.76928196612E+03  0.12856342444E+04  0.00000000000E+00 0.  1.
          2    1    6    6  502    0  0.86680523795E+02  0.18050488101E+03 -0.27630103160E+03  0.34122981308E+03  0.00000000000E+00 0. -1.
          3    1    5    5  503    0  0.19494855858E+02  0.95673791142E+01 -0.66252914933E+01  0.22704154585E+02  0.00000000000E+00 0. -1.
         -4    1    5    5    0  503 -0.33376894741E+02  0.39661067820E+02  0.90867416079E+02  0.10461311920E+03  0.00000000000E+00 0.  1.
         -1    1    6    6    0  502  0.42716967679E+03  0.83692702232E+03 -0.16125653920E+04  0.18663568568E+04  0.00000000000E+00 0.  1.
<mgrwt>
<rscale>  0 0.26987223E+04</rscale>
<asrwt>0</asrwt>
<pdfrwt beam="1">  1        2 0.50133626E+00 0.26987223E+04</pdfrwt>
<pdfrwt beam="2">  1       -2 0.85960825E-01 0.26987223E+04</pdfrwt>
<totfact> 0.12224850E+00</totfact>
</mgrwt>
</event>
<event>
12    1  0.1519630E-007  0.1491590E+04  0.7818608E-02  0.8890065E-01
          1   -1    0    0  501    0  0.00000000000E+00  0.00000000000E+00  0.87753987518E+03  0.87753987518E+03  0.00000000000E+00 0. -1.
         -1   -1    0    0    0  501 -0.00000000000E+00 -0.00000000000E+00 -0.63382882653E+03  0.63382882653E+03  0.00000000000E+00 0.  1.
         23    2    1    2    0    0 -0.36594119445E+03 -0.11321036748E+03 -0.19010456799E+03  0.43710573155E+03  0.90510378832E+02 0.  0.
        254    2    1    2    0    0  0.36594119445E+03  0.11321036748E+03  0.43381561665E+03  0.10742629702E+04  0.90504994045E+03 0.  0.
        -24    2    4    4    0    0  0.47087748281E+03  0.31892264267E+02 -0.12474527538E+03  0.49471424254E+03  0.80237632718E+02 0.  0.
         24    2    4    4    0    0 -0.10493628836E+03  0.81318103213E+02  0.55856089203E+03  0.57954872762E+03  0.79134057454E+02 0.  0.
         13    1    3    3    0    0 -0.35030713124E+02  0.15759227316E+02 -0.20269117237E+02  0.43432029899E+02  0.00000000000E+00 0. -1.
        -13    1    3    3    0    0 -0.33091048133E+03 -0.12896959480E+03 -0.16983545076E+03  0.39367370165E+03  0.00000000000E+00 0.  1.
          4    1    6    6  502    0  0.12449035160E+02  0.15792285527E+02  0.70751822478E+02  0.73554028731E+02  0.00000000000E+00 0. -1.
          3    1    5    5  503    0  0.87844399714E+02  0.14414596368E+02  0.69661656157E+01  0.89291357997E+02  0.00000000000E+00 0. -1.
         -4    1    5    5    0  503  0.38303308310E+03  0.17477667899E+02 -0.13171144100E+03  0.40542288455E+03  0.00000000000E+00 0.  1.
         -3    1    6    6    0  502 -0.11738532352E+03  0.65525817686E+02  0.48780906955E+03  0.50599469888E+03  0.00000000000E+00 0.  1.
<mgrwt>
<rscale>  0 0.14915898E+04</rscale>
<asrwt>0</asrwt>
<pdfrwt beam="1">  1        1 0.13500613E+00 0.14915898E+04</pdfrwt>
<pdfrwt beam="2">  1       -1 0.97512127E-01 0.14915898E+04</pdfrwt>
<totfact> 0.18563500E+01</totfact>
</mgrwt>
</event>
<event>
12    1  0.1519630E-007  0.1100882E+04  0.7818608E-02  0.9204332E-01
          1   -1    0    0  501    0  0.00000000000E+00  0.00000000000E+00  0.13564471991E+04  0.13564471991E+04  0.00000000000E+00 0. -1.
         -1   -1    0    0    0  501 -0.00000000000E+00 -0.00000000000E+00 -0.22336699776E+03  0.22336699776E+03  0.00000000000E+00 0.  1.
         23    2    1    2    0    0  0.15582416943E+03 -0.55387750843E+02  0.25746886900E+03  0.32240019507E+03  0.10150218005E+03 0.  0.
        254    2    1    2    0    0 -0.15582416943E+03  0.55387750843E+02  0.87561133232E+03  0.12574140018E+04  0.88715601325E+03 0.  0.
        -24    2    4    4    0    0 -0.19068712342E+03  0.30883256375E+03  0.91403050317E+03  0.98682522743E+03  0.81444074691E+02 0.  0.
         24    2    4    4    0    0  0.34862953997E+02 -0.25344481290E+03 -0.38419170841E+02  0.27058877434E+03  0.79325616067E+02 0.  0.
         11    1    3    3    0    0  0.71884591321E+02 -0.35365531798E+01  0.37140151151E+02  0.80989459223E+02  0.00000000000E+00 0.  1.
        -11    1    3    3    0    0  0.83939578104E+02 -0.51851197663E+02  0.22032871785E+03  0.24141073584E+03  0.00000000000E+00 0. -1.
          2    1    6    6  502    0  0.88752348292E+01 -0.19201394077E+03 -0.58510594432E+02  0.20092688447E+03  0.00000000000E+00 0. -1.
          1    1    5    5  503    0 -0.94382724239E+02  0.22607442843E+03  0.60694975073E+03  0.65452711612E+03  0.00000000000E+00 0. -1.
         -2    1    5    5    0  503 -0.96304399183E+02  0.82758135321E+02  0.30708075244E+03  0.33229811131E+03  0.00000000000E+00 0.  1.
         -1    1    6    6    0  502  0.25987719168E+02 -0.61430872133E+02  0.20091423591E+02  0.69661889871E+02  0.00000000000E+00 0.  1.
<mgrwt>
<rscale>  0 0.11008824E+04</rscale>
<asrwt>0</asrwt>
<pdfrwt beam="1">  1        1 0.20868418E+00 0.11008824E+04</pdfrwt>
<pdfrwt beam="2">  1       -1 0.34364154E-01 0.11008824E+04</pdfrwt>
<totfact> 0.65851396E+01</totfact>
</mgrwt>
</event>
<event>
12    1  0.1519630E-007  0.1129809E+04  0.7818608E-02  0.9176616E-01
          2   -1    0    0  501    0  0.00000000000E+00  0.00000000000E+00  0.37906412377E+04  0.37906412377E+04  0.00000000000E+00 0. -1.
         -2   -1    0    0    0  501 -0.00000000000E+00 -0.00000000000E+00 -0.84185449498E+02  0.84185449498E+02  0.00000000000E+00 0.  1.
         23    2    1    2    0    0 -0.68939706866E+02  0.13091070302E+03  0.25600429505E+03  0.30988988195E+03  0.92753676505E+02 0.  0.
        254    2    1    2    0    0  0.68939706866E+02 -0.13091070302E+03  0.34504514932E+04  0.35649368053E+04  0.88389401143E+03 0.  0.
        -24    2    4    4    0    0 -0.15839144153E+03  0.29206230836E+03  0.79830569528E+03  0.86854744412E+03  0.81819550635E+02 0.  0.
         24    2    4    4    0    0  0.22733114839E+03 -0.42297301138E+03  0.26521457979E+04  0.26963893612E+04  0.77798677442E+02 0.  0.
         11    1    3    3    0    0 -0.42770768245E+02  0.90958786456E+02  0.82811912283E+02  0.13023306902E+03  0.00000000000E+00 0.  1.
        -11    1    3    3    0    0 -0.26168938621E+02  0.39951916565E+02  0.17319238277E+03  0.17965681294E+03  0.00000000000E+00 0. -1.
          2    1    6    6  502    0 -0.12209048449E+01 -0.10835163642E+02  0.24495994622E+02  0.26813152227E+02  0.00000000000E+00 0. -1.
          1    1    5    5  503    0 -0.64702429002E+02  0.14934163348E+03  0.29284919870E+03  0.33503728298E+03  0.00000000000E+00 0. -1.
         -2    1    5    5    0  503 -0.93689012525E+02  0.14272067487E+03  0.50545649658E+03  0.53351016114E+03  0.00000000000E+00 0.  1.
         -1    1    6    6    0  502  0.22855205324E+03 -0.41213784773E+03  0.26276498033E+04  0.26695762089E+04  0.00000000000E+00 0.  1.
<mgrwt>
<rscale>  0 0.11298085E+04</rscale>
<asrwt>0</asrwt>
<pdfrwt beam="1">  1        2 0.58317544E+00 0.11298085E+04</pdfrwt>
<pdfrwt beam="2">  1       -2 0.12951611E-01 0.11298085E+04</pdfrwt>
<totfact> 0.23113841E+01</totfact>
</mgrwt>
</event>
<event>
12    1  0.1903179E-007  0.1668548E+04  0.7818608E-02  0.8779509E-01
         -1   -1    0    0    0  501 -0.00000000000E+00  0.00000000000E+00  0.10054136806E+04  0.10054136806E+04  0.00000000000E+00 0.  1.
          1   -1    0    0  501    0  0.00000000000E+00 -0.00000000000E+00 -0.69226550733E+03  0.69226550733E+03  0.00000000000E+00 0. -1.
         23    2    1    2    0    0  0.46522767035E+03 -0.28229045101E+03  0.34163908158E+03  0.64874088185E+03  0.89570004640E+02 0.  0.
        254    2    1    2    0    0 -0.46522767035E+03  0.28229045101E+03 -0.28490908314E+02  0.10489383061E+04  0.89628965971E+03 0.  0.
        -24    2    4    4    0    0 -0.27705041762E+03  0.58121315648E+03 -0.15072502796E+03  0.66651153533E+03  0.83390200282E+02 0.  0.
         24    2    4    4    0    0 -0.18817725273E+03 -0.29892270547E+03  0.12223411965E+03  0.38242677075E+03  0.80892476084E+02 0.  0.
         13    1    3    3    0    0  0.44679774249E+03 -0.24434394929E+03  0.31284865725E+03  0.59766752512E+03  0.00000000000E+00 0.  1.
        -13    1    3    3    0    0  0.18429927861E+02 -0.37946501727E+02  0.28790424333E+02  0.51073356729E+02  0.00000000000E+00 0. -1.
          2    1    6    6  502    0 -0.10120115497E+03 -0.21631622986E+03  0.10634513593E+03  0.26142622861E+03  0.00000000000E+00 0. -1.
          3    1    5    5  503    0 -0.25790587275E+03  0.46995119120E+03 -0.11704309388E+03  0.54869722720E+03  0.00000000000E+00 0. -1.
         -4    1    5    5    0  503 -0.19144544863E+02  0.11126196529E+03 -0.33681934085E+02  0.11781430813E+03  0.00000000000E+00 0.  1.
         -1    1    6    6    0  502 -0.86976097764E+02 -0.82606475607E+02  0.15888983724E+02  0.12100054214E+03  0.00000000000E+00 0.  1.
<mgrwt>
<rscale>  0 0.16685481E+04</rscale>
<asrwt>0</asrwt>
<pdfrwt beam="1">  1        1 0.10650239E+00 0.16685481E+04</pdfrwt>
<pdfrwt beam="2">  1       -1 0.15467903E+00 0.16685481E+04</pdfrwt>
<totfact> 0.84850814E+00</totfact>
</mgrwt>
</event>
<event>
12    1  0.1519630E-007  0.2451704E+04  0.7818608E-02  0.8420396E-01
         -2   -1    0    0    0  501 -0.00000000000E+00  0.00000000000E+00  0.58486724151E+03  0.58486724151E+03  0.00000000000E+00 0.  1.
          2   -1    0    0  501    0  0.00000000000E+00 -0.00000000000E+00 -0.25693230579E+04  0.25693230579E+04  0.00000000000E+00 0. -1.
         23    2    1    2    0    0  0.93928532715E+03 -0.38613508785E+03 -0.12276664228E+04  0.15959269423E+04  0.91982214524E+02 0.  0.
        254    2    1    2    0    0 -0.93928532715E+03  0.38613508785E+03 -0.75678939363E+03  0.15582633571E+04  0.90779803474E+03 0.  0.
        -24    2    4    4    0    0 -0.37301904870E+03  0.63114548860E+03 -0.45732061818E+03  0.86784820312E+03  0.80811616567E+02 0.  0.
         24    2    4    4    0    0 -0.56626627845E+03 -0.24501040075E+03 -0.29946877545E+03  0.69041515397E+03  0.79397372649E+02 0.  0.
         11    1    3    3    0    0  0.20904087368E+03 -0.10590447915E+03 -0.23173574921E+03  0.32956835867E+03  0.00000000000E+00 0.  1.
        -11    1    3    3    0    0  0.73024445347E+03 -0.28023060870E+03 -0.99593067355E+03  0.12663585837E+04  0.00000000000E+00 0. -1.
          2    1    6    6  502    0 -0.49756885442E+03 -0.24123306143E+03 -0.25923518009E+03  0.61071354448E+03  0.00000000000E+00 0. -1.
          3    1    5    5  503    0 -0.25181944703E+03  0.37095317572E+03 -0.24592710971E+03  0.51137015534E+03  0.00000000000E+00 0. -1.
         -4    1    5    5    0  503 -0.12119960167E+03  0.26019231288E+03 -0.21139350848E+03  0.35647804779E+03  0.00000000000E+00 0.  1.
         -1    1    6    6    0  502 -0.68697424025E+02 -0.37773393238E+01 -0.40233595358E+02  0.79701609491E+02  0.00000000000E+00 0.  1.
<mgrwt>
<rscale>  0 0.24517038E+04</rscale>
<asrwt>0</asrwt>
<pdfrwt beam="1">  1        2 0.39528047E+00 0.24517038E+04</pdfrwt>
<pdfrwt beam="2">  1       -2 0.89979576E-01 0.24517038E+04</pdfrwt>
<totfact> 0.30027998E+00</totfact>
</mgrwt>
</event>
<event>
12    1  0.1519630E-007  0.2022370E+04  0.7818608E-02  0.8596233E-01
         -1   -1    0    0    0  501 -0.00000000000E+00  0.00000000000E+00  0.15428904639E+04  0.15428904639E+04  0.00000000000E+00 0.  1.
          1   -1    0    0  501    0  0.00000000000E+00 -0.00000000000E+00 -0.66271375133E+03  0.66271375133E+03  0.00000000000E+00 0. -1.
         23    2    1    2    0    0 -0.47929929750E+03  0.28315313878E+03 -0.28174960954E+03  0.63054660274E+03  0.91118928635E+02 0.  0.
        254    2    1    2    0    0  0.47929929750E+03 -0.28315313878E+03  0.11619263221E+04  0.15750576125E+04  0.90599679252E+03 0.  0.
        -24    2    4    4    0    0  0.22156746006E+03  0.22715191928E+03  0.62478176883E+02  0.33301485132E+03  0.79405508758E+02 0.  0.
         24    2    4    4    0    0  0.25773183744E+03 -0.51030505806E+03  0.10994481452E+04  0.12420427612E+04  0.83946674869E+02 0.  0.
         11    1    3    3    0    0 -0.42758352273E+03  0.24534910027E+03 -0.27895195608E+03  0.56642567360E+03  0.00000000000E+00 0. -1.
        -11    1    3    3    0    0 -0.51715774771E+02  0.37804038514E+02 -0.27976534622E+01  0.64120929134E+02  0.00000000000E+00 0.  1.
          2    1    6    6  502    0  0.13091691663E+03 -0.18675411081E+03  0.48998126211E+03  0.54046089053E+03  0.00000000000E+00 0. -1.
          1    1    5    5  503    0  0.13614680632E+03  0.14692605965E+03  0.20254561818E+00  0.20030791522E+03  0.00000000000E+00 0. -1.
         -2    1    5    5    0  503  0.85420653742E+02  0.80225859632E+02  0.62275631264E+02  0.13270693610E+03  0.00000000000E+00 0.  1.
         -1    1    6    6    0  502  0.12681492081E+03 -0.32355094725E+03  0.60946688310E+03  0.70158187064E+03  0.00000000000E+00 0.  1.
<mgrwt>
<rscale>  0 0.20223696E+04</rscale>
<asrwt>0</asrwt>
<pdfrwt beam="1">  1        1 0.10195596E+00 0.20223696E+04</pdfrwt>
<pdfrwt beam="2">  1       -1 0.23736776E+00 0.20223696E+04</pdfrwt>
<totfact> 0.23113376E+00</totfact>
</mgrwt>
</event>
<event>
12    1  0.1519630E-007  0.1203441E+04  0.7818608E-02  0.9109850E-01
          1   -1    0    0  501    0  0.00000000000E+00  0.00000000000E+00  0.11159235298E+04  0.11159235298E+04  0.00000000000E+00 0. -1.
         -1   -1    0    0    0  501 -0.00000000000E+00 -0.00000000000E+00 -0.32445573046E+03  0.32445573046E+03  0.00000000000E+00 0.  1.
         23    2    1    2    0    0 -0.74904466449E+02 -0.21820985249E+03  0.57061331736E+02  0.25504052891E+03  0.92538948503E+02 0.  0.
        254    2    1    2    0    0  0.74904466449E+02  0.21820985249E+03  0.73440646762E+03  0.11853387314E+04  0.90135943418E+03 0.  0.
        -24    2    4    4    0    0  0.79949764801E+02 -0.30267059181E+03  0.52796547479E+03  0.61922922349E+03  0.81828091896E+02 0.  0.
         24    2    4    4    0    0 -0.50452983517E+01  0.52088044431E+03  0.20644099283E+03  0.56610950788E+03  0.80747749768E+02 0.  0.
         11    1    3    3    0    0 -0.16165858621E+02 -0.13717573744E+03 -0.32982723278E+01  0.13816438227E+03  0.00000000000E+00 0.  1.
        -11    1    3    3    0    0 -0.58738607828E+02 -0.81034115054E+02  0.60359604063E+02  0.11687614665E+03  0.00000000000E+00 0. -1.
          4    1    6    6  502    0  0.34543128455E+00  0.17301876686E+03  0.28532114442E+02  0.17535590826E+03  0.00000000000E+00 0. -1.
          1    1    5    5  503    0  0.28147967890E+02 -0.16766465223E+02  0.61137066283E+02  0.69362549882E+02  0.00000000000E+00 0. -1.
         -2    1    5    5    0  503  0.51801796911E+02 -0.28590412659E+03  0.46682840850E+03  0.54986667361E+03  0.00000000000E+00 0.  1.
         -3    1    6    6    0  502 -0.53907296362E+01  0.34786167745E+03  0.17790887839E+03  0.39075359962E+03  0.00000000000E+00 0.  1.
<mgrwt>
<rscale>  0 0.12034414E+04</rscale>
<asrwt>0</asrwt>
<pdfrwt beam="1">  1        1 0.17168054E+00 0.12034414E+04</pdfrwt>
<pdfrwt beam="2">  1       -1 0.49916267E-01 0.12034414E+04</pdfrwt>
<totfact> 0.49128168E+01</totfact>
</mgrwt>
</event>
<event>
12    1  0.1519630E-007  0.1310566E+04  0.7818608E-02  0.9021228E-01
         -2   -1    0    0    0  501 -0.00000000000E+00  0.00000000000E+00  0.25935659996E+03  0.25935659996E+03  0.00000000000E+00 0.  1.
          2   -1    0    0  501    0  0.00000000000E+00 -0.00000000000E+00 -0.16556189439E+04  0.16556189439E+04  0.00000000000E+00 0. -1.
         23    2    1    2    0    0 -0.14028491010E+02  0.17217801451E+03  0.49640685420E+02  0.20170516910E+03  0.91535295671E+02 0.  0.
        254    2    1    2    0    0  0.14028491010E+02 -0.17217801451E+03 -0.14459030294E+04  0.17132703748E+04  0.90267255384E+03 0.  0.
        -24    2    4    4    0    0  0.97790025779E+01  0.32515740693E+03 -0.25786776497E+03  0.42283529669E+03  0.80442126671E+02 0.  0.
         24    2    4    4    0    0  0.42494884316E+01 -0.49733542144E+03 -0.11880352644E+04  0.12904350781E+04  0.80214223830E+02 0.  0.
         11    1    3    3    0    0 -0.22381476634E+02  0.16711170497E+03  0.19150272332E+02  0.16968790577E+03  0.00000000000E+00 0.  1.
        -11    1    3    3    0    0  0.83529856243E+01  0.50663095422E+01  0.30490413088E+02  0.32017263336E+02  0.00000000000E+00 0. -1.
          2    1    6    6  502    0 -0.35603138601E+02 -0.17777228446E+03 -0.40234121098E+03  0.44130377141E+03  0.00000000000E+00 0. -1.
          1    1    5    5  503    0  0.16280749309E+02  0.31764282083E+03 -0.26199823158E+03  0.41207414112E+03  0.00000000000E+00 0. -1.
         -2    1    5    5    0  503 -0.65017467310E+01  0.75145860922E+01  0.41304666153E+01  0.10761155568E+02  0.00000000000E+00 0.  1.
         -1    1    6    6    0  502  0.39852627033E+02 -0.31956313697E+03 -0.78569405342E+03  0.84913130667E+03  0.00000000000E+00 0.  1.
<mgrwt>
<rscale>  0 0.13105658E+04</rscale>
<asrwt>0</asrwt>
<pdfrwt beam="1">  1        2 0.25471061E+00 0.13105658E+04</pdfrwt>
<pdfrwt beam="2">  1       -2 0.39901015E-01 0.13105658E+04</pdfrwt>
<totfact> 0.60417646E+01</totfact>
</mgrwt>
</event>
<event>
12    1  0.1519630E-007  0.1500618E+04  0.7818608E-02  0.8884042E-01
          1   -1    0    0  501    0  0.00000000000E+00  0.00000000000E+00  0.75225956170E+03  0.75225956170E+03  0.00000000000E+00 0. -1.
         -1   -1    0    0    0  501 -0.00000000000E+00 -0.00000000000E+00 -0.74836397343E+03  0.74836397343E+03  0.00000000000E+00 0.  1.
         23    2    1    2    0    0  0.15808474027E+03 -0.46086459017E+03  0.27909033884E+02  0.49605516546E+03  0.88909265147E+02 0.  0.
        254    2    1    2    0    0 -0.15808474027E+03  0.46086459017E+03 -0.24013445613E+02  0.10045683697E+04  0.87817652450E+03 0.  0.
        -24    2    4    4    0    0 -0.68871608408E+02 -0.19581304609E+03  0.20277377758E+03  0.29922781542E+03  0.73034465741E+02 0.  0.
         24    2    4    4    0    0 -0.89213131863E+02  0.65667763626E+03 -0.22678722319E+03  0.70534055424E+03  0.82996096274E+02 0.  0.
         13    1    3    3    0    0  0.29970211558E+02 -0.36277673141E+02  0.23364328714E+02  0.52537367707E+02  0.00000000000E+00 0. -1.
        -13    1    3    3    0    0  0.12811452871E+03 -0.42458691703E+03  0.45447051707E+01  0.44351779775E+03  0.00000000000E+00 0.  1.
          2    1    6    6  502    0 -0.55021485004E-01  0.14290725438E+03 -0.79300218766E+02  0.16343503626E+03  0.00000000000E+00 0. -1.
          1    1    5    5  503    0 -0.62590964202E+02 -0.78662519971E+02  0.11477420326E+03  0.15257305982E+03  0.00000000000E+00 0. -1.
         -2    1    5    5    0  503 -0.62806442063E+01 -0.11715052612E+03  0.87999574314E+02  0.14665475561E+03  0.00000000000E+00 0.  1.
         -1    1    6    6    0  502 -0.89158110378E+02  0.51377038188E+03 -0.14748700442E+03  0.54190551798E+03  0.00000000000E+00 0.  1.
<mgrwt>
<rscale>  0 0.15006185E+04</rscale>
<asrwt>0</asrwt>
<pdfrwt beam="1">  1        1 0.11573224E+00 0.15006185E+04</pdfrwt>
<pdfrwt beam="2">  1       -1 0.11513292E+00 0.15006185E+04</pdfrwt>
<totfact> 0.16146266E+01</totfact>
</mgrwt>
</event>
<event>
12    1  0.1519630E-007  0.1665144E+04  0.7818608E-02  0.8781497E-01
          2   -1    0    0  501    0  0.00000000000E+00  0.00000000000E+00  0.12238882008E+04  0.12238882008E+04  0.00000000000E+00 0. -1.
         -2   -1    0    0    0  501 -0.00000000000E+00 -0.00000000000E+00 -0.56637219957E+03  0.56637219957E+03  0.00000000000E+00 0.  1.
         23    2    1    2    0    0 -0.52590431430E+03 -0.25892378072E+03  0.24487683418E+03  0.64108845752E+03  0.86098051214E+02 0.  0.
        254    2    1    2    0    0  0.52590431430E+03  0.25892378072E+03  0.41263916701E+03  0.11491719428E+04  0.89816936041E+03 0.  0.
        -24    2    4    4    0    0 -0.92225204765E+02  0.21048577417E+03 -0.16745312648E+03  0.29545781796E+03  0.80280901256E+02 0.  0.
         24    2    4    4    0    0  0.61812951907E+03  0.48438006551E+02  0.58009229349E+03  0.85371412485E+03  0.88827896379E+02 0.  0.
         11    1    3    3    0    0 -0.71076522381E+02 -0.67079467815E+02  0.26162286540E+02  0.10117308077E+03  0.00000000000E+00 0. -1.
        -11    1    3    3    0    0 -0.45482779192E+03 -0.19184431290E+03  0.21871454764E+03  0.53991537674E+03  0.00000000000E+00 0.  1.
          2    1    6    6  502    0  0.36450810501E+03  0.26919825353E+02  0.28137739867E+03  0.46126356468E+03  0.00000000000E+00 0. -1.
          1    1    5    5  503    0 -0.56008217510E+02  0.57090319640E+02 -0.27193944682E+02  0.84473283662E+02  0.00000000000E+00 0. -1.
         -2    1    5    5    0  503 -0.36216987255E+02  0.15339545453E+03 -0.14025918180E+03  0.21098453430E+03  0.00000000000E+00 0.  1.
         -1    1    6    6    0  502  0.25362141405E+03  0.21518181198E+02  0.29871489482E+03  0.39245056017E+03  0.00000000000E+00 0.  1.
<mgrwt>
<rscale>  0 0.16651441E+04</rscale>
<asrwt>0</asrwt>
<pdfrwt beam="1">  1        2 0.18829049E+00 0.16651441E+04</pdfrwt>
<pdfrwt beam="2">  1       -2 0.87134184E-01 0.16651441E+04</pdfrwt>
<totfact> 0.19913824E+01</totfact>
</mgrwt>
</event>
<event>
12    1  0.1519630E-007  0.1789252E+04  0.7818608E-02  0.8712036E-01
         -2   -1    0    0    0  501 -0.00000000000E+00  0.00000000000E+00  0.15326085078E+04  0.15326085078E+04  0.00000000000E+00 0.  1.
          2   -1    0    0  501    0  0.00000000000E+00 -0.00000000000E+00 -0.52221808189E+03  0.52221808189E+03  0.00000000000E+00 0. -1.
         23    2    1    2    0    0 -0.38272243718E+03  0.29511357337E+02  0.99353865416E+03  0.10689855523E+04  0.90904728513E+02 0.  0.
        254    2    1    2    0    0  0.38272243718E+03 -0.29511357337E+02  0.16851771734E+02  0.98584103733E+03  0.90788280331E+03 0.  0.
        -24    2    4    4    0    0  0.39570464735E+03 -0.28669656878E+03  0.31136537915E+03  0.58526708485E+03  0.82535270003E+02 0.  0.
         24    2    4    4    0    0 -0.12982210176E+02  0.25718521144E+03 -0.29451360741E+03  0.40057395248E+03  0.86072386334E+02 0.  0.
         11    1    3    3    0    0 -0.37934544668E+03  0.15181614283E+02  0.96087236526E+03  0.10331549505E+04  0.00000000000E+00 0.  1.
        -11    1    3    3    0    0 -0.33769904977E+01  0.14329743054E+02  0.32666288900E+02  0.35830601883E+02  0.00000000000E+00 0. -1.
          4    1    6    6  502    0  0.26191298325E+02  0.96478760404E+02 -0.71482400426E+02  0.12289779855E+03  0.00000000000E+00 0. -1.
          3    1    5    5  503    0  0.20870307226E+03 -0.17684842080E+03  0.21504969946E+03  0.34796366125E+03  0.00000000000E+00 0. -1.
         -4    1    5    5    0  503  0.18700157509E+03 -0.10984814798E+03  0.96315679682E+02  0.23730342360E+03  0.00000000000E+00 0.  1.
         -3    1    6    6    0  502 -0.39173508501E+02  0.16070645104E+03 -0.22303120699E+03  0.27767615393E+03  0.00000000000E+00 0.  1.
<mgrwt>
<rscale>  0 0.17892522E+04</rscale>
<asrwt>0</asrwt>
<pdfrwt beam="1">  1        2 0.80341244E-01 0.17892522E+04</pdfrwt>
<pdfrwt beam="2">  1       -2 0.23578592E+00 0.17892522E+04</pdfrwt>
<totfact> 0.43489860E+00</totfact>
</mgrwt>
</event>
<event>
12    1  0.1519630E-007  0.1666605E+04  0.7818608E-02  0.8780643E-01
          1   -1    0    0  501    0  0.00000000000E+00  0.00000000000E+00  0.48003708206E+03  0.48003708206E+03  0.00000000000E+00 0. -1.
         -1   -1    0    0    0  501 -0.00000000000E+00 -0.00000000000E+00 -0.14465410409E+04  0.14465410409E+04  0.00000000000E+00 0.  1.
         23    2    1    2    0    0  0.44574101984E+03  0.22607659922E+03  0.16684356677E+02  0.51212589510E+03  0.11044853637E+03 0.  0.
        254    2    1    2    0    0 -0.44574101984E+03 -0.22607659922E+03 -0.98318831556E+03  0.14144522279E+04  0.88556205639E+03 0.  0.
        -24    2    4    4    0    0 -0.27311048305E+03  0.31491726665E+02 -0.10490672572E+04  0.10873762393E+04  0.79144871915E+02 0.  0.
         24    2    4    4    0    0 -0.17263053679E+03 -0.25756832589E+03  0.65878941653E+02  0.32707598865E+03  0.80597286973E+02 0.  0.
         13    1    3    3    0    0  0.41258629294E+03  0.20206121251E+03 -0.16080897087E+02  0.45968987151E+03  0.00000000000E+00 0. -1.
        -13    1    3    3    0    0  0.33154726902E+02  0.24015386719E+02  0.32765253764E+02  0.52436023585E+02  0.00000000000E+00 0.  1.
          4    1    6    6  502    0 -0.16277270311E+03 -0.23345495073E+03  0.82327953423E+02  0.29626687093E+03  0.00000000000E+00 0. -1.
          1    1    5    5  503    0 -0.17299249614E+03 -0.16980052046E+02 -0.59396127495E+03  0.61887375290E+03  0.00000000000E+00 0. -1.
         -2    1    5    5    0  503 -0.10011798692E+03  0.48471778711E+02 -0.45510598227E+03  0.46850248637E+03  0.00000000000E+00 0.  1.
         -3    1    6    6    0  502 -0.98578336727E+01 -0.24113375161E+02 -0.16449011770E+02  0.30809117719E+02  0.00000000000E+00 0.  1.
<mgrwt>
<rscale>  0 0.16666053E+04</rscale>
<asrwt>0</asrwt>
<pdfrwt beam="1">  1        1 0.73851859E-01 0.16666053E+04</pdfrwt>
<pdfrwt beam="2">  1       -1 0.22254478E+00 0.16666053E+04</pdfrwt>
<totfact> 0.47336302E+00</totfact>
</mgrwt>
</event>
<event>
12    1  0.1519630E-007  0.8545603E+03  0.7818608E-02  0.9484237E-01
          2   -1    0    0  501    0  0.00000000000E+00  0.00000000000E+00  0.98268968108E+03  0.98268968108E+03  0.00000000000E+00 0.  1.
         -2   -1    0    0    0  501 -0.00000000000E+00 -0.00000000000E+00 -0.18578429326E+03  0.18578429326E+03  0.00000000000E+00 0. -1.
         23    2    1    2    0    0  0.81321352605E+01 -0.29094777043E+02  0.20172095178E+03  0.22365892430E+03  0.91756930833E+02 0.  0.
        254    2    1    2    0    0 -0.81321352605E+01  0.29094777043E+02  0.59518443604E+03  0.94481505004E+03  0.73315641456E+03 0.  0.
        -24    2    4    4    0    0  0.29274368087E+03 -0.10942644424E+03  0.89007946773E+02  0.33486697289E+03  0.80873144835E+02 0.  0.
         24    2    4    4    0    0 -0.30087581613E+03  0.13852122129E+03  0.50617648927E+03  0.60994807715E+03  0.78151347096E+02 0.  0.
         13    1    3    3    0    0 -0.19926597191E+02 -0.45341448341E+02  0.57734021190E+02  0.76066637996E+02  0.00000000000E+00 0. -1.
        -13    1    3    3    0    0  0.28058732452E+02  0.16246671297E+02  0.14398693059E+03  0.14759228630E+03  0.00000000000E+00 0.  1.
          2    1    6    6  502    0 -0.49704288953E+02 -0.67499532447E+01  0.76208504256E+02  0.91234940292E+02  0.00000000000E+00 0. -1.
          1    1    5    5  503    0  0.18483398182E+03 -0.26639100595E+02  0.54917134657E+02  0.19465131439E+03  0.00000000000E+00 0. -1.
         -2    1    5    5    0  503  0.10790969905E+03 -0.82787343647E+02  0.34090812116E+02  0.14021565850E+03  0.00000000000E+00 0.  1.
         -1    1    6    6    0  502 -0.25117152718E+03  0.14527117453E+03  0.42996798501E+03  0.51871313686E+03  0.00000000000E+00 0.  1.
<mgrwt>
<rscale>  0 0.85456026E+03</rscale>
<asrwt>0</asrwt>
<pdfrwt beam="1">  1        2 0.15118302E+00 0.85456026E+03</pdfrwt>
<pdfrwt beam="2">  1       -2 0.28582200E-01 0.85456026E+03</pdfrwt>
<totfact> 0.29076678E+02</totfact>
</mgrwt>
</event>
<event>
12    1  0.1519630E-007  0.2970597E+04  0.7818608E-02  0.8252177E-01
         -1   -1    0    0    0  501 -0.00000000000E+00  0.00000000000E+00  0.22086959461E+04  0.22086959461E+04  0.00000000000E+00 0.  1.
          1   -1    0    0  501    0  0.00000000000E+00 -0.00000000000E+00 -0.99883015771E+03  0.99883015771E+03  0.00000000000E+00 0. -1.
         23    2    1    2    0    0 -0.40262006680E+03  0.12719761479E+04  0.74986990938E+03  0.15333667323E+04  0.94246569710E+02 0.  0.
        254    2    1    2    0    0  0.40262006680E+03 -0.12719761479E+04  0.45999587899E+03  0.16741593715E+04  0.90065928820E+03 0.  0.
        -24    2    4    4    0    0  0.37572280448E+02 -0.46732741525E+03  0.61114121556E+03  0.77422723139E+03  0.78279187339E+02 0.  0.
         24    2    4    4    0    0  0.36504778636E+03 -0.80464873262E+03 -0.15114533656E+03  0.89993214008E+03  0.79457376914E+02 0.  0.
         13    1    3    3    0    0 -0.26851880936E+03  0.93720180999E+03  0.51005483618E+03  0.11002752017E+04  0.00000000000E+00 0.  1.
        -13    1    3    3    0    0 -0.13410125744E+03  0.33477433788E+03  0.23981507320E+03  0.43309153061E+03  0.00000000000E+00 0. -1.
          4    1    6    6  502    0  0.25616596408E+03 -0.47060603441E+03 -0.91175714352E+02  0.54351085699E+03  0.00000000000E+00 0. -1.
          3    1    5    5  503    0  0.11786509894E+02 -0.32846229255E+03  0.37116001041E+03  0.49576824502E+03  0.00000000000E+00 0. -1.
         -4    1    5    5    0  503  0.25785770554E+02 -0.13886512269E+03  0.23998120515E+03  0.27845898636E+03  0.00000000000E+00 0.  1.
         -3    1    6    6    0  502  0.10888182227E+03 -0.33404269821E+03 -0.59969622209E+02  0.35642128309E+03  0.00000000000E+00 0.  1.
<mgrwt>
<rscale>  0 0.29705973E+04</rscale>
<asrwt>0</asrwt>
<pdfrwt beam="1">  1        1 0.15366618E+00 0.29705973E+04</pdfrwt>
<pdfrwt beam="2">  1       -1 0.33979938E+00 0.29705973E+04</pdfrwt>
<totfact> 0.23474317E-01</totfact>
</mgrwt>
</event>
<event>
12    1  0.1519630E-007  0.1655619E+04  0.7818608E-02  0.8787089E-01
         -2   -1    0    0    0  501 -0.00000000000E+00  0.00000000000E+00  0.57719261683E+03  0.57719261683E+03  0.00000000000E+00 0. -1.
          2   -1    0    0  501    0  0.00000000000E+00 -0.00000000000E+00 -0.11872441580E+04  0.11872441580E+04  0.00000000000E+00 0.  1.
         23    2    1    2    0    0  0.51174589481E+03 -0.11578571763E+03  0.31883818946E+02  0.53372278263E+03  0.92483714904E+02 0.  0.
        254    2    1    2    0    0 -0.51174589481E+03  0.11578571763E+03 -0.64193536014E+03  0.12307139922E+04  0.90955248931E+03 0.  0.
        -24    2    4    4    0    0 -0.29767484229E+03  0.50261424738E+03 -0.45163054998E+03  0.74285388391E+03  0.81426935123E+02 0.  0.
         24    2    4    4    0    0 -0.21407105253E+03 -0.38682852975E+03 -0.19030481015E+03  0.48786010832E+03  0.79553991507E+02 0.  0.
         13    1    3    3    0    0  0.26588678312E+03 -0.47179432517E+02  0.60914510578E+02  0.27682532018E+03  0.00000000000E+00 0. -1.
        -13    1    3    3    0    0  0.24585911169E+03 -0.68606285113E+02 -0.29030691632E+02  0.25689746245E+03  0.00000000000E+00 0.  1.
          4    1    6    6  502    0 -0.11113558225E+03 -0.27730071306E+03 -0.12036981032E+03  0.32208026072E+03  0.00000000000E+00 0. -1.
          1    1    5    5  503    0 -0.23941698255E+03  0.44536018726E+03 -0.36378958570E+03  0.62290372498E+03  0.00000000000E+00 0. -1.
         -2    1    5    5    0  503 -0.58257859739E+02  0.57254060121E+02 -0.87840964287E+02  0.11995015893E+03  0.00000000000E+00 0.  1.
         -3    1    6    6    0  502 -0.10293547028E+03 -0.10952781669E+03 -0.69934999830E+02  0.16577984760E+03  0.00000000000E+00 0.  1.
<mgrwt>
<rscale>  0 0.16556190E+04</rscale>
<asrwt>0</asrwt>
<pdfrwt beam="1">  1        2 0.18265295E+00 0.16556190E+04</pdfrwt>
<pdfrwt beam="2">  1       -2 0.88798864E-01 0.16556190E+04</pdfrwt>
<totfact> 0.20067903E+01</totfact>
</mgrwt>
</event>
<event>
12    1  0.1519630E-007  0.2896051E+04  0.7818608E-02  0.8274054E-01
         -2   -1    0    0    0  501 -0.00000000000E+00  0.00000000000E+00  0.64720227412E+03  0.64720227412E+03  0.00000000000E+00 0.  1.
          2   -1    0    0  501    0  0.00000000000E+00 -0.00000000000E+00 -0.32397556395E+04  0.32397556395E+04  0.00000000000E+00 0. -1.
         23    2    1    2    0    0 -0.60818234971E+03  0.11560088748E+04 -0.11860987970E+04  0.17667707454E+04  0.91685448482E+02 0.  0.
        254    2    1    2    0    0  0.60818234971E+03 -0.11560088748E+04 -0.14064545684E+04  0.21201871683E+04  0.90046481677E+03 0.  0.
        -24    2    4    4    0    0  0.55511132016E+02 -0.97793629514E+03 -0.10294332004E+04  0.14232823513E+04  0.80987988484E+02 0.  0.
         24    2    4    4    0    0  0.55267121770E+03 -0.17807257967E+03 -0.37702136806E+03  0.69690481699E+03  0.79849192001E+02 0.  0.
         13    1    3    3    0    0 -0.50406298711E+03  0.99362465815E+03 -0.10473726529E+04  0.15291693596E+04  0.00000000000E+00 0. -1.
        -13    1    3    3    0    0 -0.10411936260E+03  0.16238421665E+03 -0.13872614408E+03  0.23760138581E+03  0.00000000000E+00 0.  1.
          4    1    6    6  502    0  0.46048455010E+03 -0.12909176629E+03 -0.33726541751E+03  0.58519968118E+03  0.00000000000E+00 0. -1.
          1    1    5    5  503    0  0.35702214045E+02 -0.92490500254E+03 -0.95741912407E+03  0.13316813774E+04  0.00000000000E+00 0. -1.
         -2    1    5    5    0  503  0.19808917971E+02 -0.53031292599E+02 -0.72014076308E+02  0.91600973862E+02  0.00000000000E+00 0.  1.
         -3    1    6    6    0  502  0.92186667596E+02 -0.48980813374E+02 -0.39755950559E+02  0.11170513581E+03  0.00000000000E+00 0.  1.
<mgrwt>
<rscale>  0 0.28960506E+04</rscale>
<asrwt>0</asrwt>
<pdfrwt beam="1">  1        2 0.49842395E+00 0.28960506E+04</pdfrwt>
<pdfrwt beam="2">  1       -2 0.99569580E-01 0.28960506E+04</pdfrwt>
<totfact> 0.87932736E-01</totfact>
</mgrwt>
</event>
<event>
12    1  0.1519630E-007  0.2587383E+04  0.7818608E-02  0.8372500E-01
         -2   -1    0    0    0  501 -0.00000000000E+00  0.00000000000E+00  0.84484917770E+03  0.84484917770E+03  0.00000000000E+00 0.  1.
          2   -1    0    0  501    0  0.00000000000E+00 -0.00000000000E+00 -0.19809899887E+04  0.19809899887E+04  0.00000000000E+00 0. -1.
         23    2    1    2    0    0 -0.36265964048E+03  0.17344219665E+03 -0.16592064941E+04  0.17093245418E+04  0.84970516784E+02 0.  0.
        254    2    1    2    0    0  0.36265964048E+03 -0.17344219665E+03  0.52306568310E+03  0.11165146246E+04  0.90077910039E+03 0.  0.
        -24    2    4    4    0    0 -0.12263113550E+03 -0.34942485486E+03  0.13428543270E+01  0.37860347113E+03  0.78756971180E+02 0.  0.
         24    2    4    4    0    0  0.48529077598E+03  0.17598265821E+03  0.52172282878E+03  0.73791115347E+03  0.76427266825E+02 0.  0.
         13    1    3    3    0    0 -0.31327127990E+03  0.16220481907E+03 -0.13186810587E+04  0.13650527582E+04  0.00000000000E+00 0. -1.
        -13    1    3    3    0    0 -0.49388360573E+02  0.11237377578E+02 -0.34052543547E+03  0.34427178365E+03  0.00000000000E+00 0.  1.
          4    1    6    6  502    0  0.37303517701E+02 -0.41305421080E+01  0.53317467372E+02  0.65202501010E+02  0.00000000000E+00 0. -1.
          1    1    5    5  503    0 -0.22302188625E+02 -0.13656487141E+02  0.10159342402E+02  0.28055293556E+02  0.00000000000E+00 0. -1.
         -2    1    5    5    0  503 -0.10032894687E+03 -0.33576836772E+03 -0.88164880746E+01  0.35054817758E+03  0.00000000000E+00 0.  1.
         -3    1    6    6    0  502  0.44798725828E+03  0.18011320032E+03  0.46840536140E+03  0.67270865246E+03  0.00000000000E+00 0.  1.
<mgrwt>
<rscale>  0 0.25873831E+04</rscale>
<asrwt>0</asrwt>
<pdfrwt beam="1">  1        2 0.30476768E+00 0.25873831E+04</pdfrwt>
<pdfrwt beam="2">  1       -2 0.12997680E+00 0.25873831E+04</pdfrwt>
<totfact> 0.26340114E+00</totfact>
</mgrwt>
</event>
<event>
12    1  0.1744343E-007  0.2392729E+04  0.7818608E-02  0.8442231E-01
         -1   -1    0    0    0  501 -0.00000000000E+00  0.00000000000E+00  0.94609525016E+03  0.94609525016E+03  0.00000000000E+00 0.  1.
          1   -1    0    0  501    0  0.00000000000E+00 -0.00000000000E+00 -0.15128370574E+04  0.15128370574E+04  0.00000000000E+00 0. -1.
         23    2    1    2    0    0  0.38591967955E+03  0.86986377305E+03 -0.58649483623E+03  0.11217324293E+04  0.93329884344E+02 0.  0.
        254    2    1    2    0    0 -0.38591967955E+03 -0.86986377305E+03  0.19753028977E+02  0.13371998783E+04  0.93921049267E+03 0.  0.
        -24    2    4    4    0    0 -0.57141861529E+03 -0.24250266603E+03  0.19450827849E+03  0.65540170724E+03  0.79944671613E+02 0.  0.
         24    2    4    4    0    0  0.18549893574E+03 -0.62736110702E+03 -0.17475524951E+03  0.68179817102E+03  0.79482922774E+02 0.  0.
         11    1    3    3    0    0  0.37273770824E+03  0.84644636478E+03 -0.54882490847E+03  0.10754597286E+04  0.00000000000E+00 0. -1.
        -11    1    3    3    0    0  0.13181971312E+02  0.23417408277E+02 -0.37669927756E+02  0.46272700756E+02  0.00000000000E+00 0.  1.
          4    1    6    6  502    0  0.17445838753E+03 -0.52132451496E+03 -0.12319869793E+03  0.56337633785E+03  0.00000000000E+00 0. -1.
          3    1    5    5  503    0 -0.48862277212E+03 -0.22286529106E+03  0.19178489874E+03  0.57026537575E+03  0.00000000000E+00 0. -1.
         -4    1    5    5    0  503 -0.82795843177E+02 -0.19637374975E+02  0.27233797423E+01  0.85136331496E+02  0.00000000000E+00 0.  1.
         -3    1    6    6    0  502  0.11040548211E+02 -0.10603659206E+03 -0.51556551580E+02  0.11842183317E+03  0.00000000000E+00 0.  1.
<mgrwt>
<rscale>  0 0.23927289E+04</rscale>
<asrwt>0</asrwt>
<pdfrwt beam="1">  1        1 0.23274416E+00 0.23927289E+04</pdfrwt>
<pdfrwt beam="2">  1       -1 0.14555312E+00 0.23927289E+04</pdfrwt>
<totfact> 0.21736640E+00</totfact>
</mgrwt>
</event>
<event>
12    1  0.1519630E-007  0.1951985E+04  0.7818608E-02  0.8629404E-01
         -1   -1    0    0    0  501 -0.00000000000E+00  0.00000000000E+00  0.47735699944E+03  0.47735699944E+03  0.00000000000E+00 0.  1.
          1   -1    0    0  501    0  0.00000000000E+00 -0.00000000000E+00 -0.19954895527E+04  0.19954895527E+04  0.00000000000E+00 0. -1.
         23    2    1    2    0    0  0.33270670988E+03  0.40566358354E+03  0.10696262044E+03  0.54314324796E+03  0.91142129817E+02 0.  0.
        254    2    1    2    0    0 -0.33270670988E+03 -0.40566358354E+03 -0.16250951737E+04  0.19297033042E+04  0.89864554788E+03 0.  0.
        -24    2    4    4    0    0  0.78781384476E+02 -0.39056883544E+03 -0.13919175754E+04  0.14499713169E+04  0.78941506432E+02 0.  0.
         24    2    4    4    0    0 -0.41148809435E+03 -0.15094748103E+02 -0.23317759832E+03  0.47973198727E+03  0.78871313120E+02 0.  0.
         11    1    3    3    0    0  0.99618856084E+02  0.73875398277E+02  0.49832638211E+02  0.13365920391E+03  0.00000000000E+00 0. -1.
        -11    1    3    3    0    0  0.23308785379E+03  0.33178818526E+03  0.57129982231E+02  0.40948404405E+03  0.00000000000E+00 0.  1.
          4    1    6    6  502    0 -0.35151198536E+01 -0.10571017102E+02 -0.80469081699E+01  0.13742459796E+02  0.00000000000E+00 0. -1.
          3    1    5    5  503    0 -0.70778823204E+01 -0.83632381252E+02 -0.21934102098E+03  0.23485092100E+03  0.00000000000E+00 0. -1.
         -4    1    5    5    0  503  0.85859266797E+02 -0.30693645418E+03 -0.11725765544E+04  0.12151203959E+04  0.00000000000E+00 0.  1.
         -3    1    6    6    0  502 -0.40797297450E+03 -0.45237310016E+01 -0.22513069015E+03  0.46598952747E+03  0.00000000000E+00 0.  1.
<mgrwt>
<rscale>  0 0.19519845E+04</rscale>
<asrwt>0</asrwt>
<pdfrwt beam="1">  1        1 0.30699839E+00 0.19519845E+04</pdfrwt>
<pdfrwt beam="2">  1       -1 0.73439540E-01 0.19519845E+04</pdfrwt>
<totfact> 0.52222059E+00</totfact>
</mgrwt>
</event>
<event>
12    1  0.1519630E-007  0.1650312E+04  0.7818608E-02  0.8790222E-01
          1   -1    0    0  501    0  0.00000000000E+00  0.00000000000E+00  0.30095759252E+04  0.30095759252E+04  0.00000000000E+00 0. -1.
         -1   -1    0    0    0  501 -0.00000000000E+00 -0.00000000000E+00 -0.22623859899E+03  0.22623859899E+03  0.00000000000E+00 0.  1.
         23    2    1    2    0    0  0.18599615678E+02 -0.25296485605E+03 -0.29747450453E+02  0.27270962916E+03  0.95647618516E+02 0.  0.
        254    2    1    2    0    0 -0.18599615678E+02  0.25296485605E+03  0.28130847767E+04  0.29631048950E+04  0.89566036762E+03 0.  0.
        -24    2    4    4    0    0  0.21161615783E+03  0.13332248858E+03  0.18525864077E+03  0.32132623358E+03  0.79834204393E+02 0.  0.
         24    2    4    4    0    0 -0.23021577351E+03  0.11964236747E+03  0.26278261359E+04  0.26417786614E+04  0.78807976267E+02 0.  0.
         11    1    3    3    0    0  0.43752760282E+02 -0.15198453170E+03  0.16135205991E+02  0.15897781852E+03  0.00000000000E+00 0.  1.
        -11    1    3    3    0    0 -0.25153144604E+02 -0.10098032434E+03 -0.45882656444E+02  0.11373181064E+03  0.00000000000E+00 0. -1.
          4    1    6    6  502    0 -0.16358574394E+02  0.11386807524E+02  0.71088947789E+02  0.73830216304E+02  0.00000000000E+00 0. -1.
          3    1    5    5  503    0  0.12728474611E+02 -0.61708185970E+01  0.29597365564E+02  0.32803919224E+02  0.00000000000E+00 0. -1.
         -4    1    5    5    0  503  0.19888768322E+03  0.13949330717E+03  0.15566127521E+03  0.28852231435E+03  0.00000000000E+00 0.  1.
         -3    1    6    6    0  502 -0.21385719911E+03  0.10825555995E+03  0.25567371881E+04  0.25679484451E+04  0.00000000000E+00 0.  1.
<mgrwt>
<rscale>  0 0.16503118E+04</rscale>
<asrwt>0</asrwt>
<pdfrwt beam="1">  1        1 0.46301165E+00 0.16503118E+04</pdfrwt>
<pdfrwt beam="2">  1       -1 0.34805940E-01 0.16503118E+04</pdfrwt>
<totfact> 0.44252039E+00</totfact>
</mgrwt>
</event>
<event>
12    1  0.1519630E-007  0.2314360E+04  0.7818608E-02  0.8472281E-01
          2   -1    0    0  501    0  0.00000000000E+00  0.00000000000E+00  0.56429768301E+03  0.56429768301E+03  0.00000000000E+00 0.  1.
         -2   -1    0    0    0  501 -0.00000000000E+00 -0.00000000000E+00 -0.23729775052E+04  0.23729775052E+04  0.00000000000E+00 0. -1.
         23    2    1    2    0    0 -0.82306636350E+02  0.60444679764E+02 -0.20061782548E+04  0.20108684667E+04  0.91721636920E+02 0.  0.
        254    2    1    2    0    0  0.82306636350E+02 -0.60444679764E+02  0.19749843263E+03  0.92640672147E+03  0.89933077396E+03 0.  0.
        -24    2    4    4    0    0  0.24197588548E+03 -0.15761620452E+03 -0.27891262682E+03  0.40926502124E+03  0.79438071010E+02 0.  0.
         24    2    4    4    0    0 -0.15966924913E+03  0.97171524755E+02  0.47641105945E+03  0.51714170024E+03  0.74373827476E+02 0.  0.
         11    1    3    3    0    0 -0.37333000049E+01 -0.20169475541E+02 -0.53340495136E+03  0.53379920140E+03  0.00000000000E+00 0.  1.
        -11    1    3    3    0    0 -0.78573336345E+02  0.80614155305E+02 -0.14727733035E+04  0.14770692653E+04  0.00000000000E+00 0. -1.
          4    1    6    6  502    0 -0.14455242714E+03  0.10065158968E+03  0.37211752223E+03  0.41170085869E+03  0.00000000000E+00 0. -1.
          3    1    5    5  503    0  0.22094523311E+03 -0.16542616057E+03 -0.26627381448E+03  0.38351578183E+03  0.00000000000E+00 0. -1.
         -4    1    5    5    0  503  0.21030652368E+02  0.78099560517E+01 -0.12638812347E+02  0.25749239408E+02  0.00000000000E+00 0.  1.
         -3    1    6    6    0  502 -0.15116821991E+02 -0.34800649276E+01  0.10429353723E+03  0.10544084155E+03  0.00000000000E+00 0.  1.
<mgrwt>
<rscale>  0 0.23143601E+04</rscale>
<asrwt>0</asrwt>
<pdfrwt beam="1">  1        2 0.86815028E-01 0.23143601E+04</pdfrwt>
<pdfrwt beam="2">  1       -2 0.36507346E+00 0.23143601E+04</pdfrwt>
<totfact> 0.60426027E-01</totfact>
</mgrwt>
</event>
<event>
12    1  0.1519630E-007  0.1838069E+04  0.7818608E-02  0.8686313E-01
         -2   -1    0    0    0  501 -0.00000000000E+00  0.00000000000E+00  0.31217216677E+03  0.31217216677E+03  0.00000000000E+00 0.  1.
          2   -1    0    0  501    0  0.00000000000E+00 -0.00000000000E+00 -0.27056370575E+04  0.27056370575E+04  0.00000000000E+00 0. -1.
         23    2    1    2    0    0 -0.46105391273E+03 -0.41907567347E+03 -0.14126393890E+04  0.15466028150E+04  0.90747414820E+02 0.  0.
        254    2    1    2    0    0  0.46105391273E+03  0.41907567347E+03 -0.98082550174E+03  0.14712064093E+04  0.90234943535E+03 0.  0.
        -24    2    4    4    0    0  0.58251985656E+03  0.34727108627E+03 -0.25733911089E+03  0.72976258570E+03  0.80021389953E+02 0.  0.
         24    2    4    4    0    0 -0.12146594383E+03  0.71804587201E+02 -0.72348639085E+03  0.74144382363E+03  0.79978194571E+02 0.  0.
         13    1    3    3    0    0 -0.35202201859E+03 -0.29058020374E+03 -0.11103405797E+04  0.12005051268E+04  0.00000000000E+00 0. -1.
        -13    1    3    3    0    0 -0.10903189414E+03 -0.12849546973E+03 -0.30229880928E+03  0.34609768820E+03  0.00000000000E+00 0.  1.
          4    1    6    6  502    0 -0.13163060491E+03  0.68003571740E+02 -0.70086785251E+03  0.71635664903E+03  0.00000000000E+00 0. -1.
          3    1    5    5  503    0  0.45496173770E+03  0.28028900633E+03 -0.16765314393E+03  0.56005328899E+03  0.00000000000E+00 0. -1.
         -4    1    5    5    0  503  0.12755811886E+03  0.66982079935E+02 -0.89685966960E+02  0.16970929671E+03  0.00000000000E+00 0.  1.
         -3    1    6    6    0  502  0.10164661076E+02  0.38010154612E+01 -0.22618538336E+02  0.25087174607E+02  0.00000000000E+00 0.  1.
<mgrwt>
<rscale>  0 0.18380692E+04</rscale>
<asrwt>0</asrwt>
<pdfrwt beam="1">  1        2 0.41625186E+00 0.18380692E+04</pdfrwt>
<pdfrwt beam="2">  1       -2 0.48026486E-01 0.18380692E+04</pdfrwt>
<totfact> 0.10205995E+01</totfact>
</mgrwt>
</event>
<event>
12    1  0.1519630E-007  0.1647312E+04  0.7818608E-02  0.8791999E-01
         -2   -1    0    0    0  501 -0.00000000000E+00  0.00000000000E+00  0.21871432565E+03  0.21871432565E+03  0.00000000000E+00 0.  1.
          2   -1    0    0  501    0  0.00000000000E+00 -0.00000000000E+00 -0.31018034241E+04  0.31018034241E+04  0.00000000000E+00 0. -1.
         23    2    1    2    0    0 -0.41378220413E+03  0.13177722752E+03 -0.14094685590E+04  0.14775389799E+04  0.89100326578E+02 0.  0.
        254    2    1    2    0    0  0.41378220413E+03 -0.13177722752E+03 -0.14736205395E+04  0.18429787698E+04  0.10180531920E+04 0.  0.
        -24    2    4    4    0    0 -0.26093192334E+02  0.21829131410E+03  0.30026061168E+02  0.23543585130E+03  0.78717998125E+02 0.  0.
         24    2    4    4    0    0  0.43987539647E+03 -0.35006854162E+03 -0.15036466006E+04  0.16075429186E+04  0.84869235692E+02 0.  0.
         11    1    3    3    0    0 -0.60193790037E+02 -0.84376691636E+01 -0.24947626595E+03  0.25677401327E+03  0.00000000000E+00 0.  1.
        -11    1    3    3    0    0 -0.35358841410E+03  0.14021489668E+03 -0.11599922930E+04  0.12207649666E+04  0.00000000000E+00 0. -1.
          4    1    6    6  502    0  0.37772630159E+03 -0.26659924885E+03 -0.12779475609E+04  0.13590078318E+04  0.00000000000E+00 0. -1.
          3    1    5    5  503    0 -0.53161312793E+02  0.15835588189E+03  0.13250950731E+02  0.16756580261E+03  0.00000000000E+00 0. -1.
         -4    1    5    5    0  503  0.27068120459E+02  0.59935432207E+02  0.16775110437E+02  0.67870048690E+02  0.00000000000E+00 0.  1.
         -3    1    6    6    0  502  0.62149094877E+02 -0.83469292765E+02 -0.22569903972E+03  0.24853508678E+03  0.00000000000E+00 0.  1.
<mgrwt>
<rscale>  0 0.16473116E+04</rscale>
<asrwt>0</asrwt>
<pdfrwt beam="1">  1        2 0.47720051E+00 0.16473116E+04</pdfrwt>
<pdfrwt beam="2">  1       -2 0.33648359E-01 0.16473116E+04</pdfrwt>
<totfact> 0.11919331E+01</totfact>
</mgrwt>
</event>
<event>
12    1  0.1519630E-007  0.1694598E+04  0.7818608E-02  0.8764451E-01
         -2   -1    0    0    0  501 -0.00000000000E+00  0.00000000000E+00  0.29834160456E+03  0.29834160456E+03  0.00000000000E+00 0.  1.
          2   -1    0    0  501    0  0.00000000000E+00 -0.00000000000E+00 -0.24063548793E+04  0.24063548793E+04  0.00000000000E+00 0. -1.
         23    2    1    2    0    0  0.19847371704E+03  0.58971165100E-01 -0.16765831678E+04  0.16906399235E+04  0.89108993132E+02 0.  0.
        254    2    1    2    0    0 -0.19847371704E+03 -0.58971165100E-01 -0.43143010699E+03  0.10140565604E+04  0.89598378925E+03 0.  0.
        -24    2    4    4    0    0 -0.39535399057E+03 -0.24563391470E+03  0.17211367409E+01  0.47236700645E+03  0.80540850211E+02 0.  0.
         24    2    4    4    0    0  0.19688027353E+03  0.24557494353E+03 -0.43315124373E+03  0.54168955393E+03  0.82089450588E+02 0.  0.
         13    1    3    3    0    0  0.33056904777E+02  0.33995649258E+02 -0.44905787101E+03  0.45155446476E+03  0.00000000000E+00 0.  1.
        -13    1    3    3    0    0  0.16541681227E+03 -0.33936678093E+02 -0.12275252968E+04  0.12390854588E+04  0.00000000000E+00 0. -1.
          4    1    6    6  502    0  0.10246488627E+03  0.87091500033E+02 -0.13139961919E+03  0.18801553718E+03  0.00000000000E+00 0. -1.
          1    1    5    5  503    0 -0.39762449240E+02 -0.15534948639E+02 -0.22257152510E+02  0.48143201354E+02  0.00000000000E+00 0. -1.
         -2    1    5    5    0  503 -0.35559154133E+03 -0.23009896606E+03  0.23978289251E+02  0.42422380509E+03  0.00000000000E+00 0.  1.
         -3    1    6    6    0  502  0.94415387256E+02  0.15848344350E+03 -0.30175162454E+03  0.35367401676E+03  0.00000000000E+00 0.  1.
<mgrwt>
<rscale>  0 0.16945982E+04</rscale>
<asrwt>0</asrwt>
<pdfrwt beam="1">  1        2 0.37020844E+00 0.16945982E+04</pdfrwt>
<pdfrwt beam="2">  1       -2 0.45898709E-01 0.16945982E+04</pdfrwt>
<totfact> 0.16912519E+01</totfact>
</mgrwt>
</event>
<event>
12    1  0.1519630E-007  0.1318518E+04  0.7818608E-02  0.9015008E-01
          2   -1    0    0  501    0  0.00000000000E+00  0.00000000000E+00  0.23338643154E+04  0.23338643154E+04  0.00000000000E+00 0. -1.
         -2   -1    0    0    0  501 -0.00000000000E+00 -0.00000000000E+00 -0.18622428560E+03  0.18622428560E+03  0.00000000000E+00 0.  1.
         23    2    1    2    0    0 -0.30665935583E+02  0.28873158505E+03  0.21697129062E+03  0.37412159531E+03  0.92650414519E+02 0.  0.
        254    2    1    2    0    0  0.30665935583E+02 -0.28873158505E+03  0.19306687392E+04  0.21459670057E+04  0.89072233681E+03 0.  0.
        -24    2    4    4    0    0  0.52515935935E+02  0.84738855527E+01  0.18141243991E+04  0.18166365084E+04  0.79316693451E+02 0.  0.
         24    2    4    4    0    0 -0.21850000353E+02 -0.29720547060E+03  0.11654434008E+03  0.32933049733E+03  0.77894024135E+02 0.  0.
         13    1    3    3    0    0 -0.19906693087E+01  0.92990665943E+02  0.20372702573E+02  0.95216982346E+02  0.00000000000E+00 0. -1.
        -13    1    3    3    0    0 -0.28675266274E+02  0.19574091911E+03  0.19659858805E+03  0.27890461296E+03  0.00000000000E+00 0.  1.
          2    1    6    6  502    0 -0.14907437948E+02 -0.27312391927E+03  0.79947528033E+02  0.28497458522E+03  0.00000000000E+00 0. -1.
          1    1    5    5  503    0  0.30587508541E+02  0.29588070837E+02  0.15759701562E+04  0.15765446340E+04  0.00000000000E+00 0. -1.
         -2    1    5    5    0  503  0.21928427394E+02 -0.21114185284E+02  0.23815424287E+03  0.24009187438E+03  0.00000000000E+00 0.  1.
         -1    1    6    6    0  502 -0.69425624045E+01 -0.24081551336E+02  0.36596812043E+02  0.44355912112E+02  0.00000000000E+00 0.  1.
<mgrwt>
<rscale>  0 0.13185177E+04</rscale>
<asrwt>0</asrwt>
<pdfrwt beam="1">  1        2 0.35905603E+00 0.13185177E+04</pdfrwt>
<pdfrwt beam="2">  1       -2 0.28649892E-01 0.13185177E+04</pdfrwt>
<totfact> 0.47575707E+01</totfact>
</mgrwt>
</event>
<event>
12    1  0.1584503E-007  0.2072364E+04  0.7818608E-02  0.8573516E-01
         -1   -1    0    0    0  501 -0.00000000000E+00  0.00000000000E+00  0.93791909967E+03  0.93791909967E+03  0.00000000000E+00 0.  1.
          1   -1    0    0  501    0  0.00000000000E+00 -0.00000000000E+00 -0.11447401221E+04  0.11447401221E+04  0.00000000000E+00 0. -1.
         23    2    1    2    0    0  0.33285415465E+03 -0.80372418351E+03 -0.15590449935E+03  0.88856635199E+03  0.92084187189E+02 0.  0.
        254    2    1    2    0    0 -0.33285415465E+03  0.80372418351E+03 -0.50916523127E+02  0.11940928698E+04  0.81639502571E+03 0.  0.
        -24    2    4    4    0    0  0.93800868861E+02  0.66203396527E+03  0.15766695752E+03  0.69191482312E+03  0.82460164892E+02 0.  0.
         24    2    4    4    0    0 -0.42665502351E+03  0.14169021825E+03 -0.20858348064E+03  0.50217804670E+03  0.81025274844E+02 0.  0.
         13    1    3    3    0    0  0.26296092673E+03 -0.63116139447E+03 -0.83607900701E+02  0.68884209795E+03  0.00000000000E+00 0.  1.
        -13    1    3    3    0    0  0.69893227915E+02 -0.17256278905E+03 -0.72296598649E+02  0.19972425403E+03  0.00000000000E+00 0. -1.
          4    1    6    6  502    0 -0.13225149352E+03  0.35220232080E+02 -0.24601337083E+02  0.13905447880E+03  0.00000000000E+00 0. -1.
          3    1    5    5  503    0  0.51175256976E+02  0.19562491756E+03  0.17134592313E+02  0.20293252462E+03  0.00000000000E+00 0. -1.
         -4    1    5    5    0  503  0.42625611885E+02  0.46640904771E+03  0.14053236520E+03  0.48898229850E+03  0.00000000000E+00 0.  1.
         -3    1    6    6    0  502 -0.29440352998E+03  0.10646998617E+03 -0.18398214356E+03  0.36312356791E+03  0.00000000000E+00 0.  1.
<mgrwt>
<rscale>  0 0.20723645E+04</rscale>
<asrwt>0</asrwt>
<pdfrwt beam="1">  1        1 0.17611387E+00 0.20723645E+04</pdfrwt>
<pdfrwt beam="2">  1       -1 0.14429525E+00 0.20723645E+04</pdfrwt>
<totfact> 0.41885659E+00</totfact>
</mgrwt>
</event>
<event>
12    1  0.1519630E-007  0.2910727E+04  0.7818608E-02  0.8269693E-01
          1   -1    0    0  501    0  0.00000000000E+00  0.00000000000E+00  0.11502660126E+04  0.11502660126E+04  0.00000000000E+00 0. -1.
         -1   -1    0    0    0  501 -0.00000000000E+00 -0.00000000000E+00 -0.18413857062E+04  0.18413857062E+04  0.00000000000E+00 0.  1.
         23    2    1    2    0    0 -0.69317632913E+03  0.80561539999E+03 -0.11615623347E+04  0.15767914110E+04  0.86801500400E+02 0.  0.
        254    2    1    2    0    0  0.69317632913E+03 -0.80561539999E+03  0.47044264107E+03  0.14148603079E+04  0.80684807509E+03 0.  0.
        -24    2    4    4    0    0  0.71882845218E+03 -0.81190709247E+03  0.61333357326E+03  0.12482975237E+04  0.78493090516E+02 0.  0.
         24    2    4    4    0    0 -0.25652123043E+02  0.62916924808E+01 -0.14289093219E+03  0.16656278412E+03  0.81410845348E+02 0.  0.
         11    1    3    3    0    0 -0.14367466418E+03  0.18377774037E+03 -0.30749351273E+03  0.38596493022E+03  0.00000000000E+00 0. -1.
        -11    1    3    3    0    0 -0.54950166495E+03  0.62183765961E+03 -0.85406882194E+03  0.11908264808E+04  0.00000000000E+00 0.  1.
          2    1    6    6  502    0  0.10885179710E+02  0.45357531662E+01 -0.12551211551E+03  0.12606486955E+03  0.00000000000E+00 0. -1.
          1    1    5    5  503    0  0.36001370329E+03 -0.38755764430E+03  0.34178482504E+03  0.62978382072E+03  0.00000000000E+00 0. -1.
         -2    1    5    5    0  503  0.35881474889E+03 -0.42434944817E+03  0.27154874822E+03  0.61851370303E+03  0.00000000000E+00 0.  1.
         -1    1    6    6    0  502 -0.36537302753E+02  0.17559393147E+01 -0.17378816677E+02  0.40497914569E+02  0.00000000000E+00 0.  1.
<mgrwt>
<rscale>  0 0.29107273E+04</rscale>
<asrwt>0</asrwt>
<pdfrwt beam="1">  1        1 0.17696400E+00 0.29107273E+04</pdfrwt>
<pdfrwt beam="2">  1       -1 0.28329011E+00 0.29107273E+04</pdfrwt>
<totfact> 0.42250855E-01</totfact>
</mgrwt>
</event>
<event>
12    1  0.1519630E-007  0.1351249E+04  0.7818608E-02  0.8989883E-01
          2   -1    0    0  501    0  0.00000000000E+00  0.00000000000E+00  0.22449578161E+04  0.22449578161E+04  0.00000000000E+00 0. -1.
         -2   -1    0    0    0  501 -0.00000000000E+00 -0.00000000000E+00 -0.20333060786E+03  0.20333060786E+03  0.00000000000E+00 0.  1.
         23    2    1    2    0    0  0.11574583602E+02  0.36745302625E+03  0.55169454664E+03  0.66933238267E+03  0.92104658990E+02 0.  0.
        254    2    1    2    0    0 -0.11574583602E+02 -0.36745302625E+03  0.14899326616E+04  0.17789560413E+04  0.89979417830E+03 0.  0.
        -24    2    4    4    0    0  0.31121086232E+03 -0.44651558604E+03  0.54570325949E+03  0.77491743636E+03  0.80477427591E+02 0.  0.
         24    2    4    4    0    0 -0.32278544592E+03  0.79062559786E+02  0.94422940215E+03  0.10040386050E+04  0.77993743006E+02 0.  0.
         13    1    3    3    0    0  0.42874727507E+01  0.31231220750E+03  0.51623471930E+03  0.60337018719E+03  0.00000000000E+00 0.  1.
        -13    1    3    3    0    0  0.72871108509E+01  0.55140818757E+02  0.35459827336E+02  0.65962195479E+02  0.00000000000E+00 0. -1.
          4    1    6    6  502    0 -0.18128048243E+03  0.79080494770E+02  0.60395992139E+03  0.63551862649E+03  0.00000000000E+00 0. -1.
          1    1    5    5  503    0  0.25632698836E+03 -0.38809605230E+03  0.42508980967E+03  0.63009794244E+03  0.00000000000E+00 0. -1.
         -2    1    5    5    0  503  0.54883873958E+02 -0.58419533735E+02  0.12061344982E+03  0.14481949392E+03  0.00000000000E+00 0.  1.
         -3    1    6    6    0  502 -0.14150496349E+03 -0.17934983924E-01  0.34026948076E+03  0.36851997849E+03  0.00000000000E+00 0.  1.
<mgrwt>
<rscale>  0 0.13512493E+04</rscale>
<asrwt>0</asrwt>
<pdfrwt beam="1">  1        2 0.34537811E+00 0.13512493E+04</pdfrwt>
<pdfrwt beam="2">  1       -2 0.31281634E-01 0.13512493E+04</pdfrwt>
<totfact> 0.45200489E+01</totfact>
</mgrwt>
</event>
<event>
12    1  0.1519630E-007  0.3131479E+04  0.7818608E-02  0.8207151E-01
         -1   -1    0    0    0  501 -0.00000000000E+00  0.00000000000E+00  0.89536103433E+03  0.89536103433E+03  0.00000000000E+00 0.  1.
          1   -1    0    0  501    0  0.00000000000E+00 -0.00000000000E+00 -0.27380470702E+04  0.27380470702E+04  0.00000000000E+00 0. -1.
         23    2    1    2    0    0  0.12551919041E+04  0.36983166897E+03 -0.15110045098E+04  0.20009449052E+04  0.91453296308E+02 0.  0.
        254    2    1    2    0    0 -0.12551919041E+04 -0.36983166897E+03 -0.33168152610E+03  0.16324631994E+04  0.91795494611E+03 0.  0.
        -24    2    4    4    0    0 -0.73945835348E+03 -0.33034299980E+03  0.24898723588E+03  0.85112568138E+03  0.80592355891E+02 0.  0.
         24    2    4    4    0    0 -0.51573355062E+03 -0.39488669168E+02 -0.58066876197E+03  0.78133751800E+03  0.75971413524E+02 0.  0.
         11    1    3    3    0    0  0.11246713207E+04  0.35920137986E+03 -0.13512154674E+04  0.17943507044E+04  0.00000000000E+00 0.  1.
        -11    1    3    3    0    0  0.13052058344E+03  0.10630289104E+02 -0.15978904236E+03  0.20659420080E+03  0.00000000000E+00 0. -1.
          4    1    6    6  502    0 -0.21974961799E+03 -0.32926968038E+02 -0.19885462188E+03  0.29818994026E+03  0.00000000000E+00 0. -1.
          3    1    5    5  503    0 -0.86507641842E+01 -0.52170143807E+01 -0.58136477426E+01  0.11655533454E+02  0.00000000000E+00 0. -1.
         -4    1    5    5    0  503 -0.73080758930E+03 -0.32512598542E+03  0.25480088362E+03  0.83947014793E+03  0.00000000000E+00 0.  1.
         -3    1    6    6    0  502 -0.29598393263E+03 -0.65617011299E+01 -0.38181414009E+03  0.48314757774E+03  0.00000000000E+00 0.  1.
<mgrwt>
<rscale>  0 0.31314793E+04</rscale>
<asrwt>0</asrwt>
<pdfrwt beam="1">  1        1 0.42123801E+00 0.31314793E+04</pdfrwt>
<pdfrwt beam="2">  1       -1 0.13774785E+00 0.31314793E+04</pdfrwt>
<totfact> 0.33924423E-01</totfact>
</mgrwt>
</event>
<event>
12    1  0.1519630E-007  0.1636352E+04  0.7818608E-02  0.8798522E-01
         -1   -1    0    0    0  501 -0.00000000000E+00  0.00000000000E+00  0.36120533019E+03  0.36120533019E+03  0.00000000000E+00 0.  1.
          1   -1    0    0  501    0  0.00000000000E+00 -0.00000000000E+00 -0.18532729957E+04  0.18532729957E+04  0.00000000000E+00 0. -1.
         23    2    1    2    0    0 -0.31230953193E+03 -0.17317711951E+03 -0.11214023050E+04  0.11802975352E+04  0.89619101220E+02 0.  0.
        254    2    1    2    0    0  0.31230953193E+03  0.17317711951E+03 -0.37066536049E+03  0.10341807907E+04  0.89700030102E+03 0.  0.
        -24    2    4    4    0    0  0.20114100162E+03  0.30919183550E+01  0.27680302749E+03  0.35089698672E+03  0.77727194566E+02 0.  0.
         24    2    4    4    0    0  0.11116853032E+03  0.17008520116E+03 -0.64746838798E+03  0.68328380402E+03  0.79837495112E+02 0.  0.
         13    1    3    3    0    0 -0.23620718595E+03 -0.15842167313E+03 -0.95999355974E+03  0.10012386808E+04  0.00000000000E+00 0. -1.
        -13    1    3    3    0    0 -0.76102345982E+02 -0.14755446386E+02 -0.16140874529E+03  0.17905885434E+03  0.00000000000E+00 0.  1.
          2    1    6    6  502    0  0.39208431336E+02  0.21611176233E+02 -0.73407109186E+02  0.85982252268E+02  0.00000000000E+00 0. -1.
          3    1    5    5  503    0  0.56705380889E+02  0.30221915780E+02  0.53703116946E+02  0.83742994841E+02  0.00000000000E+00 0. -1.
         -4    1    5    5    0  503  0.14443562073E+03 -0.27129997425E+02  0.22309991054E+03  0.26715399188E+03  0.00000000000E+00 0.  1.
         -1    1    6    6    0  502  0.71960098981E+02  0.14847402492E+03 -0.57406127879E+03  0.59730155175E+03  0.00000000000E+00 0.  1.
<mgrwt>
<rscale>  0 0.16363521E+04</rscale>
<asrwt>0</asrwt>
<pdfrwt beam="1">  1        1 0.28511892E+00 0.16363521E+04</pdfrwt>
<pdfrwt beam="2">  1       -1 0.55570052E-01 0.16363521E+04</pdfrwt>
<totfact> 0.11743978E+01</totfact>
</mgrwt>
</event>
<event>
12    1  0.1519630E-007  0.1252629E+04  0.7818608E-02  0.9067998E-01
          2   -1    0    0  501    0  0.00000000000E+00  0.00000000000E+00  0.65338273255E+03  0.65338273255E+03  0.00000000000E+00 0. -1.
         -2   -1    0    0    0  501 -0.00000000000E+00 -0.00000000000E+00 -0.60036798819E+03  0.60036798819E+03  0.00000000000E+00 0.  1.
         23    2    1    2    0    0  0.80958689663E+02  0.11334140768E+01  0.29363632357E+03  0.31817048935E+03  0.91948766791E+02 0.  0.
        254    2    1    2    0    0 -0.80958689663E+02 -0.11334140768E+01 -0.24062157921E+03  0.93558023138E+03  0.90047544715E+03 0.  0.
        -24    2    4    4    0    0 -0.34197737008E+03  0.29568309094E+03 -0.26728617735E+03  0.53130341136E+03  0.80401507482E+02 0.  0.
         24    2    4    4    0    0  0.26101868042E+03 -0.29681650502E+03  0.26664598144E+02  0.40427682002E+03  0.80609907795E+02 0.  0.
         11    1    3    3    0    0  0.67256828362E+02  0.23738664907E+02  0.10051682784E+03  0.12325030568E+03  0.00000000000E+00 0.  1.
        -11    1    3    3    0    0  0.13701861302E+02 -0.22605250830E+02  0.19311949573E+03  0.19492018367E+03  0.00000000000E+00 0. -1.
          4    1    6    6  502    0  0.25585298003E+03 -0.28707508409E+03  0.40404954394E+02  0.38665929658E+03  0.00000000000E+00 0. -1.
          3    1    5    5  503    0 -0.18862794960E+03  0.20466915478E+03 -0.18969660936E+03  0.33683047648E+03  0.00000000000E+00 0. -1.
         -4    1    5    5    0  503 -0.15334942048E+03  0.91013936165E+02 -0.77589567993E+02  0.19447293488E+03  0.00000000000E+00 0.  1.
         -3    1    6    6    0  502  0.51657003846E+01 -0.97414209329E+01 -0.13740356250E+02  0.17617523439E+02  0.00000000000E+00 0.  1.
<mgrwt>
<rscale>  0 0.12526294E+04</rscale>
<asrwt>0</asrwt>
<pdfrwt beam="1">  1        2 0.10052042E+00 0.12526294E+04</pdfrwt>
<pdfrwt beam="2">  1       -2 0.92364306E-01 0.12526294E+04</pdfrwt>
<totfact> 0.43734567E+01</totfact>
</mgrwt>
</event>
<event>
12    1  0.1519630E-007  0.2643395E+04  0.7818608E-02  0.8353609E-01
         -2   -1    0    0    0  501 -0.00000000000E+00  0.00000000000E+00  0.61687869907E+03  0.61687869907E+03  0.00000000000E+00 0. -1.
          2   -1    0    0  501    0  0.00000000000E+00 -0.00000000000E+00 -0.28318118771E+04  0.28318118771E+04  0.00000000000E+00 0.  1.
         23    2    1    2    0    0  0.30055236213E+03 -0.24374852734E+03 -0.23581962408E+04  0.23914767900E+04  0.91250532771E+02 0.  0.
        254    2    1    2    0    0 -0.30055236213E+03  0.24374852734E+03  0.14326306282E+03  0.10572137862E+04  0.97336099036E+03 0.  0.
        -24    2    4    4    0    0  0.10348065323E+03 -0.83745266509E+02 -0.32082940604E+03  0.35563397944E+03  0.76305335970E+02 0.  0.
         24    2    4    4    0    0 -0.40403301535E+03  0.32749379384E+03  0.46409246886E+03  0.70157980674E+03  0.79608687131E+02 0.  0.
         11    1    3    3    0    0  0.30668563954E+02 -0.36971204777E+02 -0.15718564871E+03  0.16436167120E+03  0.00000000000E+00 0. -1.
        -11    1    3    3    0    0  0.26988379817E+03 -0.20677732256E+03 -0.22010105921E+04  0.22271151188E+04  0.00000000000E+00 0.  1.
          4    1    6    6  502    0 -0.26647763300E+03  0.26210959360E+03  0.33467651999E+03  0.50171719223E+03  0.00000000000E+00 0. -1.
          1    1    5    5  503    0  0.94066380695E+02 -0.30673509511E+02 -0.22232644543E+03  0.24334830285E+03  0.00000000000E+00 0. -1.
         -2    1    5    5    0  503  0.94142725328E+01 -0.53071756999E+02 -0.98502960605E+02  0.11228567658E+03  0.00000000000E+00 0.  1.
         -3    1    6    6    0  502 -0.13755538235E+03  0.65384200246E+02  0.12941594886E+03  0.19986261450E+03  0.00000000000E+00 0.  1.
<mgrwt>
<rscale>  0 0.26433951E+04</rscale>
<asrwt>0</asrwt>
<pdfrwt beam="1">  1        2 0.43566337E+00 0.26433951E+04</pdfrwt>
<pdfrwt beam="2">  1       -2 0.94904414E-01 0.26433951E+04</pdfrwt>
<totfact> 0.18207683E+00</totfact>
</mgrwt>
</event>
<event>
12    1  0.1519630E-007  0.2307051E+04  0.7818608E-02  0.8475146E-01
          2   -1    0    0  501    0  0.00000000000E+00  0.00000000000E+00  0.20229636906E+04  0.20229636906E+04  0.00000000000E+00 0. -1.
         -2   -1    0    0    0  501 -0.00000000000E+00 -0.00000000000E+00 -0.65775817694E+03  0.65775817694E+03  0.00000000000E+00 0.  1.
         23    2    1    2    0    0 -0.86335797653E+03  0.37162197525E+03  0.27294129893E+03  0.98308778469E+03  0.92058414202E+02 0.  0.
        254    2    1    2    0    0  0.86335797653E+03 -0.37162197525E+03  0.10922642147E+04  0.16976340828E+04  0.89745778526E+03 0.  0.
        -24    2    4    4    0    0 -0.59469400481E+02 -0.18422292960E+03  0.59288207854E+03  0.62898664143E+03  0.81488273167E+02 0.  0.
         24    2    4    4    0    0  0.92282737701E+03 -0.18739904565E+03  0.49938213617E+03  0.10686474414E+04  0.76785845114E+02 0.  0.
         13    1    3    3    0    0 -0.40963601653E+03  0.16214935885E+03  0.17381469276E+03  0.47360915113E+03  0.00000000000E+00 0. -1.
        -13    1    3    3    0    0 -0.45372196000E+03  0.20947261639E+03  0.99126606166E+02  0.50947863356E+03  0.00000000000E+00 0.  1.
          4    1    6    6  502    0  0.61128887254E+03 -0.87031852626E+02  0.32245471543E+03  0.69658141848E+03  0.00000000000E+00 0. -1.
          1    1    5    5  503    0 -0.44355180965E+02 -0.17130332984E+03  0.43134349335E+03  0.46622893748E+03  0.00000000000E+00 0. -1.
         -2    1    5    5    0  503 -0.15114219516E+02 -0.12919599760E+02  0.16153858519E+03  0.16275770395E+03  0.00000000000E+00 0.  1.
         -3    1    6    6    0  502  0.31153850447E+03 -0.10036719302E+03  0.17692742074E+03  0.37206602292E+03  0.00000000000E+00 0.  1.
<mgrwt>
<rscale>  0 0.23070509E+04</rscale>
<asrwt>0</asrwt>
<pdfrwt beam="1">  1        2 0.31122518E+00 0.23070509E+04</pdfrwt>
<pdfrwt beam="2">  1       -2 0.10119357E+00 0.23070509E+04</pdfrwt>
<totfact> 0.47198819E+00</totfact>
</mgrwt>
</event>
<event>
12    1  0.1519630E-007  0.2387255E+04  0.7818608E-02  0.8444290E-01
         -1   -1    0    0    0  501 -0.00000000000E+00  0.00000000000E+00  0.11511483066E+04  0.11511483066E+04  0.00000000000E+00 0.  1.
          1   -1    0    0  501    0  0.00000000000E+00 -0.00000000000E+00 -0.12376744922E+04  0.12376744922E+04  0.00000000000E+00 0. -1.
         23    2    1    2    0    0  0.20916050184E+02 -0.11319984645E+03 -0.10490221520E+04  0.10605480913E+04  0.10518123506E+03 0.  0.
        254    2    1    2    0    0 -0.20916050184E+02  0.11319984645E+03  0.96249596642E+03  0.13282747075E+04  0.90810986494E+03 0.  0.
        -24    2    4    4    0    0  0.13742450227E+03 -0.28345138266E+03  0.63405621088E+02  0.32975540068E+03  0.74082193089E+02 0.  0.
         24    2    4    4    0    0 -0.15834055246E+03  0.39665122911E+03  0.89909034533E+03  0.99851930682E+03  0.79204980382E+02 0.  0.
         13    1    3    3    0    0  0.28710119614E+02 -0.43094952622E+02 -0.80151581164E+03  0.80318680406E+03  0.00000000000E+00 0. -1.
        -13    1    3    3    0    0 -0.77940694299E+01 -0.70104893827E+02 -0.24750634035E+03  0.25736128724E+03  0.00000000000E+00 0.  1.
          4    1    6    6  502    0 -0.22135265019E+02  0.27397549243E+02  0.12849198327E+03  0.13323207356E+03  0.00000000000E+00 0. -1.
          3    1    5    5  503    0  0.11497830639E+03 -0.15631386282E+03  0.29522878729E+02  0.19627948191E+03  0.00000000000E+00 0. -1.
         -4    1    5    5    0  503  0.22446195880E+02 -0.12713751984E+03  0.33882742358E+02  0.13347591877E+03  0.00000000000E+00 0.  1.
         -3    1    6    6    0  502 -0.13620528744E+03  0.36925367987E+03  0.77059836206E+03  0.86528723326E+03  0.00000000000E+00 0.  1.
<mgrwt>
<rscale>  0 0.23872552E+04</rscale>
<asrwt>0</asrwt>
<pdfrwt beam="1">  1        1 0.19041146E+00 0.23872552E+04</pdfrwt>
<pdfrwt beam="2">  1       -1 0.17709974E+00 0.23872552E+04</pdfrwt>
<totfact> 0.19653261E+00</totfact>
</mgrwt>
</event>
<event>
12    1  0.1519630E-007  0.1167189E+04  0.7818608E-02  0.9142071E-01
         -2   -1    0    0    0  501 -0.00000000000E+00  0.00000000000E+00  0.12622758433E+03  0.12622758433E+03  0.00000000000E+00 0. -1.
          2   -1    0    0  501    0  0.00000000000E+00 -0.00000000000E+00 -0.26981616721E+04  0.26981616721E+04  0.00000000000E+00 0.  1.
         23    2    1    2    0    0 -0.20848972953E+03  0.35800725169E+02 -0.30473930221E+03  0.38094743286E+03  0.86632817394E+02 0.  0.
        254    2    1    2    0    0  0.20848972953E+03 -0.35800725169E+02 -0.22671947856E+04  0.24434418236E+04  0.88627653151E+03 0.  0.
        -24    2    4    4    0    0 -0.11499550614E+03  0.19120735203E+03 -0.18417830425E+04  0.18570122467E+04  0.80904207583E+02 0.  0.
         24    2    4    4    0    0  0.32348523567E+03 -0.22700807720E+03 -0.42541174306E+03  0.58642957689E+03  0.82153105303E+02 0.  0.
         11    1    3    3    0    0 -0.57849628603E+02  0.50562269521E+02 -0.92132047389E+02  0.11996431463E+03  0.00000000000E+00 0. -1.
        -11    1    3    3    0    0 -0.15064010092E+03 -0.14761544352E+02 -0.21260725482E+03  0.26098311823E+03  0.00000000000E+00 0.  1.
          4    1    6    6  502    0  0.32302358627E+03 -0.23086999002E+03 -0.42617156636E+03  0.58246664588E+03  0.00000000000E+00 0. -1.
          3    1    5    5  503    0 -0.63208894618E+02  0.12633456077E+03 -0.83995892988E+03  0.85175512296E+03  0.00000000000E+00 0. -1.
         -4    1    5    5    0  503 -0.51786611521E+02  0.64872791267E+02 -0.10018241126E+04  0.10052571237E+04  0.00000000000E+00 0.  1.
         -1    1    6    6    0  502  0.46164939374E+00  0.38619128179E+01  0.75982330552E+00  0.39629310152E+01  0.00000000000E+00 0.  1.
<mgrwt>
<rscale>  0 0.11671888E+04</rscale>
<asrwt>0</asrwt>
<pdfrwt beam="1">  1        2 0.41510179E+00 0.11671888E+04</pdfrwt>
<pdfrwt beam="2">  1       -2 0.19419629E-01 0.11671888E+04</pdfrwt>
<totfact> 0.59859845E+01</totfact>
</mgrwt>
</event>
<event>
12    1  0.1519630E-007  0.1592375E+04  0.7818608E-02  0.8825246E-01
          2   -1    0    0  501    0  0.00000000000E+00  0.00000000000E+00  0.10320281639E+04  0.10320281639E+04  0.00000000000E+00 0. -1.
         -2   -1    0    0    0  501 -0.00000000000E+00 -0.00000000000E+00 -0.61424135978E+03  0.61424135978E+03  0.00000000000E+00 0.  1.
         23    2    1    2    0    0 -0.41158715359E+03  0.20273607034E+03 -0.15647642771E+03  0.49292459034E+03  0.89352560754E+02 0.  0.
        254    2    1    2    0    0  0.41158715359E+03 -0.20273607034E+03  0.57426323185E+03  0.11533449333E+04  0.88877464895E+03 0.  0.
        -24    2    4    4    0    0  0.52180032206E+03 -0.44496566245E+03  0.26997600624E+03  0.74100459612E+03  0.77011367118E+02 0.  0.
         24    2    4    4    0    0 -0.11021316846E+03  0.24222959211E+03  0.30428722561E+03  0.41234033723E+03  0.81312485149E+02 0.  0.
         11    1    3    3    0    0 -0.49030347737E+02  0.55432826465E+02 -0.82853895060E+01  0.74467583070E+02  0.00000000000E+00 0. -1.
        -11    1    3    3    0    0 -0.36255680586E+03  0.14730324387E+03 -0.14819103821E+03  0.41845700727E+03  0.00000000000E+00 0.  1.
          2    1    6    6  502    0 -0.77130904956E+02  0.12726869635E+03  0.22154429162E+03  0.26688643787E+03  0.00000000000E+00 0. -1.
          1    1    5    5  503    0  0.27693492290E+03 -0.19726322903E+03  0.10692106673E+03  0.35642369107E+03  0.00000000000E+00 0. -1.
         -2    1    5    5    0  503  0.24486539916E+03 -0.24770243342E+03  0.16305493950E+03  0.38458090504E+03  0.00000000000E+00 0.  1.
         -1    1    6    6    0  502 -0.33082263507E+02  0.11496089577E+03  0.82742933985E+02  0.14545389936E+03  0.00000000000E+00 0.  1.
<mgrwt>
<rscale>  0 0.15923748E+04</rscale>
<asrwt>0</asrwt>
<pdfrwt beam="1">  1        2 0.15877356E+00 0.15923748E+04</pdfrwt>
<pdfrwt beam="2">  1       -2 0.94498671E-01 0.15923748E+04</pdfrwt>
<totfact> 0.21759868E+01</totfact>
</mgrwt>
</event>
<event>
12    1  0.1519630E-007  0.1513979E+04  0.7818608E-02  0.8875210E-01
          4   -1    0    0  501    0  0.00000000000E+00  0.00000000000E+00  0.29999670263E+03  0.29999670263E+03  0.00000000000E+00 0.  1.
         -4   -1    0    0    0  501 -0.00000000000E+00 -0.00000000000E+00 -0.19101323581E+04  0.19101323581E+04  0.00000000000E+00 0. -1.
         23    2    1    2    0    0 -0.85770059587E+02 -0.29532420074E+03 -0.10857247503E+04  0.11321073551E+04  0.91082069456E+02 0.  0.
        254    2    1    2    0    0  0.85770059587E+02  0.29532420074E+03 -0.52441090513E+03  0.10780217056E+04  0.89025339857E+03 0.  0.
        -24    2    4    4    0    0 -0.26242082660E+03 -0.14068821085E+03 -0.50039491420E+00  0.30836427184E+03  0.80189842559E+02 0.  0.
         24    2    4    4    0    0  0.34819088618E+03  0.43601241158E+03 -0.52391051022E+03  0.76965743376E+03  0.80911225153E+02 0.  0.
         13    1    3    3    0    0 -0.69197175957E+02 -0.26712713525E+03 -0.83874316043E+03  0.88296956047E+03  0.00000000000E+00 0.  1.
        -13    1    3    3    0    0 -0.16572883630E+02 -0.28197065484E+02 -0.24698158990E+03  0.24913779465E+03  0.00000000000E+00 0. -1.
          2    1    6    6  502    0  0.31603237632E+03  0.42505642156E+03 -0.49675609431E+03  0.72616529910E+03  0.00000000000E+00 0. -1.
          3    1    5    5  503    0 -0.15675734642E+03 -0.68948925435E+02 -0.37679629044E+02  0.17534701144E+03  0.00000000000E+00 0. -1.
         -4    1    5    5    0  503 -0.10566348017E+03 -0.71739285411E+02  0.37179234130E+02  0.13301726040E+03  0.00000000000E+00 0.  1.
         -1    1    6    6    0  502  0.32158509857E+02  0.10955990024E+02 -0.27154415914E+02  0.43492134660E+02  0.00000000000E+00 0.  1.
<mgrwt>
<rscale>  0 0.15139794E+04</rscale>
<asrwt>0</asrwt>
<pdfrwt beam="1">  1        4 0.46153338E-01 0.15139794E+04</pdfrwt>
<pdfrwt beam="2">  1       -4 0.29386652E+00 0.15139794E+04</pdfrwt>
<totfact> 0.29839247E-01</totfact>
</mgrwt>
</event>
<event>
12    1  0.1519630E-007  0.1590035E+04  0.7818608E-02  0.8826693E-01
          1   -1    0    0  501    0  0.00000000000E+00  0.00000000000E+00  0.17039233857E+04  0.17039233857E+04  0.00000000000E+00 0. -1.
         -1   -1    0    0    0  501 -0.00000000000E+00 -0.00000000000E+00 -0.37093968604E+03  0.37093968604E+03  0.00000000000E+00 0.  1.
         23    2    1    2    0    0 -0.45302251927E+03 -0.25618832301E+03  0.64669408269E+03  0.83516321034E+03  0.91774133023E+02 0.  0.
        254    2    1    2    0    0  0.45302251927E+03  0.25618832301E+03  0.68628961695E+03  0.12396998614E+04  0.89162797632E+03 0.  0.
        -24    2    4    4    0    0  0.46370129092E+03 -0.97938222507E+02  0.72882191305E+03  0.87297053992E+03  0.79280514609E+02 0.  0.
         24    2    4    4    0    0 -0.10678771643E+02  0.35412654552E+03 -0.42532296099E+02  0.36672932147E+03  0.84627138710E+02 0.  0.
         11    1    3    3    0    0 -0.37223519982E+03 -0.20733087988E+03  0.57949931232E+03  0.71928060638E+03  0.00000000000E+00 0.  1.
        -11    1    3    3    0    0 -0.80787319454E+02 -0.48857443137E+02  0.67194770377E+02  0.11588260396E+03  0.00000000000E+00 0. -1.
          2    1    6    6  502    0 -0.34440301454E+02  0.65046926060E+02 -0.17098156512E+02  0.75561788691E+02  0.00000000000E+00 0. -1.
          1    1    5    5  503    0  0.31582970648E+03 -0.36868188895E+02  0.44112536782E+03  0.54378236178E+03  0.00000000000E+00 0. -1.
         -2    1    5    5    0  503  0.14787158444E+03 -0.61070033612E+02  0.28769654523E+03  0.32918817814E+03  0.00000000000E+00 0.  1.
         -3    1    6    6    0  502  0.23761529811E+02  0.28907961946E+03 -0.25434139587E+02  0.29116753277E+03  0.00000000000E+00 0.  1.
<mgrwt>
<rscale>  0 0.15900350E+04</rscale>
<asrwt>0</asrwt>
<pdfrwt beam="1">  1        1 0.26214206E+00 0.15900350E+04</pdfrwt>
<pdfrwt beam="2">  1       -1 0.57067645E-01 0.15900350E+04</pdfrwt>
<totfact> 0.14142135E+01</totfact>
</mgrwt>
</event>
<event>
12    1  0.1519630E-007  0.1297427E+04  0.7818608E-02  0.9031608E-01
         -1   -1    0    0    0  501 -0.00000000000E+00  0.00000000000E+00  0.73510799985E+03  0.73510799985E+03  0.00000000000E+00 0.  1.
          1   -1    0    0  501    0  0.00000000000E+00 -0.00000000000E+00 -0.57247276523E+03  0.57247276523E+03  0.00000000000E+00 0. -1.
         23    2    1    2    0    0 -0.52516846112E+02 -0.28448609005E+03  0.18894073524E+03  0.35504783582E+03  0.81670127528E+02 0.  0.
        254    2    1    2    0    0  0.52516846112E+02  0.28448609005E+03 -0.26305500618E+02  0.95253292927E+03  0.90715855693E+03 0.  0.
        -24    2    4    4    0    0 -0.20142472157E+03  0.15222857360E+02 -0.37798693730E+03  0.43597990206E+03  0.80004352279E+02 0.  0.
         24    2    4    4    0    0  0.25394156768E+03  0.26926323269E+03  0.35168143668E+03  0.51655302721E+03  0.78474127863E+02 0.  0.
         11    1    3    3    0    0 -0.17381507445E+02 -0.21428021419E+03  0.10215130398E+03  0.23801894021E+03  0.00000000000E+00 0.  1.
        -11    1    3    3    0    0 -0.35135338667E+02 -0.70205875853E+02  0.86789431263E+02  0.11702889560E+03  0.00000000000E+00 0. -1.
          4    1    6    6  502    0  0.23999416257E+03  0.23517519340E+03  0.28599586074E+03  0.44124619207E+03  0.00000000000E+00 0. -1.
          1    1    5    5  503    0 -0.20049951717E+03  0.29623263653E+00 -0.33443697589E+03  0.38993362895E+03  0.00000000000E+00 0. -1.
         -2    1    5    5    0  503 -0.92520439761E+00  0.14926624724E+02 -0.43549961407E+02  0.46046273110E+02  0.00000000000E+00 0.  1.
         -1    1    6    6    0  502  0.13947405105E+02  0.34088039286E+02  0.65685575944E+02  0.75306835139E+02  0.00000000000E+00 0.  1.
<mgrwt>
<rscale>  0 0.12974272E+04</rscale>
<asrwt>0</asrwt>
<pdfrwt beam="1">  1        1 0.88072732E-01 0.12974272E+04</pdfrwt>
<pdfrwt beam="2">  1       -1 0.11309354E+00 0.12974272E+04</pdfrwt>
<totfact> 0.25738930E+01</totfact>
</mgrwt>
</event>
<event>
12    1  0.1519630E-007  0.2422064E+04  0.7818608E-02  0.8431289E-01
          1   -1    0    0  501    0  0.00000000000E+00  0.00000000000E+00  0.20935758891E+04  0.20935758891E+04  0.00000000000E+00 0. -1.
         -1   -1    0    0    0  501 -0.00000000000E+00 -0.00000000000E+00 -0.70052320302E+03  0.70052320302E+03  0.00000000000E+00 0.  1.
         23    2    1    2    0    0 -0.54587003590E+02 -0.60619303232E+03 -0.37416796154E+03  0.72020923181E+03  0.90829184484E+02 0.  0.
        254    2    1    2    0    0  0.54587003590E+02  0.60619303232E+03  0.17672206476E+04  0.20738898603E+04  0.89861037270E+03 0.  0.
        -24    2    4    4    0    0  0.14406590860E+03 -0.14900371160E+03  0.85488268990E+03  0.88331243268E+03  0.80370069976E+02 0.  0.
         24    2    4    4    0    0 -0.89478905010E+02  0.75519674392E+03  0.91233795769E+03  0.11905774276E+04  0.82373937575E+02 0.  0.
         11    1    3    3    0    0 -0.13102380077E+02 -0.21304656046E+03 -0.18266168903E+03  0.28093736300E+03  0.00000000000E+00 0. -1.
        -11    1    3    3    0    0 -0.41484623513E+02 -0.39314647186E+03 -0.19150627250E+03  0.43927186882E+03  0.00000000000E+00 0.  1.
          4    1    6    6  502    0 -0.63239318900E+01  0.11776734513E+03  0.18994738485E+03  0.22358253220E+03  0.00000000000E+00 0. -1.
          1    1    5    5  503    0  0.18296912225E+02 -0.47613637000E+01  0.20413039549E+03  0.20500406324E+03  0.00000000000E+00 0. -1.
         -2    1    5    5    0  503  0.12576899638E+03 -0.14424234790E+03  0.65075229441E+03  0.67830836945E+03  0.00000000000E+00 0.  1.
         -3    1    6    6    0  502 -0.83154973120E+02  0.63742939879E+03  0.72239057285E+03  0.96699489541E+03  0.00000000000E+00 0.  1.
<mgrwt>
<rscale>  0 0.24220640E+04</rscale>
<asrwt>0</asrwt>
<pdfrwt beam="1">  1        1 0.32208860E+00 0.24220640E+04</pdfrwt>
<pdfrwt beam="2">  1       -1 0.10777280E+00 0.24220640E+04</pdfrwt>
<totfact> 0.18436571E+00</totfact>
</mgrwt>
</event>
<event>
12    1  0.1519630E-007  0.1426570E+04  0.7818608E-02  0.8934807E-01
          1   -1    0    0  501    0  0.00000000000E+00  0.00000000000E+00  0.86459740402E+03  0.86459740402E+03  0.00000000000E+00 0. -1.
         -1   -1    0    0    0  501 -0.00000000000E+00 -0.00000000000E+00 -0.58845397802E+03  0.58845397802E+03  0.00000000000E+00 0.  1.
         23    2    1    2    0    0  0.27103288753E+03 -0.24984606505E+03  0.28805790991E+03  0.47811944497E+03  0.98686178622E+02 0.  0.
        254    2    1    2    0    0 -0.27103288753E+03  0.24984606505E+03 -0.11914483910E+02  0.97493193707E+03  0.90247905497E+03 0.  0.
        -24    2    4    4    0    0  0.18903267111E+03  0.30561702324E+03 -0.25265576947E+03  0.44661233335E+03  0.80576192603E+02 0.  0.
         24    2    4    4    0    0 -0.46006555864E+03 -0.55770958195E+02  0.24074128556E+03  0.52831960372E+03  0.79965736882E+02 0.  0.
         13    1    3    3    0    0  0.89185475285E+02 -0.95111564510E+02  0.16252167473E+03  0.20835919337E+03  0.00000000000E+00 0. -1.
        -13    1    3    3    0    0  0.18184741225E+03 -0.15473450054E+03  0.12553623518E+03  0.26976025159E+03  0.00000000000E+00 0.  1.
          2    1    6    6  502    0 -0.20572043873E+02  0.99503551180E+01  0.26495462400E+02  0.34988970889E+02  0.00000000000E+00 0. -1.
          1    1    5    5  503    0  0.44303738746E+02  0.32215246577E+02 -0.64153025193E+02  0.84357892460E+02  0.00000000000E+00 0. -1.
         -2    1    5    5    0  503  0.14472893236E+03  0.27340177667E+03 -0.18850274428E+03  0.36225444089E+03  0.00000000000E+00 0.  1.
         -1    1    6    6    0  502 -0.43949351477E+03 -0.65721313313E+02  0.21424582316E+03  0.49333063283E+03  0.00000000000E+00 0.  1.
<mgrwt>
<rscale>  0 0.14265704E+04</rscale>
<asrwt>0</asrwt>
<pdfrwt beam="1">  1        1 0.13301499E+00 0.14265704E+04</pdfrwt>
<pdfrwt beam="2">  1       -1 0.90531381E-01 0.14265704E+04</pdfrwt>
<totfact> 0.22595711E+01</totfact>
</mgrwt>
</event>
<event>
12    1  0.1519630E-007  0.1736697E+04  0.7818608E-02  0.8740707E-01
         -2   -1    0    0    0  501 -0.00000000000E+00  0.00000000000E+00  0.65862898622E+03  0.65862898622E+03  0.00000000000E+00 0.  1.
          2   -1    0    0  501    0  0.00000000000E+00 -0.00000000000E+00 -0.11448468680E+04  0.11448468680E+04  0.00000000000E+00 0. -1.
         23    2    1    2    0    0  0.46116655599E+03 -0.74207539092E+02  0.25999414770E+03  0.54137308375E+03  0.85478112684E+02 0.  0.
        254    2    1    2    0    0 -0.46116655599E+03  0.74207539092E+02 -0.74621202951E+03  0.12621027705E+04  0.90437252232E+03 0.  0.
        -24    2    4    4    0    0 -0.30671318422E+03  0.44968021751E+03 -0.22024608847E+03  0.59256721027E+03  0.79638456869E+02 0.  0.
         24    2    4    4    0    0 -0.15445337177E+03 -0.37547267842E+03 -0.52596594103E+03  0.66953556023E+03  0.82474959872E+02 0.  0.
         13    1    3    3    0    0  0.29862866632E+03 -0.69795838550E+02  0.20840565971E+03  0.37078761903E+03  0.00000000000E+00 0. -1.
        -13    1    3    3    0    0  0.16253788967E+03 -0.44117005421E+01  0.51588487987E+02  0.17058546472E+03  0.00000000000E+00 0.  1.
          4    1    6    6  502    0 -0.94672627254E+02 -0.21272961016E+03 -0.23491974656E+03  0.33076287687E+03  0.00000000000E+00 0. -1.
          1    1    5    5  503    0 -0.23256269841E+03  0.39049134221E+03 -0.19364578444E+03  0.49403196948E+03  0.00000000000E+00 0. -1.
         -2    1    5    5    0  503 -0.74150485804E+02  0.59188875298E+02 -0.26600304031E+02  0.98535240795E+02  0.00000000000E+00 0.  1.
         -3    1    6    6    0  502 -0.59780744518E+02 -0.16274306826E+03 -0.29104619447E+03  0.33877268337E+03  0.00000000000E+00 0.  1.
<mgrwt>
<rscale>  0 0.17366972E+04</rscale>
<asrwt>0</asrwt>
<pdfrwt beam="1">  1        2 0.17613029E+00 0.17366972E+04</pdfrwt>
<pdfrwt beam="2">  1       -2 0.10132754E+00 0.17366972E+04</pdfrwt>
<totfact> 0.15534261E+01</totfact>
</mgrwt>
</event>
<event>
12    1  0.1519630E-007  0.2321421E+04  0.7818608E-02  0.8469523E-01
         -2   -1    0    0    0  501 -0.00000000000E+00  0.00000000000E+00  0.16057103158E+04  0.16057103158E+04  0.00000000000E+00 0.  1.
          2   -1    0    0  501    0  0.00000000000E+00 -0.00000000000E+00 -0.83903606250E+03  0.83903606250E+03  0.00000000000E+00 0. -1.
         23    2    1    2    0    0  0.55964790224E+03 -0.77628605475E+03  0.56780501864E+03  0.11170264637E+04  0.97569298558E+02 0.  0.
        254    2    1    2    0    0 -0.55964790224E+03  0.77628605475E+03  0.19886923468E+03  0.13277199147E+04  0.89859077782E+03 0.  0.
        -24    2    4    4    0    0  0.43948112992E+01  0.53537609988E+03  0.40511191859E+03  0.67584081157E+03  0.77448391262E+02 0.  0.
         24    2    4    4    0    0 -0.56404271354E+03  0.24090995487E+03 -0.20624268392E+03  0.65187910308E+03  0.78921044806E+02 0.  0.
         11    1    3    3    0    0  0.47872394864E+02 -0.52741459685E+02  0.73067731752E+02  0.10204078196E+03  0.00000000000E+00 0.  1.
        -11    1    3    3    0    0  0.51177550738E+03 -0.72354459507E+03  0.49473728689E+03  0.10149856817E+04  0.00000000000E+00 0. -1.
          4    1    6    6  502    0 -0.36001531599E+03  0.18410140071E+03 -0.10873024645E+03  0.41872021683E+03  0.00000000000E+00 0. -1.
          1    1    5    5  503    0  0.34701697561E+02  0.42112651985E+03  0.30865039833E+03  0.52327509202E+03  0.00000000000E+00 0. -1.
         -2    1    5    5    0  503 -0.30306886262E+02  0.11424958003E+03  0.96461520261E+02  0.15256571955E+03  0.00000000000E+00 0.  1.
         -3    1    6    6    0  502 -0.20402739755E+03  0.56808554156E+02 -0.97512437462E+02  0.23315888625E+03  0.00000000000E+00 0.  1.
<mgrwt>
<rscale>  0 0.23214210E+04</rscale>
<asrwt>0</asrwt>
<pdfrwt beam="1">  1        2 0.12908247E+00 0.23214210E+04</pdfrwt>
<pdfrwt beam="2">  1       -2 0.24703236E+00 0.23214210E+04</pdfrwt>
<totfact> 0.19592870E+00</totfact>
</mgrwt>
</event>
<event>
12    1  0.1519630E-007  0.1362584E+04  0.7818608E-02  0.8981356E-01
         -1   -1    0    0    0  501 -0.00000000000E+00  0.00000000000E+00  0.12918246437E+04  0.12918246437E+04  0.00000000000E+00 0.  1.
          1   -1    0    0  501    0  0.00000000000E+00 -0.00000000000E+00 -0.35930495035E+03  0.35930495035E+03  0.00000000000E+00 0. -1.
         23    2    1    2    0    0  0.23922706063E+03  0.78818760975E+00  0.62329146367E+03  0.67306672739E+03  0.85418751256E+02 0.  0.
        254    2    1    2    0    0 -0.23922706063E+03 -0.78818760975E+00  0.30922822971E+03  0.97806286670E+03  0.89652365579E+03 0.  0.
        -24    2    4    4    0    0 -0.42124750617E+03 -0.31522266539E+03  0.70854375895E+02  0.53683448030E+03  0.79725318644E+02 0.  0.
         24    2    4    4    0    0  0.18202044554E+03  0.31443447778E+03  0.23837385382E+03  0.44122838639E+03  0.76550057902E+02 0.  0.
         13    1    3    3    0    0  0.60636252311E+02 -0.32628859283E+02  0.22479467044E+03  0.23510432027E+03  0.00000000000E+00 0. -1.
        -13    1    3    3    0    0  0.17859080832E+03  0.33417046892E+02  0.39849679323E+03  0.43796240712E+03  0.00000000000E+00 0.  1.
          4    1    6    6  502    0  0.16937816078E+03  0.31576025760E+03  0.23308708762E+03  0.42746121700E+03  0.00000000000E+00 0. -1.
          3    1    5    5  503    0 -0.21017174315E+03 -0.10788755743E+03  0.33751486072E+02  0.23864419012E+03  0.00000000000E+00 0. -1.
         -4    1    5    5    0  503 -0.21107576302E+03 -0.20733510796E+03  0.37102889822E+02  0.29819029019E+03  0.00000000000E+00 0.  1.
         -3    1    6    6    0  502  0.12642284764E+02 -0.13257798200E+01  0.52867661969E+01  0.13767169390E+02  0.00000000000E+00 0.  1.
<mgrwt>
<rscale>  0 0.13625843E+04</rscale>
<asrwt>0</asrwt>
<pdfrwt beam="1">  1        1 0.55277685E-01 0.13625843E+04</pdfrwt>
<pdfrwt beam="2">  1       -1 0.19874225E+00 0.13625843E+04</pdfrwt>
<totfact> 0.10387271E+01</totfact>
</mgrwt>
</event>
<event>
12    1  0.1882283E-007  0.1733517E+04  0.7818608E-02  0.8742476E-01
          2   -1    0    0  501    0  0.00000000000E+00  0.00000000000E+00  0.10112080399E+04  0.10112080399E+04  0.00000000000E+00 0. -1.
         -2   -1    0    0    0  501 -0.00000000000E+00 -0.00000000000E+00 -0.74294356204E+03  0.74294356204E+03  0.00000000000E+00 0.  1.
         23    2    1    2    0    0 -0.26548519974E+03  0.25985374470E+03  0.61326279888E+03  0.72275042178E+03  0.90942574099E+02 0.  0.
        254    2    1    2    0    0  0.26548519974E+03 -0.25985374470E+03 -0.34499832105E+03  0.10314011801E+04  0.89819719045E+03 0.  0.
        -24    2    4    4    0    0  0.29686422073E+03  0.82657940022E+02  0.20423413517E+03  0.37823539902E+03  0.79935814892E+02 0.  0.
         24    2    4    4    0    0 -0.31379020992E+02 -0.34251168472E+03 -0.54923245622E+03  0.65316578111E+03  0.81672207772E+02 0.  0.
         13    1    3    3    0    0 -0.14890401871E+03  0.19141052402E+03  0.44618709153E+03  0.50783197629E+03  0.00000000000E+00 0. -1.
        -13    1    3    3    0    0 -0.11658118103E+03  0.68443220675E+02  0.16707570736E+03  0.21491844550E+03  0.00000000000E+00 0.  1.
          4    1    6    6  502    0 -0.45351514749E+02 -0.31051969907E+03 -0.45543600755E+03  0.55308335752E+03  0.00000000000E+00 0. -1.
          3    1    5    5  503    0  0.27678559215E+03  0.97270697589E+02  0.18517833445E+03  0.34693352128E+03  0.00000000000E+00 0. -1.
         -4    1    5    5    0  503  0.20078628576E+02 -0.14612757567E+02  0.19055800715E+02  0.31301877741E+02  0.00000000000E+00 0.  1.
         -3    1    6    6    0  502  0.13972493757E+02 -0.31991985651E+02 -0.93796448668E+02  0.10008242358E+03  0.00000000000E+00 0.  1.
<mgrwt>
<rscale>  0 0.17335172E+04</rscale>
<asrwt>0</asrwt>
<pdfrwt beam="1">  1        2 0.15557047E+00 0.17335172E+04</pdfrwt>
<pdfrwt beam="2">  1       -2 0.11429901E+00 0.17335172E+04</pdfrwt>
<totfact> 0.14074152E+01</totfact>
</mgrwt>
</event>
<event>
12    1  0.1519630E-007  0.1944288E+04  0.7818608E-02  0.8633120E-01
          1   -1    0    0  501    0  0.00000000000E+00  0.00000000000E+00  0.17603151110E+04  0.17603151110E+04  0.00000000000E+00 0. -1.
         -1   -1    0    0    0  501 -0.00000000000E+00 -0.00000000000E+00 -0.53687181805E+03  0.53687181805E+03  0.00000000000E+00 0.  1.
         23    2    1    2    0    0 -0.10778804213E+02 -0.47829791318E+02  0.13748560707E+04  0.13787563318E+04  0.91301345735E+02 0.  0.
        254    2    1    2    0    0  0.10778804213E+02  0.47829791318E+02 -0.15141277768E+03  0.91843059733E+03  0.90453582644E+03 0.  0.
        -24    2    4    4    0    0  0.12741404878E+03  0.35212930473E+03 -0.35931484188E+03  0.52378223384E+03  0.70790435899E+02 0.  0.
         24    2    4    4    0    0 -0.11663524456E+03 -0.30429951341E+03  0.20790206420E+03  0.39464836349E+03  0.79511561230E+02 0.  0.
         11    1    3    3    0    0  0.14797151288E+02 -0.23718494077E+02  0.12038837817E+04  0.12042083219E+04  0.00000000000E+00 0. -1.
        -11    1    3    3    0    0 -0.25575955501E+02 -0.24111297241E+02  0.17097228895E+03  0.17454800985E+03  0.00000000000E+00 0.  1.
          4    1    6    6  502    0 -0.28821903260E+02 -0.68784534409E+02  0.11067626648E+02  0.75395667256E+02  0.00000000000E+00 0. -1.
          1    1    5    5  503    0  0.11382171296E+03  0.31679812237E+03 -0.28787178349E+03  0.44292956145E+03  0.00000000000E+00 0. -1.
         -2    1    5    5    0  503  0.13592335816E+02  0.35331182363E+02 -0.71443058397E+02  0.80852672394E+02  0.00000000000E+00 0.  1.
         -3    1    6    6    0  502 -0.87813341303E+02 -0.23551497900E+03  0.19683443755E+03  0.31925269623E+03  0.00000000000E+00 0.  1.
<mgrwt>
<rscale>  0 0.19442876E+04</rscale>
<asrwt>0</asrwt>
<pdfrwt beam="1">  1        1 0.27081771E+00 0.19442876E+04</pdfrwt>
<pdfrwt beam="2">  1       -1 0.82595665E-01 0.19442876E+04</pdfrwt>
<totfact> 0.58860391E+00</totfact>
</mgrwt>
</event>
<event>
12    1  0.1519630E-007  0.1426784E+04  0.7818608E-02  0.8934656E-01
         -1   -1    0    0    0  501 -0.00000000000E+00  0.00000000000E+00  0.84007861631E+03  0.84007861631E+03  0.00000000000E+00 0.  1.
          1   -1    0    0  501    0  0.00000000000E+00 -0.00000000000E+00 -0.60581009023E+03  0.60581009023E+03  0.00000000000E+00 0. -1.
         23    2    1    2    0    0  0.41230507302E+02 -0.34768915701E+03  0.30421832184E+03  0.47729585295E+03  0.11258258866E+03 0.  0.
        254    2    1    2    0    0 -0.41230507302E+02  0.34768915701E+03 -0.69949795756E+02  0.96859285359E+03  0.90038404998E+03 0.  0.
        -24    2    4    4    0    0 -0.23496935433E+02 -0.21724639213E+03 -0.27658454108E+03  0.36153905793E+03  0.80395156434E+02 0.  0.
         24    2    4    4    0    0 -0.17733571869E+02  0.56493554914E+03  0.20663474532E+03  0.60705379566E+03  0.79685247019E+02 0.  0.
         13    1    3    3    0    0  0.31326286590E+02 -0.31547736038E+03  0.30965149876E+03  0.44316063886E+03  0.00000000000E+00 0.  1.
        -13    1    3    3    0    0  0.99042207117E+01 -0.32211796626E+02 -0.54331769252E+01  0.34135214095E+02  0.00000000000E+00 0. -1.
          4    1    6    6  502    0 -0.47158803811E-01 -0.26037330663E+01 -0.47393792267E+00  0.26469353955E+01  0.00000000000E+00 0. -1.
          3    1    5    5  503    0  0.36939861914E+01  0.60335845050E+01 -0.39778359116E+01  0.81162093677E+01  0.00000000000E+00 0. -1.
         -4    1    5    5    0  503 -0.27190921625E+02 -0.22327997664E+03 -0.27260670517E+03  0.35342284857E+03  0.00000000000E+00 0.  1.
         -3    1    6    6    0  502 -0.17686413065E+02  0.56753928221E+03  0.20710868325E+03  0.60440686026E+03  0.00000000000E+00 0.  1.
<mgrwt>
<rscale>  0 0.14267839E+04</rscale>
<asrwt>0</asrwt>
<pdfrwt beam="1">  1        1 0.93201552E-01 0.14267839E+04</pdfrwt>
<pdfrwt beam="2">  1       -1 0.12924286E+00 0.14267839E+04</pdfrwt>
<totfact> 0.16918087E+01</totfact>
</mgrwt>
</event>
<event>
12    1  0.1519630E-007  0.1869842E+04  0.7818608E-02  0.8670015E-01
          2   -1    0    0  501    0  0.00000000000E+00  0.00000000000E+00  0.12269640963E+04  0.12269640963E+04  0.00000000000E+00 0. -1.
         -2   -1    0    0    0  501 -0.00000000000E+00 -0.00000000000E+00 -0.71239022418E+03  0.71239022418E+03  0.00000000000E+00 0.  1.
         23    2    1    2    0    0 -0.15163555976E+03 -0.53892602456E+03  0.66900200609E+03  0.87723896940E+03  0.92465790128E+02 0.  0.
        254    2    1    2    0    0  0.15163555976E+03  0.53892602456E+03 -0.15442813394E+03  0.10621153511E+04  0.88927294324E+03 0.  0.
        -24    2    4    4    0    0 -0.34495773934E+03  0.35907615230E+03  0.59715997996E+01  0.50433478345E+03  0.79914884175E+02 0.  0.
         24    2    4    4    0    0  0.49659329910E+03  0.17984987227E+03 -0.16039973374E+03  0.55778056766E+03  0.80250892869E+02 0.  0.
         13    1    3    3    0    0 -0.35145054692E+02 -0.11591282111E+03  0.20885429009E+03  0.24143543953E+03  0.00000000000E+00 0.  1.
        -13    1    3    3    0    0 -0.11649050507E+03 -0.42301320345E+03  0.46014771599E+03  0.63580352987E+03  0.00000000000E+00 0. -1.
          2    1    6    6  502    0  0.17481237184E+03  0.61740147269E+02 -0.16835125958E+02  0.18615754779E+03  0.00000000000E+00 0. -1.
          3    1    5    5  503    0 -0.33096589259E+03  0.34477869961E+03 -0.11075705112E+02  0.47805171792E+03  0.00000000000E+00 0. -1.
         -4    1    5    5    0  503 -0.13991846754E+02  0.14297452685E+02  0.17047304912E+02  0.26283065529E+02  0.00000000000E+00 0.  1.
         -1    1    6    6    0  502  0.32178092726E+03  0.11810972500E+03 -0.14356460778E+03  0.37162301987E+03  0.00000000000E+00 0.  1.
<mgrwt>
<rscale>  0 0.18698419E+04</rscale>
<asrwt>0</asrwt>
<pdfrwt beam="1">  1        2 0.18876371E+00 0.18698419E+04</pdfrwt>
<pdfrwt beam="2">  1       -2 0.10959850E+00 0.18698419E+04</pdfrwt>
<totfact> 0.11360703E+01</totfact>
</mgrwt>
</event>
<event>
12    1  0.1519630E-007  0.1639785E+04  0.7818608E-02  0.8796473E-01
          1   -1    0    0  501    0  0.00000000000E+00  0.00000000000E+00  0.30802882700E+04  0.30802882700E+04  0.00000000000E+00 0. -1.
         -1   -1    0    0    0  501 -0.00000000000E+00 -0.00000000000E+00 -0.21823391302E+03  0.21823391302E+03  0.00000000000E+00 0.  1.
         23    2    1    2    0    0  0.21321854440E+02 -0.34023366922E+03  0.13663234273E+03  0.37588120746E+03  0.80029456393E+02 0.  0.
        254    2    1    2    0    0 -0.21321854440E+02  0.34023366922E+03  0.27254220143E+04  0.29226409756E+04  0.99884510570E+03 0.  0.
        -24    2    4    4    0    0  0.13653466136E+03  0.66470964345E+03  0.18735147411E+04  0.19942834822E+04  0.81415589509E+02 0.  0.
         24    2    4    4    0    0 -0.15785651580E+03 -0.32447597423E+03  0.85190727316E+03  0.92835749343E+03  0.76800365311E+02 0.  0.
         13    1    3    3    0    0 -0.59582342113E+00 -0.25796180592E+03  0.13402150986E+03  0.29069986829E+03  0.00000000000E+00 0.  1.
        -13    1    3    3    0    0  0.21917677861E+02 -0.82271863295E+02  0.26108328701E+01  0.85181339160E+02  0.00000000000E+00 0. -1.
          4    1    6    6  502    0 -0.15236604312E+03 -0.26621176659E+03  0.66139598834E+03  0.72906019584E+03  0.00000000000E+00 0. -1.
          1    1    5    5  503    0  0.14076068950E+03  0.56510255462E+03  0.16419369281E+04  0.17421570953E+04  0.00000000000E+00 0. -1.
         -2    1    5    5    0  503 -0.42260281433E+01  0.99607088826E+02  0.23157781306E+03  0.25212638688E+03  0.00000000000E+00 0.  1.
         -3    1    6    6    0  502 -0.54904726722E+01 -0.58264207638E+02  0.19051128482E+03  0.19929729759E+03  0.00000000000E+00 0.  1.
<mgrwt>
<rscale>  0 0.16397846E+04</rscale>
<asrwt>0</asrwt>
<pdfrwt beam="1">  1        1 0.47389047E+00 0.16397846E+04</pdfrwt>
<pdfrwt beam="2">  1       -1 0.33574450E-01 0.16397846E+04</pdfrwt>
<totfact> 0.41939918E+00</totfact>
</mgrwt>
</event>
<event>
12    1  0.1519630E-007  0.1099182E+04  0.7818608E-02  0.9205989E-01
         -1   -1    0    0    0  501 -0.00000000000E+00  0.00000000000E+00  0.61476095217E+03  0.61476095217E+03  0.00000000000E+00 0.  1.
          1   -1    0    0  501    0  0.00000000000E+00 -0.00000000000E+00 -0.49132997829E+03  0.49132997829E+03  0.00000000000E+00 0. -1.
         23    2    1    2    0    0  0.90490605942E+01  0.39801549019E+02  0.18573809818E+03  0.20881897467E+03  0.86259343060E+02 0.  0.
        254    2    1    2    0    0 -0.90490605942E+01 -0.39801549019E+02 -0.62307124311E+02  0.89727195579E+03  0.89417489123E+03 0.  0.
        -24    2    4    4    0    0 -0.42536072906E+03 -0.13934367419E+03 -0.79873683616E+02  0.46142029843E+03  0.78616010522E+02 0.  0.
         24    2    4    4    0    0  0.41631166847E+03  0.99542125167E+02  0.17566559305E+02  0.43585165735E+03  0.80212487967E+02 0.  0.
         11    1    3    3    0    0 -0.24872539023E+02  0.52589311071E+02  0.99287505678E+02  0.11507513902E+03  0.00000000000E+00 0. -1.
        -11    1    3    3    0    0  0.33921599617E+02 -0.12787762052E+02  0.86450592505E+02  0.93743835655E+02  0.00000000000E+00 0.  1.
          4    1    6    6  502    0  0.14706652658E+03  0.66595087796E+02 -0.17301601772E+02  0.16236629694E+03  0.00000000000E+00 0. -1.
          3    1    5    5  503    0 -0.83093617148E+02 -0.49855107624E+02 -0.42045906990E+02  0.10563114721E+03  0.00000000000E+00 0. -1.
         -4    1    5    5    0  503 -0.34226711191E+03 -0.89488566562E+02 -0.37827776626E+02  0.35578915122E+03  0.00000000000E+00 0.  1.
         -3    1    6    6    0  502  0.26924514189E+03  0.32947037371E+02  0.34868161077E+02  0.27348536041E+03  0.00000000000E+00 0.  1.
<mgrwt>
<rscale>  0 0.10991824E+04</rscale>
<asrwt>0</asrwt>
<pdfrwt beam="1">  1        1 0.75589228E-01 0.10991824E+04</pdfrwt>
<pdfrwt beam="2">  1       -1 0.94578608E-01 0.10991824E+04</pdfrwt>
<totfact> 0.48966483E+01</totfact>
</mgrwt>
</event>
<event>
12    1  0.1519630E-007  0.1526141E+04  0.7818608E-02  0.8867253E-01
         -1   -1    0    0    0  501 -0.00000000000E+00  0.00000000000E+00  0.11663529525E+04  0.11663529525E+04  0.00000000000E+00 0.  1.
          1   -1    0    0  501    0  0.00000000000E+00 -0.00000000000E+00 -0.49922863259E+03  0.49922863259E+03  0.00000000000E+00 0. -1.
         23    2    1    2    0    0 -0.21481071440E+03  0.32122020515E+03  0.54976758648E+03  0.67823484761E+03  0.91826173558E+02 0.  0.
        254    2    1    2    0    0  0.21481071440E+03 -0.32122020515E+03  0.11735673348E+03  0.98734673753E+03  0.90097442472E+03 0.  0.
        -24    2    4    4    0    0  0.30558314224E+03 -0.50182153155E+03 -0.18014709328E+03  0.61963081039E+03  0.79268276235E+02 0.  0.
         24    2    4    4    0    0 -0.90772427841E+02  0.18060132640E+03  0.29750382676E+03  0.36771592714E+03  0.76485314812E+02 0.  0.
         11    1    3    3    0    0 -0.12489724163E+02  0.72951530043E+02  0.73569425028E+02  0.10435697985E+03  0.00000000000E+00 0. -1.
        -11    1    3    3    0    0 -0.20232099023E+03  0.24826867511E+03  0.47619816145E+03  0.57387786776E+03  0.00000000000E+00 0.  1.
          4    1    6    6  502    0 -0.75443692452E-01 -0.47387679523E+01  0.27440109419E+02  0.27846386092E+02  0.00000000000E+00 0. -1.
          3    1    5    5  503    0  0.54971434613E+02 -0.13129802017E+03 -0.71579726379E+02  0.15932572282E+03  0.00000000000E+00 0. -1.
         -4    1    5    5    0  503  0.25061170762E+03 -0.37052351139E+03 -0.10856736691E+03  0.46030508757E+03  0.00000000000E+00 0.  1.
         -1    1    6    6    0  502 -0.90696984148E+02  0.18534009435E+03  0.27006371734E+03  0.33986954105E+03  0.00000000000E+00 0.  1.
<mgrwt>
<rscale>  0 0.15261413E+04</rscale>
<asrwt>0</asrwt>
<pdfrwt beam="1">  1        1 0.76804406E-01 0.15261413E+04</pdfrwt>
<pdfrwt beam="2">  1       -1 0.17943891E+00 0.15261413E+04</pdfrwt>
<totfact> 0.90049674E+00</totfact>
</mgrwt>
</event>
<event>
12    1  0.1519630E-007  0.1439478E+04  0.7818608E-02  0.8925728E-01
          2   -1    0    0  501    0  0.00000000000E+00  0.00000000000E+00  0.94003942871E+03  0.94003942871E+03  0.00000000000E+00 0. -1.
         -2   -1    0    0    0  501 -0.00000000000E+00 -0.00000000000E+00 -0.55106641511E+03  0.55106641511E+03  0.00000000000E+00 0.  1.
         23    2    1    2    0    0 -0.15437900798E+03  0.26331944546E+03  0.44217971733E+03  0.54504999723E+03  0.91578319495E+02 0.  0.
        254    2    1    2    0    0  0.15437900798E+03 -0.26331944546E+03 -0.53206703724E+02  0.94605584659E+03  0.89387957975E+03 0.  0.
        -24    2    4    4    0    0  0.76185233469E+02  0.12771467694E+03  0.34042504982E+03  0.38007768334E+03  0.80340539692E+02 0.  0.
         24    2    4    4    0    0  0.78193774507E+02 -0.39103412240E+03 -0.39363175355E+03  0.56597816326E+03  0.79770750446E+02 0.  0.
         11    1    3    3    0    0 -0.70268952821E+02  0.20314500599E+03  0.28721743715E+03  0.35874709113E+03  0.00000000000E+00 0. -1.
        -11    1    3    3    0    0 -0.84110055155E+02  0.60174439470E+02  0.15496228018E+03  0.18630290610E+03  0.00000000000E+00 0.  1.
          4    1    6    6  502    0  0.67485730189E+02 -0.23159259507E+03 -0.18961717194E+03  0.30682914752E+03  0.00000000000E+00 0. -1.
          1    1    5    5  503    0 -0.93811130874E+01  0.18416560294E+02  0.10300207613E+03  0.10505523625E+03  0.00000000000E+00 0. -1.
         -2    1    5    5    0  503  0.85566346556E+02  0.10929811664E+03  0.23742297369E+03  0.27502244709E+03  0.00000000000E+00 0.  1.
         -3    1    6    6    0  502  0.10708044318E+02 -0.15944152733E+03 -0.20401458160E+03  0.25914901574E+03  0.00000000000E+00 0.  1.
<mgrwt>
<rscale>  0 0.14394779E+04</rscale>
<asrwt>0</asrwt>
<pdfrwt beam="1">  1        2 0.14462145E+00 0.14394779E+04</pdfrwt>
<pdfrwt beam="2">  1       -2 0.84779449E-01 0.14394779E+04</pdfrwt>
<totfact> 0.32434763E+01</totfact>
</mgrwt>
</event>
<event>
12    1  0.1519630E-007  0.1178679E+04  0.7818608E-02  0.9131726E-01
         -1   -1    0    0    0  501 -0.00000000000E+00  0.00000000000E+00  0.52934757196E+03  0.52934757196E+03  0.00000000000E+00 0.  1.
          1   -1    0    0  501    0  0.00000000000E+00 -0.00000000000E+00 -0.65613094979E+03  0.65613094979E+03  0.00000000000E+00 0. -1.
         23    2    1    2    0    0  0.10700969340E+03 -0.55251115568E+02 -0.18775226622E+03  0.24167567502E+03  0.93018590471E+02 0.  0.
        254    2    1    2    0    0 -0.10700969340E+03  0.55251115568E+02  0.60968888398E+02  0.94380284672E+03  0.93410002028E+03 0.  0.
        -24    2    4    4    0    0 -0.19226776627E+03 -0.45314531277E+02  0.46474520926E+03  0.51130791477E+03  0.80170901751E+02 0.  0.
         24    2    4    4    0    0  0.85258072873E+02  0.10056564685E+03 -0.40377632086E+03  0.43249493195E+03  0.81450356426E+02 0.  0.
         11    1    3    3    0    0  0.10095915938E+02 -0.53468572218E+02 -0.55701766374E+02  0.77868494983E+02  0.00000000000E+00 0.  1.
        -11    1    3    3    0    0  0.96913777460E+02 -0.17825433498E+01 -0.13205049985E+03  0.16380718004E+03  0.00000000000E+00 0. -1.
          4    1    6    6  502    0  0.30229956241E+02  0.51253622419E+02 -0.76160652390E+02  0.96650033822E+02  0.00000000000E+00 0. -1.
          1    1    5    5  503    0 -0.93978359371E+02 -0.58933785510E+01  0.13219365332E+03  0.16230165100E+03  0.00000000000E+00 0. -1.
         -2    1    5    5    0  503 -0.98289406899E+02 -0.39421152726E+02  0.33255155594E+03  0.34900626377E+03  0.00000000000E+00 0.  1.
         -3    1    6    6    0  502  0.55028116632E+02  0.49312024426E+02 -0.32761566847E+03  0.33584489813E+03  0.00000000000E+00 0.  1.
<mgrwt>
<rscale>  0 0.11786795E+04</rscale>
<asrwt>0</asrwt>
<pdfrwt beam="1">  1        1 0.10094322E+00 0.11786795E+04</pdfrwt>
<pdfrwt beam="2">  1       -1 0.81438088E-01 0.11786795E+04</pdfrwt>
<totfact> 0.44725486E+01</totfact>
</mgrwt>
</event>
<event>
12    1  0.1519630E-007  0.1779937E+04  0.7818608E-02  0.8717042E-01
          1   -1    0    0  501    0  0.00000000000E+00  0.00000000000E+00  0.78189841281E+03  0.78189841281E+03  0.00000000000E+00 0. -1.
         -1   -1    0    0    0  501 -0.00000000000E+00 -0.00000000000E+00 -0.10129752332E+04  0.10129752332E+04  0.00000000000E+00 0.  1.
         23    2    1    2    0    0  0.35530673922E+03  0.54304495444E+03 -0.70246245710E+02  0.65912472963E+03  0.91488647908E+02 0.  0.
        254    2    1    2    0    0 -0.35530673922E+03 -0.54304495444E+03 -0.16083057464E+03  0.11357489163E+04  0.91810589027E+03 0.  0.
        -24    2    4    4    0    0 -0.46286744221E+02 -0.44033601518E+03  0.31883777740E+03  0.55071513892E+03  0.74775443733E+02 0.  0.
         24    2    4    4    0    0 -0.30901999500E+03 -0.10270893927E+03 -0.47966835204E+03  0.58503377742E+03  0.78360125453E+02 0.  0.
         13    1    3    3    0    0  0.53533541012E+02  0.15085249139E+03 -0.67479626046E+01  0.16021188835E+03  0.00000000000E+00 0. -1.
        -13    1    3    3    0    0  0.30177319821E+03  0.39219246306E+03 -0.63498283105E+02  0.49891284128E+03  0.00000000000E+00 0.  1.
          2    1    6    6  502    0 -0.10404254662E+02 -0.17820119730E+02 -0.56883619291E+02  0.60510753804E+02  0.00000000000E+00 0. -1.
          1    1    5    5  503    0  0.34535507504E+01 -0.80220379499E+01  0.22757511847E+02  0.24375898980E+02  0.00000000000E+00 0. -1.
         -2    1    5    5    0  503 -0.49740294972E+02 -0.43231397723E+03  0.29608026556E+03  0.52633923994E+03  0.00000000000E+00 0.  1.
         -1    1    6    6    0  502 -0.29861574034E+03 -0.84888819535E+02 -0.42278473275E+03  0.52452302362E+03  0.00000000000E+00 0.  1.
<mgrwt>
<rscale>  0 0.17799368E+04</rscale>
<asrwt>0</asrwt>
<pdfrwt beam="1">  1        1 0.12029206E+00 0.17799368E+04</pdfrwt>
<pdfrwt beam="2">  1       -1 0.15584234E+00 0.17799368E+04</pdfrwt>
<totfact> 0.68159292E+00</totfact>
</mgrwt>
</event>
<event>
12    1  0.1519630E-007  0.1299415E+04  0.7818608E-02  0.9030029E-01
          2   -1    0    0  501    0  0.00000000000E+00  0.00000000000E+00  0.72421637265E+03  0.72421637265E+03  0.00000000000E+00 0. -1.
         -2   -1    0    0    0  501 -0.00000000000E+00 -0.00000000000E+00 -0.58286449700E+03  0.58286449700E+03  0.00000000000E+00 0.  1.
         23    2    1    2    0    0  0.29873356104E+02 -0.11986396752E+03  0.34763528147E+03  0.37476412863E+03  0.65864065063E+02 0.  0.
        254    2    1    2    0    0 -0.29873356104E+02  0.11986396752E+03 -0.20628340582E+03  0.93231674103E+03  0.90077848218E+03 0.  0.
        -24    2    4    4    0    0  0.22317675999E+02 -0.33515617627E+02 -0.54297444179E+03  0.55027863356E+03  0.79774399582E+02 0.  0.
         24    2    4    4    0    0 -0.52191032103E+02  0.15337958515E+03  0.33669103597E+03  0.38203810747E+03  0.79643335458E+02 0.  0.
         13    1    3    3    0    0  0.54037354514E+01 -0.24655322735E+02  0.18587402362E+02  0.31346081455E+02  0.00000000000E+00 0.  1.
        -13    1    3    3    0    0  0.24469620652E+02 -0.95208644784E+02  0.32904787911E+03  0.34341804717E+03  0.00000000000E+00 0. -1.
          4    1    6    6  502    0  0.48330369372E-02  0.81529226198E+02  0.22517568617E+03  0.23948090610E+03  0.00000000000E+00 0. -1.
          1    1    5    5  503    0 -0.78324271976E+01  0.45662632913E+01 -0.38266271218E+03  0.38277009937E+03  0.00000000000E+00 0. -1.
         -4    1    5    5    0  503  0.30150103197E+02 -0.38081880918E+02 -0.16031172961E+03  0.16750853419E+03  0.00000000000E+00 0.  1.
         -3    1    6    6    0  502 -0.52195865140E+02  0.71850358948E+02  0.11151534980E+03  0.14255720136E+03  0.00000000000E+00 0.  1.
<mgrwt>
<rscale>  0 0.12994153E+04</rscale>
<asrwt>0</asrwt>
<pdfrwt beam="1">  1        2 0.11141790E+00 0.12994153E+04</pdfrwt>
<pdfrwt beam="2">  1       -2 0.89671461E-01 0.12994153E+04</pdfrwt>
<totfact> 0.41001911E+01</totfact>
</mgrwt>
</event>
<event>
12    1  0.1519630E-007  0.1863416E+04  0.7818608E-02  0.8673284E-01
         -1   -1    0    0    0  501 -0.00000000000E+00  0.00000000000E+00  0.30160424268E+03  0.30160424268E+03  0.00000000000E+00 0. -1.
          1   -1    0    0  501    0  0.00000000000E+00 -0.00000000000E+00 -0.28782081174E+04  0.28782081174E+04  0.00000000000E+00 0.  1.
         23    2    1    2    0    0 -0.32726688503E+03  0.47150937094E+02 -0.20754764960E+04  0.21036673721E+04  0.92124384564E+02 0.  0.
        254    2    1    2    0    0  0.32726688503E+03 -0.47150937094E+02 -0.50112737878E+03  0.10761449880E+04  0.89310277154E+03 0.  0.
        -24    2    4    4    0    0 -0.10751703348E+03  0.14339334029E+03  0.16304715828E+03  0.25609530193E+03  0.82938925236E+02 0.  0.
         24    2    4    4    0    0  0.43478391850E+03 -0.19054427739E+03 -0.66417453706E+03  0.82004968607E+03  0.77520929508E+02 0.  0.
         13    1    3    3    0    0 -0.21578292436E+03  0.66749628206E+02 -0.12197613239E+04  0.12404980736E+04  0.00000000000E+00 0.  1.
        -13    1    3    3    0    0 -0.11148396067E+03 -0.19598691112E+02 -0.85571517209E+03  0.86316929853E+03  0.00000000000E+00 0. -1.
          4    1    6    6  502    0  0.13693294755E+03 -0.31618584495E+02 -0.23755451245E+03  0.27601179938E+03  0.00000000000E+00 0. -1.
          1    1    5    5  503    0 -0.27502186330E+02  0.54619917114E+02  0.10888627028E+03  0.12488364766E+03  0.00000000000E+00 0. -1.
         -2    1    5    5    0  503 -0.80014847147E+02  0.88773423180E+02  0.54160888008E+02  0.13121165427E+03  0.00000000000E+00 0.  1.
         -3    1    6    6    0  502  0.29785097095E+03 -0.15892569289E+03 -0.42662002461E+03  0.54403788669E+03  0.00000000000E+00 0.  1.
<mgrwt>
<rscale>  0 0.18634160E+04</rscale>
<asrwt>0</asrwt>
<pdfrwt beam="1">  1        1 0.44280128E+00 0.18634160E+04</pdfrwt>
<pdfrwt beam="2">  1       -1 0.46400650E-01 0.18634160E+04</pdfrwt>
<totfact> 0.31855485E+00</totfact>
</mgrwt>
</event>
<event>
12    1  0.1519630E-007  0.1842974E+04  0.7818608E-02  0.8683774E-01
         -1   -1    0    0    0  501 -0.00000000000E+00  0.00000000000E+00  0.58922998338E+03  0.58922998338E+03  0.00000000000E+00 0.  1.
          1   -1    0    0  501    0  0.00000000000E+00 -0.00000000000E+00 -0.14410990192E+04  0.14410990192E+04  0.00000000000E+00 0. -1.
         23    2    1    2    0    0  0.59088733817E+03  0.14319514922E+03 -0.69966318947E+03  0.93115542782E+03  0.88708257147E+02 0.  0.
        254    2    1    2    0    0 -0.59088733817E+03 -0.14319514922E+03 -0.15220584634E+03  0.10991735748E+04  0.90297465668E+03 0.  0.
        -24    2    4    4    0    0 -0.37288633131E+03  0.58000632049E+02  0.34249033498E+03  0.51578148768E+03  0.79514929994E+02 0.  0.
         24    2    4    4    0    0 -0.21800100686E+03 -0.20119578127E+03 -0.49469618131E+03  0.58339208707E+03  0.87280204252E+02 0.  0.
         13    1    3    3    0    0  0.41502747259E+03  0.13696851896E+03 -0.46956737415E+03  0.64148398036E+03  0.00000000000E+00 0. -1.
        -13    1    3    3    0    0  0.17585986558E+03  0.62266302648E+01 -0.23009581532E+03  0.28967144746E+03  0.00000000000E+00 0.  1.
          2    1    6    6  502    0  0.26692864627E+01 -0.23987258489E+02 -0.23205586536E+02  0.33481530827E+02  0.00000000000E+00 0. -1.
          3    1    5    5  503    0 -0.14873976631E+03 -0.15951458956E+02  0.12958487208E+03  0.19791464372E+03  0.00000000000E+00 0. -1.
         -4    1    5    5    0  503 -0.22414656500E+03  0.73952091005E+02  0.21290546289E+03  0.31786684397E+03  0.00000000000E+00 0.  1.
         -1    1    6    6    0  502 -0.22067029332E+03 -0.17720852278E+03 -0.47149059478E+03  0.54991055624E+03  0.00000000000E+00 0.  1.
<mgrwt>
<rscale>  0 0.18429745E+04</rscale>
<asrwt>0</asrwt>
<pdfrwt beam="1">  1        1 0.22170754E+00 0.18429745E+04</pdfrwt>
<pdfrwt beam="2">  1       -1 0.90650767E-01 0.18429745E+04</pdfrwt>
<totfact> 0.80356314E+00</totfact>
</mgrwt>
</event>
<event>
12    1  0.1519630E-007  0.1047952E+04  0.7818608E-02  0.9257461E-01
         -2   -1    0    0    0  501 -0.00000000000E+00  0.00000000000E+00  0.44912053994E+03  0.44912053994E+03  0.00000000000E+00 0. -1.
          2   -1    0    0  501    0  0.00000000000E+00 -0.00000000000E+00 -0.61130724519E+03  0.61130724519E+03  0.00000000000E+00 0.  1.
         23    2    1    2    0    0 -0.42548538466E+02 -0.95799436735E+02 -0.31669176591E+02  0.14180144492E+03  0.90093300701E+02 0.  0.
        254    2    1    2    0    0  0.42548538466E+02  0.95799436735E+02 -0.13051752866E+03  0.91862634020E+03  0.90324504838E+03 0.  0.
        -24    2    4    4    0    0 -0.30768781766E+03  0.33936967810E+03 -0.13488345003E+03  0.48374631731E+03  0.77287663134E+02 0.  0.
         24    2    4    4    0    0  0.35023635612E+03 -0.24357024136E+03  0.43659213674E+01  0.43488002289E+03  0.84318476117E+02 0.  0.
         13    1    3    3    0    0 -0.14101795885E+02 -0.54518101480E+02  0.28802546507E+02  0.63250855499E+02  0.00000000000E+00 0. -1.
        -13    1    3    3    0    0 -0.28446742581E+02 -0.41281335256E+02 -0.60471723098E+02  0.78550589421E+02  0.00000000000E+00 0.  1.
          2    1    6    6  502    0  0.29591026468E+03 -0.22881719001E+03 -0.17550402663E+02  0.37447057004E+03  0.00000000000E+00 0. -1.
          3    1    5    5  503    0 -0.25692902969E+03  0.26197568955E+03 -0.78088077683E+02  0.37515534927E+03  0.00000000000E+00 0. -1.
         -2    1    5    5    0  503 -0.50758787969E+02  0.77393988546E+02 -0.56795372346E+02  0.10859096804E+03  0.00000000000E+00 0.  1.
         -1    1    6    6    0  502  0.54326091441E+02 -0.14753051346E+02  0.21916324030E+02  0.60409452856E+02  0.00000000000E+00 0.  1.
<mgrwt>
<rscale>  0 0.10479516E+04</rscale>
<asrwt>0</asrwt>
<pdfrwt beam="1">  1        2 0.94047268E-01 0.10479516E+04</pdfrwt>
<pdfrwt beam="2">  1       -2 0.69095468E-01 0.10479516E+04</pdfrwt>
<totfact> 0.92401160E+01</totfact>
</mgrwt>
</event>
<event>
12    1  0.1519630E-007  0.1261013E+04  0.7818608E-02  0.9061067E-01
         -2   -1    0    0    0  501 -0.00000000000E+00  0.00000000000E+00  0.15528202704E+04  0.15528202704E+04  0.00000000000E+00 0.  1.
          2   -1    0    0  501    0  0.00000000000E+00 -0.00000000000E+00 -0.25601044397E+03  0.25601044397E+03  0.00000000000E+00 0. -1.
         23    2    1    2    0    0  0.63386057500E+02  0.22232480282E+03  0.34921340074E+02  0.24955305596E+03  0.87241718874E+02 0.  0.
        254    2    1    2    0    0 -0.63386057500E+02 -0.22232480282E+03  0.12618884864E+04  0.15592776584E+04  0.88630590307E+03 0.  0.
        -24    2    4    4    0    0 -0.21740246469E+03  0.27451158119E+03  0.71542665906E+03  0.80063007077E+03  0.80949156068E+02 0.  0.
         24    2    4    4    0    0  0.15401640719E+03 -0.49683638400E+03  0.54646182734E+03  0.75864758768E+03  0.79738243034E+02 0.  0.
         11    1    3    3    0    0 -0.13328910833E+02  0.10998542700E+03  0.98435534707E+01  0.11122656859E+03  0.00000000000E+00 0.  1.
        -11    1    3    3    0    0  0.76714968333E+02  0.11233937582E+03  0.25077786603E+02  0.13832648736E+03  0.00000000000E+00 0. -1.
          4    1    6    6  502    0  0.78118096975E+01 -0.10856061421E+03  0.14515925174E+03  0.18143219035E+03  0.00000000000E+00 0. -1.
          1    1    5    5  503    0 -0.66529549385E+02  0.14669982921E+03  0.34415240054E+03  0.37998407286E+03  0.00000000000E+00 0. -1.
         -2    1    5    5    0  503 -0.15087291531E+03  0.12781175198E+03  0.37127425852E+03  0.42064599791E+03  0.00000000000E+00 0.  1.
         -3    1    6    6    0  502  0.14620459750E+03 -0.38827576979E+03  0.40130257559E+03  0.57721539733E+03  0.00000000000E+00 0.  1.
<mgrwt>
<rscale>  0 0.12610126E+04</rscale>
<asrwt>0</asrwt>
<pdfrwt beam="1">  1        2 0.39386223E-01 0.12610126E+04</pdfrwt>
<pdfrwt beam="2">  1       -2 0.23889542E+00 0.12610126E+04</pdfrwt>
<totfact> 0.97050749E+00</totfact>
</mgrwt>
</event>
<event>
12    1  0.1519630E-007  0.1062227E+04  0.7818608E-02  0.9242811E-01
          2   -1    0    0  501    0  0.00000000000E+00  0.00000000000E+00  0.83135833080E+03  0.83135833080E+03  0.00000000000E+00 0. -1.
         -2   -1    0    0    0  501 -0.00000000000E+00 -0.00000000000E+00 -0.33930197174E+03  0.33930197174E+03  0.00000000000E+00 0.  1.
         23    2    1    2    0    0 -0.10929166372E+03  0.17057252465E+02  0.77656331160E+02  0.16778803014E+03  0.99431884568E+02 0.  0.
        254    2    1    2    0    0  0.10929166372E+03 -0.17057252465E+02  0.41440002791E+03  0.10028722724E+04  0.90652622356E+03 0.  0.
        -24    2    4    4    0    0  0.47950926669E+03 -0.15572983924E+03  0.24045300288E+03  0.56382618878E+03  0.76820601911E+02 0.  0.
         24    2    4    4    0    0 -0.37021760298E+03  0.13867258678E+03  0.17394702502E+03  0.43904608363E+03  0.78820911900E+02 0.  0.
         11    1    3    3    0    0  0.65717284581E+01  0.31175019040E+02  0.13551040639E+02  0.34622249053E+02  0.00000000000E+00 0.  1.
        -11    1    3    3    0    0 -0.11586339217E+03 -0.14117766575E+02  0.64105290521E+02  0.13316578108E+03  0.00000000000E+00 0. -1.
          4    1    6    6  502    0 -0.20159617544E+02  0.11845663746E+02  0.34052253596E+02  0.41307213705E+02  0.00000000000E+00 0. -1.
          3    1    5    5  503    0  0.29069942456E+03 -0.96073764700E+02  0.10397017075E+03  0.32333592455E+03  0.00000000000E+00 0. -1.
         -4    1    5    5    0  503  0.18880984213E+03 -0.59656074545E+02  0.13648283214E+03  0.24049026422E+03  0.00000000000E+00 0.  1.
         -3    1    6    6    0  502 -0.35005798543E+03  0.12682692303E+03  0.13989477143E+03  0.39773886992E+03  0.00000000000E+00 0.  1.
<mgrwt>
<rscale>  0 0.10622269E+04</rscale>
<asrwt>0</asrwt>
<pdfrwt beam="1">  1        2 0.12790128E+00 0.10622269E+04</pdfrwt>
<pdfrwt beam="2">  1       -2 0.52200303E-01 0.10622269E+04</pdfrwt>
<totfact> 0.11276357E+02</totfact>
</mgrwt>
</event>
